LAMMPS data file via write_data, version 19 Mar 2020, timestep = 100000

1728 atoms
1 atom types

0.0000000000000000e+00 2.1263999999999999e+01 xlo xhi
0.0000000000000000e+00 2.1263999999999999e+01 ylo yhi
-1.3680406632619828e+00 4.3896040663265367e+01 zlo zhi

Masses

1 58.933

Atoms # atomic

27 1 1.7999231170619931e+00 3.6266459665111217e+00 5.1325107131637582e-01 0 0 0
173 1 3.1781718902355003e+00 3.5847333510225905e+00 2.2735245203948224e+00 0 0 0
146 1 1.6427207174386236e+00 1.6476017366721505e+00 2.2508753348863966e+00 0 0 0
8 1 3.5606066131160068e+00 1.9792029135699967e+00 5.0974735329160659e-01 0 0 0
3 1 1.6616993853820952e+00 2.1217039583994826e+01 4.0849792356507786e-01 0 -1 0
743 1 1.9737946132382632e+01 2.1088625855553929e+01 1.9058840927705425e+01 0 -1 0
149 1 3.3727703176476296e+00 3.5543881272093980e-01 2.2845128398888286e+00 0 0 0
12 1 7.5860793110355589e+00 2.1597778345264853e+00 4.0599393258249106e-01 0 0 0
31 1 5.2552079844823103e+00 3.6567494045553866e+00 5.6762973501901071e-01 0 0 0
150 1 5.3838148309802936e+00 1.9652134600777924e+00 2.1695831241247165e+00 0 0 0
177 1 6.7427357413358999e+00 3.6778801561252541e+00 2.5645345839742082e+00 0 0 0
153 1 7.0501129373999074e+00 7.4350698599870396e-02 2.5654492556335509e+00 0 0 0
7 1 5.7039560009626120e+00 7.5873099296487251e-02 6.8435102297439254e-01 0 0 0
26 1 1.4862468515392784e+00 5.7602913117561352e+00 -1.2394739577941796e+00 0 0 0
50 1 1.3671048278293505e+00 8.7054552568340284e+00 -1.0434218201534131e+00 0 0 0
57 1 7.0277507372524264e+00 7.3025301288036291e+00 -1.0676653815222616e+00 0 0 0
721 1 2.5120502236219977e-02 3.0811390486672968e-01 1.7432159527720291e+01 0 0 0
35 1 8.9427869387682879e+00 3.7670616969121049e+00 5.6663784442221798e-01 0 0 0
154 1 9.0204598546591281e+00 2.0758883913155755e+00 2.2514587842087392e+00 0 0 0
16 1 1.0098551144555964e+01 1.3366225616372820e+00 7.9619691728604725e-02 0 0 0
181 1 1.0805732592925263e+01 3.8172801994017362e+00 1.8290877559390233e+00 0 0 0
158 1 1.2472057171118450e+01 1.9522144891011317e+00 2.2182198482680331e+00 0 0 0
39 1 1.2629918711264878e+01 3.6008964874434053e+00 2.5523682372961298e-01 0 0 0
11 1 8.3386222891324131e+00 2.1039926238264620e+01 9.0002424201854536e-01 0 -1 0
5 1 3.4456811596292876e+00 2.9705341868015239e-01 -1.3390473936757992e+00 0 0 0
862 1 1.9473899844149582e+01 1.9768060621172147e+01 1.7142617231582097e+01 0 0 0
20 1 1.3980102522287506e+01 1.6362184137396800e+00 2.7509043219794882e-01 0 0 0
43 1 1.5461239664590135e+01 3.5532006749508973e+00 7.7133958389452362e-01 0 0 0
162 1 1.5521488538886986e+01 1.9431712109191299e+00 2.6699195187852247e+00 0 0 0
185 1 1.4184983827656330e+01 3.6184711384692578e+00 2.7804175973013150e+00 0 0 0
19 1 1.5750627961193413e+01 1.9207486896860360e-02 9.3122979333256550e-01 0 0 0
161 1 1.4030664163497130e+01 2.1123414622642802e+01 2.4057249838410115e+00 0 -1 0
4 1 2.1121032121912407e+01 1.9508308644782493e+00 6.2155737047999704e-01 -1 0 0
169 1 2.1210296619487618e+01 3.5983392497857039e+00 2.2999321136391866e+00 -1 0 0
24 1 1.7253533984956690e+01 1.8390418134425741e+00 7.2295655463336450e-01 0 0 0
47 1 1.9108444707332602e+01 3.2192404689694700e+00 7.6777441596676343e-01 0 0 0
189 1 1.7318608053986090e+01 3.7533883022699399e+00 2.4911371130309150e+00 0 0 0
166 1 1.9472064933718176e+01 1.7382916807813602e+00 2.4768810640389707e+00 0 0 0
23 1 1.9340679037636257e+01 1.7704251530682658e-01 4.3910824368239698e-01 0 0 0
861 1 1.8108512367349299e+01 1.8222877447917824e+01 1.7605559742219466e+01 0 0 0
32 1 3.3406832948043141e+00 5.3662772834047470e+00 9.3384342299772172e-01 0 0 0
51 1 1.5491135821075355e+00 7.2696744266736344e+00 7.0030318679914716e-01 0 0 0
170 1 1.6330352442967671e+00 5.3706361541174914e+00 2.4160570464648057e+00 0 0 0
197 1 3.2665019401190927e+00 7.2689125545063771e+00 2.5099263116912685e+00 0 0 0
193 1 2.1158060176198141e+01 7.3663634980902035e+00 2.6527847166304399e+00 -1 0 0
1403 1 1.0286865532967182e+01 7.1940400224365844e+00 2.1084709984272351e+01 1 1 0
863 1 1.9401567931952226e+01 1.7562999779830228e+01 1.9584262059394444e+01 0 0 0
864 1 1.8090061070009579e+01 1.9730455768023766e+01 1.9832035137135758e+01 0 0 0
36 1 6.9641383644873889e+00 5.4934767922901129e+00 7.5349371476543503e-01 0 0 0
55 1 5.2906931916964437e+00 7.0599592023253610e+00 6.8494626945344628e-01 0 0 0
201 1 7.0848579979826223e+00 7.3379269539292187e+00 2.2595062281103377e+00 0 0 0
174 1 5.2641122899724850e+00 5.5551314086382231e+00 2.1547532881659568e+00 0 0 0
741 1 1.7653521401223532e+01 2.1019481717308899e+01 1.7652984214478760e+01 0 -1 0
178 1 8.9851734027247332e+00 5.5768686347774707e+00 2.5249974269917965e+00 0 0 0
59 1 8.8175014831481846e+00 7.4172843422702268e+00 4.3322286284921896e-01 0 0 0
40 1 1.0639517283110052e+01 5.7337411880500975e+00 2.4940300952642347e-01 0 0 0
205 1 1.0646542082244883e+01 7.4654337772718504e+00 1.8700368891844810e+00 0 0 0
63 1 1.2512815379327145e+01 7.3075045063210338e+00 5.5412771421737683e-01 0 0 0
739 1 1.6128300194043401e+01 1.0491142060716978e-01 1.9591354811000109e+01 0 0 0
73 1 2.1225532589147942e+01 1.0685186845292414e+01 -1.3578938319140612e+00 -1 0 0
94 1 1.9521590232279344e+01 1.2650589183739495e+01 -1.3171880897478236e+00 0 0 0
182 1 1.2095755802130506e+01 5.5908315479214341e+00 2.5399400139702153e+00 0 0 0
44 1 1.4370994627753470e+01 5.6481401804270774e+00 7.2975872491302152e-01 0 0 0
67 1 1.5982294467858368e+01 7.4500140716504637e+00 5.7955026588120639e-01 0 0 0
209 1 1.3887254528413916e+01 7.3200112246514220e+00 2.7378939584284785e+00 0 0 0
186 1 1.5878500324873563e+01 5.6572043967902728e+00 2.5085957785747781e+00 0 0 0
860 1 1.3866285314544880e+01 1.9799866650540313e+01 1.9410858430510270e+01 0 0 0
28 1 2.0816606371530092e+01 5.2542911477881686e+00 5.6872826271787313e-01 -1 0 0
48 1 1.7417883255067672e+01 5.1403082837533001e+00 6.5247338409000610e-01 0 0 0
71 1 1.8828616256108912e+01 6.9299335385347707e+00 8.0265594378821570e-01 0 0 0
213 1 1.7497123874127908e+01 7.2640534626015372e+00 2.5220458775532104e+00 0 0 0
190 1 1.9264419873687157e+01 5.5125833635978854e+00 2.5824488168994670e+00 0 0 0
49 1 2.0958094022386891e+01 7.0542633771819609e+00 -1.2088308646820822e+00 -1 0 0
194 1 1.5338121591530478e+00 9.0607707075550135e+00 2.7655091526356914e+00 0 0 0
56 1 3.2695989696567098e+00 8.8577827813561587e+00 7.7213831297705582e-01 0 0 0
75 1 1.5913390740794040e+00 1.0417807652832785e+01 5.3378920162901378e-01 0 0 0
221 1 3.3931402556493606e+00 1.0706668728976364e+01 2.4958992528855308e+00 0 0 0
80 1 3.0985989974439088e+00 1.2167968468292306e+01 4.8219002333731287e-01 0 0 0
218 1 1.3433705634954098e+00 1.2188419304529818e+01 2.4111802379129648e+00 0 0 0
52 1 2.0930954563219103e+01 8.9976979093546099e+00 9.1441971354961771e-01 -1 0 0
38 1 1.2350010285360515e+01 5.3822866827848355e+00 -1.2678922058036843e+00 0 0 0
60 1 6.7574262549693200e+00 9.3187374423067055e+00 4.7205281837231805e-01 0 0 0
79 1 4.8083342320723474e+00 1.0840613742775908e+01 6.3787656764410805e-01 0 0 0
198 1 5.2487862700804815e+00 9.1068004716269684e+00 2.5181549259146667e+00 0 0 0
225 1 6.7334677689198212e+00 1.0856166429288132e+01 2.4543442322357789e+00 0 0 0
222 1 4.9297419872546966e+00 1.2638688743674873e+01 2.7315321740212841e+00 0 0 0
102 1 8.5108697591201405e+00 1.6276317301905415e+01 -1.2993280134088296e+00 0 0 0
858 1 1.5681473955098523e+01 1.9586524769784162e+01 1.7536887258176979e+01 0 0 0
226 1 8.5749724137904284e+00 1.2644944968802175e+01 2.4721700601185250e+00 0 0 0
202 1 8.7248010148340267e+00 8.9576396853406930e+00 2.1338129947903459e+00 0 0 0
206 1 1.2186368914952707e+01 9.1633067777067883e+00 2.5605508440969893e+00 0 0 0
83 1 8.6457025750710947e+00 1.0925434357837890e+01 4.4358854176896756e-01 0 0 0
64 1 1.0402087497657373e+01 9.3409489013155351e+00 3.8761691384208952e-01 0 0 0
87 1 1.2409023387910203e+01 1.0700617250513101e+01 4.8815716087960936e-01 0 0 0
229 1 1.0336149852439366e+01 1.0755722699869310e+01 2.4985355654406236e+00 0 0 0
88 1 1.0409054598188783e+01 1.2440543857265991e+01 3.2094380536149125e-01 0 0 0
1399 1 6.6395439659462321e+00 1.8045724932727861e+01 -1.2974913596276647e+00 0 1 1
857 1 1.3870826245002407e+01 1.8141580877461262e+01 1.7575009868972597e+01 0 0 0
109 1 1.0030223778695845e+01 1.4389665485634858e+01 -1.2135690716640242e+00 0 0 0
1067 1 5.5753343212167357e+00 1.9367477966239637e+01 2.1218524142109409e+01 1 0 0
230 1 1.1776325785253054e+01 1.2733442827825412e+01 2.1908906213342592e+00 0 0 0
210 1 1.5870568161177127e+01 8.9540890507828674e+00 2.7703337935164036e+00 0 0 0
68 1 1.4257375579630803e+01 9.1575118553403918e+00 9.1390932898050492e-01 0 0 0
91 1 1.5723547344083151e+01 1.0858820702264444e+01 8.1789741718383047e-01 0 0 0
233 1 1.4043125394407575e+01 1.0659880557077017e+01 2.7539184474940432e+00 0 0 0
234 1 1.5993656592184820e+01 1.2872400893859341e+01 2.4993446493566669e+00 0 0 0
859 1 1.6068712012745589e+01 1.8208837247885352e+01 1.9435480777672307e+01 0 0 0
76 1 2.1232535594403288e+01 1.2506341257251366e+01 5.1757756283797929e-01 -1 0 0
217 1 2.0719120193529289e+01 1.0989340261538665e+01 2.3316162162026957e+00 -1 0 0
214 1 1.9319649321375643e+01 9.1644097051058448e+00 2.5899667752147693e+00 0 0 0
72 1 1.7640667884926774e+01 9.2307591299600453e+00 4.2643227333155109e-01 0 0 0
95 1 1.9353872367493661e+01 1.1070458474157681e+01 4.1273446085482934e-01 0 0 0
237 1 1.7566759015730486e+01 1.0810843936644821e+01 2.3520749207223846e+00 0 0 0
96 1 1.7545693637604035e+01 1.2464372428633071e+01 5.8509931594580977e-01 0 0 0
238 1 1.9082131468519890e+01 1.2800551788141657e+01 2.4934635971401069e+00 0 0 0
69 1 1.7571041970398525e+01 7.2321722822516765e+00 -1.3127065277746497e+00 0 0 0
854 1 1.2010758638933215e+01 1.9819446546438158e+01 1.7451746642371063e+01 0 0 0
99 1 1.4353247468548238e+00 1.4260982778685856e+01 2.4711609378402333e-01 0 0 0
104 1 3.4144528249400925e+00 1.6006579464156598e+01 2.0010173311409840e-01 0 0 0
242 1 1.6104701912770576e+00 1.6071535805141373e+01 2.0754895994988427e+00 0 0 0
245 1 2.8253442517403009e+00 1.3858653547935413e+01 2.1297628093087675e+00 0 0 0
241 1 2.0904879356578789e+01 1.4264925817535259e+01 2.3618555052600931e+00 -1 0 0
105 1 6.4968245363656516e+00 1.3676854706210959e+01 -1.3574609497077370e+00 0 0 0
84 1 6.7703894400487288e+00 1.2120637985086571e+01 4.5411718250433530e-01 0 0 0
103 1 4.9169394960514428e+00 1.3826858033595981e+01 7.4474957395912034e-01 0 0 0
108 1 6.6611768222854781e+00 1.6205497471720435e+01 5.2261430193634095e-01 0 0 0
249 1 6.6503932789509781e+00 1.4483586066108813e+01 2.5427131804569032e+00 0 0 0
246 1 4.8135212684891009e+00 1.5858734849461886e+01 2.4746269661095797e+00 0 0 0
107 1 8.2526271631829999e+00 1.3894163762619648e+01 6.6379473033654302e-01 0 0 0
250 1 8.5711146993293390e+00 1.6137978069685552e+01 1.9228342774242471e+00 0 0 0
112 1 1.0504686396303173e+01 1.6202347208424968e+01 3.0215864835808914e-01 0 0 0
253 1 1.0275224209611473e+01 1.4210066376750909e+01 2.4473585657698069e+00 0 0 0
111 1 1.2132774022594980e+01 1.4460003294630578e+01 4.3638246393545743e-01 0 0 0
254 1 1.2295514506585285e+01 1.6144815839980872e+01 2.3171516007723234e+00 0 0 0
90 1 1.5684860543263605e+01 1.2449409300127879e+01 -1.0844818102952067e+00 0 0 0
850 1 8.8647486054360893e+00 1.9442305246410307e+01 1.7849793727758332e+01 0 0 0
92 1 1.4218652079619773e+01 1.2851783656581691e+01 6.3592616475825414e-01 0 0 0
115 1 1.6084660057281400e+01 1.4401576420678410e+01 3.6336527990905121e-01 0 0 0
116 1 1.4133723531025245e+01 1.6061896226704476e+01 3.5913430018773917e-01 0 0 0
258 1 1.5737005220579210e+01 1.6082341123611506e+01 2.5764159038891776e+00 0 0 0
257 1 1.3746283718554174e+01 1.4456139925775709e+01 2.3589427526366671e+00 0 0 0
101 1 3.7407749858160204e+00 1.4179330173196840e+01 -1.1661327219458657e+00 0 0 0
54 1 5.3708201958437627e+00 9.1730474896715553e+00 -1.3125371156739043e+00 0 0 0
100 1 4.7275736647133471e-02 1.6108154928674047e+01 9.1092429014529186e-02 0 0 0
119 1 1.9234560783245996e+01 1.4206714956282523e+01 6.6410799281553912e-01 0 0 0
120 1 1.7601314099762078e+01 1.6086637787097338e+01 5.4478771529636871e-01 0 0 0
262 1 1.9664734720014160e+01 1.6137009943102576e+01 2.0614236224104654e+00 0 0 0
261 1 1.7719922655504195e+01 1.4765909692530583e+01 2.5205515989953571e+00 0 0 0
1548 1 5.0219108021056931e+00 1.2545736547849437e+01 2.1199047299484100e+01 0 1 0
123 1 1.7920320939343897e+00 1.8292154926966294e+01 3.2966649122395308e-01 0 0 0
128 1 3.7160613420223068e+00 1.9730445850704328e+01 3.9759240214965530e-01 0 0 0
269 1 3.2720349953974219e+00 1.7811052428936719e+01 2.0419324834499242e+00 0 0 0
266 1 2.0400756790577796e+00 1.9622292751411884e+01 2.3274420400305034e+00 0 0 0
124 1 2.0963700382740843e+01 1.9698623174244911e+01 4.0125376609373631e-01 -1 0 0
265 1 1.0766542730346058e-01 1.7939392777064075e+01 2.2780746184580920e+00 0 0 0
46 1 1.9042529886761582e+01 5.5382446076425014e+00 -1.0743310215844248e+00 0 0 0
1140 1 1.9324219050937263e+01 1.5811025436465117e+01 2.1086682483710703e+01 -1 1 0
127 1 5.1548277350953944e+00 1.7981968412199272e+01 5.2102897899769895e-01 0 0 0
132 1 6.9759825227824797e+00 1.9382595935013228e+01 9.2553128248868566e-01 0 0 0
270 1 5.1411578802997990e+00 1.9588431284384274e+01 2.6179581163814922e+00 0 0 0
273 1 6.5102616791158781e+00 1.7590575670801215e+01 2.5156888476991068e+00 0 0 0
1243 1 1.0394527223353228e+01 1.9737556928028507e+01 1.9389116100853574e+01 0 0 0
157 1 1.0276059421655136e+01 2.1100207983147996e+01 2.4041008686263914e+00 0 -1 0
855 1 1.2248865952423008e+01 1.7956901719404662e+01 1.9439112332359777e+01 0 0 0
15 1 1.2305655304747015e+01 9.9700907922625315e-02 7.3625504788009000e-01 0 0 0
135 1 1.2368155435649660e+01 1.7547617052867178e+01 3.5238509124103290e-01 0 0 0
274 1 8.5402308555842019e+00 1.9473059848389976e+01 2.5328794158648287e+00 0 0 0
131 1 8.8203223258539882e+00 1.7870842166597249e+01 6.7716696240718699e-01 0 0 0
136 1 1.0582842163697398e+01 1.9472890734918273e+01 4.6703714087485038e-01 0 0 0
277 1 1.0660118451289026e+01 1.7703122178320978e+01 2.2154338362251735e+00 0 0 0
278 1 1.2200147311645251e+01 1.9288497757560727e+01 2.2955975762884608e+00 0 0 0
25 1 2.1193586221872916e+01 3.4810726887516785e+00 -9.5888925801500946e-01 -1 0 0
139 1 1.6056905602523550e+01 1.7714525585333735e+01 5.4840815624845463e-01 0 0 0
140 1 1.4032016068135425e+01 1.9378679953950094e+01 3.7960862993971745e-01 0 0 0
282 1 1.5829612259094221e+01 1.9235027588573551e+01 2.3275935954842373e+00 0 0 0
281 1 1.3983683674395676e+01 1.7873788518721206e+01 2.2499879863858192e+00 0 0 0
145 1 9.9660231337104221e-03 2.1059191352068041e+01 2.1529116424822949e+00 0 -1 0
165 1 1.7722844306905099e+01 2.8605548308635775e-01 2.2797321815433955e+00 0 0 0
144 1 1.7826190389534446e+01 1.9196297151788318e+01 5.8350030711150702e-01 0 0 0
285 1 1.7652144997314092e+01 1.7794156833190105e+01 2.6844642485728736e+00 0 0 0
143 1 1.9471536844848917e+01 1.7648430527276879e+01 4.0745216338791890e-01 0 0 0
286 1 1.9234202578946618e+01 1.9507880713500168e+01 2.6371019656918300e+00 0 0 0
152 1 3.6002121357402808e+00 2.1243747796784724e+00 4.1740473588179556e+00 0 0 0
171 1 1.4372508327602072e+00 3.1450391407603031e+00 4.3356127076609035e+00 0 0 0
317 1 3.1082548579256590e+00 3.3287111224721326e+00 6.0889759850218459e+00 0 0 0
290 1 1.3190226706271164e+00 1.5361895449353125e+00 6.2256899151973686e+00 0 0 0
147 1 1.5736554833988678e+00 2.1013498792319620e+01 4.2212173651927403e+00 0 -1 0
313 1 2.1038592726323124e+01 3.7171308817735107e+00 6.1926162143668844e+00 -1 0 0
156 1 7.1349071509617339e+00 1.6872310177256442e+00 4.2921266512690641e+00 0 0 0
294 1 5.3621662677853505e+00 1.8082545738108549e+00 6.0192559136937112e+00 0 0 0
321 1 6.7654553645861917e+00 3.7675576796316990e+00 6.1948391465350294e+00 0 0 0
175 1 5.0503442574754791e+00 3.6555562145951757e+00 4.4221395719847045e+00 0 0 0
297 1 7.0678515498340593e+00 2.6125411919185737e-01 6.1812842028104313e+00 0 0 0
151 1 5.4575905707780485e+00 2.5357320254814159e-01 4.2647971953631592e+00 0 0 0
179 1 8.8809422094420807e+00 3.6780869550648156e+00 4.2601937509151453e+00 0 0 0
298 1 8.6976706405382078e+00 2.0005569777038890e+00 6.0858942329915395e+00 0 0 0
160 1 1.0657573251328676e+01 1.8459348478560400e+00 3.9613238533573005e+00 0 0 0
325 1 1.0171081864671732e+01 3.8810176380326915e+00 6.3383869813495197e+00 0 0 0
183 1 1.2067874931429063e+01 3.6100048845049275e+00 4.2628791717392458e+00 0 0 0
302 1 1.2030253984621291e+01 1.7552299192043097e+00 6.1767398733099412e+00 0 0 0
164 1 1.3891270470802500e+01 1.6618016924247330e+00 4.1355513953310670e+00 0 0 0
187 1 1.5542358567549718e+01 3.6187811805325913e+00 4.5256712391220635e+00 0 0 0
329 1 1.3722270809379840e+01 3.4092010695304631e+00 6.0605575681834898e+00 0 0 0
306 1 1.5564214557196964e+01 1.4078379823677922e+00 6.0392405078340117e+00 0 0 0
163 1 1.5740686148634383e+01 2.1215917855781541e+01 3.9884191516810690e+00 0 -1 0
305 1 1.3485069436974632e+01 6.5007010822128564e-02 6.2721895857901480e+00 0 0 0
148 1 2.1059711074082685e+01 1.8140067503502482e+00 4.2095471337893828e+00 -1 0 0
168 1 1.7752643691794084e+01 2.1238983565211962e+00 4.1944546772087916e+00 0 0 0
191 1 1.9505563791098549e+01 3.6447192067784435e+00 4.1309738557449549e+00 0 0 0
333 1 1.7394527140618525e+01 3.6675406711558094e+00 6.1075074344065330e+00 0 0 0
310 1 1.9436618649222254e+01 1.5658378816692899e+00 5.9800635816559771e+00 0 0 0
309 1 1.7612288876736578e+01 2.1186186580830888e+01 6.3300477543600921e+00 0 -1 0
167 1 1.9369807324637058e+01 2.1219579915606655e+01 4.1672773176917222e+00 0 -1 0
176 1 3.3675931623026440e+00 5.3786390187783120e+00 4.2547155390957681e+00 0 0 0
195 1 1.5973381445119181e+00 6.8392671338021245e+00 4.2613598564086255e+00 0 0 0
314 1 1.7083524534327854e+00 5.3373487407972382e+00 6.0386100108175267e+00 0 0 0
341 1 3.3963705438066225e+00 7.2274220714846900e+00 6.1254530569066921e+00 0 0 0
172 1 2.1201401535325168e+01 5.2376096278952344e+00 4.4953703623621983e+00 -1 0 0
180 1 6.9193970063248029e+00 5.4430745607602393e+00 4.0166808657193656e+00 0 0 0
199 1 5.0391828848252826e+00 7.2508695743221887e+00 4.1990816991641449e+00 0 0 0
318 1 5.2768534879739910e+00 5.4250949630538079e+00 6.5552759541341814e+00 0 0 0
345 1 6.8984712268053849e+00 7.0836851659418958e+00 5.7537210943756767e+00 0 0 0
342 1 5.0959737844814699e+00 9.1084752739734576e+00 6.2460741357195051e+00 0 0 0
322 1 8.6830028769590548e+00 5.5593494060482698e+00 5.9911900019947613e+00 0 0 0
203 1 8.6633216439697609e+00 7.1382639483770225e+00 4.3936803870232213e+00 0 0 0
184 1 1.0574853388018232e+01 5.2716955243393109e+00 4.5043290774287259e+00 0 0 0
349 1 1.0272802076013337e+01 6.9857683528201644e+00 6.3508743030773420e+00 0 0 0
326 1 1.1956038769746518e+01 5.6029178464248854e+00 6.2876442660948060e+00 0 0 0
207 1 1.2061908457762438e+01 7.2355422747502578e+00 4.6041004975057351e+00 0 0 0
188 1 1.3607655401827467e+01 5.6210427556501017e+00 4.5673272069365449e+00 0 0 0
211 1 1.5592864423578307e+01 7.2677011206904165e+00 4.2468404339702204e+00 0 0 0
330 1 1.5439251806501243e+01 5.4754891264845513e+00 5.9760690250418769e+00 0 0 0
353 1 1.3857393791730463e+01 7.0899999465824166e+00 6.5347321395533999e+00 0 0 0
337 1 2.0871690204550724e+01 7.0292679959722904e+00 5.9262230185877591e+00 -1 0 0
192 1 1.7549768559960789e+01 5.1177220066102267e+00 4.3386275410612747e+00 0 0 0
215 1 1.9204532830852681e+01 7.1845906427793400e+00 4.2753510041537677e+00 0 0 0
334 1 1.9128065822633708e+01 5.6216532808782125e+00 6.1793564934456571e+00 0 0 0
357 1 1.7314871513532687e+01 7.1262432097569359e+00 5.9615270649796246e+00 0 0 0
338 1 1.4564098418765150e+00 8.8017648787444411e+00 6.3138889581474729e+00 0 0 0
200 1 3.0833008580219481e+00 9.0104924981709686e+00 4.6443239753132000e+00 0 0 0
219 1 1.5412521326188022e+00 1.0709690348810414e+01 4.7185700683773906e+00 0 0 0
365 1 3.3339556984126619e+00 1.0530240280137505e+01 6.6595473916713424e+00 0 0 0
362 1 1.8178484037973131e+00 1.2565430245772516e+01 6.1914526982523395e+00 0 0 0
224 1 3.4819271237726364e+00 1.2098957487552436e+01 4.8031079606153089e+00 0 0 0
220 1 2.0898132171736719e+01 1.2450341711501700e+01 4.2733986064511935e+00 -1 0 0
204 1 7.0633964383301082e+00 9.0246696516584350e+00 3.8085124697252404e+00 0 0 0
223 1 5.6908735713516512e+00 1.0885616319593167e+01 4.4832959307057818e+00 0 0 0
369 1 6.9210415033322645e+00 1.1036261857661161e+01 6.5208843158049783e+00 0 0 0
366 1 5.1449258552536872e+00 1.2567180904107369e+01 6.7334133622339110e+00 0 0 0
227 1 8.4053094424123813e+00 1.1039124468680978e+01 4.4072468445867985e+00 0 0 0
350 1 1.2135260812317171e+01 8.8240490574726778e+00 6.4258119664744342e+00 0 0 0
370 1 8.5663058970472719e+00 1.3181073341377823e+01 6.2400981087741201e+00 0 0 0
346 1 8.3988090399312920e+00 9.0826480447390239e+00 6.0921837104632885e+00 0 0 0
208 1 1.0250435211966314e+01 8.7405767534393419e+00 4.2741326718361288e+00 0 0 0
373 1 1.0098099933022846e+01 1.0762674319564740e+01 5.7982690670873769e+00 0 0 0
374 1 1.2046891391261134e+01 1.2431380784420574e+01 6.5137512201493122e+00 0 0 0
232 1 1.0294945984961009e+01 1.2932730828600116e+01 4.4390651520191957e+00 0 0 0
231 1 1.1928358492706923e+01 1.0909841956008211e+01 4.6832031403041272e+00 0 0 0
212 1 1.3733638811159272e+01 9.1399077526686021e+00 4.7286299424982010e+00 0 0 0
354 1 1.5824544814224586e+01 8.9243775485789421e+00 6.0385654458497093e+00 0 0 0
235 1 1.5846053118384775e+01 1.0946907620725797e+01 4.2767929106160860e+00 0 0 0
377 1 1.4176454773335578e+01 1.0682518173789068e+01 6.2645689583550217e+00 0 0 0
378 1 1.5908277846590533e+01 1.2399836876829784e+01 6.2791981197251632e+00 0 0 0
196 1 2.1220932877065298e+01 8.8713689706283123e+00 4.4038065089487892e+00 -1 0 0
361 1 2.0778657857099933e+01 1.0805386125735771e+01 6.1920850028499741e+00 -1 0 0
216 1 1.7660441412816915e+01 9.0746335341244126e+00 4.3641206421490510e+00 0 0 0
358 1 1.9288889004800012e+01 8.8912594995065177e+00 6.4951355893523779e+00 0 0 0
239 1 1.9517267114320184e+01 1.0764632045425179e+01 4.2728934079076808e+00 0 0 0
381 1 1.7723532280239123e+01 1.0740664229937654e+01 6.2217932197747272e+00 0 0 0
240 1 1.7522556725097409e+01 1.2675755397508622e+01 4.3511326199434164e+00 0 0 0
243 1 1.8349916764386607e+00 1.4050868007835188e+01 4.2545219403718511e+00 0 0 0
248 1 3.1578710246449564e+00 1.6094111042120613e+01 4.2896631678745223e+00 0 0 0
386 1 1.4356668441962825e+00 1.5807254030252505e+01 6.1570466858792141e+00 0 0 0
389 1 3.3415837175572563e+00 1.4417223820176067e+01 6.3376515422880386e+00 0 0 0
244 1 1.0015091242835267e-01 1.6033410578845913e+01 4.1695861387892830e+00 0 0 0
385 1 2.9279723209068464e-02 1.4080792017552495e+01 5.9244067604676536e+00 0 0 0
228 1 6.6791393642416548e+00 1.3064657637334097e+01 4.4780970864789493e+00 0 0 0
247 1 4.6979963338626112e+00 1.4201858559734225e+01 4.4965393406787495e+00 0 0 0
252 1 6.8175254242763419e+00 1.6246045421921167e+01 4.4394969005649667e+00 0 0 0
390 1 4.8111868881501323e+00 1.6320157773122855e+01 6.3472509319052088e+00 0 0 0
393 1 6.5801673095042501e+00 1.4677128159238398e+01 6.3557477375554683e+00 0 0 0
394 1 8.5660272137000195e+00 1.6270757817967272e+01 6.2695485855884323e+00 0 0 0
251 1 8.8582234737494616e+00 1.4803416178895681e+01 4.6343780259680241e+00 0 0 0
256 1 1.0337989106090332e+01 1.6149439923036248e+01 4.0564104225959303e+00 0 0 0
397 1 1.0526793237245091e+01 1.4620538471047951e+01 6.3458212639567728e+00 0 0 0
398 1 1.2423207311015966e+01 1.6017879249592802e+01 6.0663758914295718e+00 0 0 0
255 1 1.2153763477873532e+01 1.4440959043168570e+01 4.2172491855670007e+00 0 0 0
236 1 1.3744370362650365e+01 1.2308267439440190e+01 4.6668138663893473e+00 0 0 0
259 1 1.5519796583302554e+01 1.4169828818297031e+01 4.3536821624246445e+00 0 0 0
260 1 1.4054189191717349e+01 1.6032164916366540e+01 4.1499357487649027e+00 0 0 0
401 1 1.4026492420421793e+01 1.4235879217054126e+01 6.2426775906729404e+00 0 0 0
402 1 1.5583220238305783e+01 1.5997322884624952e+01 6.0522165918988016e+00 0 0 0
382 1 1.9302806058611516e+01 1.2942458994108728e+01 6.0514687352972736e+00 0 0 0
263 1 1.9337354879740573e+01 1.4702436123284564e+01 4.3235263886982285e+00 0 0 0
264 1 1.7730124172054328e+01 1.5928149386680174e+01 4.3362922171561884e+00 0 0 0
406 1 1.9763749519963323e+01 1.6104106368021380e+01 6.0679500863203417e+00 0 0 0
405 1 1.7590510079406172e+01 1.4531897525877126e+01 6.4366112186766697e+00 0 0 0
293 1 3.2978002212478810e+00 4.0534721455287831e-01 6.2863424396238239e+00 0 0 0
289 1 2.0652487973169066e+01 2.0991290045113374e+01 6.2198232314857060e+00 -1 -1 0
267 1 1.5707823529529561e+00 1.8211129602834816e+01 4.4128807091982907e+00 0 0 0
272 1 3.5294563251116973e+00 2.0011766014129826e+01 4.3367189424448132e+00 0 0 0
413 1 3.2793688914103365e+00 1.7612650448177334e+01 6.1384871188817565e+00 0 0 0
410 1 1.7825154894415480e+00 1.9769273822413876e+01 6.1034781346012386e+00 0 0 0
271 1 4.9102216701747841e+00 1.7887427624677215e+01 4.2978305361878641e+00 0 0 0
276 1 6.8343863093800312e+00 1.9388263544497043e+01 4.3305682363926943e+00 0 0 0
417 1 6.5874246888764132e+00 1.8217069091036524e+01 6.2408837488840350e+00 0 0 0
414 1 5.0947234223201079e+00 1.9739560826957579e+01 6.3699119033083962e+00 0 0 0
159 1 1.2312656501226835e+01 2.0940837001847971e+01 4.1804410620578425e+00 0 -1 0
155 1 8.9258109357172550e+00 4.3104120182027653e-02 4.3642362102267596e+00 0 0 0
301 1 1.0470568249336798e+01 2.0985487225496474e+01 6.2178394087435729e+00 0 -1 0
418 1 8.5762353131589713e+00 1.9491451028515218e+01 6.0487112555387847e+00 0 0 0
275 1 8.4119511110912768e+00 1.7842135301631487e+01 4.3617514371160944e+00 0 0 0
280 1 1.0284375835548198e+01 1.9058184368889314e+01 4.2551625751162634e+00 0 0 0
421 1 1.0609958198127172e+01 1.7589015668829973e+01 6.1311449306144654e+00 0 0 0
279 1 1.2329126336275429e+01 1.7725903216145479e+01 4.2170331206099680e+00 0 0 0
422 1 1.2203369042645503e+01 1.9364600518394962e+01 5.9351532123263855e+00 0 0 0
283 1 1.5734885212958760e+01 1.7738988766785489e+01 4.4304155015339548e+00 0 0 0
284 1 1.4146238440043019e+01 1.9324285826016432e+01 4.1121477954711274e+00 0 0 0
425 1 1.3997719579736600e+01 1.7919814688507625e+01 6.1138842342282977e+00 0 0 0
426 1 1.5393813525929293e+01 1.9818440671873663e+01 6.3046999150161538e+00 0 0 0
268 1 2.1000500381809534e+01 1.9624534963571627e+01 4.2626547805687043e+00 -1 0 0
409 1 2.1192098923113363e+01 1.7929457786498670e+01 6.1042275878583636e+00 -1 0 0
287 1 1.9504011473074478e+01 1.7575371422665246e+01 4.1848210680501650e+00 0 0 0
288 1 1.7461196766212321e+01 1.9450406362751092e+01 4.2743548754991290e+00 0 0 0
429 1 1.7443215250934429e+01 1.7558736106621129e+01 6.2364416936348697e+00 0 0 0
430 1 1.8896992973556067e+01 1.9122940727634912e+01 6.1708948687254912e+00 0 0 0
315 1 1.4988179514883826e+00 3.3293807483183948e+00 7.9133679145057876e+00 0 0 0
296 1 3.4082686036239940e+00 1.9778963763737947e+00 7.8187842570203170e+00 0 0 0
434 1 1.6075672243930401e+00 1.4901494509774527e+00 9.7465320176020711e+00 0 0 0
461 1 3.5309644384916257e+00 3.4532893109615639e+00 1.0033365863830344e+01 0 0 0
440 1 3.6029865434767361e+00 1.5773942634896219e+00 1.1974390341577127e+01 0 0 0
459 1 1.9478260117827959e+00 3.1873550433435023e+00 1.1742213585160410e+01 0 0 0
437 1 3.5889562847334289e+00 4.0411230856731362e-01 1.0107272330351417e+01 0 0 0
292 1 2.1082328248375021e+01 1.6167191000429855e+00 8.1514973540401332e+00 -1 0 0
457 1 6.9375747456550840e-02 3.6115048296635979e+00 9.8255687372699221e+00 0 0 0
435 1 1.7177568082971018e+00 6.6588270677509720e-02 1.1664398673506055e+01 0 0 0
319 1 5.2128450317507404e+00 3.5636487151302387e+00 8.0766650137545177e+00 0 0 0
300 1 7.3312421950045268e+00 1.6541927716238358e+00 8.3251343024015512e+00 0 0 0
438 1 5.3713427718982709e+00 2.1975724613224230e+00 9.7278952789335147e+00 0 0 0
465 1 6.8997361766140353e+00 3.8475048074809237e+00 1.0058071482493533e+01 0 0 0
444 1 6.9360119065598882e+00 2.1651376464922794e+00 1.2165100451265490e+01 0 0 0
463 1 5.1089569082867028e+00 3.5251932253990153e+00 1.1763640990632339e+01 0 0 0
441 1 6.9768165688529118e+00 8.8621510421148464e-02 1.0084604619260357e+01 0 0 0
439 1 5.3149982207605042e+00 3.6941341881343820e-01 1.1791887231342471e+01 0 0 0
304 1 1.0172187543466924e+01 1.9429182417850315e+00 8.3586699181721453e+00 0 0 0
442 1 8.5726502986199815e+00 1.9841665042938246e+00 1.0321861538593172e+01 0 0 0
323 1 8.7341552071705024e+00 3.5909711549926335e+00 8.0667888507048389e+00 0 0 0
469 1 1.0240017081941126e+01 3.6328991799278323e+00 1.0127603133922104e+01 0 0 0
448 1 1.0287688195588830e+01 1.8457549399813320e+00 1.2244801719571829e+01 0 0 0
471 1 1.2504733304705338e+01 3.4649012496017386e+00 1.1942509909893298e+01 0 0 0
327 1 1.1984456854254793e+01 3.1262460374749304e+00 8.0835677760374054e+00 0 0 0
299 1 8.9071290065928572e+00 2.1168165504590483e+01 7.7862886092355339e+00 0 -1 0
446 1 1.1907948149182097e+01 1.6384116007265983e+00 1.0065334779180349e+01 0 0 0
467 1 8.6679740643197380e+00 3.7349788161675299e+00 1.2145325111587608e+01 0 0 0
445 1 1.0220213327810535e+01 2.1733559084438028e-01 1.0165098294463146e+01 0 0 0
443 1 8.2942570619229272e+00 2.4368941164760827e-01 1.2024877084170321e+01 0 0 0
447 1 1.2297570059712589e+01 7.0363199138238991e-02 1.2212385938258000e+01 0 0 0
308 1 1.3726101074026131e+01 1.7403128833465968e+00 8.0962524411895682e+00 0 0 0
331 1 1.5836401007857003e+01 3.6827175636178060e+00 7.6022474096534989e+00 0 0 0
450 1 1.6032425561309910e+01 1.9389610355723188e+00 9.8955349037959799e+00 0 0 0
473 1 1.3761039323695055e+01 3.5992197878198704e+00 9.7845541371064986e+00 0 0 0
452 1 1.4198835865233022e+01 1.4773996883167684e+00 1.1757693700332066e+01 0 0 0
475 1 1.5851671830581665e+01 3.2714935534877152e+00 1.1589561832561081e+01 0 0 0
449 1 1.3628963769961787e+01 2.4686352487894528e-01 9.9837980106415394e+00 0 0 0
451 1 1.5901797983123728e+01 2.2313058880648856e-01 1.1754423368220822e+01 0 0 0
307 1 1.5348734782480262e+01 2.1169133866821980e+01 8.0223286176743844e+00 0 -1 0