LAMMPS data file via write_data, version 19 Mar 2020, timestep = 100000

1728 atoms
1 atom types

0.0000000000000000e+00 2.1263999999999999e+01 xlo xhi
0.0000000000000000e+00 2.1263999999999999e+01 ylo yhi
-2.7412007610128484e+00 4.5269200761013252e+01 zlo zhi

Masses

1 58.933

Atoms # atomic

214 1 1.5875548849296675e+00 1.0427427438850319e+00 -1.2302828440631914e+00 0 1 0
185 1 1.3658289611721519e+00 3.4874305805197086e+00 -1.2310890720286416e+00 0 0 0
72 1 1.0446642298357601e+01 9.5835267164955318e-01 -2.2010691015780961e+00 0 1 0
490 1 3.9436324312539526e+00 2.4024152495364701e+00 -8.8595510060328397e-01 0 1 0
166 1 2.0090943029153166e+01 4.1049291438818551e+00 -2.1661512285937530e+00 0 0 0
229 1 5.6684652645415357e+00 9.9158610003634640e-01 -1.4706216730860662e+00 0 1 0
1475 1 7.4532496433153428e+00 1.9507222602179497e+00 -4.4931954608858460e-01 1 2 1
268 1 4.9890330026735015e+00 1.3222413287090697e+00 1.5290866282548317e+00 0 1 0
535 1 6.3959264682205612e+00 2.9471273723386306e+00 2.8238890717544392e+00 0 1 0
388 1 5.8085441743050357e+00 3.4597856980433952e+00 4.2704680208176926e-01 -1 1 0
383 1 8.4736069586441580e+00 2.9415906356297747e+00 1.7360573073440806e+00 0 1 0
6 1 9.9100365798571026e+00 1.8625237117079472e+00 2.3916750316355406e-01 -1 0 0
376 1 8.9952993338401974e+00 2.1163249168601599e+01 -2.5885578656743302e-01 0 0 0
888 1 1.2225730718853427e+01 1.7633166638666751e+00 1.0602763416420369e+00 1 0 1
278 1 1.0825426336503391e+01 3.1875730694066373e+00 -1.5617124408121930e+00 0 1 0
308 1 1.2633681503417233e+01 1.3222161568911328e+00 -1.1524307909865525e+00 0 0 0
433 1 1.4830693512930621e+01 6.6219503720426856e-02 -1.4083067553588868e+00 -1 0 0
427 1 1.4154078135488152e+01 2.7641698993912835e+00 -1.9512226302418523e+00 0 1 0
392 1 1.6727966620417334e+01 1.6483968616617284e+00 -7.3320500453163673e-01 -1 1 0
306 1 1.5991226071305386e+01 2.0629487322187714e+01 1.4008996117498311e+00 0 -1 0
57 1 2.0685564385753008e+01 2.1268261445727834e+00 -1.0665025378364932e+00 -1 0 0
1557 1 1.5171042174965324e+01 3.5829926577629414e+00 -4.8957660193216235e-03 0 1 1
536 1 1.8159251891868241e+01 3.5608406766163307e+00 -1.4777751129371408e-01 -1 1 0
416 1 1.6600916469571285e+01 4.8312491297865199e+00 -1.5986909660301349e+00 -1 1 0
1508 1 2.0875860521445610e+01 7.2674978672241675e-01 6.8814674140231968e-01 -1 2 1
1064 1 2.0874745285640067e+01 2.0948587619664050e+01 -1.6637474383762676e+00 -2 1 1
812 1 1.2836579265090903e+01 1.5540991526185179e+01 2.0969408230508972e+01 0 0 0
1121 1 1.5342633259704404e+00 8.3084393649747526e+00 -1.2467617605194758e+00 -1 2 1
438 1 3.1843103977355884e+00 4.6468331119004862e+00 -5.9329789677366174e-01 0 0 0
557 1 2.9437692817748395e+00 6.2824197608186374e+00 2.3172484006773821e+00 0 1 0
179 1 5.4004807516849762e-01 6.1576724430657528e+00 -1.8975187569509848e+00 0 0 0
101 1 5.5771556283662438e-01 7.5991463599626794e+00 9.0865036616013439e-01 0 1 0
965 1 2.0596214391350063e+01 2.0401834724364520e+01 1.9796293358953260e+01 0 0 0
890 1 1.6094756355461861e+01 1.9793264102984825e+01 2.0517723507594717e+01 -2 0 0
418 1 7.5187260515718659e+00 4.9212013962749745e+00 -7.6166074969434816e-01 0 1 0
230 1 4.4993086495707200e+00 8.5684026852956254e+00 -5.4776294705326833e-01 0 1 0
519 1 4.8980436064413642e+00 5.5592435768899406e+00 -1.5192548351210668e+00 0 1 0
685 1 7.5523107256432116e+00 7.0142203646748831e+00 -1.8651133253310319e+00 0 1 0
613 1 7.2979773540034563e+00 5.1563269884322187e+00 2.1137583537158138e+00 0 0 0
124 1 1.0014827931568364e+01 1.4076044755933230e+01 -2.0252444466328914e+00 0 1 0
547 1 9.5776781644981366e+00 5.4449936710759665e+00 -2.0049777690319504e+00 0 1 0
231 1 9.6550054868446544e+00 4.4199379135415562e+00 -1.2724135733826802e-02 0 0 0
414 1 8.5705753726104472e+00 6.5334624661933844e+00 7.6341407639821357e-01 0 1 0
1109 1 9.9267419542107191e+00 7.8663434082072570e+00 -7.7991983237631746e-01 -1 -2 1
906 1 1.3165969067135812e+01 1.3320394968565452e+01 2.0693862368938600e+01 1 0 0
1 1 9.9981480004616508e+00 1.0733225820898666e+01 -1.8495498311976126e+00 -1 0 0
678 1 1.7054083430785273e+01 6.5286321540839110e+00 -2.2890654608155581e-01 0 1 0
195 1 1.1835536137972705e+01 6.6087851628587453e+00 -6.0332589429085948e-01 -1 0 0
375 1 1.4109019995663568e+01 5.7680463620655642e+00 -1.0021769530280744e+00 0 0 0
1178 1 1.6134009226609788e+01 7.2379873524203511e+00 -2.2443762019049869e+00 0 1 1
221 1 1.2418468147029039e+01 3.8600723662513388e+00 -2.1684101458218530e-01 0 1 0
145 1 2.0333116648235428e+01 5.4271076354734706e+00 2.1377027612091037e-02 -1 0 0
23 1 1.5386890538522325e+01 8.6882075699047476e+00 -2.9426821794894042e-01 0 0 0
299 1 2.0127392653739587e+01 8.0130550303243826e+00 -9.3044849252052786e-01 -1 0 0
623 1 1.8596822112385311e+01 6.0757865793816066e+00 -2.1939839634745675e+00 0 0 0
437 1 1.7935212537567853e+01 9.0088088282548995e+00 -3.5784151528096952e-01 -1 0 0
1312 1 1.7764395864117837e+01 4.3267889094372336e-01 1.9741681058168080e+01 -1 1 0
465 1 2.8359527632057477e+00 7.2569152783573196e+00 2.9905474372667129e-01 0 0 0
300 1 2.2505400951658552e+00 9.8525428374838562e+00 9.8394548559907236e-01 0 0 0
271 1 1.6589599356708207e+00 1.0592505999912639e+01 -1.4899242778170096e+00 0 1 0
585 1 9.8746828640161144e-01 1.1796940434780575e+01 4.5635942017728182e-01 0 0 0
757 1 1.8523701606376765e+01 8.9163296689998397e+00 2.0407549612976570e+01 0 0 0
1577 1 1.0741889396947927e+01 1.3541472428544189e+01 1.9350631661332134e+01 1 1 0
1101 1 7.4649302215711115e+00 5.0189833688442356e+00 2.1110405384021234e+01 0 1 0
394 1 6.3938287776296878e+00 7.7116362173467223e+00 2.8701514564011887e-01 0 1 0
1426 1 3.5031516806990415e+00 7.9341226176517434e+00 2.0511229994400651e+01 -1 2 0
281 1 4.2197637745745231e+00 1.1122747054312189e+01 -1.4618887542564740e+00 0 1 0
1549 1 1.8780424399392832e+01 1.8402978605454130e+01 2.0893814371834484e+01 -1 0 0
844 1 6.0862062592497850e+00 9.8785024078785693e+00 -1.0642540827698874e+00 -1 1 0
425 1 8.2845580528580278e+00 9.3417175754370021e+00 -6.7864520280659857e-01 0 1 0
422 1 4.7092131358836653e+00 1.1990968180579255e+01 7.9899321124740208e-01 1 1 0
1702 1 1.9002516762934665e+01 4.1975157030065002e+00 2.0974059086424173e+01 0 1 0
470 1 1.1020965416934548e+01 8.5106920089084408e+00 8.8424200029879829e-01 0 0 0
371 1 1.0173049004310629e+01 1.0769161435461873e+01 5.7640674058706542e-01 0 0 0
326 1 1.2547370729469218e+01 1.0196855848258366e+01 -2.5635764614835965e-01 0 0 0
242 1 8.3192139722430536e+00 1.8809652123467661e+01 -2.3964803350301978e+00 0 0 0
22 1 1.2931223243966542e+01 8.2295377096326874e+00 -1.5812447569697545e+00 0 0 0
469 1 1.4726886405961590e+01 1.0864845327268080e+01 -7.4482300403551682e-01 0 0 0
147 1 1.6566919345624115e+01 1.0618679531659618e+01 6.5817810844099167e-01 -1 0 0
715 1 1.3491572292685914e+01 7.8793097465001951e+00 5.4441335026201587e-01 0 1 0
474 1 1.6908486529954864e+01 1.0377776987941902e+01 -1.9552183331788116e+00 0 0 0
289 1 1.6174501438415962e+01 1.2686673114905897e+01 -4.8507619070239727e-01 -1 0 0
1107 1 1.1308724833738298e+01 5.5966554922412382e+00 2.1211463516325075e+01 -1 1 0
97 1 1.8226889537972443e+01 1.2397726728259403e+01 -2.0825206441220794e+00 -1 1 0
1311 1 1.8584601355509186e+01 1.1279537362388668e+01 -1.6286863564216247e-01 -1 0 1
321 1 2.0816862132055842e+01 1.0089952642017684e+01 -1.7469487743173540e-01 -1 0 0
1070 1 2.0126414034614015e+01 1.3461879066370384e+01 -1.8468432017133596e-01 0 1 1
37 1 2.0517221719296494e+01 1.1666308146800631e+01 -1.8335170403819441e+00 -1 0 0
432 1 1.9422969078858042e+01 9.9515716010009925e+00 -2.0806199511869492e+00 0 1 0
95 1 2.5688093923800714e+00 1.2809153263774830e+01 -9.8065194398108990e-01 1 0 0
177 1 3.6625237391005805e-01 1.3673193004217032e+01 -1.9947629409770806e+00 0 0 0
531 1 1.2259968146858891e+00 1.4350338149281349e+01 2.3474900947028088e-01 0 0 0
156 1 2.6604986973070752e+00 1.5439432500704147e+01 -1.0636702760275307e+00 0 0 0
362 1 1.5313935061534778e-02 1.7939979175684837e+01 3.6834137152021729e-01 0 0 0
1289 1 1.9628273060996520e+01 1.5579217481957455e+01 2.1194353169480106e+01 1 2 0
461 1 6.2949835237418839e+00 1.2649616181711970e+01 -5.8453206217058407e-01 0 0 0
309 1 4.5647608015252032e+00 1.4098354232212468e+01 -9.4242347089989575e-01 0 0 0
45 1 6.5295606980967609e+00 1.5278896642594237e+01 3.4161403855524242e-02 0 0 0
210 1 9.7670739622316578e+00 1.6460866550621244e+01 -1.4179143093178097e+00 0 0 0
162 1 7.6607162697543316e+00 1.4568286969554068e+01 -1.6995779536984541e+00 0 0 0
379 1 7.3697513649183923e+00 1.7059249385199195e+01 -1.1487863844210937e+00 0 0 0
777 1 8.7269286331059845e+00 1.6283414974554319e+01 7.1261277709116744e-01 0 0 0
223 1 9.2961974157887877e+00 1.2659529935789720e+01 -2.8106112393342020e-01 0 0 0
475 1 1.2500740638523000e+01 1.2942888282928712e+01 1.5451293371351538e+00 0 0 0
323 1 1.4486344283415644e+01 1.1687433616422000e+01 1.3339946405710625e+00 0 0 0
324 1 1.1670737275974831e+01 1.2377432167188106e+01 -8.8442881952939634e-01 0 0 0
377 1 1.1201355512750768e+01 1.6449813542916306e+01 4.1572482598632687e-01 0 0 0
46 1 1.3773330841845308e+01 1.3275423858829862e+01 -3.5352892541025760e-01 0 0 0
714 1 1.1949618124842681e+01 1.4833466410196833e+01 -9.4043392504398615e-01 0 0 0
1346 1 1.6735473855616750e+01 1.4761809312048831e+01 -2.4625587488602663e+00 -1 -2 1
190 1 1.3794009916581015e+01 1.1901369042297199e+01 -2.4641932276112612e+00 0 0 0
216 1 1.5091238025480097e+01 1.4023760829962898e+01 2.3166634681169302e+00 0 0 0
313 1 1.5723706646651877e+01 1.4939854460391693e+01 -1.2192552769926124e-01 -1 0 0
1552 1 1.9242370050415172e+01 2.1041946267142126e+01 1.7876574849547811e+01 0 1 0
192 1 1.8014269614673630e+01 1.3345758383886626e+01 8.2457210808575443e-01 0 0 0
247 1 1.9999684737313327e+01 1.5683567919500017e+01 8.8042014444254058e-01 -1 0 0
60 1 2.1030221578890210e+01 1.6127849938301669e+01 -1.2662378981682183e+00 -1 0 0
641 1 1.8535161774833853e+01 1.5546272124830622e+01 -7.5183954770692774e-01 0 0 0
389 1 2.3099900041358521e+00 1.9511471004331991e+01 -2.1334990270725878e+00 0 0 0
366 1 5.3563988062429083e-02 1.8596713451262140e+01 -1.7002068969269075e+00 0 0 0
1115 1 2.2263848329469198e+00 1.7654209459016148e+01 -4.2380683429350263e-01 0 -1 1
294 1 5.7121516728380968e+00 1.5874381578851617e+01 -2.4216803602531023e+00 -1 0 0
76 1 1.1627746732872579e+00 2.0040202232794975e+01 -3.0058972344627399e-01 0 0 0
222 1 3.4989358617762565e+00 2.1047974061643838e+01 -5.7856948317647516e-01 0 0 0
446 1 3.2793354286463359e+00 1.7475967522283185e+01 -2.4971059650243435e+00 0 0 0
186 1 4.9222624184261496e+00 1.6709058628922435e+01 -3.3787072421665965e-01 0 0 0
83 1 4.6317951801378783e+00 1.8930423264227496e+01 -8.2256383510260500e-01 0 0 0
178 1 6.5258001864657036e+00 2.0230798910378994e+01 -1.3185905975998602e+00 0 0 0
1486 1 3.8324061731756509e+00 1.1155805539776981e+01 2.0935274116764351e+01 0 -1 0
67 1 6.9874341915629943e+00 3.7694036114791540e-01 1.2166379148796627e+00 0 1 0
403 1 5.2207071358506418e+00 2.0135364045421170e+01 2.0758347123515106e+00 0 0 0
814 1 1.9506737888362306e+01 1.8728919671914618e+01 1.8160806027394074e+01 0 0 0
1654 1 1.7237903764328681e+01 1.9871298543807033e+01 1.8164873504295368e+01 1 0 0
521 1 9.7920836242634497e+00 1.8752535715508312e+01 -5.9401389548334294e-02 0 0 0
538 1 1.1410286678815453e+01 2.0910966194183548e+01 3.7016135715413068e-02 0 0 0
1062 1 1.1721475302576557e+01 1.7506598146819009e+01 -1.5865137156377065e+00 -1 3 1
359 1 6.9057156176583616e+00 1.8365787930830049e+01 7.6085615955724739e-01 0 0 0
571 1 1.1965766377944824e+01 1.8955584611435203e+01 6.0892991156368348e-01 0 0 0
530 1 8.8415539779154582e+00 1.9626287070019192e+01 1.7710126229188017e+00 0 0 0
1567 1 1.4002875351871340e+01 1.6324547711209217e+01 -7.8553076647297537e-01 -2 1 1
380 1 1.4288736752639949e+01 1.9026515493673116e+01 -1.3631347775687939e+00 0 0 0
107 1 1.6931325957164102e+01 2.0759016215286387e+01 -7.1452168009777672e-01 0 0 0
1503 1 1.4399967599365674e+01 1.7761191158420992e+01 2.0677020578379860e+01 -1 1 0
180 1 1.4278694997633293e+01 1.8419229256397326e+01 7.8445715283421302e-01 -1 0 0
82 1 1.6552467471227143e+01 1.7344271706015295e+01 -4.4454891694380505e-01 0 0 0
477 1 1.7368532573533422e+01 1.8989087821023173e+01 1.0618978229795539e+00 0 0 0
410 1 1.9050259867509379e+01 1.9972751008443257e+01 -2.4094406499467320e+00 -1 0 0
297 1 1.8815701969766820e+01 7.3144604097409993e-01 -9.3777402511312524e-01 -1 0 0
194 1 1.8757325773537900e+01 1.7665588315118168e+01 -1.3705734807025332e+00 -1 0 0
203 1 1.9414291262639537e+01 1.9601784236730513e+01 1.3104522797224005e-01 -1 0 0
1150 1 2.0107085185469868e+00 1.2613161960826742e+01 2.1069196170770383e+01 2 0 0
224 1 1.7832068940531386e+01 1.6439363297954774e+01 1.2159812203870830e+00 -1 0 0
232 1 2.7370398644103027e+00 1.9858576031981015e+00 9.9371591032477813e-01 0 1 0
467 1 1.7549258084753983e+00 1.8938535970796593e+00 3.4773805758521501e+00 0 1 0
372 1 3.5174741239110805e+00 4.3360331253682716e-01 3.0085551596801317e+00 0 1 0
369 1 1.3887192603631697e+00 4.4617733871379954e+00 2.9358601582666752e+00 0 1 0
456 1 2.4544063802171964e-01 1.6064898236723972e+00 5.5695872651683498e+00 1 0 0
455 1 4.0800465208546468e+00 2.6446045044263751e+00 3.8755535956350950e+00 0 0 0
348 1 8.1788319283188962e+00 1.3931267543570431e+00 3.8077862185306053e+00 0 1 0
491 1 5.7133075236145237e+00 9.8372154544265711e-01 4.1433996267249649e+00 0 1 0
378 1 9.6277740952409268e+00 6.4090469526620164e-01 2.1577525120733760e+00 0 1 0
319 1 1.0599880060050502e+01 9.9584165897869126e-01 3.7947987791364657e+00 0 1 0
295 1 8.5671583011924657e+00 3.6921186656245069e+00 3.8610497234104431e+00 -1 0 0
364 1 1.2786399376562290e+01 1.1519022707233855e+00 3.4448637425614308e+00 -1 1 0
235 1 1.0784846638403957e+01 2.7147073215427575e+00 2.0596887729430691e+00 0 1 0
570 1 1.1833114671819363e+01 3.7711234620014551e+00 4.3968558797610182e+00 0 1 0
64 1 1.4796517822161281e+01 1.3716548247300893e+00 6.2934330122636428e-01 0 1 0
596 1 1.3409696285787728e+01 2.0943356645886414e+01 1.3380334553100166e+00 -1 -1 0
676 1 1.4943538150346726e+01 1.5224254822632945e+00 3.0352823851173261e+00 -1 1 0
1149 1 1.3651840703689601e+01 3.5315118009858737e+00 1.8314728804380680e+00 -1 1 0
406 1 1.6973424971960963e+01 2.3122513439181445e+00 2.0865439132792609e+00 0 1 0
717 1 1.5835541246422782e+01 4.1001234996296079e+00 3.4473302652064284e+00 0 1 0
351 1 5.9955032184878798e-01 2.9445270386458442e+00 1.2613811643860426e+00 1 0 0
298 1 1.8015521181074938e+01 4.4213764740488398e-01 3.9771753920801540e+00 -1 0 0
219 1 2.0410644283626251e+01 7.0415284392081068e-01 3.6689987697971791e+00 -1 1 0
267 1 1.8618117543133032e+01 3.6662778672357894e+00 3.5715651472208334e+00 -1 1 0
365 1 2.0938944693301899e+01 2.9262153018602621e+00 3.7714370954724972e+00 -1 1 0
239 1 1.9536631539338345e+01 2.6223023169287591e+00 1.3658313036736915e+00 0 1 0
566 1 1.2839372457351799e+00 5.0387705117524506e+00 5.1856458430809749e-01 0 1 0
518 1 3.7866186950576539e+00 4.1265886309327318e+00 2.3268948927499453e+00 0 1 0
537 1 2.6368626178312695e+00 5.5997365317206542e+00 4.3761954351500201e+00 0 1 0
601 1 4.5592698948773963e-01 6.7925228066145236e+00 3.3874337892335937e+00 0 0 0
404 1 2.0918539441900363e+00 7.7936637746345792e+00 5.0936285845603857e+00 0 1 0
572 1 5.1053928322637994e+00 5.5926663761562185e+00 7.5710327064042282e-01 0 1 0
868 1 7.0182508891426449e+00 7.9239587318356399e+00 2.7737125132409073e+00 0 0 1
402 1 8.1932046483712000e+00 6.2718505204955992e+00 4.4098710426066789e+00 0 1 0
341 1 4.4020039845879637e+00 7.9685895898251058e+00 2.0481168943122992e+00 0 0 0
612 1 5.4506170703061221e+00 5.8977144440595755e+00 3.2254739778134711e+00 0 0 0
356 1 4.4121572430004683e+00 8.0162790321054676e+00 4.7738843930724739e+00 0 1 0
449 1 8.8589483724896958e+00 7.0466808978810329e+00 6.6716901615119149e+00 0 0 0
181 1 9.9366397456670637e+00 7.7358856662050259e+00 3.0233656163093761e+00 0 0 0
597 1 1.2255467498337646e+01 5.9213953817122658e+00 1.5577274715355749e+00 0 0 0
872 1 1.0307412650501352e+01 5.7121236313526387e+00 5.2319428210600734e+00 1 1 0
617 1 9.9411020663536576e+00 5.2040208095913920e+00 2.5216589725385736e+00 0 0 0
594 1 1.2803917960523696e+01 5.9437310585336709e+00 3.9419026037794369e+00 0 0 0
743 1 1.1085779790811300e+01 8.0376076800953804e+00 5.0461759223447169e+00 0 0 0
694 1 1.5511624868199611e+01 5.6015357632142164e+00 1.4224524540004451e+00 0 1 0
711 1 1.2250757985313797e+01 8.0205785271989800e+00 3.0177401357432068e+00 0 1 0
409 1 1.4717810666959664e+01 7.1097105151686977e+00 2.8496534731125847e+00 -1 1 0
454 1 1.6893980473840767e+01 8.3975687931730079e+00 1.6754914148870164e+00 0 0 0
1241 1 1.7196663215022348e+01 6.3761359575809484e+00 3.1788115319313652e+00 0 3 0
187 1 1.5234176026229347e+01 6.2220806299711402e+00 5.0170829763495233e+00 0 0 0
718 1 1.7933413740473583e+01 4.9505088240492530e+00 1.6121637643816404e+00 0 1 0
159 1 1.9056698248993449e+01 7.0619837230201794e+00 1.4369350849201394e+00 -1 0 0
476 1 2.0585910327603372e+01 4.8882472620051152e+00 2.3543993811155444e+00 0 0 0
237 1 1.8661698574837072e+01 8.2413494910184006e+00 3.6125929398577670e+00 0 0 0
559 1 1.9231226937396894e+01 5.9790670763142248e+00 3.8063632313165092e+00 -1 1 0
1579 1 5.8473491301992615e+00 9.8099730325014232e+00 1.5233963825534724e+00 1 2 1
558 1 2.1198947881978429e+00 8.5891297420221875e+00 2.8612145383346723e+00 0 1 0
284 1 5.7701451268481041e-01 9.4488202261079106e+00 4.8042898895077508e+00 0 1 0
647 1 1.8948744822962047e+00 1.1196908873952092e+01 3.0533253089919059e+00 1 0 0
486 1 4.1521251686355702e+00 1.2449990290847209e+01 3.4046905140145096e+00 0 0 0
586 1 2.1112558924026928e+01 1.1979611724403712e+01 4.7132145154810843e+00 -1 0 0
753 1 2.1127743861711181e+00 1.1761835552790137e+01 5.3030283317975506e+00 0 0 0
79 1 4.2875989395470544e+00 9.8424893876596489e+00 3.4430613463472355e+00 0 1 0
633 1 7.6944531882015079e+00 9.9805752561268672e+00 6.6506495812304429e+00 0 0 0
1313 1 7.6534490760397347e+00 1.1203778720318931e+01 7.4550518375273755e-01 0 0 1
614 1 8.3099158659984980e+00 1.1454726310700824e+01 2.9823297262539015e+00 0 0 0
291 1 6.7513817196714561e+00 1.0033800488976944e+01 3.7529760795524698e+00 0 0 0
600 1 1.2647451575677659e+01 1.0354612106896360e+01 2.2937293189151440e+00 0 0 0
408 1 8.6545598127161796e+00 9.0569160823915453e+00 1.6095409224860582e+00 0 1 0
713 1 8.6721401014277575e+00 8.9595420202749629e+00 4.7783232008162315e+00 0 1 0
634 1 1.2215838749507578e+01 1.0042627627576433e+01 5.4366631662142559e+00 0 0 0
494 1 1.0455557115116813e+01 9.8201326299008134e+00 3.5202104964070298e+00 0 0 0
489 1 9.3420989553805143e+00 1.1384793374228527e+01 5.4317003728587281e+00 0 0 0
473 1 1.3290438118735143e+01 1.2499884116838960e+01 6.2111622336383761e+00 0 0 0
276 1 1.1827440175665929e+01 1.1943427597700282e+01 4.5165618410474737e+00 0 1 0
400 1 1.4220643139620087e+01 1.2165871219607821e+01 3.4674742210764427e+00 0 0 0
516 1 1.4580788890886486e+01 9.2717854329734148e+00 1.7719961953726076e+00 0 0 0
645 1 1.6709541468776521e+01 1.0226590091851691e+01 3.3035883341547780e+00 0 0 0
775 1 1.5860943206864771e+01 1.1492489082968650e+01 5.6219307531404237e+00 0 0 0
463 1 1.6793688579944540e+01 1.2388622550495704e+01 2.7649138803431583e+00 -1 0 0
420 1 2.0923661281148576e+01 9.0679166808693878e+00 2.4960072663293333e+00 -1 1 0
387 1 2.0906423291746563e+01 1.1290413923090533e+01 2.4949849787067775e+00 -1 1 0
554 1 1.8784024363852442e+01 9.9682517746813950e+00 1.7445103867502443e+00 -1 1 0
314 1 1.8039234279796535e+01 1.2227707001710113e+01 4.8407554642047836e+00 -1 0 0
217 1 1.9773716306537796e+01 1.2781659177179698e+01 6.5284526284864395e+00 -1 0 0
488 1 1.9400967861226981e+00 1.3970581254959075e+01 4.0844515557223726e+00 0 0 0
492 1 2.5971369110139437e+00 1.3101501823150096e+01 1.9027699331979440e+00 0 0 0
620 1 3.9680822493713799e+00 1.4894544586470390e+01 3.2876353764162713e+00 1 0 0
436 1 4.1965349770721279e+00 1.7740288719112439e+01 5.8610263619861733e+00 0 0 0
320 1 2.6020835114901599e+00 1.5972905199714656e+01 1.3967080771728924e+00 0 0 0
397 1 4.5076449749283126e-01 1.6093106843149886e+01 2.3848772066407768e+00 0 0 0
472 1 6.3475570787588751e+00 1.2830138067488932e+01 2.5703686439880364e+00 0 0 0
577 1 6.7967501274441124e+00 1.1991029238909928e+01 5.2170081171825897e+00 0 0 0
1255 1 4.9027853134392405e+00 1.4407310250547511e+01 1.3021783910398073e+00 -2 2 1
42 1 8.2657856593627876e+00 1.3662291902524041e+01 3.9861062133134659e+00 0 0 0
835 1 9.3777415059329332e+00 1.6017286023650851e+01 3.9371920415574682e+00 0 0 0
393 1 5.7634239910147578e+00 1.4154561041631107e+01 4.4956338581702342e+00 0 0 0
563 1 8.3909466843040139e+00 1.4029056281165420e+01 1.3702666273402544e+00 0 1 0
206 1 1.0978740747815948e+01 1.4641461144945428e+01 1.9811822760107232e+00 0 0 0
471 1 1.0260255007346574e+01 1.2408163302913632e+01 2.2894470253240398e+00 0 0 0
781 1 1.0495403792779566e+01 1.3794620859208740e+01 4.3919988779570485e+00 0 0 0
553 1 1.3241912942289561e+01 1.5213636935245756e+01 1.3295207447947472e+00 -1 0 0
405 1 1.1661244409693568e+01 1.6149447155594043e+01 4.2901545790408173e+00 0 0 0
336 1 1.2877710236172780e+01 1.3923700739591725e+01 3.8117729790533312e+00 0 0 0
605 1 7.7277298799145342e+00 1.7794102904027017e+01 3.1968621494184379e+00 -1 0 0
24 1 1.5840543023620326e+01 1.3561164896746380e+01 4.6093946016679324e+00 0 0 0
213 1 1.5613390557321711e+01 1.6534256090815244e+01 1.8989184218996460e+00 0 0 0
608 1 1.4286239578457398e+01 1.4807169147358040e+01 5.5785795092048360e+00 -1 0 0
495 1 1.4215601535971896e+01 1.6885690064573570e+01 3.6498962868968148e+00 0 0 0
293 1 1.5865755303369795e+01 1.5703595483460358e+01 4.0053502161051471e+00 -1 0 0
288 1 2.1175317345716422e+01 1.3704001232116717e+01 2.2312975479966939e+00 0 1 0
160 1 1.9106438047120147e+01 1.3137118834239812e+01 3.0670212505670449e+00 -1 0 0
285 1 1.7349836132598938e+01 1.4534693077136142e+01 2.6657484200436663e+00 0 1 0
368 1 2.0740765525464603e+01 1.4427939914900373e+01 4.8238832429832286e+00 -1 0 0
610 1 1.8284172447940524e+01 1.4542229976683100e+01 4.9722426390196981e+00 -1 0 0
551 1 1.9493980211715250e+01 1.5676193800070720e+01 3.1856330743804255e+00 0 0 0
501 1 1.9271913818308814e+01 1.7798713270563930e+01 2.0846255003252061e+00 0 0 0
360 1 2.0314866066647859e+01 1.6577199453792748e+01 5.5806425948059903e+00 0 0 0
345 1 4.3806727902512739e+00 1.7474653285134586e+01 1.9098304477725208e+00 0 0 0
270 1 1.5005711749561392e+00 3.4716016336449190e-01 1.4007341242343125e+00 0 1 0
337 1 3.1870817827112465e+00 1.8440019382967559e+01 3.6687072341268374e+00 0 0 0
215 1 1.5901062681460667e+00 1.7979832449829988e+01 2.2506534861787459e+00 1 0 0
430 1 8.4745265992258356e-01 2.0421895130504502e+01 3.8504674860832200e+00 1 0 0
630 1 2.1163023491444967e+01 1.7833205263782808e+01 4.0612351535806903e+00 -1 0 0
148 1 6.8482745195077719e+00 1.6051831822712284e+01 4.9973669036383965e+00 -1 0 0
167 1 2.9643492143669530e+00 1.9590884058272984e+01 1.4173476127614419e+00 1 0 0
18 1 5.5726137535387830e+00 1.7504985548916682e+01 3.7105821509615922e+00 1 0 0
523 1 6.9786301323146160e+00 1.5537859540085030e+01 2.4819781442094264e+00 0 0 0
1711 1 4.7760716846736564e+00 2.0068461257008178e+01 4.8407318846169725e+00 0 1 1
1397 1 7.3809349566470086e+00 2.0433755008522418e+01 3.3280463660780208e+00 -1 1 1
567 1 2.4591412902203071e+00 1.9758546111319415e+01 5.5464023188461198e+00 0 0 0
562 1 8.1003232979769333e+00 2.0836669920703422e+01 6.0864934582887429e+00 0 0 0
318 1 1.0203736737400089e+01 1.7904448799623662e+01 2.0375352857979250e+00 0 0 0
339 1 1.1345624476468778e+01 1.8615488669133253e+01 4.0802324051687497e+00 -1 0 0
529 1 9.7100641528213423e+00 2.0326542194737289e+01 4.3544438170627151e+00 -1 0 0
575 1 1.1330937517525227e+01 2.0315855860482433e+01 2.4765203336965342e+00 0 0 0
434 1 1.2488310487392727e+01 1.7553322802997315e+01 2.0826921870967059e+00 -1 -1 0
233 1 1.8089733551561007e+01 1.7817653557014243e+01 3.8383034147247583e+00 0 0 0
507 1 1.6388331293605820e+01 1.9350201851769423e+01 3.6512593122217014e+00 -1 0 0
581 1 1.3829560016142132e+01 1.9375910793539983e+01 3.3817644261910687e+00 -1 -1 0
1263 1 1.8281700644738329e+01 2.0267980271960511e+01 6.3070183492886347e+00 0 1 0
1458 1 2.1158487958942253e+01 1.9745376150745532e+01 1.9837527187660760e+00 -1 -1 1
228 1 1.8412655657059265e+01 2.3734362559927291e-01 1.7096014477342010e+00 -1 1 0
498 1 2.0598712769442010e+01 2.0064553416668222e+01 5.7159217788123691e+00 0 0 0
707 1 1.9553044969020217e+01 1.9711654072044379e+01 3.7823179912564591e+00 -1 0 0
561 1 2.7913229253355243e+00 1.1505357837565335e+00 5.4007383269397931e+00 0 1 0
860 1 2.2232030194803096e+00 2.4579847698232458e+00 7.6209712485203038e+00 0 1 0
627 1 1.8145272881081784e+00 3.5580366830124026e+00 5.0985487735543868e+00 0 0 0
435 1 2.0999891886915538e+01 3.8114225765368590e+00 7.0966198430629071e+00 -1 0 0
760 1 3.9504271765081724e+00 3.1103815881128005e+00 9.0569708714811075e+00 0 0 0
709 1 9.4728261443673425e+00 2.3926520089610821e+00 5.6353266009909735e+00 0 1 0
679 1 4.9155536952433714e+00 1.5549145433107989e+00 6.3646783569602388e+00 0 1 0
367 1 3.8267627214686137e+00 4.0580246152773700e+00 5.9232821313751653e+00 0 1 0
635 1 6.6218737998068518e+00 3.7086379440420201e+00 5.1519780292917838e+00 0 1 0
1306 1 7.1781841743732082e+00 2.1967938254798645e+00 6.6298864567417848e+00 0 -1 0
681 1 5.9230704811697850e+00 2.0949122005048661e+01 6.8799518155392292e+00 0 0 0
344 1 7.8815013284295388e+00 3.5093339991880845e-01 8.2204369894908886e+00 0 1 0
729 1 1.0061005113389676e+01 1.9250066156564485e-01 6.6495431659592512e+00 0 1 0
443 1 1.2156309726393930e+01 2.3315385115373082e+00 6.2205664660472983e+00 0 0 0
845 1 1.0400780559749668e+01 3.9619590284860613e+00 7.2750367201106698e+00 -1 1 0
741 1 1.2135887108460658e+01 3.8192912460622170e+00 8.4797564237822307e+00 0 0 0
590 1 8.4112239875466823e+00 2.9862407607396846e+00 8.3467294345428140e+00 0 0 0
818 1 1.4054254938439522e+01 3.0669909085994931e+00 4.6544728534472206e+00 -1 1 0
587 1 1.5033946442348608e+01 2.0548342499089607e+00 7.6726440978028290e+00 -1 0 0
607 1 1.6527316245969267e+01 1.8593148533246675e+00 9.2173710955144390e+00 -1 0 0
852 1 1.6154312615716318e+01 3.9610618352495690e+00 6.6600273312639864e+00 0 1 0
702 1 1.6619526604152483e+01 2.3893622638490846e+00 5.0772077865091481e+00 -1 1 0
1547 1 1.8423004931271429e+01 3.2168140415709732e+00 7.3847013505389754e+00 -2 0 0
569 1 1.9902284555655211e+01 5.1171251535414253e-01 7.2190501301553205e+00 -1 1 0
312 1 1.9098168940917589e+01 2.1904855803866572e+00 5.4275727457783844e+00 0 0 0
846 1 1.8953803888817330e+01 2.4323463206308431e+00 9.2977715702963781e+00 -1 1 0
580 1 3.7426607858672760e+00 6.4712287880873536e+00 6.4962672001641710e+00 0 0 0
766 1 1.7868599942704861e+00 4.4194932568424061e+00 7.7201010342105345e+00 1 0 0
683 1 1.2238279423581835e+00 6.0569888164682810e+00 6.1795596046240160e+00 0 1 0
1033 1 2.2225843258921887e+00 7.6980398837871009e+00 7.7504084068143566e+00 -1 1 0
1227 1 6.3229648579389641e-01 8.0631642695601400e+00 9.8462464878475746e+00 -1 2 0
1126 1 8.1851048059804636e+00 4.7216698703847451e+00 6.6463083925011208e+00 0 1 0
565 1 4.8632304391560446e+00 8.4835021415074543e+00 7.5379482929450745e+00 0 1 0
520 1 4.4012558844165950e+00 5.4039300933748269e+00 9.2662930148049512e+00 0 1 0
658 1 5.6390639613795459e+00 3.7591888892857170e+00 7.2252560558663568e+00 0 1 0
639 1 6.0697643233145193e+00 5.8143432762246059e+00 5.4654118152592925e+00 0 0 0
703 1 6.5581725083380373e+00 6.2077456396869541e+00 8.0801410590770271e+00 0 1 0
1357 1 1.1130028382765900e+01 6.8773597250841725e+00 7.4876955845417701e+00 0 2 0
701 1 1.2802580239292904e+01 6.1886180237382380e+00 6.2096718199049512e+00 0 1 0
738 1 1.3199523065910082e+01 5.9517163064027878e+00 9.3483049635778119e+00 0 0 0
301 1 1.2778330052921769e+01 8.4734641451715156e+00 7.3021042320654743e+00 0 0 0
691 1 8.7373102942666190e+00 5.5772910235286126e+00 8.9211707804682678e+00 0 1 0
311 1 1.6387497298536736e+01 8.1503549286849584e+00 4.3497215175449586e+00 0 0 0
1588 1 1.7806717485240100e+01 4.9821763268345531e+00 5.4954261301753800e+00 -2 2 0
355 1 1.3795831430613919e+01 3.9274657292308306e+00 6.7685247830931914e+00 0 0 0
765 1 1.3801160759272676e+01 7.9802055058655457e+00 5.1147000396554230e+00 0 0 0
428 1 1.4748353313258336e+01 6.6440654093248286e+00 7.5070620974005333e+00 0 1 0
1305 1 1.6656737288480524e+01 8.9049800975140485e+00 9.4139844215314046e+00 1 1 0
625 1 1.4041290664448210e+01 8.0572311349604160e+00 8.9421615151690084e+00 -1 0 0
540 1 1.7118512731482316e+01 6.4886134374171283e+00 7.4354827106399188e+00 -1 1 0
152 1 1.9642767201768802e+01 6.0056261635974426e+00 7.1285378867916993e+00 -1 0 0
653 1 2.0501541738865956e+01 4.7386494598447957e+00 5.0152324051446460e+00 -1 0 0
1541 1 1.8009450691433056e+01 7.3165095687412398e+00 5.6891634776763862e+00 -1 0 0
444 1 1.4571921994489387e-01 5.9713629142950611e+00 8.5341716785537578e+00 0 0 0
629 1 2.0488127557363338e+01 7.4044347273231734e+00 5.3890272440997879e+00 -1 0 0
592 1 2.0077752056515425e+01 1.0509606665966366e+01 6.6389171069254598e+00 -1 0 0
797 1 2.1236151750086041e+01 8.3590475100134167e+00 7.5676519548730106e+00 -1 0 0
624 1 2.9691049198097659e+00 9.6760052989128607e+00 7.0585646951382017e+00 1 0 0
631 1 7.4171802286689714e-01 1.2980380382372964e+01 6.7801655441610276e+00 0 0 0
1156 1 4.4640161747301184e+00 1.2522121170963599e+01 5.8546034856697009e+00 0 -1 0
847 1 2.9736440323720803e+00 1.1901303375804494e+01 7.7758681722650440e+00 0 0 0
511 1 5.3775888224367119e+00 1.0951044690741719e+01 7.9695814238477958e+00 0 0 0
445 1 5.1537573365971276e+00 1.0151132030347366e+01 5.6443322849035589e+00 0 0 0
1174 1 4.4690548120600990e+00 1.3144340147649661e+01 9.1840155593119341e+00 1 -1 0
1576 1 5.5020256585875318e+00 8.7988229862111726e+00 9.9312305619339352e+00 1 1 0
440 1 9.5920418401647822e+00 1.1199385964854480e+01 8.7528805623952586e+00 0 0 0