LAMMPS data file via write_data, version 19 Mar 2020, timestep = 100000

1728 atoms
1 atom types

0.0000000000000000e+00 2.1263999999999999e+01 xlo xhi
0.0000000000000000e+00 2.1263999999999999e+01 ylo yhi
-2.7087237626081127e+00 4.5236723762608548e+01 zlo zhi

Masses

1 58.933

Atoms # atomic

41 1 2.1886393209033823e+00 8.9079280301972041e-01 9.0860171654083910e-01 0 0 0
412 1 1.6792526516237605e+00 3.8052934039163393e+00 6.9651863962823723e-01 0 1 0
64 1 3.5390744968670345e+00 2.6468146870735141e+00 1.8276367912264506e+00 0 0 0
47 1 4.2911157199255108e+00 4.3602192279883212e-01 1.9724115850405566e-01 1 0 0
1229 1 2.9893174918285461e+00 2.3165735329982362e+00 -8.5476906318363999e-01 -1 1 1
1252 1 5.4774298437377866e-01 4.9745219728610274e-01 -1.1752608028749607e+00 1 1 1
76 1 2.5045492189781609e+00 4.3285962804397951e+00 -1.8085560258894389e+00 0 1 0
124 1 5.2043675457703857e+00 2.8965788653651998e+00 -4.0302890754544407e-01 0 1 0
1081 1 6.1429833556137137e+00 1.6842065037680043e+00 1.4179023404398210e+00 -1 0 1
256 1 8.4071880737222155e+00 2.2761769913581777e+00 2.4813959586306336e+00 0 1 0
103 1 6.8432710183041339e+00 6.4431005465798963e-01 -3.9507213683571285e-01 0 1 0
1619 1 8.0020251147075747e+00 2.1618876238292034e-01 -2.5946855595643639e+00 0 2 1
314 1 7.7374087188161349e+00 2.5396873956664425e+00 -1.0321914723647159e+00 0 0 0
278 1 9.6280836955453868e+00 1.5398165362714407e+00 -5.4102399963291159e-01 0 1 0
33 1 2.0021551742016598e+01 2.0277956350459934e+01 -2.1365809056162601e+00 -1 -1 0
590 1 1.0277094878931869e+01 4.3647200312786509e+00 -1.7239281284820187e+00 0 0 0
43 1 1.1806694406406320e+01 7.8412119747019215e-01 -7.3953219745141618e-01 0 0 0
321 1 6.7346520125458689e+00 4.6398443852621272e+00 -2.0195853529251018e-01 0 0 0
235 1 1.4347972133002065e+01 2.8298179729605843e+00 1.6853915812026745e+00 0 0 0
24 1 1.7285345090026851e+01 1.4255293905879010e+00 1.4392288118063457e-01 0 0 0
20 1 1.5110955933978595e+01 1.7192428394103798e+00 -4.6359518547506884e-01 0 0 0
360 1 1.4997789476294836e+01 3.1489446937868482e+00 -2.5178593612722509e+00 0 0 0
1359 1 1.2703200301176684e+01 2.9497920198720338e+00 -1.4457954090213259e+00 2 3 1
1015 1 6.6813182399254156e+00 1.6790346704649572e+01 2.0618773592871513e+01 0 0 0
223 1 2.0580035726906637e+01 3.9393340114221997e+00 -2.3371558287192813e+00 -1 0 0
118 1 1.8951111299478189e+01 3.5766869402176358e+00 -2.4656782343749306e-01 0 1 0
730 1 2.0718286553720979e+00 6.1478540634275838e+00 2.0760300472042292e+01 0 0 0
1128 1 1.9143977012032533e+01 1.4474404505637002e+00 -1.5507888036604522e+00 -2 0 1
482 1 2.1172392491708504e+01 2.5449258417253908e+00 -6.6187051821423060e-01 -1 0 0
322 1 2.0039286580919153e+00 6.7249413408414380e+00 1.3374859638058689e-01 0 0 0
199 1 2.0292462151749984e+01 7.5198660137221953e+00 -7.9915477702595972e-01 -1 0 0
157 1 3.3847003549426686e+00 7.0126525098232957e+00 -1.7988569882018179e+00 0 0 0
211 1 5.5398720023132215e+00 4.2682781741125231e+00 1.6051141310247603e+00 0 0 0
1575 1 5.4561506765333769e+00 6.4774573861552138e+00 4.7382553512217784e-01 0 2 1
514 1 7.2357982795307070e+00 7.0004164794363044e+00 -1.1635965275948768e+00 0 0 0
1179 1 6.4431581902518422e+00 8.5284332618222312e+00 1.2353943627038242e+00 -1 0 1
214 1 5.2986882400239450e+00 8.3555704982366183e+00 -1.2938926521189014e+00 1 0 0
237 1 5.6234243418325285e+00 6.0036428329111224e+00 -1.9964313677550662e+00 1 0 0
797 1 1.6543912493902713e+01 1.6206327643644979e+01 2.0201564768693061e+01 -1 0 0
183 1 3.7035577223147089e+00 5.1331053036537115e+00 1.5283219515423330e-02 0 0 0
1372 1 1.1345835057739166e+01 6.9148950617050984e+00 -4.4883824701910768e-01 1 1 1
1267 1 9.0092895360286978e+00 5.7974653722830087e+00 -2.2650162187809775e-01 0 3 1
193 1 7.8666969894618859e+00 5.0186038618860236e+00 -2.3594032532204263e+00 0 0 0
212 1 9.1866842859250379e+00 8.4503187651369398e+00 2.1653124373355137e-01 0 0 0
56 1 9.5002306177185343e+00 7.1684652807136953e+00 -2.1096506242396664e+00 0 0 0
195 1 1.6530567172255385e+01 3.7247092009905338e+00 5.1168804256051459e-01 -1 0 0
68 1 1.2172510197828718e+01 4.3549476510722922e+00 1.6156567734597171e-01 0 0 0
46 1 1.3604927520160123e+01 6.7010616266784426e+00 -1.3939884863061858e+00 1 0 0
1362 1 1.5445628075265114e+01 8.1855225355505432e+00 -2.6714252328147836e-02 1 1 1
232 1 1.4488382545755890e+01 4.6356244618493392e+00 -6.6513605658664998e-01 0 0 0
77 1 1.5838058418475832e+01 6.6732786449382182e+00 1.9538421497705434e+00 0 0 0
143 1 1.6996886426282551e+01 2.2094649781893190e+00 -2.0383638407159417e+00 0 0 0
789 1 1.8691863356035448e+01 2.1131736938373766e+01 1.8600262219828149e+01 -1 0 0
670 1 2.1156379357204713e+01 5.2555486639163425e+00 -3.2644330127845844e-01 0 0 0
71 1 1.6728946638408047e+01 6.2878377739663902e+00 -3.9036289336185570e-01 0 0 0
1670 1 1.8955236894393565e+01 6.0490942038472406e+00 9.6360324078393100e-01 1 2 1
493 1 1.1903051634992279e+00 8.3493895230580470e+00 -1.7882278985726636e+00 0 0 0
219 1 4.0367697824192733e-01 1.1408658582799562e+01 -2.1533089489974491e+00 0 0 0
1080 1 2.3038015793798188e+00 1.0774759066886590e+01 -6.6351877084558364e-01 -1 1 1
243 1 7.4013355349370546e-01 9.4044144714699236e+00 4.7922901533652951e-01 0 0 0
220 1 3.6691226879982075e+00 8.4802785836347798e+00 3.4137609076337050e-01 0 0 0
772 1 1.8345752994117774e+01 2.1141093070224826e+00 1.9107106290804751e+01 -1 1 0
1091 1 1.9841198229992340e+01 1.0132938252808470e+01 7.6932197078201048e-01 0 0 0
520 1 3.9762679245786146e+00 1.2304757192613062e+01 7.1503195919188434e-01 0 0 0
1516 1 8.1107110257543908e+00 9.9402428520124566e+00 -1.0879850972883756e+00 0 0 1
269 1 5.6592432645118027e+00 1.0646947260189547e+01 -2.5167380902459957e-02 0 0 0
249 1 7.4518354301927907e+00 1.2300117556669671e+01 -1.6895768240284692e-01 0 0 0
84 1 8.2829101505248399e+00 1.1966964719557071e+01 -2.2906965766253582e+00 0 0 0
121 1 5.7674920203453270e+00 1.2513857995295600e+01 -1.6761081839877630e+00 0 0 0
1682 1 1.0698536208146447e+01 1.2543910623839340e+01 -2.1917435740604585e+00 -1 0 1
90 1 1.0443370608719693e+01 1.0493049405302246e+01 -1.0665600771856336e+00 0 0 0
893 1 1.2230679605215983e+01 8.6606325633692318e+00 -2.1514693067604114e+00 -1 0 1
1064 1 1.2448395119037752e+01 1.1463511029663080e+01 -3.7196052249484302e-01 -1 1 1
819 1 6.7204155728228698e-01 2.0552429455474709e+01 2.1053364868619500e+01 0 0 0
189 1 1.0977691593481222e+01 9.6227203940727204e+00 1.3481916680416486e+00 0 0 0
178 1 1.4185778404694908e+01 1.2301110132410148e+01 -2.1464289086952895e+00 0 0 0
961 1 1.4125330020366590e+01 9.7768396755984277e+00 -1.7645115897149699e+00 -1 1 1
1339 1 1.6254568546721107e+01 1.0407696468730768e+01 -1.1797229021623963e+00 -1 -1 1
864 1 2.0572688063109965e+01 1.1292437839957903e+00 2.0597161105945951e+01 0 1 0
1238 1 1.6858979817691452e+01 1.2497680420566841e+01 -2.4277402801028183e+00 1 0 1
200 1 2.0397428439081423e+01 9.5970701921172150e+00 -2.1148060978511420e+00 -1 0 0
294 1 1.8198332456938420e+01 8.4026981697242498e+00 -2.8259935062909092e-01 -1 0 0
91 1 1.6079167875526295e+01 1.3096071821477166e+01 5.8712704545402650e-01 0 0 0
1537 1 1.8462359930418117e+01 1.1530924967952030e+01 -3.9712057539397971e-01 -1 -1 1
1588 1 1.3962222116080156e+01 2.0258471500505657e+01 2.0980560501751885e+01 -1 1 0
1135 1 1.8128343160820453e+01 1.8335641793125436e+01 2.0765943910276604e+01 -1 1 0
82 1 3.2252953803907425e+00 1.6691393784299411e+01 -2.7684658078311797e-01 0 0 0
368 1 8.4918214710272100e-01 1.1701306755137061e+01 6.6854807486592227e-01 0 0 0
382 1 7.3763046848077241e-01 1.5385572838808606e+01 -8.8385990141781368e-01 1 0 0
254 1 2.0388794809636277e+00 1.3249882711740062e+01 -8.4063129151956240e-01 0 0 0
27 1 1.1774169768106420e+01 1.6011691946207545e+01 -2.4786105336240585e+00 -1 -1 0
649 1 1.8975035035954345e+01 5.6661127724845057e+00 -1.5199193024462092e+00 -1 0 0
323 1 6.8912865220360686e+00 1.4800443755685306e+01 6.7804194134588158e-02 0 0 0
1459 1 4.6347549856816750e+00 1.4584426202392631e+01 -8.6013981460540667e-01 0 -1 1
399 1 8.7877317858512214e+00 1.6494809564072575e+01 -1.4363973114528363e+00 0 0 0
203 1 5.6730209208247429e+00 1.6837433514085664e+01 -5.7456541086145574e-01 0 0 0
55 1 5.9740672499418812e+00 1.2924579041380703e+01 1.2539853706149482e+00 0 0 0
1652 1 7.2469620848062597e+00 2.4832708708206752e-02 2.0236892377208207e+01 -1 2 0
1285 1 1.2797071991707854e+01 1.3889415953442285e+01 -1.0560563912572503e+00 1 1 1
276 1 8.5611560257758423e+00 1.4187806326013220e+01 -1.3009600607416276e+00 0 0 0
224 1 1.1222722162031333e+01 1.5590246920409935e+01 -2.3747615678215883e-01 -1 0 0
338 1 3.3995171059166851e+00 3.3255666249225929e-01 -2.2137280305779297e+00 0 0 0
1568 1 1.0555350444526546e+01 1.3409371720204240e+01 1.5199094496867804e-01 0 1 1
25 1 1.3601408451250554e+01 1.3043237096749367e+01 1.0027544589266260e+00 -1 0 0
267 1 1.5269766290328473e+01 1.4479213696887856e+01 -1.1919063477123681e+00 -1 0 0
484 1 1.5579464328657762e+01 1.8769545429340653e+01 2.0115104910889059e+01 -1 -1 0
1495 1 1.5248642684991511e+01 1.1598631864215987e+01 2.4205829063737365e+00 -2 0 1
356 1 1.3585140306458321e+01 1.6098825967770058e+01 1.1409296287642983e+00 0 0 0
1641 1 1.3798628674704442e+01 1.6143996597943403e+01 -1.2306890374641950e+00 0 1 1
26 1 1.9613850486185413e+01 1.5133640487456933e+01 -1.3417437454240977e+00 -1 0 0
100 1 1.8099250933075513e+01 1.3725278576295342e+01 4.4326195467064800e-01 -1 0 0
201 1 1.7921255953847304e+01 1.6604229888704580e+01 -7.0584490251303933e-01 0 -1 0
176 1 2.0227796869799306e+01 1.2796907226944551e+01 -6.4944929298034193e-01 -1 0 0
105 1 2.0429436110548473e+01 1.5810624864884568e+01 1.1046727977076150e+00 -1 0 0
177 1 2.1932873493216865e+00 1.8184894429614637e+01 -1.7082941022758955e+00 0 -1 0
1621 1 4.7533260244527247e+00 1.9065152609102277e+01 -6.1366137407927512e-01 1 -2 1
9 1 2.5009346519011744e+00 2.0224095479174686e+01 -5.6691646310020571e-01 0 -1 0
102 1 9.5751412305827566e-01 1.7381515474700016e+01 6.3881392283380078e-01 0 0 0
1394 1 7.0450827342219666e+00 1.8911065127279418e+01 -2.8456939685411831e-01 0 0 1
7 1 6.6488766403916859e+00 1.7955348764827487e+01 -2.4001691283507536e+00 0 -1 0
160 1 8.0033912625707462e+00 1.9084276187065516e+01 1.8502817105337304e+00 0 -1 0
283 1 7.4525409633157356e+00 1.6717517838599438e+01 9.5634865833459459e-01 0 0 0
1592 1 1.2231600637778008e+01 1.7614373691110764e+01 -7.1004773553583123e-01 0 0 1
1249 1 1.2758972501974789e+01 1.8929000348293176e+01 2.2043088603235743e+00 -2 2 1
31 1 9.1906284407832270e+00 2.0452756867404538e+01 -7.9380833059891365e-01 0 -1 0
1492 1 1.2283090198406718e+01 2.0107007506985486e+01 -1.9174128674994280e+00 -2 1 1
301 1 1.1121297133197654e+01 1.9505040477142025e+01 2.5007673813163622e-01 0 -1 0
144 1 9.7336447197875007e+00 1.7891680889783387e+01 2.8268010722306114e-01 1 0 0
131 1 1.0207746339170304e+01 1.8588504745800467e+01 -2.1793695582565511e+00 0 0 0
263 1 1.4537269404668599e+01 1.8259023404085795e+01 1.5175369575239017e-01 0 0 0
976 1 1.5907578555945024e+01 1.6005624396429887e+01 5.0481445893642496e-01 1 0 1
1677 1 1.3108192367838235e+01 2.0729980767368776e+01 6.5699891820722822e-01 1 -1 1
359 1 1.4316601782288744e+01 1.8109454247152240e+01 -2.3151464837006794e+00 0 -1 0
410 1 1.6564414826530655e+01 1.8589298008128090e+01 -1.1590644565141803e+00 -1 0 0
120 1 1.7266854285063157e+01 2.0790683616193974e+01 -1.7487291185750675e+00 0 0 0
248 1 2.0545954085136575e+01 1.7456952055861205e+01 -1.2846618892089106e+00 -1 0 0
648 1 9.5771892364177109e+00 8.1797933652493562e+00 2.0895391491032242e+01 0 0 0
75 1 1.9260859166306574e+01 2.0955710455346747e+01 2.8017816302564302e-01 -1 0 0
1442 1 1.8846350306642275e+01 1.8768700009832443e+01 -2.6342053134235854e-01 0 1 1
15 1 1.4121599703594037e-01 1.9668287923415225e+01 2.4438275433170453e-02 0 -1 0
960 1 1.3080772346880337e+01 1.7884754134277532e+01 1.9984429605630705e+01 1 0 0
137 1 6.3643243060262815e+00 1.5126262572985700e+01 -2.2691473269662601e+00 0 0 0
973 1 1.9456683755853582e+01 2.0063467059759116e+01 2.0762082587345489e+01 0 0 0
112 1 2.4098887064724077e+00 4.4609340422649604e+00 3.7401712452131815e+00 0 1 0
660 1 3.5237850260492078e+00 2.5984356503484912e-01 5.0673339161273967e+00 0 0 0
37 1 3.8933052539177240e+00 2.6582910093966583e-01 2.5804145722403256e+00 0 0 0
180 1 1.1965301200307288e+00 2.4098433730320421e+00 2.7357266557971300e+00 0 0 0
307 1 1.2922571031659100e+00 3.6833704989298593e-01 3.5435200783312926e+00 1 0 0
151 1 2.8059652263557813e+00 4.0962365998448824e+00 6.1151343076845830e+00 0 0 0
457 1 1.3739936605859411e+00 2.1142662191742079e+00 5.3935330628275739e+00 0 0 0
73 1 4.6373671355733705e+00 4.7817125995283849e+00 3.7545580132326233e+00 0 0 0
30 1 5.8026421392442460e+00 7.0692477512402474e-01 4.3235811658465630e+00 0 0 0
13 1 7.5311826006617473e+00 2.1188600258887902e+01 2.8761013066345384e+00 0 -1 0
215 1 3.8881473995501170e+00 2.5137312123997804e+00 4.3069727478829041e+00 1 0 0
136 1 7.4717930100109262e+00 1.8710182493491436e+00 5.3843619316157998e+00 0 1 0
411 1 6.2286320398829620e+00 2.9247592293898079e+00 3.3801338788272979e+00 0 1 0
1605 1 9.9801689401226508e+00 3.7531976198728554e+00 3.9644059881354554e-01 1 0 1
59 1 9.4214607143408173e+00 2.1244020301704946e+01 1.2844482361452809e+00 0 -1 0
474 1 9.6509711532258464e+00 1.4583087457465840e+00 4.0007132335710081e+00 0 0 0
315 1 1.1876530230207017e+01 1.8300543969836500e+00 1.4482229051856290e+00 -1 0 0
319 1 1.2636274319004595e+01 2.3714415601612759e+00 3.7650576348270457e+00 0 0 0
683 1 1.1191601627553045e+01 2.1065830107083432e+01 5.0274593349766183e+00 0 0 0
48 1 1.4135875225086188e+01 7.4841125419731658e-01 2.4253134177086340e+00 0 0 0
190 1 1.6414420685585615e+01 5.5135727120622002e-01 2.3202971696851415e+00 0 0 0
570 1 1.7149199567662247e+01 2.8024419383971590e+00 2.5974295414760604e+00 0 1 0
327 1 1.5435917348845882e+01 1.5233946405716097e+00 4.2185486279085849e+00 0 0 0
192 1 1.6248346159510813e+01 3.7193142923876601e+00 4.8858178768684422e+00 0 0 0
1708 1 2.1234840688399746e+01 6.0605993316694429e-01 1.1904103655796003e+00 -1 2 1
357 1 2.0569860697561460e+01 1.6567007329626759e+00 3.4402496572421075e+00 0 0 0
1274 1 1.7982060498462953e+01 1.6795489248800830e+00 4.4680647530095037e+00 -1 1 1
119 1 1.9089314690904125e+01 2.0941327322353103e+00 1.4806037259027951e+00 0 1 0
339 1 1.8825516556156767e+01 3.8474601813207423e+00 3.9715485833712787e+00 -1 0 0
366 1 2.0838359807993992e+01 3.9837390922108362e+00 1.7440491546326369e+00 -1 0 0
138 1 1.9767004728249749e-01 2.0624586762913982e-01 5.5723308934448443e+00 1 1 0
1626 1 3.2350199700937030e+00 6.0328599261467382e+00 2.0633999181982139e+00 2 0 1
272 1 1.1909144994428256e+00 6.1931649996756244e+00 4.6228738210529601e+00 0 1 0
394 1 2.1009013416065558e+00 8.0260869711895051e+00 2.1878188054453229e+00 0 0 0
458 1 2.3224710281327394e+00 6.4548321690531987e+00 6.8854878544483817e+00 0 0 0
58 1 8.8979170378519723e-01 5.6540821626474669e+00 2.1963611608328764e+00 0 0 0
511 1 2.0212245934167640e+01 5.9595245408953517e+00 6.0470638808474249e+00 -1 0 0
1661 1 7.9277942336136142e+00 4.4102857067350589e+00 1.8522848376496563e+00 1 2 1
318 1 5.3506263142049777e+00 6.5809642955826506e+00 2.7015567297122143e+00 0 0 0
170 1 6.8915796293631493e+00 5.3346745900824084e+00 4.0363601076721523e+00 -1 0 0
271 1 3.5968066178659841e+00 7.1161455493024670e+00 4.4622356086375712e+00 0 1 0
1491 1 4.1877866815301887e+00 8.9163831923046075e+00 2.8815830449741000e+00 0 2 1
62 1 7.7206882088457904e+00 6.7522561966299559e+00 1.6628468060306529e+00 0 0 0
60 1 1.0414575811155819e+01 6.2583577674572091e+00 1.3865470700840925e+00 0 0 0
347 1 1.0536695112530262e+01 3.5830397597939863e+00 3.5240536519687593e+00 0 0 0
336 1 9.1817907232306855e+00 5.6385356645274038e+00 3.5497729075187534e+00 0 0 0
168 1 1.1245045741910786e+01 7.0963335203992335e+00 4.8274604169762192e+00 0 0 0
1523 1 1.2121661726525181e+01 5.0589740696137007e+00 2.8681175971411257e+00 2 1 1
403 1 1.1928203574153253e+01 7.8752580574034834e+00 2.5563632785653878e+00 0 0 0
1664 1 1.5147033748120650e+01 4.7194253407189191e+00 2.8689808179036822e+00 1 0 1
165 1 1.3384400619102365e+01 6.6352394066830325e+00 1.2722641616901771e+00 0 0 0
309 1 1.3820375520740377e+01 6.5872899272981602e+00 3.6880281995802147e+00 0 0 0
166 1 1.3821075365126129e+01 4.2935280344019082e+00 4.7624867955861827e+00 0 0 0
330 1 1.5568763601440329e+01 5.7352710040975143e+00 5.0721460597068191e+00 0 0 0
217 1 1.2955338199446510e+01 6.5560778490625324e+00 5.9981715319820381e+00 -1 0 0
650 1 2.0179995542988031e+01 5.8760272359687677e+00 3.4457682158686493e+00 -1 0 0
197 1 2.0937593956999141e+01 3.9337761052747728e+00 4.3401317102777686e+00 -1 0 0
18 1 1.7385925039285020e+01 5.2963604615678532e+00 2.9438982032378078e+00 0 0 0
355 1 1.8345736628215676e+01 7.8225753719980933e+00 2.1714504333491087e+00 0 0 0
503 1 1.6749492788506444e+01 7.1493625764183397e+00 3.9045125362833204e+00 0 0 0
196 1 2.1800021325917678e+00 9.0139158666597243e+00 4.3319484141170825e+00 0 0 0
1375 1 2.7953157595461988e+00 1.0463692816863734e+01 2.0354121657309712e+00 1 1 1
542 1 4.0961233943221611e+00 1.1336260422423326e+01 3.9358422130391615e+00 0 0 0
259 1 2.1178215102230752e+01 8.2982053229798058e+00 3.7056164113794496e+00 0 0 0
398 1 1.5322891365668689e+00 1.1618157167507931e+01 4.7554743246669293e+00 0 0 0
209 1 6.4520187107658744e-01 1.0404353578059599e+01 2.7305013061314760e+00 1 0 0
54 1 2.1620725351953669e+00 1.2684594039747148e+01 2.5997418369309866e+00 0 0 0
452 1 7.6075786572988182e+00 9.4647912910568550e+00 3.5957385657581220e+00 0 0 0
354 1 5.5604977672303928e+00 1.0749259488759135e+01 2.2796613876043272e+00 0 0 0
85 1 6.5135072046779658e+00 1.1809333133318908e+01 4.1580940561186290e+00 0 0 0
401 1 8.6413852741138477e+00 1.2838487073578756e+01 2.0045327758855214e+00 0 0 0
231 1 8.6860590286079109e+00 1.0554721975584187e+01 1.5727006975012854e+00 0 0 0
79 1 9.4494574815388965e+00 8.1095080147879823e+00 2.7190752605709410e+00 0 0 0
326 1 9.0636474764484198e+00 1.1397595872583468e+01 3.9121765719606056e+00 0 0 0
320 1 1.1007771819127496e+01 1.0120281426976035e+01 3.9508735309433325e+00 -1 0 0
87 1 1.3118377515318976e+01 1.0718177633460895e+01 2.3578565623321621e+00 0 0 0
152 1 1.3040666824990236e+01 8.9010903688054217e+00 4.7611831403860894e-01 -1 0 0
373 1 1.2380518043596632e+01 1.2367370304309096e+01 3.7639724922940374e+00 0 0 0
86 1 1.4627710944573002e+01 1.0917667229031611e+01 2.6206833799881402e-01 0 0 0
447 1 1.4678975845110148e+01 8.9835296636518915e+00 2.5016611591934126e+00 0 0 0
287 1 1.4928505155050994e+01 1.0814697655482757e+01 4.7753115466962672e+00 0 0 0
198 1 1.3210703695440262e+01 9.1457398576795459e+00 4.2940510977745472e+00 0 0 0
531 1 1.4971136263336930e+01 8.1426870426802029e+00 5.1462476399559129e+00 -1 0 0
956 1 1.7704154778382030e+01 1.1742881000481876e+01 1.8435718172658859e+00 -1 1 1
463 1 2.0968804243152391e+01 7.5518569521743455e+00 1.4965351980464989e+00 -1 0 0
94 1 1.6448208829999931e+01 9.8301037259498116e+00 3.5376007059953967e+00 0 0 0
284 1 1.6851131747777451e+01 9.6377667132433853e+00 1.1400112939106521e+00 0 0 0
244 1 1.9170069612503205e+01 9.9899743259189950e+00 2.8298594509604147e+00 -1 0 0
530 1 1.9130774697157005e+01 7.9149948575893703e+00 4.5651571588296598e+00 -1 0 0
337 1 1.7303873167637221e+01 1.1753965148771229e+01 4.2665802872136753e+00 -1 0 0
954 1 1.8792272030610810e+01 1.0394562970851702e+01 5.2740382295263624e+00 -1 2 1
1613 1 2.5934696598545979e+00 1.4870433385872113e+01 6.5178238237103470e-01 0 0 1
108 1 3.7455618332542462e-01 1.3954750919828433e+01 1.2121064325196218e+00 0 0 0
554 1 1.5701606674934334e+00 1.5604911628136072e+01 2.7507836599053785e+00 0 0 0
464 1 3.8099857161215214e+00 1.5458141097921292e+01 4.1180468742496803e+00 0 0 0
395 1 2.0111758506785268e+01 1.2202883563959688e+01 2.2421770519379081e+00 -1 0 0
127 1 3.5416494869399773e+00 1.7008454607986394e+01 2.5149757904007686e+00 0 0 0
257 1 2.3228765630644248e+00 1.3934531492167665e+01 4.5428130250699965e+00 0 0 0
216 1 6.2143494193388138e-01 1.6360859039004549e+01 5.1629506968762557e+00 1 0 0
225 1 4.3963747802038293e+00 1.3441726633754348e+01 2.9052568935861407e+00 0 0 0
187 1 5.1956471796003481e+00 1.5447732037782519e+01 1.5486918698856558e+00 0 0 0
397 1 7.0363274735895800e+00 1.4411057859522668e+01 2.9696418593433531e+00 0 0 0
240 1 9.3917625813851995e+00 1.5018482383716353e+01 1.1583051153314421e+00 0 0 0
251 1 1.0423138328020569e+01 1.1851846036962046e+01 5.5837633956852137e+00 0 0 0
230 1 1.0682620047755881e+01 1.1795343927510480e+01 2.1372811816556929e+00 0 0 0
34 1 9.8809492396240888e+00 1.3580955126032443e+01 3.8344466161870381e+00 0 0 0
39 1 1.0842886001007187e+01 1.6911328465422837e+01 4.6103996171968697e+00 0 -1 0
255 1 1.1896011788204493e+01 1.4285249857208921e+01 1.9675863896297336e+00 0 0 0
1653 1 1.1802391156278931e+01 1.4840021589935480e+01 4.2952263343366983e+00 -1 0 1
268 1 1.1332178193537667e+01 1.6596886963152468e+01 1.6800196557351974e+00 -1 0 0
344 1 1.6479226727264837e+01 1.4838849320694369e+01 2.2656423219770181e+00 -1 0 0
280 1 1.5450085254734681e+01 1.7300871933183377e+01 2.3895502526428603e+00 0 0 0
57 1 1.4157014321620286e+01 1.4191653957363435e+01 3.1950857390150906e+00 -1 0 0
233 1 1.7576683638984690e+01 1.5230647255539111e+01 4.8113539759521036e+00 0 0 0
507 1 1.5166808796700094e+01 1.6112883520358821e+01 4.6854840056467308e+00 -1 -1 0
391 1 1.3574540987577292e+01 1.4216453669344052e+01 5.8494250110269714e+00 -1 0 0
117 1 1.8940957361393497e+01 1.4118011565031173e+01 2.6775093644452062e+00 0 1 0
206 1 1.7010186779276818e+01 1.7964520609192846e+01 4.1920830338218913e+00 0 0 0
285 1 3.5273411672765112e-02 1.4002120899366012e+01 4.0535276057418681e+00 1 0 0
363 1 2.0500756669351475e+01 1.2217879447492043e+01 5.4132588748526320e+00 -1 0 0
400 1 3.4217033649772106e+00 1.9026231729618488e+01 1.4132508449383367e+00 0 0 0
677 1 1.4622522990511182e+00 1.9695059601625996e+01 1.9291851126227089e+00 0 0 0
146 1 1.6045556066539544e+00 1.7995455025437440e+01 3.6146558824227313e+00 0 -1 0
422 1 4.3840171237791230e+00 1.9479066419194453e+01 3.4802140608870404e+00 0 0 0
191 1 1.8813629513338859e+00 1.9416568014941344e+01 5.2650474715736628e+00 1 -1 0
512 1 3.2570385191549232e+00 1.7611417676424043e+01 5.0427002611108902e+00 0 0 0
1392 1 5.6729153184650025e+00 1.7898823136104234e+01 1.6304083600971531e+00 1 2 1
279 1 6.8650599373557677e+00 1.7329327688199172e+01 6.5894384816297542e+00 0 0 0
179 1 5.8018501077645528e+00 1.6601160852633306e+01 3.5960699955309510e+00 0 -1 0
174 1 5.8020884777160138e+00 2.0272316249233914e+01 1.4166010975984875e+00 0 -1 0
568 1 6.7022266919209263e+00 1.8662457044544499e+01 3.7798318175890238e+00 0 0 0
186 1 8.9100965417627389e+00 1.6788472978635856e+01 3.1064341837688190e+00 0 -1 0
19 1 1.2911681070098869e+01 1.7228714227289750e+01 5.7707424673241121e+00 0 -1 0
153 1 9.4453308577082744e+00 2.0298797202901056e+01 3.9635219745436796e+00 0 -1 0
273 1 8.5289034430559489e+00 1.8357463062943587e+01 5.2107020644995448e+00 0 0 0
274 1 1.0407053108123669e+01 1.8779360868898241e+01 2.3792031516319092e+00 0 0 0
334 1 1.1474493979312028e+01 2.1215103399371340e+01 2.7104595010801180e+00 0 -1 0
596 1 1.1464451263482628e+01 1.9029687466451300e+01 4.4155614630218789e+00 0 -1 0
142 1 1.3061450090316049e+01 1.6955246504947404e+01 3.4967271166494376e+00 0 0 0
213 1 1.5617701722083080e+01 2.0756235700093676e+01 3.8131357491383255e-01 0 -1 0
93 1 1.3630987432537840e+01 2.0725296749592498e+01 4.4472851389626875e+00 0 0 0
1446 1 1.6580775723206756e+01 2.0717850758082836e+01 4.7939599062156324e+00 -2 1 1
638 1 1.4945016633044935e+01 1.9479299107052967e+01 2.5606971895166248e+00 0 -1 0
155 1 1.7189544451049098e+01 1.8813181618863009e+01 1.1848920297472656e+00 0 -1 0
871 1 1.8046909307794294e+01 1.6780875709254406e+01 2.1529616129913460e+00 -1 0 1
1094 1 2.0843974268915400e+01 1.6676113012319089e+01 3.2798794865271059e+00 -1 -1 1
346 1 2.0596124779944894e+01 2.0136491248081928e+01 2.6194249034214154e+00 -1 0 0
265 1 1.8521279207833903e+01 1.0093327918598897e-02 2.9528261070447037e+00 -1 1 0
963 1 2.0094105042855315e+01 1.7961051917016231e+01 1.4423439484584648e+00 0 1 1
473 1 1.8929709066841109e+01 1.8801110417917705e+01 3.5248824768268685e+00 0 -1 0
870 1 1.3236355982814854e-01 1.5015464818736053e+00 7.6856760283650392e+00 1 0 0
292 1 2.0350288192611625e+00 2.9837113744581627e+00 8.9578389260222462e+00 0 0 0
459 1 3.5436681565474554e-01 4.6823200029599725e+00 9.4882430355063150e+00 0 0 0
456 1 1.6922206429433020e+00 8.1801859258596665e-01 9.3621679543572469e+00 1 0 0
629 1 1.7106050691071251e+00 2.1073639968106303e+01 7.0394305197947471e+00 0 -1 0
465 1 3.2842159288083232e+00 1.5896651276051825e+00 7.0557206578536142e+00 0 0 0
266 1 4.4265641932252295e+00 3.2055450674634485e+00 7.7612680995106089e+00 0 1 0
316 1 6.5721186400760478e+00 2.1967217217231259e+00 8.8208573113401822e+00 0 0 0
132 1 5.6928223152312096e+00 3.5284700369859410e+00 5.6037824051794569e+00 0 1 0
431 1 7.0840696820710898e+00 4.0596402231799624e+00 7.5827576652560307e+00 1 1 0
390 1 5.4250696333088335e+00 1.3079013667542794e+00 6.4424936887227311e+00 0 1 0
1178 1 8.5700061377742731e+00 3.7500224243827858e+00 4.7552120033709091e+00 0 1 1
161 1 8.7720232610912046e+00 2.3143050871164594e+00 7.6816362638491231e+00 0 0 0
524 1 1.0681831636482725e+01 2.6038790951921627e+00 5.9015344141464148e+00 0 1 0
654 1 8.9110995996284483e+00 1.4361679994114034e+00 1.0132674252743060e+01 0 1 0
1423 1 1.0436229357653191e+01 1.7830505686283488e-01 9.0338617906447887e+00 0 1 0
521 1 1.1206029594074083e+01 2.3891282772706126e+00 8.2213080079680303e+00 0 0 0
609 1 1.5231137258992174e+01 2.0564364052150456e+01 7.2700905777951252e+00 0 -1 0
477 1 1.2767970153080155e+01 3.9375353744905324e+00 7.0168257099476872e+00 0 0 0
497 1 1.2205021807152093e+01 2.1060819117414789e-01 7.2868889811693354e+00 0 0 0
63 1 1.5031468067357064e+01 3.0118860463225960e+00 7.0156866396334738e+00 0 0 0
793 1 1.3410486473876235e+01 1.8171321199755792e+00 5.6677030784861149e+00 -1 0 0
409 1 1.6694473344280219e+01 1.2478943277297714e+00 6.6005771590803413e+00 -1 1 0
378 1 1.8440812294727952e+01 3.7565064440228535e+00 6.1419884751148590e+00 0 0 0
428 1 2.0480930768815199e+01 2.0487103586591907e+01 7.3833718639958441e+00 0 0 0
306 1 2.0178243954193345e+01 2.2296441900981305e+00 5.7935955194820448e+00 0 0 0
624 1 1.7401361163009263e+01 2.9502866680365774e+00 8.3574895742675377e+00 0 0 0
581 1 1.9022002138206208e+01 1.2646045242942907e+00 7.3418909409058131e+00 -1 0 0
860 1 2.0388097593136880e+01 1.4201757711571311e-01 9.5901910871676233e+00 -1 1 0
384 1 1.9835275684119377e+01 3.3285084887675920e+00 8.2503676315515158e+00 0 0 0
304 1 6.9049506707250952e-01 6.7999643012065398e+00 8.5466463549193890e+00 0 0 0
35 1 3.2023164907011203e+00 5.2420008862906018e+00 8.6528699776004299e+00 0 0 0
516 1 5.0394406242383836e+00 7.1136514775169770e+00 8.5643668580041474e+00 0 0 0
310 1 2.5427307758990175e-01 4.2094371841112492e+00 7.0316730889762571e+00 1 0 0
1370 1 8.3531543462017339e+00 7.5507395674973248e+00 5.0823141493581829e+00 -1 1 0
351 1 4.7662755919137032e+00 5.5271275203561068e+00 6.3369636508094622e+00 0 0 0
28 1 6.7654094350439777e+00 8.5724241542785293e+00 6.9531761647276387e+00 0 0 0
349 1 9.0555911351571066e+00 8.6507504831171769e+00 7.9635523419121181e+00 0 0 0
332 1 5.7897160354444548e+00 7.3690118621693275e+00 5.1402396343891956e+00 0 0 0
551 1 7.8811589487299196e+00 5.6147834148198497e+00 6.2991210725446720e+00 1 0 0
296 1 1.1200317617068951e+01 4.7719880613712764e+00 5.5321091030416820e+00 -1 0 0
135 1 1.0018229636416267e+01 4.4947809212453667e+00 7.5645806237951607e+00 0 1 0
636 1 9.9209342234582856e+00 6.1337243182133525e+00 9.5081257267870765e+00 0 0 0
350 1 1.0134146479162176e+01 6.7400393953118360e+00 7.0170390543822947e+00 0 0 0
371 1 1.1940875163609398e+01 5.6673219677429794e+00 7.9485559861231216e+00 0 0 0
443 1 1.3399072957134983e+01 4.0431274505235741e+00 9.4435476816753603e+00 0 0 0
713 1 1.1190151616226414e+01 8.4459698833186643e+00 8.9940133675526504e+00 0 0 0
838 1 1.4463373700250701e+01 5.2750281212926513e+00 7.3499420395967778e+00 0 0 0
184 1 1.5388880973518670e+01 7.4246893886460414e+00 7.8188089069034667e+00 0 0 0
528 1 1.3331210502655816e+01 7.6840357929485821e+00 8.6932114543094166e+00 0 0 0
353 1 1.6913568218602322e+01 5.4754321834093407e+00 7.3041198238155296e+00 0 0 0
485 1 1.7000786672208729e+01 7.6771863112580512e+00 6.2247233603707208e+00 -1 0 0
375 1 1.8207562111071784e+01 5.8972671800607532e+00 5.0898974583496193e+00 0 0 0
549 1 1.7508677981732973e+01 7.4735328199089430e+00 9.2124672027346435e+00 0 0 0
478 1 1.9522827887667294e+01 8.3065057669351337e+00 7.5042517924896881e+00 0 0 0
672 1 1.9112365392128222e+01 5.7548757136123729e+00 8.6327547134448075e+00 0 0 0
260 1 1.9916955459398210e+01 7.6505655759059739e+00 9.6266697552584457e+00 -1 0 0
586 1 4.0723667846805780e+00 8.0834091799967371e+00 6.6679502232877699e+00 0 0 0
436 1 2.3361200363053656e+00 8.6643159628935393e+00 8.8292265344927294e+00 0 0 0
509 1 1.8294949333457473e+00 9.8406200432536224e+00 6.9063916181604359e+00 0 0 0
416 1 4.4374733721756388e-01 7.8178105744859225e+00 6.2934567560620973e+00 0 1 0
592 1 1.7871539290313973e-01 1.1828194367730855e+01 9.4913984275049543e+00 1 -1 0
632 1 2.0109161346405813e-01 9.4205568845486152e+00 9.3279935203584365e+00 0 0 0
561 1 2.1216185906670223e+01 9.9109472423598319e+00 5.2932309559129536e+00 -1 0 0
264 1 2.8677476728582159e+00 1.1109923074568220e+01 8.5365700854136080e+00 1 0 0
536 1 5.0178841974462864e+00 9.8088552605011756e+00 7.9332889089991614e+00 0 0 0
462 1 3.3629447706756199e+00 1.1228939138318653e+01 6.2438651268505740e+00 0 0 0
517 1 5.8867771625886780e+00 1.1458333915900882e+01 9.5802158744941295e+00 0 0 0
245 1 5.4285407958044036e+00 9.8220822680161817e+00 5.1502121767582922e+00 0 0 0
420 1 7.8371024861427356e+00 1.0838831860156295e+01 8.4025644720101766e+00 0 0 0
445 1 5.9570965872955339e+00 1.1789692761712406e+01 6.4202358566816038e+00 0 -1 0