LAMMPS data file via write_data, version 19 Mar 2020, timestep = 100000

1728 atoms
1 atom types

0.0000000000000000e+00 2.1263999999999999e+01 xlo xhi
0.0000000000000000e+00 2.1263999999999999e+01 ylo yhi
-1.8991412375641090e+00 4.4427141237562694e+01 zlo zhi

Masses

1 58.933

Atoms # atomic

8 1 3.6618069285418477e+00 1.8539222370578057e+00 -2.9080609473043939e-01 0 0 0
27 1 1.7015841536579024e+00 3.7984467321563273e+00 -4.3503063461823155e-01 0 0 0
3 1 1.9326835840612240e+00 1.1017418270448331e-02 -3.7639463061274103e-01 0 0 0
173 1 3.6749149267448695e+00 3.2614447600023122e+00 1.8527204080670496e+00 0 0 0
81 1 6.8493314470504600e+00 1.0735865543951576e+01 -1.6224104771693491e+00 0 0 0
12 1 7.0532789205563748e+00 1.7097643180721629e+00 2.1047034403312281e-01 0 0 0
31 1 5.4889293831066146e+00 3.8651790609415135e+00 -1.6381185944912602e-01 0 0 0
962 1 2.6369675242506161e+00 1.5919038266727661e+01 2.1106323723959200e+01 0 0 0
7 1 5.6746334531045042e+00 2.1254669369242134e+01 -4.7472951800610885e-01 0 -1 0
35 1 8.6837926705407860e+00 3.3897788017924269e+00 2.4461000604528760e-01 0 0 0
16 1 1.0643289432366734e+01 1.9844583357776853e+00 -2.4833643046821341e-01 0 0 0
39 1 1.2021730068850763e+01 4.2152175685576578e+00 -2.3531561581077431e-01 0 0 0
181 1 1.0541180576281151e+01 3.5860499527245882e+00 1.8334368701236330e+00 0 0 0
15 1 1.2052960691620243e+01 2.1218746552406110e+01 -3.5716248299318676e-01 0 -1 0
844 1 5.2473263621808475e-01 1.9491080458196343e+01 1.9637852584917326e+01 0 0 0
863 1 1.9633135076805335e+01 1.8348582631142158e+01 1.9477779645762510e+01 0 0 0
74 1 1.7539182362744563e+00 1.2031942225961584e+01 -1.6621240893593727e+00 0 0 0
20 1 1.3559940932317334e+01 2.0267816693158869e+00 -3.6950459006048741e-01 0 0 0
43 1 1.5925720111310515e+01 3.5746790230258356e+00 -1.5002426178110451e-01 0 0 0
19 1 1.5840487859027609e+01 4.7485590368115560e-01 -4.5405623942833739e-01 0 0 0
185 1 1.3548369316746104e+01 3.5530841442520114e+00 1.9639501247180653e+00 0 0 0
870 1 5.4374795738202018e+00 2.3785885332245909e+00 2.1124810792697783e+01 0 0 0
4 1 1.2782091230199713e-01 1.9206492075676902e+00 -2.8565030398838664e-01 0 0 0
24 1 1.7844141514944727e+01 2.0182146485218215e+00 -3.1417979938162599e-01 0 0 0
47 1 1.9727559711648688e+01 3.3567180340391971e+00 -1.7729991262858635e-01 0 0 0
23 1 1.9580676710887335e+01 2.1098604169194356e+01 -9.8125863656825185e-02 0 -1 0
166 1 1.9833280928734784e+01 1.6350040559133736e+00 1.9349956744293357e+00 0 0 0
169 1 1.4419129528553462e-01 3.0980961445380433e+00 1.8566331037634227e+00 0 0 0
189 1 1.7962013236450783e+01 3.5316448099831645e+00 1.2638739062808955e+00 0 0 0
77 1 3.7941754418778082e+00 1.0653713493857085e+01 -1.6287099597122823e+00 0 0 0
51 1 2.0287494423210806e+00 7.0591324776105147e+00 4.4057851125514036e-01 0 0 0
170 1 1.9747395552118294e+00 4.7048810724559704e+00 1.8692921916645537e+00 0 0 0
32 1 3.8106918900623725e+00 5.1109144487174145e+00 -2.1115591933660527e-02 0 0 0
28 1 4.3847322576761556e-02 5.0354702076586451e+00 4.8617155223052411e-01 0 0 0
193 1 3.7429164911791302e-01 6.7954271260447427e+00 2.1773989603739299e+00 0 0 0
913 1 2.0857049868863509e+01 7.1777240693528412e+00 2.1053935773228492e+01 -1 0 0
66 1 1.6117467978733746e+01 8.6425411538201988e+00 -1.6067967680926105e+00 0 0 0
36 1 7.5052319042646278e+00 5.3316535617988849e+00 3.7073948521297861e-02 0 0 0
55 1 5.4505243421283458e+00 6.6367146412083136e+00 1.5214874138679768e-01 0 0 0
864 1 1.7128891819613411e+01 1.9010202938059550e+01 1.9061169830440090e+01 0 0 0
59 1 8.8665788050085599e+00 7.6913645772805612e+00 3.9505880906328228e-02 0 0 0
40 1 1.0345676804815511e+01 5.8719441231633569e+00 -3.2682303621946751e-01 0 0 0
63 1 1.2727473515477447e+01 7.3594105278221793e+00 2.1947868980344687e-01 0 0 0
182 1 1.2148373741554535e+01 5.7785563805533906e+00 1.7159432442102176e+00 0 0 0
178 1 8.8186245725678862e+00 5.4403468849455061e+00 1.8192822215277347e+00 0 0 0
205 1 1.0455858047387949e+01 7.2487811028207263e+00 2.0967351495385116e+00 0 0 0
102 1 5.2601159583576074e+00 1.5371725136037481e+01 -1.7758749839719672e+00 0 0 0
129 1 6.9390762918347182e+00 1.7640275953919407e+01 -1.5089900802069389e+00 0 0 0
44 1 1.4552792577773747e+01 5.2172129917736898e+00 -5.8375646413665772e-02 0 0 0
67 1 1.6033543884926850e+01 6.8764380291984581e+00 6.4150372007572010e-01 0 0 0
186 1 1.5878356288476670e+01 4.8178699593401157e+00 2.4149904696055451e+00 0 0 0
739 1 1.5674545378573081e+01 2.1061531425311635e+01 1.9314269031365107e+01 0 -1 0
858 1 1.5735894889000306e+01 1.9626141259915638e+01 1.7311146383520246e+01 0 0 0
48 1 1.8272674026550856e+01 5.6545238402222653e+00 1.3198017029097642e-01 0 0 0
71 1 2.0248775207331860e+01 7.0642474205485088e+00 -1.2482149086477201e-01 0 0 0
860 1 1.3472983362003959e+01 1.9566823138343150e+01 1.9744901511908061e+01 0 0 0
213 1 1.7603186718746731e+01 6.5408092362275996e+00 2.2372213538982226e+00 0 0 0
214 1 1.9858053950525981e+01 8.1273137356827974e+00 1.9040610971676579e+00 0 0 0
56 1 4.1186644587712165e+00 8.7032987521535823e+00 3.6879324646482026e-01 0 0 0
75 1 1.6112754313203490e+00 1.0324334464838818e+01 3.0838180596203246e-01 0 0 0
76 1 1.1664755381109029e-01 1.2406030439534813e+01 -5.8886130067406617e-02 0 0 0
80 1 3.2212341853329858e+00 1.2377069068780159e+01 4.5427108164170793e-01 0 0 0
194 1 2.4758338956813204e+00 8.6458874183562315e+00 2.3131824005908435e+00 0 0 0
221 1 3.6590791578113508e+00 1.0757959507087921e+01 2.0320728306776119e+00 0 0 0
859 1 1.5166352041342984e+01 1.7702477636016440e+01 1.9415866324427721e+01 0 0 0
855 1 1.1576521627029750e+01 1.7823457584449034e+01 1.9496295291205914e+01 0 0 0
10 1 8.8087333558766083e+00 1.8808703721374334e+00 -1.7024494662081762e+00 0 0 0
60 1 6.7206207030996659e+00 8.9123827487910745e+00 6.8638354982091787e-01 0 0 0
79 1 5.3658913153890202e+00 1.1184560902838028e+01 1.6909896934675128e-01 0 0 0
83 1 9.1883216158457017e+00 1.0741412621541388e+01 -1.6614452529853607e-01 0 0 0
226 1 9.0974069948773479e+00 1.2719652732662047e+01 1.9105290389128151e+00 0 0 0
851 1 8.4174238155904053e+00 1.7806712223708658e+01 1.9251345544750581e+01 0 0 0
84 1 7.3294258346913219e+00 1.2461124411544601e+01 1.6554815097309783e-01 0 0 0
222 1 5.0963826731981063e+00 1.2471030549530731e+01 2.1561996348051142e+00 0 0 0
731 1 8.6895666828454718e+00 6.1075075257689482e-01 1.9695843166025902e+01 0 0 0
65 1 1.4248556764342043e+01 7.0462275877168663e+00 -1.7606116584955156e+00 0 0 0
64 1 1.0689622074310552e+01 8.8489225267261862e+00 2.2939084701876045e-01 0 0 0
87 1 1.2431646339743400e+01 1.0379728097618955e+01 -5.7613828342701900e-02 0 0 0
206 1 1.2646402065947992e+01 8.9429385254151939e+00 1.9560994980088204e+00 0 0 0
88 1 1.0971955215886942e+01 1.2228567307698862e+01 1.3418785335240102e-02 0 0 0
735 1 1.0257055126381230e+01 1.9889050324870134e+01 1.9815102069951454e+01 0 -1 0
68 1 1.4295477894205900e+01 9.0225996663101302e+00 3.8537718731239456e-02 0 0 0
91 1 1.6253922273109701e+01 1.0767948957683654e+01 -1.4986622736894617e-01 0 0 0
92 1 1.4410056070156305e+01 1.2272532666214834e+01 -1.7513868313805725e-01 0 0 0
234 1 1.6676138203622831e+01 1.2310618412690230e+01 2.0562576372221089e+00 0 0 0
2 1 2.1518292588357406e+00 1.8784353797119384e+00 -1.8685904467944361e+00 0 0 0
856 1 1.1374232129527609e+01 1.9260034081729735e+01 1.7499011671146974e+01 0 0 0
52 1 2.1162338950348602e+01 8.9536070997516557e+00 1.1875258598772698e-02 -1 0 0
72 1 1.7965840157271600e+01 8.2673517535333563e+00 2.0060098429796236e-01 0 0 0
95 1 1.9477404570232970e+01 1.0390184605381336e+01 3.1217097294555263e-01 0 0 0
96 1 1.8040954433029281e+01 1.2191367825561819e+01 -3.1271214784938195e-01 0 0 0
237 1 1.8030066015361637e+01 1.0718613937789836e+01 1.8870039783749735e+00 0 0 0
853 1 9.8972718575594030e+00 1.7383222390701047e+01 1.7326853158789550e+01 0 0 0
99 1 1.6277498100835850e+00 1.4103312330789505e+01 -1.3200762718864834e-02 0 0 0
104 1 3.4936176205328686e+00 1.5913776376864982e+01 8.7658772827948983e-02 0 0 0
100 1 2.0855667167159933e+01 1.6335370944093924e+01 -1.7278682006468027e-01 -1 0 0
894 1 4.8971181855261259e+00 5.3835423449849111e+00 2.0470747621667719e+01 0 0 0
57 1 7.0899494467887267e+00 7.6684330163532186e+00 -1.6616127703051911e+00 0 0 0
727 1 5.2549749309923781e+00 8.2581874338134831e-01 1.9217046374161640e+01 0 0 0
103 1 5.1962122546086320e+00 1.4123021000009990e+01 1.7438565422586416e-01 0 0 0
108 1 7.1418201108937192e+00 1.5728997921724757e+01 1.4658244151018973e-01 0 0 0
249 1 7.1305592447609181e+00 1.4195143654059651e+01 2.0279328990305214e+00 0 0 0
107 1 9.3156292546665398e+00 1.4186499066572223e+01 -1.3342589692899809e-02 0 0 0
112 1 1.0823892192536622e+01 1.6325995804381510e+01 -3.1688036647898432e-02 0 0 0
111 1 1.2177457004168762e+01 1.4208462858294613e+01 -1.4004184802563757e-01 0 0 0
250 1 9.0709383130374786e+00 1.5583790790388326e+01 1.8758228180353202e+00 0 0 0
253 1 1.0958863717792099e+01 1.4490041173380785e+01 1.9911125887808643e+00 0 0 0
115 1 1.6269108596316666e+01 1.3738467599321098e+01 2.3798131957645019e-02 0 0 0
116 1 1.4476685713828280e+01 1.5770202998801942e+01 1.6669879055195258e-01 0 0 0
258 1 1.6177669996614185e+01 1.6095969305745502e+01 2.0759059089855905e+00 0 0 0
257 1 1.4914025164286542e+01 1.3870339595008218e+01 2.0669033633663383e+00 0 0 0
281 1 1.4357468844617516e+01 1.7751676202321779e+01 1.9776297541481958e+00 0 0 0
120 1 1.7544711081046035e+01 1.5890880122155169e+01 -1.2315832707677110e-02 0 0 0
119 1 1.9229172366829783e+01 1.4305384592633793e+01 -8.5131270373440149e-02 0 0 0
1005 1 1.7832386280470342e+01 1.8015186493036509e+01 2.1041082143768033e+01 0 0 0
873 1 6.9135547173380543e+00 2.2843233927759793e-01 2.1149922825878399e+01 0 0 0
123 1 2.0594724209357715e+00 1.7706981515522315e+01 -1.3316277217681605e-01 0 0 0
128 1 3.7901102696167581e+00 1.9362104868591842e+01 -7.2979209664942202e-02 0 0 0
127 1 5.4798729926303702e+00 1.7413533876244912e+01 3.4921982238196314e-01 0 0 0
132 1 7.0859276927677479e+00 1.9430583843009646e+01 -1.0118409823086760e-01 0 0 0
273 1 7.0051006482128342e+00 1.7460938166139751e+01 2.3478695681029977e+00 0 0 0
847 1 5.9323124815481290e+00 1.7388432640099811e+01 1.9385153502192324e+01 0 0 0
131 1 8.7097798892976765e+00 1.7642008635849287e+01 -4.7323970489866030e-02 0 0 0
157 1 1.0491572096286834e+01 2.1013474790104240e+01 1.2700390258642202e+00 0 -1 0
11 1 8.8097880334987657e+00 2.0981342153661515e+01 -1.6629942565919853e-01 0 -1 0
136 1 1.0498582708671270e+01 1.9268352614847931e+01 -1.2786806262079020e-01 0 0 0
135 1 1.2608124892151894e+01 1.7864620524601293e+01 4.3444636104591039e-02 0 0 0
274 1 8.4899907285459708e+00 1.9407139968142054e+01 1.9016582016455859e+00 0 0 0
277 1 1.0275780812588986e+01 1.7574853810198558e+01 1.9920537724140766e+00 0 0 0
90 1 1.5957460847166050e+01 1.2274214212423097e+01 -1.7314483787388466e+00 0 0 0
50 1 2.3839871448651593e+00 8.2547022019715204e+00 -1.4369866511357454e+00 0 0 0
886 1 1.9353804933058278e+01 7.9553115887664572e-01 2.1146851272789331e+01 0 0 0
139 1 1.5769022299290468e+01 1.7831072198185989e+01 -1.2918371972214904e-01 0 0 0
140 1 1.3994032178123954e+01 1.9473055223302062e+01 1.8208607925811604e-01 0 0 0
278 1 1.2161035909572274e+01 1.9054081916117283e+01 1.8475408530145829e+00 0 0 0
893 1 3.3278596991355767e+00 3.6184973864832837e+00 2.1031006862841494e+01 0 0 0
106 1 9.0852140438359630e+00 1.5950030699057136e+01 -1.7826581422423722e+00 0 0 0
124 1 2.1180976295863424e+01 1.9654888791572578e+01 -4.4737509014470400e-01 -1 0 0
143 1 1.9217693318473280e+01 1.8136342014636256e+01 -1.1970037268153089e-01 0 0 0
144 1 1.7439710816248123e+01 1.9761637882239377e+01 -1.5721460262434417e-01 0 0 0
846 1 6.1779245381606014e+00 1.9844062220192072e+01 1.6675492172295240e+01 0 0 0
914 1 1.4035024113897749e+00 8.7827399152057986e+00 2.0656421421100454e+01 0 0 0
922 1 8.6256450999435703e+00 8.6605268807058930e+00 2.1002063410387912e+01 0 0 0
146 1 2.1495737798044834e+00 1.3247405110360260e+00 1.8418666307520777e+00 0 0 0
149 1 4.2363672613013925e+00 1.2767180644281806e-01 1.6524895050117863e+00 0 0 0
171 1 2.0431910048760895e+00 3.1643683185361771e+00 3.4920534739244626e+00 0 0 0
152 1 4.1482736483401350e+00 2.1325269397140887e+00 3.9496489943676476e+00 0 0 0
317 1 3.9889195343235579e+00 3.5959135113918701e+00 5.9143281818963613e+00 0 0 0
290 1 2.0020532450271986e+00 2.0717612687747762e+00 5.6454754162859633e+00 0 0 0
150 1 5.6767262358005564e+00 1.9956095958247120e+00 1.9060206637770731e+00 0 0 0
177 1 7.0199513478200508e+00 3.9752780575890387e+00 2.0542328699393928e+00 0 0 0
156 1 7.5181712730967041e+00 1.8699170018698876e+00 3.9451462614366850e+00 0 0 0
175 1 5.9182320609851669e+00 3.7946549694983611e+00 4.3534838791343260e+00 0 0 0
294 1 5.5062659677587176e+00 2.0676978969789808e+00 6.2575012289368299e+00 0 0 0
297 1 7.0830970389872014e+00 2.1160725635931101e+01 5.9263546208300610e+00 0 -1 0
158 1 1.2001302448852714e+01 1.8359195151100762e+00 1.7342354355391110e+00 0 0 0
154 1 8.7586174026568333e+00 1.5786117697935140e+00 2.0720547900515358e+00 0 0 0
160 1 1.0429007747149896e+01 1.9244685559799353e+00 3.9490021402851605e+00 0 0 0
179 1 8.9400742215536884e+00 3.9643284520649607e+00 3.8244113898416314e+00 0 0 0
183 1 1.2101622482608160e+01 3.7188480522322935e+00 4.2016361320344355e+00 0 0 0
302 1 1.2024211034761963e+01 1.6947462188607916e+00 5.5716519743174064e+00 0 0 0
301 1 1.0460009222185896e+01 2.0920376301309858e+01 5.6243101745528898e+00 0 -1 0
298 1 8.9768446496801335e+00 1.3791886696654392e+00 5.9011818357237757e+00 0 0 0
162 1 1.6021320062399056e+01 1.6156391285947354e+00 1.5411455656175836e+00 0 0 0
164 1 1.3690337048923331e+01 1.7989401946783328e+00 3.9461855571980866e+00 0 0 0
187 1 1.6023653853787671e+01 2.9613520981839070e+00 3.8539967993756434e+00 0 0 0
163 1 1.6042877863885622e+01 3.6356757940286799e-01 3.9784056779250836e+00 0 0 0
329 1 1.3931735427177621e+01 3.4512535950870178e+00 5.5341992572507053e+00 0 0 0
306 1 1.6008682896372889e+01 1.5651946739924478e+00 6.1438684106275403e+00 0 0 0
305 1 1.4223741371306433e+01 2.8787941482674762e-02 5.1319775274126087e+00 0 0 0
165 1 1.8250882496100818e+01 1.2378212850544325e-01 1.8724733095030786e+00 0 0 0
148 1 2.9155085976902101e-01 1.5583641760791542e+00 3.5578370984269627e+00 0 0 0
168 1 1.8343679678921365e+01 1.3747597097556841e+00 3.8220337869012617e+00 0 0 0
191 1 1.9480035945084673e+01 3.1160738428546328e+00 3.8049945982399684e+00 0 0 0
310 1 1.9728175607965053e+01 1.5692419100772232e+00 5.6833014468856442e+00 0 0 0
309 1 1.7740579482094219e+01 2.1196250428092043e+01 5.5597842224802232e+00 0 -1 0
333 1 1.7671688366473141e+01 3.1367951074713170e+00 5.8296332020230723e+00 0 0 0
197 1 3.4782544162968856e+00 6.5141608762509868e+00 2.0875531554071940e+00 0 0 0
176 1 3.9539645669041508e+00 4.9509934458378932e+00 3.9189249078747022e+00 0 0 0
195 1 1.8748787095398696e+00 6.4515051623864599e+00 3.9422488336353423e+00 0 0 0
314 1 1.8579347061149807e+00 4.9346973554057598e+00 5.7258487795134139e+00 0 0 0
201 1 7.1614470670820651e+00 6.9795755096777752e+00 1.9495837271476497e+00 0 0 0
174 1 5.2975828731085945e+00 5.1048070475282801e+00 2.0082080724190186e+00 0 0 0
180 1 7.1364108496301437e+00 5.6607339621893926e+00 4.4218720081962886e+00 0 0 0
199 1 5.3734947001249438e+00 6.6921783152951875e+00 3.7661170972819633e+00 0 0 0
203 1 8.5607477706186828e+00 7.4199532151215175e+00 3.8500372393580955e+00 0 0 0
184 1 1.0896902858359237e+01 5.5313035460830990e+00 3.7492248283151861e+00 0 0 0
207 1 1.2445901515675057e+01 7.3914534942106496e+00 4.0238185256867540e+00 0 0 0
326 1 1.1658741954921396e+01 5.6050709399178977e+00 6.0463458643084875e+00 0 0 0
322 1 8.9328358897101108e+00 5.8171694086349106e+00 5.6484729186262124e+00 0 0 0
209 1 1.4357746945666182e+01 6.3803126370520671e+00 1.8566439871248082e+00 0 0 0
188 1 1.4136003199658836e+01 5.5918339835772368e+00 3.9021373756016020e+00 0 0 0
211 1 1.6160155739567607e+01 6.8603185277658616e+00 3.9414177952532663e+00 0 0 0
330 1 1.5784450222187347e+01 4.8397084161182793e+00 5.7356941479572630e+00 0 0 0
190 1 1.9528594903794481e+01 5.3919487086153897e+00 2.1585431894423524e+00 0 0 0
172 1 3.2040998009691346e-01 4.8807255361217168e+00 3.7058461391376865e+00 0 0 0
196 1 2.1171892380173833e+01 8.2489221847466485e+00 3.9187394328814653e+00 -1 0 0
192 1 1.7690683742796772e+01 4.8120903442211036e+00 3.8630906906160565e+00 0 0 0
215 1 1.9312866539151290e+01 6.5169608261581029e+00 4.1521223857026133e+00 0 0 0
357 1 1.7569010649572753e+01 6.5989559207929149e+00 5.9431984742664277e+00 0 0 0
218 1 1.4718342795872073e+00 1.1935204502164845e+01 1.8360218457690074e+00 0 0 0
200 1 3.3437609804781947e+00 8.7160383343965115e+00 4.6037558456301717e+00 0 0 0
219 1 1.0991057142194787e+00 1.0094230443354231e+01 3.7146346343669130e+00 0 0 0
220 1 2.7877117132239676e-01 1.2777185919516535e+01 3.7553626145677912e+00 0 0 0
361 1 2.0904863863127549e+01 1.0266786935895672e+01 6.0607101082822759e+00 -1 0 0
224 1 2.8951415485843581e+00 1.2279909810727411e+01 3.9352441020850142e+00 0 0 0
338 1 1.6182146022666357e+00 8.3254754334003156e+00 6.1871506867705364e+00 0 0 0
365 1 3.3037411472870324e+00 1.0298394182614647e+01 6.3323184910387926e+00 0 0 0
198 1 4.8618582499763949e+00 8.7794359589387252e+00 2.6543779062300672e+00 0 0 0
225 1 7.5014144484398528e+00 1.0984408930515807e+01 2.0684024183254772e+00 0 0 0
204 1 7.0059050747871545e+00 9.2574107377750945e+00 4.0671217289194459e+00 0 0 0
223 1 4.8529102816760306e+00 1.1123204486953982e+01 4.1189821957599380e+00 0 0 0
227 1 8.9066301182738208e+00 1.1012707088266472e+01 3.7052760567781888e+00 0 0 0
229 1 1.0680898997766747e+01 1.0600051831406130e+01 1.6376919275927793e+00 0 0 0
230 1 1.2523228503502629e+01 1.2507134842083959e+01 1.8960640643354192e+00 0 0 0
202 1 8.8467240290760234e+00 9.1582581831489360e+00 1.9588773648528570e+00 0 0 0
208 1 1.0612129346317625e+01 9.0818212504011306e+00 3.5941084911899166e+00 0 0 0
231 1 1.2330085437223678e+01 1.0678128345553636e+01 3.6568935774573772e+00 0 0 0
232 1 1.0961445047049873e+01 1.2626709811976658e+01 3.5250251236287360e+00 0 0 0
210 1 1.6190854252351524e+01 8.8511655585632205e+00 1.9470249533925594e+00 0 0 0
233 1 1.4744991605926959e+01 1.0468023096625696e+01 2.0052210311840160e+00 0 0 0
212 1 1.4473943898089697e+01 8.8498310297365279e+00 3.6359831485655540e+00 0 0 0
235 1 1.6606904871849107e+01 1.0339007072680021e+01 3.6356533720426336e+00 0 0 0
236 1 1.4978465062201904e+01 1.2209276371729276e+01 3.7941509200223162e+00 0 0 0
378 1 1.6471113588398559e+01 1.2705623439878321e+01 5.7351714298699825e+00 0 0 0
217 1 2.0959443741997241e+01 1.0261727302058084e+01 1.8626460625874861e+00 -1 0 0
238 1 1.9676812378116949e+01 1.2422269164466170e+01 1.8218485877570365e+00 0 0 0
216 1 1.8009734242334996e+01 8.2687754514194136e+00 3.4661319531471193e+00 0 0 0
239 1 1.9956814777456930e+01 1.0783131964798056e+01 4.0028400772217694e+00 0 0 0
240 1 1.8270747617073873e+01 1.2342244614539091e+01 3.9397325812495865e+00 0 0 0
381 1 1.8029378329876476e+01 1.0714548307949240e+01 5.7529819691133017e+00 0 0 0
358 1 1.9315200014616501e+01 8.6707964910861630e+00 5.5308728539504335e+00 0 0 0
242 1 1.4516487251849113e+00 1.5876600740632064e+01 1.5143982645864531e+00 0 0 0
241 1 2.1149596621769330e+01 1.4134219837211514e+01 1.8028426240296591e+00 -1 0 0
245 1 3.4554087517240610e+00 1.4320024385430074e+01 1.7063840953944083e+00 0 0 0
243 1 1.6806616152423777e+00 1.4478491286139390e+01 3.5318310287838344e+00 0 0 0
248 1 3.4646836289067706e+00 1.5926465641659222e+01 3.6345764939961116e+00 0 0 0
228 1 7.0915376827643497e+00 1.2521314377004614e+01 3.8242189809253979e+00 0 0 0
246 1 5.4657582825156377e+00 1.5937724936730849e+01 2.2212758813222360e+00 0 0 0
247 1 4.9402426991585342e+00 1.3865040227659032e+01 3.8935646030504083e+00 0 0 0
252 1 6.6185991219252669e+00 1.5245200673864696e+01 4.4467567142155540e+00 0 0 0
251 1 8.5273098167508738e+00 1.4221740260124056e+01 3.8321129053116332e+00 0 0 0
393 1 6.4905486834160797e+00 1.3670654446496712e+01 6.2122950452760897e+00 0 0 0
370 1 8.6385118544310764e+00 1.2129115016318105e+01 6.0958054000704838e+00 0 0 0
254 1 1.3081836853360095e+01 1.5878282627454643e+01 1.8897344530802140e+00 0 0 0
256 1 1.0688086566514375e+01 1.5438831719633875e+01 4.3205983861410777e+00 0 0 0
255 1 1.3001344133975522e+01 1.4243239129819395e+01 3.8862622660647652e+00 0 0 0
394 1 8.5211012036293159e+00 1.5285046712749386e+01 6.0003306225190061e+00 0 0 0
398 1 1.2521574775304630e+01 1.5184877531391683e+01 6.1819876556947921e+00 0 0 0
259 1 1.6542648685614292e+01 1.4226541010257661e+01 3.8443759253056315e+00 0 0 0
260 1 1.4708501756410648e+01 1.5592453852799236e+01 4.1747956108629287e+00 0 0 0
283 1 1.6071897634180907e+01 1.7576645024295416e+01 4.0508615892855442e+00 0 0 0
262 1 1.9279617115795883e+01 1.6417074175355832e+01 1.5584499908865954e+00 0 0 0
244 1 2.1249685166708122e+01 1.6626480970711153e+01 3.3029905784312872e+00 -1 0 0
261 1 1.8180449575537295e+01 1.4423224460924597e+01 1.7138182841895233e+00 0 0 0
263 1 1.9960308956668783e+01 1.4368810621790939e+01 3.8784231708726171e+00 0 0 0
264 1 1.7898703555633180e+01 1.6279003472273427e+01 3.6767407842187847e+00 0 0 0
266 1 2.3358596196167847e+00 2.0002304678755891e+01 1.9957387774860740e+00 0 0 0
147 1 2.4465861854008901e+00 4.0468332850054922e-01 3.8089263749633648e+00 0 0 0
269 1 3.5839675227213017e+00 1.7641320981960114e+01 1.9984823412529269e+00 0 0 0
267 1 1.9189632846153588e+00 1.7936916978686881e+01 3.4580180099295141e+00 0 0 0
272 1 3.6500380823825407e+00 1.9322689897918988e+01 3.9434608800823217e+00 0 0 0
293 1 3.6141063612214475e+00 3.4069602425788309e-01 5.9390745257488406e+00 0 0 0
270 1 5.2913213335691562e+00 1.9175667321783752e+01 1.7688556703872043e+00 0 0 0
153 1 6.9053983908680951e+00 2.1215907862935886e+01 2.1236949606148459e+00 0 -1 0
151 1 5.4854910868666318e+00 4.2073356150402558e-02 4.2944310621403368e+00 0 0 0
271 1 5.3122667745129917e+00 1.7834116646473788e+01 4.0612466649205849e+00 0 0 0
276 1 6.8259218962922361e+00 1.9482424267363761e+01 3.8426865674215449e+00 0 0 0
414 1 5.2520290016043027e+00 1.9395515027715071e+01 5.9499551472036787e+00 0 0 0
155 1 8.8997150756941483e+00 2.1022947934183147e+01 4.0427527239133090e+00 0 -1 0
275 1 8.6031077339878763e+00 1.6869182437787874e+01 4.1888160035777560e+00 0 0 0
280 1 1.0616318656258438e+01 1.9030847486999384e+01 3.8183043686799163e+00 0 0 0
279 1 1.2039979931627084e+01 1.7090413522397952e+01 3.6261494887190109e+00 0 0 0
159 1 1.2037008302401899e+01 2.1076544810890194e+01 3.4122721922431447e+00 0 -1 0
421 1 1.0592599654530638e+01 1.7203246877380117e+01 5.8152416173002237e+00 0 0 0
422 1 1.2759192805063734e+01 1.9308420855507968e+01 5.7185795794061409e+00 0 0 0
418 1 8.8563528155287230e+00 1.9079562719532227e+01 5.2549960474978059e+00 0 0 0
282 1 1.6107895096540695e+01 1.9918695738959510e+01 1.8851865036350866e+00 0 0 0
161 1 1.3946965905726053e+01 1.9344977415995851e-01 1.5726254133732396e+00 0 0 0
284 1 1.4170299255249217e+01 1.8925286441130979e+01 3.7991197756941091e+00 0 0 0
426 1 1.5679531916273055e+01 1.9812195204144722e+01 5.7601088833774563e+00 0 0 0
288 1 1.7402348680118873e+01 1.9696741658589588e+01 3.5835580134257254e+00 0 0 0
265 1 9.4619924221839305e-02 1.8082330940402095e+01 1.3240270032573980e+00 0 0 0
286 1 1.9510956650223566e+01 1.9377257578288887e+01 2.0408470281670770e+00 0 0 0
145 1 1.7431707720598888e-01 2.0901872179009850e+01 1.5782265577527439e+00 0 -1 0
167 1 1.9648104510348858e+01 2.0741132416217809e+01 3.8477333389948472e+00 0 -1 0
285 1 1.7625197787856326e+01 1.8158017008450479e+01 1.8000907593233761e+00 0 0 0
287 1 1.9509372622026962e+01 1.8253511283770933e+01 3.7561651990064799e+00 0 0 0
268 1 4.2811288206525711e-01 1.9628596571098587e+01 3.4818779294843596e+00 0 0 0
315 1 1.8348591152360063e+00 3.1883718871089277e+00 7.7135954040524801e+00 0 0 0
296 1 3.5897675865713237e+00 2.0317867568875325e+00 7.6977114367732575e+00 0 0 0
291 1 1.6442300725282020e+00 2.1240684613226463e+01 7.5669130803978888e+00 0 -1 0
434 1 1.6248351092357347e+00 2.0407048767233342e+00 9.8471148543190345e+00 0 0 0
457 1 2.0842351900892503e+01 3.5322670811042514e+00 9.6985577028775296e+00 -1 0 0
461 1 3.6304374009333933e+00 3.5516851096860864e+00 9.5020596471990704e+00 0 0 0
321 1 7.7416522424425107e+00 3.6629055424949830e+00 6.1987181863891312e+00 0 0 0
300 1 7.3974014156527161e+00 1.5998990195302516e+00 7.8049013537923226e+00 0 0 0
319 1 5.7169608382554093e+00 3.7945357827647386e+00 7.8492480555428692e+00 0 0 0
465 1 7.1988431823734702e+00 3.9501164326364742e+00 9.5757916202479940e+00 0 0 0
325 1 1.0350740204234192e+01 3.5840800218352795e+00 5.7602791264793298e+00 0 0 0
323 1 9.6001077672109201e+00 2.9921542884046506e+00 7.6948248314254784e+00 0 0 0
304 1 1.1013001799708276e+01 1.1995603174240332e+00 7.5307265989887249e+00 0 0 0
327 1 1.1852803004920721e+01 3.7414864616583055e+00 7.5418351061449833e+00 0 0 0
446 1 1.1735595941284100e+01 2.2508610402421003e+00 9.7316480964647507e+00 0 0 0
469 1 1.0189618291516863e+01 4.0044942494725726e+00 9.8555895819899266e+00 0 0 0
308 1 1.3856160207175906e+01 2.2097894811526055e+00 7.8028797809478654e+00 0 0 0
331 1 1.5720642308276027e+01 3.3739253769835980e+00 7.8324619210841320e+00 0 0 0
450 1 1.5689307362626854e+01 1.7335156735736768e+00 9.6549014041579664e+00 0 0 0
313 1 1.0673525554071020e-01 3.1798345329432540e+00 5.8353304799772374e+00 0 0 0
312 1 1.7524421506391374e+01 9.2734259825851451e-01 7.5897295977455492e+00 0 0 0
292 1 2.1245676640844554e+01 1.6746818681332616e+00 8.0099641118637965e+00 -1 0 0
335 1 1.9215208250482071e+01 3.0845915654133256e+00 7.6929446448861114e+00 0 0 0
311 1 1.9586266026967362e+01 2.1202150064121025e+01 7.5162422819887098e+00 0 -1 0
477 1 1.7329193658103900e+01 3.4371508351214715e+00 9.3034765037555065e+00 0 0 0
341 1 3.4599674279361032e+00 6.7435970636864928e+00 5.7368244907204913e+00 0 0 0
320 1 3.3961285982497382e+00 5.3082238456106108e+00 7.7933815807115607e+00 0 0 0
339 1 1.1747444774749904e+00 6.2372771333298793e+00 7.6638554342684149e+00 0 0 0
485 1 3.1199964246341878e+00 6.5419486683766062e+00 9.4558939762971050e+00 0 0 0
340 1 2.1074369593584070e+01 8.3099807498600331e+00 7.4671663960319083e+00 -1 0 0
481 1 2.0655161798466239e+01 6.3253133027528845e+00 9.5183380365873287e+00 -1 0 0
345 1 7.2400507119364370e+00 7.4322168670748736e+00 6.3195171673715169e+00 0 0 0
318 1 5.6450154516954356e+00 5.5043115238781182e+00 5.9912167849926226e+00 0 0 0
324 1 7.9029997412808966e+00 5.4766798558842114e+00 7.9424777597375744e+00 0 0 0
343 1 5.1701257173455719e+00 6.6542335286129282e+00 7.9522126778302518e+00 0 0 0
489 1 6.7794194074403613e+00 7.3825238472030339e+00 9.7371823753705691e+00 0 0 0
349 1 1.0534824986960437e+01 7.5743379459506679e+00 5.8056145365827492e+00 0 0 0
347 1 8.8701323127210223e+00 7.7796099448558840e+00 7.7643008485772800e+00 0 0 0
328 1 1.0383763471817176e+01 6.1184646976059263e+00 7.7881401079227537e+00 0 0 0
351 1 1.2762232983403754e+01 7.3046482210828261e+00 7.7672177121240136e+00 0 0 0
466 1 8.6183987304416458e+00 6.1104364593736733e+00 1.0043001024013233e+01 0 0 0
353 1 1.4120320209264168e+01 6.9276542063760100e+00 5.9732458132749215e+00 0 0 0
332 1 1.4095924096241976e+01 4.9701770389339854e+00 7.3935647849183699e+00 0 0 0
355 1 1.5483890531235186e+01 6.8719573835035357e+00 7.7763867727151403e+00 0 0 0
334 1 1.9177677656752198e+01 4.7487595727369225e+00 5.6590995341682566e+00 0 0 0
337 1 2.1057559432620550e+01 6.1162764705632657e+00 5.5401523657864926e+00 -1 0 0
316 1 2.1025048752448797e+01 4.4284560057224063e+00 7.8253175522671885e+00 -1 0 0
336 1 1.7308168335742291e+01 5.0432966220133659e+00 7.6565596945024748e+00 0 0 0
359 1 1.9349044189340979e+01 6.5044925960480064e+00 7.4348987265894166e+00 0 0 0
360 1 1.7160009013692104e+01 8.5860883243029935e+00 7.9287228347402561e+00 0 0 0
362 1 1.4096204827074346e+00 1.1808741939699797e+01 5.8790401972258657e+00 0 0 0
344 1 3.2260123542726054e+00 8.2905071298637356e+00 7.8489322799237939e+00 0 0 0
363 1 1.3393506384425991e+00 1.0272761903001774e+01 7.7121175943957514e+00 0 0 0
368 1 2.8824071718879467e+00 1.2854440122916992e+01 7.9159671408028149e+00 0 0 0
506 1 1.2969390791676427e+00 1.2474587978709806e+01 9.8022115258385458e+00 0 0 0
342 1 5.1124631050176843e+00 8.4774101966414896e+00 5.7942834382850990e+00 0 0 0
369 1 6.4024757513268424e+00 1.0798056168593360e+01 6.0819894247710105e+00 0 0 0
366 1 4.3219668121695323e+00 1.2432296332191049e+01 6.0534473998549050e+00 0 0 0
486 1 4.7662472464463450e+00 8.7489431237945539e+00 1.0004373729739077e+01 0 0 0
348 1 6.5837729823422197e+00 9.0598904376842615e+00 7.7217161327790631e+00 0 0 0
367 1 5.0055127844659282e+00 1.0711519326726728e+01 7.8633748816304383e+00 0 0 0
490 1 8.4349906326882973e+00 9.2325903709727744e+00 9.8807917953827200e+00 0 0 0
513 1 6.2732181887967959e+00 1.0984178277227279e+01 9.8074955809267159e+00 0 0 0
350 1 1.3065319989388462e+01 8.8325159230692396e+00 5.6392899788488586e+00 0 0 0
374 1 1.2731095390111049e+01 1.2135215998445229e+01 5.6383545331303777e+00 0 0 0
346 1 8.4455985631421022e+00 9.3369073373046234e+00 5.8120877375190707e+00 0 0 0
371 1 8.6745979292921103e+00 1.0444191033101680e+01 7.7717590598293924e+00 0 0 0
373 1 1.0668983653945521e+01 1.0548853443559953e+01 5.5511259637120887e+00 0 0 0
352 1 1.1027253644476357e+01 9.2369229733147247e+00 7.6047974956346760e+00 0 0 0
375 1 1.2994263906282237e+01 1.0518107583940704e+01 7.4483208563067222e+00 0 0 0
517 1 1.0476278896385352e+01 1.0373320226541138e+01 9.8962057014547469e+00 0 0 0
376 1 1.0659296768879635e+01 1.1895371648250370e+01 7.8662259490663420e+00 0 0 0
377 1 1.4645466687645460e+01 1.0726521587860173e+01 5.3285040864732318e+00 0 0 0
354 1 1.6429927675417176e+01 8.5562339462061736e+00 5.7393167317035916e+00 0 0 0
356 1 1.4604700091998541e+01 9.0470687099594560e+00 7.6440409135570064e+00 0 0 0
379 1 1.6524520972848205e+01 1.0738273876961328e+01 7.6063170888530980e+00 0 0 0
522 1 1.6892848865960449e+01 1.2629747874427220e+01 9.5055823859062123e+00 0 0 0