LAMMPS data file via write_data, version 19 Mar 2020, timestep = 100000

1728 atoms
1 atom types

-9.3737213449028189e-02 2.1357737213449077e+01 xlo xhi
-9.3737213449028189e-02 2.1357737213449077e+01 ylo yhi
-1.8747442689805638e-01 4.2715474426898155e+01 zlo zhi

Masses

1 58.933

Atoms # atomic

864 1 1.7626982979025790e+01 1.9544443742343400e+01 1.9377229197703638e+01 0 0 0
863 1 1.9563867357908389e+01 1.7690769277767345e+01 1.9463079059718932e+01 0 0 0
3 1 1.6084018265729187e+00 -6.6358215922382571e-02 1.5099899222717788e+00 0 0 0
4 1 1.5660796962134599e-03 1.8778586468981899e+00 1.7265696484830424e+00 0 0 0
862 1 1.9508486197889287e+01 1.9619490495403298e+01 1.7787531254117326e+01 0 0 0
8 1 3.3623703947582064e+00 1.6709947128827221e+00 1.5485981322492186e+00 0 0 0
861 1 1.7835383715842319e+01 1.7749178667856068e+01 1.7624995886026124e+01 0 0 0
27 1 1.7153595070218997e+00 3.5294780639372858e+00 1.7446472318759905e+00 0 0 0
860 1 1.4110394934253542e+01 1.9607201013384469e+01 1.9522064660090116e+01 0 0 0
145 1 -5.1873560810007560e-02 -7.7216784070455652e-02 3.3871484307584612e+00 0 0 0
146 1 1.7911618475778750e+00 1.7425645339680622e+00 3.3551199805834653e+00 0 0 0
149 1 3.4203962922317452e+00 2.1307568055146614e+01 3.4544934516398293e+00 0 -1 0
169 1 -7.3022772844576686e-02 3.5569128113800383e+00 3.3471505537480013e+00 0 0 0
173 1 3.6135928384836973e+00 3.5131421332477633e+00 3.4443556147737873e+00 0 0 0
859 1 1.6018744764902888e+01 1.7604836439322245e+01 1.9477826278394975e+01 0 0 0
7 1 5.1580804881304152e+00 -1.9543751399131185e-02 1.5441691652678000e+00 0 0 0
9 1 7.0872130124696966e+00 -4.0622496249764689e-02 -1.8653068859826472e-01 0 0 0
12 1 7.0813349980354223e+00 1.5629589339797074e+00 1.5069410823697027e+00 0 0 0
31 1 5.1646762115949345e+00 3.4828547415164079e+00 1.4610471402807115e+00 0 0 0
858 1 1.5813976432627134e+01 1.9676776682752294e+01 1.7713908431019060e+01 0 0 0
150 1 5.2797737706723558e+00 1.6083581053481435e+00 3.1144922399056267e+00 0 0 0
153 1 7.0588259031257365e+00 -5.9847460030953994e-02 3.3833824524509510e+00 0 0 0
177 1 6.9552808064752307e+00 3.5302279082047119e+00 3.2893222935374675e+00 0 0 0
857 1 1.4152451569638746e+01 1.7849797725383780e+01 1.7747827709773450e+01 0 0 0
11 1 8.9116323839796685e+00 2.1283744272431967e+01 1.6948644373972157e+00 0 -1 0
13 1 1.0721100917688993e+01 2.1322740888648152e+01 -1.7315713400742877e-01 0 -1 0
14 1 1.2483261185573234e+01 1.6609745046434037e+00 -9.0164001027080942e-02 0 0 0
15 1 1.2370920100637200e+01 2.1140130939682997e+01 1.6747827732073501e+00 0 -1 0
16 1 1.0601966492780369e+01 1.6996049793663448e+00 1.4344855969498407e+00 0 0 0
35 1 8.7643650520471770e+00 3.3639833483698998e+00 1.6207301227283035e+00 0 0 0
37 1 1.0528967547769861e+01 3.4242051409821066e+00 -1.4330774323745310e-01 0 0 0
39 1 1.2375750121603945e+01 3.4115498950973455e+00 1.5177943002376868e+00 0 0 0
154 1 8.7169919761016157e+00 1.6265240831547696e+00 3.2879801342625741e+00 0 0 0
157 1 1.0416952248117225e+01 -8.4839468161114262e-02 3.4689088797448182e+00 0 0 0
158 1 1.2425702673503348e+01 1.6997783968854780e+00 3.2940597992045140e+00 0 0 0
181 1 1.0586561897576932e+01 3.3459997639439139e+00 3.4163442142143752e+00 0 0 0
17 1 1.4213736535265616e+01 2.1327280695792872e+01 3.1392100766825581e-02 0 -1 0
18 1 1.5986176854813124e+01 1.6827585131400347e+00 -5.9611865888437449e-02 0 0 0
19 1 1.6179396081043866e+01 -2.4288617016618635e-02 1.6692742743957205e+00 0 0 0
20 1 1.4310129232645313e+01 1.6757038550714489e+00 1.6437192146113708e+00 0 0 0
41 1 1.4245945806781638e+01 3.4705062189873366e+00 -1.3709842107129283e-01 0 0 0
43 1 1.6071363496205951e+01 3.5533773888091540e+00 1.4986361865096680e+00 0 0 0
161 1 1.4249770972219823e+01 2.1316918325396610e+01 3.2577253190700928e+00 0 -1 0
162 1 1.6216216663027446e+01 1.8303059243271742e+00 3.5277640785673503e+00 0 0 0
185 1 1.4159101919352132e+01 3.4721612647191216e+00 3.4316166055151931e+00 0 0 0
21 1 1.7899505555425328e+01 -2.0425479329499771e-02 -6.5486435536901880e-02 0 0 0
856 1 1.0510408604208186e+01 1.9493372807934303e+01 1.9465333400622743e+01 0 0 0
23 1 1.9619284133348827e+01 1.6549190638229100e-03 1.6440612206285659e+00 0 0 0
24 1 1.7892926578073446e+01 1.8384360349098978e+00 1.4488889757740493e+00 0 0 0
855 1 1.2250380904168255e+01 1.7809188662070717e+01 1.9450979041913239e+01 0 0 0
47 1 1.9670930109010406e+01 3.5162067853841501e+00 1.5717598766208400e+00 0 0 0
165 1 1.7884381554711897e+01 2.1317974162703628e+01 3.4622859872583436e+00 0 -1 0
166 1 1.9720876066463074e+01 1.7708607115986732e+00 3.5113032594522906e+00 0 0 0
189 1 1.8033352689390110e+01 3.4768287001455280e+00 3.3365118283412190e+00 0 0 0
854 1 1.2326106987453960e+01 1.9595808386794570e+01 1.7621824084594895e+01 0 0 0
28 1 2.1260371694976577e+01 5.3836982501936763e+00 1.4742301407651857e+00 -1 0 0
32 1 3.5744880173951423e+00 5.2109246053636662e+00 1.6579082209891920e+00 0 0 0
853 1 1.0497677195767046e+01 1.7635403515602256e+01 1.7546035647451212e+01 0 0 0
51 1 1.6158782940745104e+00 6.9672349849940920e+00 1.5756009648023859e+00 0 0 0
851 1 8.8500724684650507e+00 1.7872701473651404e+01 1.9474046940117621e+01 0 0 0
170 1 1.6478260107171521e+00 5.3969203457781569e+00 3.3964485607979897e+00 0 0 0
193 1 2.1319945224458156e+01 7.2311753228016800e+00 3.3768959611473068e+00 -1 0 0
197 1 3.5443295912927368e+00 7.0478833903249001e+00 3.4632434092643427e+00 0 0 0
30 1 5.4548884779652065e+00 5.2277494505291777e+00 -1.5107690235537388e-01 0 0 0
36 1 7.1090395756293230e+00 5.3019947096388060e+00 1.5553473043982182e+00 0 0 0
55 1 5.2954693787296581e+00 7.1241762960100763e+00 1.5070484230107297e+00 0 0 0
850 1 8.6703813076982890e+00 1.9564246154363193e+01 1.7497435524188393e+01 0 0 0
174 1 5.2759813918356393e+00 5.3364736026365520e+00 3.3507308178096809e+00 0 0 0
201 1 7.1133948765808741e+00 6.9508960472698949e+00 3.3516375900371571e+00 0 0 0
852 1 7.0005912766873797e+00 1.9562045809761052e+01 1.9514335311259746e+01 0 0 0
38 1 1.2391228150664366e+01 5.4037821658790239e+00 -1.1930816421015505e-01 0 0 0
40 1 1.0619575251608790e+01 5.1665597211888219e+00 1.6342430404947921e+00 0 0 0
59 1 8.8570519343473251e+00 7.0560266773855771e+00 1.5299213678105028e+00 0 0 0
61 1 1.0620176499604229e+01 7.0866557025973993e+00 -1.6904745994658812e-01 0 0 0
63 1 1.2318497451650929e+01 7.2186892379381504e+00 1.6566505355857388e+00 0 0 0
178 1 8.9615062357479900e+00 5.1891535943498841e+00 3.3616566261025955e+00 0 0 0
182 1 1.2315377913519434e+01 5.2484368502377681e+00 3.2322716064266728e+00 0 0 0
205 1 1.0514246050609376e+01 7.1818477297170160e+00 3.4126766105862156e+00 0 0 0
849 1 6.9722796645730840e+00 1.7872650012822909e+01 1.7745863325094742e+01 0 0 0
44 1 1.4241298055725727e+01 5.2749788740741916e+00 1.6341177552332733e+00 0 0 0
65 1 1.4082489801623957e+01 7.0799487257733373e+00 -8.6230811537146873e-02 0 0 0
67 1 1.6054588628029510e+01 6.9823957131974304e+00 1.6028748166361353e+00 0 0 0
186 1 1.6003571705855013e+01 5.2332991741323500e+00 3.4637518552289683e+00 0 0 0
209 1 1.4078558178644668e+01 6.9823816891045727e+00 3.4449833557909990e+00 0 0 0
847 1 5.2349125131217162e+00 1.7809672111486805e+01 1.9529431316197115e+01 0 0 0
48 1 1.7779488825649587e+01 5.2995572102615700e+00 1.7873927835245778e+00 0 0 0
846 1 5.0048452366356742e+00 1.9613301116840500e+01 1.7822914915794360e+01 0 0 0
71 1 1.9583234575930984e+01 7.2011374065117577e+00 1.5943106772093134e+00 0 0 0
190 1 1.9578918971943757e+01 5.4955166171190735e+00 3.2684825752495423e+00 0 0 0
213 1 1.7800249054653108e+01 7.1835218494963486e+00 3.4487528119599844e+00 0 0 0
848 1 3.4539484791610540e+00 1.9682341577317111e+01 1.9546794037233990e+01 0 0 0
52 1 -3.6651838328833876e-02 8.9695747549428475e+00 1.7162742985293398e+00 0 0 0
56 1 3.3490486647678175e+00 8.7222354382568188e+00 1.4808149319332979e+00 0 0 0
73 1 -5.5683984530120599e-02 1.0585528867921015e+01 -1.5871107724595929e-01 0 0 0
74 1 1.7715251475922096e+00 1.2440507088935840e+01 -1.8149337968788162e-01 0 0 0
75 1 1.7795506056963764e+00 1.0701612356127985e+01 1.5088950087405555e+00 0 0 0
76 1 -5.3979132446186628e-02 1.2602130526849166e+01 1.5729471317533461e+00 0 0 0
845 1 3.3587098196750520e+00 1.7845051493773660e+01 1.7832799433675561e+01 0 0 0
80 1 3.5647069314527742e+00 1.2355090995934171e+01 1.4916269419336563e+00 0 0 0
194 1 1.6897189967217079e+00 9.0349959774504178e+00 3.5293241741176029e+00 0 0 0
217 1 2.1335594092948259e+01 1.0713816945008732e+01 3.4024886707544506e+00 -1 0 0
218 1 1.7424969857748214e+00 1.2402127006645227e+01 3.3167582667104520e+00 0 0 0
221 1 3.4789486672696999e+00 1.0428522584268460e+01 3.2129530342437675e+00 0 0 0
844 1 2.1221969383708785e+01 1.9688517144836204e+01 1.9519100662505206e+01 -1 0 0
60 1 7.0584984297709674e+00 8.8655957470380926e+00 1.7162084534209496e+00 0 0 0
843 1 1.5916608773348215e+00 1.7958560852832690e+01 1.9438680501420944e+01 0 0 0
79 1 5.3090950213488570e+00 1.0552391408649362e+01 1.4441715939430548e+00 0 0 0
842 1 1.5940233737174871e+00 1.9569440126194209e+01 1.7787913140845870e+01 0 0 0
84 1 6.8857864015763148e+00 1.2324991866211507e+01 1.8172534937566729e+00 0 0 0
198 1 5.1461456575643965e+00 8.8145116113308219e+00 3.3189474888182997e+00 0 0 0
222 1 5.2011333808535420e+00 1.2247751284269430e+01 3.4066712985275731e+00 0 0 0
225 1 7.0920469678933769e+00 1.0588988577576686e+01 3.5263612973779828e+00 0 0 0
841 1 2.1300574959292401e+01 1.7922780204501532e+01 1.7726255979858671e+01 -1 0 0
840 1 1.7908583305309651e+01 1.5968266070063265e+01 1.9425432014830626e+01 0 0 0
64 1 1.0451426654748158e+01 8.8315908143344117e+00 1.6896242275363216e+00 0 0 0
839 1 1.9470509404385179e+01 1.4191599503537002e+01 1.9450648777824387e+01 0 0 0
83 1 8.8490501548667186e+00 1.0737763557846923e+01 1.5675800558101698e+00 0 0 0
838 1 1.9542188944759157e+01 1.5940308931241024e+01 1.7607511683760972e+01 0 0 0
86 1 1.2440825553048510e+01 1.2534467717191021e+01 -1.6918898303373339e-01 0 0 0
87 1 1.2426032163487580e+01 1.0563807716832777e+01 1.5970119777618690e+00 0 0 0
88 1 1.0498046353131873e+01 1.2463354256846602e+01 1.5783422107956382e+00 0 0 0
202 1 8.7508784178468861e+00 8.7913950675121004e+00 3.4516657377749103e+00 0 0 0
206 1 1.2425391233335521e+01 8.9767990756154497e+00 3.4309644398606576e+00 0 0 0
226 1 8.7549408188185396e+00 1.2407001298855429e+01 3.4017174474322438e+00 0 0 0
229 1 1.0584224625082488e+01 1.0559974207181870e+01 3.2689541961854633e+00 0 0 0
230 1 1.2221396395532865e+01 1.2389655066611782e+01 3.2655660360769301e+00 0 0 0
837 1 1.7700649313284018e+01 1.4119755498858719e+01 1.7889572530477892e+01 0 0 0
68 1 1.4074011200885762e+01 8.8792516896983837e+00 1.5872033496204494e+00 0 0 0
836 1 1.4034644680691770e+01 1.5955655969201636e+01 1.9346017000574232e+01 0 0 0
835 1 1.5961113296626749e+01 1.4245220909957986e+01 1.9489581194411972e+01 0 0 0
91 1 1.5870982360850624e+01 1.0459631771666620e+01 1.4926204602507775e+00 0 0 0
92 1 1.4164716704572582e+01 1.2312130087721130e+01 1.5553266513986073e+00 0 0 0
210 1 1.5840319910873374e+01 8.6855632097519884e+00 3.3303674566421275e+00 0 0 0
233 1 1.4278069411576750e+01 1.0774612262368743e+01 3.3095563247841007e+00 0 0 0
234 1 1.5948031890599804e+01 1.2441466323035383e+01 3.1965876219664957e+00 0 0 0
834 1 1.6077737663242218e+01 1.5976151838507597e+01 1.7628060639961838e+01 0 0 0
72 1 1.7726283232443677e+01 8.8939756207055893e+00 1.5332534683743897e+00 0 0 0
833 1 1.4101635910723173e+01 1.4254292689586935e+01 1.7651562697348002e+01 0 0 0
94 1 1.9718620953209250e+01 1.2294237286122979e+01 -1.7368943673835618e-01 0 0 0
95 1 1.9543235387590485e+01 1.0538097218094865e+01 1.5807697825314448e+00 0 0 0
96 1 1.7840068249984487e+01 1.2305721121738129e+01 1.5730020819296571e+00 0 0 0
214 1 1.9542155633882786e+01 9.1728314766167482e+00 3.4462328295932902e+00 0 0 0
237 1 1.7482468866545041e+01 1.0523904804272794e+01 3.4143361323898334e+00 0 0 0
238 1 1.9492443948402610e+01 1.2314794419912360e+01 3.3391796347310758e+00 0 0 0
97 1 2.1161627730914990e+01 1.4260485288764205e+01 -8.4982719157260564e-02 -1 0 0
98 1 1.5570247269555781e+00 1.5845093553105148e+01 -1.3605630968369276e-01 0 0 0
99 1 1.7374916600644397e+00 1.4236466400058795e+01 1.7638091827829907e+00 0 0 0
100 1 2.1302141902088511e+01 1.5894266612165012e+01 1.6366057976697623e+00 -1 0 0
832 1 1.0675643834070558e+01 1.5962980614974942e+01 1.9350048203112085e+01 0 0 0
104 1 3.6159121952391784e+00 1.5951623461372918e+01 1.5171287932281525e+00 0 0 0
241 1 2.1327227274600610e+01 1.4133906361183179e+01 3.4728199308456484e+00 -1 0 0
242 1 1.9506344463955125e+00 1.6047781549462986e+01 3.3313713750360856e+00 0 0 0
245 1 3.7140635141674698e+00 1.4160242492900705e+01 3.2781402850247114e+00 0 0 0
831 1 1.2457531733781620e+01 1.4016646806550634e+01 1.9517266039972213e+01 0 0 0
103 1 5.3552709706031010e+00 1.4171012452967792e+01 1.5064506892326155e+00 0 0 0
105 1 7.1975329250313091e+00 1.4231761513051470e+01 -1.5427681946636851e-01 0 0 0
108 1 6.8870559020319941e+00 1.6155513832035389e+01 1.5543716915379437e+00 0 0 0
246 1 5.2477984075807411e+00 1.6019915693563195e+01 3.4208336801757948e+00 0 0 0
249 1 6.9788773244677813e+00 1.4204738950482001e+01 3.3854865091605366e+00 0 0 0
106 1 8.8390993860400560e+00 1.6085362857145171e+01 -1.3279991472779099e-01 0 0 0
107 1 8.6902938531479901e+00 1.4272503167028928e+01 1.6366818160322327e+00 0 0 0
830 1 1.2323150502818036e+01 1.5954607281368514e+01 1.7631076580836790e+01 0 0 0
829 1 1.0604256171885684e+01 1.4159526206445310e+01 1.7653786829658326e+01 0 0 0
111 1 1.2314062444570236e+01 1.4311778721602334e+01 1.7754146701134199e+00 0 0 0
112 1 1.0719077717522245e+01 1.6076086968783301e+01 1.5110611045893685e+00 0 0 0
250 1 8.9028187133245158e+00 1.6109298008533319e+01 3.3395971038814860e+00 0 0 0
253 1 1.0548024807032601e+01 1.4192196764698302e+01 3.3894055919019515e+00 0 0 0
254 1 1.2370032089566731e+01 1.6015423003388030e+01 3.6580039733866543e+00 0 0 0
827 1 8.7712192972990870e+00 1.4280711920418954e+01 1.9484386134835322e+01 0 0 0
826 1 8.8275088168539746e+00 1.5870232215382654e+01 1.7819742981002854e+01 0 0 0
115 1 1.6013710583124151e+01 1.4336057678093653e+01 1.6225413647354066e+00 0 0 0
116 1 1.4100075032865833e+01 1.5982957598300313e+01 1.5973499402915170e+00 0 0 0
257 1 1.4167630074148189e+01 1.4168816317583202e+01 3.2736609367532905e+00 0 0 0
258 1 1.6132181328107762e+01 1.5969305637657364e+01 3.3673329366724185e+00 0 0 0
117 1 1.7871771178794372e+01 1.4103117454629832e+01 -1.4895292750400624e-01 0 0 0
828 1 7.1039752958773983e+00 1.6058654141125334e+01 1.9554886834673937e+01 0 0 0
119 1 1.9443651615336805e+01 1.4339821031689638e+01 1.6562548532898829e+00 0 0 0
120 1 1.7862275330268698e+01 1.6002111352367070e+01 1.7151573706951164e+00 0 0 0
261 1 1.7915862337709090e+01 1.4146748582946989e+01 3.3373951098211525e+00 0 0 0
262 1 1.9657830317511468e+01 1.6009688596265811e+01 3.4461288405744610e+00 0 0 0
825 1 7.0425616817866468e+00 1.4366009841966914e+01 1.7631660056963220e+01 0 0 0
122 1 1.5846084162287009e+00 1.9626956600473580e+01 -1.7839892284130851e-01 0 0 0
123 1 1.9209710723442743e+00 1.7714832495527162e+01 1.4845133121400946e+00 0 0 0
124 1 3.8352322866283817e-03 1.9597470509311655e+01 1.4786608639981043e+00 0 0 0
823 1 5.0767623265234443e+00 1.4284365411944258e+01 1.9463922254989548e+01 0 0 0
128 1 3.4200954800671099e+00 1.9602355298297422e+01 1.5939976159827676e+00 0 0 0
265 1 -7.4455881959693965e-02 1.7892891706703640e+01 3.2810963742169270e+00 0 0 0
266 1 1.6753061222475165e+00 1.9510700469075513e+01 3.2886766822176852e+00 0 0 0
269 1 3.6357035652492997e+00 1.7774333121474772e+01 3.3790394847137546e+00 0 0 0
822 1 5.2087039625174771e+00 1.6175456541374530e+01 1.7828037887114188e+01 0 0 0
127 1 5.0895620261878110e+00 1.7949152575788570e+01 1.3994859008769800e+00 0 0 0
824 1 3.3360580364771577e+00 1.6009896118223391e+01 1.9426177314133184e+01 0 0 0
132 1 7.0308491258551342e+00 1.9739614944074990e+01 1.5687064056923332e+00 0 0 0
270 1 5.2526715152179690e+00 1.9482335144372598e+01 3.4324425315123808e+00 0 0 0
273 1 6.8829030107192386e+00 1.7864283053698273e+01 3.1569270384533326e+00 0 0 0
821 1 3.5825203375483397e+00 1.4230588570731074e+01 1.7681826022472748e+01 0 0 0
131 1 8.7822432436508109e+00 1.7678006593015670e+01 1.5650734845850629e+00 0 0 0
820 1 2.1315495921706614e+01 1.5947087151236758e+01 1.9378172300523154e+01 -1 0 0
134 1 1.2366084010479812e+01 1.9411479465673249e+01 -1.4271662415807101e-02 0 0 0
135 1 1.2508800210259219e+01 1.7708541606713709e+01 1.7682223743953016e+00 0 0 0
136 1 1.0507285527884124e+01 1.9396563616868306e+01 1.6306760939003215e+00 0 0 0
274 1 8.7689212654894231e+00 1.9398089258257006e+01 3.5749132081251558e+00 0 0 0
277 1 1.0678893845075816e+01 1.7757478216299024e+01 3.5558692933493479e+00 0 0 0
278 1 1.2519275587584154e+01 1.9584665189456427e+01 3.5732324632107408e+00 0 0 0
137 1 1.4258615384023201e+01 1.7763321667728594e+01 -1.7053976515680638e-01 0 0 0
819 1 1.6749107805610877e+00 1.4079260384380181e+01 1.9615855033359061e+01 0 0 0
139 1 1.6011616115104150e+01 1.7687722259505200e+01 1.5471106280793592e+00 0 0 0
140 1 1.4305524088511447e+01 1.9418583735149852e+01 1.6397160614678394e+00 0 0 0
281 1 1.4361335577432840e+01 1.7807452804439215e+01 3.3827698925945904e+00 0 0 0
282 1 1.6092779989377359e+01 1.9555624025307363e+01 3.3557262817287374e+00 0 0 0
818 1 1.6905780386770810e+00 1.5945561868117082e+01 1.7822066532771178e+01 0 0 0
817 1 2.1266722989053978e+01 1.4071797991810108e+01 1.7844647431625223e+01 -1 0 0
143 1 1.9509133552025343e+01 1.7728707832313834e+01 1.6182399228384354e+00 0 0 0
144 1 1.7831233546522089e+01 1.9523160106020729e+01 1.4104881410276631e+00 0 0 0
285 1 1.7780093474214336e+01 1.7909266705555609e+01 3.2963528047128090e+00 0 0 0
286 1 1.9611322218079017e+01 1.9641536264210743e+01 3.4844159920511375e+00 0 0 0
147 1 1.6856010251022020e+00 2.1209386839460279e+01 5.1969176442784866e+00 0 -1 0
148 1 2.0364654194372195e-02 1.5961282243812891e+00 5.2499798722613686e+00 0 0 0
152 1 3.7048698852315094e+00 1.7414109866297909e+00 5.2299919625510123e+00 0 0 0
171 1 1.7523107056975551e+00 3.5288852861528772e+00 5.0710172889421283e+00 0 0 0
289 1 1.3364500112851327e-02 2.1302079605503753e+01 7.1176056840774082e+00 0 -1 0
290 1 1.7606856697869002e+00 1.6444144299401975e+00 7.0621059332436324e+00 0 0 0
293 1 3.3508187531620290e+00 2.1281550043275249e+01 6.9979416716652496e+00 0 -1 0
313 1 -1.5603824295179869e-02 3.5902840192629450e+00 7.0205003670565551e+00 0 0 0
317 1 3.3764764494548376e+00 3.4984053966867661e+00 6.8919127604937191e+00 0 0 0
151 1 5.2224188175411781e+00 -5.1088507998474718e-02 5.1420901012725366e+00 0 0 0
156 1 7.1339417020743339e+00 1.5658858078997759e+00 5.0614198973556661e+00 0 0 0
175 1 5.3299190055130383e+00 3.5021435879570424e+00 5.0718194536305843e+00 0 0 0
294 1 5.4967555956262393e+00 1.6178793740616229e+00 6.9636719808983880e+00 0 0 0
297 1 7.0750957189903385e+00 2.1321434050591634e+01 6.9862715089878877e+00 0 -1 0
321 1 7.0810274122801253e+00 3.5116533522073969e+00 7.0491050849598915e+00 0 0 0
155 1 8.7701884001108485e+00 2.1184962728373158e+01 5.4062075205775848e+00 0 -1 0
159 1 1.2304241228324290e+01 -8.8004651226790256e-02 5.2887242933669310e+00 0 0 0
160 1 1.0614769841899250e+01 1.5089066389173267e+00 5.3067823021245806e+00 0 0 0
179 1 8.9668368898015860e+00 3.4477530402264249e+00 5.2068442197744851e+00 0 0 0
183 1 1.2394087015042853e+01 3.4551642420057234e+00 5.2594066731995026e+00 0 0 0
298 1 8.9045551414726525e+00 1.7806976128484833e+00 7.1481656736231152e+00 0 0 0
301 1 1.0512866906402623e+01 2.1225882283393005e+01 7.0755086433965388e+00 0 -1 0
302 1 1.2425217890615643e+01 1.6994429541179550e+00 7.0580713931809234e+00 0 0 0
325 1 1.0653780601968215e+01 3.5825376421402360e+00 7.0136894753412031e+00 0 0 0
163 1 1.6012381184221820e+01 2.1350144373393125e+01 5.1874675497249028e+00 0 -1 0
164 1 1.4139885881410006e+01 1.6573741083521603e+00 5.1302788290915160e+00 0 0 0
187 1 1.6126260248888233e+01 3.3925297617318262e+00 5.3119584055759299e+00 0 0 0
305 1 1.4321771735755334e+01 2.6888999383676740e-02 6.8244232055830327e+00 0 0 0
306 1 1.5954791203065199e+01 1.6609902707734348e+00 6.8944268526745986e+00 0 0 0
329 1 1.4341012819133200e+01 3.6305278590367531e+00 6.9325918121443566e+00 0 0 0
167 1 1.9721298258814322e+01 2.1262968123006701e+01 5.3584575020125662e+00 0 -1 0
168 1 1.8050226097496338e+01 1.6127845465679087e+00 5.2372285479822880e+00 0 0 0
191 1 1.9689463073951021e+01 3.6557350973200373e+00 5.1178730047055128e+00 0 0 0
309 1 1.7873866474800359e+01 5.2391160965861883e-02 7.0930989182738005e+00 0 0 0
310 1 1.9778165711493909e+01 1.7420702477660781e+00 7.1467039055604262e+00 0 0 0
333 1 1.7959327643117291e+01 3.6022512063454664e+00 6.8798849137406410e+00 0 0 0
172 1 2.1231119361156399e+01 5.4175292253380132e+00 5.1997033391071588e+00 -1 0 0
176 1 3.5604529786868122e+00 5.2622139782282460e+00 5.2389824141226526e+00 0 0 0
195 1 1.5533807660324470e+00 6.9955246012951973e+00 5.1173755440088486e+00 0 0 0
314 1 1.5741179564856020e+00 5.4283931981756002e+00 6.9562249992637941e+00 0 0 0
337 1 2.1312863837618298e+01 7.2983934837705986e+00 7.0437973195610262e+00 -1 0 0
341 1 3.5088897457714414e+00 6.9296966948362417e+00 6.9037295381143826e+00 0 0 0
180 1 6.9299612326362361e+00 5.2778856624108581e+00 5.1939562442177332e+00 0 0 0
199 1 5.2763596657110448e+00 7.0426526178502789e+00 5.2844738281327475e+00 0 0 0
318 1 5.2988149459256215e+00 5.2373856913865744e+00 6.9448067083856406e+00 0 0 0
345 1 6.9925518944574012e+00 7.0680072546295261e+00 6.9687748474217308e+00 0 0 0
184 1 1.0710385375301582e+01 5.2474379074203537e+00 5.0948491742771074e+00 0 0 0
203 1 8.7325795444988792e+00 6.9293607836808233e+00 5.3136855855049738e+00 0 0 0
207 1 1.2357784350327469e+01 7.0534023391778282e+00 5.1219015449446390e+00 0 0 0
322 1 8.8189940148124837e+00 5.1801438875122496e+00 7.0233844770318825e+00 0 0 0
326 1 1.2452379035682657e+01 5.3439110398614078e+00 6.9724385604821597e+00 0 0 0
349 1 1.0716325055688110e+01 7.1642127551948018e+00 6.9808572285723569e+00 0 0 0
188 1 1.4232278613309981e+01 5.2895768595675703e+00 5.1931300163156688e+00 0 0 0
211 1 1.5981479791006187e+01 7.1667899579811314e+00 5.0783012476151539e+00 0 0 0
330 1 1.6049497617715417e+01 5.4521417360135436e+00 6.8983314781617509e+00 0 0 0
353 1 1.4389205207357339e+01 7.0546651806334486e+00 6.9520456896523752e+00 0 0 0
192 1 1.7703283953908610e+01 5.3468058911406411e+00 5.0761995160940971e+00 0 0 0
215 1 1.9413585813094830e+01 7.2754193516144205e+00 5.1599616021755983e+00 0 0 0
334 1 1.9713486704927607e+01 5.3358600341288041e+00 7.0498333675601259e+00 0 0 0
357 1 1.7860472830797974e+01 7.0846669641548932e+00 6.8532188725250780e+00 0 0 0
196 1 -1.6890653233416306e-02 8.9596631603263912e+00 5.1909722434460068e+00 0 0 0
200 1 3.3704398188651705e+00 8.9120576179001514e+00 5.3267178276513327e+00 0 0 0
219 1 1.6816887596738996e+00 1.0631148965843446e+01 5.2102603632946387e+00 0 0 0
220 1 -8.4996311657360157e-02 1.2537739207969393e+01 5.2528770500537165e+00 0 0 0
224 1 3.4328648597789138e+00 1.2334020056642363e+01 5.2083925744108761e+00 0 0 0
338 1 1.6801848961065955e+00 8.8375662082955522e+00 6.9827043832462534e+00 0 0 0
361 1 4.6116015343339867e-03 1.0651817392590377e+01 7.0081239629143397e+00 0 0 0
362 1 1.7301188543389614e+00 1.2317399212211194e+01 7.0388020582138191e+00 0 0 0
365 1 3.4715337478607990e+00 1.0595497022686054e+01 7.0365444379590869e+00 0 0 0
204 1 6.9064443707354304e+00 8.7364560058596368e+00 5.2075022415839456e+00 0 0 0
223 1 5.1212062828744935e+00 1.0558632689451050e+01 5.2768010542334913e+00 0 0 0
228 1 7.0925176854168654e+00 1.2368546162368983e+01 5.1495184854101455e+00 0 0 0
342 1 5.1767470255621442e+00 8.8248406149629215e+00 6.9857782481798010e+00 0 0 0
366 1 5.3334110233669758e+00 1.2328606530121757e+01 6.9100558560469239e+00 0 0 0
369 1 6.9296803843551613e+00 1.0572510647615156e+01 6.9715244056083865e+00 0 0 0
208 1 1.0686835216239606e+01 8.8734155673831197e+00 5.2127678057659477e+00 0 0 0
227 1 8.9133994582600184e+00 1.0597450118944433e+01 5.1282636289137562e+00 0 0 0
231 1 1.2473695302340246e+01 1.0767417357652707e+01 5.1956302457889896e+00 0 0 0
232 1 1.0790201089724626e+01 1.2584864639884142e+01 5.3130300289916388e+00 0 0 0
346 1 8.7745743986518647e+00 8.8809893634276893e+00 6.9495455079083470e+00 0 0 0
350 1 1.2456168655699184e+01 8.7726370348982439e+00 6.8262980193465701e+00 0 0 0
370 1 8.7615837418329079e+00 1.2455972831947102e+01 6.9680263436426921e+00 0 0 0
373 1 1.0527391323808095e+01 1.0580269487832988e+01 6.8658097856271780e+00 0 0 0
374 1 1.2629300205012019e+01 1.2433406701935688e+01 6.9760572509732706e+00 0 0 0
212 1 1.4276144955374038e+01 8.9544252484041955e+00 5.1844889111451220e+00 0 0 0
235 1 1.5879804356642836e+01 1.0659329236572754e+01 5.1621784887139759e+00 0 0 0
236 1 1.4135043304942206e+01 1.2494709622792241e+01 4.9340005636584046e+00 0 0 0
354 1 1.5952016586971574e+01 8.7867566788579818e+00 7.0658151283968484e+00 0 0 0
377 1 1.4203298377553780e+01 1.0668203690780228e+01 6.9925808518565837e+00 0 0 0
378 1 1.5921887795339359e+01 1.2515488333482415e+01 6.7906336897156701e+00 0 0 0
216 1 1.7645747920633283e+01 8.9922444560834638e+00 5.2162082801533360e+00 0 0 0
239 1 1.9527356660704893e+01 1.0752771753662168e+01 5.2478614335374232e+00 0 0 0
240 1 1.7605530980817896e+01 1.2424717824066922e+01 5.0693911631880697e+00 0 0 0
358 1 1.9569240500756759e+01 8.9714572995372848e+00 7.0157324855881988e+00 0 0 0
381 1 1.7675611494244428e+01 1.0920474987679876e+01 6.9155611865916287e+00 0 0 0
382 1 1.9746185889673811e+01 1.2399155174790479e+01 7.0922167292065472e+00 0 0 0
243 1 1.8898053572030828e+00 1.4141295856769416e+01 5.2748691687643809e+00 0 0 0
244 1 1.0955383146202596e-01 1.6111099390995609e+01 5.0836399839531436e+00 0 0 0
248 1 3.4379188527485227e+00 1.6060272626542769e+01 5.2823605032888299e+00 0 0 0
385 1 -2.9968397850146225e-02 1.4267265402303220e+01 6.9312149150082947e+00 0 0 0
386 1 1.7871821361059144e+00 1.6048162599198072e+01 7.0798303948347954e+00 0 0 0
389 1 3.5220091478856195e+00 1.4074609271548288e+01 6.9776455189577353e+00 0 0 0
247 1 5.2083325736741779e+00 1.4092761523961569e+01 5.2625318090347211e+00 0 0 0
252 1 6.9979305005359507e+00 1.6040604806416230e+01 5.0579837294728600e+00 0 0 0
390 1 5.2689295676042365e+00 1.5950641756703519e+01 7.0716416449452293e+00 0 0 0
393 1 6.9594717283833587e+00 1.4215396400282870e+01 6.8069207144861821e+00 0 0 0
251 1 8.7796622258041985e+00 1.4238754530975619e+01 5.0934863706465183e+00 0 0 0
255 1 1.2562386622463185e+01 1.4178652251081905e+01 5.2024065737630387e+00 0 0 0
256 1 1.0594728261327116e+01 1.5811646568855595e+01 5.3053732752831682e+00 0 0 0
394 1 8.6990350817178665e+00 1.5932933277325269e+01 7.0841994840290701e+00 0 0 0
397 1 1.0526028532760606e+01 1.4179751805244653e+01 7.1417381885837274e+00 0 0 0
398 1 1.2519354726860167e+01 1.5779113674652512e+01 7.0522440767027863e+00 0 0 0
259 1 1.5856510002086436e+01 1.4144328903595355e+01 5.0623330421593229e+00 0 0 0
260 1 1.4288583499296292e+01 1.6062464893469997e+01 5.0338047099735146e+00 0 0 0
401 1 1.4223806613706612e+01 1.4102412705258114e+01 7.0426307406696198e+00 0 0 0
402 1 1.5952437271261633e+01 1.5885861323334810e+01 7.0373496028007310e+00 0 0 0
263 1 1.9646960116447985e+01 1.4164798523772335e+01 5.2723480666487479e+00 0 0 0
264 1 1.7741629131718085e+01 1.5982128304969507e+01 5.0881782532297306e+00 0 0 0
405 1 1.7853118213083384e+01 1.4190331509723233e+01 6.9640171917369500e+00 0 0 0
406 1 1.9707708506615052e+01 1.5963776880419136e+01 6.7914878620003982e+00 0 0 0
267 1 1.7818202019373262e+00 1.7774767832197842e+01 5.1478490889097470e+00 0 0 0
268 1 2.1279864561894897e+01 1.9435856580102737e+01 5.1274382486122212e+00 -1 0 0
272 1 3.4864002276314272e+00 1.9569823720144857e+01 5.1992778647474518e+00 0 0 0
409 1 1.2568535528450692e-02 1.7834548399167421e+01 6.8783517984787146e+00 0 0 0
410 1 1.7212040261635022e+00 1.9397998077015512e+01 6.8988211144618026e+00 0 0 0
413 1 3.6096237379503480e+00 1.7745227449264423e+01 7.0355896848897999e+00 0 0 0
271 1 5.1592589321922970e+00 1.7837524432525846e+01 5.3218750543329660e+00 0 0 0
276 1 6.8561371564120517e+00 1.9373417173471076e+01 5.2429134851420267e+00 0 0 0
414 1 5.3769980237250996e+00 1.9778324864204698e+01 7.0412229389010559e+00 0 0 0
417 1 7.0271036932121840e+00 1.7876559696584074e+01 7.1002376382050834e+00 0 0 0
275 1 8.7343648024672458e+00 1.7593537034986277e+01 5.1999721801319918e+00 0 0 0
279 1 1.2450376261724616e+01 1.7642879801734580e+01 5.4236338634458257e+00 0 0 0
280 1 1.0528537815070079e+01 1.9391855788247977e+01 5.3437231838154426e+00 0 0 0
418 1 8.9254507953119600e+00 1.9430802618598126e+01 7.1020592733292629e+00 0 0 0
421 1 1.0670674574750059e+01 1.7405483580410881e+01 7.0842666438039785e+00 0 0 0
422 1 1.2300359405250598e+01 1.9584572499338460e+01 6.9381445176065020e+00 0 0 0
283 1 1.6096143584472156e+01 1.7757923923962771e+01 5.1797610550531781e+00 0 0 0
284 1 1.4253932099526564e+01 1.9635417123054211e+01 5.2642924536520246e+00 0 0 0
425 1 1.4276332638564826e+01 1.7751045926037815e+01 6.9840887256944049e+00 0 0 0
426 1 1.5921576546091767e+01 1.9640172006915964e+01 7.0278492128873458e+00 0 0 0
287 1 1.9537529010734364e+01 1.7817312570791866e+01 5.1164776049908376e+00 0 0 0
288 1 1.7681010386797681e+01 1.9541638802265638e+01 5.4341127592241234e+00 0 0 0
429 1 1.7883689875888443e+01 1.7712372422498433e+01 6.9291623215381684e+00 0 0 0
430 1 1.9555331055339661e+01 1.9474581486385222e+01 7.1503406325071701e+00 0 0 0
291 1 1.7313532794453470e+00 2.1293463968287369e+01 8.8729114406357521e+00 0 -1 0
292 1 -2.5036774889720476e-02 1.5490524179064697e+00 8.8358760362412543e+00 0 0 0
296 1 3.6840531153108662e+00 1.5692352004226262e+00 8.6870342206350433e+00 0 0 0
315 1 1.8699203946191170e+00 3.4585272116400971e+00 8.7385140309244687e+00 0 0 0
433 1 1.7510167070787189e-02 2.1234611091171235e+01 1.0670905348433569e+01 0 -1 0
434 1 1.9540894888704079e+00 1.7203864908102764e+00 1.0445794430054701e+01 0 0 0