LAMMPS data file via write_data, version 19 Mar 2020, timestep = 100000

1728 atoms
1 atom types

0.0000000000000000e+00 2.1263999999999999e+01 xlo xhi
0.0000000000000000e+00 2.1263999999999999e+01 ylo yhi
-1.3183296075085842e+00 4.3846329607507982e+01 zlo zhi

Masses

1 58.933

Atoms # atomic

8 1 3.1872543010402761e+00 2.0631598563883058e+00 5.9623624598201985e-01 0 0 0
27 1 1.4403454449045539e+00 3.5908340495860460e+00 7.6542702367935389e-01 0 0 0
146 1 1.6360660292089750e+00 1.5741087886520977e+00 2.6095825371408132e+00 0 0 0
173 1 3.7038371710629527e+00 3.5079639950505510e+00 2.5809551415028231e+00 0 0 0
4 1 2.0939209554606752e+01 1.6028571421610389e+00 7.1309016328855268e-01 -1 0 0
149 1 3.4566228247559083e+00 1.5654392160637798e-02 2.5354592834953604e+00 0 0 0
3 1 1.6145330816500991e+00 2.1211712739974356e+01 6.7457608687592563e-01 0 -1 0
169 1 2.1121732600537882e+01 3.4582704765894410e+00 2.5876283141406562e+00 -1 0 0
145 1 2.0927050769961518e+01 2.0900026249518550e+01 2.5323001137907264e+00 -1 -1 0
33 1 6.6969690399223278e+00 3.4820801332748670e+00 -1.0422209445945829e+00 0 0 0
743 1 1.9560112445477944e+01 2.1202093048716705e+01 1.9258036723717979e+01 0 -1 0
10 1 8.7700627685506642e+00 1.7895806981257225e+00 -1.0430827662588293e+00 0 0 0
985 1 1.2736920913796368e-01 1.7878677061880857e+01 2.1073896167725277e+01 0 0 0
12 1 6.9497426661320327e+00 1.9016571010657590e+00 5.5692426227087077e-01 0 0 0
31 1 5.2132626417210099e+00 3.6908786449188602e+00 7.4968517419619785e-01 0 0 0
150 1 5.4038539286281217e+00 1.6492373708900798e+00 2.5876053148014058e+00 0 0 0
177 1 7.1700155312283309e+00 3.3392337457593797e+00 2.7984002004818311e+00 0 0 0
153 1 7.3391384553423622e+00 3.0293017799735367e-02 2.3727877968351638e+00 0 0 0
861 1 1.7629058845740328e+01 1.7683800613085417e+01 1.7614689817049047e+01 0 0 0
7 1 5.1907809972280239e+00 2.1239460458045357e+01 7.4385797297510692e-01 0 -1 0
154 1 8.9163003435656449e+00 1.7724455055907773e+00 2.6457131708590045e+00 0 0 0
35 1 9.0760685730467028e+00 3.5564331243992817e+00 7.3917168986888315e-01 0 0 0
16 1 1.0858253221468591e+01 1.9252118154672189e+00 8.6652036866160076e-01 0 0 0
181 1 1.0766388437183156e+01 3.3352101593105941e+00 2.8080413280777368e+00 0 0 0
158 1 1.2468263461506684e+01 1.6753198912427305e+00 2.5208513454214194e+00 0 0 0
39 1 1.2596037604630672e+01 3.9002810663587315e+00 5.7022925123534463e-01 0 0 0
15 1 1.2466743914220110e+01 1.2031942079866909e-01 7.9780450287916471e-01 0 0 0
11 1 8.8437417796697098e+00 2.1226323602745864e-01 8.1895837967737517e-01 0 0 0
157 1 1.0611337785694365e+01 2.1171929093834311e+01 2.5928077705859196e+00 0 -1 0
862 1 1.9874306393418617e+01 1.9357874088510794e+01 1.7473570008047954e+01 0 0 0
20 1 1.3814934589589244e+01 1.8201700658426219e+00 4.4059470192719852e-01 0 0 0
43 1 1.5883820470172342e+01 3.3406459929544363e+00 5.0441098356100111e-01 0 0 0
162 1 1.6077000673012755e+01 1.6413505117805633e+00 2.4773198681567385e+00 0 0 0
185 1 1.4112783622078195e+01 3.4160232283192635e+00 2.3283462988100210e+00 0 0 0
161 1 1.4095754173387052e+01 2.7256221515413398e-03 2.4291965441311190e+00 0 0 0
19 1 1.5995220313921868e+01 1.4794814603658382e-01 6.8213687375997667e-01 0 0 0
24 1 1.7957121100402542e+01 1.7580205494002477e+00 6.7543293862928722e-01 0 0 0
47 1 1.9598835837728839e+01 3.7712276213431388e+00 6.5797249853659867e-01 0 0 0
166 1 1.9488854030657542e+01 1.6307171203663713e+00 2.5534938342578064e+00 0 0 0
189 1 1.7901715356995076e+01 3.3787968288039640e+00 2.5263638783856504e+00 0 0 0
882 1 1.6011911364724135e+01 1.7992731570824030e+00 2.1132300871197508e+01 0 0 0
863 1 1.9576346019367655e+01 1.7576457198444054e+01 1.9210672140370370e+01 0 0 0
864 1 1.7983552398676583e+01 1.9639502609640942e+01 1.9461318455877407e+01 0 0 0
32 1 3.5088078949247818e+00 5.2338097213270887e+00 7.7859175377636491e-01 0 0 0
51 1 1.6871094561093571e+00 7.0422427594352728e+00 6.9324221092937455e-01 0 0 0
170 1 1.3704601035547479e+00 5.3746069318704874e+00 2.6259162367847062e+00 0 0 0
197 1 3.5338800068735661e+00 6.7448402479127951e+00 2.5515726320632193e+00 0 0 0
193 1 2.1056344854198617e+01 7.3080013284499259e+00 2.3488295525394793e+00 -1 0 0
28 1 2.1157683275751825e+01 5.5863771451742110e+00 6.2622080057275809e-01 -1 0 0
886 1 1.9725392996092545e+01 1.7512027375970247e+00 2.1119325116704246e+01 0 0 0
58 1 8.8243438748016949e+00 9.0597469322478421e+00 -9.8270548600017582e-01 0 0 0
741 1 1.7816261398529267e+01 6.0509799756553170e-02 1.7464955104824494e+01 0 0 0
36 1 7.2545460027910176e+00 4.9936352049590944e+00 6.8391171430965514e-01 0 0 0
55 1 5.5215255347730077e+00 6.8596136377886721e+00 7.3681994401971718e-01 0 0 0
174 1 5.2840409236234160e+00 5.3144138962292597e+00 2.5432376727845081e+00 0 0 0
201 1 7.0196768735353547e+00 7.0746210214665668e+00 2.8381336448650547e+00 0 0 0
59 1 8.4825736600562660e+00 7.1787744730220000e+00 7.2697938380707283e-01 0 0 0
178 1 8.7090877830007933e+00 5.3628681125822677e+00 2.7379329581191039e+00 0 0 0
40 1 1.0143649242458649e+01 5.4135542191538546e+00 5.3329025551054920e-01 0 0 0
205 1 1.0260160862058441e+01 7.0780477732746281e+00 2.2815985660570077e+00 0 0 0
63 1 1.2399194638234547e+01 6.7883496206556080e+00 7.4260843879847638e-01 0 0 0
182 1 1.2751937519895719e+01 5.1233041310829810e+00 2.5458499759937321e+00 0 0 0
44 1 1.4322466315126483e+01 5.3970739223202644e+00 5.4887964187798222e-01 0 0 0
67 1 1.6380528591841291e+01 6.9507362195117333e+00 8.5241944080833676e-01 0 0 0
186 1 1.6117175111783460e+01 4.9694438610913316e+00 2.5634876816903454e+00 0 0 0
209 1 1.4202919878910976e+01 7.1355262203997114e+00 2.4329922388497969e+00 0 0 0
844 1 2.6137651744465257e-01 1.9796608620758569e+01 1.9314260815765515e+01 0 0 0
966 1 5.4974872950614078e+00 1.5855629406149911e+01 2.1168812898241129e+01 0 0 0
878 1 1.2562174489260684e+01 1.9079844688200029e+00 2.0980209641194438e+01 0 0 0
48 1 1.7783988094235475e+01 5.0688089496961197e+00 4.1543825909973298e-01 0 0 0
71 1 1.8966036485494392e+01 7.0373112579750670e+00 8.3170043685562911e-01 0 0 0
190 1 1.9380483175784210e+01 5.3022307913664966e+00 2.4818751517314781e+00 0 0 0
213 1 1.7638625875437526e+01 7.0754910590471800e+00 2.6927791089239514e+00 0 0 0
1 1 2.0962723100863183e+01 2.0996771747595769e+01 -1.1211747985178568e+00 -1 -1 0
194 1 2.0018713435502913e+00 8.6521792568438265e+00 2.4092089362586062e+00 0 0 0
56 1 3.7198299111343252e+00 8.8880403918014910e+00 3.9834060157529638e-01 0 0 0
75 1 1.9635603459059638e+00 1.0549167352026107e+01 4.6462506916996604e-01 0 0 0
221 1 3.5906344559729138e+00 1.0437774792544003e+01 2.4713009621860182e+00 0 0 0
80 1 3.8687626008250122e+00 1.2170505169258744e+01 5.0736422564639971e-01 0 0 0
218 1 2.2730104144615098e+00 1.2413194966838724e+01 2.3567507327801214e+00 0 0 0
76 1 1.6357817825581397e-01 1.2530569727310921e+01 8.0575203907625559e-01 0 0 0
109 1 1.0345171471638523e+01 1.4014655113243382e+01 -1.2882225223486317e+00 0 0 0
121 1 2.1248273882783330e+01 1.7776690408106372e+01 -9.2587485248296320e-01 -1 0 0
37 1 1.0536755277902387e+01 3.6415881166170156e+00 -1.1407010456552240e+00 0 0 0
110 1 1.1772720223688163e+01 1.5854902937533042e+01 -1.3104703082508822e+00 0 0 0
198 1 5.3512565924337236e+00 8.7213499475895322e+00 2.6523126729107331e+00 0 0 0
60 1 6.9850281554819986e+00 8.7520442921522577e+00 8.0581315259844644e-01 0 0 0
79 1 5.2560845161627965e+00 1.0568375713214934e+01 7.3866450796417338e-01 0 0 0
225 1 7.0565971591309484e+00 1.0649501711884657e+01 2.5762375112864362e+00 0 0 0
84 1 6.7257872631778390e+00 1.2276275291833748e+01 4.6857958878889394e-01 0 0 0
222 1 5.0795260526325174e+00 1.2506036073311533e+01 2.4788240133165158e+00 0 0 0
857 1 1.4427723897137453e+01 1.7834501334972099e+01 1.7546137013482024e+01 0 0 0
858 1 1.6210381468650041e+01 1.9522076907233995e+01 1.7655487006173249e+01 0 0 0
226 1 8.8841026303516504e+00 1.2520733037148496e+01 2.4247027852812106e+00 0 0 0
202 1 8.8394072557461669e+00 9.0754003172476789e+00 2.1841332975328114e+00 0 0 0
206 1 1.2082611197286326e+01 8.7062664128490894e+00 2.5395957918370997e+00 0 0 0
83 1 8.6533453757871026e+00 1.0720616641299641e+01 5.2566877194811301e-01 0 0 0
64 1 1.0579525923944059e+01 8.7339350948730363e+00 6.4425587667920658e-01 0 0 0
229 1 1.0681634095179747e+01 1.0688203986148896e+01 2.4190090825547164e+00 0 0 0
230 1 1.2485359216029384e+01 1.2448003532076992e+01 2.1625501854524707e+00 0 0 0
87 1 1.2477058366738847e+01 1.0279999037362868e+01 6.4647355000551587e-01 0 0 0
88 1 1.0807322989427638e+01 1.2201273654602357e+01 4.9669620430637140e-01 0 0 0
859 1 1.6076389618907616e+01 1.7758526914336862e+01 1.9469503936418555e+01 0 0 0
993 1 7.1613122958951809e+00 1.7657616546308173e+01 2.1042420164890611e+01 0 0 0
921 1 7.2768351594162839e+00 6.9012729453725274e+00 2.1072579928131923e+01 0 0 0
210 1 1.5909528083888883e+01 8.7464731597865182e+00 2.4067775019049029e+00 0 0 0
68 1 1.4289088155526116e+01 8.1894448993898123e+00 3.3452878574585632e-01 0 0 0
91 1 1.5681245656783958e+01 1.0430457427670007e+01 4.7206780462537057e-01 0 0 0
233 1 1.4096614730884383e+01 1.0250366750757431e+01 2.3040177533648269e+00 0 0 0
92 1 1.4303414304519977e+01 1.2539792842607909e+01 4.1983504253504078e-01 0 0 0
860 1 1.4277600370985859e+01 1.9497187997297026e+01 1.9223478794658778e+01 0 0 0
52 1 2.1146795480237230e+01 9.1305382005066722e+00 5.3550386293752861e-01 -1 0 0
130 1 8.5957851496546400e+00 2.0027701291876266e+01 -1.1374674368073179e+00 0 0 0
217 1 4.3051292928577439e-01 1.0311438850198794e+01 2.7191411784576909e+00 0 0 0
72 1 1.7623768625783089e+01 8.9581274379629807e+00 6.6381205707955426e-01 0 0 0
214 1 1.9213992390361025e+01 9.1014481276359671e+00 2.4085008809412751e+00 0 0 0
95 1 1.9342550565196809e+01 1.1122540485515291e+01 -3.4365360579612148e-02 0 0 0
237 1 1.7392165387088394e+01 1.0615074929880747e+01 2.5085307061967943e+00 0 0 0
238 1 1.9779312070739977e+01 1.2075825121669572e+01 2.5213895766218655e+00 0 0 0
96 1 1.7210996627346532e+01 1.2545940647295158e+01 4.9809977842595976e-01 0 0 0
101 1 3.5442954186503548e+00 1.4293370315957489e+01 -1.2270908980498836e+00 0 0 0
102 1 5.8587213076339557e+00 1.5837548931787023e+01 -1.2099164564325884e+00 0 0 0
99 1 2.0685613942592673e+00 1.3945531713527748e+01 6.0378353989805800e-01 0 0 0
104 1 4.0406464144206673e+00 1.6017298724412090e+01 2.9306385658155198e-01 0 0 0
242 1 1.8700389424034465e+00 1.6017390324310135e+01 2.5535569832292007e+00 0 0 0
245 1 3.6495556485285761e+00 1.4376240687727195e+01 2.2676979579842280e+00 0 0 0
100 1 2.1247951019258760e+01 1.5854921627195901e+01 5.2372022178890898e-01 -1 0 0
103 1 5.4861714962726325e+00 1.4085512308970298e+01 4.7825170867916533e-01 0 0 0
108 1 7.2349404169774969e+00 1.5908812656630920e+01 5.7541268791401490e-01 0 0 0
246 1 5.5361330506425519e+00 1.5792838985416253e+01 2.1276129899925409e+00 0 0 0
249 1 7.1917581969929216e+00 1.3977434511694266e+01 2.5299145680189303e+00 0 0 0
250 1 8.8035801435215824e+00 1.5720099541765524e+01 2.5958829296963026e+00 0 0 0
107 1 8.9637458137285595e+00 1.3670260476839234e+01 5.8546597629336805e-01 0 0 0
112 1 1.0293392233716729e+01 1.5891773856327998e+01 5.9092356609682550e-01 0 0 0
253 1 1.0642719252790306e+01 1.3879102924209530e+01 2.4615057308665742e+00 0 0 0
111 1 1.2457649568801914e+01 1.4181531061844002e+01 6.8691990243862122e-01 0 0 0
254 1 1.2095657907881034e+01 1.5980046795009635e+01 2.3177203357235991e+00 0 0 0
234 1 1.5505583103091945e+01 1.2125350677542301e+01 2.5021508112996105e+00 0 0 0
115 1 1.5698490448172089e+01 1.4210592201855230e+01 1.1533078513110673e+00 0 0 0
116 1 1.3903506911316704e+01 1.5997318457400029e+01 6.0316584904994364e-01 0 0 0
257 1 1.4174174846464208e+01 1.4306920283211459e+01 2.5342279912121599e+00 0 0 0
258 1 1.5865453695751631e+01 1.6133961226697117e+01 2.3096434056212649e+00 0 0 0
241 1 1.7275020835395338e-02 1.4093626676074093e+01 2.7418492028718573e+00 0 0 0
119 1 1.9334484490505030e+01 1.3809325848108157e+01 7.1279417111598908e-01 0 0 0
120 1 1.7634924715352753e+01 1.5742767307681364e+01 6.0617623458766445e-01 0 0 0
261 1 1.7429719911219092e+01 1.4136463065263209e+01 2.6145827315506689e+00 0 0 0
262 1 1.9649480018540562e+01 1.6063368469598270e+01 2.2187210793425587e+00 0 0 0
901 1 1.0905777602340409e+01 3.5471918902592177e+00 2.1222055897259526e+01 0 0 0
118 1 1.9678020116837132e+01 1.5578098780045494e+01 -1.1982322061716739e+00 0 0 0
123 1 1.9363562626136759e+00 1.7712056110022612e+01 6.9662639918625047e-01 0 0 0
128 1 3.3702707580517171e+00 1.9612666542101572e+01 8.0744652886944701e-01 0 0 0
266 1 1.6151737280739173e+00 1.9687237928789251e+01 2.5649500069823610e+00 0 0 0
269 1 3.6328803814554487e+00 1.7473309405487058e+01 2.5761700433858912e+00 0 0 0
265 1 1.6753701604242038e-01 1.7579494745246329e+01 2.6580517467909326e+00 0 0 0
841 1 1.8023393381646402e-01 1.7630808776069255e+01 1.7479261880463628e+01 0 0 0
843 1 1.9392471611341611e+00 1.7646502006918304e+01 1.9369845158058627e+01 0 0 0
124 1 1.2221420741089024e-01 1.9259192318374364e+01 6.5689140970754778e-01 0 0 0
127 1 5.4999164171999819e+00 1.7670494784432037e+01 5.7447825779008621e-01 0 0 0
132 1 7.1983258177428731e+00 1.9671808853696284e+01 7.1397855224697127e-01 0 0 0
270 1 5.0594345923750996e+00 1.9519298123362766e+01 2.6465867603159094e+00 0 0 0
273 1 7.1197623426159229e+00 1.7709945532496366e+01 2.4170025692942705e+00 0 0 0
848 1 3.4468802789299811e+00 1.9596681409455698e+01 1.9281573165871176e+01 0 0 0
845 1 3.6592339106538221e+00 1.7675012934356740e+01 1.7284647960196953e+01 0 0 0
131 1 8.7100478504788317e+00 1.7904061460899094e+01 4.5729423924816270e-01 0 0 0
274 1 8.9766031903258270e+00 1.9318329528202252e+01 2.4842583360324055e+00 0 0 0
136 1 1.0512835277811009e+01 1.9505731810809685e+01 5.9403345868313284e-01 0 0 0
277 1 1.0479758774159087e+01 1.7482750862663707e+01 2.1641520791390185e+00 0 0 0
135 1 1.2309997496541881e+01 1.7690370362211649e+01 6.1856266334426713e-01 0 0 0
278 1 1.2387829623198590e+01 1.9356351642873250e+01 2.4793627440527710e+00 0 0 0
139 1 1.5764733346210889e+01 1.7625160858261562e+01 4.1607340067791698e-01 0 0 0
140 1 1.4139531938837294e+01 1.9308640651012610e+01 5.2049097730719129e-01 0 0 0
281 1 1.4346586648381539e+01 1.7734872624335136e+01 2.6486097925665124e+00 0 0 0
282 1 1.5687617272400711e+01 1.9453943597400137e+01 2.2485076124806760e+00 0 0 0
23 1 1.9539731872113325e+01 2.0900639719026152e+01 5.9693444217302161e-01 0 -1 0
165 1 1.7548297135864448e+01 2.0977381722264322e+01 2.5614006833643219e+00 0 -1 0
143 1 1.9253620618612278e+01 1.7575645309728824e+01 4.7820360810639007e-01 0 0 0
144 1 1.7483255179776325e+01 1.9603190852110281e+01 5.7432347943366580e-01 0 0 0
285 1 1.7507564988718091e+01 1.7830912587043919e+01 2.0582373300698573e+00 0 0 0
286 1 1.9489034520444076e+01 1.9124730848459276e+01 2.5240661565828160e+00 0 0 0
1006 1 1.9830396444740465e+01 1.9572077767323727e+01 2.1104667712505055e+01 0 0 0
725 1 3.7909735482074018e+00 2.1163698458320074e+01 1.7483532953992199e+01 0 -1 0
152 1 3.5128556567811358e+00 1.5437436073468287e+00 4.3813129178003924e+00 0 0 0
171 1 1.6616840151085277e+00 3.4811130878729024e+00 4.3508448163963180e+00 0 0 0
290 1 1.6849756446207518e+00 1.7174750143044939e+00 6.0299968554813308e+00 0 0 0
317 1 3.6873841587740630e+00 3.4063526615482642e+00 6.2992210516117684e+00 0 0 0
147 1 1.6746483854202157e+00 2.1195183939180030e+01 4.5635211794452291e+00 0 -1 0
313 1 6.5296682806341266e-02 3.6029549259989482e+00 6.2344631822620116e+00 0 0 0
156 1 7.2716132019304807e+00 1.5852486707533795e+00 4.7368549692557282e+00 0 0 0
175 1 5.2752450092320400e+00 3.5359522558521062e+00 4.5446895960111480e+00 0 0 0
294 1 5.3900636817733032e+00 1.5167560169483094e+00 6.4944843239860743e+00 0 0 0
321 1 7.0850594168036798e+00 3.4919495431714478e+00 6.1792316798794635e+00 0 0 0
298 1 8.9750028801585113e+00 1.9060131413384664e+00 6.5509484690808559e+00 0 0 0
151 1 5.7806820269437740e+00 2.1182980541894551e+01 4.2552687319609248e+00 0 -1 0
179 1 8.7450430873369402e+00 3.5694084306693377e+00 4.5479802944916248e+00 0 0 0
160 1 1.0575267165785339e+01 1.6292348704850017e+00 4.5358301626215054e+00 0 0 0
325 1 1.0662580597762084e+01 3.6244166890030742e+00 6.0481049090000401e+00 0 0 0
183 1 1.2511622311473671e+01 3.4072875763951429e+00 4.6630041479440871e+00 0 0 0
302 1 1.2395294576327190e+01 1.5167958419507019e+00 6.2510359153842145e+00 0 0 0
155 1 8.9742450748024414e+00 2.1160804205960787e+01 4.3732572357348998e+00 0 -1 0
164 1 1.4173384828616982e+01 1.4522477551803916e+00 4.4978593198388586e+00 0 0 0
187 1 1.5865313021704681e+01 3.5697840483934069e+00 4.4752546904494697e+00 0 0 0
306 1 1.5915621847181784e+01 1.7107200317368594e+00 6.1954073920422026e+00 0 0 0
329 1 1.4360169451963149e+01 3.3821533786407003e+00 6.3363358041661071e+00 0 0 0
305 1 1.4085882441228545e+01 2.1176989347736477e+01 6.3446434961528526e+00 0 -1 0
163 1 1.5628110189401873e+01 2.0437015909350770e+01 4.4199952103140649e+00 0 -1 0
148 1 2.1161732799997260e+01 1.8667108601212803e+00 4.3458521337589140e+00 -1 0 0
333 1 1.7763701869306011e+01 3.5684370733157529e+00 6.2092519994528388e+00 0 0 0
168 1 1.7493187801617307e+01 1.5486792400279958e+00 4.4405295983430149e+00 0 0 0
191 1 1.9517019205383427e+01 3.7712430270427451e+00 4.1843198366131293e+00 0 0 0
310 1 1.9424207929923991e+01 1.6475987984822154e+00 6.5015231922876833e+00 0 0 0
167 1 1.9603105257570441e+01 2.1065478319369905e+01 4.3081395096748665e+00 0 -1 0
309 1 1.7588837986622739e+01 2.1125211696544433e+01 6.3916064697267725e+00 0 -1 0
176 1 3.4501749881214865e+00 5.0715168257237773e+00 4.7043958432282968e+00 0 0 0
195 1 2.0610234903129911e+00 6.8404193178613042e+00 4.4365747349039202e+00 0 0 0
314 1 1.6759387292622614e+00 5.2013722153677469e+00 6.3391043494474895e+00 0 0 0
341 1 3.5495864972225752e+00 7.1665957005088865e+00 6.0846997621012893e+00 0 0 0
172 1 2.0986387850052200e+01 5.4786971688004495e+00 4.6199897110047967e+00 -1 0 0
337 1 2.1007611125130651e+01 7.4940686118610440e+00 6.5440467612205078e+00 -1 0 0
180 1 6.6908817357805699e+00 5.3577360740467439e+00 4.5680755243232563e+00 0 0 0
199 1 5.3549373960258286e+00 7.1853154642160382e+00 4.2389675866613619e+00 0 0 0
318 1 5.0582187738143212e+00 5.0105144906389993e+00 6.3470858591914041e+00 0 0 0
345 1 7.4319140397759558e+00 7.1716781616427747e+00 6.3498886681191440e+00 0 0 0
322 1 8.8033199758153504e+00 5.1783960265215763e+00 6.2726199053937650e+00 0 0 0
203 1 9.0970023343403987e+00 7.0337304270741994e+00 4.4779620937222813e+00 0 0 0
184 1 1.0915301473131816e+01 5.1524983627125733e+00 4.2950912799726337e+00 0 0 0
207 1 1.2584681902786096e+01 6.9863200273668404e+00 4.2239679976197033e+00 0 0 0
349 1 1.0309595314671295e+01 7.0233496816500169e+00 6.6584637344993967e+00 0 0 0
326 1 1.2487090733336270e+01 5.2628581634150189e+00 6.2636914790056002e+00 0 0 0
188 1 1.4093146122411076e+01 5.2706158868697948e+00 4.3575441649385658e+00 0 0 0
211 1 1.5856174374979020e+01 6.9514269574762864e+00 4.2228741316441951e+00 0 0 0
330 1 1.5693799593104844e+01 5.3548234023352750e+00 6.0779901446540610e+00 0 0 0
353 1 1.3892611187943034e+01 7.1405949400805060e+00 6.1345638101881317e+00 0 0 0
192 1 1.7512065660664625e+01 5.1265728846777909e+00 4.5266919246974249e+00 0 0 0
215 1 1.9128129765933554e+01 7.1788920817734931e+00 4.4138711025296340e+00 0 0 0
334 1 1.9167512811470189e+01 5.4294529494577235e+00 6.3221985149286368e+00 0 0 0
357 1 1.7280149916274215e+01 7.1129528195889735e+00 5.9977868415593099e+00 0 0 0
200 1 3.5360836153437165e+00 8.8869018934949313e+00 4.3931730930817103e+00 0 0 0
338 1 1.7396542315476062e+00 8.8621875939905266e+00 6.3218447541861593e+00 0 0 0
219 1 2.1324821693830787e+00 1.0754182666738298e+01 4.4079311110188684e+00 0 0 0
365 1 3.7261714716247547e+00 1.0551507631390685e+01 6.6482108134141091e+00 0 0 0
362 1 1.8028743427499871e+00 1.2317455169591216e+01 6.1575680010812919e+00 0 0 0
344 1 3.6238799121500040e+00 8.7535806418487354e+00 8.0883122749412397e+00 0 0 0
204 1 7.5782096309384990e+00 9.1277598532981195e+00 4.2617531830760118e+00 0 0 0
342 1 5.6732235918117588e+00 8.6661204456706571e+00 6.2729893171679025e+00 0 0 0
223 1 5.5400085052693981e+00 1.0617139303843292e+01 4.4976431270696606e+00 0 0 0
369 1 7.3724873707537455e+00 1.0971593055080808e+01 6.2237624565610670e+00 0 0 0
366 1 5.7052191664444010e+00 1.2481508988541030e+01 5.8664707702771270e+00 0 0 0
228 1 7.4356244235565079e+00 1.2224064265876750e+01 4.3201024236345518e+00 0 0 0
346 1 9.1155061651946490e+00 8.9011382992503361e+00 6.1334407343007706e+00 0 0 0
208 1 1.0512146453962211e+01 8.7640965217276587e+00 3.8586267862561598e+00 0 0 0
350 1 1.2163566310259803e+01 8.7927507368248872e+00 6.1271412523512669e+00 0 0 0
227 1 9.1401161209052209e+00 1.0574228833266499e+01 4.0669640544369177e+00 0 0 0
373 1 1.0686194409311462e+01 1.0666368076379596e+01 6.1458067185202063e+00 0 0 0
232 1 1.0811834597142036e+01 1.2296064260783314e+01 4.3167723240613913e+00 0 0 0
231 1 1.2562914998168189e+01 1.0810610972648643e+01 4.3599584124553017e+00 0 0 0
370 1 9.1522470215065894e+00 1.2459801650714256e+01 6.2198813958460946e+00 0 0 0
374 1 1.2396909677027505e+01 1.2537545903480634e+01 6.3143384359304608e+00 0 0 0
212 1 1.4205230058475285e+01 8.8593933168295553e+00 4.3246487043149058e+00 0 0 0
354 1 1.5897158626771606e+01 9.0643243397201001e+00 6.2963774541966302e+00 0 0 0
235 1 1.5748799983531852e+01 1.0535894986059427e+01 4.3701537722010713e+00 0 0 0
377 1 1.4248217730338608e+01 1.0532482298729624e+01 6.3812329949729545e+00 0 0 0
236 1 1.3936464827509868e+01 1.2763307438112850e+01 4.1112206331092471e+00 0 0 0
378 1 1.5986591946087719e+01 1.2449687389965961e+01 6.2226220585422904e+00 0 0 0
196 1 2.0308941489925525e-01 8.4838167971614755e+00 4.3310999910037635e+00 0 0 0
361 1 2.1067111316642141e+01 1.0170042305601733e+01 6.0376034252610209e+00 -1 0 0
220 1 2.0632131323725389e-01 1.1910902439109563e+01 4.2122914571507160e+00 0 0 0
216 1 1.7707810699904336e+01 9.0256590264659646e+00 4.4255034230882089e+00 0 0 0
358 1 1.9138083659024428e+01 8.8092174864699953e+00 6.4128753180679414e+00 0 0 0
239 1 1.9851978606764288e+01 1.0211322671089736e+01 4.2522629986085692e+00 0 0 0
381 1 1.7523158331696969e+01 1.0688116628333276e+01 6.3028326603142517e+00 0 0 0
240 1 1.7817083774370477e+01 1.2288949286203131e+01 4.1424295335034431e+00 0 0 0
382 1 1.9694631579874336e+01 1.1945820638020450e+01 5.9030025062414646e+00 0 0 0
224 1 3.6536922428284142e+00 1.2467484436353510e+01 4.4949186834767305e+00 0 0 0
243 1 1.8548205125203026e+00 1.3935639593316219e+01 4.3622516838648151e+00 0 0 0
248 1 3.6420016029913533e+00 1.5849519472798525e+01 4.1431173690069434e+00 0 0 0
386 1 1.8634279779048690e+00 1.5775834804574844e+01 6.0368891096680617e+00 0 0 0
389 1 3.5192511652290328e+00 1.4129631065685942e+01 6.1476751059771342e+00 0 0 0
247 1 5.1490379113167091e+00 1.4438726021569932e+01 4.5886677944182210e+00 0 0 0
252 1 7.0595718765878646e+00 1.5678875973331616e+01 4.2496530600381188e+00 0 0 0
390 1 5.5479857779595285e+00 1.5938480078684986e+01 6.1932314683359513e+00 0 0 0
393 1 7.3321411701363308e+00 1.4203486192469160e+01 6.0632143211188971e+00 0 0 0
251 1 9.0018596927613626e+00 1.4194503699225232e+01 4.4463817154210723e+00 0 0 0
256 1 1.0828362015582620e+01 1.5948983773575609e+01 4.4520226311934357e+00 0 0 0
394 1 9.0294635105775551e+00 1.6000546750911013e+01 6.1683739961569390e+00 0 0 0
397 1 1.0816255439150089e+01 1.4309671493856772e+01 6.3618123742183643e+00 0 0 0
255 1 1.2496967210623962e+01 1.4409221741222844e+01 4.3784784692656187e+00 0 0 0
398 1 1.2464491193454400e+01 1.5867041301493032e+01 6.2132240785301045e+00 0 0 0
259 1 1.5917886521261551e+01 1.4183821942550660e+01 4.5551505965993107e+00 0 0 0
260 1 1.4213461392690046e+01 1.5993522317157533e+01 4.2668237461680238e+00 0 0 0
401 1 1.4336515718243332e+01 1.4462398472017295e+01 6.3291090863033297e+00 0 0 0
402 1 1.6270578180268952e+01 1.6176010484730877e+01 6.2580550489324125e+00 0 0 0
244 1 2.8658986557747779e-01 1.5681292937718990e+01 4.4134432045514647e+00 0 0 0
385 1 2.1071426324646453e+01 1.3904451938185945e+01 6.0164505153647063e+00 -1 0 0
263 1 1.9317496328524584e+01 1.4266103943474006e+01 4.0767319007176610e+00 0 0 0
264 1 1.7740016970496690e+01 1.5991488747976129e+01 4.3657589451205387e+00 0 0 0
405 1 1.7955831129893564e+01 1.3785455869848194e+01 5.9537224327689300e+00 0 0 0
406 1 1.9461006609137733e+01 1.5694413263876033e+01 6.4563662301966698e+00 0 0 0
293 1 3.2202548918633358e+00 2.1013487428001600e+01 6.4467191843391669e+00 0 -1 0
267 1 1.9369049729048053e+00 1.7789022136629697e+01 4.3502300628444504e+00 0 0 0
272 1 3.6340411617886135e+00 1.9330529401664251e+01 4.6392918481165806e+00 0 0 0
410 1 1.6900066999742813e+00 1.9069309088964943e+01 6.1959080297487326e+00 0 0 0
413 1 3.6298243973055406e+00 1.7616587485605990e+01 6.0639674198133822e+00 0 0 0
409 1 1.4514443328152637e-01 1.7631352609241777e+01 6.3586485802334298e+00 0 0 0
289 1 2.1141683019780928e+01 2.1321314748760180e-02 6.5534410895418009e+00 -1 0 0
268 1 2.1066183947569844e+01 1.9427122371932011e+01 4.5936015458250035e+00 -1 0 0
297 1 7.5730796789117250e+00 1.2098102138370592e-02 6.3759166511539220e+00 0 0 0
271 1 5.5534655334864143e+00 1.7776835274803343e+01 4.0930278790795231e+00 0 0 0
276 1 7.2808607407009154e+00 1.9492379879882794e+01 4.3880990170276313e+00 0 0 0
414 1 5.4787176343480306e+00 1.9480703938949521e+01 6.1256379201558495e+00 0 0 0
417 1 7.1324036732944052e+00 1.7623870702961270e+01 6.3006185386160043e+00 0 0 0
420 1 7.2097929964982264e+00 1.9639400209845000e+01 8.0922932580282918e+00 0 0 0
159 1 1.2408143846281790e+01 2.1236443400341404e+01 4.3316373327020994e+00 0 -1 0
301 1 1.0702526149513277e+01 2.1030604577961498e+01 6.1074135728027770e+00 0 -1 0
418 1 8.7121756454316639e+00 1.9180489482987014e+01 6.3324210263441731e+00 0 0 0
275 1 8.7098804469264532e+00 1.7764565144299411e+01 4.3259380947686319e+00 0 0 0
280 1 1.0587319739307222e+01 1.9199139493377231e+01 4.2943338643378492e+00 0 0 0
421 1 1.0658441503751384e+01 1.7607815062555989e+01 6.3176067111583629e+00 0 0 0
279 1 1.2488307313409916e+01 1.7475204683170613e+01 3.9701854715279516e+00 0 0 0
422 1 1.2378323032708122e+01 1.9337370835563448e+01 6.4956371231904360e+00 0 0 0
419 1 8.8622338649848800e+00 1.7731616914685844e+01 8.2087777726389159e+00 0 0 0
283 1 1.5842556984928615e+01 1.7957676704320626e+01 4.4665497159667682e+00 0 0 0
284 1 1.3816269382955042e+01 1.9382174832461363e+01 4.5633936556255064e+00 0 0 0
425 1 1.4231490126356446e+01 1.7975009430560849e+01 6.3744067998057643e+00 0 0 0
426 1 1.6374674650140431e+01 1.9287890577022431e+01 6.5444077466469821e+00 0 0 0
287 1 1.9593843259377170e+01 1.7370826018406149e+01 4.3247268368504450e+00 0 0 0
288 1 1.7922254533588525e+01 1.9532184336921780e+01 4.5736766570037606e+00 0 0 0
429 1 1.8234546703766185e+01 1.7535462129592798e+01 6.2694745582486648e+00 0 0 0
430 1 1.9528180253300725e+01 1.9524599928270764e+01 6.7245471169757476e+00 0 0 0
296 1 3.4643475054227699e+00 2.1520822360163412e+00 8.2115247273916552e+00 0 0 0
315 1 1.6741129471728484e+00 3.7935034285073272e+00 8.0268680097494531e+00 0 0 0
434 1 1.5970047730924330e+00 2.2590177298206009e+00 1.0144179942248169e+01 0 0 0
459 1 1.5206769176175616e+00 3.7815111222819699e+00 1.1774631788922102e+01 0 0 0
461 1 3.3136902645381912e+00 3.9905924222881639e+00 9.8790293635673159e+00 0 0 0
440 1 3.2040823504043097e+00 2.0885911013084835e+00 1.2015847582087938e+01 0 0 0
457 1 2.1146287438786324e+01 3.7140325026501420e+00 9.9312920762395098e+00 -1 0 0
436 1 2.1219779772736572e+01 1.6569619960543234e+00 1.1828606002076283e+01 -1 0 0
292 1 2.1260788679142259e+01 1.6131244536296963e+00 8.2134484137077948e+00 -1 0 0
435 1 1.9044366678419575e+00 9.2584977034237570e-02 1.1942140387669042e+01 0 0 0
300 1 7.3073996354056518e+00 1.6488777951115206e+00 8.1466029259699830e+00 0 0 0
319 1 5.4935771905833608e+00 3.3144473753241677e+00 8.1733432757430613e+00 0 0 0
438 1 5.4372327568761483e+00 2.0465111470906026e+00 1.0295018176726982e+01 0 0 0
465 1 7.2121034017142556e+00 3.3686731036791002e+00 1.0017197548426990e+01 0 0 0
444 1 7.4782461527606605e+00 1.4517078965773913e+00 1.1789870077900757e+01 0 0 0
463 1 5.3938921823826167e+00 3.8048721878631713e+00 1.1824420473373364e+01 0 0 0
323 1 8.9379411482990552e+00 3.6698814222713381e+00 8.2382253682425954e+00 0 0 0
304 1 1.0621861341042573e+01 1.9397577796982231e+00 8.2130128359794075e+00 0 0 0
442 1 8.8888237999526059e+00 1.7662016130001730e+00 9.8842748458130174e+00 0 0 0
469 1 1.0588739579858588e+01 3.5549850609760862e+00 1.0186689039241369e+01 0 0 0
446 1 1.2468390002055974e+01 2.0064180813559527e+00 1.0072445481326319e+01 0 0 0
448 1 1.0458166108053462e+01 1.6009666594785918e+00 1.1765710826207544e+01 0 0 0
471 1 1.2582663324744949e+01 3.6689573452329509e+00 1.1831045670264357e+01 0 0 0
327 1 1.2680593491881680e+01 3.3952118976145593e+00 8.1825169250989767e+00 0 0 0
467 1 8.7873682799873301e+00 3.5282720531489695e+00 1.1830998970266744e+01 0 0 0
303 1 1.2356407687290048e+01 1.1089073897706925e-01 8.2242775820220881e+00 0 0 0
299 1 9.0800800312257781e+00 2.0958656235131134e+01 8.0736101548413348e+00 0 -1 0
447 1 1.2273974837339425e+01 1.5173337027681200e-01 1.1924442896055737e+01 0 0 0
308 1 1.4325789009506666e+01 1.5737581198452162e+00 8.3760587520455392e+00 0 0 0
331 1 1.6077087399720746e+01 3.5988455159097845e+00 8.0090606928931596e+00 0 0 0
450 1 1.6092175617645726e+01 1.7368142139288834e+00 1.0054868275152481e+01 0 0 0
473 1 1.4380913676467118e+01 3.4103753491343420e+00 9.9494065226042103e+00 0 0 0
452 1 1.4136768446053711e+01 1.8666938964495254e+00 1.1961875949130146e+01 0 0 0
475 1 1.6157101196490650e+01 3.9569127904225403e+00 1.1934137731644935e+01 0 0 0
307 1 1.5837500954108126e+01 2.1056663092959536e+01 8.2075043718252196e+00 0 -1 0
449 1 1.4118881800542184e+01 2.1043715866514766e+01 1.0330670606068892e+01 0 -1 0
451 1 1.6206264061715590e+01 1.6757781903505631e-01 1.1910957654245252e+01 0 0 0
312 1 1.7761368784472751e+01 2.0251153923038538e+00 8.1933855500316053e+00 0 0 0