LAMMPS data file via write_data, version 29 Oct 2020, timestep = 0

2744 atoms
1 atom types

-1.721552645727666 26.529552645727737 xlo xhi
-1.721552645727666 26.529552645727737 ylo yhi
0.0 59.52955264572773 zlo zhi

Masses

1 58.933

Atoms # atomic

3 1 1.5569553244192869 24.756504667222963 4.69020169974104 0 -1 0
4 1 -0.016752501499129657 1.5406982467402348 4.725157479269695 0 0 0
5 1 3.605124970720332 24.88592351497056 2.9482621819716583 0 -1 0
8 1 3.4885856628922434 1.7677523314071935 4.672452053145364 0 0 0
31 1 1.6464781043937124 3.5414085717988244 4.6290020099003755 0 0 0
33 1 3.398207443316075 3.478886100739873 2.9687996002193238 0 0 0
197 1 24.770971898072155 -0.0327617768027644 6.482406423291592 -1 0 0
198 1 1.7656305437392286 1.7430882623445827 6.529116048824874 0 0 0
201 1 3.4429459653934926 -0.07247197636572325 6.482572780689511 0 0 0
225 1 0.060982296301700045 3.44781087395111 6.498173676709056 0 0 0
229 1 3.3194417988743994 3.5348260667821094 6.4446118649916695 0 0 0
7 1 5.433123773523562 -0.04346139172391059 4.628082069526798 0 0 0
12 1 6.978160193576372 1.808297630865907 4.665524272411851 0 0 0
35 1 5.21341732519474 3.529313397056572 4.871776898508113 0 0 0
37 1 6.917549877494544 3.6121777166323703 3.0815269779453884 0 0 0
202 1 5.196124237609834 1.6840395739619074 6.4977128165179305 0 0 0
205 1 7.000802492698625 24.827747337263343 6.5096447665887585 0 -1 0
233 1 7.073288189340447 3.307429229239274 6.637310030179451 0 0 0
10 1 8.71606703721746 1.6890020038005036 3.0046644252364962 0 0 0
11 1 8.729842742532963 -0.07339006244875244 4.7552686535115845 0 0 0
16 1 10.531852520320973 1.6312246735226896 4.620905702761906 0 0 0
39 1 8.732042023317998 3.6506735669615704 4.7789415277502405 0 0 0
41 1 10.57411096999053 3.4598752726408066 3.0441794176224057 0 0 0
206 1 8.899270097542928 1.6093540937931579 6.4962631958534445 0 0 0
209 1 10.614452909291213 24.849961808351267 6.450511720875657 0 -1 0
237 1 10.705550445264478 3.3563184672828745 6.3950924446865764 0 0 0
15 1 12.29402018848294 24.89642484689351 4.678328780041123 0 -1 0
18 1 16.04262159045411 1.8264064512847387 2.948132652590811 0 0 0
19 1 15.94978081351372 -0.03347403679597475 4.738662972391452 0 0 0
20 1 14.188271102485478 1.655248559995085 4.701066874810554 0 0 0
43 1 12.454835566423222 3.465404859398097 4.775272646226901 0 0 0
45 1 14.159807267579977 3.3555793226623103 2.916849157324623 0 0 0
47 1 15.969849323027752 3.507877665053715 4.795608176211099 0 0 0
210 1 12.421435203311502 1.553718760634488 6.469025629538565 0 0 0
213 1 14.111992385122507 24.784915544982802 6.5228782376525185 0 -1 0
214 1 15.986967374000308 1.740043941546139 6.596697932333347 0 0 0
241 1 14.30480816888807 3.4179665674166957 6.482587445628868 0 0 0
21 1 17.812798065352982 0.0016333259894829727 2.9307486090526975 0 0 0
22 1 19.727632559410385 1.696105413822011 2.9553317889936985 0 0 0
23 1 19.68930938835435 -0.07531960665279931 4.693678601732193 0 0 0
24 1 17.867299408815374 1.6888041969555199 4.646260104558943 0 0 0
51 1 19.748374032056255 3.5073063727288103 4.67048858410231 0 0 0
217 1 17.69249841519959 24.85812278400714 6.378999264802545 0 -1 0
218 1 19.489238897431182 1.6779709836437258 6.516084116175776 0 0 0
245 1 17.884197369167218 3.537912918623009 6.399977476255892 0 0 0
25 1 21.441163384689677 24.859671078800744 2.9141069894692304 0 -1 0
27 1 23.02995407426436 24.88302162529961 4.695676418273082 0 -1 0
28 1 21.445961277226594 1.6775797910871462 4.637089324087707 0 0 0
55 1 23.208474378067642 3.5063469715284925 4.549617674098712 0 0 0
221 1 21.307926764418465 0.02913194455352118 6.614652115343947 0 0 0
222 1 23.117365746549364 1.9296433588254596 6.473419453806642 0 0 0
249 1 21.365648732445926 3.457905993811884 6.552630749642278 0 0 0
32 1 -0.08165560368026957 5.298547802984137 4.726310557089148 0 0 0
36 1 3.439196695051986 5.224324956540186 4.65146798582402 0 0 0
59 1 1.7418523119901907 7.108980304633591 4.739567820007117 0 0 0
61 1 3.4964866816959397 7.052783709533105 2.975545056098641 0 0 0
226 1 1.7394209423775746 5.325390644652874 6.477444297999174 0 0 0
253 1 24.830650311252963 7.028814534596895 6.390368194376778 -1 0 0
257 1 3.4526559654905293 6.9363236416140985 6.509922505581487 0 0 0
34 1 5.276550367017079 5.0498480436993525 2.979441395810931 0 0 0
40 1 6.950035012458083 5.33765788781576 4.759153799720682 0 0 0
63 1 5.0869847947671625 7.0562299732876665 4.761178190483621 0 0 0
230 1 5.275492334688782 5.325385544033158 6.573345778855041 0 0 0
261 1 6.978892721618131 7.079264711104719 6.496103441918992 0 0 0
38 1 8.772991558480387 5.267612059902732 2.9581707601288914 0 0 0
44 1 10.63853505055468 5.3356489430298435 4.787818776400103 0 0 0
67 1 8.686618007196579 7.1835182951431 4.685681943555389 0 0 0
69 1 10.508343285087092 7.123993840077387 2.940154563687727 0 0 0
234 1 8.919314400368144 5.349385486575478 6.4738855926556855 0 0 0
265 1 10.525108321588858 7.191801845368517 6.278498182164075 0 0 0
42 1 12.439121392635643 5.224272361332994 2.9266292240260134 0 0 0
48 1 14.071478209034048 5.297483631190272 4.682123146986415 0 0 0
71 1 12.31065854540406 7.085757259915422 4.74328178390642 0 0 0
75 1 15.905506331654669 7.027853283924121 4.630010891585341 0 0 0
238 1 12.436100588459048 5.367780059615789 6.403957608374724 0 0 0
242 1 15.893881796203123 5.356125779603363 6.506883700963832 0 0 0
269 1 14.184698936885836 7.0532624632187195 6.576243686755825 0 0 0
50 1 19.543365626916387 5.323320629072381 2.976121636348765 0 0 0
52 1 17.756682959065593 5.246541137012676 4.731288773320091 0 0 0
79 1 19.614724746851746 7.073830252421511 4.705335875764215 0 0 0
246 1 19.709286136044604 5.213091259045919 6.433072373076566 0 0 0
273 1 17.79988564456738 6.938360459686166 6.494123470145038 0 0 0
56 1 21.403167605236565 5.2197267020839595 4.7058077166449115 0 0 0
81 1 21.440484795109718 7.139894067942707 2.9496435089335042 0 0 0
83 1 23.113054455387925 7.073528008328613 4.642455984050967 0 0 0
250 1 23.139883232251947 5.309703692909043 6.525557056214317 0 0 0
277 1 21.388268873557298 7.051911534370889 6.501733761642387 0 0 0
58 1 1.790463531643426 8.915564648231813 2.9921878206667167 0 0 0
60 1 24.85641410730515 8.844897338968055 4.702719275830274 -1 0 0
64 1 3.6116510939565423 8.896106745251553 4.739665307056677 0 0 0
85 1 -0.02842223786225613 10.495189599101746 2.924450645138728 0 0 0
87 1 1.7129611685095811 10.428827785632336 4.750451778138616 0 0 0
89 1 3.4177317310911906 10.590206095089703 2.994923931216202 0 0 0
254 1 1.6046912495640646 8.741419890935875 6.597187182558572 0 0 0
281 1 0.0003662638267478008 10.52221183489694 6.495178055771133 0 0 0
285 1 3.4428321494577334 10.589360384656482 6.4629852970672665 0 0 0
68 1 6.948249339353094 8.950501903659266 4.690075382269425 0 0 0
91 1 5.1339602221006455 10.765264067557785 4.819519824871865 0 0 0
93 1 6.971723064707807 10.663581942390405 2.923485853716745 0 0 0
258 1 5.3112149948723415 8.717460917404543 6.555516715570832 0 0 0
289 1 6.825425363909085 10.660088137970794 6.605245331873197 0 0 0
66 1 8.74929790705206 8.746953567427047 2.9123257352422267 0 0 0
72 1 10.565144704732996 8.975382559146686 4.5537631451718585 0 0 0
95 1 8.691568285499102 10.602212817097799 4.66410365439286 0 0 0
262 1 8.63104405164381 9.027843749519818 6.457441550973909 0 0 0
293 1 10.529168104266768 10.585169678495408 6.465641333689462 0 0 0
74 1 15.912800783492678 8.868667723483167 2.9288332739537126 0 0 0
76 1 14.094954592516451 8.678767259884756 4.741741420577454 0 0 0
99 1 12.499504232649267 10.55453549377817 4.706819880275904 0 0 0
103 1 15.89529521652066 10.627900028126048 4.621685783684159 0 0 0
266 1 12.338443853761643 8.860110975395774 6.458978279674756 0 0 0
270 1 15.933355209244791 8.760631017465299 6.4527431067658245 0 0 0
297 1 14.208895630694746 10.524336143683295 6.354889056129684 0 0 0
80 1 17.720880228442493 8.823858378393776 4.7685469597067 0 0 0
105 1 17.78260155082047 10.532779899237621 2.9239558179223795 0 0 0
107 1 19.526844095731818 10.585147605213438 4.804383377528437 0 0 0
274 1 19.64751212689213 8.815316643050027 6.468285351227307 0 0 0
301 1 17.733920401906804 10.646219228938325 6.501915357729503 0 0 0
82 1 23.113960090838646 8.911462881349467 2.942247126085782 0 0 0
84 1 21.399680699931427 8.91499994875425 4.6754125849341275 0 0 0
109 1 21.494999884696476 10.680565921912418 2.9287673121011877 0 0 0
111 1 23.214852481111013 10.649858747351765 4.734290815467329 0 0 0
278 1 23.184237265171316 8.94655145688863 6.526334737537866 0 0 0
305 1 21.39264434926279 10.716861589892167 6.435946422784069 0 0 0
88 1 0.00017075024367681213 12.381209231904506 4.6546677452127465 0 0 0
92 1 3.3672573125311547 12.397289134065925 4.739513513332495 0 0 0
113 1 -0.058120525408402755 14.1299562313979 3.0219221519471033 0 0 0
115 1 1.6895067568095052 14.241741684838978 4.670401361282752 0 0 0
116 1 -0.020341301321337282 16.024819038527323 4.676805774738247 0 0 0
117 1 3.4866498822309997 14.3073308623452 2.9577544848678774 0 0 0
120 1 3.495340556212874 16.033949667942437 4.7492413517580445 0 0 0
282 1 1.7182594292092368 12.40364486744139 6.465183620132141 0 0 0
309 1 -0.05248501471424666 14.147734737157439 6.42128860070207 0 0 0
310 1 1.7265998441995276 15.99818821925333 6.561597832154828 0 0 0
313 1 3.4454606806007564 14.167560909477382 6.5924052920651555 0 0 0
90 1 5.068120145024882 12.39896054849457 2.911879909080402 0 0 0
96 1 6.857443610621545 12.413508233845507 4.671332100781909 0 0 0
118 1 5.261609186372835 16.025691821470232 2.942897564577198 0 0 0
119 1 5.124895015293011 14.196693102402822 4.697693422660915 0 0 0
124 1 6.994643709977137 15.928270372301537 4.585593394731606 0 0 0
286 1 5.134832807201665 12.49661588378479 6.512903390061739 0 0 0
314 1 5.180171847442324 15.926833101344862 6.545070113924135 0 0 0
317 1 7.063090398097771 14.153866234718592 6.410523055587145 0 0 0
100 1 10.58349290180279 12.332026369617418 4.6346249158808455 0 0 0
123 1 8.722311838343382 14.138164237563759 4.674248467180295 0 0 0
128 1 10.649055946092247 15.850744757600353 4.629223711442783 0 0 0
290 1 8.688498879200466 12.295494968055685 6.303678794160529 0 0 0
318 1 8.869859102760216 15.892975811014018 6.433055348613424 0 0 0
321 1 10.598986616269801 14.051586795519642 6.339420034376746 0 0 0
104 1 14.205966468961668 12.40731242511214 4.498278237991174 0 0 0
127 1 12.469725860682903 14.261051845428558 4.51090153372801 0 0 0
130 1 16.122874095702244 16.161856534353664 2.9342715596102553 0 0 0
131 1 15.904400260911295 14.257627769897935 4.631444829752864 0 0 0
132 1 14.134342556048463 16.0505448766327 4.6453102869275815 0 0 0
294 1 12.616461943310496 12.266865023181694 6.2547461045426065 0 0 0
298 1 16.00961976347486 12.355713888831575 6.310514051790712 0 0 0
322 1 12.384482117937736 15.969333580706579 6.422164773637677 0 0 0
325 1 14.1983797872634 14.278777595424414 6.358232168709348 0 0 0
326 1 16.045855387363524 15.95441734902306 6.419487537590931 0 0 0
106 1 19.563159216369115 12.32094626154217 2.956094318287723 0 0 0
108 1 17.67508560785344 12.359469300266802 4.507469398087015 0 0 0
134 1 19.484091096944137 15.929434241050398 2.918053500266002 0 0 0
135 1 19.499177864415614 14.159036990753693 4.668915629706925 0 0 0
136 1 17.826594599536953 16.054722092405076 4.754650702232265 0 0 0
302 1 19.50082622974792 12.4327223432403 6.517110746423091 0 0 0
329 1 17.78052363806983 14.17138253471321 6.397141252880042 0 0 0
330 1 19.675616058565545 16.0216671827392 6.548795132437824 0 0 0
110 1 23.16284930648723 12.38139024128524 2.9381113452065026 0 0 0
112 1 21.393310649542443 12.505473838088415 4.661871589940979 0 0 0
138 1 23.029227078830207 15.921898901357544 2.9294282517168724 0 0 0
139 1 23.11634569848584 14.156468555422364 4.657602248163327 0 0 0
140 1 21.376147863370857 15.8845806857747 4.737545138097772 0 0 0
306 1 23.099285579140883 12.601090452994193 6.449918721721188 0 0 0
333 1 21.336317855487046 14.277199746803145 6.418808293277506 0 0 0
334 1 23.309437189829357 15.999057879443704 6.444619196627356 0 0 0
141 1 24.826160612579475 17.749939648937005 2.9492070234626566 -1 0 0
143 1 1.6844009479401825 17.786160234805113 4.730166060991628 0 0 0
144 1 -0.06900482756491297 19.63624840165105 4.72902905255738 0 0 0
148 1 3.4950613029831397 19.568996322271232 4.629198330223585 0 0 0
337 1 0.058592435536359344 17.828803879714034 6.585008746879564 0 0 0
338 1 1.5482183850376914 19.633258341917163 6.518941084477148 0 0 0
341 1 3.4321561799539544 17.74468042792449 6.598688497442278 0 0 0
146 1 5.30352899278102 19.380264789757096 3.0454895658500845 0 0 0
147 1 5.2715994414992755 17.68334062997583 4.870600903855568 0 0 0
149 1 7.060850321588146 17.716852732994287 3.0510204144050026 0 0 0
152 1 7.092049998387461 19.5836101116977 4.7370267039993115 0 0 0
342 1 5.306427800329848 19.553216961114614 6.42823494344958 0 0 0
345 1 7.039395163346545 17.73058348593276 6.564610279120052 0 0 0
151 1 8.906360403277501 17.817275118978348 4.734282898136744 0 0 0
156 1 10.6396039087246 19.571873118157423 4.679577662279821 0 0 0
346 1 8.904957060886607 19.47103598918909 6.3893416187747825 0 0 0
349 1 10.654969637658198 17.622683000217133 6.396892111083611 0 0 0
155 1 12.349602462698764 17.81017168122159 4.634117944979689 0 0 0
157 1 14.248821261199554 17.844169223128535 2.9538257246137167 0 0 0
159 1 16.16060597140399 17.777940120127997 4.69127639011965 0 0 0
160 1 14.148473331023332 19.603077450215054 4.6798274466689165 0 0 0
350 1 12.410892077900819 19.749628295583438 6.504664375599896 0 0 0
353 1 14.190589351323815 17.804342600117568 6.431168584114119 0 0 0
354 1 15.948743190699908 19.62897869059321 6.439978428454735 0 0 0
162 1 19.428791454382036 19.543682551040007 2.9397428912055106 0 0 0
163 1 19.43269647078351 17.84356512417932 4.710731802964424 0 0 0
164 1 17.761157504877193 19.55545119609942 4.615499596362291 0 0 0
357 1 17.760228307700874 17.852060538851205 6.478918912380543 0 0 0
358 1 19.60444226895421 19.626012542293463 6.47493199890838 0 0 0
165 1 21.313145256086717 17.694949843761112 2.952238434855684 0 0 0
166 1 23.16478714049778 19.633142788021768 2.9516464418671724 0 0 0
167 1 23.17657958274945 17.732398763670528 4.741615181128008 0 0 0
168 1 21.287569669913093 19.456434766712434 4.8090327860405715 0 0 0
361 1 21.474809359924517 17.661185715322066 6.45066808752691 0 0 0
362 1 23.136335770274933 19.44724417887073 6.558267662380829 0 0 0
171 1 1.722728689630312 21.267222258532822 4.679617489239096 0 0 0
172 1 24.874508653854143 23.147653662706254 4.576748961259512 -1 0 0
176 1 3.40988607146806 23.136003992380864 4.811476577614144 0 0 0
365 1 24.833283209977285 21.427013211195128 6.427065209938661 -1 0 0
366 1 1.6214035116229895 23.109189805085684 6.406627494151733 0 0 0
369 1 3.472305351671337 21.26445288282239 6.450959520258351 0 0 0
174 1 5.35524694279646 23.059964945553883 2.9296714506059915 0 0 0
175 1 5.225995577197691 21.27656540698495 4.666068226494136 0 0 0
177 1 7.009221652461423 21.369992297123815 2.9669197359810995 0 0 0
180 1 7.144535353379103 23.143001141013574 4.747698764321565 0 0 0
370 1 5.280136887003214 23.192354272356784 6.435566617053086 0 0 0
373 1 7.004767303990403 21.320882708695812 6.507005171018376 0 0 0
179 1 8.708185920914683 21.32404924011149 4.6486236421711284 0 0 0
184 1 10.606494896367316 23.12580773687365 4.50580450462811 0 0 0
374 1 8.945239577531048 23.054542486172583 6.413765626054547 0 0 0
377 1 10.678700019004532 21.45017528944108 6.447705425813559 0 0 0
183 1 12.344392314337163 21.354506504318042 4.656357492021483 0 0 0
187 1 15.829762422517357 21.492055011180508 4.556432166650346 0 0 0
188 1 14.053159548456431 23.24559000345785 4.622748674229045 0 0 0
378 1 12.34877920382727 23.123868532359406 6.57714305010609 0 0 0
381 1 14.16942724166295 21.454996320441165 6.465142378892775 0 0 0
382 1 16.01787269758335 23.1347116610329 6.375909051652856 0 0 0
190 1 19.56417298987491 23.14267843591906 2.9674496147318865 0 0 0
191 1 19.510502838878782 21.369424606047538 4.674607994322228 0 0 0
192 1 17.77037019915387 23.209230903599746 4.673407827403729 0 0 0
385 1 17.716591838647773 21.43172465966873 6.45479229482943 0 0 0
386 1 19.607559203841774 23.10884523359981 6.495589045551239 0 0 0
193 1 21.207441394185533 21.201935305198283 2.9575303231674464 0 0 0
195 1 23.130353991356415 21.395455662189313 4.625165116211208 0 0 0
196 1 21.35589167616397 23.070781281757878 4.785250016219762 0 0 0
389 1 21.32890267007874 21.2960492271903 6.442333452121893 0 0 0
390 1 23.045073324066802 23.082238080409606 6.485038813683855 0 0 0
199 1 1.7378922337342249 -0.06456034405587896 8.247933094819837 0 0 0
200 1 -0.0354509540901764 1.6318976164768053 8.334005364979593 0 0 0
204 1 3.542033409768382 1.7891896385002186 8.270683346093403 0 0 0
227 1 1.6050064927708148 3.4573190026133065 8.3190339372557 0 0 0
393 1 24.88315240393042 24.88960222350702 9.983184358349845 -1 -1 0
394 1 1.7148522741160002 1.6769072765296202 10.15422096188082 0 0 0
397 1 3.5500557356454383 -0.04204208492200697 10.132736937552693 0 0 0
421 1 -0.07219296738461867 3.4329240238349286 10.08048538662761 0 0 0
425 1 3.4169746197526822 3.4961621986379043 10.026593102399778 0 0 0
203 1 5.1978510385850445 24.84155065761236 8.461302183238413 0 -1 0
208 1 7.089310183989603 1.4657283216361334 8.165795900789675 0 0 0
231 1 5.294325135596892 3.516143957952753 8.239538145252165 0 0 0
398 1 5.2698434437625785 1.9438339410967633 10.073403323063811 0 0 0
401 1 6.978519990782629 0.056238740357696854 10.10328359435347 0 0 0
429 1 7.153827156469285 3.538420953339169 9.959659148730982 0 0 0
207 1 9.037225515169617 24.879828367329306 8.36752565509678 0 -1 0
212 1 10.617884082031873 1.711377244087393 8.296716526416148 0 0 0
235 1 8.896450513123987 3.4729443183073303 8.24762416344078 0 0 0
402 1 8.874807114969299 1.6534284040301388 10.041314918827638 0 0 0
405 1 10.581199591015649 -0.08713625990529553 10.16182326995029 0 0 0
433 1 10.739458243015543 3.4969310667142293 10.008802884348816 0 0 0
211 1 12.513969123576985 24.807837701055057 8.341423234511748 0 -1 0
215 1 15.913650608980387 24.818867483599544 8.298393463160922 0 -1 0
216 1 14.203214122359853 1.6369088725032426 8.394905419358945 0 0 0
239 1 12.480822737437965 3.4562357688049152 8.234007680832864 0 0 0
243 1 15.992587117419436 3.479448800989932 8.32381815567869 0 0 0
406 1 12.410998405879882 1.6054324529043724 10.050429829547173 0 0 0
409 1 14.173868694709443 -0.03063824017084897 10.122244316755765 0 0 0
410 1 16.00222783566433 1.7295321708032716 10.15068617101469 0 0 0
437 1 14.08936216440267 3.472989405707148 10.02354947637468 0 0 0
219 1 19.50266116141375 -0.06030089797352303 8.121189091187706 0 0 0
220 1 17.835692007794872 1.575281501854974 8.370178461068326 0 0 0
247 1 19.46702530732703 3.5311356062256265 8.225520225586585 0 0 0
413 1 17.7711111995322 24.729867969056862 10.11848796801644 0 -1 0
414 1 19.50203933735325 1.5372924447720122 10.042098289229674 0 0 0
441 1 17.719830782408973 3.4587544604799296 10.188359473227287 0 0 0
223 1 23.109640867179362 24.827037821240285 8.222615283508597 0 -1 0
224 1 21.428353272735897 1.7459528885466349 8.29903842726736 0 0 0
251 1 23.305384694805714 3.476736229779454 8.333669712955968 0 0 0
417 1 21.276021770237477 24.86514247221836 10.044047181950951 0 -1 0
418 1 23.095171120553758 1.6599927498392082 10.076818454430832 0 0 0
445 1 21.31776301621174 3.321151031254599 9.94923783287755 0 0 0
228 1 -0.0810115199407456 5.303619063089398 8.216154000282245 0 0 0
232 1 3.4794750888605233 5.267993181966185 8.18782451681706 0 0 0
255 1 1.6532067572855387 7.06831911701533 8.237638887066014 0 0 0
422 1 1.6574194744277704 5.172584070939402 9.948503110911158 0 0 0
449 1 -0.06938399416513288 7.063391161898419 10.07475008982842 0 0 0
453 1 3.4202320010514153 6.958022234191541 10.01876627589279 0 0 0
236 1 7.1517269323653085 5.216107806631103 8.14003775162799 0 0 0
259 1 5.202941534674956 7.22740146891211 8.34509699714313 0 0 0
426 1 5.299208622243388 5.381269424940146 9.923009001966289 0 0 0
457 1 7.106103048211573 6.980370815068543 9.986316603034025 0 0 0
240 1 10.789090657357319 5.177327234300191 8.164879557951801 0 0 0
263 1 9.02056439089462 6.99640912173174 8.135903053610056 0 0 0
430 1 8.918307443305562 5.157545406260955 10.008351711032555 0 0 0
461 1 10.59812050948535 7.028128774761132 9.89134932030504 0 0 0
244 1 14.062194785927785 5.25638132944904 8.323534466660348 0 0 0
267 1 12.362168655197605 7.112840464665831 8.206169945329806 0 0 0
271 1 15.991493893001778 6.966941841775276 8.335254404631726 0 0 0
434 1 12.500334492630698 5.399019070332987 10.152194911942209 0 0 0
438 1 15.974442541133993 5.202080206536026 10.071362213122672 0 0 0
465 1 14.048221688680911 7.119938031573103 9.963716310462292 0 0 0
248 1 17.72735860627689 5.266793258094279 8.256854788843327 0 0 0
275 1 19.479786819525664 6.93857134717157 8.26567765145297 0 0 0
442 1 19.406729528384403 5.182444824086036 10.118924304743192 0 0 0
469 1 17.744950262871367 7.128597476508629 10.112691801374098 0 0 0
252 1 21.45584024466344 5.232082454989995 8.420719676853711 0 0 0
279 1 23.162052848009438 7.125728757297131 8.31386853274547 0 0 0
446 1 23.13228741050337 5.313826374394306 10.170740449524423 0 0 0
473 1 21.32388412459773 7.039203139684569 10.02349643115304 0 0 0
256 1 24.888104540563205 8.784473549105021 8.21601680829399 -1 0 0
260 1 3.4645508585039826 8.898805112225494 8.325115529537872 0 0 0
283 1 1.6049201207205623 10.57200346232239 8.247789425193641 0 0 0
450 1 1.5743116302858922 8.760074482436307 10.150819922565192 0 0 0
477 1 -0.06727242301445141 10.666929798634179 10.125475209169407 0 0 0
481 1 3.3945438463415103 10.794693415023747 10.140890088973794 0 0 0
264 1 7.195703413898813 8.828296545584728 8.329837439153728 0 0 0
287 1 5.168378153192241 10.417441057681659 8.488823984234468 0 0 0
454 1 5.301254960887157 8.8721004717054 10.133690402657415 0 0 0
485 1 7.091050281486556 10.597907316616014 9.896451915519132 0 0 0
268 1 10.532211218119395 8.835596266864773 8.194129664304516 0 0 0
291 1 8.810356461096507 10.634183638563599 8.302964511048046 0 0 0
458 1 8.867316394375823 8.875924864735692 9.980045716056562 0 0 0
489 1 10.60517827363858 10.625916979465122 10.04016488765178 0 0 0
272 1 14.152288832720757 8.846045114606763 8.316889420795235 0 0 0
295 1 12.455554641868696 10.682242035416374 8.219835332547923 0 0 0
299 1 16.020551795269032 10.737305514878427 8.113541347265448 0 0 0
462 1 12.330579179521079 8.924271037470005 9.970801703451187 0 0 0
466 1 15.892914383173053 8.763193925300397 9.904980239603965 0 0 0
493 1 14.199840656652086 10.662972344053053 9.913691583682652 0 0 0
276 1 17.769314612819695 8.804807001901876 8.252931099920756 0 0 0
303 1 19.51095915962849 10.642284702513042 8.116002879630436 0 0 0
470 1 19.482363341803477 8.789512058099975 10.06096956130683 0 0 0
497 1 17.73955960247497 10.559873343326379 10.003181267546415 0 0 0
280 1 21.304302179664372 8.936424870890999 8.200863074219853 0 0 0
307 1 23.134700602333925 10.617676003530176 8.283479039307831 0 0 0
474 1 23.20108123507001 8.897678129482346 10.114124808032265 0 0 0
501 1 21.369044591572322 10.548917915200239 10.165424716812561 0 0 0
284 1 24.82834285789819 12.474089378469818 8.222564902923065 -1 0 0
288 1 3.4316741184135107 12.365933661210432 8.191849489398459 0 0 0
311 1 1.782877589373936 14.205787675635934 8.385360321892364 0 0 0
312 1 0.0827924130306705 15.930214778926484 8.374277737790358 0 0 0
316 1 3.337287696616506 15.949205906819941 8.370576335815366 0 0 0
478 1 1.668378068377092 12.478201190154238 9.964941470937386 0 0 0
505 1 -0.08601300992793744 14.051525260466116 10.162385440754466 0 0 0
506 1 1.7712624861352388 16.018304611784927 10.140105516869069 0 0 0
509 1 3.4950494572340505 14.013330299798982 10.208130584025595 0 0 0
292 1 6.978186492620979 12.387440572599052 8.229564884773357 0 0 0
315 1 5.201476955885829 14.170144087217384 8.368398982254023 0 0 0
320 1 7.1248487012920245 15.868011919198933 8.196105848494694 0 0 0
482 1 5.278550431814981 12.363189611462365 10.244925322291937 0 0 0
510 1 5.242039674980226 15.99304114977015 10.058944632302143 0 0 0
513 1 7.030437659915874 14.151774749871404 10.023624208094049 0 0 0
296 1 10.59352883823738 12.384838777002658 8.0875569414989 0 0 0
319 1 8.827770685419292 13.996532375429126 8.308342652398242 0 0 0
324 1 10.654077133213782 15.877075297630093 8.121257529284991 0 0 0
486 1 8.831287060604131 12.337942125738223 10.029905874892311 0 0 0
514 1 8.8499644726854 15.909039264865065 9.932264385574639 0 0 0
517 1 10.723527028235623 14.144861760303476 9.826579553355634 0 0 0
300 1 14.181802959090303 12.456495917373612 8.298144982531598 0 0 0
323 1 12.400335303533371 14.14696403764528 8.093725618244417 0 0 0
327 1 15.941814771182457 14.03331351766523 8.145806685135064 0 0 0
328 1 14.134278036231752 16.059313604615205 8.046277079523508 0 0 0
490 1 12.28670287768041 12.431398653480347 9.979649479212949 0 0 0
494 1 15.947020484177958 12.525841468207858 10.051382922715408 0 0 0
518 1 12.412336655682024 16.02434261062723 9.839347478710874 0 0 0
521 1 14.154464725077965 14.171896305504772 9.900407234016159 0 0 0
522 1 16.017275331253956 15.915763787441009 9.87971849874464 0 0 0
304 1 17.88260788882686 12.513137212647697 8.217306827709287 0 0 0
331 1 19.609022415409026 14.197661568057642 8.190855623550704 0 0 0
332 1 17.853392336319995 15.912284233247082 8.257929530687463 0 0 0
498 1 19.595277226644075 12.298983726456179 10.068951241513743 0 0 0
525 1 17.83987530229054 14.120010903674855 10.062285080903417 0 0 0
526 1 19.57839794285926 16.007886101356515 9.947023188855471 0 0 0
308 1 21.34436234280848 12.31892199032351 8.31880375475588 0 0 0
335 1 23.18825552406125 14.19580654430797 8.329654849549735 0 0 0
336 1 21.45350399412886 16.002272629021267 8.284482220573032 0 0 0
502 1 23.04843983048398 12.383235505660531 10.169549165006014 0 0 0
529 1 21.359994276601647 14.261384604978058 9.966931393003385 0 0 0
530 1 23.326081510146228 15.882931982074762 10.10649354060443 0 0 0
339 1 1.7135385311779514 17.82899961838481 8.344393059361842 0 0 0
340 1 24.84389448162981 19.594997012087813 8.40154035481553 -1 0 0
344 1 3.4798268971130994 19.570789421884147 8.365553391437349 0 0 0
533 1 -0.026305706271143287 17.714366822680574 10.113055505070998 0 0 0
534 1 1.6978661433981492 19.551562939695142 10.139518452823825 0 0 0
537 1 3.4524586825150143 17.769099171003607 10.033503266451007 0 0 0
343 1 5.261993208664573 17.69684870081154 8.21941371552948 0 0 0
348 1 7.2066165764310695 19.547643159044785 8.174199867317647 0 0 0
538 1 5.220252035590709 19.525081734485106 9.981786051093021 0 0 0
541 1 7.019988333537705 17.66397613130868 9.91522667648606 0 0 0
347 1 8.976532555851723 17.60417174071946 8.179533177343568 0 0 0
352 1 10.63916521691188 19.438205019724215 8.368805625689074 0 0 0
542 1 8.821266388668393 19.293368519288617 9.986768458745063 0 0 0
545 1 10.58241681318447 17.614678975196025 10.06535361731395 0 0 0
351 1 12.498409916646017 17.8887036890659 8.149801107862118 0 0 0
355 1 15.95463904269447 17.72828493955269 8.13782341928314 0 0 0
356 1 14.342012198865698 19.68881582232768 8.346736170418897 0 0 0
546 1 12.567858330955648 19.389521065556817 10.132605392013248 0 0 0
549 1 14.28795537126625 17.563881895357518 10.039899997126906 0 0 0
550 1 16.010836421110028 19.374598394569475 10.278226288416345 0 0 0
359 1 19.60794623944965 17.733246630794554 8.223194816272542 0 0 0
360 1 17.837235931982256 19.72663343274165 8.21932943217832 0 0 0
553 1 17.7166311490761 17.812334764838507 9.94125341484239 0 0 0
554 1 19.69787966005423 19.516599824448402 9.999325234155954 0 0 0
363 1 23.34627199689059 17.612907080592297 8.26757069757186 0 0 0
364 1 21.300883089825582 19.42944699879623 8.293953667447159 0 0 0
557 1 21.453303458039713 17.79329025097455 10.031160753480819 0 0 0
558 1 23.076855393686277 19.46653425989192 10.174924691007064 0 0 0
367 1 1.7024681744547807 21.44231680030056 8.331357989879477 0 0 0
368 1 -0.08445057955264003 23.156583210053142 8.297161373830331 0 0 0
372 1 3.41691398131326 23.109325172010852 8.221505609899573 0 0 0
561 1 24.86504726928316 21.406272308007694 10.174950168722965 -1 0 0
562 1 1.6598986879972197 23.16386615406864 10.047051456875707 0 0 0
565 1 3.482380993484947 21.350101440968032 10.04149049757314 0 0 0
371 1 5.330209106677927 21.394809011072173 8.222310816228854 0 0 0
376 1 7.120150392164703 23.094045284736477 8.396813623211525 0 0 0
566 1 5.270141399610336 23.115358160816506 10.065906362471512 0 0 0
569 1 6.931408785541905 21.31717394913917 9.968566862657042 0 0 0
375 1 8.842188051539903 21.349610210048596 8.320579996989505 0 0 0
380 1 10.641468449563783 23.037451626154528 8.435675520718224 0 0 0
570 1 8.71882278594864 23.14917504709292 10.20963955914527 0 0 0
573 1 10.625361442035446 21.30299843400234 10.011829235121422 0 0 0
379 1 12.42210588781963 21.289635707396528 8.375892870222813 0 0 0
383 1 16.008364944745768 21.520807108096882 8.277212886463538 0 0 0
384 1 14.250650976068863 23.124768300930757 8.30507984456466 0 0 0
574 1 12.403343006495593 23.07497578308658 10.089546521780708 0 0 0
577 1 14.266062227616631 21.310382716695432 10.186236226310053 0 0 0
578 1 15.955938963385893 23.061040279429516 10.118525234683165 0 0 0
387 1 19.392449376590562 21.360267523155205 8.245457619410953 0 0 0
388 1 17.82872685359277 23.279324188282615 8.311762546366047 0 0 0
581 1 17.78191933506306 21.234874890156117 10.128686078599344 0 0 0
582 1 19.560026076534562 22.942369441828024 10.030276931881353 0 0 0
391 1 23.047483518463654 21.259080314956616 8.25626544946482 0 0 0
392 1 21.3560650161803 23.109214487495443 8.291385749518174 0 0 0
585 1 21.34513489817491 21.239240470964504 10.103762510299951 0 0 0
586 1 23.068790355626106 23.051590455320202 10.09634414095147 0 0 0
395 1 1.5936570733265372 24.884815572403287 11.840244713985602 0 -1 0
396 1 -0.06646724658933625 1.699535147416529 11.773123927245983 0 0 0
400 1 3.575928870490361 1.777166981154059 11.854710024968906 0 0 0
423 1 1.7680778686804288 3.43709379647175 11.843261427941458 0 0 0