LAMMPS data file via write_data, version 29 Oct 2020, timestep = 20000

1008 atoms
1 atom types

0.0 21.264 xlo xhi
0.0 21.264 ylo yhi
0.0 24.808 zlo zhi

Masses

1 58.933

Atoms # atomic

517 1 3.3552258116679425 2.9984358510073568 1.4382421325290087 1 0 0
695 1 3.073857008267443 4.227140579839683 3.4918612144549988 1 1 0
677 1 1.265589447906443 2.2126555400117116 3.3250542107011887 0 0 1
860 1 0.22279249562889802 1.8418508940591394 1.2982691510058093 1 1 0
477 1 3.0292349845155533 1.370290240939404 2.6410789053370247 1 1 0
799 1 0.5978662891581815 3.9711522965071793 1.3105866714213392 1 1 1
765 1 5.893875141160514 2.0090838530858375 0.4236228131513616 0 -1 0
1006 1 8.064248708230618 0.6068592140077421 3.323165806615769 0 0 1
740 1 8.24481325201955 2.7387606940001006 1.8309852620152092 1 0 1
532 1 4.541972729708442 4.066730266301555 0.1496146996291543 0 1 1
166 1 5.800277018343561 3.9443416533289173 1.7745964762593502 1 1 0
559 1 7.66942661460515 3.767812177979866 3.4992414742986164 -1 1 1
731 1 5.478874415552174 3.3009995912425456 3.6972934477513237 1 0 1
57 1 6.4011124378712445 1.9126742629949398 2.5553299505299414 -1 0 0
283 1 10.86901475068967 4.004989692975755 4.085853777133525 0 0 1
18 1 10.918378092802143 1.6081212870995898 0.90528771167918 1 0 -1
241 1 11.549341056287673 1.7116202737673467 3.973040633703522 -1 0 0
747 1 8.955204810930173 1.5226255492054293 0.6706260191070733 0 -1 1
662 1 10.885534373633009 3.2682291544060735 2.012916805079297 0 2 1
647 1 14.286055472535338 3.6216055314765345 2.9948592267400955 0 0 1
801 1 16.989861884024965 0.1645091005499141 3.2167709129772617 0 0 1
492 1 13.261582488721267 0.46109360552243317 0.46695857196696205 -1 1 0
582 1 14.877981401100746 1.3547128976454508 1.8078499146179663 -1 -1 0
880 1 16.780634282454482 3.561599062686013 0.332125253610593 -1 0 1
878 1 15.94859569288075 1.5914040295499958 4.058576753641966 0 0 1
642 1 13.47260359774168 2.090509994672996 3.216430062975398 0 0 0
950 1 14.880547853259731 3.6325228334467683 1.1806151987634081 0 0 0
939 1 19.102026842974983 1.3216703287281921 1.6285605405597972 -1 0 0
9 1 19.493417940512302 4.007590455809552 1.717498827421251 -1 -1 0
973 1 20.098287368374244 0.5527506818652256 3.0804971375074435 0 0 1
729 1 20.71076742996942 3.9215164212176195 3.646290173240705 0 0 1
573 1 19.100481780241765 2.805288554679072 3.896485512205726 0 1 -1
132 1 17.259316001670058 2.382461274402177 2.7238221326197585 0 0 0
846 1 17.07180806337527 1.4581028076716627 0.8465790327702576 -1 1 1
870 1 1.2390651735578755 5.716056464385364 2.57059017318065 1 0 2
630 1 4.178968203468554 6.862565502049602 1.1222758044810317 0 0 1
24 1 4.206027392305292 8.270220706734776 3.471898870429492 0 0 0
233 1 2.523846673439931 7.135906842540583 2.7558847084507403 0 1 0
50 1 0.13076249480702448 8.003993629402324 1.588056688401938 0 0 0
476 1 6.062151542158358 5.89306589451655 1.6874859072748067 0 0 0
186 1 6.008576825125235 7.905307082612681 2.9719832286735532 1 0 0
671 1 7.479092118527832 5.715312259434253 0.00900910850457249 1 0 1
430 1 7.654469157499797 7.852741858335811 0.5875608217942743 1 1 1
728 1 12.347365184855096 4.828813685499225 2.083959957092813 -1 0 1
331 1 11.753803387284599 6.0072371404917355 0.4344349684820082 0 1 0
902 1 8.5476878231909 6.591716715880427 2.6281731957718937 -2 0 0
429 1 9.724557239079767 5.31656834747303 1.735613375472653 1 1 0
1007 1 15.853367590466672 7.4916422854953835 2.36759918113993 -1 0 1
391 1 14.368656267348106 8.116046734759687 0.23135868223004574 -1 1 0
353 1 13.097680273574207 7.634830683078723 1.77270226170407 0 0 0
639 1 16.209162318392686 5.3685184914167845 1.4763382002881575 0 0 1
863 1 14.54555999971216 7.013545970657132 3.799578867175766 0 1 1
500 1 14.032408791906088 6.114606373546859 2.262863502859038 0 1 1
92 1 14.031240564456928 5.782433372222307 0.4608907393517437 -1 0 1
62 1 15.97892244924898 5.296104444217828 3.8604071332277115 0 2 0
771 1 20.240075467742496 6.3020241598746205 1.188458208843619 -1 0 0
355 1 17.777984519527347 6.7417862629828775 3.018898017198726 -1 0 0
565 1 17.617370436027777 7.916225603509168 0.9837662860618221 0 -1 0
672 1 20.551814688290392 6.004522251790423 3.7701872845695936 -1 1 1
54 1 18.15393336466325 5.830106152014609 0.8604244299943706 -1 1 0
379 1 19.204990070094873 7.977257603481447 3.2027181793585506 0 0 0
182 1 1.1318491057031892 9.527202571157844 3.1510594134134107 0 0 0
417 1 4.243286313736458 10.129671924321475 1.6047611142749774 0 0 -1
98 1 2.592202395585124 12.622531598906358 2.0365015071209935 0 0 0
659 1 0.37911948106100724 10.584852958993553 1.8871231882017272 0 0 1
484 1 2.5051460454731305 8.74930162786884 1.0400297209899068 0 1 1
823 1 1.0216518780807247 11.424369689990446 3.460964135035641 0 0 0
123 1 6.510166129852703 9.921714400022106 3.866323276138283 0 1 0
598 1 7.943498097432118 10.216633339881499 3.2022432273369907 0 0 0
537 1 6.356204797327588 9.11259613801942 1.6493280895636209 0 0 0
238 1 4.384975659835201 10.852896734016504 3.7474220618727148 1 0 0
510 1 6.083529752555987 10.894776399792255 2.065253020547103 0 1 1
778 1 5.71428430460178 12.704585484220468 3.770243889974795 1 -1 1
839 1 4.715332797950768 8.845090648714113 0.2741452954336395 1 1 1
472 1 12.222203888956344 8.660769886972401 0.05038060457161819 0 1 0
198 1 10.433410935095983 10.875299352711021 3.4832365905190983 0 1 0
900 1 8.86752842786643 11.524109132254804 1.6009362795733488 -1 0 2
175 1 9.044310610660155 9.257863821789638 1.5119013943772062 -1 -1 -1
806 1 8.850263916877918 12.392617457049464 4.131653981267622 0 0 1
732 1 12.419834506935244 8.656961188707124 3.494865993777557 0 0 1
82 1 11.993082427983671 11.192802810009116 2.7540762734653823 -1 0 0
914 1 11.131738646830653 8.845174129572108 1.9372582916125698 0 0 1
993 1 10.67985685347802 10.353629224334306 0.659242958763293 0 0 0
654 1 13.954911750343344 9.956247469774468 1.6171091285082682 -1 -1 1
669 1 15.115904546218731 12.141056865500039 0.10658496566730322 0 0 0
56 1 13.084581988381204 12.289192464927016 1.228898867721524 -1 0 0
303 1 13.115448572195042 10.534656685377971 0.08164678033545458 1 0 0
835 1 14.70669929666498 12.454918875549195 2.4947767146751745 0 1 0
488 1 16.514322906230433 11.249101798857362 2.7560710789397582 -1 0 0
180 1 13.738626297884107 10.58510898160741 3.4743370054655625 0 0 0
44 1 15.899546277412963 9.606425097845012 1.5498733211011393 0 0 0
650 1 20.001205985015734 12.279061358576387 2.180470677057936 -2 0 0
894 1 17.601368384294357 12.592917240181976 1.6213848473973027 -1 -1 1
452 1 18.1101923573202 9.50128804980315 2.4383561831570986 0 0 0
350 1 19.583393945036196 11.496590047456499 0.681728852524189 0 0 1
832 1 21.242754454169923 12.034828085329757 0.010789096830393419 -1 1 1
328 1 0.1221481338076157 16.083247100500618 3.8750237746215714 0 -1 0
363 1 1.008591412368607 14.368950011539003 3.9364777216183127 0 0 0
781 1 1.6119496966586329 16.616158801734603 0.5187208716359454 0 -1 0
821 1 0.4896761104492841 12.81998291955887 2.4231697363210247 0 0 1
709 1 3.9648524671995267 14.29314636814798 3.8348147030023023 1 -1 0
741 1 3.5907751105161414 16.449661461159067 3.302498345311286 1 -2 0
28 1 4.133673813028636 16.519407650551447 0.37340642518116596 -1 1 1
833 1 2.4232739420653626 14.794357836605375 1.325264917397981 0 0 1
604 1 5.6991594646818555 16.45438598812762 2.426936978406721 1 -1 1
1002 1 7.677448884864385 15.513217312535902 2.684552799670294 1 0 1
224 1 4.327716866839954 12.991970727144686 2.1009467774570414 0 -1 0
425 1 6.078239515799965 14.043654467409537 0.8012911790117861 1 0 -1
60 1 8.027312789673426 14.78608249980908 0.15731786557267569 1 0 1
982 1 4.3316456381768 15.261484871506278 1.8618548004326188 0 0 1
594 1 7.033918736003162 13.002264988660075 2.716685926802996 0 -1 0
137 1 10.217487449825466 14.505744537328319 1.1384309939051112 -1 -1 0
101 1 9.472913186504943 14.122924740658378 2.8667855640835294 -1 0 0
857 1 11.133065843829304 13.185351730050028 3.065724449073778 0 1 0
624 1 12.620280673319849 16.117437113455637 3.9959440003518507 1 -1 0
580 1 8.843721074011194 13.070671833323809 0.8114248997179352 0 -2 0
327 1 9.741593119529417 16.758046885613705 0.7119620057320711 1 -1 1
338 1 11.250056761895753 16.098026321235167 2.301567793413361 0 -1 0
149 1 13.552356538823904 16.315002451785926 1.6146563042035604 0 -1 0
955 1 14.249614782354959 14.516354291476786 1.2198860577293094 0 0 1
30 1 14.583958026166615 14.543873970844073 3.443169394764319 0 -1 -1
692 1 16.242728604458343 15.70252016334731 3.091392944553764 0 1 0
151 1 15.847135276376543 15.669909600312524 0.4344186192370611 0 -1 1
35 1 19.843275430291815 16.469645858245194 3.0931296669264174 0 0 0
932 1 19.313800717166934 14.773774698147259 2.4945032900802717 0 0 1
1000 1 17.5669700626074 15.01486981783189 1.224144600395161 0 0 2
494 1 17.20995923655089 13.757662772414388 3.2689219157447598 -1 0 0
992 1 20.932185767381174 15.355770934164006 1.349877585375227 -2 0 1
928 1 18.55869469435044 16.740036685528896 0.7794633134766499 0 1 1
701 1 2.234728862678952 19.20026022500273 0.43989013461820564 -1 -1 1
337 1 1.2009965109573464 18.307093412275673 3.2867725266901817 0 -1 0
752 1 3.2676441962005667 17.898213877274085 1.536185113760368 1 -1 1
711 1 0.31208128651295386 20.265220609836817 0.16118077930422212 1 -1 1
240 1 3.1888551961801976 20.196097876626975 3.4190804243638437 1 1 0
502 1 1.40078505607864 20.558433997827013 2.7456982630093183 1 0 0
431 1 0.2823927143188358 17.776098317334306 1.1358672117924322 1 0 0
712 1 4.7561715227783505 21.069104297993878 3.3873840094001006 1 -1 0
499 1 4.61424613496659 18.36936457000435 2.7694146531113555 0 0 1
800 1 7.10639159420649 17.618046135560462 3.547393362160913 0 0 0
984 1 4.629011374522753 19.65911279345893 1.7014277244203604 1 0 1
805 1 6.964338467760495 21.181838422270626 1.2076930949249778 1 0 0
794 1 5.330373282497911 18.192437371431417 0.8031618688467322 0 0 1
36 1 7.317231479709937 18.2218223299336 0.03258599370908105 0 0 1
64 1 8.248344082345556 17.420010533037562 1.8485789601508904 0 0 1
433 1 6.890268900609312 19.73407514084975 2.5757642725022283 0 0 0
608 1 10.461491947038782 20.731047895552283 0.1398235066483681 0 0 1
947 1 12.065782117560877 21.259155225347378 2.8184363869934566 -2 0 0
990 1 10.690133080375583 17.49837294962856 3.652950403434661 -1 0 1
803 1 10.052404149899024 18.607593555024213 1.4040088176413268 0 -1 1
203 1 9.410059543846591 19.117912268704135 3.1006357514108753 0 -1 1
614 1 11.617169942057155 19.41762061390674 2.401722358617131 0 -1 1
576 1 10.13079566828074 21.223367336286373 3.2802079175768877 0 -1 0
564 1 8.655365701821697 20.33811947029305 1.0290769771523987 -1 0 0
229 1 12.149210762412974 17.806873273000278 1.5566053332785155 1 0 1
402 1 16.362277460691658 20.30970885710943 0.8561865195522133 -1 -1 1
37 1 15.199529659162971 17.43359997627117 2.816420374101841 -1 -1 0
288 1 13.19690081180457 19.11336868524757 0.3746376829253083 1 0 0
785 1 16.23885095269913 19.624694886967646 3.1299302544530825 0 -1 1
474 1 13.70859768698772 20.631918767137996 2.0913375620532064 -1 0 0
986 1 14.529145682115047 19.096503277409816 1.5702504112360047 0 -1 1
998 1 16.2237313756941 17.60674516360045 1.5703839513564717 0 1 1
683 1 20.2832424535252 19.748001150314167 2.097101955410213 0 0 1
504 1 18.90442427736182 18.55916623477852 0.6929450661130315 -1 0 1
51 1 18.509129617972977 19.461149627971917 3.097401493886807 -1 -1 0
776 1 17.723814532345504 18.269931582053708 2.2840615194555145 -1 -1 0
886 1 18.205391236089426 20.28555010180804 0.9568291312834608 0 -1 1
913 1 3.2882358929996225 1.0885428431102386 4.769259307124329 0 0 1
678 1 3.7966594923672554 2.75587078412158 7.846429649812976 0 0 0
618 1 1.7469442562854407 2.8647326940055815 5.837473526466055 1 0 0
29 1 0.5254479923531817 4.14975486502401 7.942632251262216 0 -1 0
10 1 0.4469323498430854 1.3116796815264053 7.6135918039792285 0 1 0
807 1 2.6507106829481284 0.8162224200534509 7.121722410031672 1 1 0
726 1 7.257502505664217 3.274900153762752 5.861769634708444 0 0 2
715 1 4.434782988720239 2.9250075110342286 4.914197884232431 1 0 0
941 1 5.905468238341772 2.6913974883397036 7.135957711137267 0 1 1
498 1 5.825402080369989 1.2363254101457721 4.824685537425943 1 1 0
528 1 4.822338793775333 0.42384312033850124 8.027223681219095 1 -1 0
332 1 10.372022552116443 0.21989499519946315 7.7740164419343385 0 0 0
764 1 8.840098693759295 1.9587338118953723 7.035654725627037 0 1 1
375 1 12.091851293957191 2.566107883916952 5.906859775622605 0 0 0
358 1 12.126174781040623 0.20088233527395463 5.466343974910746 -1 0 1
977 1 9.387718427892404 3.13182523274764 5.282412749557668 0 1 1
164 1 11.430285722299397 4.040881996945611 7.150788048933667 0 -1 0
297 1 10.145059658890409 1.2966474164128254 5.116285198194894 0 0 1
269 1 12.51204350204879 1.4483046049410642 7.61292883675464 0 2 0
844 1 14.486736592257289 3.6235310905995495 5.107818889199611 -1 1 1
157 1 14.563585733694177 0.3018797542055523 4.652204448475655 0 0 0
381 1 14.325287139301096 2.3862247468203397 6.710298579270996 -1 2 0
930 1 16.498353167691956 3.7756826449858076 5.069497066362555 0 0 1
169 1 16.35888659809191 0.2251869668002051 5.546130904498835 -1 1 0
183 1 16.441227190867014 2.8235094948961112 7.617544050776361 0 -1 0
267 1 17.243469088134702 0.8817157459766743 6.959636142753924 0 1 0
347 1 18.040764293191117 2.4345813239039686 5.452612113356516 -1 1 0
562 1 19.983644956642923 2.9332021244599127 7.413641105876245 0 1 0
345 1 20.897267900783888 1.672107446590555 5.6675163676362095 0 1 0
758 1 19.723728732504505 0.5400632839929402 6.697463692928407 1 0 1
1 1 18.260745776730882 0.4171545030517265 5.024574384511596 -1 0 0
89 1 0.640859013347299 5.048485630397567 6.165950411230473 0 0 0
569 1 2.552225496561517 5.251332850063355 5.139335098580563 0 -1 0
3 1 1.2482462543823598 7.067703136788311 4.322690071992568 0 0 0
858 1 2.3464648143490856 5.995230279461482 7.4458786606507115 2 1 0
733 1 3.50167916601552 7.231509920739124 6.269914578160479 0 0 1
795 1 7.276120901596275 4.612417057899132 7.237629503039151 0 0 1
423 1 6.421787665577363 5.9918253596703055 5.28686667567572 0 1 0
859 1 5.830880987730678 8.049858343058336 5.4462673822219445 1 1 0
541 1 7.926340362881948 8.28404379421324 4.51610405404263 -1 1 0
746 1 8.284016853680315 5.787277415513234 5.4957074287348195 0 0 0
81 1 7.353743982308387 8.026075217416631 7.499955563127333 1 0 0
809 1 4.480500936487064 5.826428656659805 4.236382008630439 1 1 1
891 1 6.066365117790199 6.547633658492463 7.5409530577804045 0 0 1
757 1 4.918471418592533 4.778499735879576 6.8294249123984825 -1 -1 0
192 1 10.127898652732707 8.411757031237057 4.310481140473696 0 1 1
211 1 12.621583436627548 5.123623738375764 4.83412552865486 0 0 0
689 1 9.954836879201133 7.588453580555169 7.6925523105254445 1 0 0
118 1 10.23580864302195 6.112619240279968 4.457893219960244 0 0 1
744 1 11.531028072938172 7.705099130440962 6.063479739214029 1 1 0
944 1 11.921147978295362 7.010870645718112 4.209898830498637 -1 1 1
553 1 10.381547165005616 6.059211759070547 6.288476654451382 0 1 0
700 1 8.886881421582384 5.736810768750845 7.651845882533652 0 0 1
543 1 16.210345496128262 6.4771804568944775 5.46248470066626 0 1 1
8 1 13.887740116497348 6.670623475451762 5.677012861723553 0 0 -1
112 1 16.706881559157075 6.229530345175688 7.275249154202559 -1 0 0
789 1 12.917204698911235 5.936671310224061 7.115414374066218 1 0 0
937 1 14.619276611614389 4.816453830881197 7.288079743501913 -1 -1 1
851 1 14.91054249053548 7.089827277493321 7.822206823105581 0 0 0
979 1 16.540190864809794 8.121863445317958 8.061212060115569 0 0 1
40 1 18.346805860503483 7.133404219513449 6.456555019266333 -1 1 0
398 1 18.17757170973586 4.569943832262139 7.202310498531682 -2 1 1
921 1 19.576803288977786 5.12896098266131 5.255814279958917 -1 0 1
775 1 20.36861651533195 6.862050609303022 7.950346654080365 0 0 1
411 1 20.222305482018182 7.012081187866865 5.734396018245369 0 0 0
983 1 3.0934107871754066 10.218623108259475 5.452973223177058 1 1 1
831 1 0.6564981079585035 10.04557119451865 5.370741293327082 0 0 0
384 1 2.627144544056501 11.729554068856604 6.443005383573738 0 0 1
817 1 2.2712973867075887 9.129079688659152 6.894728056581458 0 0 1
2 1 2.405491992969232 12.419452441558109 4.138241378382013 0 1 0
221 1 0.942339900198169 10.43279506734637 8.044498253914073 0 0 -1
508 1 6.505508629121028 11.796800714470645 6.580753805872705 0 0 0
995 1 7.036663730636521 9.754075863595888 6.209918856545718 0 0 1
266 1 5.467301510056998 10.90571423622821 7.988465550352918 -1 1 -1
468 1 8.33420783260489 11.63621661319941 7.405424983144886 0 0 1
190 1 4.621871655371646 9.5400419488048 6.272791511060153 0 -1 0
290 1 9.378004930266727 9.105158792389734 6.607457456956824 0 0 1
136 1 11.879459535120546 10.214985524484504 5.151289201257725 0 -1 0
298 1 12.338812993156916 12.291641897080355 5.256788887799696 0 0 1
362 1 11.714384332623865 11.950105468332758 7.1261353223553074 -1 0 0
509 1 8.774601344458395 10.76932602261615 5.202015073240373 0 0 0
418 1 10.657700138829782 10.812755682085896 6.262523535294838 0 1 0
666 1 12.817868915781384 9.061957538046782 6.80954484057084 1 -1 1
734 1 15.133469180772696 11.997219347608526 6.644808068405099 1 0 0
143 1 15.219604023804223 10.627974234922597 4.873294701415668 1 1 0
667 1 15.183982527387752 9.685921056216861 6.711266526579935 1 0 0
882 1 14.541707611760867 8.798460474720171 4.139259513590968 1 -1 0
63 1 13.72922865579882 12.751087315774404 7.528173508871074 -1 0 0
539 1 16.77723518697359 8.531471708279382 4.3472945126758455 0 -1 0
215 1 19.450359017424407 11.343647797341472 4.17366999542815 0 -1 0
248 1 20.898927805044895 11.612758546287724 6.7853455019017375 -1 0 0
526 1 17.4782573505387 9.173552492089195 6.581096663210965 0 0 0
889 1 17.426106417167393 10.37187155683919 4.6304035487412385 -1 0 0
138 1 17.520466599479768 11.420658991780764 6.821833996497073 0 0 0
154 1 19.590488002234274 9.510697307467758 5.126408153167006 -1 0 0
603 1 20.722974065062406 8.74912022492429 6.867522608292165 -1 0 0
493 1 19.569304806363938 10.65254602741852 8.146948654934771 0 0 0
682 1 3.06147216886974 14.764097432268944 5.823429576020688 0 0 0
855 1 1.2946116103041263 15.484173626199256 8.06597853313766 1 0 1
231 1 1.4850103317402594 13.297711457454126 6.0355526280281655 1 -1 0
14 1 0.46534185901813885 15.884724929215325 6.4228782516248515 0 -1 0
279 1 8.458081027045976 15.256958508883853 4.983152027792833 0 1 0
389 1 6.525492039460156 14.66700599324821 7.022327120402574 0 0 0
348 1 4.6245196171276355 16.231607429361738 5.6567534252572225 1 -1 0
31 1 4.303295069451223 12.819523471116748 6.4634237754444435 0 0 -1
641 1 8.34297189268054 14.72571720656188 7.727916011445335 0 0 0
892 1 7.481076453858492 12.988937744831432 7.9730845471322285 1 0 0
770 1 6.458700893923171 13.50030565881173 5.38257105875602 1 -1 1
235 1 6.243639642107656 15.402708751293797 4.306499383764002 1 -1 0
397 1 8.617690728210457 13.087889220527462 5.971293491437493 1 0 0
396 1 11.223113217887544 13.956123747375548 6.622734414156012 0 1 0
524 1 10.442080258663626 14.957652053977636 5.32902648648045 -1 0 1
536 1 11.092754151257108 15.813807708713123 7.623139197704027 0 0 1
567 1 8.933944910146813 16.51550049473241 6.8796618489317 0 0 1
365 1 9.10530844327045 16.875668282532228 4.563502268268714 0 0 0
850 1 14.577982680557458 13.297074358695916 4.716434426278236 0 1 0
45 1 13.140476469133265 14.931410042427622 5.388730753460773 0 -1 0
763 1 16.551289961368198 15.024871862792665 8.092332483402366 0 0 0
786 1 14.950387971654155 14.892827563450528 7.018651363600135 0 0 1
97 1 15.441016813262081 16.19852346179026 5.55748107299671 -1 0 0
208 1 13.248232455206695 16.924132092592995 6.911474818698706 0 -1 0
735 1 19.907149348179736 13.24279078631426 4.422211835156174 -1 0 1
753 1 20.400609999961315 14.637635458116156 7.625752319904227 -1 -1 1
657 1 18.066756152164754 14.246132741459121 6.818311278562287 -1 0 1
516 1 19.57840864925792 15.384412902375011 5.712291897951873 -1 0 0
680 1 19.12006384077476 16.53346894859434 7.553248148490042 0 1 1
725 1 17.172588979009696 12.899899040477445 5.1856596395893115 0 0 0
141 1 19.577709929313418 12.90550852592138 6.527003325059216 0 1 0
320 1 1.932572082149708 17.2159297674245 4.83060391614236 0 0 0
304 1 3.0754861841253973 17.36245911841803 7.990897925953462 0 0 0
134 1 3.0505495319494753 19.77777182324216 5.4381374482278515 0 0 -1
613 1 0.6458987985019594 20.363566966249216 7.810136019962304 1 -1 0
602 1 2.7020720544287475 19.645968484609902 7.99052940412204 2 0 0
674 1 1.9465527364451398 18.10768228026717 6.686316996419559 0 1 0
194 1 0.9917902195864268 21.253739855415297 4.970741439523501 -1 -1 -1
409 1 7.188287743927862 19.983619988752398 8.182984565911555 0 0 0
585 1 7.042131538399975 21.160834776001366 6.536210615520133 0 -1 0
466 1 5.763767352000772 19.819281057270736 5.4609188373634225 0 0 0
622 1 6.419823787084569 17.05188569281335 7.853905955791256 1 1 1
108 1 6.738051433077719 18.3984006977969 6.730210466536451 0 -2 -1
525 1 4.377846904021981 18.116658055665447 4.83461818758953 1 0 0
958 1 4.651349459296745 19.501900670514548 7.091274343349454 1 0 1
840 1 7.553313690531537 19.75582354217645 4.450130392645531 0 0 1
797 1 11.942675006491465 20.73387402500169 7.249162312214697 -1 -1 0
544 1 11.803078473464007 17.6312113377534 5.825161562071125 0 0 0
885 1 11.85621063581686 17.657519993516857 8.091271095903146 1 0 1
260 1 12.726523089267012 19.5367463171088 4.794799105115262 0 -1 0
360 1 10.800992720297225 19.64985125339929 5.893891807027411 1 -1 0
766 1 9.006033643861556 18.707493888686543 7.550481760140272 1 -1 1
969 1 8.804973843085914 21.090554052483913 6.203909869204984 0 0 0
122 1 14.098957153716706 21.20512930205845 6.958144503310105 0 0 0
155 1 13.919704951147521 17.85652014071179 4.669514656194494 0 -1 0
649 1 16.73242994741088 20.00014512121755 6.674380923745952 -2 0 1
521 1 16.76406798571231 17.31037456049736 7.259671170764689 0 -1 0
230 1 16.134819071702783 18.087050466142255 4.84406725909212 0 0 0
109 1 15.030785309043923 18.37379671756942 7.215726165796605 0 0 0
121 1 14.899947442985592 19.566263689577923 5.905274889809181 1 0 -1
202 1 12.911510364562787 19.02961693910323 6.903644639454251 0 0 -1
335 1 18.385030454287126 19.160336242925794 5.649204658516867 -1 0 0
600 1 20.730096569760704 18.53287194034282 6.765402371093018 0 -1 1
439 1 20.745356186908502 18.10199731437533 4.73397557959802 -1 -1 0
25 1 20.645023934211636 20.10114616724801 4.678959882374107 -2 -1 -1
814 1 18.200102373033 20.66610289455972 8.215909547994132 -1 0 0
352 1 18.241624176250347 17.216073143620953 4.958696675253089 -1 -1 1
577 1 0.974282145304012 1.939586724914717 9.978490139129887 1 0 2
535 1 4.037663948241878 1.161231131537896 10.882939650596875 -1 0 1
745 1 2.0237496915159214 0.4820105601283827 10.902709201194764 0 0 -1
595 1 2.4984498902160626 1.3174958473028964 9.269210353534488 1 0 0
222 1 0.6737830156713529 3.7316994370551337 10.443846771106369 0 0 0
322 1 0.3130312044607176 1.0509535529878737 12.22463137485738 0 0 0
361 1 2.9464051541353378 3.4891870824761213 10.73226294518939 0 0 -1
755 1 1.8611012487291234 2.588159169797356 12.235318780019867 -1 0 0
314 1 8.231035900587116 0.7349275046405241 8.491928351365583 0 0 -1
453 1 7.154123015762648 4.156765814535383 9.389861315084126 0 0 0
547 1 7.3039272695614414 2.301430855141987 9.952620210729698 0 0 0
974 1 7.84508498023388 0.4842104984922861 10.65180974066922 1 0 2
924 1 8.440980256713615 2.2015634065658816 11.723188961065533 1 1 0
936 1 5.336796555120274 1.968129224247317 9.621325878350476 1 1 1
874 1 4.555641446136432 2.658008552980043 12.25027663142859 0 0 0
610 1 5.34394405336136 4.245544318816587 10.082503397683944 0 0 0
953 1 10.443406163735805 1.4733487995375096 9.792794686279406 1 0 1
963 1 9.907342678529666 4.04406251905183 8.359562587919234 1 1 0
292 1 9.196795402666147 3.578902893304788 10.383420564308006 0 -1 0
119 1 12.156903083264025 3.333388522197163 8.955815059815874 0 0 -1
77 1 11.880223449990055 0.6341335885848276 11.41854773772808 0 1 0
756 1 11.354419784452128 2.886508689291862 10.84093043069198 -2 0 0
370 1 13.439975757189963 3.155370219487797 11.944007984738125 0 1 0
343 1 14.526663638466003 2.918540322531469 8.709604203422511 0 0 0
864 1 16.38271830521171 1.8406487287674722 9.319959340753039 1 1 0
301 1 15.276411416666292 3.07105753513835 11.461740201492725 0 0 -1
988 1 13.135616118909148 1.2068760601701076 9.52340705661787 0 1 1
11 1 14.784234441915393 1.3312025939661882 10.648835045240435 -1 0 0
1001 1 17.19793505211348 4.003347580578408 9.46413632243069 0 0 1
93 1 19.01147093301334 2.8673276863906207 9.417426871098526 1 1 1
339 1 18.523554591565677 3.618647048076361 11.472485967130813 -1 0 0
980 1 18.708050198326653 0.5023874120751963 9.692492429552546 0 1 1
779 1 20.74126110271956 0.8575446414586795 9.496492232552729 0 0 0
495 1 18.216713093586698 1.7791601639613068 11.372515620900742 0 0 0
1005 1 3.8767719764388917 6.304011760148779 10.797553674155786 0 1 0
277 1 1.2414223991294933 5.54879276120883 9.602009048802636 0 1 0
916 1 2.6237693913615963 8.380170403371267 11.597604291963448 1 1 1
462 1 2.838133327634072 4.5022246053243204 8.749958516167483 0 0 0
546 1 0.5712064788499126 8.48634617100812 11.573702581444618 0 0 -1
168 1 0.6751671235017824 5.822179017318166 11.774417670037787 2 -1 0
968 1 2.6729947942255867 7.289791247666995 8.76577224388507 0 0 0
841 1 7.407682607428215 7.100677212844833 11.116636815121945 -1 1 0
769 1 7.017857038165409 6.467519237386084 9.741823207607379 0 1 0
826 1 7.596293367404274 5.027662779567475 11.591835168163403 0 0 0
385 1 4.5915300844383085 6.162513566767897 8.813438945135495 0 1 -1
16 1 4.742252322981838 8.418194080580928 8.523017955655884 0 1 -2
147 1 5.817431553925181 7.9572153263941 10.536610437584054 0 0 0
146 1 11.72190233440644 6.263203836246049 8.5379432439217 0 1 -1
952 1 10.252489801596289 7.69681168100555 10.36260384698517 -1 1 1
548 1 8.923708465339702 5.829468080970022 10.147055355182845 0 1 0
791 1 10.68392333589682 5.041146198762945 10.569884227476633 0 1 1
165 1 10.50702772770004 6.369210058757571 12.375522672473226 0 1 -1
281 1 11.800595200933444 8.064756396355886 11.54598770962262 0 0 -1
245 1 12.438024441149219 5.644130338607693 11.858949810421072 -1 1 -1
247 1 9.428920442219795 4.425913333036807 12.274775960757307 0 0 0
792 1 13.032693789866695 7.361133386201454 9.119449118801302 1 1 0
399 1 15.14442153683132 4.712445819413002 9.99797857817706 0 1 0
88 1 15.966092510195578 6.818088186878203 9.877900795114774 0 1 -1
985 1 12.815348834719039 5.489255819963638 10.338588322743847 0 0 0
366 1 13.732197441992664 7.024124540681817 12.132654445481336 0 0 -1
150 1 19.007193132670217 8.400633071342694 8.37186058337653 -1 0 0
465 1 20.457693744361592 6.52891335812354 10.478463814887444 0 -1 1
392 1 19.017588410709408 8.286771801495226 11.751419553071155 -1 0 0
626 1 18.288531637702857 7.2734092168949775 9.844916017555914 0 1 0
7 1 19.509668901385897 5.323781523862537 9.031558197658866 -1 0 0
825 1 19.977935082233206 4.963202146549861 11.675309129219084 -1 1 0
954 1 18.17545483793183 5.87377048763519 11.341888009634545 0 1 1
751 1 3.426028279728959 10.682647141875094 8.348381461527852 0 0 1
12 1 0.3354460618387172 12.557403580011265 10.696348856825253 1 0 0
736 1 3.8499022224049155 9.250902521071799 10.291921039728376 0 -1 0
761 1 0.7822518505752103 8.789010762755124 9.016334290291868 1 -1 0
551 1 2.0924065655575426 10.946836078985855 11.623357384435817 1 -1 1
621 1 1.6646149705434987 12.466136678197968 9.321671308667007 1 0 -1
334 1 4.303585035034879 11.406686894307724 10.313211803864451 0 0 0
959 1 4.845276536189135 9.346168268062382 12.202811388872245 1 0 1
575 1 6.497587787122542 9.533382984218722 9.244016160636638 1 0 0
408 1 8.406658168625265 11.185204920120265 9.95112408041059 -1 -1 0
368 1 6.017877509616101 12.121222355328525 11.633445387858437 0 -1 0
444 1 6.777155710223211 9.924931509308784 11.551192128893645 0 -1 0
549 1 11.817059414767359 10.968660176128921 11.751442387155942 0 0 0
586 1 10.416984269688946 9.848365336705273 10.335849968364883 0 0 0
759 1 10.11518357972902 12.3091988959936 10.725464237131842 0 0 1
78 1 8.796243821787584 8.657945181163374 8.706401893033654 -1 1 0
496 1 12.32924421940939 11.115815117014893 8.293484421630547 0 0 0
601 1 11.33439405202076 9.093503164113278 8.341148015288185 0 -1 0
957 1 12.568696242885547 9.492879695068353 10.491448749746079 1 0 1
107 1 15.190723434097503 10.986880111896797 8.916475225273976 0 -1 -1
513 1 15.766454280480847 11.088333900110596 10.964514835520653 -1 0 0
703 1 14.313654657355128 8.708880053456781 8.775433094173938 -1 1 0
377 1 15.187740711787189 8.58918310720249 11.068639558385334 1 0 0
861 1 16.81067279312837 9.699797006939948 10.004418047323947 1 0 0
834 1 13.818361318421536 11.649863045878208 10.47434585504446 1 0 0
607 1 19.359758288159384 9.486434495883573 10.389243334553685 -1 0 1
873 1 19.25026749564988 12.609604219600376 10.627845470649772 0 0 1
540 1 17.625163139241646 10.521878169859226 12.116816407336865 0 0 0
115 1 21.090942701755235 10.396390694508119 10.066600006481258 -1 0 0
661 1 19.507612706701003 10.473824341240817 12.32535715880389 0 1 0
161 1 18.12090400685109 11.070957924891223 9.54241980793025 0 0 -1
816 1 2.7878766827290846 16.981777924655425 11.05682070597426 0 0 1
342 1 2.911395299358057 15.107938142216888 10.003442944952463 0 0 0
997 1 3.8135729554821363 13.009245163860584 8.401443460137735 0 1 1
619 1 2.9683238334305604 12.958434233931522 11.668037074432073 1 -1 0
856 1 0.17187214217849417 13.116192389394135 8.3647504665064 0 0 0
275 1 0.5831255793075826 16.744982768508738 10.19716765551231 0 -1 0
413 1 0.056030191859875345 15.959478810703445 11.859861609122774 0 0 0
436 1 1.3658265497128421 14.281409666726619 10.86595256564688 0 -1 -1
632 1 8.495333181422057 15.911729031675218 12.380811054133325 -1 0 0
340 1 5.018200729835077 14.838642908722031 8.402690471535585 0 -1 0
905 1 6.928656839401407 13.954614676872097 10.153826874332443 1 0 1