LAMMPS data file via write_data, version 29 Oct 2020, timestep = 20000

1372 atoms
1 atom types

-1.721552645727666 26.529552645727737 xlo xhi
-1.721552645727666 26.529552645727737 ylo yhi
-1.721552645727666 26.529552645727737 zlo zhi

Masses

1 58.933

Atoms # atomic

473 1 1.4060156376913278 -1.4320167379180415 -0.9112337895460294 1 0 0
490 1 1.0804261416963654 0.31150456464384835 0.8002230504031882 0 1 0
958 1 -0.8593774827198349 -1.0719173928218888 -0.4207488726427113 0 1 0
763 1 0.05254027442039755 1.143846804327211 -1.1029818645392417 0 1 0
1114 1 5.95298182177817 -0.371735496003472 0.3312388172519709 1 1 1
430 1 3.693017808755367 -0.4722072440576146 -1.655675600181745 0 1 0
44 1 4.172311612101153 1.5067313217578464 0.07615808892846809 1 -1 0
1242 1 4.130006765325581 0.05130935087694222 2.1486115323768162 1 1 0
439 1 2.8308936373577147 1.970312872302285 1.6802917470916232 1 0 0
614 1 10.261269921650046 1.0999090385136396 0.20751850025912089 1 0 0
677 1 9.571052424675598 -0.939905621052453 -1.0788264193735313 0 0 0
1185 1 7.012538196598642 0.7883821496567047 1.969652431031908 0 0 1
506 1 13.096915683584285 0.6147460804642919 2.282282631026103 0 0 0
195 1 10.858442361989285 -1.4157899842907822 0.5052478218199887 1 1 0
257 1 12.414781951286859 0.43110641680203887 -0.7524468405202343 0 0 0
1056 1 14.244662211723535 2.1452831613688805 1.6175893428330617 0 1 1
559 1 16.341660659668005 2.0361787914514085 0.42435206052721064 0 0 1
851 1 15.696562370526586 -0.25793342637991157 1.5008844081147057 0 0 0
964 1 18.198691393654897 0.8598792636151824 -0.7281011320035863 -1 1 0
340 1 15.641135492542652 -1.5761986355668647 -0.6730532409114909 -1 1 0
777 1 18.949270227360962 0.815068315672427 1.9292265367818113 0 1 -1
781 1 22.42499773220174 -1.290532571608242 -1.0588126861793996 0 1 0
543 1 21.84123872029508 -0.3953792973010368 1.444382833187296 -1 1 0
122 1 20.600480219102618 -0.040759241135362334 -0.14857518678102788 0 0 0
1189 1 21.483577097928325 2.0281510914695056 0.28010810169932787 0 0 1
7 1 25.519211501892187 0.4851277582730895 0.88491359890982 0 0 0
11 1 23.53953429721705 0.8524820671143316 0.02227316889975617 -1 0 0
410 1 25.480218917201615 -1.4257902087632015 2.1051318928616816 -1 0 0
683 1 -0.3615737539733772 2.9773047391564527 1.9370785491783833 0 0 0
503 1 0.841450989523667 2.760140222800195 -0.004013773740538351 2 1 0
284 1 -0.49588645671310827 5.900450526274506 1.1526978252954811 0 0 0
613 1 -1.0996032152622854 5.714637149259508 -1.0706870796027141 1 0 0
41 1 1.1212261475022096 4.867631965569258 -0.75538162454753 1 0 0
798 1 4.202044664607361 4.3568662423644335 -0.5952562830018515 1 0 1
1184 1 5.667425734408215 5.893600879078773 1.0131748383082404 0 0 1
62 1 2.8225438163583796 4.515056995368479 2.3109434364941475 -1 0 0
1109 1 6.709457299816151 3.344608039602895 0.2474867074154803 1 0 0
383 1 9.327245606293312 4.443006081750436 0.02015403569258578 0 0 0
93 1 6.7073816814328975 5.65271097657328 -1.2005529214104094 1 0 0
438 1 12.61326768087358 2.554060893546409 0.32531659003072777 0 0 0
567 1 11.894550017460338 5.7365673603553695 2.0292621676501144 0 1 -1
849 1 10.865576159177468 3.4751801396833075 -1.466963646712486 0 0 1
563 1 12.776933361715937 5.250668849971146 -0.36383789690591617 0 1 0
71 1 18.11351168078155 3.735426179228692 1.432268381283834 0 -1 0
73 1 14.661242309780935 5.416390057271341 1.4710121638346387 0 0 -1
856 1 16.32896415889275 3.512682140707204 2.282678988968306 0 0 0
364 1 17.173462696602158 5.288767969543368 -0.22896489345294113 0 0 0
80 1 15.285123777388279 4.169912190584212 -0.8866613731594952 0 0 0
700 1 18.248564759044612 3.0195649788147376 -0.8600674614032684 0 0 1
459 1 14.72528266525746 6.083459965391066 -1.3242459618993598 0 1 0
1356 1 21.937340706479368 5.430900340076363 0.07087084173099023 0 1 0
791 1 19.98350025409505 3.900735873686237 -0.034316383253777616 -1 -1 1
554 1 20.286485828007546 2.4430086518004748 2.1944088620908726 -1 1 0
180 1 19.81065338039307 6.013633090556413 -0.7967020235441196 0 1 0
516 1 23.27087260857709 2.7957693227078666 1.4273539373905368 0 1 0
561 1 25.629984779322932 2.6833956698632297 0.7088416988203221 -1 0 0
18 1 23.566270691009247 5.468871508598012 1.2209151547401351 0 0 0
648 1 24.925437568955807 3.0315063134673643 -1.5110893696148382 -1 0 1
84 1 25.41245748012133 5.000729813147699 -1.671118747389006 0 0 0
1195 1 -0.13158279348430058 8.1025305639595 1.5997159180375142 1 -1 0
762 1 2.00659805317076 8.548261140816818 -0.10930154832447303 1 0 1
454 1 -1.5460302911378498 8.994263340336044 -1.3292761716657244 0 0 0
9 1 0.1815952083666279 9.98334608972504 0.4481895373613929 0 -1 0
360 1 0.2638892165216167 7.526770409426941 -0.7298654874449 1 1 1
1044 1 1.9449702003964027 10.08867769851536 2.136091664555077 -1 0 0
894 1 3.837696364827332 7.887643067468375 2.2636348370045156 0 1 0
1237 1 2.5482007693393394 6.491284818434531 1.5999336441589596 0 0 1
520 1 6.312329730160144 7.695983153308944 -0.2440946821018226 1 0 1
620 1 4.302144329381101 9.947955397054418 -0.7445459389995521 0 0 0
1128 1 4.210938504876518 7.092344284927746 -0.8890765363183725 0 0 1
576 1 8.231285308476867 6.96741529425524 1.2965882092727914 0 1 0
1085 1 7.629990081610407 8.94452098897279 0.9631570835110939 0 0 1
1274 1 9.300185878523568 6.898439511861046 -1.098736058231078 -1 1 1
452 1 14.253847562993778 8.6151161523972 0.43429246074914163 -1 0 1
186 1 11.536498437292401 7.735006439752455 -0.8165236581691001 0 0 0
589 1 11.768725572145673 9.770172405720752 1.0461778008191431 0 -1 0
1254 1 12.436093126054311 8.041789673494424 2.0743285702723777 0 0 1
74 1 17.216394719771568 7.212307531319343 0.7091624253680551 0 0 0
650 1 15.512844599957297 9.182244729298898 1.9357044210313572 -1 0 0
934 1 16.724248642335 7.94750497178836 -1.392931572392431 0 0 0
1095 1 19.376587797642767 6.580031812274905 1.7039042326064888 -1 0 1
892 1 19.851766787330263 8.667933743322584 0.5774781100685376 0 1 0
57 1 20.90188683320419 10.365964301234532 2.0963321553569547 0 0 0
1015 1 24.48936355821295 8.927908349274206 -0.6816004312128612 0 0 1
159 1 25.9788227040678 7.1312595350434105 1.030403458953681 0 0 0
1212 1 26.332381765631055 10.231716614488455 0.9140034188330071 0 0 1
239 1 24.48393237669932 9.917281171259443 1.7241857947294377 0 0 0
732 1 25.049909292166713 6.920050364042753 -1.6640795695716164 -1 0 0
1288 1 23.113218119147398 8.041410008063853 1.3254521724324548 0 0 1
197 1 -0.9191918350188316 12.316213061697981 0.5771687880969734 0 0 0
1337 1 0.6376979221008217 12.653545303808848 -0.8523202784537875 0 1 1
346 1 1.9767742152788461 10.764502193116682 -0.2803039594015162 1 0 0
843 1 -0.7246876945067875 14.095551769104544 -1.6275787464321732 0 0 1
755 1 2.1437708462511034 14.350841481966015 -0.30915114259993914 1 0 0
752 1 3.6952301893756276 13.04107333388961 1.4159593991861952 0 0 0
875 1 4.6631955701819106 12.186100960063062 -1.1984111231562362 0 0 0
1224 1 6.061654148055348 10.628755370427365 1.8336824373373766 0 0 0
775 1 8.545835782155908 12.195373419952542 1.554164567533821 0 0 0
443 1 6.930958213658123 12.383065320188438 -0.71433313080088 0 0 0
740 1 9.14362557229845 14.201956835775709 0.4447951215548458 0 1 0
120 1 7.028846092144887 13.476443878859397 1.3465126737761586 0 0 -1
56 1 12.507499458290708 11.898649156262564 -0.05662493282952785 1 0 0
481 1 10.487415726736902 11.63485135979252 0.5364743306525277 -1 0 0
49 1 12.258313405683381 12.547292518065419 2.1928709126983095 0 0 0
379 1 11.055569337652162 14.087378961249454 0.3154944354487035 0 1 -1
1234 1 14.42026401066942 11.444611734428557 -1.1399835680851087 -1 0 1
1328 1 13.30150515391671 14.048157958375999 0.9084972567375975 -1 1 1
848 1 18.07158431070838 11.539326618544015 -1.3936115762424137 -1 0 0
1232 1 16.27749122451688 10.5882537008605 0.044653563488380676 0 -1 1
412 1 15.811177414653876 11.730960908529637 2.0008047798600255 0 0 0
649 1 15.654077871654618 12.77553954308263 -0.8470887035238255 0 0 1
457 1 17.8310779244053 12.538637145243976 0.3579163671358079 0 -1 0
400 1 20.135020782546096 12.164271694809159 0.3306347996850598 -1 -1 0
854 1 19.838862397604608 14.307091816502613 -0.9456261171706534 -1 0 1
634 1 22.65784670337333 12.109290835259038 0.2132595926872256 0 -1 1
726 1 25.101680338651867 12.070356592882904 0.9514287540524156 0 0 0
983 1 23.261455534953445 14.008005099118634 1.4120849500819763 -1 -1 1
170 1 25.711937185680657 11.368129704010421 -1.2553090569586587 -1 1 -1
760 1 -0.0363709112821331 16.29535260048405 -0.9485351758696227 0 1 0
282 1 1.3392843838476396 16.968317075638158 0.6452575881005012 0 0 0
322 1 -1.445106029142518 17.48003080492477 1.2451451948979115 0 1 -1
434 1 0.11038661117391357 14.879429704888476 1.2401718494126093 0 0 0
1050 1 5.152265996528757 15.493966644069303 -1.5781200724801963 0 1 0
217 1 3.2331989491651463 16.973520375783604 -0.25697557376972235 0 0 1
1368 1 8.393348541448214 16.998375912565532 2.2342175392969414 0 0 1
998 1 10.179283283458282 18.275699323333928 -0.6428044326140216 0 -2 1
950 1 6.3553912254153975 15.363562574375496 2.0280988344000455 1 0 0
555 1 8.06606945267871 17.991130311086618 -0.9048254994144074 0 0 0
1144 1 9.61754861033881 16.022435384635052 -0.5569377820720856 1 0 1
394 1 10.660348655815273 16.797879943202986 1.3066611122412644 0 -1 1
779 1 12.014636226031984 16.99757080627499 -0.7894929062131544 0 -1 0
1200 1 12.738754290795683 16.633243672943816 0.9708625085294975 0 -1 2
658 1 15.48690923885405 15.271851948425208 1.0193481765509183 0 0 1
521 1 14.514793530782164 15.39645587228027 -1.2274979932802625 0 0 1
189 1 17.960184639907073 16.626679509229202 1.0779991449670088 0 0 0
586 1 17.722328802241446 15.206913105180593 -1.1962077991816318 0 -1 0
504 1 15.719413756264327 17.378612940534342 -0.6066781535007848 1 0 1
790 1 22.091192458368006 15.430745981560154 -1.4483862883410903 0 -1 1
1338 1 20.190766819643997 16.41424039027004 0.7455767037064733 0 0 1
5 1 18.495438028736423 14.46363511835941 1.406120572381277 -1 -1 -1
1233 1 21.367879010863767 17.42304731953694 -0.8342128000763993 0 -2 1
451 1 23.375045511487702 17.727253789131172 1.201725360753961 -1 0 1
884 1 25.778422509767196 15.731624480938493 1.4845989010501723 -1 1 0
1147 1 24.31606396090431 15.34452175398032 -0.8317392032035548 0 0 2
666 1 23.917310620154776 17.390512734216667 -0.9418308302385163 0 0 1
1093 1 -1.5143169706417265 19.870187189922397 1.9202575120280017 0 -1 1
595 1 2.0914763332905295 19.130990832594474 -1.583911699930587 0 -1 0
384 1 1.4603393155446853 21.481153302122696 1.9540266479018498 0 0 0
1236 1 1.7980858387719802 21.583820721546868 -1.5911433658464773 0 -1 1
1111 1 -1.1679838882296252 18.873510059357397 -1.2464202640934758 1 -1 0
142 1 0.6070058420919096 19.777419843292247 0.6260778984591444 0 0 1
1073 1 4.941799782799761 22.119573639902473 1.1989458515942828 0 0 1
1342 1 2.89079719990629 19.255339411460334 0.9391475468454047 1 -1 1
1121 1 5.815239520309733 19.056225110279758 0.4946198486553328 0 0 1
387 1 4.047480103995853 20.518833919935638 -0.47284479127129786 1 1 0
1124 1 8.998877095778592 20.059771035018134 0.5988049504857917 0 0 1
1257 1 6.983584016632543 21.854458480563274 -0.6429792998425707 1 0 1
898 1 10.383535451557506 18.822639429188992 1.8275170287530123 0 0 0
299 1 7.139086689208179 21.798131421147087 1.7113292249724696 0 0 0
496 1 10.940135926553515 20.6600560148802 -0.3840986554834094 0 0 0
972 1 13.514636815986679 18.596898918109915 -0.9715770313854715 0 1 1
194 1 10.961227867575705 21.397696892858182 2.090809290410619 1 0 0
696 1 17.287819364867705 20.45059583476241 -1.5893339386852645 1 0 1
1159 1 15.693121587863018 20.87283128395525 0.07604637503859712 1 0 1
87 1 15.719675351235267 20.622239829039785 1.996235276895745 -1 -1 0
192 1 19.021857915687697 18.664689852703024 1.4095486424495793 -1 0 0
1197 1 19.689522803523804 21.287378162005695 -0.825196447616598 0 -1 0
714 1 21.043368961127882 20.115661874847444 -0.3421819406408553 0 0 0
244 1 24.378061839843568 19.550473955500944 -1.2901536659147794 -1 -1 0
1119 1 22.835592523393135 19.33123021769736 -0.010719019169741717 0 0 1
924 1 23.148323431521835 21.73920758414365 -0.6524282628543119 0 1 0
1087 1 -0.9085683969237315 22.623516959021366 1.669397631030039 0 0 1
535 1 0.46699873921501256 26.363218189640243 1.2076297808664278 0 0 1
1283 1 2.29124313374923 22.73576901022907 -0.08423064986507711 0 0 1
148 1 0.9002390039678176 24.50265060588808 -0.4516772781927587 0 0 0
749 1 5.32417730331223 23.63927315195279 -1.070040174178524 1 0 1
368 1 3.502070721510666 24.55014627722444 -0.13335523497190627 0 0 1
682 1 6.272676000880023 25.86006253372189 -0.30943070467986944 0 0 0
381 1 3.3771830920921104 26.133423630388897 1.577626539900471 0 0 -1
139 1 8.994827505086633 22.899344176266546 0.44338206472590036 0 -1 -1
655 1 9.359087920221143 25.385683711151486 0.7602641177922917 0 -1 0
879 1 7.547359393860786 26.400743385299823 1.814696608834291 0 -1 0
663 1 12.542043868971119 23.347885773716275 1.0829482088648357 0 -1 0
980 1 13.90564529392115 23.94317620999718 -1.276512560125716 0 0 1
741 1 11.311818081254948 24.77815575272636 -1.2063197326108699 0 0 1
578 1 17.239657164934904 22.987369473747165 0.5570536631679963 0 0 0
458 1 15.464179894809092 23.339279246441933 1.8082210540903376 0 -2 1
624 1 18.116878364111255 22.590357078133483 2.2913352578376056 -1 -1 0
527 1 17.02704095375101 25.679263245629226 1.3448866878678718 0 0 0
774 1 19.929646410151747 25.920635032294044 0.09386969545057489 0 1 0
478 1 22.02935550531219 24.793730436765788 -0.7429315185026764 0 -1 0
551 1 20.60359433093086 22.89298392656807 0.133282492103175 0 0 0
857 1 21.437549442855648 25.69333508580826 1.8358371788227341 0 -1 0
1181 1 19.546369445107995 24.84003533516085 2.1934633348010912 0 -1 0
698 1 18.811231507679587 24.19043982133772 -0.9546231623186646 1 -1 0
1329 1 23.683952590069985 23.267794638481767 1.507054725675446 -1 -1 0
853 1 25.764660366163877 23.039909915747486 -0.8604627294212831 -1 -1 0
1139 1 23.717476846897632 25.552978360315823 0.4427774857575817 0 -1 1
407 1 25.988509719342847 24.609644010060553 0.6665770577543002 0 -1 0
646 1 25.1562633824256 26.21187876433023 -0.9069488902978976 -1 0 0
1047 1 0.2473190526014617 0.5269887457612663 3.319584336217587 0 1 1
808 1 2.3103568258108513 1.4487146730312124 3.5397591495753433 1 0 1
1037 1 -0.9670465859332101 0.8532859672446143 5.352665294311709 0 0 0
850 1 3.9651013511410893 -1.4858254347289679 3.597586218622266 0 0 0
1282 1 5.214578302484435 0.6130494151202104 4.697557100336798 0 1 1
1146 1 6.192002998053678 -0.9036367003987604 3.094778013362233 0 1 1
1213 1 2.490255982134501 -0.016803773176185866 5.375856388890759 0 0 0
508 1 7.107822504227006 0.6373854352480341 5.446975270246391 0 1 0
1107 1 10.182448241424288 0.7845786985729282 5.8040669634259086 1 0 0
537 1 8.68302382014533 0.9736173494991358 3.750423794107168 0 1 0
1103 1 9.163503788685118 -1.2278261685234542 5.979883559656194 -1 0 0
1308 1 10.988816157677656 2.1766229330936415 2.7818413588873376 0 1 2
1250 1 10.956048129253618 -0.5222617177816393 2.4880444555090167 0 0 1
768 1 12.724637533857575 0.4459919797038321 5.823209274068714 0 0 1
874 1 15.067677593020804 1.1423285702073427 4.818455396098109 0 1 0
305 1 16.939111333770654 0.6103401547925262 3.2051732753356994 1 1 0
1014 1 14.537795441691962 -0.8304779561118809 6.1125548484722945 0 0 1
598 1 18.022327908230345 -1.2131598585773848 5.112695115849445 0 0 0
330 1 20.29443810785676 -0.3463128361394092 4.594553994404194 0 1 -1
436 1 22.363641096108797 -0.4116904894352873 6.161847051742254 0 0 0
904 1 18.610700950542437 1.1146578543586596 4.525772793900342 0 0 1
807 1 20.736013725174057 1.9608291240489906 6.303578964047329 0 0 0
872 1 26.22666455577025 1.8316640483357238 2.9901907457558465 -1 1 1
152 1 24.092859745479185 0.6430355516903119 6.041635242623908 -1 0 0
695 1 25.600249639780046 -0.2144932032103588 3.7717780366427656 0 0 1
1317 1 23.41146620075641 1.4082507794259698 3.790776723561046 -1 1 0
328 1 0.0836747294745348 3.012415443341653 3.906886911536245 0 1 -1
745 1 0.8125793345312715 5.33889198201931 3.158800930982305 0 0 0
773 1 1.1394099615574849 3.8361458421179924 5.671135913720386 1 1 1
1350 1 5.5980249506139845 4.163916861181605 5.082428242409909 0 1 0
515 1 6.162352306624479 4.9152512050229795 3.1420770444762063 0 0 0
1265 1 6.127279742141255 2.564503347124597 3.563361314160212 -1 0 1
1051 1 4.186897102408718 6.254062761569345 3.767755603970037 0 0 0
413 1 3.3947028916003523 5.025270025408672 5.826147899161339 0 0 0
306 1 3.732782632363546 2.9654344525947556 5.71668865431263 1 0 0
50 1 8.117182684396825 5.202411394598332 4.542494425278582 1 0 0
896 1 8.038894897706363 3.883096024994411 2.433391639280777 1 1 0
409 1 10.093115157039936 3.1852558998440905 4.08172690209977 0 0 0
639 1 8.465772326734575 2.5143190991790725 5.621922828693822 0 0 0
675 1 13.497527337505453 5.091425736581455 4.79475179256986 0 0 0
903 1 10.876476543611437 5.829764721554697 4.274292015826704 0 0 1
1231 1 12.51642479881056 2.506673619030013 4.896634241951659 0 0 1
404 1 12.908497212944441 4.206777380119164 2.856510185696231 0 0 0
1024 1 14.802323187478187 3.3419238506667126 4.048238529341367 0 1 0
799 1 20.57148512317381 5.545131787066437 4.3194488569958995 0 -1 0
640 1 19.318384304948612 3.9310288622666274 3.3354068373595585 -1 -1 1
552 1 21.794022684624768 3.807600405165548 5.19743059968113 -1 0 0
1290 1 19.61101816842983 3.681863751637647 5.606570257207947 -1 0 1
710 1 22.657884025080207 4.2543557701498 2.991240234133496 -1 0 0
699 1 25.472351693770268 4.504758100954846 2.87220390572959 -1 0 1
123 1 25.316051804921575 6.260514207530356 4.658072004684111 -1 0 0
507 1 23.06290708904244 6.248001833308107 3.6483129489301014 -1 0 0
940 1 24.176521101893616 4.584794064101689 5.81067684520973 0 1 1
431 1 1.8658172170612737 6.766439638496145 5.353696287354263 0 0 1
765 1 1.976861796777908 9.911693639041497 4.4679197703228395 0 1 0
184 1 -1.3043845232676723 8.76462982239796 6.021341579286145 1 1 -1
1070 1 5.591254507752063 7.00564800370117 5.3590615076142685 0 0 0
351 1 3.4625516046948475 8.4246787051696 4.952670200217324 0 0 0
280 1 8.984191065362348 6.825192317459901 3.38438349640073 0 0 1
1370 1 8.581425252205095 9.36306951792147 4.1181890899348375 1 1 0
1042 1 6.577598930919455 8.948784673586424 3.6646620232564038 0 0 0
949 1 12.25060195682076 8.117483147154557 4.144813994078468 0 1 0
354 1 10.858064802410466 9.436516268384434 4.923044574742215 0 1 0
858 1 12.406169289781214 7.592515652870045 6.019082394275246 0 0 0
886 1 13.494383472737375 9.654079815655288 6.192566559204844 0 0 0
985 1 14.544250815938529 8.004079975133529 4.125762946679532 0 -1 1
505 1 15.655419062484107 6.535357542732246 5.37978955526217 0 0 0
1127 1 15.57384361363432 10.29322184723443 4.442948635911211 0 0 1
1069 1 15.780718135090343 6.372285391286887 2.9238907764466564 0 0 0
270 1 17.877186250797948 8.78554151875839 5.4518545418421995 0 0 0
160 1 15.67169003659723 8.728886228564209 6.076717193191536 0 0 0
721 1 17.952483027058772 6.729135719911682 4.602443718357355 0 1 -1
519 1 17.037688271869513 8.309377020567842 2.9151262649079026 0 0 0
60 1 21.433505328676397 7.609075920256551 3.2859893606534394 -1 0 0
918 1 18.991280025157923 10.131416619765158 2.6404474694690245 0 1 1
590 1 22.07676004647608 9.472961585546928 4.106378666114439 -1 0 0
372 1 20.00199405631133 9.932447262760022 4.469489017527484 -1 1 -1
1280 1 21.208362283092715 8.759917887462944 6.296552350454885 0 0 1
1160 1 26.13054406654511 7.181718065562695 3.0267949683521715 -1 1 0
1364 1 26.36767006823615 9.828248280607866 3.616827945076949 -1 0 1
568 1 24.14646543335849 8.079426854444515 3.266887472295762 -1 1 1
1066 1 23.08649599254462 6.746820921062783 5.68465726378375 -1 0 1
1006 1 24.868118925918296 8.996850371456876 6.236010494833584 0 0 1
866 1 0.9626215300945664 13.489402991836023 2.9935935283410764 1 0 0
72 1 -0.4513937641695933 10.813890520826813 5.426605834151554 0 0 0
771 1 0.43407313534740544 11.153372247056348 3.3567605608129893 0 -1 0
210 1 1.5930973908905943 12.178847560247286 6.123847690165889 1 0 0
746 1 4.266093257882254 12.709939499635826 5.509846106627125 0 0 0
725 1 4.775873136364071 14.269264553773352 3.4668515455438813 1 0 0
389 1 5.144863963953594 10.854078922769414 4.657788464335115 1 1 0
1284 1 3.860412804646007 10.850538315676426 2.5648966184214697 0 0 1
737 1 6.511936726327487 12.317483378543 3.651407264740106 0 1 1
839 1 6.383753329755249 12.622898449840056 5.879050842114147 1 0 0
900 1 10.367078984494055 11.047204799731759 3.1620543028561015 -1 0 1
118 1 8.437500821703805 13.881674805497967 5.852316185485291 0 0 -1
1173 1 10.09670100739311 11.891854713441555 6.180513548641122 -1 0 0
727 1 8.215765648912246 11.433303989166216 4.7249967116852885 0 1 0
117 1 14.390665242451082 12.345438133710138 5.193109874370838 0 0 0
947 1 17.554378292922994 12.993693592728025 3.0237849579460656 0 1 1
1198 1 17.701871763525226 10.790901321607864 4.2748289557100785 0 -1 1
736 1 15.292438223057143 13.266493446306812 3.410753048933876 0 0 0
733 1 17.939952495317293 14.220879707122698 4.5810437714221095 0 0 0
1171 1 20.671928190760617 12.06284876935665 3.7138755983500653 0 0 1
1113 1 21.594857782190886 13.753787360835531 3.8816780212307007 -1 0 0
258 1 24.71447098797549 13.309233084970895 3.045690533934458 -1 -1 0
864 1 24.21180903128351 11.103554028467125 4.027892944761588 0 0 1
134 1 22.546448354344143 12.019756274330557 2.54748284045143 1 0 -1
1359 1 26.458717186453686 11.762830206056792 3.1025993309794755 -1 1 1
33 1 22.725749567047824 13.077956116213691 5.27224709997262 -1 -1 0
1169 1 26.342514053566575 13.27135465604924 4.689640577176584 0 -1 0
367 1 25.755876058766912 11.467589872551002 5.35351820867332 -1 1 0
694 1 1.7669890052964274 15.410398467751886 4.43918515028087 1 1 1
58 1 -0.8081772916331257 14.879266626069771 3.5869658967689 0 -1 0
294 1 0.6386929054420687 17.38303546311693 2.792488914694414 0 0 0
1190 1 -1.7044760532305574 16.763609262048462 3.8939330385237634 0 -1 1
339 1 2.3350895054626593 17.28270659528086 5.894035183019136 -1 0 1
897 1 5.720127032228271 15.877087635457453 5.3612716853641995 -1 0 0
1253 1 3.8879791616697705 15.882998044153258 5.4874493493929215 1 -1 0
618 1 2.564872873010862 15.409781562303028 2.6406848584730103 0 0 1
212 1 4.638828964689891 16.640245907299764 3.3536297719142514 0 -1 0
386 1 9.04820856256415 18.1863934754393 5.7803642275405664 0 1 0
36 1 9.74679558020752 15.922602313880603 4.860463638317939 0 0 0
573 1 6.761057863326203 18.184859765008873 2.8553324208043795 0 1 1
562 1 7.272397355833274 15.48293480353809 4.02360629572671 0 0 -1
965 1 8.012305359216425 15.44519973006534 6.320310138845354 -1 1 1
528 1 10.515417503239393 14.93602378195467 2.8106497078647834 0 0 0
1302 1 12.407993927452216 14.969169003474324 3.394441698649274 -1 0 2
704 1 11.622159787422206 14.489779585155826 5.936694169947232 0 1 0
295 1 14.784538510411558 17.95513926198176 4.703189618724727 0 0 0
846 1 16.96809592898112 16.206152941323626 3.3627794833151015 0 0 0
251 1 19.518493946500826 15.147465565625005 3.5598270512327383 0 -1 0
1203 1 20.55040406827134 18.011953645926265 2.418881376750079 0 -1 1
720 1 22.130888562554663 15.190698883467938 5.457784763709513 1 0 1
501 1 18.98454071784942 17.24975410459977 4.795786141053272 1 0 0
1278 1 21.536559560408627 16.327104420773384 2.492274200099155 0 -1 1
652 1 24.770936566811013 15.668801335136113 5.095702038253648 0 0 0
883 1 24.360995892601792 15.917354645643968 3.051281745291341 0 0 0
110 1 23.351636373583244 17.50852637905758 4.566069021102183 0 0 -1
2 1 2.2979577284902266 21.8584982625538 4.286016175912672 0 -2 0
1334 1 -0.687752511666323 19.56657881449416 3.9091521653752634 1 0 0
632 1 2.194267526033104 19.85840897965599 5.644541511150181 1 0 0
1239 1 -0.09985591055205623 20.790593802728967 5.581494250012977 0 0 0
53 1 6.179759716252241 20.162568106059368 3.508446207133474 0 -1 0
581 1 4.822087983796266 18.676881977057025 5.236907592295584 0 1 0
137 1 2.913652649043005 19.545260678186327 3.3406667483452903 0 1 -1
70 1 6.503021556519926 22.27026506292291 4.641333580174339 0 0 0
391 1 9.570764065762623 20.984225752028394 5.126309288187903 1 1 0
205 1 8.57745847395085 20.61200718105886 2.956033270538554 0 -1 0
119 1 6.932599153565334 19.48144319890173 5.697460103202008 0 0 0
314 1 11.311655696117212 19.838947293329763 4.236087741121149 0 1 0
1025 1 12.570751222392182 19.136512198423922 2.726519594645164 1 0 1
1021 1 13.561211117994787 21.16946966777937 2.6933640784105677 0 -1 0
316 1 12.779898973952822 21.806694178924246 4.7999799965549705 0 0 0
999 1 17.574935101133917 19.421722138270443 2.9233162665032575 0 -1 1
465 1 16.411710384444746 22.27103963549207 3.502938377724977 0 -1 0
156 1 18.13924056529798 21.063243007697366 4.276203728316227 -1 -1 -1
766 1 21.63464611767851 19.07651586884427 5.578608974550395 -1 0 0
1071 1 21.204312841195254 22.34750645894538 3.3985598388379836 0 -1 1
23 1 22.451486605423444 19.12344673637346 2.6938821151887575 0 -1 0
713 1 25.817755788056107 19.07500979443166 6.194976331733112 -1 0 0
125 1 24.90749870150424 19.443024212103012 3.3567764547080756 -1 1 0
163 1 25.82451794620692 21.00851187833577 4.458944941690988 0 0 0
265 1 23.249587347586555 20.515403907018122 4.435933182417127 -1 0 0
153 1 24.000931017760195 21.983246822969832 2.7596657630666606 -1 0 1
307 1 0.49317756734416474 23.992210514249617 4.36451449537158 1 0 1
1227 1 1.4797659576406677 25.995890927481312 3.8303056468527608 1 -1 1
539 1 2.106381254921269 24.245413749104845 2.3982774627700696 0 0 0
805 1 0.10138798630551871 22.95336053226706 6.264817396369571 0 -1 1
1007 1 -1.3319621111295386 25.291451337450965 5.036283608641729 1 -1 2
83 1 2.553959808410215 22.726364730565795 6.234635517169616 1 -1 1
917 1 5.2657476749181376 25.441346762037128 4.894176296951561 0 -1 0
104 1 5.968124164883452 24.882213649256922 2.444832484260636 1 -1 0
1320 1 2.602508924714093 25.93519198371608 5.450100605190121 0 0 0
968 1 6.242451400003349 23.86749519806143 5.997470649782155 0 0 0
28 1 9.067665158060697 23.84433677861843 2.4576238456280795 0 -1 1
979 1 9.123022377336756 25.822991195239652 3.388097875337076 0 0 0
629 1 8.340977505091567 23.25939997209588 5.118648589249348 0 -1 1
531 1 10.253514461660423 25.271768046019943 5.09971355661814 0 0 0
626 1 7.625438774429059 25.51454866838305 5.6636959729994025 1 0 0
461 1 11.058325897962678 24.25204393081016 2.7393575055401396 0 0 0
65 1 12.81860166162327 26.52847398922705 5.46372411155256 0 -1 0
1340 1 15.544561977470462 25.362337685122085 4.213330957347941 0 0 1
456 1 17.198642624976934 23.928287767969763 4.871060896292468 -1 -1 0
497 1 14.705232174593895 23.371155296425897 5.0757841429678106 0 0 0
1341 1 20.197009059321974 25.961081174597606 4.512515759018999 0 0 1
697 1 19.173174167494636 22.86944812940577 4.8335297985097 0 0 0
974 1 23.81024519448945 22.681479958168172 5.487208325336525 0 0 1
396 1 24.409172600178458 26.34776065778917 6.203762293757677 -1 -2 0
1080 1 23.203779240032123 26.462297696997865 3.356273831184943 -1 -1 1
1303 1 23.112131639952562 24.36749541769999 4.8308135550015585 -1 -1 1
17 1 25.85965764642861 23.603822680219285 3.9256074703097834 0 -1 -1
936 1 26.232153004139214 22.558155964693754 6.305530759264551 -1 0 0
313 1 0.6545110716183848 -0.6198448460440438 6.641511573917638 0 1 0
818 1 1.7692453240471626 2.2371509388666504 7.051317731885435 0 -1 1
89 1 -1.2888932041123158 1.0255222271184583 8.279288681566996 0 0 0
541 1 0.6975565414727019 0.16434221148971395 8.703539666066286 0 1 -1
1005 1 4.1106973317804085 0.5298441721335925 7.101150058242794 0 0 0
787 1 3.392992283324138 0.00030416914044950616 9.507550666598382 -1 0 0
611 1 6.151531554676199 0.0731580328798529 8.217465911119042 0 0 0
116 1 5.984700704827269 2.259770114578508 6.685199476120006 -1 1 0
817 1 7.950907799136893 -0.13940269177659048 9.882887355922524 -1 0 0
267 1 6.602810025151715 2.198482831214086 8.810708775158309 0 0 0
1367 1 9.068982893484701 1.3259799951983702 7.794980447316467 0 1 1
687 1 10.356859898253942 -0.10423055851796126 8.748704245190675 0 1 0
331 1 9.197083247213413 2.136748918424579 10.196704010817289 0 0 0
811 1 12.184280778739225 1.9473919404569187 7.391361312249609 1 0 0
1287 1 12.844289015880781 0.059454820951123644 8.58376814432768 0 0 0
813 1 11.237427380643046 2.0654863392067337 9.383673567328376 -1 0 0
183 1 15.842870471714807 -1.199762135422389 8.89502218450829 0 1 0
920 1 16.875073298114643 1.060600033843425 6.424613108528034 0 1 1
1366 1 17.838931750286154 -0.7215974110364234 7.617784790565201 0 1 0
865 1 16.40212664286974 1.0718003249165227 8.537318558415285 1 1 0
198 1 18.862281646067128 -0.954011816767498 9.907411729435616 -1 0 0
692 1 21.616071065172402 0.9515211021358403 8.211358951849748 -1 0 0
997 1 20.986579123932774 1.9276359747670204 10.173555959552852 -1 0 0
232 1 19.409068498272386 0.8172807880924338 7.933740458443232 -1 1 0
1180 1 20.578514868522785 -0.5529965204122087 7.331226858765458 0 0 1
450 1 23.286232440373187 2.3043071682844536 7.082232997123986 -1 0 0
433 1 26.027136012774154 2.2143511336820416 6.428870104940341 0 0 0
621 1 23.345810684335472 1.6240467971896875 10.237729301512886 -1 -1 0
1136 1 23.856182637396497 -1.52780751006874 9.896354095949718 -1 0 0
647 1 24.651617715543384 0.9765005077198241 8.374998946711466 -1 0 -1
780 1 -0.0303930306024065 4.158959959408732 7.480919739519791 1 0 1
1217 1 -0.9054764673563716 3.582006651027961 9.482409953485595 0 0 0
911 1 1.242382672897079 4.755049331854444 9.607010570639012 1 1 0
1151 1 1.8312230515505261 5.411655002675248 7.045816767248649 0 0 0
702 1 -1.1344401155927923 5.688395328256344 9.976169241184047 0 0 0
64 1 4.586572491231899 2.7590074269373384 8.162433817336215 0 0 -1
1238 1 5.375457122043312 4.705293250927801 9.038218135270915 -1 0 0
26 1 2.7572818930341167 3.046822105195157 9.458483129370734 1 0 0
231 1 8.409037840518062 4.456710324612345 9.05953347241972 0 0 -1
1168 1 7.718350340580928 3.865839761272495 6.998269503660071 0 1 1
298 1 10.635366712162098 6.02992541585816 7.30961630263654 1 0 0