LAMMPS data file via write_data, version 29 Oct 2020, timestep = 0

2160 atoms
1 atom types

-0.7981477115440061 22.06214771154385 xlo xhi
-0.7981477115440061 22.06214771154385 ylo yhi
-0.04264813612496354 66.09322156731602 zlo zhi

Masses

1 58.933

Atoms # atomic

2 1 1.7844774621708412 1.7255935132680291 3.4267145861152923 0 0 0
29 1 3.5397459930425987 3.638903230707431 3.3839179336414293 0 0 0
25 1 21.190480199466474 3.5047592235875595 3.306917613133824 -1 0 0
6 1 5.334116127329758 1.6102194773601033 3.5568663326265493 0 0 0
33 1 6.999010130363729 3.5604443945466904 3.436936000448481 0 0 0
9 1 7.226518589332427 21.21620311319606 3.3641370332303318 0 -1 0
10 1 8.699462169775847 1.6891056939558502 3.2716493165599556 0 0 0
14 1 12.382854681409356 1.8865464546190114 3.528734920773867 0 0 0
37 1 10.691699677926948 3.62353477304033 3.415693080585374 0 0 0
18 1 15.85918234601841 1.8883013530696442 3.3673066040945425 0 0 0
41 1 14.167792866010581 3.667388627759637 3.5249695374392487 0 0 0
22 1 19.530227260705878 1.6029455352071966 3.5236883843531985 0 0 0
45 1 17.87417405882271 3.368553500384177 3.499370994236953 0 0 0
1 1 0.03534948962387574 0.01427490666888049 3.5764626702603 0 0 0
21 1 17.757831434080387 0.15173136797667758 3.5078331157072613 0 0 0
26 1 1.7254205747707356 5.306049902928525 3.392574770741784 0 0 0
53 1 3.461268594764741 7.144478188807835 3.7100869997257786 0 0 0
30 1 5.246462863328705 5.5014721168455845 3.499987484145184 0 0 0
57 1 7.2602368094342316 7.1268158976097 3.4486228723876655 0 0 0
34 1 8.96605133183991 5.395955678836337 3.3391249501037397 0 0 0
38 1 12.311824344275387 5.291941584296793 3.1322327802461456 0 0 0
61 1 10.770173207803769 7.025478831921395 3.515700978645415 0 0 0
42 1 16.191486428887146 5.245793047267279 3.4001492931999864 0 0 0
65 1 14.280226329617813 6.983741974567122 3.3188289358396665 0 0 0
49 1 0.06629209612848541 7.204880328904545 3.542520211774536 0 0 0
46 1 19.56556174854041 5.35533097356541 3.582930107681 0 0 0
69 1 17.836310680208747 7.198413098943276 3.5438291149167394 0 0 0
50 1 1.8179399188356122 8.939028256098489 3.344289046551914 0 0 0
74 1 1.7529236463690976 12.585943565106001 3.255552956167933 0 0 0
77 1 3.5492686187724103 10.747655575466997 3.2789941162383354 0 0 0
54 1 5.259567151519279 8.924054833224064 3.4834534463611364 0 0 0
78 1 5.3769186200544326 12.370124523971144 3.4740760744839605 0 0 0
81 1 7.218257106859598 10.61030172662202 3.2792806200069853 0 0 0
58 1 8.91769829370407 8.701131498035833 3.3952597009275918 0 0 0
62 1 12.467516084736236 8.699977908086701 3.463692802330032 0 0 0
82 1 9.070498680332934 12.241082154062587 3.3552931247402267 0 0 0
85 1 10.755181224270356 10.513205563634255 3.393791646680181 0 0 0
86 1 12.25772474421392 12.458323147302396 3.5252297785647433 0 0 0
66 1 15.960185785438924 8.932357231484307 3.4631816679347716 0 0 0
89 1 13.99550816928816 10.471162242011012 3.463709041656327 0 0 0
90 1 15.856870956211129 12.301367101375034 3.373272125555746 0 0 0
73 1 0.12359292023391077 10.691883200574484 3.3580527261303623 0 0 0
70 1 19.620031316857677 8.934864013147015 3.568188203079068 0 0 0
93 1 17.68299347545733 10.581734416675165 3.4618197920737193 0 0 0
94 1 19.51951113676902 12.292602743101874 3.241657929868344 0 0 0
98 1 1.9691808375391848 15.814027621105806 3.3528424280898617 0 0 0
101 1 3.620926644081704 14.35645796929045 3.33056044824452 0 0 0
102 1 5.4284995225057395 15.99522222321905 3.5559750123352982 0 0 0
105 1 7.193386934895361 14.098967008079224 3.356775614805773 0 0 0
106 1 8.809273742361862 16.009030901019692 3.4977225533220446 0 0 0
109 1 10.668600823416066 14.279125211776101 3.3446218758539414 0 0 0
110 1 12.29378836215368 16.014628470256667 3.3746868779518713 0 0 0
113 1 14.234451516406267 14.077007055471345 3.399162253697436 0 0 0
114 1 15.944876862781925 16.071986388678447 3.297510216826269 0 0 0
97 1 21.2543726028576 14.492421983241897 3.2610466458592104 -1 0 0
117 1 17.621208507244198 14.200736032226029 3.4526763794442323 0 0 0
118 1 19.542165993196434 16.18933900225968 3.4328492231050496 0 0 0
5 1 3.5093000459916515 21.254498318814242 3.439079613245383 0 -1 0
122 1 1.736922355745075 19.5156182886586 3.3407820725405433 0 0 0
125 1 3.520985270891811 17.67235311631054 3.609510620459745 0 0 0
126 1 5.2689143364247375 19.563635951832353 3.4066245394968377 0 0 0
129 1 7.052640729039397 17.834335261798934 3.330445908621208 0 0 0
13 1 10.680840551130489 0.1624151751043641 3.532481338836164 0 0 0
130 1 9.08352020393867 19.629884217032853 3.4610219675043865 0 0 0
133 1 10.565290629272186 17.97972375950451 3.444635324981995 0 0 0
134 1 12.422054061702365 19.505786073188666 3.508099610544624 0 0 0
17 1 14.25757218577113 21.23211739936884 3.2796318008362295 0 -1 0
137 1 14.180886260781913 17.745760241548794 3.3793904453873815 0 0 0
138 1 15.915660586250722 19.56312699593247 3.32034526350851 0 0 0
121 1 0.0260340102086829 17.763028775144278 3.340428034395825 0 0 0
141 1 17.73525103399593 17.880115369777776 3.2558500585172085 0 0 0
142 1 19.47723437148285 19.591416681522027 3.4535330040660654 0 0 0
8 1 3.4715683604880954 1.8024094974846208 5.132287199196139 0 0 0
27 1 1.6473319838918703 3.484810292282376 5.087927279433149 0 0 0
146 1 1.8331377120506682 1.6613815913748542 6.851199689714345 0 0 0
173 1 3.3114150910630165 3.5089658138523214 6.9541689582120965 0 0 0
149 1 3.5764176826519467 21.278903107027354 7.07527196900694 0 -1 0
169 1 21.25546072358261 3.454159369316106 7.103505000566481 -1 0 0
12 1 7.117608320877264 1.7563268530285874 5.126276407179903 0 0 0
31 1 5.256507495207383 3.6292404303580867 5.199881059126927 0 0 0
150 1 5.175976607199972 1.763658779991871 6.833018877596276 0 0 0
177 1 6.944174843919124 3.4467469946864977 7.038838328033628 0 0 0
7 1 5.3027502803289055 21.250294773073332 5.172668214561945 0 -1 0
16 1 10.48112439422103 1.7883623313821229 5.265918685907982 0 0 0
35 1 8.80615532510317 3.6295073135054654 5.104648001743514 0 0 0
39 1 12.281248459762423 3.5011373150663303 5.261179360161849 0 0 0
154 1 8.753829450971704 1.8724272092080065 7.079475563056888 0 0 0
158 1 12.523752463304396 1.7926466951540008 6.955404646512294 0 0 0
181 1 10.530882990054874 3.497217925082395 6.995525836539616 0 0 0
15 1 12.51601160878383 0.10330613997309362 5.196462542442673 0 0 0
157 1 10.835403173993596 -0.01676392824870098 7.196522477619301 0 0 0
20 1 14.213783629687752 1.8781194595489297 5.228596930352482 0 0 0
43 1 15.97869120236471 3.561916444615274 5.320274623290136 0 0 0
162 1 15.939331931237579 1.8418860312495449 6.891482474280681 0 0 0
185 1 14.134447256107416 3.59689096330077 6.946306193128585 0 0 0
19 1 15.900342935409487 0.07322017443863663 5.110594201814702 0 0 0
4 1 21.285171673455416 1.7358431789245488 5.295040934292529 -1 0 0
24 1 17.73110497318141 1.767019670010567 5.365137318967801 0 0 0
47 1 19.543557570961717 3.56697955744434 5.233993286956078 0 0 0
166 1 19.600357750049625 1.6448748388024246 7.062673324051967 0 0 0
189 1 18.023081355158112 3.5333984178066444 7.083140804204436 0 0 0
23 1 19.497112787697148 21.19289895345144 5.317882233647555 0 -1 0
165 1 17.684773629346026 0.09434078527829977 6.985068557192478 0 0 0
32 1 3.442064027143738 5.2878628123307045 5.272504901670211 0 0 0
51 1 1.608675341421061 6.995689447742222 5.262318271357677 0 0 0
170 1 1.5540133329434955 5.28061654630476 6.982655192263611 0 0 0
197 1 3.398794497653388 7.151161641401228 6.808356838638424 0 0 0
28 1 21.219305916517936 5.177010047364104 5.064831955279205 -1 0 0
36 1 7.121091039462696 5.33353220378529 5.003506372398397 0 0 0
55 1 5.269519169247688 7.183056508597703 5.12006286304428 0 0 0
174 1 5.351047350353285 5.515757492779962 6.832613990134584 0 0 0
201 1 7.012894491527625 7.111035472971388 6.920755366716854 0 0 0
40 1 10.520529932056434 5.298118634234121 5.214074701529352 0 0 0
59 1 8.843256200642255 7.115466324558856 5.324739172946335 0 0 0
63 1 12.512655784316594 6.95264781486123 5.15383770213142 0 0 0
178 1 8.766132831083494 5.356555028729802 7.040171604465766 0 0 0
182 1 12.320950739130677 5.151163785599236 7.017907256816909 0 0 0
205 1 10.586990525716526 7.020877316608391 6.986454836975674 0 0 0
44 1 14.341820841040844 5.386706699656942 5.109974223717592 0 0 0
67 1 16.0171989559241 7.1611741115776475 5.167981193513621 0 0 0
186 1 15.986501011948198 5.42127542551615 6.977545150972388 0 0 0
209 1 14.169171041881592 6.967678932451691 6.971743551319372 0 0 0
193 1 21.268218383841884 7.124833869183963 7.0265757974666805 -1 0 0
48 1 17.805768751578256 5.3029961297870285 5.249664444159313 0 0 0
71 1 19.485133847546116 7.074584589373381 5.342210078934396 0 0 0
190 1 19.624947111990878 5.342333074619107 6.946627129012839 0 0 0
213 1 17.75300046051619 7.073025623829875 6.953013907921966 0 0 0
56 1 3.487503690307707 9.063297427411912 5.239918482304437 0 0 0
75 1 1.845745427816531 10.810726429123358 5.077663021767893 0 0 0
80 1 3.5002747268053405 12.48530522875754 5.0524217841618375 0 0 0
194 1 1.8008428515351986 8.920046168246984 7.134981980427994 0 0 0
218 1 1.667095327078898 12.531279379330037 6.943619711853851 0 0 0
221 1 3.4456442044141813 10.696609405428362 6.965863274073009 0 0 0
217 1 0.0021842247956849956 10.820492023649624 7.076690958651868 0 0 0
60 1 7.086262455241896 8.907560017018241 5.270445901082708 0 0 0
79 1 5.308819184784208 10.675738818057583 5.201506284800598 0 0 0
84 1 7.175496641686063 12.237501897745501 5.201144068925283 0 0 0
198 1 5.307593489358052 8.929449508065435 7.045841258008935 0 0 0
222 1 5.238974430898762 12.3516035450408 6.829520757905205 0 0 0
225 1 7.145470562436908 10.5438880827885 6.989410249941839 0 0 0
64 1 10.643164344304989 8.823314155417817 5.191175725782753 0 0 0
83 1 9.000335012654487 10.590883525951748 5.0215806506355865 0 0 0
87 1 12.302545008693807 10.576032907513168 5.204371200094813 0 0 0
88 1 10.510974631362208 12.498224961996824 5.3097095105108245 0 0 0
202 1 8.882621167795806 9.004413699146033 6.995053065400539 0 0 0
206 1 12.386364549812855 8.693062914213833 7.028019022015766 0 0 0
226 1 8.746350348377437 12.378711985932982 7.077377241987846 0 0 0
229 1 10.664877103902738 10.6125631617022 6.88115700230997 0 0 0
230 1 12.373284349360208 12.5293862121256 6.968900591017668 0 0 0
68 1 14.18922148656003 8.734114665552534 5.200531559839518 0 0 0
91 1 15.808643509410478 10.819209590909797 5.285240334025389 0 0 0
92 1 13.905877439209226 12.427351354430856 5.249711168478227 0 0 0
210 1 15.98061100694864 8.891979904715367 7.008214409671212 0 0 0
233 1 14.094862138644611 10.541191495651118 6.917453968201344 0 0 0
234 1 15.837402409898125 12.511610974389335 7.051100467221825 0 0 0
76 1 21.292243947642625 12.561921381535008 5.065257384949042 -1 0 0
52 1 0.17620787301518703 8.940425444862095 5.265543083482625 0 0 0
72 1 17.730210406598516 8.958390182354645 5.317108088370297 0 0 0
95 1 19.66551889748154 10.737061510319998 5.238274399789803 0 0 0
96 1 17.797906434784785 12.349321487724986 5.022483265883393 0 0 0
214 1 19.504095477551466 8.942716413753825 7.007326589736999 0 0 0
237 1 17.752682907730694 10.721305296980441 6.906248198806585 0 0 0
238 1 19.44775167592259 12.519683389491616 6.927926285790662 0 0 0
99 1 1.841632800473817 14.202982276568585 5.073842655470031 0 0 0
104 1 3.430529160000967 16.041021316017535 5.225408738072904 0 0 0
242 1 1.8135102597371788 15.955757219089804 7.062817089230202 0 0 0
245 1 3.681873831863952 14.27216833850724 6.936279285621848 0 0 0
103 1 5.594118361804282 14.1669361899359 5.20682074630524 0 0 0
108 1 7.145075989997372 16.051666454021614 5.293117527463787 0 0 0
246 1 5.372531672654512 16.034270361250307 7.008807382921658 0 0 0
249 1 7.095037328114498 14.158572970892047 7.188848091794671 0 0 0
107 1 8.761768325429998 14.30495705034293 5.262794254742321 0 0 0
111 1 12.299412114595475 14.253342851954583 5.179564034592234 0 0 0
112 1 10.495214020550545 15.931337944707948 5.323472882344823 0 0 0
250 1 8.946152772591578 16.08103111316214 7.172293934378807 0 0 0
253 1 10.465371752190508 14.141085667215197 7.003130822581887 0 0 0
254 1 12.451025697274217 16.022560283825364 7.0407342068628145 0 0 0
115 1 15.94243187526798 14.193698219106269 5.175685247055379 0 0 0
116 1 14.229877594872173 15.90296954754042 5.033810416833856 0 0 0
257 1 14.210521538742755 14.243142142153157 7.044124664535145 0 0 0
258 1 16.014197300579447 16.00559650178249 6.836771463565732 0 0 0
241 1 21.26230865579472 14.163663396382715 6.945688196808194 -1 0 0
100 1 0.12865176497928843 15.947436493936118 5.20142388929297 0 0 0
119 1 19.55065300748042 14.289460627828472 5.1416122778364395 0 0 0
120 1 17.660890225565723 15.996659148215754 5.160457073485295 0 0 0
261 1 17.78226740352352 14.116114330781995 6.927164726614755 0 0 0
262 1 19.63014865187582 15.927138905977735 6.841193169664215 0 0 0
3 1 1.7067319606139935 21.254045999590716 5.28230200020268 0 -1 0
123 1 1.5882255270483765 17.772831892053574 5.196033249330121 0 0 0
128 1 3.5419059963775608 19.500278596554317 5.204711293780097 0 0 0
266 1 1.8857914681383625 19.636222252593143 6.98343828865022 0 0 0
269 1 3.4731896708506675 17.655468122997604 6.902963910127344 0 0 0
153 1 7.058861737106697 21.233189268716984 7.070315837954678 0 -1 0
127 1 5.449881345649811 17.922103551626847 5.242243804072653 0 0 0
132 1 7.3005742308844495 19.603565925587546 5.182913428735927 0 0 0
270 1 5.435952648147031 19.374372898841557 7.014431743103107 0 0 0
273 1 7.276014046976743 17.71036713605119 7.160755904822677 0 0 0
11 1 8.843392052422136 0.10656391869268589 5.313777840680996 0 0 0
131 1 8.86130492495051 17.77970347012287 5.173931471142087 0 0 0
135 1 12.351363082679113 17.755915155425704 5.2684831377462675 0 0 0
136 1 10.68091326647072 19.589347795782096 5.269369628038208 0 0 0
274 1 8.898945444440791 19.56815793321396 7.072706230773368 0 0 0
277 1 10.573941956922818 17.745183393719124 7.050067178941092 0 0 0
278 1 12.363619284268246 19.602136401840497 6.987749253102379 0 0 0
161 1 14.27157626420546 21.09507200428712 7.014694481637673 0 -1 0
139 1 15.908899802352096 17.8145028214197 5.141670177713654 0 0 0
140 1 14.223866900458438 19.373460480534874 5.077477461397452 0 0 0
281 1 14.27261549337106 17.83698499538113 7.023731174913652 0 0 0
282 1 16.05323282215059 19.531029839901585 6.958009515558521 0 0 0
265 1 0.041769136849303834 17.829811515214452 7.011101396546342 0 0 0
124 1 21.253768052104128 19.458151022410753 5.193256476266113 -1 0 0
145 1 -0.02823236741049584 21.2716164245654 7.021832982786744 0 -1 0
143 1 19.601028897623003 17.706995392360746 5.134197149227763 0 0 0
144 1 17.753230571217856 19.43434238390323 5.146114832838758 0 0 0
285 1 17.77432058815564 17.725291506423012 6.8569041350950215 0 0 0
286 1 19.57073127835342 19.473924816735654 7.0823700771102915 0 0 0
152 1 3.502283158887638 1.7226932836629185 8.793799620480534 0 0 0
171 1 1.7571483397941003 3.4692095762860373 8.710249683457297 0 0 0
290 1 1.8001470730922298 1.829818216813873 10.50106501678801 0 0 0
317 1 3.528700684645171 3.5924004272099035 10.59858534036744 0 0 0
148 1 21.226924540646042 1.6634095837299367 8.634690204026766 -1 0 0
293 1 3.4249593079084524 -0.0007091507068625637 10.512940386484617 0 0 0
289 1 21.28026933817949 21.27038453797615 10.536179310439476 -1 -1 0
156 1 7.0827169207150025 1.7796696379683135 8.719128752398664 0 0 0
175 1 5.1752343998067305 3.5759054146588625 8.786478179996726 0 0 0
294 1 5.340129180734146 1.744450244608349 10.6116924793639 0 0 0
321 1 7.127235051092584 3.384151457398313 10.571668176501595 0 0 0
151 1 5.312437268472258 21.219644964640366 8.715082224769752 0 -1 0
160 1 10.653698907489082 1.835589040108609 8.677481735663202 0 0 0
179 1 8.805000912758706 3.6981669327778164 8.830750537218274 0 0 0
183 1 12.402713187170656 3.4506890619643116 8.79787161653512 0 0 0
298 1 8.834560495900265 1.8402182210156164 10.561866606209836 0 0 0
302 1 12.497928668103048 1.8149830490320586 10.657109686087104 0 0 0
325 1 10.629311978689561 3.4102159697050873 10.651324065159182 0 0 0
164 1 14.292086813709696 1.7884047567178871 8.660739173220673 0 0 0
187 1 15.981408797900867 3.632597269876271 8.77323940590472 0 0 0
306 1 16.1515166541176 1.8638927400518857 10.582967330191321 0 0 0
329 1 14.282417520721413 3.5946871961524063 10.626395958227562 0 0 0
305 1 14.260575321496543 0.12554543640766627 10.665019532375432 0 0 0
313 1 -0.012915227686434605 3.5293056146408053 10.55842337459439 0 0 0
168 1 17.674148342867618 1.8272140676263164 8.832315949153692 0 0 0
191 1 19.554197129433476 3.535727829037145 8.766251345973027 0 0 0
310 1 19.466086215764328 1.6366977997603567 10.58753765634015 0 0 0
333 1 17.79486490743397 3.523474931142059 10.625504276905023 0 0 0
167 1 19.412362511573598 21.217057079323236 8.849174410581371 0 -1 0
309 1 17.645334649310293 0.026283038877370532 10.615464740496199 0 0 0
176 1 3.4452191928262073 5.316622418248413 8.771460467491387 0 0 0
195 1 1.863106132725211 7.184990682106141 8.908558755274607 0 0 0
314 1 1.7443922372097094 5.246389133835806 10.520905057877465 0 0 0
341 1 3.520517842339927 7.079785570135369 10.722247371229317 0 0 0
172 1 21.264710806493408 5.4569906711016545 8.81377210133542 -1 0 0
337 1 0.03798826479105766 7.165275126953606 10.597087912975285 0 0 0
180 1 6.972198139493732 5.285233120335988 8.837944004795613 0 0 0
199 1 5.142208744636216 7.069574668923089 8.685127875233455 0 0 0
318 1 5.264925719565467 5.431313812379222 10.485923529979175 0 0 0
345 1 6.975618452807282 7.180368119159344 10.59640972158541 0 0 0
184 1 10.554997332624362 5.271881545181506 8.74051493597284 0 0 0
203 1 8.804987283686488 7.026797319546316 8.799522829777024 0 0 0
207 1 12.275428103587437 6.988680123195431 8.740845778140722 0 0 0
322 1 8.763537688057667 5.432745757994559 10.54486018553796 0 0 0
326 1 12.415321912697257 5.193168413543384 10.585685842250337 0 0 0
349 1 10.563336674077306 7.014899488071974 10.567393720772808 0 0 0
188 1 14.169547855404195 5.281848938844746 8.628683985434167 0 0 0
211 1 15.939646923789807 7.2038323541827 8.694838601205118 0 0 0
330 1 16.00762534580749 5.341508243957313 10.617875424614004 0 0 0
353 1 14.045230855517424 7.091400987652735 10.506764965684726 0 0 0
192 1 17.695776333441884 5.3464771609106165 8.761491221998627 0 0 0
215 1 19.43263370621358 7.2327198862410835 8.701333920890944 0 0 0
334 1 19.50991909300385 5.408604817641582 10.488864298518108 0 0 0
357 1 17.74137383313588 7.213245969964253 10.614860796893613 0 0 0
200 1 3.6456176289570568 8.868491013633719 8.647663725285591 0 0 0
219 1 2.005666770749855 10.797848449336644 8.855022223769968 0 0 0
224 1 3.51699758428088 12.392371049103463 8.739879111194638 0 0 0
338 1 1.8420404701827064 8.947660516132473 10.626587886164998 0 0 0
362 1 1.726057502368729 12.519314895562186 10.5928772798312 0 0 0
365 1 3.70726900316406 10.552996727786626 10.584698293300201 0 0 0
196 1 0.07512128485586549 8.915998499386971 8.834160338521691 0 0 0
361 1 0.013787574713314758 10.708200298429052 10.582933232225816 0 0 0
220 1 -0.0017342887376735408 12.44803107958936 8.851384411212804 0 0 0
204 1 7.03023653857279 8.98908949442508 8.759479108036103 0 0 0
223 1 5.294851907839765 10.692080749027046 8.725070916041874 0 0 0
228 1 7.005172953706052 12.3565668223393 8.86262807833996 0 0 0
342 1 5.229513636206051 8.718164275253693 10.568500909408165 0 0 0
366 1 5.352113291316516 12.382893545545777 10.681840560457326 0 0 0
369 1 7.104033631920231 10.595594314654857 10.680207655954979 0 0 0
208 1 10.621826056178854 8.813476680646685 8.68999302302533 0 0 0
227 1 8.815428774693867 10.620038801004602 8.89753347689859 0 0 0
231 1 12.486008832280065 10.630658565734347 8.661226993247059 0 0 0
232 1 10.641670912560446 12.30300599001722 8.780216118610202 0 0 0
346 1 8.83601446176158 8.871393004965219 10.62348235369267 0 0 0
350 1 12.38413022641185 8.763857067113872 10.50002672199248 0 0 0
370 1 8.98997330652352 12.42981455428276 10.562302459372152 0 0 0
373 1 10.697487798229687 10.683978004238666 10.63029114644836 0 0 0
374 1 12.327323831604005 12.338269432364877 10.704503936485384 0 0 0
212 1 14.157792254483796 8.79493888458304 8.710159547572605 0 0 0
235 1 15.839252285758457 10.640530424599895 8.737122529508797 0 0 0
236 1 14.194173984689963 12.407335652700132 8.83603397494229 0 0 0
354 1 16.049081808671694 8.92499959574633 10.481390948209155 0 0 0
377 1 14.291924423812668 10.598071938783239 10.671750472654193 0 0 0
378 1 15.965650085155039 12.307625718034817 10.465418838060051 0 0 0
216 1 17.665612597260704 8.947498620034827 8.69643847066662 0 0 0
239 1 19.446941046189806 10.70578842884928 8.785571828424827 0 0 0
240 1 17.72911292013938 12.481613840667073 8.80058743134174 0 0 0
358 1 19.622671093274207 9.001476011066345 10.616809423767918 0 0 0
381 1 17.74366649007608 10.644485921487771 10.565213331494508 0 0 0
382 1 19.46922642911347 12.527753991719806 10.549965974717809 0 0 0
243 1 1.8914378640033125 14.118240754907168 8.755129968460778 0 0 0
248 1 3.462466349023134 16.00633505246966 8.78415887355287 0 0 0
386 1 1.7310178925211206 15.9234612017296 10.543332344180612 0 0 0
389 1 3.691589007106522 14.1043508817612 10.63948716619572 0 0 0
385 1 0.0002987283942975441 14.257604674199893 10.506363042358029 0 0 0
247 1 5.285570773605784 14.133981495130666 8.854002202317087 0 0 0
252 1 7.112623885132787 15.984604632385894 8.870578887714872 0 0 0
390 1 5.373574942407067 15.910268229078591 10.59289712149972 0 0 0
393 1 7.114649000282372 14.02178748839622 10.683773730187525 0 0 0
251 1 8.883547254064494 14.106666098916872 8.896491550643212 0 0 0
255 1 12.442428905860183 14.103843575183289 8.833215340397494 0 0 0
256 1 10.620669837168162 15.826698686034579 8.721146754237482 0 0 0
394 1 8.884764185382895 15.89883343914985 10.624333338469452 0 0 0
397 1 10.799492361891014 14.026685704675655 10.65586502758712 0 0 0
398 1 12.539083335569034 15.991383695605064 10.529974524882583 0 0 0
259 1 16.04090708626815 14.16359388125301 8.817228808472965 0 0 0
260 1 14.247300238429425 15.938191660738179 8.775169503103456 0 0 0
401 1 14.192589192566748 13.98875726972315 10.55628129074902 0 0 0
402 1 15.855365243750029 15.702218899127134 10.567874802485669 0 0 0
244 1 0.0636462987789983 15.915919202041673 8.773468374276018 0 0 0
263 1 19.3967799137123 14.328592733127788 8.835092500477389 0 0 0
264 1 17.69960885861196 16.025376569001153 8.69258264755762 0 0 0
405 1 17.69885176302833 14.184988211506193 10.60440935734459 0 0 0
406 1 19.43676363675946 16.022754865650235 10.551801524204734 0 0 0
147 1 1.796675019444958 21.21550105205339 8.774084578242476 0 -1 0
267 1 1.8189278978472612 17.86069621121787 8.860679922597553 0 0 0
272 1 3.641446068207689 19.484612700764124 8.865413136915173 0 0 0
410 1 1.6782759026190899 19.448243909161754 10.68588353951819 0 0 0
413 1 3.5898866080138956 17.78889595834108 10.657255444238158 0 0 0
297 1 7.175670367895031 -0.008336467429245431 10.67589565792463 0 0 0
271 1 5.368895490608967 17.718118538441423 8.788602841634336 0 0 0
276 1 7.111425605762594 19.561955614431668 8.900100568983579 0 0 0
414 1 5.3037771290435085 19.569374059894137 10.676579766843282 0 0 0
417 1 7.12323262992212 17.77230606485749 10.64277427013443 0 0 0
159 1 12.589870068606002 0.08855680053999038 8.974307646427052 0 0 0
301 1 10.808186723010248 0.09896680409587333 10.646124552223633 0 0 0
155 1 8.978169224056447 0.034569139413953565 8.838119534247037 0 0 0
275 1 8.851269598955525 17.8705812440516 9.026688468543384 0 0 0
279 1 12.27510422271216 17.654842665298816 8.853019980023422 0 0 0
280 1 10.735218801987617 19.56365871444303 8.792099186973337 0 0 0
418 1 8.892197687700605 19.61164735230541 10.561153992225208 0 0 0
421 1 10.512109608385682 17.656056622309592 10.661824714090944 0 0 0
422 1 12.421158039145116 19.434916553446996 10.552196337082764 0 0 0
163 1 15.907357091837161 21.27099573115443 8.701216848746904 0 -1 0
283 1 15.951370949758644 17.633131182356024 8.710031163583553 0 0 0
284 1 14.085463093152633 19.469649002349335 8.884493150205675 0 0 0
425 1 14.19977307369394 17.633283558612476 10.57647498848132 0 0 0
426 1 15.985849570296098 19.489730557744963 10.634871131344774 0 0 0
409 1 21.239935383298736 17.686643740258248 10.487650650863575 -1 0 0
268 1 21.28596924959175 19.45945251840716 8.825475686165872 -1 0 0
287 1 19.533068650106486 17.65062987772366 8.666867347852694 0 0 0
288 1 17.765712494037786 19.51691528565241 8.651566027803664 0 0 0
429 1 17.642516630952045 17.649591231105205 10.514671585171843 0 0 0
430 1 19.500588938806928 19.354967156784802 10.623263710461963 0 0 0
296 1 3.3962819938484916 1.7310476205155705 12.302489898661538 0 0 0
315 1 1.7508941801971347 3.464800923122436 12.397911568498197 0 0 0
434 1 1.687245395574978 1.720417119595551 14.179183438614217 0 0 0
461 1 3.6022438259753824 3.3720808104125397 14.272704833804637 0 0 0
459 1 1.7773073236193229 3.409675056357651 15.985856618103863 0 0 0
457 1 21.203670563989093 3.717834962200668 14.17126529808645 -1 0 0
292 1 21.165103684474868 1.8151432023540113 12.363541279456216 -1 0 0
291 1 1.609627701630716 0.05795379554865661 12.264934614180037 0 0 0
433 1 21.265342853990244 21.277342881477757 14.171295938462157 -1 -1 0
440 1 3.3972258753177473 1.676977715223417 16.091872786889297 0 0 0
300 1 7.148219719090365 1.5826688197335255 12.347175653489208 0 0 0
319 1 5.302667497662414 3.394088539017711 12.45600187649495 0 0 0
438 1 5.359699042051784 1.6908278649802104 14.203051299710333 0 0 0
465 1 7.165129706728637 3.581832888767999 14.141525200549408 0 0 0
441 1 7.010874828549131 21.19772256280139 14.163342637363337 0 -1 0
304 1 10.680905402829858 1.6902619731341977 12.387213301286625 0 0 0
323 1 8.830987091300628 3.517388704079641 12.419187792489888 0 0 0
327 1 12.413202450428399 3.526822936045935 12.477152291692226 0 0 0
442 1 8.802941017330301 1.6344122894297548 14.217822976723129 0 0 0
446 1 12.360085188854967 1.6827118983795877 14.192719228984716 0 0 0
469 1 10.535584278423928 3.4078201254486546 14.125371213953969 0 0 0
445 1 10.630824325464642 21.22180427633543 14.190664480527934 0 -1 0
303 1 12.52483963074679 21.2552387946581 12.342174626147937 0 -1 0
448 1 10.553952291270145 1.6165578423480276 15.974374783987102 0 0 0
308 1 14.369989010750592 1.8111289664378598 12.498090300850976 0 0 0
331 1 16.049586096498928 3.485674986458653 12.423071280570385 0 0 0
450 1 15.998158939480975 1.7879783929051476 14.12037497484076 0 0 0
473 1 14.25638903828174 3.5779066787625937 14.174722356894687 0 0 0
449 1 14.238495232307981 0.0314246584082932 14.355956831166624 0 0 0
475 1 15.9013450033245 3.6557145666441624 15.944184190879735 0 0 0
312 1 17.809986812457872 1.7254313119841675 12.539550320638595 0 0 0
335 1 19.338736595003184 3.537906912466632 12.355949194093348 0 0 0
454 1 19.61615938341516 1.8782823491505154 14.130837112392514 0 0 0
477 1 17.66398281669821 3.781622565797056 14.168391927798966 0 0 0
453 1 17.777057974922855 21.168862662567665 14.326935894199828 0 -1 0
311 1 19.53870270631797 21.26371542259556 12.426649187042207 0 -1 0
436 1 0.004506785297039073 1.6864327755474897 15.863417564848712 0 0 0
320 1 3.6320268512518483 5.259376872615667 12.38795778860298 0 0 0
339 1 1.7624498963472326 7.0082830114799215 12.383530414344637 0 0 0
458 1 1.7649978412181935 5.261523923503593 14.303902246210063 0 0 0
485 1 3.6852414978391437 7.080862047330793 14.199963834682036 0 0 0
481 1 0.015706983043477972 7.013348052551493 14.052899357491018 0 0 0
460 1 21.273019345316346 5.20852303259746 16.032681404712168 -1 0 0
483 1 1.784695495686078 7.060472029597574 15.967210570734256 0 0 0
464 1 3.5091061383158544 5.29615433102628 16.004023202127332 0 0 0
324 1 7.149014142880689 5.327502191750609 12.298760680969345 0 0 0
343 1 5.308099377511883 7.053357271665344 12.391115554483848 0 0 0
462 1 5.39811136315443 5.36244432555311 14.294853677592004 0 0 0
489 1 7.1300849439303295 7.046575113904955 14.257937557898895 0 0 0
487 1 5.454384509087331 6.963191284246125 15.981376455000508 0 0 0
468 1 7.165367832349251 5.127113226703509 15.936896417599197 0 0 0
328 1 10.516913904462927 5.319584905398161 12.432689783960518 0 0 0
347 1 8.85410726040331 7.1236029651402495 12.592481447197494 0 0 0
351 1 12.364817746903638 7.121252683587083 12.362263233815122 0 0 0
466 1 8.942815650420808 5.316343256540343 14.275633530719807 0 0 0
470 1 12.392238580121928 5.276293781318467 14.114536370956953 0 0 0
493 1 10.632356630573376 7.128578432225952 14.071991988748904 0 0 0
472 1 10.69298234180725 5.4392329380350155 16.084232147526905 0 0 0
495 1 12.392387579114208 7.18246289284783 15.772527701234825 0 0 0
332 1 14.140303772919815 5.329861979746213 12.274529228992538 0 0 0
355 1 15.874449131301859 7.161172165184648 12.439470045729637 0 0 0
474 1 15.983889268912064 5.363128258532374 14.275113379905894 0 0 0
497 1 14.162677821844992 7.105818965978217 14.150688067054437 0 0 0
476 1 14.118862113468335 5.4657243847059105 15.974659984068186 0 0 0
316 1 0.04382107124845902 5.180633796443737 12.190061590670627 0 0 0
336 1 17.639797345203142 5.37885352892779 12.349611502488772 0 0 0
359 1 19.462192419720743 7.069924925222252 12.445773952320707 0 0 0
478 1 19.510345067556045 5.425902887384723 14.041007645280501 0 0 0
501 1 17.683112853510416 7.1019248117424345 14.228675279554317 0 0 0
480 1 17.766695780608003 5.3950623719636575 15.946115405819995 0 0 0
503 1 19.601385032855262 7.137920478238416 15.860167448501677 0 0 0
344 1 3.4896658532586096 8.76013715376749 12.37179046989645 0 0 0
363 1 1.8065615011316842 10.599276505019883 12.379015927532908 0 0 0
368 1 3.4104858638656057 12.426377165507098 12.444103458519436 0 0 0
482 1 1.785898653099209 8.782823322792527 14.124001552737852 0 0 0
506 1 1.710167240369612 12.324066555150889 14.275671310471964 0 0 0
509 1 3.6191100172587043 10.597140780747674 14.205704773391462 0 0 0
340 1 0.07361538878703892 8.915609961147544 12.31320454605481 0 0 0
505 1 0.014356195756445797 10.553579121690122 14.201053220164495 0 0 0
364 1 0.01362004718963078 12.291502254346833 12.408428189142683 0 0 0
512 1 3.4470795061935657 12.414247145974224 15.957600822717382 0 0 0