LAMMPS data file via write_data, version 29 Oct 2020, timestep = 20000

1372 atoms
1 atom types

-0.09359338089918623 24.90159338089961 xlo xhi
-0.09359338089918623 24.90159338089961 ylo yhi
-0.09359338089918623 24.90159338089961 zlo zhi

Masses

1 58.933

Atoms # atomic

1 1 24.871555422380897 -0.04590211970412242 24.879399976486326 -1 0 -1
2 1 1.5703235631307262 1.568117479671109 24.884488249513495 0 0 -1
3 1 1.5569553244192869 24.756504667222963 1.6902016997410405 0 -1 0
4 1 -0.016752501499129657 1.5406982467402348 1.7251574792696953 0 0 0
5 1 3.605124970720332 24.88592351497056 -0.05173781802834155 0 -1 0
8 1 3.4885856628922434 1.7677523314071935 1.6724520531453646 0 0 0
29 1 24.832323796704724 3.542765073552406 24.836885321995762 -1 0 -1
31 1 1.6464781043937124 3.5414085717988244 1.6290020099003755 0 0 0
33 1 3.398207443316075 3.478886100739873 -0.03120039978067602 0 0 0
197 1 24.770971898072155 -0.0327617768027644 3.482406423291592 -1 0 0
198 1 1.7656305437392286 1.7430882623445827 3.529116048824874 0 0 0
201 1 3.4429459653934926 -0.07247197636572325 3.48257278068951 0 0 0
225 1 0.060982296301700045 3.44781087395111 3.4981736767090563 0 0 0
229 1 3.3194417988743994 3.5348260667821094 3.444611864991669 0 0 0
6 1 5.077238576462858 1.9006022005445449 24.85310260462067 0 0 -1
7 1 5.433123773523562 -0.04346139172391059 1.6280820695267975 0 0 0
9 1 7.074526709563798 -0.07630315454665364 24.839487080691317 0 0 -1
12 1 6.978160193576372 1.808297630865907 1.6655242724118506 0 0 0
35 1 5.21341732519474 3.529313397056572 1.8717768985081131 0 0 0
37 1 6.917549877494544 3.6121777166323703 0.08152697794538849 0 0 0
202 1 5.196124237609834 1.6840395739619074 3.497712816517931 0 0 0
205 1 7.000802492698625 24.827747337263343 3.509644766588759 0 -1 0
233 1 7.073288189340447 3.307429229239274 3.6373100301794516 0 0 0
10 1 8.71606703721746 1.6890020038005036 0.004664425236496378 0 0 0
11 1 8.729842742532963 -0.07339006244875244 1.7552686535115847 0 0 0
13 1 10.401542600606165 24.851539238969682 24.78275199803398 0 -1 -1
16 1 10.531852520320973 1.6312246735226896 1.6209057027619056 0 0 0
39 1 8.732042023317998 3.6506735669615704 1.7789415277502405 0 0 0
41 1 10.57411096999053 3.4598752726408066 0.04417941762240574 0 0 0
206 1 8.899270097542928 1.6093540937931579 3.496263195853444 0 0 0
209 1 10.614452909291213 24.849961808351267 3.4505117208756566 0 -1 0
237 1 10.705550445264478 3.3563184672828745 3.3950924446865764 0 0 0
14 1 12.342992038450223 1.774550226810684 24.74829704275209 0 0 -1
15 1 12.29402018848294 24.89642484689351 1.6783287800411228 0 -1 0
17 1 14.195362789302958 -0.01475347696298239 24.850134284859173 0 0 -1
18 1 16.04262159045411 1.8264064512847387 -0.05186734740918901 0 0 0
19 1 15.94978081351372 -0.03347403679597475 1.738662972391452 0 0 0
20 1 14.188271102485478 1.655248559995085 1.7010668748105535 0 0 0
43 1 12.454835566423222 3.465404859398097 1.7752726462269002 0 0 0
45 1 14.159807267579977 3.3555793226623103 -0.08315084267537681 0 0 0
47 1 15.969849323027752 3.507877665053715 1.795608176211099 0 0 0
210 1 12.421435203311502 1.553718760634488 3.4690256295385646 0 0 0
213 1 14.111992385122507 24.784915544982802 3.522878237652519 0 -1 0
214 1 15.986967374000308 1.740043941546139 3.5966979323333477 0 0 0
241 1 14.30480816888807 3.4179665674166957 3.4825874456288677 0 0 0
21 1 17.812798065352982 0.0016333259894829727 -0.06925139094730237 0 0 0
22 1 19.727632559410385 1.696105413822011 -0.04466821100630159 0 0 0
23 1 19.68930938835435 -0.07531960665279931 1.693678601732193 0 0 0
24 1 17.867299408815374 1.6888041969555199 1.646260104558943 0 0 0
49 1 17.868181769221277 3.4250586639623535 24.896225296727508 0 0 -1
51 1 19.748374032056255 3.5073063727288103 1.6704885841023107 0 0 0
217 1 17.69249841519959 24.85812278400714 3.3789992648025446 0 -1 0
218 1 19.489238897431182 1.6779709836437258 3.516084116175776 0 0 0
245 1 17.884197369167218 3.537912918623009 3.3999774762558923 0 0 0
25 1 21.441163384689677 24.859671078800744 -0.08589301053076942 0 -1 0
26 1 23.117417646038895 1.6395259063946943 24.838235329847123 0 0 -1
27 1 23.02995407426436 24.88302162529961 1.6956764182730815 0 -1 0
28 1 21.445961277226594 1.6775797910871462 1.6370893240877071 0 0 0
53 1 21.46762803958075 3.4972521262275498 24.88703149109304 0 0 -1
55 1 23.208474378067642 3.5063469715284925 1.5496176740987124 0 0 0
221 1 21.307926764418465 0.02913194455352118 3.6146521153439473 0 0 0
222 1 23.117365746549364 1.9296433588254596 3.4734194538066423 0 0 0
249 1 21.365648732445926 3.457905993811884 3.5526307496422778 0 0 0
30 1 1.6282032952389132 5.2450023180369465 24.821121977148536 0 0 -1
32 1 -0.08165560368026957 5.298547802984137 1.7263105570891475 0 0 0
36 1 3.439196695051986 5.224324956540186 1.6514679858240202 0 0 0
57 1 -0.043964058379894824 7.054900950284467 24.850786561277786 0 0 -1
59 1 1.7418523119901907 7.108980304633591 1.739567820007117 0 0 0
61 1 3.4964866816959397 7.052783709533105 -0.02445494390135884 0 0 0
226 1 1.7394209423775746 5.325390644652874 3.477444297999174 0 0 0
253 1 24.830650311252963 7.028814534596895 3.3903681943767783 -1 0 0
257 1 3.4526559654905293 6.9363236416140985 3.5099225055814878 0 0 0
34 1 5.276550367017079 5.0498480436993525 -0.020558604189068852 0 0 0
40 1 6.950035012458083 5.33765788781576 1.759153799720682 0 0 0
63 1 5.0869847947671625 7.0562299732876665 1.7611781904836215 0 0 0
65 1 6.867682303632311 6.954045218288497 24.88651425207823 0 0 -1
230 1 5.275492334688782 5.325385544033158 3.5733457788550407 0 0 0
261 1 6.978892721618131 7.079264711104719 3.4961034419189922 0 0 0
38 1 8.772991558480387 5.267612059902732 -0.0418292398711085 0 0 0
44 1 10.63853505055468 5.3356489430298435 1.787818776400103 0 0 0
67 1 8.686618007196579 7.1835182951431 1.6856819435553894 0 0 0
69 1 10.508343285087092 7.123993840077387 -0.059845436312273015 0 0 0
234 1 8.919314400368144 5.349385486575478 3.473885592655686 0 0 0
265 1 10.525108321588858 7.191801845368517 3.278498182164075 0 0 0
42 1 12.439121392635643 5.224272361332994 -0.07337077597398664 0 0 0
46 1 15.969528872089835 5.097061367453469 24.90138266784304 0 0 -1
48 1 14.071478209034048 5.297483631190272 1.682123146986415 0 0 0
71 1 12.31065854540406 7.085757259915422 1.74328178390642 0 0 0
73 1 14.147724490074001 7.131898758627238 24.893263139957995 0 0 -1
75 1 15.905506331654669 7.027853283924121 1.6300108915853415 0 0 0
238 1 12.436100588459048 5.367780059615789 3.403957608374724 0 0 0
242 1 15.893881796203123 5.356125779603363 3.506883700963832 0 0 0
269 1 14.184698936885836 7.0532624632187195 3.576243686755826 0 0 0
50 1 19.543365626916387 5.323320629072381 -0.02387836365123505 0 0 0
52 1 17.756682959065593 5.246541137012676 1.7312887733200908 0 0 0
77 1 17.699401586784564 6.956382868341617 24.900727901593662 0 0 -1
79 1 19.614724746851746 7.073830252421511 1.7053358757642147 0 0 0
246 1 19.709286136044604 5.213091259045919 3.4330723730765658 0 0 0
273 1 17.79988564456738 6.938360459686166 3.494123470145037 0 0 0
54 1 23.21977136236053 5.337308741230991 24.843806151690398 0 0 -1
56 1 21.403167605236565 5.2197267020839595 1.7058077166449117 0 0 0
81 1 21.440484795109718 7.139894067942707 -0.05035649106649598 0 0 0
83 1 23.113054455387925 7.073528008328613 1.6424559840509667 0 0 0
250 1 23.139883232251947 5.309703692909043 3.525557056214317 0 0 0
277 1 21.388268873557298 7.051911534370889 3.501733761642387 0 0 0
58 1 1.790463531643426 8.915564648231813 -0.007812179333283181 0 0 0
60 1 24.85641410730515 8.844897338968055 1.7027192758302747 -1 0 0
64 1 3.6116510939565423 8.896106745251553 1.7396653070566772 0 0 0
85 1 -0.02842223786225613 10.495189599101746 -0.07554935486127191 0 0 0
87 1 1.7129611685095811 10.428827785632336 1.750451778138616 0 0 0
89 1 3.4177317310911906 10.590206095089703 -0.005076068783797932 0 0 0
254 1 1.6046912495640646 8.741419890935875 3.5971871825585717 0 0 0
281 1 0.0003662638267478008 10.52221183489694 3.4951780557711323 0 0 0
285 1 3.4428321494577334 10.589360384656482 3.462985297067266 0 0 0
62 1 5.221742970609936 8.980311506815568 24.801864481440266 0 0 -1
68 1 6.948249339353094 8.950501903659266 1.6900753822694248 0 0 0
91 1 5.1339602221006455 10.765264067557785 1.819519824871865 0 0 0
93 1 6.971723064707807 10.663581942390405 -0.07651414628325465 0 0 0
258 1 5.3112149948723415 8.717460917404543 3.555516715570832 0 0 0
289 1 6.825425363909085 10.660088137970794 3.6052453318731974 0 0 0
66 1 8.74929790705206 8.746953567427047 -0.0876742647577735 0 0 0
72 1 10.565144704732996 8.975382559146686 1.5537631451718583 0 0 0
95 1 8.691568285499102 10.602212817097799 1.6641036543928596 0 0 0
97 1 10.40777302561212 10.687615175635734 24.86233709763921 0 0 -1
262 1 8.63104405164381 9.027843749519818 3.4574415509739094 0 0 0
293 1 10.529168104266768 10.585169678495408 3.4656413336894616 0 0 0
70 1 12.380184913191796 8.909280541123955 24.82223091346137 0 0 -1
74 1 15.912800783492678 8.868667723483167 -0.07116672604628724 0 0 0
76 1 14.094954592516451 8.678767259884756 1.7417414205774542 0 0 0
99 1 12.499504232649267 10.55453549377817 1.7068198802759038 0 0 0
101 1 14.244775625789833 10.607432458791262 24.892163039540634 0 0 -1
103 1 15.89529521652066 10.627900028126048 1.6216857836841585 0 0 0
266 1 12.338443853761643 8.860110975395774 3.4589782796747564 0 0 0
270 1 15.933355209244791 8.760631017465299 3.452743106765825 0 0 0
297 1 14.208895630694746 10.524336143683295 3.3548890561296836 0 0 0
78 1 19.503539372005577 8.8145866891945 24.89554250156093 0 0 -1
80 1 17.720880228442493 8.823858378393776 1.7685469597066994 0 0 0
105 1 17.78260155082047 10.532779899237621 -0.07604418207762034 0 0 0
107 1 19.526844095731818 10.585147605213438 1.8043833775284366 0 0 0
274 1 19.64751212689213 8.815316643050027 3.468285351227306 0 0 0
301 1 17.733920401906804 10.646219228938325 3.5019153577295037 0 0 0
82 1 23.113960090838646 8.911462881349467 -0.05775287391421815 0 0 0
84 1 21.399680699931427 8.91499994875425 1.675412584934128 0 0 0
109 1 21.494999884696476 10.680565921912418 -0.07123268789881236 0 0 0
111 1 23.214852481111013 10.649858747351765 1.7342908154673293 0 0 0
278 1 23.184237265171316 8.94655145688863 3.5263347375378653 0 0 0
305 1 21.39264434926279 10.716861589892167 3.4359464227840686 0 0 0
86 1 1.7057836809950335 12.325962826664847 24.877085949249885 0 0 -1
88 1 0.00017075024367681213 12.381209231904506 1.6546677452127467 0 0 0
92 1 3.3672573125311547 12.397289134065925 1.7395135133324953 0 0 0
113 1 -0.058120525408402755 14.1299562313979 0.021922151947103383 0 0 0
114 1 1.7898229406902824 16.032968270449423 24.846369316480118 0 0 -1
115 1 1.6895067568095052 14.241741684838978 1.6704013612827522 0 0 0
116 1 -0.020341301321337282 16.024819038527323 1.6768057747382463 0 0 0
117 1 3.4866498822309997 14.3073308623452 -0.0422455151321225 0 0 0
120 1 3.495340556212874 16.033949667942437 1.7492413517580447 0 0 0
282 1 1.7182594292092368 12.40364486744139 3.465183620132141 0 0 0
309 1 -0.05248501471424666 14.147734737157439 3.42128860070207 0 0 0
310 1 1.7265998441995276 15.99818821925333 3.5615978321548276 0 0 0
313 1 3.4454606806007564 14.167560909477382 3.592405292065156 0 0 0
90 1 5.068120145024882 12.39896054849457 -0.08812009091959794 0 0 0
96 1 6.857443610621545 12.413508233845507 1.671332100781909 0 0 0
118 1 5.261609186372835 16.025691821470232 -0.057102435422801655 0 0 0
119 1 5.124895015293011 14.196693102402822 1.6976934226609155 0 0 0
121 1 6.8172817415718026 14.08502050299999 24.853547522891745 0 0 -1
124 1 6.994643709977137 15.928270372301537 1.585593394731606 0 0 0
286 1 5.134832807201665 12.49661588378479 3.512903390061739 0 0 0
314 1 5.180171847442324 15.926833101344862 3.545070113924135 0 0 0
317 1 7.063090398097771 14.153866234718592 3.4105230555871446 0 0 0
94 1 8.69618907916272 12.322466434105458 24.881903050914435 0 0 -1
100 1 10.58349290180279 12.332026369617418 1.6346249158808455 0 0 0
122 1 8.647515062326454 15.871628264823778 24.81533151723089 0 0 -1
123 1 8.722311838343382 14.138164237563759 1.6742484671802944 0 0 0
125 1 10.645780311051274 14.245266113847059 24.819255104274706 0 0 -1
128 1 10.649055946092247 15.850744757600353 1.6292237114427832 0 0 0
290 1 8.688498879200466 12.295494968055685 3.3036787941605295 0 0 0
318 1 8.869859102760216 15.892975811014018 3.433055348613424 0 0 0
321 1 10.598986616269801 14.051586795519642 3.3394200343767464 0 0 0
98 1 12.280495524850611 12.362858728148131 24.822849686393823 0 0 -1
102 1 15.944250209103743 12.510621401691258 24.870028020398298 0 0 -1
104 1 14.205966468961668 12.40731242511214 1.498278237991174 0 0 0
126 1 12.474523615872565 16.0766475224838 24.86251909320179 0 0 -1
127 1 12.469725860682903 14.261051845428558 1.5109015337280094 0 0 0
129 1 14.236086500843717 14.345107384528 24.88250171280408 0 0 -1
130 1 16.122874095702244 16.161856534353664 -0.06572844038974489 0 0 0
131 1 15.904400260911295 14.257627769897935 1.6314448297528634 0 0 0
132 1 14.134342556048463 16.0505448766327 1.6453102869275817 0 0 0
294 1 12.616461943310496 12.266865023181694 3.2547461045426065 0 0 0
298 1 16.00961976347486 12.355713888831575 3.3105140517907117 0 0 0
322 1 12.384482117937736 15.969333580706579 3.422164773637677 0 0 0
325 1 14.1983797872634 14.278777595424414 3.3582321687093484 0 0 0
326 1 16.045855387363524 15.95441734902306 3.419487537590931 0 0 0
106 1 19.563159216369115 12.32094626154217 -0.043905681712276885 0 0 0
108 1 17.67508560785344 12.359469300266802 1.507469398087015 0 0 0
133 1 17.73250503770945 14.2215560086239 24.897554499390235 0 0 -1
134 1 19.484091096944137 15.929434241050398 -0.08194649973399815 0 0 0
135 1 19.499177864415614 14.159036990753693 1.6689156297069254 0 0 0
136 1 17.826594599536953 16.054722092405076 1.7546507022322646 0 0 0
302 1 19.50082622974792 12.4327223432403 3.517110746423091 0 0 0
329 1 17.78052363806983 14.17138253471321 3.397141252880042 0 0 0
330 1 19.675616058565545 16.0216671827392 3.548795132437825 0 0 0
110 1 23.16284930648723 12.38139024128524 -0.06188865479349738 0 0 0
112 1 21.393310649542443 12.505473838088415 1.6618715899409788 0 0 0
137 1 21.299249767933595 14.10765567592448 24.855616042985158 0 0 -1
138 1 23.029227078830207 15.921898901357544 -0.07057174828312746 0 0 0
139 1 23.11634569848584 14.156468555422364 1.6576022481633268 0 0 0
140 1 21.376147863370857 15.8845806857747 1.737545138097772 0 0 0
306 1 23.099285579140883 12.601090452994193 3.4499187217211884 0 0 0
333 1 21.336317855487046 14.277199746803145 3.4188082932775052 0 0 0
334 1 23.309437189829357 15.999057879443704 3.4446191966273556 0 0 0
141 1 24.826160612579475 17.749939648937005 -0.050792976537343236 -1 0 0
142 1 1.6634617225848325 19.524725397783335 24.812647462187023 0 0 -1
143 1 1.6844009479401825 17.786160234805113 1.730166060991628 0 0 0
144 1 -0.06900482756491297 19.63624840165105 1.7290290525573804 0 0 0
145 1 3.352640139948998 17.720487621077275 24.856386336218492 0 0 -1
148 1 3.4950613029831397 19.568996322271232 1.629198330223585 0 0 0
337 1 0.058592435536359344 17.828803879714034 3.5850087468795637 0 0 0
338 1 1.5482183850376914 19.633258341917163 3.518941084477148 0 0 0
341 1 3.4321561799539544 17.74468042792449 3.5986884974422777 0 0 0
146 1 5.30352899278102 19.380264789757096 0.04548956585008451 0 0 0
147 1 5.2715994414992755 17.68334062997583 1.8706009038555673 0 0 0
149 1 7.060850321588146 17.716852732994287 0.05102041440500271 0 0 0
152 1 7.092049998387461 19.5836101116977 1.7370267039993115 0 0 0
342 1 5.306427800329848 19.553216961114614 3.42823494344958 0 0 0
345 1 7.039395163346545 17.73058348593276 3.564610279120052 0 0 0
150 1 8.917175426606162 19.42999726126439 24.878298324165897 0 0 -1
151 1 8.906360403277501 17.817275118978348 1.7342828981367437 0 0 0
153 1 10.520094365895762 17.561968532324812 24.718757779222788 0 0 -1
156 1 10.6396039087246 19.571873118157423 1.6795776622798213 0 0 0
346 1 8.904957060886607 19.47103598918909 3.389341618774782 0 0 0
349 1 10.654969637658198 17.622683000217133 3.3968921110836114 0 0 0
154 1 12.418168081815663 19.54092245833288 24.853404248479684 0 0 -1
155 1 12.349602462698764 17.81017168122159 1.6341179449796888 0 0 0
157 1 14.248821261199554 17.844169223128535 -0.04617427538628322 0 0 0
158 1 15.94426808916915 19.667110331016445 24.825457671206717 0 0 -1
159 1 16.16060597140399 17.777940120127997 1.6912763901196495 0 0 0
160 1 14.148473331023332 19.603077450215054 1.679827446668917 0 0 0
350 1 12.410892077900819 19.749628295583438 3.5046643755998956 0 0 0
353 1 14.190589351323815 17.804342600117568 3.4311685841141193 0 0 0
354 1 15.948743190699908 19.62897869059321 3.4399784284547352 0 0 0
161 1 17.82903012128735 17.796385743362745 24.691791982484585 0 0 -1
162 1 19.428791454382036 19.543682551040007 -0.060257108794489596 0 0 0
163 1 19.43269647078351 17.84356512417932 1.710731802964424 0 0 0
164 1 17.761157504877193 19.55545119609942 1.615499596362291 0 0 0
357 1 17.760228307700874 17.852060538851205 3.4789189123805424 0 0 0
358 1 19.60444226895421 19.626012542293463 3.4749319989083802 0 0 0
165 1 21.313145256086717 17.694949843761112 -0.047761565144316176 0 0 0
166 1 23.16478714049778 19.633142788021768 -0.04835355813282765 0 0 0
167 1 23.17657958274945 17.732398763670528 1.741615181128008 0 0 0
168 1 21.287569669913093 19.456434766712434 1.8090327860405717 0 0 0
361 1 21.474809359924517 17.661185715322066 3.4506680875269096 0 0 0
362 1 23.136335770274933 19.44724417887073 3.558267662380829 0 0 0
169 1 -0.08644865048380415 21.292343794064017 24.82491095978875 0 0 -1
170 1 1.7170658371898557 23.113540091985346 24.82374269421233 0 0 -1
171 1 1.722728689630312 21.267222258532822 1.6796174892390956 0 0 0
172 1 24.874508653854143 23.147653662706254 1.5767489612595125 -1 0 0
173 1 3.5040329872451097 21.310542229863508 24.84660111254205 0 0 -1
176 1 3.40988607146806 23.136003992380864 1.8114765776141435 0 0 0
365 1 24.833283209977285 21.427013211195128 3.427065209938661 -1 0 0
366 1 1.6214035116229895 23.109189805085684 3.4066274941517336 0 0 0
369 1 3.472305351671337 21.26445288282239 3.4509595202583516 0 0 0
174 1 5.35524694279646 23.059964945553883 -0.07032854939400854 0 0 0
175 1 5.225995577197691 21.27656540698495 1.6660682264941367 0 0 0
177 1 7.009221652461423 21.369992297123815 -0.03308026401890036 0 0 0
180 1 7.144535353379103 23.143001141013574 1.7476987643215647 0 0 0
370 1 5.280136887003214 23.192354272356784 3.4355666170530856 0 0 0
373 1 7.004767303990403 21.320882708695812 3.5070051710183754 0 0 0
178 1 8.73834686578459 23.200541307657716 24.82937092878438 0 0 -1
179 1 8.708185920914683 21.32404924011149 1.6486236421711287 0 0 0
181 1 10.644730300529714 21.337906526959387 24.85031441237268 0 0 -1
184 1 10.606494896367316 23.12580773687365 1.50580450462811 0 0 0
374 1 8.945239577531048 23.054542486172583 3.413765626054547 0 0 0
377 1 10.678700019004532 21.45017528944108 3.4477054258135587 0 0 0
182 1 12.393510742941704 22.98101270437471 24.862553059065092 0 0 -1
183 1 12.344392314337163 21.354506504318042 1.6563574920214827 0 0 0
185 1 14.186947056570835 21.421766879891376 24.815260430236222 0 0 -1
186 1 15.861766529768444 23.185394444242885 24.84035529950895 0 0 -1
187 1 15.829762422517357 21.492055011180508 1.5564321666503458 0 0 0
188 1 14.053159548456431 23.24559000345785 1.6227486742290445 0 0 0
378 1 12.34877920382727 23.123868532359406 3.5771430501060903 0 0 0
381 1 14.16942724166295 21.454996320441165 3.4651423788927755 0 0 0
382 1 16.01787269758335 23.1347116610329 3.375909051652856 0 0 0
189 1 17.7713814657071 21.296741606354246 24.875782627186023 0 0 -1
190 1 19.56417298987491 23.14267843591906 -0.03255038526811337 0 0 0
191 1 19.510502838878782 21.369424606047538 1.6746079943222285 0 0 0
192 1 17.77037019915387 23.209230903599746 1.6734078274037292 0 0 0
385 1 17.716591838647773 21.43172465966873 3.4547922948294296 0 0 0
386 1 19.607559203841774 23.10884523359981 3.495589045551239 0 0 0
193 1 21.207441394185533 21.201935305198283 -0.0424696768325535 0 0 0
194 1 23.132747228260907 23.129065812385154 24.704501861099807 0 0 -1
195 1 23.130353991356415 21.395455662189313 1.6251651162112075 0 0 0
196 1 21.35589167616397 23.070781281757878 1.7852500162197618 0 0 0
389 1 21.32890267007874 21.2960492271903 3.442333452121893 0 0 0
390 1 23.045073324066802 23.082238080409606 3.485038813683855 0 0 0
199 1 1.7378922337342249 -0.06456034405587896 5.247933094819837 0 0 0
200 1 -0.0354509540901764 1.6318976164768053 5.334005364979593 0 0 0
204 1 3.542033409768382 1.7891896385002186 5.270683346093402 0 0 0
227 1 1.6050064927708148 3.4573190026133065 5.319033937255701 0 0 0
393 1 24.88315240393042 24.88960222350702 6.983184358349846 -1 -1 0
394 1 1.7148522741160002 1.6769072765296202 7.154220961880822 0 0 0
397 1 3.5500557356454383 -0.04204208492200697 7.132736937552693 0 0 0
421 1 -0.07219296738461867 3.4329240238349286 7.080485386627609 0 0 0
425 1 3.4169746197526822 3.4961621986379043 7.026593102399778 0 0 0
203 1 5.1978510385850445 24.84155065761236 5.461302183238414 0 -1 0
208 1 7.089310183989603 1.4657283216361334 5.165795900789676 0 0 0
231 1 5.294325135596892 3.516143957952753 5.2395381452521645 0 0 0
398 1 5.2698434437625785 1.9438339410967633 7.07340332306381 0 0 0
401 1 6.978519990782629 0.056238740357696854 7.10328359435347 0 0 0
429 1 7.153827156469285 3.538420953339169 6.9596591487309825 0 0 0
207 1 9.037225515169617 24.879828367329306 5.367525655096779 0 -1 0
212 1 10.617884082031873 1.711377244087393 5.296716526416148 0 0 0
235 1 8.896450513123987 3.4729443183073303 5.247624163440779 0 0 0
402 1 8.874807114969299 1.6534284040301388 7.041314918827637 0 0 0
405 1 10.581199591015649 -0.08713625990529553 7.161823269950289 0 0 0
433 1 10.739458243015543 3.4969310667142293 7.008802884348816 0 0 0
211 1 12.513969123576985 24.807837701055057 5.341423234511748 0 -1 0
215 1 15.913650608980387 24.818867483599544 5.298393463160922 0 -1 0
216 1 14.203214122359853 1.6369088725032426 5.394905419358945 0 0 0
239 1 12.480822737437965 3.4562357688049152 5.234007680832864 0 0 0
243 1 15.992587117419436 3.479448800989932 5.323818155678691 0 0 0
406 1 12.410998405879882 1.6054324529043724 7.0504298295471735 0 0 0
409 1 14.173868694709443 -0.03063824017084897 7.122244316755766 0 0 0
410 1 16.00222783566433 1.7295321708032716 7.150686171014692 0 0 0
437 1 14.08936216440267 3.472989405707148 7.023549476374678 0 0 0
219 1 19.50266116141375 -0.06030089797352303 5.121189091187706 0 0 0
220 1 17.835692007794872 1.575281501854974 5.370178461068326 0 0 0
247 1 19.46702530732703 3.5311356062256265 5.2255202255865845 0 0 0
413 1 17.7711111995322 24.729867969056862 7.11848796801644 0 -1 0
414 1 19.50203933735325 1.5372924447720122 7.042098289229673 0 0 0
441 1 17.719830782408973 3.4587544604799296 7.188359473227288 0 0 0
223 1 23.109640867179362 24.827037821240285 5.222615283508597 0 -1 0
224 1 21.428353272735897 1.7459528885466349 5.2990384272673605 0 0 0
251 1 23.305384694805714 3.476736229779454 5.3336697129559685 0 0 0
417 1 21.276021770237477 24.86514247221836 7.044047181950952 0 -1 0
418 1 23.095171120553758 1.6599927498392082 7.076818454430833 0 0 0
445 1 21.31776301621174 3.321151031254599 6.94923783287755 0 0 0
228 1 -0.0810115199407456 5.303619063089398 5.216154000282245 0 0 0
232 1 3.4794750888605233 5.267993181966185 5.18782451681706 0 0 0
255 1 1.6532067572855387 7.06831911701533 5.237638887066014 0 0 0
422 1 1.6574194744277704 5.172584070939402 6.948503110911157 0 0 0
449 1 -0.06938399416513288 7.063391161898419 7.074750089828421 0 0 0
453 1 3.4202320010514153 6.958022234191541 7.018766275892791 0 0 0
236 1 7.1517269323653085 5.216107806631103 5.140037751627989 0 0 0
259 1 5.202941534674956 7.22740146891211 5.3450969971431315 0 0 0
426 1 5.299208622243388 5.381269424940146 6.92300900196629 0 0 0
457 1 7.106103048211573 6.980370815068543 6.986316603034025 0 0 0
240 1 10.789090657357319 5.177327234300191 5.164879557951801 0 0 0
263 1 9.02056439089462 6.99640912173174 5.135903053610056 0 0 0
430 1 8.918307443305562 5.157545406260955 7.008351711032555 0 0 0
461 1 10.59812050948535 7.028128774761132 6.891349320305039 0 0 0
244 1 14.062194785927785 5.25638132944904 5.323534466660349 0 0 0
267 1 12.362168655197605 7.112840464665831 5.2061699453298065 0 0 0
271 1 15.991493893001778 6.966941841775276 5.335254404631726 0 0 0
434 1 12.500334492630698 5.399019070332987 7.152194911942209 0 0 0
438 1 15.974442541133993 5.202080206536026 7.071362213122673 0 0 0
465 1 14.048221688680911 7.119938031573103 6.963716310462292 0 0 0
248 1 17.72735860627689 5.266793258094279 5.256854788843326 0 0 0
275 1 19.479786819525664 6.93857134717157 5.26567765145297 0 0 0
442 1 19.406729528384403 5.182444824086036 7.118924304743193 0 0 0
469 1 17.744950262871367 7.128597476508629 7.1126918013740985 0 0 0
252 1 21.45584024466344 5.232082454989995 5.420719676853711 0 0 0
279 1 23.162052848009438 7.125728757297131 5.313868532745471 0 0 0
446 1 23.13228741050337 5.313826374394306 7.170740449524424 0 0 0
473 1 21.32388412459773 7.039203139684569 7.02349643115304 0 0 0
256 1 24.888104540563205 8.784473549105021 5.21601680829399 -1 0 0
260 1 3.4645508585039826 8.898805112225494 5.3251155295378725 0 0 0
283 1 1.6049201207205623 10.57200346232239 5.247789425193641 0 0 0
450 1 1.5743116302858922 8.760074482436307 7.1508199225651925 0 0 0
477 1 -0.06727242301445141 10.666929798634179 7.125475209169407 0 0 0
481 1 3.3945438463415103 10.794693415023747 7.140890088973795 0 0 0
264 1 7.195703413898813 8.828296545584728 5.329837439153727 0 0 0
287 1 5.168378153192241 10.417441057681659 5.488823984234468 0 0 0
454 1 5.301254960887157 8.8721004717054 7.1336904026574155 0 0 0
485 1 7.091050281486556 10.597907316616014 6.8964519155191315 0 0 0
268 1 10.532211218119395 8.835596266864773 5.1941296643045165 0 0 0
291 1 8.810356461096507 10.634183638563599 5.302964511048047 0 0 0
458 1 8.867316394375823 8.875924864735692 6.980045716056562 0 0 0
489 1 10.60517827363858 10.625916979465122 7.040164887651781 0 0 0
272 1 14.152288832720757 8.846045114606763 5.316889420795236 0 0 0
295 1 12.455554641868696 10.682242035416374 5.219835332547922 0 0 0
299 1 16.020551795269032 10.737305514878427 5.113541347265448 0 0 0
462 1 12.330579179521079 8.924271037470005 6.970801703451188 0 0 0
466 1 15.892914383173053 8.763193925300397 6.904980239603964 0 0 0
493 1 14.199840656652086 10.662972344053053 6.913691583682652 0 0 0
276 1 17.769314612819695 8.804807001901876 5.252931099920756 0 0 0
303 1 19.51095915962849 10.642284702513042 5.116002879630437 0 0 0
470 1 19.482363341803477 8.789512058099975 7.06096956130683 0 0 0
497 1 17.73955960247497 10.559873343326379 7.003181267546415 0 0 0
280 1 21.304302179664372 8.936424870890999 5.200863074219853 0 0 0
307 1 23.134700602333925 10.617676003530176 5.283479039307831 0 0 0
474 1 23.20108123507001 8.897678129482346 7.114124808032266 0 0 0
501 1 21.369044591572322 10.548917915200239 7.165424716812561 0 0 0
284 1 24.82834285789819 12.474089378469818 5.2225649029230645 -1 0 0
288 1 3.4316741184135107 12.365933661210432 5.191849489398459 0 0 0
311 1 1.782877589373936 14.205787675635934 5.385360321892364 0 0 0
312 1 0.0827924130306705 15.930214778926484 5.374277737790357 0 0 0
316 1 3.337287696616506 15.949205906819941 5.370576335815366 0 0 0
478 1 1.668378068377092 12.478201190154238 6.964941470937387 0 0 0
505 1 -0.08601300992793744 14.051525260466116 7.162385440754467 0 0 0
506 1 1.7712624861352388 16.018304611784927 7.140105516869069 0 0 0
509 1 3.4950494572340505 14.013330299798982 7.208130584025595 0 0 0
292 1 6.978186492620979 12.387440572599052 5.229564884773357 0 0 0
315 1 5.201476955885829 14.170144087217384 5.368398982254023 0 0 0
320 1 7.1248487012920245 15.868011919198933 5.196105848494694 0 0 0
482 1 5.278550431814981 12.363189611462365 7.244925322291938 0 0 0
510 1 5.242039674980226 15.99304114977015 7.0589446323021425 0 0 0
513 1 7.030437659915874 14.151774749871404 7.023624208094048 0 0 0
296 1 10.59352883823738 12.384838777002658 5.087556941498899 0 0 0
319 1 8.827770685419292 13.996532375429126 5.308342652398242 0 0 0
324 1 10.654077133213782 15.877075297630093 5.121257529284991 0 0 0
486 1 8.831287060604131 12.337942125738223 7.02990587489231 0 0 0
514 1 8.8499644726854 15.909039264865065 6.932264385574639 0 0 0
517 1 10.723527028235623 14.144861760303476 6.826579553355634 0 0 0
300 1 14.181802959090303 12.456495917373612 5.298144982531598 0 0 0
323 1 12.400335303533371 14.14696403764528 5.093725618244416 0 0 0
327 1 15.941814771182457 14.03331351766523 5.145806685135064 0 0 0
328 1 14.134278036231752 16.059313604615205 5.046277079523508 0 0 0
490 1 12.28670287768041 12.431398653480347 6.9796494792129495 0 0 0
494 1 15.947020484177958 12.525841468207858 7.051382922715408 0 0 0
518 1 12.412336655682024 16.02434261062723 6.839347478710873 0 0 0
521 1 14.154464725077965 14.171896305504772 6.900407234016159 0 0 0
522 1 16.017275331253956 15.915763787441009 6.879718498744641 0 0 0
304 1 17.88260788882686 12.513137212647697 5.217306827709287 0 0 0
331 1 19.609022415409026 14.197661568057642 5.1908556235507035 0 0 0
332 1 17.853392336319995 15.912284233247082 5.257929530687464 0 0 0
498 1 19.595277226644075 12.298983726456179 7.0689512415137425 0 0 0
525 1 17.83987530229054 14.120010903674855 7.062285080903417 0 0 0
526 1 19.57839794285926 16.007886101356515 6.947023188855471 0 0 0
308 1 21.34436234280848 12.31892199032351 5.31880375475588 0 0 0
335 1 23.18825552406125 14.19580654430797 5.329654849549735 0 0 0
336 1 21.45350399412886 16.002272629021267 5.284482220573032 0 0 0
502 1 23.04843983048398 12.383235505660531 7.169549165006013 0 0 0
529 1 21.359994276601647 14.261384604978058 6.966931393003385 0 0 0
530 1 23.326081510146228 15.882931982074762 7.106493540604429 0 0 0
339 1 1.7135385311779514 17.82899961838481 5.344393059361842 0 0 0
340 1 24.84389448162981 19.594997012087813 5.4015403548155305 -1 0 0
344 1 3.4798268971130994 19.570789421884147 5.365553391437348 0 0 0