LAMMPS data file via write_data, version 29 Oct 2020, timestep = 20000

1080 atoms
1 atom types

0.01247524550255008 21.251524754497275 xlo xhi
0.01247524550255008 21.251524754497275 ylo yhi
0.01871286825390861 31.877287131746215 zlo zhi

Masses

1 58.933

Atoms # atomic

2 1 1.7003033854868688 1.7720663217851278 3.297568318855932 0 0 0
29 1 3.435983709073638 3.5225522196640524 3.449746617875548 0 0 0
5 1 3.563432086135157 21.224961330279708 3.3233866062526443 0 -1 0
6 1 5.30683896545222 1.724322932036449 3.4282437096052973 0 0 0
33 1 7.318401848705176 3.4601023801234296 3.2794907481744606 0 0 0
9 1 7.142575882278128 21.237836319651397 3.6065635831229446 0 -1 0
10 1 9.002065165634095 1.789648816553128 3.5159325826416024 0 0 0
14 1 12.384354962345425 1.8239380207190639 3.395766284248814 0 0 0
37 1 10.701711624231669 3.6311023955528863 3.282626178631474 0 0 0
18 1 16.01500116866539 1.741948675059199 3.341547503169889 0 0 0
41 1 14.252695795682586 3.629493386294883 3.477156403152645 0 0 0
17 1 14.103351477216838 0.08658415185454844 3.4461877928014895 0 0 0
25 1 21.2287379871308 3.4928271543464837 3.4183310506188267 -1 0 0
22 1 19.507978494818353 1.7703343240924694 3.335627478876252 0 0 0
45 1 17.855170132929285 3.7219428096294935 3.4655231010153202 0 0 0
26 1 1.6599434339771757 5.282049170988193 3.4425013015404335 0 0 0
53 1 4.006140561027644 7.090110511934238 3.5344542574332887 0 0 0
30 1 5.46502199827548 5.092574166837303 3.2874056913944325 0 0 0
57 1 7.021941287654316 7.11132377514025 3.1753238130239003 0 0 0
34 1 8.811826974525202 5.342964995705578 3.304122163545571 0 0 0
38 1 12.345636018775751 5.411738078357274 3.3309505255869083 0 0 0
61 1 10.632911560838707 7.177935066078685 3.227663535181692 0 0 0
42 1 16.095023195202206 5.3470681964475055 3.391762206219812 0 0 0
65 1 14.248683332066454 6.945752259375406 3.4815445370347295 0 0 0
49 1 0.1576594882538238 7.222823748667152 3.3880713552672463 0 0 0
46 1 19.71919602560697 5.510893209934379 3.3516922066238957 0 0 0
69 1 17.70967621034171 7.2368840140925075 3.522233983422741 0 0 0
50 1 2.002539948346277 8.768403576712478 3.5923729581243014 0 0 0
74 1 1.8515297586991917 12.425910461353121 3.31648680244611 0 0 0
77 1 3.6566930377157814 10.740362067298301 3.505433365040012 0 0 0
54 1 5.5181353144468215 9.100755978658523 3.4212452263277098 0 0 0
78 1 5.2840875108247065 12.42603176392861 3.3512392741330244 0 0 0
81 1 7.216168319312218 10.732552639893607 3.3275928309896927 0 0 0
58 1 8.927525735606922 8.896138407482741 3.5074821934568874 0 0 0
62 1 12.515338088373339 8.828523310709508 3.351870192322533 0 0 0
82 1 8.95229771747016 12.400679043194586 3.363956135310353 0 0 0
85 1 10.63197954331649 10.652796903989016 3.2602672557380625 0 0 0
86 1 12.30406753866754 12.418236458836585 3.270887333454181 0 0 0
66 1 15.834148804178259 8.955683052630995 3.3625725980157863 0 0 0
89 1 14.031665300847028 10.739730826363884 3.3954735187332106 0 0 0
90 1 15.888521592919775 12.3446466882748 3.3721610404394364 0 0 0
73 1 0.07957339642121752 10.561608199179387 3.422848795289859 0 0 0
70 1 19.51015326378519 8.96976804164404 3.4388040292260067 0 0 0
93 1 17.620026225983455 10.598071831964948 3.3522529903112095 0 0 0
94 1 19.55722735426826 12.277161231339775 3.435869721587778 0 0 0
98 1 1.8710323096943031 15.977187000238905 3.182788476145458 0 0 0
101 1 3.525701157538541 14.251472176033406 3.3848745442600134 0 0 0
102 1 5.425329005751504 15.897546182160317 3.3897624168143485 0 0 0
105 1 7.1821227300594 14.170087093689716 3.4280215318463925 0 0 0
106 1 8.900324456529834 15.99436806257719 3.3372347365318267 0 0 0
109 1 10.558509454713354 14.284796553668004 3.3412743691826625 0 0 0
110 1 12.571967021186884 15.962904532391825 3.5902251985781524 0 0 0
113 1 14.087363153324107 14.064886140056913 3.302450493012784 0 0 0
114 1 15.90831755693057 15.863588869543246 3.4549934551624597 0 0 0
97 1 0.02681460845283823 14.202438371603858 3.415125513877967 0 0 0
117 1 17.72611892936485 14.050342940633161 3.501003102655821 0 0 0
118 1 19.48536983765143 15.875579650365388 3.4488140368658935 0 0 0
1 1 0.09242847983658728 21.093698027283757 3.4293614355060007 0 -1 0
122 1 1.7498970179792084 19.3755952590502 3.180390730114617 0 0 0
125 1 3.7157814023435103 17.651240320662335 3.3973763203229956 0 0 0
126 1 5.453749545267879 19.53069659190705 3.360085347820082 0 0 0
129 1 7.186422655922144 17.735846925287767 3.438345288523693 0 0 0
13 1 10.77241347140199 21.241097511632525 3.471729455521185 0 -1 0
130 1 8.958866178601486 19.506981479975146 3.34938378008708 0 0 0
133 1 10.661676094372968 17.704838145792372 3.4678238075075996 0 0 0
134 1 12.631307004639615 19.544296524834927 3.508106432758993 0 0 0
137 1 14.246519332142974 17.8045000921497 3.422276882305972 0 0 0
138 1 15.965459153711437 19.44842066422241 3.4290664429112097 0 0 0
121 1 21.18982027975474 17.62102942184415 3.3375583940859554 -1 0 0
21 1 17.75159879643503 21.23558335396288 3.3467005402040746 0 -1 0
141 1 17.787478048290687 17.69445348134222 3.2826827600739446 0 0 0
142 1 19.417979291803533 19.346147687962922 3.339478045418542 0 0 0
8 1 3.5665695949174743 1.6393762940855139 5.205623121727833 0 0 0
27 1 1.655745788545839 3.478592144053072 5.183501608837378 0 0 0
146 1 1.6870478039715644 1.7752876578389931 6.962290745421955 0 0 0
173 1 3.431477710681961 3.576782085513046 6.90583428148011 0 0 0
149 1 3.512107756039623 21.24911617233162 6.9987927554597755 0 -1 0
12 1 7.142390662880077 1.9223909458752915 5.2932037514906485 0 0 0
31 1 5.251383839737376 3.5003588183903354 5.084903496072988 0 0 0
150 1 5.4254349044816035 1.8551105519943643 7.042949435002672 0 0 0
177 1 7.220481666178599 3.621670433694948 7.065610466739394 0 0 0
153 1 7.24021793203587 0.022419962576516104 6.921854949905668 0 0 0
7 1 5.325013864412679 21.227800810033955 5.253279376320912 0 -1 0
16 1 10.68860083971834 1.8540532905087959 5.210534857259094 0 0 0
35 1 8.890543888251997 3.6420280759666723 5.122766618240746 0 0 0
39 1 12.28684485905163 3.6680690802534586 5.282948322818556 0 0 0
154 1 8.958618590494924 1.885256997090051 6.903416916466966 0 0 0
158 1 12.4531060950468 1.8970811777284406 6.989459323310529 0 0 0
181 1 10.656815237763865 3.5863293343802147 7.061993484071865 0 0 0
11 1 9.018423931781875 21.20657765708493 5.298971794324685 0 -1 0
15 1 12.433828477493106 21.163457070890985 5.324606024007163 0 -1 0
20 1 14.08455445860143 1.8615318494452562 5.159550665047769 0 0 0
43 1 15.946163152303399 3.7004296022808676 5.060203487380524 0 0 0
162 1 15.902524451632402 1.8834988802004886 6.906378937762419 0 0 0
185 1 14.294561230352995 3.619912462163743 6.918984326955177 0 0 0
161 1 14.271333978739591 0.11060261542216608 6.948878433233138 0 0 0
19 1 15.936995616875144 0.17243584553622848 5.0706652846271005 0 0 0
4 1 21.25018485349542 1.7619811192480879 5.060233643382884 -1 0 0
145 1 0.03504009230850258 21.181632203117285 6.847853698703628 0 -1 0
169 1 21.22271018515949 3.437903885112284 6.987062936489762 -1 0 0
24 1 17.80848873829164 1.874304034330451 5.077520346994004 0 0 0
47 1 19.51851022676853 3.5907723256919417 5.222406703580418 0 0 0
166 1 19.446923778937734 1.7049218964487536 6.8952187130469555 0 0 0
189 1 17.66559596582151 3.575402435227526 6.825448794491034 0 0 0
165 1 17.65334485477741 0.1094906303015766 6.894132712380323 0 0 0
32 1 3.5514402831875427 5.315153195883292 5.160423419793656 0 0 0
51 1 1.751917635141693 7.004988187854771 5.265462145509179 0 0 0
170 1 1.75824658008205 5.2721005658587705 7.003846131777001 0 0 0
197 1 3.6117412204303574 7.044549801848206 6.949346052103293 0 0 0
36 1 7.135535830517703 5.263945623662118 5.122823652845936 0 0 0
55 1 5.488112193847117 7.034978203672461 5.288417958488143 0 0 0
174 1 5.37177091546901 5.188194359643397 6.900448803710485 0 0 0
201 1 7.003410455572318 6.995416592904976 7.149736415351339 0 0 0
40 1 10.585689910917965 5.411172035442402 5.169386242985133 0 0 0
59 1 8.777660878080228 7.077010589118756 5.140541752152096 0 0 0
63 1 12.306569320252438 7.091789385082127 5.154569969430767 0 0 0
178 1 8.976172980836333 5.33744298196945 7.103986655166503 0 0 0
182 1 12.321364484267352 5.283625878352429 7.0484296138705425 0 0 0
205 1 10.594015064437341 7.105929142060535 7.03133547807286 0 0 0
44 1 14.220831005553 5.394913805870421 5.2284338523511 0 0 0
67 1 15.966600410846878 7.132830839389176 5.287950452069926 0 0 0
186 1 16.00716908774506 5.314744807307032 6.971744251055759 0 0 0
209 1 14.021597680361701 7.084748232190095 6.965711044350872 0 0 0
28 1 0.024498769290580924 5.353726150101482 5.253220428397288 0 0 0
193 1 21.16985268703359 6.9628575372498975 7.001014037278074 -1 0 0
48 1 17.766392875884602 5.4002469880076935 5.226127512802005 0 0 0
71 1 19.445829805636816 7.09358811009788 5.227352421766571 0 0 0
190 1 19.477718100369025 5.268248500221568 7.011455371850371 0 0 0
213 1 17.81064908200904 7.069706623122272 7.004896099314881 0 0 0
56 1 3.657055279483052 8.851190204396682 5.293045094919986 0 0 0
75 1 1.866088609221933 10.673913248746084 5.197414807090382 0 0 0
80 1 3.648549428710089 12.412177404100733 5.255179182946181 0 0 0
194 1 1.7552736960225177 8.755348633873147 6.930794254282371 0 0 0
218 1 1.8010941682018944 12.491366717199758 6.947760944027603 0 0 0
221 1 3.453990135422686 10.656877358759953 7.022493426195223 0 0 0
52 1 21.196575186615206 8.847428296360421 5.268758995084528 -1 0 0
60 1 7.16969095363773 8.980045257106916 5.2525747871516115 0 0 0
79 1 5.232849674426079 10.680386969565976 5.301923599255609 0 0 0
84 1 7.0699695122981066 12.437530409054718 5.0637707185590815 0 0 0
198 1 5.345707466875246 8.886966638155853 7.082304583542229 0 0 0
222 1 5.316629688083647 12.336921935169686 7.099361812820941 0 0 0
225 1 7.095373335244671 10.741374256130882 6.985607642974391 0 0 0
64 1 10.589391145055298 8.820344847858832 5.286381121659774 0 0 0
83 1 8.906781610116427 10.755281456921153 5.23615420910287 0 0 0
87 1 12.32616391176778 10.547258910699517 5.146871315807244 0 0 0
88 1 10.788941406718942 12.39519878118176 5.202272176402269 0 0 0
202 1 8.83726289302644 8.76208731109968 7.096706494849018 0 0 0
206 1 12.365167948786564 8.916881466590779 7.0203142570859836 0 0 0
226 1 8.896584948447943 12.57775436689209 6.890966261322031 0 0 0
229 1 10.545076801579638 10.662551371640644 7.038010103385075 0 0 0
230 1 12.433468234197072 12.297276223295464 7.043370154764908 0 0 0
68 1 14.187094565933242 8.982091483132791 5.163587557879535 0 0 0
91 1 16.005934368540117 10.723322078243497 5.242660239960155 0 0 0
92 1 14.096890466829825 12.316823007808766 5.219071859481957 0 0 0
210 1 15.922889432752852 8.875048074878887 6.949256694905102 0 0 0
233 1 14.221134062206989 10.675702152403407 7.09838544498051 0 0 0
234 1 15.886493791715626 12.375959268592666 7.046658088079423 0 0 0
76 1 0.05736739967703741 12.368900324676687 5.089671659270157 0 0 0
217 1 0.07317394134042843 10.668032076473507 6.859552914537771 0 0 0
72 1 17.710013536304704 8.933203438779074 5.203802456778804 0 0 0
95 1 19.47839351097992 10.707633128434535 5.200345385193595 0 0 0
96 1 17.71328964451778 12.41746700654229 5.155493368315617 0 0 0
214 1 19.433774361881238 8.917980171102647 6.968752774219676 0 0 0
237 1 17.850638927162876 10.75404499671886 6.973218657756459 0 0 0
238 1 19.510266952588257 12.4572493242662 6.949934927533402 0 0 0
99 1 1.8315137238223163 14.244770630070052 5.026419255265529 0 0 0
104 1 3.5062255366027686 15.97013617748591 5.184357460142091 0 0 0
242 1 1.861147765314598 15.986582847572437 7.024729227778996 0 0 0
245 1 3.6717346226473246 14.278036495677028 7.004699514058114 0 0 0
100 1 0.24083720845310247 16.024947346361856 5.10393047046758 0 0 0
103 1 5.278042765503977 14.213542028877525 5.207580150488024 0 0 0
108 1 7.054644991972512 15.932262752548445 5.145155090434079 0 0 0
246 1 5.389691639392027 16.02627500584405 6.86912322786443 0 0 0
249 1 7.049299566208047 14.12376268830252 7.068655960120753 0 0 0
107 1 8.873616862918 14.193292720966488 5.158120498333316 0 0 0
111 1 12.434586147539985 14.072846013951782 5.078506734942812 0 0 0
112 1 10.65209762789161 15.914413002965425 5.334884687857604 0 0 0
250 1 8.820662824019717 15.935669233688369 6.986498167794581 0 0 0
253 1 10.678752458372177 14.1640230835585 7.0554471801905265 0 0 0
254 1 12.290054742730787 15.900874974042607 6.921524990859521 0 0 0
115 1 15.853547794452885 14.079121344796576 5.10577489296107 0 0 0
116 1 14.286008835689357 15.951524188458293 5.162563574581692 0 0 0
257 1 14.131973423338605 14.212115395287718 6.936315012991361 0 0 0
258 1 16.02918906625701 15.81833069322862 6.930832547849511 0 0 0
241 1 0.03312758281159134 14.233727885934986 6.927527396179804 0 0 0
119 1 19.525787353269596 14.193010610954307 5.138369878304678 0 0 0
120 1 17.794829640357502 15.86515392549666 5.081937766132811 0 0 0
261 1 17.79078168257097 14.163464705380338 6.8539129952357785 0 0 0
262 1 19.568636333090595 15.929943111867928 6.841747832911204 0 0 0
3 1 1.847559734077943 21.148287352744166 5.154144451481854 0 -1 0
123 1 1.7914654090839317 17.82580211221308 5.079823281912538 0 0 0
128 1 3.5688590823829762 19.496319497433163 5.07639884880732 0 0 0
266 1 1.8800130013032497 19.40983504490887 6.92419580927242 0 0 0
269 1 3.6718980295440677 17.733527148678025 7.014670157247457 0 0 0
127 1 5.48527031090374 17.820129244810023 5.177428907214433 0 0 0
132 1 7.204179173508507 19.527761223035814 5.135895275100704 0 0 0
270 1 5.356878020605944 19.560935686811856 6.982190877879971 0 0 0
273 1 7.0333427638087755 17.726123859535097 7.123603507290316 0 0 0
157 1 10.668891982529898 21.2498525010953 7.030019498151273 0 -1 0
131 1 8.893218369155871 17.74917735698734 5.133218610951546 0 0 0
135 1 12.384154481041282 17.65229265840965 5.320739461200106 0 0 0
136 1 10.619323896430535 19.402972228893443 5.220601605543997 0 0 0
274 1 8.821677824283817 19.4722769263312 7.089419269229166 0 0 0
277 1 10.612721052756713 17.69814738246931 7.066472251282507 0 0 0
278 1 12.466101510701117 19.525344201374782 7.087457005818298 0 0 0
139 1 16.007398432900413 17.642063110556855 5.102586409827712 0 0 0
140 1 14.210502076836951 19.509252873743776 5.238479298046441 0 0 0
281 1 14.180630780473816 17.7203514351653 6.911042336771495 0 0 0
282 1 15.92768533152268 19.547100515233474 6.919158375010702 0 0 0
23 1 19.461147881888177 21.19387733372345 5.201031497799858 0 -1 0
124 1 21.19427655496237 19.366037675222632 5.07302824139362 -1 0 0
265 1 21.20799907966386 17.740850876651074 6.8479320918557525 -1 0 0
143 1 19.42071507428244 17.756697179189043 5.200273105101963 0 0 0
144 1 17.60900601994903 19.566870077209064 5.066126347315221 0 0 0
285 1 17.754791385983697 17.72391824495994 6.923416171546146 0 0 0
286 1 19.486158005830035 19.510198214797523 6.949837672564387 0 0 0
152 1 3.6740778355102273 1.7582198582712967 8.655125391334515 0 0 0
171 1 1.8806261713253143 3.449343148475342 8.709355776277102 0 0 0
290 1 1.8505739266562824 1.6506093250175045 10.442037525911418 0 0 0
317 1 3.6289125587047804 3.371392768971361 10.560986623641746 0 0 0
148 1 21.223680290549776 1.7719878744777464 8.784483202797407 -1 0 0
289 1 0.05139137826301184 0.015074618227611549 10.536333793967065 0 0 0
293 1 3.686141824386496 21.24320391194461 10.380215746152682 0 -1 0
147 1 1.7782295942124466 21.040887544517194 8.706237559564395 0 -1 0
156 1 7.277221269118227 1.8123505042167665 8.772292312312414 0 0 0
175 1 5.394975114691295 3.5351017372882256 8.861556942559725 0 0 0
294 1 5.456049944064688 1.707524089903753 10.566313327366352 0 0 0
321 1 7.074242020968663 3.4327331461089186 10.644632264038956 0 0 0
297 1 7.166090251892158 21.248765693509135 10.56671898132776 0 -1 0
151 1 5.323461650193213 0.06917476977646436 8.68753998804392 0 0 0
160 1 10.669213119231982 1.7448175007146833 8.734219115768227 0 0 0
179 1 8.888162756224789 3.436840297267496 8.91605923920508 0 0 0
183 1 12.306601451053794 3.6293988306459024 8.908646910918591 0 0 0
298 1 8.951310972321 1.604419293284076 10.68361938642741 0 0 0
302 1 12.43564242686093 1.7394625447931173 10.550442600730968 0 0 0
325 1 10.619746134866125 3.4443603246058143 10.777049473870939 0 0 0
301 1 10.680298872455522 21.243837640735144 10.647117817862721 0 -1 0
159 1 12.524960497816345 0.09680079164770622 8.707844233314832 0 0 0
164 1 14.227410057906795 1.8020196795184578 8.880001420070913 0 0 0
187 1 15.897324765096366 3.5947486313175094 8.769849766578387 0 0 0
306 1 16.002484694072557 1.8843433235812792 10.535561008303599 0 0 0
329 1 13.992909569160988 3.606093972906405 10.672681992294207 0 0 0
313 1 0.049447726647546375 3.518086029218123 10.615370324778404 0 0 0
168 1 17.693258703798346 1.8416853442588166 8.701167313572299 0 0 0
191 1 19.42180293906471 3.4535009672501986 8.690526200098416 0 0 0
310 1 19.581515571608357 1.7938031192331958 10.515473399410778 0 0 0
333 1 17.742315237987334 3.5172175693668577 10.569317164993965 0 0 0
309 1 17.721716251090168 0.01858851533573199 10.478554647703229 0 0 0
176 1 3.6013749951091136 5.314352745969765 8.740846059589204 0 0 0
195 1 1.7361040395855607 7.055056763757039 8.706902623783275 0 0 0
314 1 1.8363944884263246 5.263080411232687 10.544422285281298 0 0 0
341 1 3.448519674538858 7.014090233653236 10.632764386094951 0 0 0
180 1 7.122200382528155 5.258284164419272 8.860014986808071 0 0 0
199 1 5.303001782147739 7.11088935165225 8.687218072393478 0 0 0
318 1 5.316125781142366 5.376658554222351 10.581660380392226 0 0 0
345 1 7.057463169224916 7.1598288128951735 10.532595948773091 0 0 0
184 1 10.565387280908627 5.353527901758796 8.94729458560837 0 0 0
203 1 8.868345783940454 7.119021303434817 8.839187061791375 0 0 0
207 1 12.317730201614411 7.194217710063359 8.803843755635636 0 0 0
322 1 8.804767836773983 5.301944502617014 10.567603032068522 0 0 0
326 1 12.391223001239913 5.4258159260245105 10.578882536372884 0 0 0
349 1 10.562330023677463 7.132745030781093 10.680224018787415 0 0 0
188 1 14.15329732770341 5.37879751154496 8.639149231236358 0 0 0
211 1 15.975410926695396 7.024448299032456 8.678841474957947 0 0 0
330 1 15.87543287405514 5.258288515820466 10.539213978336523 0 0 0
353 1 14.229310364998812 7.189991346745434 10.51088341393176 0 0 0
172 1 0.10003532482011579 5.18112900278369 8.800173454491865 0 0 0
337 1 0.046169645149102934 7.042991638121879 10.62175748070126 0 0 0
192 1 17.696169310210266 5.295684335419564 8.726009163139558 0 0 0
215 1 19.511192954126372 7.043941025330063 8.775455529018599 0 0 0
334 1 19.435997104304853 5.240173958031346 10.5649475746136 0 0 0
357 1 17.733534907974434 6.997577845206773 10.45970119146584 0 0 0
200 1 3.4449622949911736 8.792139708661702 8.782036461072991 0 0 0
219 1 1.7029387857992095 10.660283821703095 8.719679811931224 0 0 0
224 1 3.449032550480551 12.47506783944776 8.798609297073803 0 0 0
338 1 1.7194485818257013 8.743332278138979 10.569567087573905 0 0 0
362 1 1.7093715911107934 12.389680287848199 10.624219008208074 0 0 0
365 1 3.3465824265569064 10.649206745316471 10.448952456714547 0 0 0
204 1 7.059452620678228 8.95446103785951 8.877548271482487 0 0 0
223 1 5.182742232368055 10.611387409699148 8.726612545930436 0 0 0
228 1 7.034974852699209 12.332790090393297 8.796020848656612 0 0 0
342 1 5.253253096929616 8.940180406597776 10.64825533158213 0 0 0
366 1 5.134512394016312 12.407805074130776 10.494555114640674 0 0 0
369 1 6.929885349014636 10.641052884377862 10.65367514197033 0 0 0
208 1 10.695622791625643 8.991592619349058 8.995949911389246 0 0 0
227 1 8.90734389016623 10.735717642750819 8.806201468262207 0 0 0
231 1 12.478333227211223 10.662498705916523 8.75487647508643 0 0 0
232 1 10.671024680121961 12.348346470642761 8.78675083019907 0 0 0
346 1 8.75632001666635 8.967732050333069 10.642897283527288 0 0 0
350 1 12.551332492353408 8.907687918294364 10.544191273133318 0 0 0
370 1 8.878437769309402 12.367636676877536 10.773695123594564 0 0 0
373 1 10.658426589322346 10.719457132883484 10.614037928943482 0 0 0
374 1 12.565792643869958 12.370938253001839 10.73361530091774 0 0 0
212 1 14.181065895901412 8.924705310463676 8.690702288991057 0 0 0
235 1 16.15823749525693 10.607995518384554 8.692524878564697 0 0 0
236 1 14.21392248385457 12.478832772688499 8.806444239771254 0 0 0
354 1 15.894550200876028 8.813762046830197 10.44876317377391 0 0 0
377 1 14.373864093590193 10.62944065103847 10.452405522139486 0 0 0
378 1 16.022151021950364 12.463664855525558 10.59885170456931 0 0 0
220 1 21.2511310972065 12.460649561253003 8.740930904146172 -1 0 0
361 1 0.03299150909674253 10.61795522717808 10.65068550816252 0 0 0
196 1 21.214343748825925 8.986248798369665 8.745472177115277 -1 0 0
216 1 17.76751963473507 8.872148615759578 8.792486481056198 0 0 0
239 1 19.488683182389515 10.720237438596405 8.826039801380519 0 0 0
240 1 17.73670083327186 12.483373688708866 8.760104444474653 0 0 0
358 1 19.53744591437488 8.78930948324341 10.657938068184128 0 0 0
381 1 17.644088806157768 10.668713440243605 10.500749825277003 0 0 0
382 1 19.502852101590918 12.395604806468741 10.581895092946516 0 0 0
243 1 1.851488171244922 14.209007634455288 8.855045134367298 0 0 0
248 1 3.6540687798436426 16.02850261172035 8.82972087375906 0 0 0
386 1 1.7874336950170697 15.945323095770156 10.501398451203345 0 0 0
389 1 3.5481700693979326 14.2296680117249 10.751587886447927 0 0 0
244 1 0.09689761729630275 15.959064805576427 8.77231247751337 0 0 0
247 1 5.246750285339988 14.199594058723042 8.829047236841033 0 0 0
252 1 7.076791733499937 16.011509235635337 8.68724171606539 0 0 0
390 1 5.379240185875455 15.992979045663212 10.622151626809616 0 0 0
393 1 7.065710021491672 14.192199017394454 10.64528495291197 0 0 0
251 1 8.961470700200028 14.056300279253778 8.783590666705058 0 0 0
255 1 12.378497424423323 14.231145224771396 8.829927591598887 0 0 0
256 1 10.531949156325314 15.956631083375829 8.786897985499504 0 0 0
394 1 8.80572024522733 15.972913969991861 10.527126718217549 0 0 0
397 1 10.732474124986457 14.006994563453063 10.578830815477911 0 0 0
398 1 12.49319325043699 15.935285132797338 10.638627391645018 0 0 0
259 1 16.095281407210486 14.2197834019765 8.743551430851678 0 0 0
260 1 14.21986782417872 15.86897741128681 8.730135591375285 0 0 0
401 1 14.340502537432155 14.281099368586647 10.597463675767154 0 0 0
402 1 16.04333692363448 16.021544761992804 10.538189843198904 0 0 0
385 1 0.037811210833982756 14.159165464081113 10.554742275588232 0 0 0
263 1 19.535827033135163 14.144438328403506 8.782169607454538 0 0 0
264 1 17.88176327637934 15.946949310399518 8.76646155164938 0 0 0
405 1 17.74852346510102 14.277963668781469 10.453077797945982 0 0 0
406 1 19.63081356998289 15.9638646583498 10.582797169361784 0 0 0
267 1 1.8873303368639158 17.795654671514562 8.758985688581625 0 0 0
272 1 3.589909371524126 19.38797294981375 8.766222208899556 0 0 0
410 1 1.826027156873716 19.486306545340003 10.56897344214003 0 0 0
413 1 3.5824960883924293 17.76231223853072 10.611400424330922 0 0 0
268 1 0.02880148020409402 19.370903892117173 8.616712717355133 0 0 0
271 1 5.362883595085772 17.73024917619563 8.81634744419122 0 0 0
276 1 7.08300968527713 19.675264820295144 8.78690255696633 0 0 0
414 1 5.37274039036641 19.50875547004126 10.487827000672818 0 0 0
417 1 7.038482895503487 17.689380140168236 10.635443569090231 0 0 0
155 1 8.99116870063097 0.016355063767630185 8.76530155858884 0 0 0
275 1 8.88906665764927 17.79015025069969 8.762580490795573 0 0 0
279 1 12.455311920235474 17.503363311099683 8.697053874106693 0 0 0
280 1 10.699382005756743 19.43597170060639 8.770623336335651 0 0 0
418 1 8.953521464240223 19.326890936225823 10.613774177873985 0 0 0
421 1 10.743216183984392 17.71877231965653 10.555328360268682 0 0 0
422 1 12.435709031344297 19.43296004418868 10.451752996076063 0 0 0
305 1 14.277492843870046 21.2483939384796 10.514905966860912 0 -1 0
163 1 15.990784423667632 0.054609058557620216 8.723887717453055 0 0 0
283 1 15.932277463526514 17.582996088394644 8.64671200562116 0 0 0
284 1 14.211972838898152 19.5046799448366 8.659935185556193 0 0 0
425 1 14.207576097120944 17.73691345661386 10.552286298455929 0 0 0
426 1 15.936139261782913 19.47297054322769 10.301547662442037 0 0 0
409 1 0.07732048189756568 17.893439598127195 10.575544835555634 0 0 0
167 1 19.489342384519894 21.24969389717231 8.79112696651517 0 -1 0
287 1 19.62937761785278 17.70660256211878 8.786288797510435 0 0 0
288 1 17.783928318419722 19.53614888363116 8.672468875474147 0 0 0
429 1 17.757133931546367 17.69017577657019 10.448502577257571 0 0 0
430 1 19.568552780518186 19.528903321045757 10.501943692578257 0 0 0
296 1 3.5490888666902385 1.5905134603501718 12.343740912306021 0 0 0
315 1 1.8870758825068203 3.3662536484278296 12.161664805115867 0 0 0
434 1 1.7257116243211679 1.7676094128434525 14.18499609385426 0 0 0
461 1 3.582019183989274 3.3880723167439366 14.099941527031369 0 0 0
440 1 3.551652291458287 1.7541766709703326 16.087705364966745 0 0 0
291 1 1.7327250261232499 0.07235685229408914 12.365208816619017 0 0 0
459 1 1.8131628770518042 3.473015109096237 15.997306477454357 0 0 0
300 1 7.130832996729869 1.7667189614816325 12.378096198908876 0 0 0
319 1 5.336627403083341 3.510588479126007 12.298386488506923 0 0 0
438 1 5.272148054756818 1.7977281210767817 14.200379724401571 0 0 0
465 1 7.060302284071334 3.529608101772283 14.223024853012564 0 0 0
441 1 7.103639736675463 0.033019806515738964 14.170556368454896 0 0 0
304 1 10.60698645191118 1.6537218775190532 12.408046265805398 0 0 0
323 1 8.916984832877167 3.484039387094565 12.282660764578038 0 0 0
327 1 12.353684348731042 3.5383612786839476 12.331814190073105 0 0 0
442 1 8.928136509165085 1.7852041532837484 14.22271259325355 0 0 0
446 1 12.389202461368997 1.6837068731508142 14.132452245730223 0 0 0
469 1 10.628354855402476 3.489018768584283 14.074839170330861 0 0 0
299 1 8.907033145783904 21.14907035276367 12.443221965757038 0 -1 0
448 1 10.746385610169547 1.684871061577675 15.972879291390429 0 0 0
308 1 14.086998191526648 1.815930672378023 12.215271379491842 0 0 0
331 1 15.836131425387517 3.503525619402717 12.35016661979725 0 0 0
450 1 15.904575563516424 1.8045878259766104 14.105785975880249 0 0 0
473 1 14.17203686911933 3.545396373346612 14.087827822692383 0 0 0
452 1 14.171927026959295 1.9624420260224233 15.934311594223297 0 0 0
475 1 15.952415355678013 3.600154987636021 15.872677002654806 0 0 0
307 1 15.935451752669156 0.18067669754182145 12.290466540598329 0 0 0
457 1 0.08725494793670308 3.4893393363384617 14.118480542028546 0 0 0
433 1 21.198899127264497 0.05786760710625611 14.310721816331307 -1 0 0
292 1 0.05710720619908116 1.8041041744982058 12.337018613114067 0 0 0
312 1 17.74579881922152 1.8553383751222405 12.278752795433254 0 0 0
335 1 19.556187875312105 3.6739221402103572 12.321710550675053 0 0 0
454 1 19.538495962432346 1.7964883385468322 14.101614439294725 0 0 0
477 1 17.694978114787627 3.557539712400667 14.023753301738086 0 0 0
311 1 19.44380116219212 0.04345866033265661 12.30237475087222 0 0 0
320 1 3.55086211427888 5.27305812965501 12.33950599833052 0 0 0
339 1 1.7786728379054835 7.110244450372904 12.41866024658829 0 0 0
458 1 1.8511270756156943 5.199449964637615 14.182905270483907 0 0 0
485 1 3.574552987529126 7.042653682136375 14.185879666805755 0 0 0
316 1 0.08804381308698718 5.402401961552972 12.416906970587691 0 0 0
324 1 7.079828030729751 5.2376251256885675 12.328344547403699 0 0 0
343 1 5.225136171494771 7.075832265418971 12.300825829710007 0 0 0
462 1 5.2527854018014475 5.294954880604652 14.097423454011029 0 0 0
489 1 7.094287021426477 6.971316801708568 14.118260514896589 0 0 0
468 1 7.182654119549903 5.383213032936117 15.894713345103488 0 0 0
328 1 10.65888055246018 5.308613328829312 12.31101731090749 0 0 0
347 1 8.966186199662005 7.196859834075186 12.379577019793782 0 0 0
351 1 12.366283933803032 7.149729661195388 12.404533270526173 0 0 0
466 1 8.863644232309333 5.312757518467677 14.056444180232536 0 0 0
470 1 12.255994105218264 5.300255493129992 14.195579537151565 0 0 0
493 1 10.605342847887913 7.137855183947095 14.191217656679601 0 0 0
491 1 8.740158523093278 7.088895264153777 15.90627720100464 0 0 0
332 1 14.132943359603162 5.449182794698301 12.3049244877663 0 0 0
355 1 15.962107033466875 7.094803907994285 12.298065565712726 0 0 0
474 1 16.025047782124812 5.271933030574213 14.059001383387898 0 0 0
497 1 14.192784558096369 7.133986554431721 14.132568607576957 0 0 0
481 1 21.1948585539413 7.08008391443421 14.147608410012815 -1 0 0
336 1 17.65335562691594 5.3806588420942205 12.227356491621737 0 0 0
359 1 19.383954628971043 6.959707655403204 12.273204158983878 0 0 0
478 1 19.425458441324917 5.36374121331988 14.075901033463323 0 0 0
501 1 17.58085976549086 7.090553113780203 14.142300757656178 0 0 0
344 1 3.5021899781403247 8.939378828029138 12.269560945664404 0 0 0
363 1 1.7018644700875551 10.546673506215617 12.471307080007008 0 0 0
368 1 3.4607281375430516 12.36443644115415 12.42396208991126 0 0 0
482 1 1.8665422916598768 8.810213784147829 14.205459603502034 0 0 0
506 1 1.766037185956523 12.32813247035155 14.108933602504216 0 0 0
509 1 3.5679566092972106 10.6422677532963 14.162246884747015 0 0 0
512 1 3.4372692184046674 12.280475944798484 15.953372112602132 0 0 0
364 1 21.122548935455292 12.436830824754775 12.330490431079818 -1 0 0
505 1 21.22267519544248 10.687226520927696 14.185301952532452 -1 0 0
488 1 3.5932037686848406 8.832714533043596 15.957422320465376 0 0 0
507 1 1.7197912331510226 10.584539834796548 15.901298865158928 0 0 0
348 1 6.975087522636282 8.86996488948301 12.49021444754964 0 0 0
367 1 5.283094604085478 10.797421059158578 12.349145405697493 0 0 0
372 1 7.056045642857387 12.437080460083122 12.351634902208515 0 0 0
486 1 5.243809502620501 8.806823279825212 14.114087369313157 0 0 0
510 1 5.307939496233191 12.45382816531222 14.276040851573512 0 0 0
513 1 7.10997318703268 10.573121152674478 14.214002356701373 0 0 0
516 1 7.1216859826301615 12.431621026719004 15.989134111970698 0 0 0
511 1 5.334000212372352 10.695218710173194 15.929102458440175 0 0 0
352 1 10.530120330360552 8.986318478568677 12.415205065771241 0 0 0
371 1 8.830404934155197 10.611397081465299 12.489726167003163 0 0 0