LAMMPS data file via write_data, version 29 Oct 2020, timestep = 200000

2744 atoms
1 atom types

-0.29863901889116207 25.106639018891595 xlo xhi
-0.35276617810504085 25.16076617810436 ylo yhi
4.215889483808496 55.313663161919635 zlo zhi

Masses

1 58.933

Atoms # atomic

2367 1 2.7230272777319127 1.9201164826707404 6.3906517100389895 0 0 1
2091 1 0.7764770936665482 3.4217023984334447 6.689910854664711 1 1 1
2010 1 0.9743572976581039 -0.027135967124171156 6.522304413236675 0 0 1
1406 1 2.452329203773504 3.684408580787993 4.951263846408092 0 0 0
2551 1 3.124656428544316 -0.14590010370712897 4.914819877708889 0 0 1
5 1 2.7047894129324006 -0.00494753221652805 8.088972031861475 0 0 0
8 1 0.7340540824496449 1.6075709429324097 8.475181445034337 0 0 0
1653 1 0.91928361594167 1.808905769880257 4.666521511905948 0 0 0
229 1 2.7008115580603986 3.739212327139394 8.240556591382536 0 0 0
35 1 6.664012532299287 1.7191268855666633 6.406315132223778 0 0 0
41 1 6.566408959626104 3.896055701032685 4.8146531231004195 0 0 0
31 1 4.460802593594152 3.879279482676009 6.3761685720537296 0 0 0
2323 1 4.694059960039981 2.1030053413302614 4.819030601997506 1 1 1
205 1 6.6654008771220035 -0.20035611301540296 8.281236630686854 0 0 0
36 1 4.86964131527771 0.17431537579448386 6.826029237112942 0 0 0
202 1 4.397626035278383 2.019660238233155 7.951324323988018 0 0 0
233 1 6.279731926123308 3.914660994280716 8.429719832651191 0 0 0
37 1 8.163725443903214 -0.16181675648557964 6.656717847371874 0 0 0
1916 1 8.203096845206014 2.0209716285684447 4.940085300556682 0 1 0
39 1 8.33084670127082 3.539387150976035 6.831562956159006 0 0 0
16 1 9.969918825466248 1.7280466035230915 6.691380238655993 0 0 0
2119 1 11.705374107430156 1.6916739789000763 4.86322793898599 0 0 0
43 1 12.033486657533494 3.607017658474057 6.371191730540542 0 0 0
210 1 12.070361029521507 1.7133241135220323 8.398343153896189 0 0 0
237 1 11.50471523595891 -0.22245188521370807 6.803074226228556 0 0 0
1522 1 10.16378828372978 24.998417242582384 4.730577058050004 0 0 0
45 1 10.17005894411342 3.5580208404027887 4.7818599805759 0 0 0
15 1 13.93638256671334 -0.2467248259989958 4.522644647503249 0 0 0
20 1 13.99351886547758 1.3350374209316267 6.475296953500572 0 0 0
214 1 15.809776562314248 1.420490904708568 8.481432005580114 0 0 0
48 1 13.532794811384294 3.245393411417433 4.634241363332376 0 0 0
241 1 13.847818029583404 3.097522684073278 8.340993462403572 0 0 0
47 1 15.813323435097054 3.169125431034978 6.707372092327725 0 0 0
213 1 14.017155145972072 -0.012917699943413075 8.449584187472617 0 0 0
18 1 15.671239786913016 1.6559413930351297 5.015903659567335 0 0 0
217 1 19.38045389914007 1.691909892053733 4.704031224745765 0 0 0
23 1 17.62374850513522 1.4880844060522274 6.62012952989971 0 0 0
2385 1 19.24705581410061 3.076003743539216 6.924617806954025 -1 0 1
190 1 19.25225772107073 -0.13733795470210056 6.753019154432211 0 1 0
2447 1 17.14678714456664 -0.049913453671208474 4.459253072183177 0 1 1
245 1 17.84921417987381 3.424348096880642 8.543105372480369 0 0 0
249 1 21.33733658239143 3.5462456535110105 8.289726858760513 0 0 0
2566 1 17.38936132986902 3.2947186308847236 4.801569547355995 0 0 1
192 1 17.441467544318765 -0.34431162161792017 8.034076041531062 0 1 0
219 1 19.41484277785707 1.6795229970105523 8.56150086432049 0 0 0
19 1 20.704756220476206 3.819223755334492 4.755695538993016 0 0 0
218 1 21.011920833811626 1.5729754769075914 6.484366979188039 0 0 0
21 1 21.05059772821646 -0.23163901626170968 4.815557245756925 0 0 0
221 1 21.306534362747733 0.11515745619036583 8.466820389629685 0 0 0
2233 1 24.809118747546403 3.5646279383966926 4.724946104230616 0 0 1
198 1 24.723812232709747 1.739633042320715 6.537028247811451 -1 0 0
1426 1 23.095590361420683 0.4050917784290923 6.67070218998946 0 0 0
222 1 22.8439575470813 3.142458770310684 6.245678295292557 0 0 0
2434 1 23.170704456123282 1.7860388576398067 4.40080051623629 0 0 0
1777 1 24.54539642913094 25.14872997159125 4.868586415476776 -1 -1 0
201 1 24.73561569587306 -0.29416253867654085 8.547531119187852 -1 0 0
32 1 0.6744600291976837 7.447887397485461 6.371087789927595 0 0 0
257 1 2.8530408254632387 5.487690792046263 6.6770290791167675 0 0 0
2212 1 1.0986692872279584 5.558556711615498 4.604472947017488 0 0 0
2509 1 2.7347554859130354 7.510766579894054 4.518200075208307 0 1 1
226 1 0.9223899849738699 5.611767706102498 8.09682780394635 0 0 0
255 1 2.7061419386666725 7.404062561925993 8.169362413423219 0 0 0
2430 1 4.4926301960898 7.154353920876274 6.540067369605868 1 0 0
40 1 6.5191983267967295 5.409043491187139 6.584970973588306 0 0 0
69 1 6.59197867065006 7.169852978973487 4.913842939693308 0 0 0
34 1 4.40556132907276 5.456762543563277 4.756557937335609 0 0 0
230 1 4.638929027996274 5.5835862186922 8.47483479036087 0 0 0
261 1 6.2708550810714705 7.21697452160765 8.330232851630605 0 0 0
67 1 8.24165017021232 7.109925665369176 6.604113438760297 0 0 0
2265 1 8.465551827284171 5.139474125853223 4.72840593499184 0 0 1
2043 1 9.800472913041318 7.059598919472019 4.833858279125459 1 0 1
44 1 10.188339245472433 5.030989910802217 6.607074928746835 0 0 0
71 1 12.089594664873806 7.199575803413585 6.887862458729734 0 0 0
42 1 12.36335819372832 5.806798692531396 4.729991720376871 0 0 0
234 1 8.292739777298745 5.484962054202225 8.21247569496388 0 0 0
265 1 9.97349368699029 6.86335288051706 8.675882093144788 0 0 0
240 1 11.945277686460567 5.272670102720109 8.277757623034379 0 0 0
1510 1 14.1824223559615 7.085717687982505 5.116227818083308 1 1 0
238 1 13.967263970494503 5.274553418513255 6.4587912012045035 0 0 0
75 1 15.756759534279226 7.286407577481021 6.990121811569093 0 0 0
50 1 15.617027994845936 4.835504268125625 4.783200697299641 0 0 0
242 1 15.62605904766941 4.925728267068431 8.229856056744001 0 0 0
52 1 17.622832965596565 5.107889727052015 6.649231051900739 0 0 0
79 1 19.099174227959246 7.294620124256344 6.547299184444926 0 0 0
81 1 17.057717910000026 6.731951782858141 4.866004071258129 0 0 0
51 1 19.038542576201408 5.2898343030097035 5.129583008110566 0 0 0
273 1 17.37418571872579 6.899153781881768 8.340607250612152 0 0 0
246 1 19.422514425853155 5.342765843621108 8.33908310296767 0 0 0
55 1 21.285871072220093 5.4923681273158405 6.793500538271143 0 0 0
4 1 24.644813842903286 5.4678252947639665 6.544382228450504 -1 0 0
83 1 22.893627893839305 7.3070981801676576 6.714754394585038 0 0 0
2039 1 22.776856555837036 5.286799585384629 4.929710635402744 0 1 1
2513 1 24.530016830299342 7.3104326646598485 4.6341955569629985 -1 0 1
253 1 24.432107344215343 7.2866490820172505 8.544396619124452 -1 0 0
250 1 22.855099944286447 5.451731736026102 8.50781821660993 0 0 0
56 1 21.031504932271304 6.774643738102022 4.9125461670455985 0 0 0
277 1 20.90160591502421 7.7627424277108386 8.293042611446294 0 0 0
85 1 1.225932505029534 10.951637451638524 6.494187991256997 0 0 0
61 1 2.5684222035454405 9.054046972378758 6.454128548390974 0 0 0
254 1 0.9076559456633879 9.261279251045703 8.165541201868992 0 0 0
285 1 2.8387376743227954 10.463186929007867 8.453894939126481 0 0 0
59 1 0.9064455881312299 9.335663514349068 4.413249903162885 0 0 0
92 1 2.8640498808957022 12.955769692544125 6.297193733297959 0 0 0
2528 1 2.564256949677984 10.988912665620926 4.613149897225317 0 0 0
63 1 6.196089405345574 9.243514016970552 6.4197792801872495 0 0 0
91 1 4.8040724931333125 11.027241406328113 6.547494642147589 0 0 0
258 1 4.627579483719412 9.052532630514515 8.337027148821198 0 0 0
1719 1 6.181432720720391 10.632761736552979 4.627201267743404 0 0 -1
1498 1 4.316693721441395 9.260316159334018 4.620103528612502 0 1 0
68 1 6.4729128875637905 10.791224399792128 8.510391032302701 0 0 0
2051 1 7.876730512680728 10.839389865693764 6.685871303747408 -1 0 1
1385 1 8.376363242482661 9.369305796140262 4.818242408659855 0 0 1
72 1 9.99700697503579 8.707952666522202 6.95445696930053 0 0 0
99 1 11.684939165071388 10.7448589843735 6.630526812225446 0 0 0
2547 1 12.114394517048831 8.61878335453944 4.85398355346285 0 0 1
2504 1 10.276259988357067 10.965413738341697 4.811532833113186 0 0 1
74 1 15.855456367289847 8.944758195045303 4.912575069705887 0 0 0
76 1 13.989410090404004 8.810095573145032 6.684119898259818 0 0 0
103 1 15.733646763626862 10.857148888226801 6.9585447937315426 0 0 0
104 1 13.490953660531485 10.334298895291454 4.8490657298026205 0 0 0
131 1 13.591785057708352 12.409571974265566 7.065245399876603 0 0 0
105 1 17.161475355727 10.767870710075877 4.773684648220155 0 0 0
1596 1 19.07317946111668 8.922102922798038 4.878709240427665 0 0 1
80 1 17.159473548520705 8.959160513905577 6.493769457990706 0 0 0
107 1 19.20509958018561 10.618256944405172 6.812779901571243 0 0 0
112 1 20.946309973631944 12.685270317790296 6.779658363604406 0 0 0
274 1 18.66147118272384 8.908020759078536 8.872116761323625 0 0 0
60 1 21.21414448564076 10.843665783575007 4.767055429984877 -1 0 0
84 1 21.285173906245515 8.899132102476248 6.394013892678334 0 0 0
1713 1 24.679068419836323 10.894501675677798 4.427419784348481 -1 0 1
87 1 24.563383638510565 9.467352670509129 6.7270102131147755 -1 0 0
111 1 22.795478697002743 10.952517725233166 6.445379733976938 0 0 0
278 1 22.887019972550075 9.451866588180927 8.356993537542639 0 0 0
82 1 23.04342477106455 8.988057620052448 4.993879244242859 0 0 0
1539 1 23.07813740510926 12.673855967942426 4.7178646747805235 0 0 0
305 1 20.661083113351957 10.91464521930535 8.568779605457056 0 0 0
64 1 0.7977461065968039 12.73467697040062 4.798432627825695 0 0 0
2624 1 2.957561785244804 14.478328832393997 4.284206541381489 0 0 1
115 1 1.1792042912886753 14.533248190347505 6.485445233963096 0 0 0
96 1 2.772379692051523 16.39530797387988 6.4186684294956 0 0 0
167 1 1.2387021472822908 16.213502920797694 4.730467571053154 1 0 0
310 1 0.9455919524506111 16.122227869591583 8.507472852498452 0 0 0
313 1 2.911851629241214 14.755357696269485 8.155695128665101 0 0 0
282 1 1.4791474106876847 12.662735832578164 8.112077746463488 0 0 0
119 1 6.302733903061612 14.31957088216164 4.923925359934992 0 0 0
1904 1 4.824162032261431 12.63140117991486 4.850466399214733 1 1 1
289 1 6.285830473548996 12.842946084160934 6.75465752202242 0 0 0
89 1 4.715490758447479 14.401920370254569 6.644407287928997 0 0 0
118 1 6.510876781827809 16.343827183563874 6.544346727483347 0 0 0
117 1 4.754949928085868 16.29816997218385 5.0430313388560855 0 0 0
317 1 6.1550465911240915 14.891448377773767 8.241183874270579 0 0 0
120 1 4.436736143458405 16.6238115868504 8.200415900486556 0 0 0
286 1 4.26650961157011 12.475304050364679 8.392166887564183 0 0 0
123 1 8.173237525456278 14.367838683747951 6.476436988402407 0 0 0
1809 1 9.864142028209505 14.596826040998538 4.893751167580116 0 -1 1
2240 1 11.863237563944244 12.927753126937109 4.790268336960679 0 0 1
95 1 8.330178968834575 12.4118099288672 4.833879102328058 0 0 0
100 1 10.145001827929047 12.952756590747354 6.73190136883472 0 0 0
2160 1 12.028280104553492 14.509078709890398 6.6528948067985425 -1 0 1
93 1 10.310289627125456 16.35261122083014 6.604540269520372 0 0 0
1922 1 11.835534363528119 16.280242792801573 4.920404960722478 0 0 1
322 1 11.672858147677914 16.2930405964932 8.621909821520658 0 0 0
2267 1 8.155630639588674 16.288737719466482 4.704513624447174 1 0 0
290 1 8.003350750323346 12.528083361805113 8.309697920119298 0 0 0
2582 1 15.480555437064606 12.750707048852208 4.680501102326689 -1 -1 1
2008 1 15.905044976283513 16.34901453227573 5.127889317921212 0 -1 1
2413 1 13.753946805270719 14.402237912585756 5.105229444216142 0 0 1
130 1 15.763132146224951 14.434118636278926 6.684229606657662 0 0 0
127 1 13.697155721002174 16.238650291571275 6.74438511309724 0 0 0
108 1 17.50945621418425 12.689309705044812 6.940139754654934 0 0 0
2016 1 19.36223714950839 15.917419435993649 4.88117982463409 0 0 1
106 1 19.32499719102116 12.200042327988859 5.067009200661193 0 0 0
135 1 19.392646725418786 14.563056768248174 6.832221830104151 0 0 0
1977 1 17.669363558411842 14.181815619672534 4.674380841633058 0 -1 1
329 1 17.42993466757298 14.555251667343862 8.47286654087635 0 0 0
136 1 17.62429350920193 16.671249242879874 6.697220287251562 0 0 0
330 1 19.24497777499886 16.25468332470424 8.4047134427079 0 0 0
140 1 21.01800940798092 16.156570533837417 6.507596032897624 0 0 0
2201 1 20.809948109838654 14.224104222542104 4.725490780281087 -1 -1 1
88 1 24.483682020748542 12.48521315101571 6.752200418433535 -1 0 0
1936 1 24.364873191719653 14.613899503145566 4.572490775292498 -1 0 0
139 1 22.648669702681907 14.378739640770592 6.450655130892175 0 0 0
116 1 24.600851308416107 15.880371567208408 6.553991844930346 -1 0 0
334 1 23.005967149801627 15.927403860046587 8.328574354422479 0 0 0
309 1 24.919706708691713 14.315222673363756 8.43882530655143 -1 0 0
144 1 22.872370602166225 16.60607224962616 4.639585964425357 -1 0 0
146 1 2.520809477067362 19.588548850003257 6.516192562643587 0 0 0
166 1 0.8229978532787297 17.933477126732015 6.26936999186215 1 0 0
143 1 2.5676389847186596 18.178952641239 4.722925269958608 0 0 0
1796 1 1.0565742415341912 19.97059412595862 4.3538189969360745 0 -1 0
369 1 1.0724244451605542 19.759744542930918 8.55050700434916 0 0 0
177 1 6.412966796443571 18.164391160558104 4.977223721859819 0 0 0
2053 1 6.610517692513334 19.96994902534555 6.568108659037987 0 -1 0
342 1 4.596081519497331 18.46681207030369 6.820443051843001 0 0 0
2139 1 4.351156981308768 20.104854049194216 5.0067751105567995 0 0 1
124 1 6.35961860024008 18.405418031033612 8.42422089732205 0 0 0
2095 1 8.744962315195407 19.83573594216852 5.06932888910442 0 0 1
376 1 4.345447921238332 19.983768761647852 8.584468815401351 0 0 0
346 1 7.968029574589993 20.233765108117296 8.42690166029584 0 0 0
113 1 8.611147344645149 17.937933308179467 6.723761008058139 0 0 0
156 1 10.233682336664836 19.98063905862842 6.685225719699753 0 0 0
2120 1 10.28162928972025 18.072697049805804 5.030539732709647 1 0 1
1789 1 11.903145762917754 20.144565202381877 5.155453386929505 0 -1 0
132 1 11.77438421973206 18.234520312738823 7.022950623252152 0 0 0
1424 1 13.744002822290124 18.10689759515065 5.133066233645123 0 0 0
2116 1 15.642920134554485 19.861449185795664 4.857429970294208 0 0 0
159 1 15.649577770580866 18.369580792370947 6.773406800190132 0 0 0
1628 1 13.770531837183704 20.216830140149284 6.950994938791302 0 0 1
353 1 13.482480090232345 18.569846579820222 8.697819626800843 0 0 0
134 1 17.587222140055747 18.207280184435895 4.833726483039696 0 0 0
163 1 19.22510946805158 20.01601458989706 4.552513930294068 0 0 0
164 1 17.810185087757574 19.633602859953612 6.7260410613769235 0 0 0
168 1 19.652765932405785 17.99063078474382 6.783838850137362 0 0 0
358 1 18.925692710468965 20.178336022632486 8.722151166478676 0 0 0
193 1 20.910793685996584 17.956968250127368 4.574846366032317 0 0 0
195 1 20.962062125560156 19.886321150407348 6.570173298817926 0 0 0
2470 1 24.432189201748326 18.072590863188616 4.551419444840221 -1 0 1
1699 1 24.901082561114926 19.885741986336427 6.418670821166653 0 0 0
2510 1 22.54905620988193 18.189742558086195 6.430783979246361 -1 0 1
2017 1 22.605494888170355 20.03629500670867 4.788830768517633 -1 0 0
362 1 22.624715499855505 20.002484247842546 8.213696517433451 0 0 0
361 1 21.048573013168387 17.91935195328196 8.576522254237243 0 0 0
171 1 1.3832404444085153 23.703101372769794 4.557359665819942 0 0 0
2702 1 2.787162395474033 21.606479014350825 4.834598732035019 0 0 1
176 1 1.1629018319440165 21.761102997368248 6.586855977470102 0 0 0
7 1 2.7842239928354497 23.67046797780965 6.510900897474171 0 -1 0
148 1 1.2105292589388121 23.504176359478613 8.360227421868668 0 0 0
367 1 2.6650431097510103 21.672018172758072 8.687315647491832 0 0 0
1176 1 22.49084404625696 23.351919519872617 26.726868064305773 0 0 0
180 1 4.831114383908644 23.68920795733017 4.980198171391437 0 0 0
152 1 4.301306704401202 21.683467902872856 6.690817418621569 0 0 0
370 1 6.85456829557768 23.35735161275445 6.4637977217083105 0 0 0
174 1 6.446356695869446 21.391843938741737 4.810854928915707 0 0 0
175 1 4.420398463420377 23.62709265421163 8.373726871884942 0 0 0
373 1 6.445608558501329 21.845223585044202 8.724016553957224 0 0 0
12 1 8.51966219934272 23.57131257955782 4.716959542210605 0 -1 0
179 1 8.312306275280754 21.68367263921609 6.735170027717919 0 0 0
378 1 9.955719128772541 23.518401171311304 6.814915679251516 0 0 0
11 1 11.810327094746304 21.931930542455127 6.809665986944221 0 -1 0
33 1 6.366914614595268 0.10594982888026522 4.852314088051664 0 0 0
2282 1 10.484331051782924 21.918935665010785 5.025478034413645 -1 0 0
380 1 12.070412024330665 23.578930107087224 8.438645830324147 0 0 0
188 1 15.641393214796647 -0.24340929610072506 6.413861750124568 0 1 0
155 1 13.864660667841704 21.723938066225664 5.124617521106293 0 0 0
1404 1 15.838834164241792 23.332165866000416 4.721231566498444 0 0 1
160 1 15.865865200157156 21.488539936553593 6.730994631200438 0 0 0
350 1 13.542671976047039 23.61828848170073 6.687758322713691 0 0 0
382 1 15.470214685307697 23.74975137415712 8.260198489037577 0 0 0
381 1 14.165412543022677 22.099831322142663 8.551476047262584 0 0 0
1675 1 17.446233819734477 21.677887891562264 5.273210489940292 0 -1 0
1523 1 18.68806617309943 23.41184039577911 4.5209367231036754 -1 -1 0
187 1 17.36755976720151 23.543293490457685 6.525523901236959 0 0 0
191 1 19.094938428248703 21.652021782121402 6.782637101913011 0 0 0
386 1 21.217895762192356 23.905737073351304 6.935891024303468 0 0 0
196 1 20.936991714044773 22.071733339782618 5.349830406065108 0 0 0
27 1 19.30457239347153 23.638748296282557 8.549531448259721 0 -1 0
2382 1 24.74089523895549 21.693836376083 5.0074782066772245 -1 0 1
2472 1 22.985137211798694 23.199640246865037 4.951641011695872 0 -1 1
224 1 24.80919567153317 23.697220088624313 6.9314360817499745 0 -1 0
2520 1 22.92861612103239 21.805430956029788 6.792091574878722 0 -1 1
338 1 24.566820776156348 21.758936331643184 8.381213559622594 -1 0 0
204 1 2.6136900568687977 2.2130714175310873 10.285844300696386 0 0 0
394 1 1.088200940597703 2.3864409343677906 12.019575483405305 0 0 0
390 1 1.3273037540683401 -0.005385453591673917 10.260423437342105 1 1 0
397 1 2.7933852216164783 -0.009077700248604936 12.148415284390666 0 0 0
227 1 1.3298460688203189 4.067393480475346 10.34049202058352 0 0 0
425 1 2.932884679802207 3.9994277116435972 12.171952533845293 0 0 0
208 1 6.5731302639113585 1.6442030045081173 10.106425370580062 0 0 0
398 1 4.748177899731574 2.118872176885949 11.573043224458589 0 0 0
429 1 6.681297647925132 3.6389759885671205 12.161072144001846 0 0 0
403 1 5.6720207255372 -0.007239246056330473 11.805420797021727 0 0 0
231 1 4.936237943175841 3.878707350360618 10.27755607889393 0 0 0
203 1 4.221991983780923 0.3162717487283624 9.906464927887225 0 0 0
401 1 8.193040467422936 0.1150096954564741 10.801795640222377 0 0 0
206 1 8.103225115289673 1.9301644940120273 8.428800052900112 0 0 0
22 1 10.312628525666437 3.426794071767416 8.83534582268478 0 0 0
209 1 9.941675868841116 -0.29042430848933 8.628446874283917 0 0 0
402 1 8.290798075054994 1.831039456929683 12.262820046731937 0 0 0
235 1 8.291886744318642 3.398106450133204 10.174290785227907 0 0 0
212 1 10.108245399098537 1.6660008714902212 10.464699872167914 0 0 0
406 1 11.722658654427557 1.8383397551137195 12.367644060457076 0 0 0
405 1 10.142935122108405 -0.02047851444741966 12.328167134421081 0 0 0
211 1 12.276721856343656 0.0032234952950552787 10.251836862862646 0 0 0
433 1 9.984934067393217 3.451655940836973 12.094185337975937 0 0 0
239 1 11.923621892667187 3.7450722183131537 10.537366393853514 0 0 0
216 1 13.657886216962174 1.8346060475725658 10.40323387737789 0 0 0
410 1 15.561520527527922 1.6227599043177294 12.299269745568383 0 0 0
243 1 15.683568622452475 3.4932612746308913 10.282459134921522 0 0 0
409 1 14.009609631773841 -0.1781932169959859 12.123080707799787 0 0 0
437 1 13.754762663092194 3.71509561681581 12.303235911781425 0 0 0
215 1 15.784220646148743 -0.0025036926713116747 10.223570768342924 0 0 0
220 1 17.603411907207906 1.5189672968626622 10.257500136711826 0 0 0
414 1 19.449903745019135 1.968811401438785 12.203435160390322 0 0 0
417 1 19.358617679896398 -0.041892477087725755 10.005263170710807 0 0 0
413 1 17.331721062553832 0.15916426473791345 12.303401490995897 0 0 0
441 1 17.283459851303885 3.3116837261182805 12.02610805329332 0 0 0
445 1 21.181656953806414 3.688666218343063 12.06953700620097 0 0 0
247 1 19.374383444115903 3.7198574729904568 10.30878935454325 0 0 0
418 1 23.22371978340798 1.8205660629988447 8.573427437001879 0 0 0
200 1 24.692859191818886 3.7627127839324697 8.5024987580781 -1 0 0
197 1 21.299652170254685 1.8230872397465174 10.024555575739688 -1 0 0
368 1 24.834909534639774 1.9305150502745168 10.523533840885985 -1 1 0
614 1 22.803452667352204 1.9499070689618363 11.836066529602952 0 0 0
223 1 22.82668806025813 0.07534088508118897 10.211596150364759 0 0 0
251 1 22.991998421621247 3.7873290584585355 10.261751961107592 0 0 0
421 1 24.60886691896332 3.968877273814325 12.017312106577151 -1 0 0
419 1 21.177650133808548 0.2847839864299455 12.026995072316463 0 0 0
228 1 0.9113181391708465 7.8204167436961125 9.9285989214449 0 0 0
232 1 2.8866526447078096 5.90967227894475 10.184898338741469 0 0 0
422 1 1.056659510649654 5.865153303524618 11.87486518428123 0 0 0
453 1 2.823833394865959 7.478143164266305 12.253373733122807 0 0 0
236 1 6.750133190148315 5.488004785366817 10.045268319941549 0 0 0
259 1 4.801327594179462 7.429151721079805 10.240218837901615 0 0 0
426 1 4.98291498834855 5.690186900481584 12.27341598822222 0 0 0
457 1 6.592130832783692 7.309639605384564 11.898753026741028 0 0 0
263 1 7.994279600534419 7.310582270862153 10.331396560226194 0 0 0
430 1 8.349358256406582 5.590187776314632 11.957011975670802 0 0 0
461 1 9.806570192430675 5.214134694828258 10.402475881424708 0 0 0
434 1 11.724564574041429 5.379424189203636 12.000568096893101 0 0 0
267 1 11.786140339348952 7.31320008992844 10.094439551729447 0 0 0
664 1 10.170552449629376 7.102785238745161 12.259550729380653 0 0 0
269 1 13.883723929162812 6.8404040332009455 8.54199725158237 0 0 0
244 1 13.809067183652683 5.395782214879704 10.408704192367916 0 0 0
271 1 15.63118104097522 7.21848965071435 10.414934811579077 0 0 0
438 1 15.295308265833171 5.321391382919597 12.050410490123916 0 0 0
465 1 13.298003584432749 7.281307811682292 12.094068654176462 0 0 0
248 1 17.396093525480467 5.199477799367507 10.427343063478228 0 0 0
275 1 19.333799583088027 6.894668466752843 10.220318441061345 0 0 0
469 1 17.61797474164627 7.130853580394514 11.790032110871518 0 0 0
442 1 19.227424685778267 5.205004957610235 12.204813189730944 0 0 0
473 1 21.041269542723104 7.444086059336017 12.120301562714726 0 0 0
252 1 21.102434846137307 5.441846359789585 10.202467449122807 0 0 0
449 1 24.284379948078833 7.365732281610667 12.21815505715367 -1 0 0
225 1 24.7628955089169 5.76901304731702 10.343192293428682 -1 0 0
279 1 22.72936823755088 7.533558733637517 10.02736234823206 0 0 0
446 1 22.828666992240365 5.863274518509156 11.637715981475974 0 0 0
260 1 2.757936508065127 8.987804468692653 10.179456715706678 0 0 0
283 1 1.040983222562129 11.041868162531104 10.373821872081873 0 0 0
450 1 0.9228370451628243 9.222329220133133 11.880352554091711 0 0 0
481 1 2.7467159730992914 10.669712449877741 12.045287927588417 0 0 0
256 1 24.5643825187971 9.234410451694172 10.304911954441021 -1 0 0
288 1 2.7934609812373674 12.929966539307417 10.499751805017599 0 0 0
262 1 7.936385797409425 8.851746645294622 8.493011790469811 0 0 0
264 1 6.397341517486101 9.093436367906254 10.489702111845176 0 0 0
287 1 4.487164467420122 10.580849814279523 10.449668781769772 0 0 0
485 1 6.406080105150294 10.695600608366517 12.33444445645786 0 0 0
454 1 4.576598835298029 8.885905032822233 12.395285067246173 0 0 0
291 1 8.132014421260896 10.911422313354773 10.436624275286789 0 0 0
458 1 8.36286138578725 9.398334114397848 12.17971109743452 0 0 0
293 1 9.74919759147776 11.166198382603943 8.240941941572128 0 0 0
266 1 11.942782262617882 8.93546563738588 8.305499344735944 0 0 0
268 1 9.875530809360011 8.917151343183038 10.13237793311322 0 0 0
489 1 9.955229331078103 11.130751069823289 12.42969837901661 0 0 0
295 1 11.665347436608249 10.768928528596874 10.3260356740765 0 0 0
462 1 11.74254476508566 9.111341190359767 12.295372432384958 0 0 0
297 1 13.707443142462335 10.696594735763496 8.451680468747242 0 0 0
270 1 15.600976774908487 8.937797544967005 8.76690733140371 0 0 0
272 1 13.852929189399301 9.084194175377164 10.593615607191236 0 0 0
299 1 15.275743134154107 11.07516409956109 10.194136172023548 0 0 0
466 1 15.55342921906402 8.880598766070966 12.48435072227451 0 0 0
493 1 13.337683328949831 10.886495294897271 12.357420744907252 0 0 0
298 1 15.506621161839755 12.7750463337918 8.36285193377179 0 0 0
301 1 17.302151450507377 10.846779718779066 8.659481434629999 0 0 0
276 1 17.31432488198156 8.941377887801071 10.595155618819728 0 0 0
303 1 19.207717593389972 10.99648429214277 10.604457550232405 0 0 0
497 1 16.84121963012937 11.0432930433802 12.223597264641821 0 0 0
470 1 18.944786730919862 8.835824033951546 12.190568329966645 0 0 0
302 1 18.88831544380506 12.53751912898981 8.98923252191006 0 0 0
281 1 24.914853302263094 11.194297493610419 8.701556099441069 -1 0 0
280 1 20.699401599190384 9.260903717785254 10.22841505019628 0 0 0
501 1 20.7630654740921 10.950424588246715 12.401365077955576 0 0 0
477 1 24.43721817944322 11.024621753909079 12.211526979634495 -1 0 0
307 1 22.62351127678881 10.999355345038865 10.52341544879188 0 0 0
474 1 22.605243552474587 9.346826300672184 12.258354943330884 0 0 0
308 1 20.918533351526033 12.746650556011634 10.501871466544594 0 0 0
306 1 22.779061001275267 12.89160078365265 8.397470385089244 0 0 0
478 1 1.005386007906611 13.093659816218263 12.0040032969654 0 0 0
311 1 1.144224062866204 14.360548345920442 10.090235473693298 0 0 0
509 1 3.216412008269189 14.537499707699084 12.166076635918062 0 0 0
506 1 1.2647863401544082 16.16372325314279 11.938940352105172 0 0 0
316 1 2.727875340200459 16.023284251183846 10.002159487161329 0 0 0
292 1 5.977917270733945 12.805056986072909 10.075908158714189 0 0 0
482 1 4.64163800098689 12.49895788693331 12.108513911791963 0 0 0
315 1 4.4310951555566955 14.521482660852346 9.819154363006652 0 0 0
513 1 6.419385398536837 14.25234281641529 11.713580768205098 0 0 0
510 1 4.8035223885551455 16.58550935442981 12.10644157890523 0 0 0
320 1 6.025387774544801 16.5691968555104 10.103237371254192 0 0 0
319 1 8.023861207596859 14.251615021367277 9.837091111761538 0 0 0
318 1 8.248166606154863 16.238962099258437 8.479620873459195 0 0 0
321 1 9.925128589498318 14.719916617688607 8.44455441082928 0 0 0
294 1 11.790329193736346 12.621073885035102 8.459257945127135 0 0 0
514 1 7.804886846038777 16.02923460110317 11.714063560199875 0 0 0
486 1 8.321627383698106 12.769196948533084 12.191703321619997 0 0 0
490 1 11.799447944124196 12.903771555466868 12.029869398048914 0 0 0
296 1 9.97036621391608 12.599885017961856 10.228755977474764 0 0 0
517 1 10.120606615029743 14.490765092929816 12.03089295987739 0 0 0
323 1 11.653275819610164 14.62282156111602 10.045505268442831 0 0 0
324 1 9.69266302147702 16.127801227662346 10.205349225253979 0 0 0
518 1 11.584368368588704 16.51664183782387 11.888693250586861 0 0 0
325 1 13.69619894202896 14.691936142233265 8.570224491725096 0 0 0
326 1 15.43537370343881 16.55075049655656 8.513009837709909 0 0 0
300 1 13.527782621810335 12.381919276826794 10.39360097184974 0 0 0
494 1 15.047745603400928 12.950776794244309 11.871067575856145 0 0 0
327 1 15.272080050751226 14.67071808841628 10.272780823836413 0 0 0
521 1 13.470732582785406 14.719954893066216 11.742619670759739 0 0 0
522 1 15.443992110814756 16.189964869045603 12.088982629322794 0 0 0
128 1 13.541788419005442 16.60204066330804 10.192361212215227 0 0 0
498 1 18.871885943245513 12.397433670698774 12.577158741997467 0 0 0
304 1 16.986931766731487 13.129059067274259 10.168634620403596 0 0 0
331 1 19.449075279190335 14.76647361019338 10.06878284917185 0 0 0
525 1 17.411344268796974 14.62208196634919 12.34075233350472 0 0 0
332 1 19.131746508081573 16.04067251542577 11.970094860127272 0 0 0
328 1 17.112481309646952 16.224593322437634 10.481159254356154 0 0 0
333 1 21.215183468201335 14.51764332428554 8.439040905106625 0 0 0
284 1 24.392260225346686 12.810044214766885 10.574951095033207 -1 0 0
529 1 20.669697476691383 14.275964935424858 12.118715203411082 0 0 0
336 1 21.055234399768377 16.080860015442745 10.282248992959534 0 0 0
502 1 22.721286649778012 12.765934803075695 12.375048072845722 0 0 0
335 1 22.54620947477504 14.251565538492411 10.557365033388326 0 0 0
505 1 24.70148779167118 14.772461947844509 11.988804969933177 -1 0 0
530 1 22.67377305701059 16.030000694151617 12.173981678399084 0 0 0
312 1 24.421950896368298 16.598863974526694 10.195796072975627 -1 0 0
341 1 2.3981852655267164 17.818541697623104 8.324122361389662 0 0 0
339 1 0.9076969262764769 17.995198413665086 10.283978475242606 0 0 0
343 1 2.7427167601200275 20.052928283878245 10.6209127968181 0 0 0
537 1 2.801928280734501 18.1692269214715 12.124585101073347 0 0 0
534 1 0.918379195753213 20.137025022940968 12.007889518484767 0 0 0
314 1 4.301044293407326 18.211814821206104 10.325559566265026 0 0 0
348 1 6.258861846501798 19.842953097780565 10.208202771913516 0 0 0
541 1 6.535775801152153 18.267720823258365 11.93467551460777 0 0 0
538 1 4.809797232537973 20.224343279484437 12.304760441743104 0 0 0
542 1 8.173698343902561 20.02611602965696 12.085218455077547 0 0 0
151 1 10.160314517353417 18.282313048544268 8.625521952421398 0 0 0
1731 1 11.951608344020427 20.296323712210736 8.428056998625589 0 0 -1
347 1 8.133865653841351 18.334959299228863 10.01856921090722 0 0 0
352 1 10.137490208225433 20.109099266377065 10.065972781784211 0 0 0
545 1 9.537133928931418 17.874444765523165 11.78857672022741 0 0 0
546 1 11.682829092181144 18.148368194004036 10.261092886982233 0 0 0
577 1 11.4284078046957 20.011369333351972 11.887442833009985 0 0 0
354 1 15.265606967596606 19.82193881272199 8.651525830123855 0 0 0