LAMMPS data file via write_data, version 29 Oct 2020, timestep = 200000

2160 atoms
1 atom types

0.10427587056860688 21.159724129430643 xlo xhi
0.10427587056860688 21.159724129430643 ylo yhi
2.56810414591423 63.48246928527735 zlo zhi

Masses

1 58.933

Atoms # atomic

163 1 4.478812560255256 4.369766751702953 4.700806280781539 1 0 0
676 1 1.570893958753669 1.5511678814779863 4.843622407189439 0 1 0
681 1 2.9383696610095202 20.643598119106816 4.5592908039032976 0 0 0
1679 1 0.7735958365726786 3.833673289928247 6.543343121685255 2 0 1
55 1 3.5238741912539746 2.4932090665736624 5.5860796628766 0 0 0
2025 1 20.67896937727467 3.189399805686245 4.6120964495989645 0 0 1
323 1 10.880758547855992 7.8652437974204465 2.705435337035704 1 0 0
1353 1 6.602641434053396 2.2416135364695946 5.06539589997216 0 1 0
300 1 8.693804390692259 2.05764627927456 3.724661260189168 0 0 0
82 1 4.884848194986843 2.426532797339774 3.438065012908476 0 1 0
1497 1 5.936655919164442 1.196100153144192 7.363644746882762 0 1 1
359 1 12.885626024759496 3.5867462052304084 4.553529364308959 0 0 0
766 1 10.438732090429406 0.39402814060870517 5.569320582859246 1 1 0
2021 1 13.05759427157208 1.4848470561358165 4.451966222440118 -2 0 1
281 1 14.019779171926096 6.053062444821015 4.548792160568015 0 0 0
1237 1 16.893615552529617 2.793093215717342 3.1033618498246787 0 -1 1
379 1 14.145341079827208 1.6031121023838302 6.487352869945613 0 0 0
1699 1 14.662212109133796 3.0316658693120724 3.0213691752846197 0 -1 1
250 1 5.689994940366062 16.862187803263186 2.765184383092403 0 0 0
195 1 15.066691609374494 3.6511926990987003 5.373273566604041 -1 1 0
1213 1 19.628477001405784 1.1797544769138448 4.485572726701382 0 1 0
1652 1 17.540270271920328 2.417206911501672 6.559821159267938 0 1 0
484 1 18.36642589121093 3.3917205502684835 4.524617444090562 -1 0 0
395 1 16.00201131648608 18.53816189240201 2.612391816725172 0 0 0
1197 1 1.9253122431018335 4.699870247059629 4.949651009916677 1 0 0
1574 1 1.5093340818199723 7.944566025849519 4.518142362345122 0 -1 1
386 1 3.1721134398526067 6.301075947517895 3.6838293091030816 0 0 0
355 1 3.8669137260815334 7.451145469969596 5.514748481833932 1 0 0
1664 1 3.837291799142543 5.119920437945939 7.15724417739959 -1 -1 1
1473 1 7.14289859748577 4.668186550605382 5.48077282788568 0 1 0
282 1 16.243709060028298 10.925112904959011 2.8964163228208455 0 0 0
373 1 6.398231513810499 5.716621979894889 3.6016845986658867 0 0 0
520 1 6.851149476318963 7.90576516856209 4.524859137688963 0 0 0
1387 1 4.500933119761527 8.484052589923479 3.8051713277522126 0 0 1
1123 1 8.96837052088021 6.943218354088859 5.789067263834033 2 0 1
1744 1 8.815582089355106 6.878657070053614 3.4242784762412315 -1 -1 1
119 1 11.638277387579945 5.457585797119089 3.768750599518782 1 0 0
1996 1 13.662624429112737 8.356783451225525 4.4690620491545765 -2 -1 1
1607 1 11.225476519215759 7.635783358971508 5.0724290448346565 0 1 1
1626 1 10.362268400801515 4.856224207512862 5.725380319191435 1 1 1
60 1 12.399289439931318 5.576957745304248 6.050437538175897 0 1 0
200 1 1.0328722631546325 6.206247394059502 2.8783818137335153 0 1 0
1338 1 16.021833224176227 7.273770849256617 4.584450413031914 0 0 1
2071 1 16.346514682885957 5.1651183131929 3.8654915266583414 1 1 0
6 1 18.402032959129208 6.962030312130191 5.377376301919741 -1 0 0
412 1 14.938669810427454 8.224689102580074 6.655602305165801 -1 1 0
1968 1 6.597244836098836 1.0383764318614612 16.665945138164822 1 0 2
514 1 18.310754118670882 9.336184873651172 5.412880581065361 -1 0 0
2046 1 18.727508254252903 5.431557944290926 3.6483279302755847 0 1 2
1764 1 19.9449677193557 7.892869069317878 3.6610691122099803 -1 1 1
2153 1 20.89007191813887 5.831600804344881 5.387386923326943 0 0 1
240 1 19.30858257707406 4.306135501598775 6.439098849587138 0 0 0
1203 1 9.354781540920085 0.5096276808011058 17.448614476092942 1 0 0
463 1 20.79058277060832 8.074214246156732 6.276760608638501 -1 0 0
1458 1 0.8906206600248122 10.01197746185759 2.874214271498545 1 0 0
1592 1 4.0067893134650525 12.400333916968012 4.235053169571174 0 0 1
125 1 2.671670447152265 10.023852220829273 4.2507855718306296 0 1 0
1828 1 12.09159816670136 14.134580797293523 2.9877932496512978 0 -1 1
127 1 7.628810109031987 18.00582154171617 14.328794065477666 0 0 0
180 1 6.695012077433748 12.476683475738879 3.3867431365716887 0 0 0
3 1 9.4015950968972 8.89608023742988 4.500622928057213 0 0 0
354 1 6.098461704773219 10.995902374474653 5.217112408195584 1 0 0
189 1 7.289954971621826 10.02292690972472 3.110728219137493 1 0 0
58 1 8.379513185178027 11.1095289304356 4.911701956605285 1 1 0
81 1 13.180134943385946 10.313913185518743 5.897575691945227 0 1 0
274 1 12.084115981598076 12.292492035717713 4.830422636736635 1 1 0
122 1 10.203848565765483 11.02383397783752 6.4076107362937 -1 1 0
1150 1 11.698494407386471 10.163485501835586 3.9975342315086646 1 -1 1
1721 1 15.520597156876583 9.499131392309915 4.79698239812512 -1 0 1
1184 1 13.979199278793791 11.270686684260834 3.5279134658143216 -1 0 0
207 1 13.936449131328393 13.789877691084595 4.869287812437683 1 0 0
1912 1 16.194902904887343 13.263707773247857 3.7636941556359833 0 2 2
1483 1 19.597808768549164 10.166987269883213 3.1865650688367575 -1 0 1
756 1 17.815420660643134 11.367492866337265 4.509284889402364 -1 0 0
2052 1 17.429585276231922 8.656306163898451 3.072098412742989 -1 0 2
807 1 9.12043349910111 10.847156228328988 17.672074185340705 1 0 0
259 1 3.6277221428670585 14.563570254862443 5.261844744426832 1 0 0
288 1 0.9173123372128453 15.357678984703984 4.0971482603779 1 1 0
123 1 1.98034875078813 12.425028893860889 4.8854627903939525 0 0 0
326 1 3.3293763484497343 16.193955029273567 3.791133807964008 0 -1 0
153 1 2.7378704419891196 13.874396580466405 3.060959495661961 1 -1 0
319 1 5.340741217676401 16.86829558808717 5.064331638523763 0 0 0
384 1 7.549052925261435 13.71558545236809 5.360834939113899 1 0 0
1380 1 5.56234373912305 14.801662192894739 4.037343324844708 0 0 0
1955 1 11.978606859127572 16.753107758879086 3.095975706830375 -1 -1 1
776 1 8.993622191083885 13.475699746546123 3.2519546058125064 0 0 0
1559 1 9.752282602863628 13.00104976683993 5.383643024954489 1 -1 0
27 1 10.632775172681834 15.218111597849669 4.822590234758625 0 0 0
239 1 11.920930043567832 14.269078003743905 6.3704866394158595 0 -1 0
2064 1 10.76070355352449 16.62712487505037 6.934230827645606 -1 -1 1
352 1 12.804951294201203 16.116819503631575 5.372717743848709 0 0 0
467 1 3.9774403860354943 19.167387214528873 16.5825179564527 0 -1 0
1685 1 8.003097158521513 15.703911665649974 4.000922364351592 -1 0 1
438 1 4.5703162782514 3.7715707354499206 17.097453333584888 0 0 0
252 1 15.55981977874692 14.809822050304323 5.942572647711767 -1 0 0
1644 1 14.288081290399465 16.14089336570213 3.6265343753351678 0 0 1
501 1 16.78452355368242 15.653971371207172 4.088188618170756 0 0 0
644 1 18.279434951353892 16.075349135079392 5.88428605520642 0 0 0
623 1 17.520184987722654 16.87023964923929 16.887048324201565 0 -1 0
1871 1 18.88346765671773 15.083811604357754 3.6457980866251174 1 -2 1
1361 1 21.13158515779617 13.132759716164571 5.141214922818898 0 1 0
433 1 20.517176480540673 16.20508001704123 5.618625706968775 -2 -1 0
345 1 17.72389491627155 13.685264908577574 5.336527154051561 -1 0 0
335 1 20.989830890414318 9.603146750936784 17.436193621948874 0 -1 0
1417 1 2.134208160577639 16.552848612731335 5.610615095785052 -1 -1 1
481 1 2.65535989060417 18.418670911120223 3.751648515366515 0 0 0
2148 1 20.912805614607016 20.579977182049593 6.069575608135585 1 -1 1
2152 1 0.5809288418788554 20.403726907132626 3.713260410981848 1 1 2
403 1 0.33798022350728035 17.97858465522418 4.290579195522118 1 0 0
480 1 8.12844199566564 16.850376092023005 5.983965641632064 1 0 0
2118 1 4.0178195270994586 18.68275998448451 5.902940966022142 -1 0 2
1990 1 4.932206698394057 19.166519597312377 3.8977667313695896 1 -1 2
193 1 8.110817134486407 0.7569024720715043 6.057014448820645 0 0 0
243 1 7.148841263642717 19.728793604482227 6.8671839625745115 0 1 0
1490 1 8.405321756834528 21.159474960676345 3.8056573533750875 0 -1 1
1595 1 5.362396791237276 20.824324112574043 5.626421083605537 0 -1 1
1425 1 11.687016249246275 18.435947183559257 4.579529408389951 0 -1 1
201 1 13.97618845902781 18.559049712093927 3.6789943851366527 -1 -1 0
2083 1 9.359313106442658 19.210915504287282 5.645237533001206 0 0 1
521 1 9.79264185168014 17.548455485655442 3.8111415938221502 1 0 0
539 1 20.362778929691014 19.017884828858808 17.34074178023041 0 0 0
399 1 18.671811441488455 20.639667537452365 16.33206867800413 0 -1 0
772 1 16.83752720759956 20.30293488501295 4.341421689016707 -1 -1 0
304 1 15.091587152132227 17.218517824030474 5.4704261223674 0 0 0
713 1 18.612394546041163 14.933285843958936 17.167072157290605 0 0 0
2061 1 17.889660943532764 17.791478835305583 4.04468161250233 0 0 1
693 1 18.517500091303763 20.91478196261404 6.4354770410900795 0 -1 0
1411 1 19.348540958485042 19.748629013008607 4.209377672173126 -1 -2 1
686 1 20.568915188533307 3.458487533486853 8.87394149267315 0 1 0
1384 1 1.8363628047105804 5.24673664198361 8.721275487173266 0 0 1
317 1 2.9083504052593265 0.2681487452089588 9.336026706717528 1 1 0
658 1 1.3185316396443358 1.0700563220613382 7.03379583566109 0 0 0
68 1 0.1206022632395296 0.26275692948450424 10.517663431938118 2 1 0
365 1 3.6259275124453065 2.523719661491307 7.885210199179474 1 1 0
271 1 7.642510145913961 3.233711732582556 7.759247030866035 0 1 0
1844 1 5.587728329501247 3.5788436610898895 6.94475547539023 0 -1 1
363 1 5.827017626424505 2.3599593753239536 9.165195074016738 1 1 0
1994 1 5.453358285088179 20.054984561084034 8.318830595662956 1 -1 0
285 1 7.649020492092287 0.19009696443278656 8.771006679951444 0 1 0
102 1 8.226065491163657 4.084510324441406 9.71103873560954 0 1 0
704 1 9.635865080475442 20.716736348523845 8.096945033871165 0 0 0
392 1 11.202436267704506 2.4616764102563873 6.2598625466925135 -1 1 0
32 1 8.720698243602683 3.109845847775243 5.861396027192244 0 0 0
422 1 12.03371968702742 2.1344791333446405 8.754838700880734 0 1 0
389 1 9.368161206289285 1.8925631425339262 8.003693476088989 0 1 0
1434 1 14.425619515433194 1.671331758295711 9.27155159505348 2 1 0
489 1 14.51022331919009 1.8677692238764978 12.134511582222434 0 0 0
342 1 16.109660009027614 3.636296604912394 7.6563882108891255 -1 1 0
677 1 12.83965022042024 3.688750492433729 7.114296619032364 -1 0 0
191 1 12.476015427599581 2.401010129267751 11.131356217830902 0 0 0
579 1 20.045798275879935 2.1255883175843 7.024715869239071 -1 0 0
236 1 18.217853837548226 3.51918733553555 8.494644149206321 0 1 0
1058 1 17.86969574282748 0.7682589740337132 8.338638718509198 -1 2 0
777 1 16.338681134615136 5.09175626881984 9.859616335789452 -1 1 0
242 1 15.6954197158274 1.3414970170041463 4.78188491635711 -1 1 0
663 1 1.9932261154411823 6.489393178289095 6.855986789837228 1 0 0
380 1 2.20698968803609 7.913656404069991 8.738378370545792 1 0 0
717 1 4.5139857385944495 7.170217931300724 7.8764520467939825 1 1 0
272 1 8.567467906535146 5.397426869607649 7.3215843111468635 0 2 0
1421 1 5.737662948663698 6.210809046779756 6.151369901790591 0 0 0
244 1 7.038544495657183 7.665021369849813 7.744563063977204 0 0 0
138 1 6.090328476039531 5.433765714022968 8.67647209657326 1 0 0
2101 1 9.094794869844883 7.549953156541593 8.791814871264659 0 0 1
418 1 6.31765339579742 7.570974630305973 10.003043095900214 0 1 0
44 1 10.456593449370848 3.907767633124432 7.953360577638265 1 1 0
839 1 10.453551527158055 8.945681554687283 6.654743993496083 1 0 0
290 1 12.786430707473306 7.50093045788861 7.170508679191248 -1 0 0
171 1 10.598105529663998 6.6359192392541155 7.286007666592624 0 0 0
452 1 10.135019842685173 5.399861006552803 9.610198701832896 -1 0 0
203 1 11.49752962144447 8.235899407448974 9.295268411587355 1 0 0
45 1 12.357136426728076 5.795007492996365 8.70795151759555 0 0 0
421 1 14.060609258379232 3.8299559207655345 9.059593139284196 0 1 0
1320 1 14.607829434769995 5.53549899294837 6.897077655595363 0 0 0
474 1 16.62461630499741 6.945420785493147 7.7540057766170065 0 0 0
167 1 14.457858913983577 6.9522037676031285 8.949339311796951 0 -1 0
121 1 16.85317726750777 5.260997643001825 5.906118333968121 0 1 0
40 1 20.979951819984596 5.593212087312125 7.9208144718742 0 0 0
166 1 20.737807934636788 7.465157326421965 8.89586200133012 1 0 0
536 1 18.895430274640685 6.420351997591948 7.531610414151491 -1 1 0
491 1 19.01802567857407 5.592050529484714 9.714058462499963 -1 0 0
394 1 19.077050528464827 9.025936431354742 7.6755083306286105 0 1 0
1962 1 19.847759502257926 7.746550454934471 11.293587096001927 0 -1 1
4 1 21.060223017162283 10.125537851266593 5.048986363713473 -1 0 0
159 1 1.9355196509886399 8.986077493860874 6.72023322932574 0 0 0
1520 1 3.3626511716538157 8.91276875589719 10.747835077207549 1 0 1
1560 1 2.905332425973192 10.330098355564022 8.522045098427192 0 -1 1
150 1 0.934533652339042 9.717474671548976 10.436425636486955 0 0 0
1928 1 20.985005660988076 10.108855044868735 7.988742510640149 0 1 1
1775 1 4.245889151334509 12.160534273642977 9.440154660850652 0 -1 1
366 1 1.323000429330688 11.75156663784054 9.371012506178978 0 0 0
1861 1 5.471835752990786 8.850804437419226 6.238024226082469 1 0 1
978 1 3.778456220115378 10.358460060521235 6.237292467055659 0 1 0
268 1 7.971786558437828 9.243706586537922 6.341178710307887 0 1 0
2060 1 5.489252061074168 11.488378561721076 7.753159308537035 0 0 1
1845 1 7.5025411824939905 10.185196934980125 8.438424579673853 1 0 2
11 1 4.879001039569269 9.26693916750315 9.016742596396305 1 0 0
331 1 8.148097161768721 11.946145493259397 6.9221013233541635 1 0 0
235 1 12.525659571064091 12.08671288555027 7.268165924861965 0 0 0
1251 1 12.212106905642232 9.697156063510494 7.800064566132809 -2 0 1
320 1 10.439914112870648 13.232282840898328 7.833297830297898 -1 0 0
1712 1 8.933207223979469 12.38077680035832 9.680457473045895 0 0 0
1132 1 14.636755831267374 11.92528927594797 5.868768026649395 1 1 0
104 1 14.406500438865656 10.182093857500881 8.05793342913428 0 1 0
294 1 13.464880366847174 12.181856559363096 10.454721012415579 0 -1 0
624 1 16.009987551957177 9.211068395935856 9.646259804048853 0 0 0
1488 1 16.592379901805643 9.629618921732641 7.552000589609123 -1 0 1
135 1 15.795886197370118 11.608587001843492 9.454690088552688 -1 0 0
499 1 13.460392689338754 9.633209015398672 10.175268821724396 0 0 0
357 1 18.96951131346065 11.581258834529574 6.469387538226282 0 0 0
722 1 0.6169657354108793 12.083592851905305 6.887852835570719 0 -1 0
8 1 16.78585183776504 11.907003653217238 7.057151473738357 -1 0 0
116 1 18.29771433125447 7.780685481874981 9.328652871098594 0 1 0
537 1 19.825687183418022 9.659721627991303 9.838272836552163 -1 0 0
1396 1 18.053706172168283 11.005536111421604 9.06432978637842 -2 -1 1
249 1 3.178028831265047 12.318237427568102 7.0422051675247594 1 1 0
1200 1 1.1567994632408787 14.855082340685115 6.658965216194677 1 0 0
508 1 3.1146363840959608 14.58924166175859 8.202458473294348 0 0 0
267 1 0.7800462758111202 16.026784448661182 10.299575953919053 0 0 0
414 1 4.021708234754552 16.5015976653967 7.221672500868449 -1 1 0
1160 1 5.456852845983358 13.136826924978829 6.19218711817892 0 1 0
393 1 6.275577501053812 15.15627373162194 6.644540000850048 0 -1 0
398 1 4.995834125138184 14.606199879809251 9.426418042903979 1 1 0
694 1 6.122413299989881 17.719375165159125 7.238657965046129 1 0 0
197 1 7.4636343347650635 13.573043592611292 7.960955787172801 0 1 0
1522 1 7.567569303074049 14.496151031869342 10.30781377330257 -1 -1 1
216 1 6.702369855858343 11.949044010489123 9.857927987270656 0 0 0
227 1 9.35954421631039 14.958071118553717 6.392575184185637 0 0 0
1460 1 9.838736027307409 15.414315028486788 9.285076407910726 0 1 1
456 1 12.278911855833025 14.082324736466823 9.1175685366252 0 0 0
301 1 12.592938036305213 15.483225650685993 11.240562194998288 0 -1 0
22 1 9.85561439542726 17.905270183703333 9.499188593318065 1 -2 0
439 1 11.805752387498124 16.66612123184106 8.97803112449691 0 -1 0
247 1 13.889580248937044 15.663595688238416 7.675283567524892 -1 0 0
147 1 14.81638373494738 13.093098295632924 8.14304909670081 0 -1 0
292 1 14.392433401034811 14.20207803947204 10.259205726576889 -1 0 0
210 1 17.35900626453538 14.236153036092999 7.46659872518054 0 0 0
953 1 16.27536025500386 16.43287098855482 7.471818673845295 0 0 0
106 1 19.89453070302716 12.581699798383564 8.375060884204593 0 2 0
185 1 0.1637130392261605 14.350248764163704 8.76813299471743 0 -1 0
1808 1 18.24149784029174 17.461085502772445 8.722521112190687 -1 -1 1
173 1 19.529047955105682 14.2911180574662 6.671430095851186 0 -1 0
545 1 18.91013256628858 14.701121354152937 9.166534824192212 -1 0 0
1415 1 17.056223718646297 13.50485743725789 9.833373935677518 1 -1 1
383 1 1.7262150507813987 17.354383560942317 7.817443762319429 1 0 0
245 1 3.0276030623057864 16.633788314619434 9.83276808992184 0 0 0
591 1 1.1575423651457353 20.089461200149092 8.042971917526767 1 -1 0
510 1 1.8934674584049989 18.98242402201611 5.8600561835182745 0 0 0
550 1 19.873957559790565 18.489500359874466 6.629605747666151 0 1 0
1332 1 3.572372291841838 20.946979487914934 7.190711754879864 0 0 1
80 1 7.919247100075713 15.781845927603241 8.207403882147641 1 0 0
199 1 4.592788090326867 18.760408444162778 10.41503225566688 1 0 0
565 1 3.4910802719293725 18.822965176557062 8.218698329459324 0 0 0
2034 1 5.463947191646816 16.95487648424675 9.403685065250492 -1 0 0
100 1 7.075195478716159 18.784529720013587 9.32505390644101 0 0 0
142 1 11.894276680902431 0.3217415165403814 7.343237181374224 0 1 0
1906 1 11.6659608039578 18.852098816820572 6.937409432878008 -1 0 1
1086 1 8.712135461913643 18.42060409793591 7.843595948618941 -1 -1 1
1620 1 8.939960921514622 20.040666704601342 10.428996411001798 0 -1 1
478 1 11.804541313333482 19.25234451902657 9.050742314605621 1 -1 0
362 1 15.832724312567318 19.539683730129557 6.233319586859684 0 -1 0
1905 1 13.57472022480913 20.198915752329693 5.565160217647049 -2 0 1
358 1 13.891740819199512 18.312091936591127 7.279220649475761 0 0 0
1519 1 16.092681525050097 0.4676113054625986 7.001227649308574 0 -1 0
400 1 13.997647109292581 20.35897946335581 8.324202248231598 0 0 0
88 1 15.795452589621627 18.360763565012803 9.05260212761567 1 0 0
1298 1 15.902555807414126 20.9290121638629 9.478017627577366 1 0 0
1590 1 20.128535480729237 16.49315889042063 7.843412442728001 -1 0 1
266 1 17.339440794476797 19.58766179896355 8.131898335250426 0 0 0
86 1 17.542819562982807 18.163599589700684 6.153352735137907 1 0 0
821 1 20.01766418196611 20.560046824059086 8.57889948723454 -1 0 0
444 1 0.36753585256181065 2.7673184133376885 11.417020331495403 0 0 0
709 1 2.451428643324376 1.2190242657753947 11.421125457225129 1 1 0
518 1 2.2086610529992625 2.7356606084905746 13.172694776709077 1 1 0
558 1 1.7873912827476621 2.7352630679714958 9.261460655462376 0 1 0
160 1 0.19823528729735454 0.8781823783311631 13.729301814185899 1 1 0
424 1 6.885870814657096 3.458506715733842 11.423898843489477 0 1 0
2096 1 4.86186880164033 0.6839270632904801 10.398888178670934 0 0 1
511 1 4.2824717027893096 1.2285901718785444 12.873734985961413 0 1 0
1868 1 8.28551576944074 1.7189095423332414 10.550231999931576 0 0 0
442 1 8.548737900340166 2.9365507470391705 12.927351214489265 0 0 0
2119 1 6.818003106126667 1.0912267844593448 12.290681891707232 0 -1 1
1711 1 12.164805920623166 0.40781467801534643 12.421226427261097 -1 0 1
784 1 9.872700293068057 0.8936936088729294 12.251046408158384 0 1 0
1270 1 10.334054927242416 3.026982584476636 10.409445588972526 1 1 1
248 1 10.809030399369592 2.402619001875842 13.462431667745472 -1 2 0
723 1 9.431953137109318 4.755425644595505 12.511557051785333 -1 0 0
375 1 13.561186589513591 21.078376734038308 10.55538090354489 0 0 0
741 1 13.300130605970322 3.976974891672582 13.016186644303378 0 0 0
549 1 15.65921866852188 3.680869322203696 12.095691101318808 1 0 0
606 1 14.950332548138306 20.75309993344949 13.089608377212382 0 0 0
325 1 16.358682093149117 2.367874045722323 10.082273107003065 0 1 0
567 1 17.199002875549006 1.7978950707234214 12.679553979182609 0 0 0
214 1 19.642506880245918 1.7408058849460888 9.833504162823592 1 1 0
473 1 18.070479518697514 0.42186330040132436 10.900917170617728 -1 1 0
687 1 18.13966089366471 20.878119738841576 13.95724537038891 0 0 0
1397 1 19.487961212103343 1.5864011266166325 12.28795623517774 0 0 0
1071 1 2.564249773231198 4.108833054812533 11.039754711407097 0 2 0
308 1 1.202191543550066 7.154632158907029 11.140760151890328 0 0 0
2058 1 4.657493334577894 3.123401326473181 11.612568754433815 2 2 1
316 1 3.568376092846388 6.4156720782173275 11.273093248227282 0 0 0
587 1 0.25426819136798 4.7046020420205865 10.612606839734372 0 0 0
592 1 1.3663213498160252 5.353696817477634 12.670475901313047 1 0 0
377 1 4.080943043570204 4.435813869460369 9.318367748617451 1 0 0
621 1 5.721633551964442 5.589977823870427 11.309515821447961 1 0 0
590 1 5.369743392007015 6.984174142991845 14.219594373476495 1 0 0
841 1 8.395131332519153 6.335296495789108 10.673974523283812 0 1 0
1606 1 8.390055177593688 8.466597013109508 10.881516404168096 2 1 1
619 1 7.873968187431164 6.954330860031374 12.752178509343153 1 0 0
314 1 10.310121973170805 7.46248347519135 12.247331010414872 0 -1 0
407 1 12.0210504469009 4.697115219018092 11.109747493055279 1 1 0
109 1 12.715337404689345 7.096126057848146 10.93821362831319 1 1 0
527 1 10.072096954218226 6.661700203669027 14.44289544561656 1 0 0
273 1 11.719688921215722 5.605381001745647 13.3385832314553 0 0 0
531 1 11.707726744741992 8.301688732799917 13.98874655960069 -1 0 0
1586 1 13.671161702185369 8.613687732918613 12.317833838147141 0 -1 1
477 1 14.376263298928535 5.1754248569999355 10.997613916121539 0 0 0
313 1 15.282135133443816 7.1653219828638255 11.147747588898484 -1 0 0
1442 1 14.125429602281832 6.234455940683718 13.136761161430709 1 -1 0
589 1 20.859415681242794 3.309111381413755 13.513097506347684 0 0 0
1382 1 16.344003323454988 6.080213312935808 13.72409606369357 0 0 1
1103 1 19.654897426131708 4.933620186133421 12.619730431971483 1 0 1
794 1 18.381969035273062 3.656091853551584 11.366187607536508 -1 0 0
276 1 17.790898949710538 6.159608768232172 11.596917106205213 -1 1 0
225 1 2.119458240148551 9.216320766439843 12.688293492841126 1 1 0
165 1 1.4371112094252707 9.080276899574887 15.374277986353741 1 -1 0
115 1 2.8857068956831537 11.330533766350545 11.279314488936814 1 0 0
36 1 20.09025761788016 9.854250187205341 12.545280914952512 -1 0 0
222 1 5.148751049900909 7.9116561474074825 12.039238998815108 0 0 0
1441 1 6.506181959354197 9.849503182302906 13.33824798425535 -2 -1 0
148 1 5.301755324338629 10.17966851120321 11.157728354418722 -1 0 0
339 1 7.855946133169784 10.648423942337205 11.367720724332946 0 0 0
529 1 6.4714080497578195 12.025499467945721 12.884185852801636 0 1 0
202 1 5.534215602398999 11.16208577774846 14.880670102156056 0 0 0
797 1 8.66499552515606 11.500962795528348 13.979649684610875 -1 0 0
617 1 9.542683171505097 9.760943614728525 9.409374781114458 1 0 0
655 1 11.064874465619464 9.22758661039935 11.359746498840654 0 0 0
1855 1 9.193468848016188 8.794298059088907 13.51979040066347 0 1 1
1039 1 10.345966870202735 11.480326912447165 11.808716971534452 -1 0 0
2111 1 10.826605311600371 13.72953077558599 10.624850849205156 0 -1 1
194 1 8.521853134837936 13.384302351544756 11.896960728503904 0 -1 0
627 1 10.10030521440795 13.575786307185574 13.76862130274041 -1 0 0
546 1 11.478571630806107 11.079984368719689 9.378268735455375 0 0 0
1593 1 15.203960475490684 10.57562059959305 11.740321238528548 -1 1 0
65 1 16.284048850511972 8.040409649681113 12.706890871678834 0 0 0
1619 1 14.389614218126786 7.89473342448874 14.647632303511202 -1 0 1
63 1 15.481748278799829 10.054927061416574 13.898699647641669 0 0 0
451 1 12.579515646845365 10.772297860906084 12.308803201831255 0 -1 0
338 1 0.5782983797173951 11.106392524088163 13.970195619971634 1 0 0
215 1 19.905287436755113 11.79286466738049 10.936408599717824 0 0 0
786 1 17.8298216740009 9.058735197557029 11.312409083925866 0 -1 0
1119 1 17.399491185950694 11.587162914309472 11.503378385492047 1 0 0
1081 1 19.32042652594755 7.310043520073458 13.759435151491795 -2 0 0
685 1 18.094978719284473 10.03844448380177 13.474699352388674 1 0 0
1900 1 2.0154163196861434 13.819969050447998 10.339167567530463 0 0 1
2077 1 1.287389766577532 15.262394276147724 12.668533537341217 0 0 1
1695 1 2.6492094939824575 13.110945116733879 13.439152034049554 0 -1 0
430 1 0.9126179306843005 12.412014203841204 11.802415159546996 2 0 0
915 1 4.150859145730243 11.095384722907454 12.90019353611276 -1 -1 0
293 1 3.4296978686760706 15.513126666212095 11.850567934041841 0 -1 0
1172 1 6.3676984662988145 15.195903075846932 12.231112180580336 1 0 0
404 1 4.95348558183146 13.380162829845055 11.390622472844312 0 0 0
397 1 5.19318029891869 13.861878003286284 14.505307542453822 -1 1 0
330 1 10.546090874317983 15.809734640521693 11.756653206878186 0 -1 0
1767 1 7.521984805011723 13.75351760196105 13.961354547213066 1 0 1
213 1 8.506669250827867 15.784486090025805 12.82817378525326 1 0 0
449 1 7.940359886040349 16.996964561524866 10.072416385279425 0 -1 0
154 1 6.512904221087472 16.024500490021758 14.450551180624444 0 0 0
190 1 11.72623420512578 14.738139758583262 14.406890020505696 1 -1 0
435 1 11.889343862959292 17.937405582393165 10.869473122358457 0 0 0
622 1 12.194323533872787 13.223681345155208 12.219495952405417 0 0 0
296 1 14.290897139290587 16.532385793567418 9.918213822251237 0 -1 0
1339 1 16.302696172125884 15.710268092482655 9.624634208508908 0 1 1
1137 1 15.62729463565807 12.980298625324982 12.198148277979188 -1 0 0
703 1 12.371560275985708 16.919582655446654 13.236294914811406 0 0 0
785 1 14.073730515778308 14.751772001430316 13.248909307133042 0 -1 0
1893 1 20.64632283951391 14.256573115502812 11.074308891148888 2 1 1
611 1 17.976096491152017 14.296162166967294 12.056495526994905 0 -1 0
361 1 16.187231375402575 14.373710030651727 14.018914203336788 -1 0 0
423 1 20.00001593897673 12.93234678226864 13.110560629939743 -1 0 0
826 1 19.731805405027387 15.653041627558311 12.886662885125952 0 0 0
738 1 20.784929009572515 18.486659307516046 9.053880832866364 0 0 0
2098 1 1.8612101812277566 18.908787734341217 9.91408999668313 1 -1 1
900 1 1.0453104740496622 19.935693211434472 12.358863306481428 0 0 0
697 1 2.666291603372108 18.02932222026636 11.936393432947101 0 0 0
657 1 3.790732316061448 20.043043673801108 12.024491001347162 0 0 0
534 1 6.516544552032295 20.225591634525504 10.89290903980546 0 0 0
152 1 4.652384422305319 18.355891264196867 14.273169794192757 1 -1 0
586 1 5.0471316831027435 17.51134732624396 12.300710866144202 0 -1 0
1556 1 7.1052456721362915 17.86117980154371 12.00662881070755 1 -1 0
513 1 5.940062892586236 19.9310494955361 13.106953400851271 1 0 0
1817 1 10.57289411686982 0.6324710800698775 9.859509397428509 0 -1 0
674 1 8.311831996371154 20.015510706487728 12.87157232149544 0 0 0
1148 1 9.324964846767408 17.704872271632173 11.992117123272925 1 -1 0
446 1 9.972852934713961 16.757221288186688 13.966127847614494 0 -1 0
519 1 10.441140973655484 19.10369937397264 14.301664664934172 0 -1 0
744 1 10.783622691414534 19.638706267744826 11.845852818554965 1 -1 0
169 1 14.219262247719286 17.34949765111264 12.076821864155232 -1 0 0
770 1 13.003379849022375 19.30829832202644 13.699693637159681 -1 -1 0
367 1 14.823748301028516 19.242019470037075 10.99048730005033 0 0 0
810 1 16.23044245443074 18.604933231897547 13.74850948370592 0 0 0
209 1 18.59055999936448 16.520939595993113 10.908555998801383 0 0 0
205 1 20.983772347126006 17.937982760836945 11.697144179943516 0 1 0
132 1 19.71576655202131 20.327601646308906 12.415174800370187 -1 0 0
208 1 18.830977047196697 19.07656435764091 10.3712405559844 0 0 0
1187 1 16.910550013628317 20.04776492050909 11.927161338185021 -1 -1 1
303 1 16.550498022775194 17.817638834134062 11.583338252160273 0 -1 0
230 1 18.623493415225216 18.141312443194924 12.902298956301356 0 1 0
374 1 2.1545718663456555 3.4695871363847415 17.018811852885506 0 0 0
568 1 2.1166235016021617 1.5509183582457713 15.55845196857826 0 1 0
509 1 3.812691159509534 4.8671411028672384 12.90337991971974 0 1 0
479 1 21.0189987771186 0.40996674204508365 16.326059621385877 0 0 0
327 1 3.578348213673976 1.3181673782570436 17.57342461933691 1 0 0
168 1 6.811189704832895 3.4041910788247027 16.310266779347877 1 -1 0
1978 1 6.920569811918849 3.6183786053002995 3.2212067577483814 -1 -1 2
1112 1 12.616737842095972 16.53144050438601 15.612315994201781 -1 -1 0
1923 1 4.296327519844222 2.654546309496676 14.975217283990933 0 1 2
850 1 5.745714843973924 4.331971105087794 14.091746358042332 0 1 0
572 1 6.55033401716949 2.3005640142547747 14.198754137509479 0 0 0
2141 1 10.878689601184709 2.3402928526313134 16.68296481593776 0 1 1
161 1 8.498098567404442 2.172955373356397 15.721817761065456 0 0 0
956 1 10.061395895944457 0.40002528105039636 14.67774247048415 1 0 0
1312 1 11.783132685988202 21.128241377426303 16.367973868177405 -1 -1 0
862 1 10.351979861488974 4.201413346715201 14.66260507233826 0 1 0
720 1 7.273040991774984 18.412596077313083 4.482375801363226 0 1 0
516 1 12.399023362616513 1.201963408653636 14.40319601650507 0 0 0
594 1 14.683304906720014 2.184809719990415 14.622730057604395 0 0 0
684 1 12.551728057317355 3.3730398813542397 15.309043314763967 0 1 0
751 1 13.995479895612714 1.6546132547268 16.6110090836745 -1 0 0
471 1 8.811205474528359 19.70772195639348 15.86230283446176 0 -1 0
512 1 14.872884277616066 4.281491374340068 17.509486465523892 -1 1 0
861 1 16.873323248517377 1.2061359674071848 14.977932144458261 1 1 0
1250 1 20.886959701278855 19.66186251790482 14.648729076321219 0 -1 0
454 1 0.10900173196821868 2.643522064659929 15.902886676088652 2 0 0
1714 1 19.097077728586864 4.003328998123143 16.212897316704456 0 -1 1
2002 1 19.320798141094365 2.2390076722252354 14.744234587188634 -1 -1 1
455 1 16.453922968470344 3.3538185569175742 15.873969442123212 0 0 0
1682 1 18.25758893099547 1.9785045353925663 17.11287821985826 -1 1 1