LAMMPS data file via write_data, version 29 Oct 2020, timestep = 2000

2744 atoms
1 atom types

-0.14010815595799997 24.948108155958195 xlo xhi
-0.14010815595799997 24.948108155958195 ylo yhi
3.33235397478467 56.197198670943045 zlo zhi

Masses

1 58.933

Atoms # atomic

1977 1 13.663636277966955 13.70079396007977 4.639688070521747 0 -1 1
198 1 2.031799728237654 3.015347608225003 5.787620838910201 0 0 0
1964 1 18.479043033822858 24.520796337694577 3.4023874452755494 -1 -1 0
31 1 0.27169001626033684 3.4205754806386706 4.038660175127713 0 0 0
365 1 0.30229309084425227 24.068836867687118 6.315964932945462 0 0 0
98 1 12.701885608821568 14.443371470911277 29.496119150277547 0 0 -1
37 1 5.6436204315921215 4.0916883201468055 6.201316724593738 0 0 0
7 1 3.5490719819107253 24.674193889595944 4.187492366290722 0 -1 0
35 1 4.0217411873886615 1.8656166297053152 5.35296748075112 0 0 0
180 1 5.680194587612858 -0.12625142928286692 5.718423527241637 0 1 0
2102 1 5.562133650135265 22.847486951829058 3.6308926458001967 0 -1 0
53 1 20.31361092884385 4.407577410242267 28.614673251372768 0 0 -1
10 1 9.033653179978263 2.8625426184251346 5.111673652579854 0 0 0
1750 1 12.392161282096563 1.6633996551847765 4.9087860444993225 0 1 0
16 1 10.695411337313356 1.5677102732048893 6.292221469874093 0 0 0
39 1 7.824373028508271 4.858197084606477 6.236335199822843 0 0 0
43 1 12.59230712728474 3.6345305836399797 6.38944189262298 0 0 0
1609 1 16.328742401999094 4.84496744036198 4.510576338996538 0 0 0
45 1 14.514018224658859 3.625199818762272 4.693698554590242 0 0 0
20 1 14.19287257362241 1.476535880082144 6.313730149821806 0 0 0
19 1 16.22408270340201 1.8366445125831279 4.877694460517464 0 0 0
47 1 16.017313993793415 3.296316406870217 6.733639904306635 0 0 0
1376 1 14.364229084523641 0.27523909231392285 3.630196167589869 0 0 0
2587 1 20.185278168307224 8.485666171008571 3.8853598905054647 0 0 1
22 1 19.048716810914296 5.359691188012468 5.194678207173746 0 0 0
24 1 17.660125210047205 1.8454753754473756 7.143701712570391 0 0 0
23 1 20.074105100279816 24.529590476520955 6.807092927302565 0 -1 0
246 1 19.456665651940423 3.652859028681128 6.951479671381417 0 0 0
2155 1 18.493678856610703 2.848262677611848 5.197572252728154 0 1 0
222 1 24.790389537031583 1.4588251123512719 5.438743160843444 0 0 0
51 1 20.663591752693677 3.886632187454257 4.772585795319771 0 0 0
55 1 24.498255368110875 3.808384145564221 6.129955236179757 0 0 0
1845 1 5.5405719734074 1.4364664418383628 29.754450479075548 1 0 0
30 1 24.73431391336524 2.137223422639542 29.08947514063259 -1 0 -1
61 1 3.336856060326453 6.842979556759671 3.736446242931741 0 0 0
36 1 3.700025333861265 5.378780425749443 5.712883878112745 0 0 0
59 1 2.4082931012945368 7.476975857983284 6.15301375672537 0 0 0
34 1 4.756825541238263 3.7102561433026002 4.273313757616516 0 0 0
38 1 7.468974140149049 3.9511224478330993 3.652597002063362 0 0 0
40 1 6.258208896377529 6.494870867362499 6.534499819655771 0 0 0
63 1 5.206289126933113 8.084951207211283 7.794779672535493 0 0 0
1719 1 7.606085396196151 6.605723941137287 3.9959097667172774 0 0 -1
41 1 10.98095605115655 3.1729156605121616 4.3430002804496715 0 0 0
69 1 9.666659816933945 5.460714515472794 4.066550276870606 0 0 0
44 1 10.543086456864364 5.161638121599777 6.424362196407058 0 0 0
67 1 8.766922428195743 6.854318259150941 6.801310864329697 0 0 0
71 1 12.656406656123446 6.2932883994298505 6.471743575025827 0 0 0
2430 1 11.95202587656355 7.485577024748665 4.546610619172993 1 0 0
42 1 12.239206592711115 5.058979583968163 4.280951089641242 0 0 0
1371 1 22.605332002194036 21.409027633912014 28.28194936859918 0 0 0
48 1 14.615640431840346 5.176597518332416 6.396596691291238 0 0 0
75 1 15.718641989429349 7.548731355218452 6.584186039239973 0 0 0
1215 1 8.551792127986356 4.52230247534037 29.755928105306406 0 0 0
2240 1 14.552496078000233 6.578992188638271 4.581465341153097 0 0 1
97 1 10.444912160246375 10.082466397186423 29.481358469826148 0 0 -1
50 1 17.19803742767001 7.3313574671923964 4.856693441205228 0 0 0
81 1 19.579340618481705 7.200244319549193 6.296248971381387 0 0 0
52 1 17.558927075868635 5.758343584890119 6.6711805550608645 0 0 0
79 1 20.946055921674706 5.6431393604079565 7.0190917103397155 0 0 0
2104 1 1.9244857604560015 7.724439163510042 28.08608253948023 0 0 0
2566 1 21.162951809267692 6.234926459967034 4.68945009191991 0 0 1
82 1 23.062037981351203 7.486763559826757 3.9598528369192594 0 0 0
4 1 1.2854017148596477 5.381900169447629 5.11626617833018 0 0 0
2461 1 22.214304552195525 10.24536910219812 4.6013086636848035 0 0 1
83 1 23.18573376241582 5.555887417798384 5.687987023601502 0 0 0
60 1 24.61033342323081 7.7441503157483975 5.62478968294084 -1 0 0
168 1 21.478063836064027 18.61240015553136 4.234284608175209 0 0 0
58 1 2.267826233095489 10.526018245005414 6.404522872047254 0 0 0
54 1 21.245672313410576 6.417729862227497 29.013497748414462 0 0 -1
64 1 4.273551248238188 9.651633790881018 5.534378223540127 0 0 0
87 1 2.984010273648688 11.274042973065594 4.088922513700055 0 0 0
281 1 0.9832909835605452 12.157557114845995 5.469753461822096 0 0 0
1368 1 18.48788962884229 22.00949553636235 27.27859113646541 0 0 0
1616 1 20.013103543911416 20.637971133984998 28.942416225605726 -1 -1 0
89 1 5.456369197761343 11.201139811293057 4.57446630985082 0 0 0
90 1 6.754262129934933 13.254849838898638 4.610196088445939 0 0 0
1811 1 2.314559102806878 3.6974680689976953 28.797287536773297 1 0 0
68 1 7.284621676694459 8.717692006334566 6.280311129589474 0 0 0
91 1 7.070046931345523 11.878898444164173 6.497631348783694 0 0 0
1498 1 5.064320807555672 7.794982121382254 4.992951652124098 0 1 0
66 1 9.07880230589607 8.753755826157017 4.867540346114719 0 0 0
72 1 10.825274206725332 8.552744229140009 6.476764381364092 0 0 0
95 1 8.979450837325977 10.081430099269378 6.633389628595542 0 0 0
99 1 12.365000983623867 10.149298747312475 6.16600147742388 0 0 0
100 1 10.147779178397546 12.308764528725021 6.317979890573499 0 0 0
1748 1 8.453841678874225 11.486651850644625 4.802244796539246 0 1 0
2051 1 10.888900672234158 10.626238532322452 4.365794775703613 -1 0 1
74 1 15.28610553882 8.800399127428436 4.507858756005827 0 0 0
76 1 13.594743692065677 8.441274647134009 6.166205497090984 0 0 0
104 1 14.429643417178113 12.304370240714688 6.629531931262665 0 0 0
103 1 15.385574158571167 10.136762315041167 6.4268271441496285 0 0 0
1424 1 12.195322012814279 12.309613643865442 5.156739627008846 0 0 0
1809 1 14.149489394993568 11.356159868199049 4.3191485861944505 0 -1 1
2413 1 13.036637458027995 9.279697419061074 3.993563737299959 0 0 1
1789 1 11.759789481685665 18.657644312165324 3.923836223215403 0 -1 0
80 1 17.63237095751414 9.378889461927859 5.929870830984388 0 0 0
107 1 19.645540687725422 10.534690187724417 5.910197885554779 0 0 0
1814 1 16.682924148829702 11.010343888814095 4.478720024359639 -1 0 1
1522 1 6.825922270943454 2.1360130738499055 5.494964150039247 0 1 0
109 1 21.536766129687702 8.147782720067097 6.244377557595916 0 0 0
110 1 23.669792554334638 12.291621555039717 5.633927251820639 0 0 0
84 1 23.160534918534328 7.166024703137636 7.867282817868896 0 0 0
112 1 21.35004269830595 11.983024691574121 6.478942044834411 0 0 0
1713 1 0.9935343028046104 9.35936563842794 4.916676119501158 0 0 1
1539 1 21.629292356963287 13.291029942764784 4.420579089332268 0 0 0
1339 1 18.76245820409633 16.97559941433783 28.734972327372645 0 0 0
86 1 0.46177329263716393 11.462926728183312 29.668179934453665 0 0 -1
17 1 12.223820770447992 24.719144692855213 27.899325867833053 0 -1 -1
141 1 22.85348640099676 16.041039755057113 4.774551289831114 -1 0 0
115 1 2.0543437311629127 13.798109664043277 6.503939681518759 0 0 0
309 1 0.1777209724656254 13.85192513987678 8.001367456549996 0 0 0
143 1 1.9093257325126447 15.862201176321115 5.764490117375554 0 0 0
88 1 2.3473250120771563 13.468642920337276 4.273635369243791 0 0 0
119 1 5.780956063139881 14.13852146599373 6.297006224996824 0 0 0
96 1 8.402786592918634 13.673940055749176 5.9600954580776815 0 0 0
120 1 3.920373987185239 15.43591535054036 6.238081907593148 0 0 0
124 1 7.7014056819458325 16.01058622286645 6.039079570233353 0 0 0
1866 1 8.295611308783323 15.359149700258012 4.093783642979444 1 0 0
1573 1 4.438167309209372 14.071613712135896 4.187543928368706 0 0 1
125 1 8.80183687832926 15.549735876080309 29.49709704901265 0 0 -1
123 1 10.145545032627325 15.780710781067695 6.7608089147858195 0 0 0
127 1 12.141989210865194 14.754736326240163 6.4681285241358015 0 0 0
128 1 11.9260184325247 17.32609941174065 6.147770165374135 0 0 0
1227 1 17.723051330676334 3.911930679501424 29.000004450093794 0 0 0
2385 1 22.927929262682884 2.675674217535769 4.741775288988117 -1 0 1
1364 1 14.336143467212397 23.014333923855514 28.07718175640384 0 0 0
2658 1 10.700310454015975 14.235084049094699 4.882837380886022 0 0 1
131 1 15.652162571463608 13.987440615766575 5.946999299789689 0 0 0
132 1 14.021638390142577 15.658488494396034 6.433414955738138 0 0 0
2020 1 0.0052101595699892145 0.016452330746052013 28.640647035504422 0 0 1
1731 1 15.121229451243929 16.02533639547017 4.32427246253579 0 0 -1
106 1 18.46221201637313 12.711447874890544 4.768525642276053 0 0 0
134 1 21.34709877219926 16.12091657726681 6.520824909733562 0 0 0
108 1 17.295123952468316 11.93987302860471 6.538052174369181 0 0 0
135 1 19.579414355461545 13.533709150073255 6.685627147837312 0 0 0
136 1 17.264697970104468 16.298997236911628 6.215295821511738 0 0 0
2008 1 17.631087603363294 15.297771786639519 4.345630471011831 0 -1 1
138 1 23.2019435288287 14.225052845438531 6.47747553765795 0 0 0
1675 1 16.247689532042756 24.313641064112794 4.699617509279081 0 -1 0
139 1 -0.05571795650046241 14.562874862251766 4.51533835428617 1 0 0
116 1 24.608100647820866 16.189340222589443 6.62051476194703 -1 0 0
167 1 1.860985689435795 18.670044689419765 4.29006231859862 1 0 0
338 1 1.1331861211443643 17.851523464000106 6.54349722132001 0 0 0
148 1 3.4149061827748866 17.90993381921129 5.752142475290636 0 0 0
195 1 -0.01292300841527802 19.996484323101452 3.920748742024454 1 0 0
1348 1 2.8978288827362166 22.902698234125854 26.588347713138578 0 0 0
2285 1 2.5035394257884316 20.991696748201647 5.39115884243788 0 1 1
49 1 15.413546100147279 3.588559626354595 29.208932314637597 0 0 -1
1258 1 23.563131810670008 12.13568220739126 28.30168652285725 0 0 0
174 1 6.649602678377044 19.085889947978778 5.505395683061248 0 0 0
147 1 5.631989523993498 17.17573908909043 6.401688405508369 0 0 0
2330 1 2.7724454767652698 24.390821154385694 28.543132652521262 0 0 0
151 1 10.30607523674553 16.722371293749845 4.13507072537435 0 0 0
152 1 8.991223124968672 18.02658198550444 5.803617823614818 0 0 0
156 1 10.969103248868256 19.507966068516108 6.283080276781639 0 0 0
2203 1 9.64750217631415 19.9462127074246 4.539731908510714 1 -1 1
145 1 6.499355006982304 15.877546709422656 28.078018398281596 0 0 -1
2282 1 8.010590042257643 17.960083444622622 3.785677282138142 -1 0 0
157 1 13.945056465884964 20.5245320356113 3.93628004793268 0 0 0
130 1 15.919614579937711 19.483002413913383 4.725117560505441 0 0 0
155 1 13.850995077533307 17.81967151576439 3.6204588158916273 0 0 0
159 1 15.127373809376648 17.70653568816392 5.885485770526325 0 0 0
160 1 13.32843815306033 19.104721378758175 5.591248127060309 0 0 0
164 1 17.952190502667015 18.555817257262873 6.198036348899965 0 0 0
94 1 9.692412935848013 12.411093329731704 29.053284232910922 0 0 -1
193 1 18.28795770138006 20.076198179703507 4.321403835415486 0 0 0
2356 1 15.435415815868671 22.188174275118563 5.170230748617065 -1 -1 1
163 1 18.997157596363643 16.942780912065505 5.039578658615001 0 0 0
165 1 22.87539549836699 17.96930066753289 6.12196066527334 0 0 0
337 1 24.775516571304603 17.574641932345706 8.60404203223193 -1 0 0
361 1 20.233592268738864 18.54639355269421 6.380151034786818 0 0 0
1363 1 16.21923432779722 21.900880974257685 28.37137811033138 0 0 0
389 1 22.14797982033826 20.44041673055389 5.692957929964966 0 0 0
3 1 3.3884473935873207 23.2318976899692 5.956098743234365 0 -1 0
176 1 4.278797687428686 19.922783750406797 4.62203295883051 0 0 0
2491 1 23.098292468101402 18.01032287453388 28.670978078438836 0 0 1
2295 1 7.392208653576633 0.3524951401081287 3.711868453399476 1 1 1
1272 1 6.493007684961895 13.146138594553642 28.13757742186127 0 0 0
1520 1 1.4403509478199241 21.398746114848183 28.216302460553315 0 0 0
177 1 7.5180983286152925 23.31854762324596 5.104778083051306 0 0 0
370 1 3.883701580280266 0.24163590893770726 7.319888443810283 0 1 0
205 1 5.126068301631158 23.41119088318154 7.600505760789324 0 -1 0
2131 1 5.488334639189082 22.071106470042245 5.883042039059723 -1 0 0
11 1 9.111233658283865 0.0768047165787597 5.786128271079512 0 0 0
179 1 7.800255690280535 21.08270246990554 5.58996029194576 0 0 0
183 1 10.4406061714739 22.565491745422026 5.854751061587258 0 0 0
184 1 11.80412630059884 24.675050073458785 5.8790266615874796 0 0 0
2040 1 24.20867610416733 9.287485724216067 3.445281086231613 -1 0 1
1538 1 11.49512520809277 21.119551746212537 4.252654103466778 0 0 0
187 1 14.79192918441486 20.29622323207427 6.760039300127632 0 0 0
15 1 14.091001210668297 23.790664403404286 5.937706184366079 0 -1 0
188 1 16.195261527548517 0.4177313302379466 6.661309057303676 0 1 0
2119 1 13.111275132625677 21.824639861973896 6.105358204563652 0 -1 0
2447 1 12.802111785288698 23.320274989761092 3.8810688015584542 0 0 1
2655 1 3.902959842153784 22.29520145935175 29.0408769514408 0 0 1
1335 1 15.665940628083197 17.876408511448258 28.497352155532692 0 0 0
21 1 18.41387592604149 0.3565978350786724 5.523362893799765 0 0 0
191 1 17.414054258718277 23.06714269493039 6.480915485704443 0 0 0
192 1 19.252284128106695 22.904496887601184 8.148335072046496 0 0 0
386 1 19.624368035377977 21.118665477342425 6.340695213632918 0 0 0
1523 1 19.78639036321346 22.686446527024735 4.960092001224969 -1 -1 0
1315 1 22.15985238684448 13.933425578606524 29.14776536944613 0 0 0
1351 1 7.127075159896996 21.13726328123942 29.651682925549633 0 0 0
190 1 20.453963557928184 20.782968560158945 3.7068144724129235 0 0 0
221 1 22.613209108529272 -0.11824759206962607 5.753112560946187 0 0 0
2310 1 20.49209314434178 1.7301095292296327 5.759199922188369 -1 0 1
196 1 22.286745150614145 23.20432200295448 4.003045822715863 0 0 0
172 1 24.385861081685373 21.686452195366602 5.67620356823495 -1 0 0
1984 1 0.8319241768791782 22.63844268411272 4.562979627265055 1 -1 0
2167 1 24.579213620829947 24.5530039738602 4.280962402245729 -1 -1 1
5 1 1.8962406460534291 0.122260698643603 5.5507503784119425 0 0 0
201 1 1.4197046548669732 1.5495072806143688 8.084884753035459 0 0 0
229 1 3.881108411897231 2.8610002633960416 7.380338636778838 0 0 0
204 1 3.6138768923510156 1.684461501665812 9.985036891985128 0 0 0
227 1 1.4487324101857428 2.8457301077175696 9.77193668238712 0 0 0
202 1 5.876656244002136 1.6029336441502966 7.578534000944665 0 0 0
233 1 6.809333424579711 3.7175722763834127 8.085792770982229 0 0 0
208 1 7.081874850369214 1.6652902319415317 9.642807045443037 0 0 0
231 1 5.219451026338338 3.428325158907655 9.760995241239284 0 0 0
206 1 8.574905084522829 2.3708520776548245 7.555502535723671 0 0 0
237 1 10.727768780757438 3.1466145861787593 8.352968828155594 0 0 0
212 1 9.907961298446022 1.5437143772461002 9.677636920489729 0 0 0
235 1 8.49271901001542 3.3544769689588856 9.920282867525776 0 0 0
239 1 12.575686234329488 3.1438728677027377 9.756414008819165 0 0 0
210 1 12.536481349175265 1.331155393445724 7.834604478377495 0 0 0
214 1 15.966519202859235 1.722422413691631 8.763907628645061 0 0 0
241 1 14.12830676627743 3.4100310963320704 8.200006018130942 0 0 0
213 1 14.306940147130287 24.643941156669896 8.358873520193958 0 -1 0
216 1 14.07680606229792 1.5336149489320856 9.78386658408115 0 0 0
243 1 15.681678444682888 3.52149318397825 10.056444313287864 0 0 0
218 1 19.881502243804896 1.8226961448103849 8.650943256286485 0 0 0
245 1 17.67472878879059 3.6301820456540717 8.532285893125152 0 0 0
220 1 18.063190038458625 1.9813401764874228 10.473213724516452 0 0 0
414 1 20.494720350880247 1.4239475812080455 11.482636197888912 0 0 0
441 1 17.84208358310731 3.578614980362814 11.882976248546319 0 0 0
28 1 22.281875638501415 2.4851516933541413 7.071138649264375 0 0 0
225 1 24.598510879792222 1.472855268973291 9.990980832932102 -1 0 0
250 1 24.581213992441846 2.9488586487157646 8.15807099417192 0 0 0
27 1 21.481524434942 0.05084336113987778 8.017390277743077 0 0 0
199 1 1.3802545365034886 0.19407451255582137 9.980006919260887 0 0 0
224 1 22.09500440970069 1.6829411787019164 9.360852734751246 0 0 0
32 1 0.2181895614117444 6.1333705310793984 7.211128666727559 0 0 0
226 1 2.3292124074107092 4.581136796585948 7.458524961850406 0 0 0
257 1 3.2788295846593463 6.941679758677597 8.196591334282491 0 0 0
228 1 0.42593249704169966 4.799242672284583 9.115126590129837 0 0 0
232 1 3.2872919786327452 4.683248945696373 9.740271247815864 0 0 0
255 1 1.5051759115633123 7.118888832665668 9.58770786833085 0 0 0
230 1 4.692167311587477 5.106306541930945 8.025336449708576 0 0 0
261 1 7.312744659594904 6.6705034681460935 8.480065162227579 0 0 0
236 1 7.0228915169184996 5.005553782511892 10.115018190939088 0 0 0
259 1 5.375543753132287 7.020991741682861 9.710418774998763 0 0 0
234 1 9.115147096425376 4.816211770435932 8.145284615068086 0 0 0
238 1 12.086675253886815 5.208882271980627 8.42897731130287 0 0 0
265 1 10.563751325261151 6.8810744679773155 8.288446608417159 0 0 0
240 1 10.406162678416614 4.7412608374333844 10.214427137698781 0 0 0
263 1 8.885185898744144 6.839516934000764 10.266524103979688 0 0 0
242 1 15.96298447370847 5.3019281301765275 8.563949255865452 0 0 0
269 1 14.00882352889731 6.746615349814603 8.313268508989069 0 0 0
244 1 14.159689273630397 5.1538340076977 10.143435252198007 0 0 0
438 1 15.629702120968117 5.266016231553271 12.085950293308445 0 0 0
267 1 12.186083251539078 6.8473267790410794 10.071956784401916 0 0 0
271 1 15.75667669334832 6.92180352094303 10.417855060278988 0 0 0
273 1 17.538293679617066 7.7023074718218965 8.187644004794167 0 0 0
277 1 19.172425934539167 5.7373728213012605 8.507628464368562 0 0 0
248 1 17.86209358587733 6.035332857371889 10.226557405595265 0 0 0
247 1 19.603958795253302 3.9313096443383753 10.099391089421404 0 0 0
275 1 19.52965300733419 7.997759527827299 9.927735731887886 0 0 0
249 1 21.323233719805042 3.8271733541932735 8.771994565302048 0 0 0
278 1 23.18766881781431 4.925875940522763 7.7142260337222766 0 0 0
252 1 21.236605507843695 6.162300076624815 9.665304994487528 0 0 0
251 1 23.291392482592837 3.982198770424123 10.002123369282334 0 0 0
279 1 23.82296231770568 6.720000528023617 10.044660538504711 0 0 0
254 1 1.3554025405831895 8.697759391483345 7.536177021511336 0 0 0
450 1 1.9239695289897858 8.825176985272952 11.242067498526486 0 0 0
260 1 3.6494712397954996 8.687668480971716 9.960693009299197 0 0 0
256 1 0.2869871690109384 10.882358606484585 7.792238278192948 0 0 0
283 1 1.881220725565373 10.494422205243206 9.619043401240315 0 0 0
258 1 3.9435117626625154 10.143761221457353 7.813174440480242 0 0 0
285 1 4.086154042761841 12.563933958081854 5.836140994888989 0 0 0
289 1 6.862813785242618 10.032594650419663 7.880039151957963 0 0 0
264 1 7.003097953644466 8.745650318047394 10.001489417366857 0 0 0
287 1 5.591694483183848 10.438223876885544 9.754882106450502 0 0 0
262 1 9.266513176855257 8.764465922478928 8.758069905262538 0 0 0
266 1 12.488255933218637 8.608865580590946 8.292736842919659 0 0 0
290 1 8.806694827137822 12.102347111126035 7.937002547189373 0 0 0
293 1 11.197623398387698 10.85744898472682 8.198018330204683 0 0 0
294 1 12.65593027416148 12.999712473161656 7.874202099971751 0 0 0
268 1 10.922723203593389 8.854414138634752 10.113122336280306 0 0 0
291 1 8.87683791773397 10.7710597489902 10.017481827506586 0 0 0
295 1 12.538113268787498 10.410417706760892 10.10957358433334 0 0 0
270 1 15.515289629905658 8.58049424888814 8.439679416081901 0 0 0
297 1 13.898106873984249 10.457093667848193 7.967653944604295 0 0 0
272 1 13.967515666921674 8.662629366549824 10.33688435065072 0 0 0
300 1 13.921877871019149 12.184559975635064 10.018782979855063 0 0 0
299 1 15.6179622056157 10.60857431883676 10.259177124254895 0 0 0
274 1 19.623013703356982 9.09419703539575 7.688894431165101 0 0 0
301 1 17.343606815080886 10.331840382714404 8.402858828528439 0 0 0
276 1 17.543656972927547 8.919561588077071 10.029652896896355 0 0 0
304 1 17.816629817739265 12.1157858536892 10.219276728170588 0 0 0
303 1 19.4953118136711 10.578703681774055 10.371970983988465 0 0 0
253 1 24.35563107433124 8.70775042229792 8.648566333519131 -1 0 0
305 1 21.039109588763562 10.741880752007143 8.267905234053261 0 0 0
111 1 23.011106555789922 10.177048087058058 6.8500554467542205 0 0 0
280 1 21.926633524078422 8.523118750478124 9.32037854648556 0 0 0
308 1 21.084946209812692 12.43039820512722 9.93408494672703 0 0 0
307 1 23.10069202518872 10.528400368809658 9.52431372030615 0 0 0
282 1 2.2418448024061437 12.319883655832134 7.935338617796915 0 0 0
313 1 3.6461187008571083 14.055947785354544 8.10171722998118 0 0 0
310 1 1.6758193721829693 15.606783618373269 8.083527630472584 0 0 0
311 1 1.9822236582439352 13.774340083037671 9.712120832321201 0 0 0
288 1 3.7757469574391456 12.13121858657409 9.749872640758685 0 0 0
316 1 3.307058177213766 15.949938296195807 9.842201219777703 0 0 0
286 1 5.332769497020464 12.279424008884462 7.845519310941868 0 0 0
317 1 7.442226854115653 14.321963526997472 7.945603199941865 0 0 0
314 1 5.649564442248256 15.644879170702946 8.004581703850004 0 0 0
315 1 5.391853906633683 13.984927423355321 9.766783637944206 0 0 0
292 1 6.969076805779539 12.184317169347533 9.589592903862961 0 0 0
320 1 6.888013065138079 15.773564107401663 10.183599290096023 0 0 0
321 1 10.613718465206214 14.194984088077284 8.41535452558599 0 0 0
318 1 8.484194861877167 16.222982504078765 8.476445976629854 0 0 0
322 1 12.047810385497272 15.998173293740837 8.068682925176272 0 0 0
319 1 8.70957114724917 13.923904853079668 9.790911235843744 0 0 0
296 1 10.704241281450445 12.262972348659503 9.734157820856206 0 0 0
323 1 12.28903839027857 14.270115855353465 9.906482690841724 0 0 0
324 1 10.17097299031534 16.070175571370946 9.84917970707817 0 0 0
325 1 14.222947738233431 14.415061409113449 8.37194200354624 0 0 0
298 1 15.870185217118618 12.310037710418786 8.673480659503266 0 0 0
326 1 15.48193988293481 16.653336309797993 8.077625722975945 0 0 0
327 1 16.016975589710913 14.078005326136655 10.254072132481381 0 0 0
328 1 13.898056190457375 15.958405330533438 9.857012352747908 0 0 0
329 1 16.768869406411174 14.287644245118873 7.8697556337073395 0 0 0
302 1 18.67471450624288 12.193417601190205 8.301339340316574 0 0 0
330 1 19.359599657417593 16.07686835852526 7.698053956490643 0 0 0
331 1 19.439313137945177 14.146024560678473 9.457094993963398 0 0 0
332 1 17.521081229964143 15.958682228114515 9.69939301356722 0 0 0
333 1 21.488061107742773 14.430484264110937 7.80711204891413 0 0 0
306 1 23.364090855803564 12.402526638193175 8.234280774211587 0 0 0
140 1 21.444961213534405 18.028670008686376 8.245445256055614 0 0 0
334 1 23.081734032892577 16.218725809681406 8.3769296763233 0 0 0
284 1 0.2012684750133023 12.393585039181076 9.851652751577877 0 0 0
335 1 23.066842198492374 14.211445965812446 9.670200559258147 0 0 0
312 1 0.10844658820792918 15.429068131707776 9.825324683786297 0 0 0
336 1 20.97989473654965 16.053827858675533 9.773689986663545 0 0 0
341 1 3.907679083388982 17.310931512127244 8.080537886514893 0 0 0
369 1 2.390040416423701 19.431647430743894 7.803456412590621 0 0 0
339 1 1.819922558858264 17.954366919498387 9.492727570013269 0 0 0
344 1 3.9492311310896815 19.924300073407963 9.731347760773762 0 0 0
340 1 0.005433724995012795 19.61228948790874 10.184498535831102 0 0 0
561 1 -0.0011433988984947963 21.4764211945493 11.69451345341212 0 0 0
345 1 7.520513667127062 18.327853783091104 7.758874948809484 0 0 0
342 1 4.909684581081701 19.269243841531495 7.470233942095049 0 0 0
373 1 6.700022596326552 21.09741543534425 7.727843293356867 0 0 0
343 1 5.565961494212363 17.872627703606764 9.546421223138914 0 0 0
348 1 6.96697682982727 19.83562799242646 9.876641253652057 0 0 0
349 1 10.52219785849076 17.89129491987897 8.093888886303287 0 0 0
346 1 8.97599272564033 20.11920914455516 8.001805142151177 0 0 0
347 1 8.416321678054226 18.13180420286486 9.775277606544151 0 0 0
351 1 12.082851524854467 17.595632071342045 9.923848233574052 0 0 0
352 1 10.550272566763343 19.60912010782625 10.03777982786886 0 0 0
353 1 13.494615932703091 17.652648850946708 8.036434710609372 0 0 0
350 1 12.62056676420826 19.713437693617525 8.055374658417385 0 0 0
354 1 16.056792746776186 19.11901295179147 8.132824789930314 0 0 0
355 1 15.966978822295669 17.917703018710544 10.167964465739896 0 0 0
356 1 14.012041679215606 19.357566953271792 9.91964186682321 0 0 0
357 1 17.911940362034642 17.827865031679725 8.353807917165408 0 0 0
358 1 19.28332484725309 19.71664072787263 8.551658155276321 0 0 0
359 1 19.499194946146222 17.67894719918651 10.22477424001518 0 0 0
360 1 17.65116883473142 19.75652339149256 9.905071072619847 0 0 0
144 1 0.33617572288312003 19.75040119019993 7.5156080832335315 0 0 0
362 1 23.288243185429305 19.421188938748195 8.171651661079565 0 0 0
363 1 23.07199132963288 17.51221784990934 10.246420109962454 0 0 0
364 1 21.23736921419623 19.562788507323848 9.962627088133283 0 0 0
391 1 22.95041296194832 21.685957534526636 9.949848642496967 0 0 0
171 1 1.1189540953853294 21.922365143672977 7.062875780659541 0 0 0
397 1 3.349244036186629 24.93475274719866 11.878309869242505 0 -1 0
367 1 1.880412143237138 21.242244878765444 9.635619232121597 0 0 0
368 1 1.9022494920671158 24.070114255022773 8.103970612276886 0 0 0
372 1 3.3522697853968504 23.157531465977733 9.707535692234128 0 0 0
12 1 7.754724461497059 24.791903887761606 7.722454845063997 0 -1 0
175 1 3.4760983102496397 21.70694899322079 7.821097995839169 0 0 0
401 1 6.592936548161697 -0.021514357332283032 11.494318754008459 0 0 0
371 1 5.2586239001393045 21.962912852635146 9.720826829452516 0 0 0
203 1 5.186822132218545 -0.06390643923489782 9.51909774617304 0 0 0
376 1 6.963631215371056 23.45594357320811 9.849028731228067 0 0 0
377 1 10.905348486394114 21.2543595895393 7.893203973216323 0 0 0
374 1 8.466466794560747 22.50324815732973 7.586983357796655 0 0 0
209 1 10.329195567761813 24.926495234661395 8.030583824971284 0 -1 0
375 1 8.70712184905456 21.607981605877296 9.792317255282477 0 0 0
207 1 8.762257306290573 -0.13960830023968457 10.018001491250022 0 0 0
380 1 10.758711784936164 22.86642245524593 9.504212729380447 0 0 0
381 1 13.748050042981273 21.633645077132883 8.44828719276663 0 0 0
378 1 12.138536996327858 23.38100382426415 7.778222541125432 0 0 0
382 1 15.899161637910428 22.905987954923585 8.231831488263706 0 0 0
379 1 12.27741305293566 21.084318160772348 10.341394346804258 0 0 0
383 1 15.799973578632208 21.24334410302628 9.80879887621248 0 0 0
211 1 12.192017646105034 0.05610213136732867 10.099118303002466 0 0 0
384 1 13.883917931113826 22.979615331550463 10.316355022741792 0 0 0
215 1 15.81473770153758 24.63334145095472 9.946700914607618 0 -1 0
25 1 21.73283848017157 22.817986097268847 6.219934514371005 0 -1 0
385 1 17.18626045057238 20.724649991024357 6.8615223382483475 0 0 0
217 1 17.812543702058786 -0.13743440454538458 8.220338331330256 0 0 0
219 1 19.73374260674536 24.94440276678661 9.690095359300198 0 -1 0
387 1 19.410443071291425 21.54448368231489 10.121819597477732 0 0 0
388 1 17.388281577878754 22.80447870254997 9.74413167006848 0 0 0
197 1 23.340350994729015 24.476072271353853 9.401352042096736 -1 -1 0
366 1 23.78725946637063 22.88014193279898 7.570236349546574 -1 0 0
390 1 21.288170615536966 20.869507487386155 8.037634029766256 0 0 0
392 1 21.336622976643252 23.139413818524844 9.446883853339639 0 0 0
223 1 23.899081399853458 0.7751823489756077 7.575214140048709 0 0 0
586 1 0.3416783682230429 23.22235994123889 9.552345479660257 1 0 0
394 1 1.6510102297261329 1.6515687655217552 11.910879162663282 0 0 0
396 1 24.7277783559138 1.4068074566778037 13.46055237316999 -1 0 0
400 1 3.4964819772033455 1.2608255687844476 13.784267622317401 0 0 0
423 1 1.4910010857908953 3.7117694401965555 13.263256661217504 0 0 0
425 1 2.9060318630985202 3.6789976305122294 11.67143262400523 0 0 0
395 1 1.5772437106473596 24.81152106741253 13.461574111201589 0 -1 0
590 1 1.6423987459846232 1.3383490568210548 14.960720528786645 0 0 0
621 1 3.3763255324428196 3.1565359170166927 15.207951865663508 0 0 0
398 1 4.812940391514805 2.0600530397568906 12.027811708253967 0 0 0
404 1 6.8119378078580946 1.5957721438956063 13.84572624160299 0 0 0
427 1 5.146709480280008 3.3358375231911648 13.898670285796833 0 0 0
429 1 6.940773235129496 3.1504359668160045 11.87233064588759 0 0 0
594 1 5.3427920141349325 1.534557673716603 15.60865581427206 0 0 0
625 1 6.772660357977941 3.478913417388775 15.376482050120497 0 0 0
402 1 8.74096298336394 1.5609159378031416 11.886439290911468 0 0 0
405 1 10.416953589342276 24.70503557743945 11.637148940055235 0 -1 0
431 1 8.63323892064994 3.2975934895721495 13.819336906121865 0 0 0
433 1 10.36232062521569 3.1324411235964127 12.016524598641483 0 0 0
435 1 12.654207710296086 2.9638680269526914 13.629003216279395 0 0 0
403 1 8.738501137527164 24.763420900675992 13.48131914261424 0 -1 0
598 1 8.683485829843786 1.46720423881344 15.379056614155218 0 0 0
408 1 10.437956827369591 1.5512065012460483 13.722544774581547 0 0 0
602 1 12.354952076675456 1.3209866630786875 15.530134104583498 0 0 0
629 1 10.840651350325105 3.2076670361961397 15.151456461742237 0 0 0
601 1 10.575883650627048 24.796367112312073 15.505631755974049 0 -1 0
406 1 12.112340254900534 1.6665673831208363 11.70859634284687 0 0 0
407 1 12.30848476025709 0.004230758927139783 13.393494970866893 0 0 0
412 1 14.17308185448514 1.567036190870187 13.613892038097049 0 0 0
410 1 16.01528147554218 1.6455046525671828 11.432364344153266 0 0 0
437 1 14.158485907724799 3.232354700304379 11.774743471343633 0 0 0