LAMMPS data file via write_data, version 29 Oct 2020, timestep = 20000

2160 atoms
1 atom types

0.02463278412813885 21.239367215871955 xlo xhi
0.02463278412813885 21.239367215871955 ylo yhi
2.337693090846031 63.71288034034541 zlo zhi

Masses

1 58.933

Atoms # atomic

1270 1 1.3487922610221783 0.25456349781581483 4.770892168729935 1 1 1
1296 1 1.7612051056548708 3.404670081123421 3.663257245681795 1 0 1
1752 1 3.9687762140412928 1.101434407537506 3.024176971608136 0 0 1
9 1 7.082852113600115 4.142139665229189 5.744525040401579 0 0 0
276 1 2.296098960413066 2.1748264909909483 5.602948099087099 0 1 0
1256 1 4.084058846081305 3.5508129962849173 3.644563366666104 1 0 0
178 1 5.546432623993168 2.029627600068482 5.153905124017282 0 0 0
39 1 10.507938489926074 2.1807520661856876 3.9221824626056514 0 0 0
180 1 8.33100666844 2.588169968307597 4.363742402471383 0 0 0
164 1 11.935854029246698 21.196748419745685 4.219549669259807 0 -1 0
1905 1 9.088075075861077 2.92238778083833 2.3432628122842907 -1 0 1
206 1 9.98447670629208 3.3975322610093555 6.0407576993899035 0 0 0
189 1 10.281938504135667 0.8435303916017435 6.111944732998156 0 0 0
1559 1 8.71410624092915 21.237233883793053 4.3019129327559 1 -1 0
142 1 14.21175520781456 2.1521962877017815 63.57767269892501 0 1 -1
1808 1 16.253239866835365 2.0791100272212986 3.40703035571581 -1 0 1
1795 1 13.790871244617183 1.5062172973207326 4.329798781672256 1 0 1
97 1 14.574024168676898 3.5296276646445692 4.235227938619496 -1 0 0
566 1 14.23771560931871 4.039464877360613 6.341843031579454 0 1 0
76 1 14.534861907616484 4.491973165835233 62.34000255034764 -1 0 -1
190 1 0.2625034650007729 4.312581700990059 6.430000426244537 1 0 0
410 1 21.119437193673626 2.2816786108164884 4.849286352228304 -1 1 0
287 1 18.263297430143062 1.699160829096408 63.276046482609416 0 1 -1
49 1 16.82168182356626 3.400959707935037 62.70064097700251 -1 0 -1
154 1 18.410653449847587 2.6049112418605045 4.757359067287638 0 0 0
23 1 16.558425669944484 4.779218205389033 5.823573317793324 0 0 0
1103 1 20.889741167286196 2.6038723117071667 2.344962491465854 0 0 1
149 1 20.12077532889591 4.44922544075752 3.913113090151188 -1 0 0
71 1 2.62567088695334 5.41212130981528 2.9055693365419275 1 0 0
81 1 1.7735216436908698 8.282226865561906 5.708986100853775 0 0 0
99 1 2.7565035579660098 7.291142714187719 4.2205929236101225 0 0 0
77 1 5.334089219808611 8.082524859106606 4.950595087707624 0 0 0
1809 1 2.4806157770675066 5.344216864612428 5.351710349324687 0 0 1
174 1 4.3694416812321615 3.682816406575481 5.985005916171884 0 0 0
193 1 6.9581713473823665 6.14735761917783 2.7786374848589284 0 0 0
224 1 5.045876621094399 5.670152240367039 4.323865956270911 0 0 0
1156 1 6.636637445363634 3.803212305137002 3.145664344824733 0 1 0
191 1 7.697397038913008 6.17853512530217 6.695631879523112 1 0 0
170 1 7.315359810932218 6.917181053370763 4.578555655903429 0 0 0
36 1 9.136090329202426 5.4290056444132775 5.06232187212777 0 0 0
55 1 11.291776051365492 5.727917253030292 6.164215004794094 0 0 0
67 1 10.771047186754895 4.590852902874524 3.752850032075601 0 0 0
2135 1 10.352056634965713 6.356005435914175 61.90607067068728 -1 0 0
91 1 12.056526276495921 2.8984501503850844 5.39059730341128 0 0 0
205 1 12.868019141680394 3.9372434905700286 2.7217333818807012 0 0 0
72 1 13.327060728763385 5.611406659068237 4.858623184240598 0 0 0
218 1 15.294681717126902 6.441948397703883 6.216166036358143 -1 0 0
214 1 17.107784601525097 6.83242138116093 4.685925088677136 0 0 0
28 1 15.271730275537978 6.187038990256389 3.169188581126524 -1 0 0
73 1 15.899544515707412 9.101600171453233 6.287848543365799 -1 0 0
266 1 17.334700001026626 4.413375969772095 3.507630911273667 -1 1 0
62 1 18.97543945899951 5.5942501225136265 5.987550487414744 0 0 0
32 1 19.751061659581737 7.136407341675475 3.852088861396015 -1 0 0
47 1 0.45036145214207407 6.3970967750960845 4.942844843529444 1 0 0
85 1 20.431268873138222 7.893734567750571 6.780766448057553 0 0 0
96 1 17.898520692468047 7.969896052715376 2.791371364891391 0 0 0
1320 1 20.547764872986733 8.877474088989947 4.567980824386606 0 0 0
94 1 1.282530106311241 10.638253975706979 4.585084051188219 1 0 0
222 1 3.5808197110684628 9.842762110033432 6.05078856487538 0 0 0
1133 1 1.8358954468244704 11.89983185744188 63.64886262969378 0 0 -1
75 1 4.824700139727586 12.863050976843708 2.959534705844995 0 0 0
1739 1 6.554266981841604 8.375925764377968 63.47398082087163 0 -1 0
60 1 7.175017695922923 9.625512142263569 4.187086287556831 0 0 0
1539 1 4.856704980237528 10.275262180002677 3.816707253085772 0 -1 1
1652 1 9.004533858850861 9.277973346599973 2.488774177434414 0 0 0
1298 1 6.214049697441665 11.827411099421182 4.591472605691941 0 -1 0
1620 1 2.365138042138887 9.63309068630395 2.6993133280342274 0 -1 1
1825 1 6.032553435825834 10.652110362892461 63.437896874880224 0 -1 0
1570 1 10.120001604045623 6.658919242018371 2.8973199246177495 1 0 1
108 1 8.451986362884288 11.698205879452171 3.59536984535835 0 0 0
1475 1 9.21878338023394 8.52342295076145 4.605832225064294 0 0 0
2031 1 11.854111915813457 8.279509740655092 63.095500851434004 0 0 0
1643 1 11.908614118078443 7.545369572200158 4.312104850272444 -1 0 1
66 1 12.154668083420598 9.803324633034672 3.8475863379241284 0 0 0
1442 1 10.928070503728968 11.124198234474036 2.534580519013428 1 -1 0
63 1 14.697093596060466 8.246472256678658 4.496266761611718 0 0 0
1337 1 16.660782529233856 9.853048979727761 3.1400017290670545 1 -1 0
1348 1 14.484878920450225 10.915979521788 4.36120793601356 0 0 0
356 1 16.61083596697535 11.099774112809827 5.263900251062434 0 0 0
1898 1 14.453158341981 9.113203010425314 2.4928018238283203 0 0 0
197 1 0.42167639318765376 9.96785519707646 6.354150800769191 0 0 0
118 1 18.300612346667577 9.171812744276433 4.7669308504502315 0 0 0
120 1 20.896940398809903 10.951267338840575 3.0901304579303206 0 0 0
1100 1 18.82570380730033 13.648997428791567 2.807575611120062 0 -1 0
286 1 21.106120745566116 13.178242742918966 62.95948100639633 0 0 -1
269 1 3.906411188284427 14.76848683358876 5.848128915957785 0 0 0
194 1 2.981301630752601 13.196270890726137 4.570304794650785 0 0 0
238 1 2.4295617115074823 16.469994063285505 5.029122629645089 1 0 0
2071 1 2.107133509640748 14.881744527750094 3.4419565523470164 1 0 0
245 1 3.866171692648615 12.326000708459631 6.56936888348368 0 0 0
221 1 8.187575567363858 12.753509365552029 5.6553757289796405 0 0 0
79 1 6.332646201565474 14.088169237837125 4.6631811061839645 0 0 0
138 1 7.33725050018502 16.316059101717904 5.121841379503344 0 0 0
244 1 5.0361430929461415 16.892088722310355 5.576954466784205 0 0 0
1951 1 7.782201167026203 17.799149257360682 6.855829728966649 -2 -1 1
2153 1 8.348089132781976 14.667107546136934 3.5165577798437484 1 0 1
2035 1 10.485598303302835 13.106559775303301 4.152105568548633 0 0 1
59 1 10.469243219828291 10.926010775263686 5.347514225772397 0 0 0
374 1 9.5753411916088 14.923921811514614 5.625813069418728 0 0 0
1911 1 10.517680192525917 15.333489448116778 63.648553908495686 0 0 0
1365 1 9.605783741193857 17.374066994698353 5.407035707167112 -1 -1 0
1928 1 11.158615237995916 16.992575924016336 7.236451147353101 0 0 1
257 1 15.198622205709992 13.435752929193285 6.037041087615599 0 0 0
210 1 15.937393146081256 12.667630676145322 3.9594275823216707 0 0 0
230 1 13.833812876084782 14.636275858982245 2.9883552404384517 0 0 0
233 1 14.462957747896532 15.90723183761057 4.565347070420384 0 0 0
68 1 12.99493361014359 12.855328964177817 4.414122680208874 0 0 0
381 1 17.347539046597838 13.681374197530356 5.368615112278181 0 0 0
141 1 0.3756888813237907 13.106326770498267 4.41659410040268 1 0 0
217 1 19.1838684235588 15.744769083363936 4.096903253406607 -1 0 0
265 1 16.588420306608086 15.33822737563241 3.366420106285089 -1 0 0
150 1 21.181771457380147 0.5389314253640101 6.620657498153828 -1 0 0
144 1 1.8227602149249045 19.48734059247358 5.550743899244166 1 0 0
1 1 3.7751020603255223 17.33685575343808 2.858912853870539 0 -1 0
122 1 3.672261668540009 19.65989325855847 3.6970466404787627 0 0 0
165 1 3.512078240454726 16.56610578496589 7.183858932933748 1 -1 0
126 1 5.979798310120513 20.873806344268644 3.6929688378529955 0 0 0
127 1 5.918733899635216 18.21698675654912 3.805511257950646 0 0 0
184 1 4.0170993244680195 21.18732611441081 5.164129783957341 0 -1 0
1187 1 8.05532064339023 18.769073686033025 4.669692165503081 0 -1 1
273 1 8.717094529085108 16.807680781700242 2.842901518495141 0 0 0
302 1 10.25956897142225 19.13282736204018 3.8028554820109246 0 -1 0
1860 1 13.604614637913622 20.288192882645134 6.059196691995736 -1 -2 1
18 1 13.421641269801352 20.74976469983961 63.22765233358282 0 -1 -1
82 1 10.856639010246127 16.84435010556153 3.750695430707543 0 0 0
274 1 12.558675383091632 17.848046075989643 5.359252515738072 0 0 0
1511 1 12.947020867508735 18.90629951567945 2.9967668119672313 0 1 1
1453 1 11.05977285558181 20.382643568799665 63.59743044713177 0 0 -1
256 1 14.658099040812967 18.779915710972226 62.45631544762824 0 0 -1
139 1 16.39795548522134 17.71760804623355 3.074538328623579 0 0 0
19 1 15.246031873877941 21.04755991919508 3.604427908811396 0 -1 0
1820 1 16.693640211662192 20.08287177137386 62.999204316085354 0 0 0
280 1 16.827617219534176 18.895447743592683 5.105151848746884 0 0 0
98 1 18.91952368729114 18.124423571834093 3.905770254185872 -1 0 0
1316 1 19.488293880623083 0.7696262147667963 3.5889069953850115 0 0 1
1259 1 17.651334846104845 21.03499805388438 4.057648280915368 -1 0 1
15 1 18.608286183393645 0.6437880965472551 6.065662321681813 0 0 0
80 1 0.31444679549048166 17.507001785122455 4.119258399895758 0 0 0
243 1 20.33426855001933 20.06804039225061 4.472436527120154 -1 0 0
153 1 2.4199199833853715 21.194091643381707 7.153262958709495 0 -1 0
145 1 3.5554045898687208 2.7209652135193862 7.843521117663835 0 0 0
333 1 0.6838615006325421 21.081754490543553 9.84579773927005 1 -1 0
331 1 1.0259351322456718 2.6545310540361444 7.7497467879209845 1 0 0
293 1 2.113455404822976 1.8917877311095004 9.43776957119469 0 0 0
311 1 1.346324276030044 4.29761195255193 8.888185375470654 1 0 0
2150 1 5.019107699434094 0.5470777426419124 7.126210373184174 -1 1 1
202 1 8.29920280256038 2.939807340494602 7.688980802531491 0 0 0
173 1 5.762435843267368 3.4336431828399174 8.177354658254728 0 0 0
155 1 7.113313452922966 1.0509415244479012 8.95775493356595 0 0 0
158 1 7.451756947896291 0.8877154238980088 6.502370819381179 0 0 0
132 1 3.693778831592277 4.105353127961242 9.774467172222 0 1 0
128 1 9.40387567749089 0.2582586188912705 8.554976924470466 0 1 0
33 1 12.200978436796563 0.21565281338289496 7.5321011518056284 0 0 0
41 1 9.12101906888446 2.023035137655781 10.296769562115484 0 0 0
183 1 10.722194034897699 2.4264527957961914 8.289775901333542 0 0 0
57 1 11.163500041316533 3.2990419360398455 10.482598091036225 0 0 0
353 1 13.478007856200465 2.9710854993663376 8.674426581160079 0 0 0
167 1 15.965038112439665 2.9398954368656107 8.28653657795186 0 0 0
308 1 15.322636563827306 20.648782041381715 11.00394391203731 0 -1 0
160 1 13.111007362901026 0.5192756642972892 10.869616901380503 0 0 0
1495 1 15.119986445611413 5.468759577255957 8.358440173398495 -1 1 0
301 1 14.588984477747122 1.696319126859323 6.767823193281328 0 0 0
169 1 16.792387030050037 2.2073325584390155 5.844944247690508 -1 0 0
309 1 19.556057484824045 3.281538278779132 6.578670418787249 0 0 0
168 1 18.097340422038762 2.1905240621981577 8.040759751913882 0 0 0
360 1 17.395037839026358 4.604759794370001 7.876142483588201 0 0 0
2159 1 19.45801593547391 0.22746530006847787 8.04507207993261 -1 1 1
148 1 3.0406124572192 5.145199995848537 7.45365236829148 0 0 0
313 1 2.7881455550506287 8.58775643613735 10.114486684696356 0 0 0
336 1 5.748204580706738 5.547067416821849 9.339457519311527 1 0 0
1773 1 4.067643587889019 7.022777860530716 9.310906103037347 1 0 1
339 1 0.9612419329529033 6.074169725863249 7.766694318466831 0 0 0
619 1 20.862651629017556 6.01834355120376 9.947270074005178 0 0 0
316 1 5.35541299651622 5.713966153377553 6.993805640922206 0 0 0
176 1 7.880676737292833 4.701720490216811 8.967589552270434 0 0 0
272 1 6.503090911107301 7.565918118873712 8.177332165332832 0 1 0
223 1 8.922203369397032 6.80775215791148 8.72461172068487 0 0 0
195 1 10.000831168617074 4.977097675967281 8.121728744238444 0 0 0
44 1 11.80819311125782 7.1937491267391325 8.076864369936184 0 0 0
166 1 9.504303609299331 4.890178786883097 10.410599448682444 0 0 0
306 1 12.264710042905984 4.988107094075269 9.3846541363737 0 0 0
342 1 9.422502510680676 7.594837619975835 6.798773237573209 0 0 0
95 1 13.357411973869855 5.839107267948645 7.184891728610108 0 0 0
212 1 13.671589998747256 8.233957175700398 6.452375982223274 0 0 0
215 1 13.680158553295948 6.828606326030309 9.592516049354847 0 0 0
332 1 14.209170825899385 4.3468174053751225 10.44369130646673 0 0 0
493 1 15.35885347200272 8.413154441032335 8.695293215513102 0 0 0
27 1 18.11843351901249 7.951255137047444 6.74202515501349 -1 0 0
334 1 20.23993018921405 4.2485230033183665 8.481911512621085 0 0 0
340 1 19.40787793886011 6.650087371603256 8.65223710481608 -1 0 0
330 1 0.6937022986613838 7.995662381624204 10.655800010803276 1 0 0
501 1 17.057128371876537 6.685993770031073 8.92408719727407 0 0 0
125 1 2.7153458336447356 10.762051637284296 7.992807701976873 0 0 0
358 1 0.6305518058753432 10.656577969564543 9.102786364567178 1 0 0
61 1 5.096648572300673 7.135784674060513 11.492322234002526 0 0 0
337 1 1.9560204589444856 8.55160259828731 8.05714831457143 0 0 0
1859 1 1.4319707449117642 12.333351644699986 6.774061092508363 0 -1 1
225 1 4.08334481011386 7.332020212964595 6.896784197843613 0 0 0
385 1 3.0457364857883507 10.944788336304379 10.33791553706479 0 0 0
101 1 5.840516483737764 10.442011257712998 6.606237664069089 0 0 0
105 1 4.796801270227114 9.476957421702203 8.528722646581553 0 0 0
359 1 7.071908843203899 8.544437928037002 6.178864486299833 1 0 0
249 1 7.6646413617936044 11.627981236939432 11.109131582118726 0 0 0
367 1 6.9329047109784385 9.722229946702026 9.88049668734871 0 0 0
211 1 11.368569134590796 8.92146710300387 6.40501553208296 0 0 0
109 1 8.969030596112374 9.50546117465522 8.263081178320718 0 0 0
200 1 8.165612706954523 11.654880033072574 8.544430968305072 0 0 0
370 1 11.09333058714832 9.497936724220555 9.106758360110925 0 0 0
30 1 11.261790961084657 11.321760441789568 7.754801023279796 0 0 0
277 1 12.679032493260793 11.25340864096972 5.952717791806434 0 0 0
89 1 13.270421764105592 10.290285694617577 7.950812739763709 0 0 0
384 1 16.56724316653746 10.57798378032747 8.38776040353664 0 0 0
254 1 13.654131524276782 12.518697243911348 7.957174065911787 0 0 0
235 1 15.090769110763258 11.4143875855048 7.018006611689149 0 0 0
90 1 19.07299087122621 10.009643498041537 6.710844619197647 0 0 0
357 1 19.936394676553824 11.348117291002398 5.017535446764096 0 0 0
1441 1 20.416577050873634 8.607979744167377 9.043643403511915 -2 -1 0
361 1 17.941479415762565 12.204260473262579 7.04927479398486 -1 0 0
505 1 19.403634401259197 10.767626934050273 8.937821531498733 -1 0 0
364 1 17.99687427433568 8.845843386027708 9.500487891596658 -1 0 0
379 1 20.12272816120136 12.122886473891027 7.463419953051715 0 0 0
146 1 1.7916413471690906 14.387564348081362 6.488613825073182 0 -1 0
248 1 1.3239581593731884 12.845011473058376 9.2356093334237 0 0 0
284 1 2.111479884293026 15.595984132394262 8.779891853870842 1 0 0
241 1 21.167022444309197 15.523995792415704 5.361730828743012 -1 0 0
262 1 3.4226948033000846 13.52670612389155 8.68737116309626 1 0 0
412 1 20.210515710172764 13.25733509579362 9.679986155279288 -1 0 0
289 1 0.8320157733124929 15.101608952416408 10.626112798714507 0 -1 0
196 1 5.551757581751197 11.845851393135352 9.255381900305473 0 0 0
227 1 7.349749070879288 13.964888816679363 8.158958876259295 0 0 0
1520 1 5.684756058160628 18.045208132896953 7.874068455300234 0 0 1
253 1 6.401016755409299 15.71335434020096 6.935684284834779 0 0 0
106 1 5.744591718168164 13.391290298035173 6.517140769431446 0 0 0
411 1 5.9180978769909585 14.09653859174409 10.229732270560618 0 0 0
65 1 10.041658167818573 13.039342921332656 7.451254972330956 0 0 0
1530 1 8.205324699872664 10.505440549520909 6.188043217834624 0 0 1
52 1 10.448825171267252 15.119787923258581 8.485372307645246 -1 0 0
418 1 8.630653212363967 15.818530500181257 7.325702204273762 0 0 0
111 1 12.136325895755656 14.961517863785184 4.824226562242182 0 0 0
252 1 14.124199685874986 14.790888353605919 8.194102335075632 0 0 0
378 1 16.55659290075303 13.298042771422088 8.424025312333075 0 0 0
236 1 12.062841978149624 14.009109363834694 6.907274132176651 0 0 0
424 1 16.449162149313572 15.349583344273299 7.026222124284516 0 0 0
406 1 14.04411500055808 16.297835536997376 6.581150420772129 0 0 0
92 1 19.4677707371087 14.067488965433357 5.9863963049038045 0 0 0
237 1 20.91471528643107 14.797100825057287 8.190001742510924 0 0 0
401 1 17.236749827180056 16.70711005133974 5.722732943980397 0 0 0
261 1 18.292976311068607 14.974594627755708 8.6599540073105 0 0 0
114 1 17.338246687181005 17.830850827494665 7.647780706586762 0 0 0
116 1 19.840122917614522 17.3515489685332 5.915321133715887 0 0 0
285 1 0.9523437500382204 17.011642821033448 7.347167770097487 1 0 0
143 1 19.706659850150032 17.376854172241224 8.128248605117632 0 0 0
246 1 3.6584173176797807 18.999117267477217 6.437921238493775 0 0 0
270 1 3.0958288058696564 20.826512454134225 9.9615930095425 0 0 0
100 1 1.9176693268816885 19.346573034591565 8.440889397869157 0 0 0
242 1 5.029945259344225 15.372900029626082 8.593629407386231 0 0 0
271 1 3.785094551382341 17.62531836801721 9.021739274969896 0 0 0
177 1 8.582347497303427 20.13909592998516 6.423280155477836 0 -1 0
112 1 6.1573997247277 19.509536907206076 5.954751705871594 0 0 0
267 1 8.699034358570593 17.36846128959378 9.202102576901217 0 0 0
107 1 9.782364837681987 18.790082670657767 8.04600719645307 0 0 0
413 1 5.223636305088687 20.043183960350547 8.93847282720236 0 0 0
11 1 7.417604172712341 19.540089802669918 8.816553785074554 0 -1 0
38 1 12.836225381274543 18.878901363034913 7.729739231590425 0 -1 0
156 1 10.89349115973378 19.699925923554886 6.206227964302664 0 -1 0
131 1 13.41448708164025 19.171414766428747 10.003719819423601 0 0 0
275 1 11.251130196523459 19.957275810386 9.46151342684479 0 0 0
162 1 15.806386839659979 0.14213825767444954 5.733907615054285 0 0 0
48 1 15.334477197902222 19.357586926575465 7.01319086974857 0 -1 0
422 1 14.725922212056188 18.366915185348695 4.623445146365263 0 0 0
304 1 14.239314207940284 0.14160016884691728 8.865000729611218 0 0 0
1146 1 16.87223076856025 0.31513558906169387 7.794054085889369 0 1 -1
240 1 14.609930440093267 17.849527494680885 8.538547877423433 0 0 0
171 1 0.6565156536226373 18.139695890797867 9.823609561254102 0 -1 0
288 1 18.54474973724539 19.343935620241645 6.881147551084101 0 0 0
25 1 20.995068713282564 19.404826184805145 7.125456670263156 -1 -1 0
430 1 19.78404748242285 19.55541689720441 9.178578038332923 0 0 0
291 1 2.6442215693841806 2.6850861076036647 11.67342116447608 0 0 0
454 1 0.2605986484010543 2.079898804233399 10.767204836142778 1 0 0
558 1 6.593001015030064 1.4158225247543006 12.211586129891746 0 1 0
572 1 1.444098951054192 21.231941743769635 14.554764452736832 1 0 0
474 1 2.7510855408502537 4.550891592025624 13.28347421257559 1 0 0
43 1 7.003957721270044 3.124074535486476 10.551994320643072 0 0 0
201 1 4.952728997824567 1.5985501909455861 9.934886602421244 0 0 0
1632 1 5.156603645526402 3.952193740784373 11.796472345807363 1 0 1
151 1 8.813180394768336 0.6587655909963223 12.30279961710756 0 0 0
307 1 6.185574042978138 20.371017809349155 13.195012392258985 1 -1 0
187 1 11.286081738509854 1.7235431994596875 12.346318730872161 0 0 0
157 1 10.816901457381128 0.593221527263825 10.324274427965717 0 0 0
182 1 8.583261958776301 3.1799888298730337 12.501451254637738 0 0 0
343 1 9.892174402972492 2.0601395539852736 14.079763094259881 0 0 0
251 1 11.216959268475282 20.164546375620006 12.101042379983225 0 0 0
345 1 12.558099479152247 1.6363733317417712 14.467804040830737 0 0 0
321 1 13.679932352048944 21.221727928687077 13.407702365362951 0 -1 0
469 1 13.378935646872225 3.0297480743645386 11.989035403618887 0 0 0
329 1 16.063776964921985 1.1957793069034306 12.749173149245237 0 0 0
466 1 15.682532971127777 3.5554843145321167 12.037958021659993 0 0 0
480 1 1.023590313707122 4.464113151462592 11.497157713149047 1 0 0
327 1 15.049379999795105 1.7806956942611383 10.414860893936323 0 0 0
147 1 20.368513015625823 2.1100675937078797 8.884210623357951 -1 0 0
473 1 19.276481840227383 4.016468070432139 10.819035890215075 0 0 0
452 1 17.508660042855176 2.6138625443645274 10.614552929897608 0 0 0
456 1 20.498944946237692 0.5433205312735837 13.579973198788414 0 0 0
450 1 18.285029474990438 0.47987343124109044 12.967433405194635 0 0 0
310 1 2.0734637535695244 6.266688975810229 9.900963598262031 1 0 0
292 1 5.607478877275056 5.537692757021114 13.668616830902387 0 0 0
320 1 1.667978851404616 6.739261744855071 12.14896567178348 0 0 0
598 1 3.4477959460950838 5.6986783313137 11.301309368295591 1 0 0
314 1 7.431145717419509 7.204488925881815 10.527225421313267 0 0 0
294 1 7.391156847193754 4.836837124425765 12.26082595376385 0 0 0
175 1 5.99903889630773 2.9449049686647104 13.953322356689885 0 0 0
368 1 7.39878405456405 7.009648779952895 12.911533634908034 0 0 0
338 1 9.138547070416674 8.749949891607924 10.741446748572564 0 0 0
199 1 9.747325092408156 6.080756219084672 12.389612952499576 0 0 0
322 1 10.791033561382466 4.362827321980603 13.320893880955534 0 0 0
186 1 11.532763760222375 7.367925497283854 13.6292451943144 0 0 0
181 1 11.404731234379208 7.2658433689883415 10.462121136153417 0 0 0
40 1 11.718373431844894 9.464040822212375 11.934848160603751 0 0 0
213 1 12.72288922485694 5.72193963123365 11.673943757808061 0 0 0
355 1 15.03112572204673 5.5568916723897175 12.783896335465347 0 0 0
328 1 15.646310286391367 6.916026018624324 10.987175803916784 0 0 0
207 1 13.59562973935765 9.027176701276552 10.29572443111391 0 0 0
346 1 13.781442207367542 7.855410251599231 12.333228256382116 0 0 0
503 1 13.135502408303172 4.534033244461885 14.01388841956621 0 0 0
354 1 17.306214743763583 5.683128335431566 12.458913892734499 0 0 0
498 1 17.720027372075428 8.574630193907003 12.238200913840597 0 0 0
192 1 17.022162393388456 4.770720207219157 10.387981158368833 0 0 0
499 1 18.756504273135945 6.746559358056945 10.872675300084818 0 0 0
647 1 20.497580584752235 5.287393325498766 12.27711378739115 0 0 0
497 1 16.961585003010796 7.273541470223997 13.911351853396896 0 0 0
457 1 19.47541751228676 7.613364524598557 13.310257706575984 -1 0 0
220 1 0.867577884223663 12.626291178209733 11.806849195253946 0 0 0
431 1 3.220231984715842 13.730557667060214 10.849776625701363 1 0 0
509 1 4.781021885272594 9.558874530064644 10.898870983968258 0 0 0
405 1 3.2024446146811627 11.935476554356187 12.558725238929023 1 0 0
408 1 20.334583103405542 12.710582677815614 14.208352995355193 0 0 0
502 1 3.328127029605634 8.926916861274636 12.491831951434785 1 0 0
382 1 1.2081641435154025 10.060492395290959 11.805013092110537 1 0 0
486 1 5.455154072113584 8.019021844622399 13.470715618565949 0 0 0
362 1 5.23074259667337 12.073478120752332 11.413409508476514 0 0 0
508 1 7.092787622362104 9.166834467520118 11.796195576337388 0 0 0
208 1 7.321107589195014 12.203502457552036 13.174919092932834 0 0 0
363 1 4.435916270851492 12.855339616550594 14.647683440016223 0 0 0
226 1 9.66805318873886 11.174382560230248 9.934433389712312 0 0 0
537 1 9.434873434675087 13.8170060212316 9.944692547136128 0 0 0
229 1 9.956383296860482 11.205666648141728 12.172311439163595 0 0 0
513 1 12.376973546736426 12.020277671119025 10.236806958997743 0 0 0
366 1 9.455542325288025 8.765027584977831 13.021786524004927 0 0 0
398 1 15.880680232111853 9.863151377774818 11.076852450031506 0 0 0
375 1 15.115907302236273 11.959905311722785 9.787704266911774 0 0 0
348 1 15.641535680097187 14.22864202776188 10.24729463817042 0 0 0
377 1 16.137454648586427 11.834061123646023 12.166506622055183 0 0 0
399 1 13.785327800403861 10.75474679395339 12.093280599313449 0 0 0
172 1 20.476106284857558 11.459083976072545 11.045164166091432 -1 0 0
216 1 17.749198030547355 12.60423360310529 10.222643607965963 0 0 0
403 1 20.244605866694357 9.276454734609404 11.417622258238056 0 0 0
522 1 18.187476005163383 10.604855532664711 11.373714820966816 0 0 0
494 1 15.765656407365123 9.589932513546131 13.86400966236821 0 0 0
380 1 17.21596645813917 11.825925133773243 14.202880938475271 0 0 0
388 1 2.579195760905428 15.000313572186062 12.571072121895991 0 0 0
432 1 20.142565146479335 16.130437144243608 9.949204485199974 0 0 0
409 1 5.295600716796858 14.055765456558236 12.548362689081616 0 0 0
530 1 7.073788602364244 15.611702936852557 11.95751483732129 0 0 0
219 1 8.32937032269802 13.75260375109112 11.943561310875316 0 0 0
437 1 7.72603483106642 14.511974806139317 13.850387766814102 0 -1 0
507 1 4.738077204959226 16.740155001583453 12.29807269482541 0 0 0
232 1 7.807742757573569 15.52712185387813 9.734089221192011 0 0 0
373 1 10.077423219997248 15.238102428958735 12.30285976758691 0 0 0
390 1 12.131726999413123 14.014472879922899 9.334292151262186 0 0 0
392 1 11.472681247746488 15.757368987202172 10.729467574323511 0 0 0
231 1 11.522432929307188 13.703525563347023 11.806497310963442 0 0 0
281 1 12.178801107376573 14.89269977575305 13.62963225225544 0 0 0
260 1 14.246268834861693 15.813608713548199 12.877268745495265 0 0 0
402 1 13.929943260806969 15.655037548464191 10.585249174455527 0 0 0
449 1 15.32328381374971 18.16205922465611 10.878131551067117 0 -1 0
538 1 12.961122392506955 17.487497837563367 11.834479397450192 0 0 0
163 1 15.998040379357121 16.330122753962222 9.419480060889232 0 -1 0
264 1 17.618785690012018 14.74837324036774 11.335084665632298 0 0 0
239 1 18.703343854267082 12.637490242394515 12.68460580973789 0 0 0
383 1 15.675924252771967 13.958158739425336 13.489032546271208 0 0 0
529 1 20.16815671151125 14.317020725226813 12.062121193078006 -1 0 0
404 1 19.6264500137219 16.86135547435702 12.21068581554836 0 0 0
556 1 3.928584223297052 0.6291885336328737 12.143960835987883 0 1 0
574 1 2.534456823934906 17.987570879738712 11.30436738944382 1 0 0
425 1 1.4842518288693496 0.6279394306920072 12.451660941440974 1 1 0
429 1 2.4640437512038877 19.760127907063982 12.621127791734583 1 0 0
420 1 3.5813131572740944 15.803528674531266 10.704288046647035 0 0 0
152 1 6.5216785437195295 20.789599367370556 10.764278820000523 0 -1 0
416 1 4.626766853563095 19.456953205714868 11.319719311747775 0 0 0
397 1 6.127099155847419 17.12257486746863 9.753083966235902 0 0 0
393 1 4.664863948008971 18.386748344869495 14.039944678177703 0 0 0
395 1 6.861562042721117 18.275785425571193 11.914841197125766 0 0 0
465 1 6.343063745639222 0.7115627347292843 15.074000234009551 0 0 0
417 1 9.068151687954952 19.9525399548835 10.363772805474428 0 0 0
439 1 8.646049370009955 17.158742240123374 11.495106121904547 0 -1 0
391 1 12.766302674283136 16.50892246995616 8.663714083640825 0 0 0
387 1 10.656685692857684 17.29326732186292 13.139079538462967 0 0 0
421 1 8.875099744870694 19.294105584310955 12.799995147396835 0 0 0
423 1 11.243156572058936 18.029430273193697 10.495300247509109 0 0 0
441 1 14.401286725352012 19.233615530715447 12.839695922709145 0 -1 0
297 1 18.353261453166937 19.768915657935203 11.101420908399694 0 -1 0
278 1 16.59084640617928 19.65901205735677 9.189330081254191 0 0 0
258 1 18.195333448610768 17.668979746482563 10.242148980395818 0 0 0
303 1 17.146985035054556 0.6676837229618693 9.934947925960955 0 0 0
283 1 21.181770887982452 19.801055592846453 11.999153151865448 0 0 0
569 1 19.348108822889465 0.5292886605481717 10.558951804926172 0 1 0
315 1 2.000471296515345 3.7329042396857615 15.251459188013419 0 0 0
433 1 1.1756610239676046 2.8384708628567767 13.611659878727236 0 0 0
934 1 1.9619622167672868 2.267701603861857 17.54324853120999 1 0 0
555 1 3.7892287976881596 2.372839686665311 13.754603679297043 0 1 0
612 1 3.0576219929524164 1.1660604332668418 15.738657568242214 0 0 0
455 1 0.05399123814006397 1.8240678114719402 15.667905211273355 1 0 0
481 1 5.055704212525202 2.6170077963398777 16.009992466589715 0 0 0
179 1 4.055261858136206 4.86160905791913 15.161247500193763 0 0 0
324 1 7.265167816890816 1.379509696444299 17.576533203057448 0 0 0
641 1 5.134144890445164 4.314494810408643 18.33346382518107 0 0 0
350 1 7.871939980857823 2.4227241691638177 15.582148541447271 0 0 0
443 1 9.426239601611496 3.066144747417718 17.583441697153823 0 0 0
468 1 11.149978982199785 4.413034303711571 17.618451404864693 0 0 0
400 1 11.289668459153319 1.440357944642225 16.962173756562887 0 1 0
645 1 12.770172765792726 3.2961689897533235 16.290719990112702 0 0 0
209 1 15.131384172790302 0.9468157364108368 14.92743126974826 0 0 0
335 1 18.862773700841053 1.1978861552862872 16.82595926973986 0 0 0
642 1 15.294735308151616 2.3504098459593674 17.44636192276078 0 0 0
477 1 16.887580764315913 2.600025605465429 15.774410283685462 0 0 0
299 1 13.80292842857748 0.8131162480210986 16.90689892252212 0 0 0
188 1 17.452519692712684 3.4265738367500704 13.335195279421686 0 0 0
476 1 19.720738743222107 2.8012150540292677 13.463711200342702 0 0 0
620 1 19.56644309580234 3.577878590289985 15.766524459302095 0 0 0
614 1 0.4857819665708613 4.733789792721443 16.97509362917757 1 0 0
436 1 20.47160065304176 20.496482888808764 16.001517334752357 -1 -1 0
670 1 0.4773488907395692 8.656857620311763 13.253047863353363 1 0 0
618 1 0.8474045311581089 5.590525391778432 14.284891594313109 1 0 0
458 1 2.1535571720187594 6.433590234835722 17.14277744683058 0 0 0
625 1 3.0473794925636932 7.178278525963438 14.12751563412601 0 0 0
629 1 0.8516654177627172 7.703925004989667 15.376660450218285 0 0 0
602 1 2.9313007531087107 8.816756112609992 16.398484083001076 0 0 0
653 1 0.25506496640770693 8.165196106927295 17.350672243332177 0 0 0
482 1 7.278662891097006 6.6412493692080306 15.2810894173118 0 0 0
296 1 6.416456411958165 4.580314383380877 16.128230909796283 0 0 0