LAMMPS data file via write_data, version 29 Oct 2020, timestep = 200000

2744 atoms
1 atom types

-0.33023899928210376 25.138238999282436 xlo xhi
-0.33023899928210376 25.138238999282436 ylo yhi
2.9317181791067632 56.59783446661969 zlo zhi

Masses

1 58.933

Atoms # atomic

739 1 1.0814399891176794 1.940721952219031 3.40124050844223 0 1 0
2463 1 2.5542478791687113 3.56489596655908 4.979184793199469 1 0 2
1648 1 3.2171351555784775 0.6595848566348037 6.326180013836493 2 1 0
512 1 1.1217051398041515 1.308904996136122 5.990238624038945 0 1 0
471 1 3.431881507465698 1.2725406986465957 3.9670330725800382 1 0 0
2110 1 4.749553329935438 2.9176048771688494 5.781258832076711 0 1 0
1847 1 5.860862348418128 1.008575012640955 5.801086372419213 1 1 1
2595 1 7.85979765883731 1.8451125068392291 4.154914952726045 -1 0 1
87 1 8.038149690663024 0.08687492391821611 5.740524973397941 0 1 0
2497 1 7.48472995422909 3.0121281909740922 6.570214621868377 0 0 1
1425 1 5.683068662972269 2.1929435511890794 3.66919280655858 0 -1 1
541 1 10.77719953616144 2.9523899458948932 3.730821646413128 0 1 0
1494 1 9.491491709629447 2.0469737867815283 5.507118926640057 0 0 0
766 1 12.207813287796192 0.7982951890089021 4.563746780911494 -1 1 0
1902 1 11.966320447588012 3.247391402708165 6.059347969500093 -1 0 0
338 1 10.117018853292445 0.46517565627614954 3.9307471330210118 -1 2 0
146 1 13.664791163425797 1.339296373086623 6.495183800119157 -1 0 0
2726 1 15.871927129316985 2.745539357470366 3.5671313594806566 0 1 0
254 1 15.201938130728472 0.7714778081614024 4.789310999956033 -1 0 0
1404 1 14.504976326919486 3.9127721649227345 5.241542739866389 0 1 1
293 1 13.361619748490087 2.623235833536134 3.5432969233844673 0 0 0
1391 1 19.815049077674665 0.8645071318323592 5.297773259121124 1 0 1
1408 1 18.165328733381486 3.8593256002016085 3.5968162576472134 0 1 1
2285 1 17.338188545584465 1.307425045368366 4.787170171050893 0 2 1
356 1 19.09044603101841 2.962879616775904 5.914900647263748 0 1 0
613 1 16.6793030926046 3.7944200864826136 5.386400611068628 0 0 0
713 1 19.374203018105042 1.9529672695442173 3.2357764389436396 -1 1 0
18 1 23.753420047824847 0.7343289993581574 5.722424977775944 -1 0 0
63 1 22.061162660366563 2.1518520724700383 4.427128751708988 0 0 0
1130 1 23.42053102304545 3.0395386231693444 6.243779343775948 -1 2 0
1701 1 24.05746218048661 1.6977616939336295 3.8069333103387804 0 0 1
1401 1 2.085258987070032 5.609693429372146 3.544031460352979 -1 -1 0
2530 1 2.3321327967418255 7.308013871215211 5.4499592784952915 0 1 1
302 1 0.1915081550259775 4.226577272112871 4.1720671144288435 0 0 0
220 1 0.5285159463850521 6.140625582140961 6.550203338213175 1 0 0
1568 1 -0.289658266988186 6.4888717148734925 4.074917516834707 0 1 1
619 1 4.10717549555584 6.726124116416547 3.1868087361637993 0 0 0
1503 1 6.525667652548982 6.457709163855668 3.9931331399838017 1 1 0
1580 1 4.460523426194307 5.189134577284867 5.187545536508948 0 1 1
754 1 5.081832837760472 6.611741677725945 6.72133533569092 0 0 0
2507 1 6.6185102275726 4.456192290227265 4.438408069655353 -1 1 1
1161 1 8.316140209064544 8.119394695744385 5.521140880549781 0 1 0
702 1 8.573190573985503 6.084935568562301 5.026259481498599 0 1 0
136 1 8.976678331077466 4.095662596177036 3.4830797222241854 0 -1 0
375 1 11.608243811776612 7.737666591653882 6.137803230304045 0 1 0
2664 1 10.717040755220385 5.360856199967404 5.025050381550139 -1 -1 2
2732 1 10.210722126935405 7.621035618250572 4.16618531174036 -1 1 1
1175 1 9.30984726340625 4.512180608477271 6.700178005855396 0 0 0
1698 1 8.400859517732984 7.544735513251125 2.958856694755937 0 1 1
2585 1 12.487106120891792 4.890262903140772 3.596290399401382 0 0 1
547 1 15.180139644422576 6.352021801137187 4.940836928262716 0 0 0
564 1 13.05862039128897 7.2640308766915505 3.8647331499453736 -1 1 0
1038 1 13.016656983254853 5.543478906108345 5.803203504048524 -1 0 0
556 1 14.665553863807444 4.724507622877501 3.0131823683424983 0 0 0
809 1 16.896324873439433 8.133000955186919 3.0787590053076856 0 0 0
2388 1 19.255368249247056 5.221796471298256 5.478113137152183 -1 1 2
650 1 19.152244717423436 6.475279754277866 3.4697235295495434 0 0 0
1458 1 17.591826081044175 6.687517343842253 5.274430247050537 0 0 0
226 1 20.525478779260595 8.142121613147012 4.540388500530014 -1 1 0
2253 1 20.719843756559712 3.988794224280406 4.048528396848291 0 1 1
28 1 23.2260867280499 4.044762693404401 3.725766720167472 0 0 0
257 1 22.01957243599172 6.052328250892569 4.629982301461881 -1 0 0
365 1 21.167956623501127 4.3333644678125225 6.4797434449058 -2 1 0
157 1 23.915223772336084 5.272933074148913 5.990347416178933 0 0 0
120 1 24.08580993126371 7.572023836135026 5.733102224161982 0 0 0
894 1 23.25545515643369 7.798978212125164 3.4460312906964554 0 1 0
634 1 -0.1546788864207353 11.19375117796751 6.177377654909638 1 0 0
2385 1 0.8994657870278684 8.896149734146812 4.79093820868854 0 0 1
1659 1 1.6935692776964761 10.596065012777935 3.072948685618759 0 0 0
2466 1 1.924595745867046 10.84959840432399 5.8893562467510865 -1 -1 1
521 1 3.441173374055396 9.302440991385385 6.3076121629417115 1 0 0
542 1 0.24741814033641096 12.140266562238319 3.5788938315790153 1 0 0
82 1 4.4859881405264295 10.978760820842048 4.931339183054131 1 0 0
643 1 7.090166729872246 9.309689411034755 3.7531536381167014 0 0 0
1418 1 4.860729857085799 8.379226821335026 4.882223724770579 1 -1 1
1785 1 6.611397716275818 11.464933983441856 4.005466084663749 0 0 1
1558 1 6.492458529677371 12.046835221896204 6.701466886788252 0 0 0
72 1 6.302710428572884 9.981911714775718 5.947669863073083 0 0 0
2314 1 8.576698958494246 11.07944216896521 5.293821406076486 1 1 1
2226 1 11.342056015150275 9.67157449646876 4.562635086853701 1 -1 2
363 1 10.72643977240985 11.945236354959027 4.303274271960475 1 1 0
1438 1 9.195550956434065 10.154524107283233 3.091366965597842 0 1 0
2184 1 10.64550913504198 11.328281268595639 6.722503962796468 0 0 1
1688 1 13.717627761693794 8.405960566836779 5.920553623389026 0 1 1
1894 1 14.873389572397231 9.573802162399614 4.156137015607949 1 1 1
1975 1 14.913337151502533 12.191770002709488 3.83046075877745 -1 0 1
538 1 14.979716667508274 10.526288861772372 6.286259096589572 0 -1 0
597 1 13.091677611865007 10.970413445900599 5.3921152796682925 0 0 0
2034 1 18.445316553357742 9.633806328078343 4.0721137654971455 0 0 1
2120 1 18.896664224850944 11.145992950695815 6.55867380895153 0 0 1
369 1 16.94632828384318 11.140473481852494 5.020567485203117 -1 1 0
1632 1 16.722287836712127 8.91343705898227 5.54320416239616 -1 1 1
1700 1 20.418933982923143 10.611605576613231 4.953746731849304 -1 0 0
741 1 19.207857797610835 8.646476911838764 6.596729857922915 -1 1 0
1070 1 24.638262907542178 10.245370168090599 4.137447746593496 -1 0 0
2540 1 22.22629713044841 9.336459081881154 5.190930547947623 -1 0 1
1864 1 23.20874836863284 11.852378308714952 5.3462720897977665 0 0 1
20 1 21.161690484424867 12.10600995087573 3.199099503369099 0 0 0
251 1 2.7338066875246163 12.502283290253173 4.479627741489126 0 -1 0
731 1 2.8063909564171747 14.818184654821232 4.994566331456126 0 0 0
286 1 0.5114810292478914 14.090539203437128 4.935111269459999 -1 0 0
998 1 1.3042122421770892 15.812510653736082 6.366388296035733 0 -1 0
557 1 -0.1909794312872671 15.882234619630653 3.8523206062990134 1 0 0
1697 1 1.8699592517062058 13.707912333801909 2.945572248759681 0 0 1
2693 1 4.420073739111409 14.547744161845841 3.4020176799827593 -1 1 1
97 1 7.230248526384963 14.369856199842813 4.8736346563093536 0 0 0
902 1 4.899985345043802 13.742499475648573 5.531762242578825 0 1 0
806 1 4.348657436555949 16.462609499170036 5.838653650354116 0 0 0
2227 1 5.778062901508365 16.54505484932387 3.974471434106741 -1 0 1
261 1 8.3448725989217 12.66568965414088 3.2755606305538256 0 0 0
1093 1 8.979961640142383 14.757441664063965 3.3701501219895214 -1 0 0
2600 1 9.054486607970226 13.094821100295917 5.555723156496203 0 1 1
831 1 11.377938306682141 14.237840744298692 4.203186229581201 1 0 0
342 1 11.595569704636583 13.54513334512213 6.4223210294632285 -1 0 0
563 1 10.464064768310488 15.811079616187849 5.474343221666941 -1 0 0
818 1 14.305975751740041 12.876306803904749 6.1779718181480305 0 0 0
1217 1 13.56523340456006 14.20219842267996 4.459586448061612 0 0 0
456 1 14.700728255999534 15.79946151357454 5.999514849953116 -1 0 0
44 1 15.596251816740873 15.4848237624143 3.9000465706583762 0 0 0
1997 1 16.63660884675793 13.533583596338337 5.13787493255486 0 -1 0
2558 1 12.433722836829778 16.27094865354036 4.5690086834986605 1 1 1
2365 1 17.875094228211353 15.438534698163615 3.329074895879421 0 0 2
1387 1 18.783406031534255 12.46799734641007 4.435231300485286 1 -1 1
2205 1 19.574122291163505 14.510877756934187 4.976187895074502 0 0 0
1006 1 17.251242415406523 15.681936004607161 6.04134540921998 0 1 0
2031 1 18.258752618785074 13.34558316572275 6.686679393139279 1 1 1
685 1 23.23670230732121 16.14473950394776 3.027998993861925 -1 0 0
2430 1 20.950756071394608 12.891071541959338 5.83345442312379 1 0 0
578 1 21.500434786502723 15.53949151713176 4.675287878242515 -1 0 0
1875 1 22.953775488857517 13.64342345392038 4.154023022834567 2 0 1
1624 1 23.821184901704072 15.98156744443308 6.091839658487538 1 0 1
1137 1 24.464549269018924 13.561931963475894 6.634648853194706 0 0 0
317 1 1.5759326596638066 18.008175163768826 3.553533435031533 0 0 0
2338 1 2.1536789889477563 18.347854433392314 5.8894763056166255 1 0 1
223 1 0.22168510939619335 20.600973260543178 3.837880985701544 1 -1 0
786 1 2.8824126456488663 19.96640278386981 4.451658707185235 -1 -1 0
24 1 0.05567107258127785 20.029115768440825 6.119122719566298 1 0 0
2627 1 3.6530426753901732 17.375156432046843 3.3561314558409894 1 -1 2
414 1 5.2797382630289915 19.09485111837523 4.8022723385410115 0 0 0
2194 1 6.361617277127152 17.69557573846074 6.364570399351677 1 -1 0
969 1 7.507847091287375 18.8814432978958 4.317601838731413 0 0 0
1842 1 5.606092616036781 20.5670709718233 6.344065074544137 0 -1 0
2528 1 8.324202276326035 16.710668750969525 4.646085003013435 0 0 0
325 1 10.68527771778867 18.034019437684123 6.16194929225723 0 0 0
936 1 9.675968125844358 19.107474159359107 4.531301691059786 0 0 0
1490 1 8.46115698184006 20.807959632736747 5.364087413179298 0 0 -1
156 1 11.852101307551552 20.263834956381153 5.781694354401615 1 1 0
2087 1 10.64290150877009 16.754565131815966 3.1805020074178136 0 -1 1
191 1 8.388586726387585 18.846799473179594 6.639641095824636 -1 0 0
42 1 12.618017447716955 20.6487855003994 3.2331099021692795 0 0 0
124 1 15.16555944637913 17.92961471943044 4.242208121828501 0 0 0
256 1 16.15359481754023 17.85520957973705 6.464653371040956 0 0 0
717 1 14.399443146777632 19.992606520239896 5.005309470837355 0 0 0
1375 1 13.218859405370328 17.93812391778384 6.452171535844435 -1 -1 0
48 1 16.57913671348117 20.187601528841867 6.205519124458054 -1 0 0
1382 1 12.568267261533856 18.509786310505632 4.525081491982986 1 0 0
1922 1 19.507636701350577 19.729460050854478 3.763094744442186 0 -1 1
1645 1 19.60308133522515 17.041606902851434 4.946706455278447 -1 -1 1
2535 1 17.489180094227358 17.878903740680705 4.449264801628751 1 0 1
297 1 18.71290626827527 19.423153974778614 6.314021427422128 0 0 0
618 1 17.320589658843588 20.214216332408412 3.987558943837742 -1 0 0
470 1 21.58302214738137 20.477622135328737 3.277045384612931 0 0 0
1539 1 21.589719615375593 17.96057722261228 3.8839066159408957 0 0 0
1468 1 25.116866687469283 18.199526829831008 5.005922009780658 -2 0 0
260 1 21.68452205789704 19.43031732019255 5.663354419588457 -1 0 0
524 1 23.519797301243948 20.186059368397196 4.747290785350689 0 0 0
291 1 21.38635581513273 17.034754491028586 6.1954928326497445 -1 0 0
2104 1 2.0758842588296673 24.541148379010103 4.333461799439115 0 -1 0
2622 1 -0.26650193593197075 24.626618492186324 5.510614502951714 0 -2 2
1548 1 1.6699408257905541 22.342084798749987 5.2655434261549505 1 0 0
1601 1 3.876362589901582 23.750835025074252 6.18503101560108 0 -2 0
83 1 0.6618248063987031 23.153858141412023 3.0542905094253525 0 -1 0
1628 1 4.997485771608349 24.756144344475963 3.9155746691811917 1 0 1
2605 1 4.481758733822722 21.750647231335392 4.672848905512998 0 -2 2
1139 1 7.233211804517902 23.09686224027184 5.2742425108289 0 1 0
228 1 6.5131545836888565 21.065481261692646 3.886473349196531 -2 0 0
2037 1 8.05400979349617 22.591349515191958 2.9710452823117484 1 0 0
1789 1 7.298660337640867 24.96913426043153 3.6274577800942702 0 -1 0
2490 1 5.591032188019319 22.921236584919214 2.998937317748897 1 0 1
236 1 10.667828281827765 24.598016994023517 6.017476409556052 0 -1 0
350 1 9.84595398723515 23.776144098336424 4.084537397047731 0 -1 0
686 1 10.074555512084064 21.330034612055215 3.854587770207403 0 0 0
165 1 10.076206400236059 22.283010242794795 6.365784214545444 0 0 0
611 1 11.86159605500631 22.868134369516966 4.552968367585123 1 -1 0
316 1 12.443206410922807 24.480978032837562 3.1157902062145677 -1 0 0
1840 1 13.202009922863889 24.55357156122536 5.881267674919837 1 0 1
307 1 14.569280854752396 22.555791204186455 5.607951451008255 1 0 0
2459 1 14.945360805382828 21.659302625895513 3.2359657959415666 0 0 1
1517 1 14.73703804303387 24.020901902633078 4.01909434617006 -1 0 1
1615 1 18.485875147785556 24.912758732410097 3.461869686109724 0 0 0
2332 1 18.089216927543177 22.221087762468308 5.17741831217792 0 0 1
1044 1 19.732531964557374 22.01448519042838 3.446925362185012 -1 0 0
1684 1 17.53022035508026 24.82864255978115 6.0579498584144815 0 0 1
2411 1 20.388565231103286 21.427529211622804 5.784350126692484 -1 0 1
2583 1 19.857269189865754 23.961596684513438 5.361268619851197 -1 -2 1
677 1 21.917231821369164 25.090611217623668 5.629279233599662 -1 0 0
1910 1 23.41225490335146 24.571832560195986 3.537792335472372 -1 0 1
2576 1 24.598958266200754 22.236527743509377 5.175085110089656 -2 -1 1
2704 1 22.275244131840346 22.755626379496626 4.952838798376966 -1 1 1
104 1 21.141045941561096 25.086897747148235 3.292834873557261 0 0 0
1088 1 1.7223943686363712 1.1985315555698817 8.39302427417615 1 1 0
2282 1 3.4315234945771436 2.4117926112884973 7.60307220892346 -1 1 0
820 1 1.0855180378939902 3.724357231564184 9.30085159374264 0 1 0
675 1 2.605955270652965 1.8231037362771163 10.522505444153357 0 1 0
2619 1 0.8797515436535108 3.6253097901940237 6.917741143974252 0 0 1
1329 1 -0.013849682899666205 1.5192705904220052 9.951413529917177 0 1 0
1948 1 6.122306715734177 1.5186943348285498 8.07084521773245 0 0 0
266 1 7.043506382174968 1.5688881896757667 10.089034401557475 0 0 0
1505 1 4.520609079095756 2.3565968104313817 9.624779612477369 0 1 0
2529 1 4.29101503933567 0.1844489104239837 8.62128302672821 1 2 1
1972 1 8.283166179895954 0.5296338429283581 8.086940741850619 0 0 1
2641 1 11.056090305323988 1.3011032329020975 7.056833756588314 0 0 0
2084 1 10.836939854765193 3.19940780527527 8.660963589278833 -1 0 1
1647 1 8.208503424036461 3.390578563908338 8.687619829079754 1 1 0
299 1 10.458822573676754 0.4715939846669476 9.277376216110788 0 0 0
592 1 12.535917432549079 1.7807815016817194 9.530069278032773 -1 1 0
2161 1 14.642721602084801 0.854117384991435 8.826310720083331 -1 -1 0
517 1 13.420788348098357 3.64361576618245 7.877110829191405 0 1 0
920 1 15.569028674489656 2.8929268613687524 7.361959681613597 0 0 0
1816 1 20.22003749993376 -0.21585180792292277 7.520139801665733 0 0 1
837 1 16.792827749221274 1.6519234184950917 9.97676117415032 0 0 0
255 1 18.862542031383683 1.7866888117336832 8.728705347716797 0 0 0
2155 1 18.25801186104198 -0.2037788068785067 9.900163950086625 0 1 0
2169 1 17.495431187701662 1.7905026244021633 6.968077002741145 0 1 1
300 1 18.15278657765174 3.786345521261336 7.912358791568865 0 0 0
828 1 18.817015489462563 3.5684123669598913 10.30149196809742 0 0 0
2207 1 21.074898994395546 2.0060693444218787 7.190161415948455 1 0 1
1616 1 25.097093389088485 -0.07182714791480133 7.883732976452852 -1 0 0
1239 1 20.95701251439217 0.8222878096592996 9.527153973967813 -1 0 0
2690 1 22.534147138801792 3.355172164387883 8.61834600650036 -2 1 1
105 1 24.971676529240575 2.286369571640725 7.955036544335917 0 0 0
2015 1 23.172650863188323 0.8774785226923512 8.480710320930218 0 0 0
483 1 1.5336845892367246 5.873370796503826 8.783338761795173 0 1 0
2168 1 3.48482742967232 6.957218776906936 10.246089947304998 1 -1 2
2142 1 3.2956209370887763 7.454812884379362 7.865420110293589 0 1 2
1792 1 0.3105005004369966 7.98052275678079 9.899289819669367 1 1 1
909 1 2.9051335425311993 4.837230195038921 6.8158197561778024 0 1 0
41 1 3.7205229147101138 4.7645220840607445 9.55778213773522 0 0 0
811 1 5.357510327518846 4.32489802646621 7.570113963313072 1 0 0
2673 1 7.344062991386377 5.789156353216074 7.422544798656037 0 1 2
408 1 5.577489645033669 6.410281854497198 9.132051379519528 0 0 0
1467 1 6.471833399760548 4.2023670043177725 9.985604078659248 1 0 0
1358 1 7.877158966235079 6.110992165650612 9.89567512174282 -1 1 0
2494 1 9.99389576629418 5.404571743513361 9.296714546656148 0 1 1
652 1 11.021790960753437 5.859269680336809 7.246791473275572 -1 1 0
1393 1 9.025504601581156 7.047890943469297 7.838223631834085 1 -1 0
1326 1 13.19299710226419 6.99707047723601 7.521889241932528 0 1 1
752 1 15.013869110832859 5.909407937380084 8.477136179540778 1 1 0
474 1 16.090040332579633 4.032696443409981 9.540129660833928 0 1 0
2452 1 15.286418049431704 7.982658107036844 7.412370085601677 -1 0 2
207 1 16.622154007132494 5.601742385009989 7.114359441802877 0 -1 0
1691 1 12.412685191490947 5.258982401226599 9.336531470056043 -1 0 0
503 1 17.446426797919948 7.6560657615411 8.644268633336496 0 0 0
1077 1 20.667970203537656 4.262760463787443 9.02630239333689 -1 1 0
184 1 19.203026742792943 5.9785692790868366 7.606775974568542 0 1 0
378 1 18.978329234718736 7.228883069417925 10.300384518067194 0 1 0
324 1 17.608022180825984 5.725979779351311 9.67260675007195 0 1 0
622 1 24.783277178453694 4.5921044222613565 8.135569800480729 -1 1 0
876 1 25.107899610121535 5.672616835846949 10.147157766004778 -1 0 0
2434 1 22.726132673848227 5.964551043204999 7.9014314723408745 1 0 0
2707 1 21.406433269562 8.117018799808822 7.107307954504697 0 1 1
2620 1 21.087730537699343 6.9034447540012565 9.682603005601415 0 1 0
446 1 23.933331688251783 8.004125011991825 8.023213616099696 0 0 0
849 1 22.71358611271154 5.094559981243741 10.384907916096799 0 1 0
1982 1 0.7558583429729591 8.234055543746633 7.100194389353656 1 -1 0
1991 1 2.2409382797911674 9.07412157032138 9.38898670055372 0 0 1
241 1 2.377321854921612 11.113893928720325 8.514628061545498 1 0 0
559 1 0.10327713929310961 10.24598043825796 8.611730280176086 1 1 0
1541 1 0.035148475938044654 12.388851998064164 8.497476139536428 1 -1 0
847 1 6.6555615528242935 8.207633683365579 8.039491524908442 0 1 0
655 1 5.666641645332048 8.624604741131895 10.597980015436711 0 0 0
2333 1 4.536425720066849 9.851262629412682 8.586325023810186 0 0 1
2662 1 4.040601381704453 11.779585475782765 7.082368491990391 0 0 2
1020 1 7.038248361523528 10.505185686957251 8.608336397269031 0 0 0
203 1 7.995163640645151 8.3081418410505 9.99777358887392 0 0 0
704 1 5.960984454836478 11.508840296038334 10.496014628747936 0 0 0
163 1 9.23356723365504 9.373118612431142 7.401363372141427 -1 0 0
478 1 11.945296461384725 9.403513418186035 7.50446713938193 0 0 0
2502 1 8.641966087808493 12.395845067223036 7.846299758749452 0 0 1
1378 1 10.433780368410835 8.239484626082632 9.030169105769255 0 0 0
276 1 8.437607882286327 11.739403045650375 10.43257899164876 1 1 0
900 1 10.106555445213973 10.900804602305366 9.211247840915128 -1 0 0
852 1 12.565319075755728 10.713314099419375 9.679727677928188 -1 0 0
425 1 13.06540462141163 11.813225905068014 7.8230373621505045 -1 1 0
804 1 14.615003159131282 10.225366769168124 8.869952744722566 -1 1 0
192 1 12.702153163700599 8.2785670253233 9.56576537589721 0 0 0
451 1 16.553865841397553 9.03848723218151 10.539014066040112 -1 0 0
1319 1 16.883414173925857 10.273216299960733 8.06590245748227 -1 1 0
25 1 18.36693784635098 11.989438183508883 8.765423724114317 0 0 0
1229 1 19.707595261993113 9.079338097336066 8.870126799959646 0 -1 1
738 1 20.401793695984594 11.164190978095625 9.752815435773611 -1 1 0
1555 1 16.963475242358726 11.332668209560898 10.42188913984618 0 1 1
212 1 23.45200081110346 9.97133599617696 7.1463874449543345 -1 0 0
2587 1 21.293626104912015 10.633301885072543 7.370560157314525 0 0 1
963 1 23.43209439676086 11.281043817830586 9.113020736513755 0 1 0
2326 1 22.35604787470966 9.21420104114891 9.332040959494293 1 0 2
2373 1 1.8216746049657049 13.233976614976607 7.020864058202005 1 1 1
1573 1 2.683092845055043 15.685872508640488 9.798631809944705 -1 0 1
1339 1 3.9130125770751576 14.30542334756244 7.669541252195186 1 0 0
110 1 0.6735277772713029 14.952104192993971 8.81182341061811 1 0 0
2174 1 3.846867313154287 12.857540371685257 9.579144139298645 1 -1 0
888 1 5.0174627126978075 14.81187017520355 10.040212516111671 0 0 0
153 1 6.925718028811372 14.707069098954433 7.296266273995206 0 0 0
1265 1 6.378335465414947 13.064925939618783 8.881232962591618 -1 0 0
911 1 5.659651350127397 16.3427052981487 8.182350033993888 0 1 0
1790 1 11.180087581763445 12.995656034322092 9.107400646813009 1 0 1
1398 1 8.654064815685333 16.286257583761675 7.038902400204951 1 0 1
810 1 9.976209428939905 14.485202960223324 7.735822949870779 1 1 0
615 1 8.30787094250018 15.0813327982212 9.263269304172116 1 -1 0
1118 1 10.956382310134712 15.275863407238813 9.667489100676885 0 1 0
1049 1 11.363596323616425 16.414524096870764 7.606968629413197 -1 0 0
1718 1 16.070001926567215 12.40797319798625 7.228291159681376 0 0 0
1731 1 12.678654068158366 14.370018042852928 8.516829593089028 0 0 -1
275 1 14.33925218944025 12.80333886851133 9.678656984650203 0 0 0
1198 1 13.63295402406717 16.431986168567647 8.026219285702407 0 0 0
457 1 15.296740886615556 14.404154921684553 7.556480780039349 0 0 0
2320 1 14.886422639469778 15.204796251550748 9.932790581840699 0 0 0
202 1 15.913992032091604 16.608198938936226 8.394349537895135 -1 0 0
2602 1 16.99390844088066 13.583500639404953 9.16745376502577 0 -1 1
2697 1 20.564453957143378 13.403781847725194 8.301747378977554 -1 0 2
749 1 19.618504172528155 15.692152695550908 6.963458931590221 0 -1 0
196 1 17.990521902434153 15.588112105455076 8.57734610086635 0 1 0
1177 1 20.27933779838132 15.407075247659005 9.200598414415369 -1 0 0
1607 1 21.85842225616912 14.847896375836536 7.009431685612626 -1 0 1
839 1 22.651398468187132 12.517338219870545 7.5800286682894 0 0 0
1771 1 22.121905799403926 13.224364285357074 9.805103079130706 0 0 1
84 1 23.713111241776907 15.187523687852927 8.27756551289141 0 0 0
1818 1 0.13566294506130833 17.3672982356224 7.619636077544897 1 0 0
1057 1 1.4271928450527898 18.367618964830108 9.621161403466134 0 0 0
568 1 2.890352316781619 17.0377431794318 7.901403739600324 0 0 0
88 1 1.8531497588361034 20.227089289715813 8.126134453609835 0 0 0
853 1 4.144351319250221 18.70521558596046 6.775535396831932 0 0 0
80 1 4.360332198866827 20.733955719026582 8.834689368713214 0 0 0
188 1 6.49575944895336 19.226615254498476 8.25265182055772 0 0 0
612 1 7.793243067536478 17.437076015400386 8.74149431436835 0 -1 0
2080 1 4.178010821305333 18.41333796480015 9.145080591332126 1 0 1
1699 1 8.177478739702092 20.012156769412897 9.8273946313514 1 0 0
453 1 9.900295261031012 18.258968400285774 8.509016958076298 -1 0 0
938 1 10.483502910012623 20.10897401889521 7.325039998625308 0 0 0
400 1 12.36414510211923 18.898303291313816 8.201377645803454 0 -1 0
497 1 11.307452911075034 17.906165732592314 10.182041095086719 0 0 0
2658 1 14.269165137052623 20.747441394146257 7.311341024926037 -1 0 1
1138 1 15.020323972532012 18.662207097215912 8.440588511977857 1 0 0
691 1 13.89000370928007 19.130636018778773 10.542150721172426 0 -1 0
379 1 20.267289508471308 19.13853632716568 7.8265895661420775 -1 0 0
71 1 18.207057158381986 17.609288890649395 7.52195452105554 0 0 0
1692 1 17.2052879999084 17.195242576797874 10.256698458501367 0 1 1
2450 1 17.15973173753784 19.371132105299303 9.05021621652024 -1 0 1
362 1 20.136432304483215 17.701792261366812 9.831320444276905 0 1 0
718 1 23.320487028750698 18.35163793883123 7.3823530638509105 0 1 0
645 1 24.550799389863165 17.567568068890004 9.587557047015657 -1 0 0
384 1 25.125330192032976 19.74759639713784 8.518188839923809 0 1 0
310 1 22.490292647291987 19.40917661566553 9.164242242425837 -2 0 0
1158 1 22.008733217701206 16.810012120939156 8.720708840211739 -1 0 0
2685 1 1.6708744130601207 24.38834192721503 7.189143393283892 1 -1 1
841 1 2.034148907373952 22.752382002155343 8.802922342037238 -1 0 0
68 1 3.120896842960038 21.549053240383834 6.907634152972399 0 0 0
2261 1 2.9258538898137165 24.73976573612788 10.215392308872637 1 0 1
60 1 3.6200000504032195 22.31416209870153 10.557004790134236 0 0 0
639 1 -0.2292070883102627 21.94937492816156 7.391701378994497 0 0 0
1532 1 0.42111522790714384 21.36170037159883 9.741436904796416 0 0 0
886 1 -0.05906859425123656 23.88747574872967 9.479100266769365 1 1 0
2250 1 6.178733833557455 22.44966223681798 7.637171016531711 0 0 1
1653 1 6.160975606107856 20.90559292668913 10.365882343026563 -1 -1 0
1219 1 4.341432371721706 23.467251185136725 8.742313884939339 0 -1 0
2666 1 6.532802544461264 24.920484216403757 7.711685264261413 1 0 1
2280 1 6.10470757538979 24.42394319294813 10.005411416493926 0 0 1
1075 1 7.977696743444392 22.823573434603617 9.651640089273567 0 0 0
341 1 8.223296694036186 23.632856358370077 7.372839673948799 0 0 0
1376 1 10.070550783477609 21.22799745135635 9.498544367345632 0 -1 0
975 1 12.144280513874897 20.908961308053442 10.302014593678635 0 0 0
545 1 12.269927690555702 21.879476379070837 7.773487415682367 0 1 0
2568 1 8.184064374855499 21.144593930967744 7.738816218427321 -1 0 1
2361 1 8.308717174034188 25.104606533217563 10.46746846904135 0 1 1
486 1 10.054149164408118 23.428184918817948 8.660017662022334 0 0 0
576 1 11.403247542469789 23.62916977370533 10.471436231897762 0 0 0
513 1 15.606568357955421 25.105857049855906 7.067998748172432 0 0 0
1969 1 16.4981432360334 22.694204840748334 7.040314039251415 0 -1 0
1028 1 14.199424961268262 23.203331107653447 7.838326624691576 0 0 0
442 1 13.839943076378812 24.325497701443318 9.900111711974363 0 -1 0
1279 1 12.524137469404916 25.093994891967967 7.883595118090254 0 1 0
2671 1 14.231959144976654 21.74174543010311 9.52126039772424 0 0 0
2045 1 16.065331204496985 24.114131152525417 9.161029232164106 -1 -1 0
1797 1 20.659402020938067 21.505337844343593 8.60160699810199 -1 0 1
1054 1 17.12961243266256 21.883572701231415 9.393154419381819 0 -1 0
2505 1 18.514175080013302 21.591066781559427 7.392822527695712 0 1 1
2334 1 18.271450486934036 23.922577531931175 8.01251614948445 -1 0 1
539 1 20.077587162231126 23.81665192054944 9.694213712464663 -1 0 0
2417 1 23.012032252516136 20.903225001756205 6.891148655889461 -2 0 1
213 1 21.64615352545127 23.308815776183927 7.849091119869881 -1 -1 0
2188 1 23.774175547298142 23.80701261937378 7.132161515780251 -1 -1 1
857 1 22.88076030997098 24.07248403545735 9.875528430302106 -1 0 0
536 1 23.376076963215638 21.513667195804942 9.08906636589346 -2 1 0
2708 1 1.034168381063407 1.2204273997968205 12.462706627880218 1 1 1
1337 1 2.2631791646106634 3.4476974528126494 14.413761783801297 1 1 0
176 1 3.6010715819064396 3.4415604490513916 11.832454490851779 0 1 0
323 1 0.7091131454884787 3.3406688770492226 11.812456168000608 -1 0 0
1059 1 3.454195165248618 1.3765179254624864 13.2258528909854 1 0 0
949 1 6.202195089157496 2.84511392227564 11.724308756215912 1 1 0
2630 1 7.402704796201068 0.9404170183310665 12.668249167632377 0 1 0
394 1 5.216550822396814 -0.32121486069957544 13.992551685912115 0 1 0
747 1 7.214162052438234 2.6804730482469226 14.06960264184792 0 1 0
37 1 4.87144303649389 0.4382409268225208 11.228142630247403 1 1 0
1363 1 9.238803502982902 1.8204020875374196 11.028245090129227 0 1 0
1937 1 8.41467361310925 3.8370179715761683 11.294998404402373 -1 0 1
1565 1 11.814503614044698 0.9780890261672741 13.6012802156382 1 1 0
844 1 11.765502680376313 3.5129796179669173 13.831488340692593 -1 0 0
772 1 9.568590990520022 2.506336320838031 13.752900160084954 0 1 0
370 1 10.124370038703606 0.11459322825586338 12.129663382145038 0 1 0
2640 1 11.375434985188281 2.2580160682388057 11.328439773935466 0 0 1
1080 1 14.49179780852703 2.6868914208455337 10.60788625165415 0 0 0
824 1 15.372448461081314 0.37331447226673276 11.23777226705787 -1 0 0
429 1 16.329459202738384 1.4403383394961142 13.33970817241114 0 1 0
498 1 13.94455899914461 2.5310671390794477 12.93470470937978 0 0 0
248 1 15.844793920504776 3.8899445240361494 12.05502968255747 0 1 0
648 1 13.007154303962547 0.41574049484921227 11.401995428956665 0 1 0
154 1 19.61415441054826 1.4230951174813586 11.327861711066312 -1 2 -1
922 1 20.431275053542045 -0.2510832669542111 13.89852380881705 0 1 0
2396 1 18.95736406636403 1.4834995651921334 13.759242636556769 0 1 0
1871 1 19.793103464181883 3.5007054459472973 12.800970715312904 1 1 1
960 1 17.853123333715082 2.74097692441757 12.062808648193672 -1 1 0
336 1 17.769102126309342 0.24647847998033168 12.093214745400795 0 1 0
657 1 23.496738509157105 0.7493769627538867 10.774102863795253 -1 1 0
3 1 23.868929028081155 3.2081076181393056 10.79110496850784 -1 0 0
583 1 21.226486244512678 -0.2463344151896294 11.697815894575271 -1 1 0
1777 1 24.213887507301386 1.9755182460943401 12.915528815021379 -1 1 0
1819 1 23.36757255950878 -0.17738886282089522 13.490433572375215 1 0 1
799 1 21.74177930370476 1.3949408482678363 13.092806900658388 0 0 0
569 1 22.478335253191645 3.651185355116098 13.557271792145428 0 2 0
1540 1 21.4393614419296 2.8359714939991645 11.062339525333137 0 1 1
2350 1 24.941316521262358 3.7814334284685884 14.374581157608878 1 1 0
873 1 3.398473017416533 5.2035796253279845 13.78405018551486 0 0 0
565 1 1.8361220653802697 5.19383320786268 11.360232925360311 0 1 0
1751 1 3.320479063488969 7.447516488529861 12.879331534153991 0 2 0
1453 1 0.8665920139698986 5.954780378663727 13.596620922439293 1 -1 1
231 1 1.358637730437371 8.069350944382796 14.091254052078709 0 0 0