LAMMPS data file via write_data, version 29 Oct 2020, timestep = 200000

2160 atoms
1 atom types

0.37540225117162684 20.888597748828513 xlo xhi
0.37540225117162684 20.888597748828513 ylo yhi
3.301149310372047 61.74942412081917 zlo zhi

Masses

1 58.933

Atoms # atomic

2 1 2.37721070670101 1.672590659727022 3.941705433668406 0 0 0
8 1 3.9687931787913273 1.8885317314595196 5.810061059715112 0 0 0
27 1 2.048513341647296 3.35331373568773 5.741593028115684 0 0 0
30 1 3.814689505756847 3.6870459560877045 4.048022422111035 0 0 0
4 1 0.654675802423411 1.3061101438667477 5.594652205311753 0 0 0
25 1 0.3784105700623872 3.208860912866035 3.856859027227776 0 0 0
6 1 5.125854134857301 1.5445027247915448 3.786183873313687 0 0 0
33 1 6.896794350260968 3.556174753330136 3.907245266350206 0 0 0
12 1 6.833955255609492 1.8648756664197652 5.688901832931984 0 0 0
31 1 5.394877324080152 3.8184204075210864 5.821150210485596 0 0 0
35 1 8.44949373100993 4.024366080995129 5.77456842890996 0 0 0
10 1 8.82404722374563 2.100951373367578 3.9858440352799875 0 0 0
16 1 10.39340268272461 2.517086799581493 5.8504749147880215 0 0 0
37 1 11.303095266461828 2.0236481745547543 3.7192328262414183 0 0 0
34 1 10.07494374789051 4.089052013399682 3.9655540856076352 0 0 0
11 1 8.883649611313547 0.5611587664086939 5.956752847054628 0 0 0
38 1 12.671593850631023 4.100808565648018 3.561821317768337 0 0 0
40 1 11.892984375345577 4.582102956482438 5.943154844767534 0 0 0
39 1 12.87889130013876 2.382717945828888 5.608576097907719 0 0 0
41 1 14.871274023195237 2.6254170807636736 3.8995733989156625 0 0 0
20 1 15.017974001956482 0.9629458647568596 5.6522295452839755 0 0 0
43 1 16.415481141626877 2.9004660214006006 5.74069700354999 0 0 0
14 1 13.211259415331671 0.5877070742271153 3.8395258866533633 0 0 0
44 1 14.346490393411727 4.439659321135542 5.631162516048861 0 0 0
18 1 16.02061346353102 20.840738623864432 3.480675308684984 0 -1 0
45 1 17.611109404480032 2.3673307396682333 3.550560536425486 0 0 0
47 1 19.06790252056755 2.752315698350049 5.503072292522981 0 0 0
22 1 19.599361046720283 1.1274205916863935 3.7696089360415743 0 0 0
24 1 17.650834619858685 0.5269621357187709 5.336135231544402 0 0 0
169 1 20.603507979580108 2.9791367927889443 7.328236629118141 -1 0 0
46 1 18.86940230180206 4.544487178358109 3.5328715768778545 0 0 0
166 1 19.09741420000899 1.152591944998059 7.409930185263965 0 0 0
26 1 1.817987322358979 5.131405432193875 3.8066295795107212 0 0 0
53 1 3.453702059503413 7.192868425911031 3.652509681185131 0 0 0
32 1 3.3933963026711713 5.425984532339122 5.685993564199576 0 0 0
51 1 1.4594104185210766 6.929087454953395 5.391410712703225 0 0 0
50 1 1.3062481774229082 8.438229677247119 3.48577660840217 0 0 0
197 1 2.9876212392838952 7.259633288036591 7.382372856860541 0 0 0
170 1 1.5263781680354085 5.175613879794723 7.409970175455504 0 0 0
55 1 4.847389046026308 7.408117102059099 5.605877693281968 0 0 0
57 1 5.237853187033192 5.40485908461717 3.8851751341599234 0 0 0
36 1 6.818425762033943 5.816657075830177 5.8968887819112705 0 0 0
60 1 8.203551987605323 7.640959797393648 5.852862856036365 0 0 0
54 1 8.16187670113599 5.6488253567673 3.7359273569629585 0 0 0
1632 1 6.504404258346163 7.267166785016606 3.9872256562125092 1 0 1
59 1 9.740475783223522 5.932428758081357 5.628884378432263 0 0 0
61 1 11.624036426701261 6.094000726051421 4.060739529321414 0 0 0
58 1 9.623487599109897 7.655011416565608 3.706845036153708 0 0 0
64 1 11.037366733708025 7.9589584810581515 5.797168198111631 0 0 0
42 1 16.262091008594716 4.618686249365542 3.896822060658822 0 0 0
62 1 12.98766747248991 8.053080011652778 3.9916015751644713 0 0 0
63 1 13.252033207521686 6.545486288565402 5.829897887246358 0 0 0
65 1 14.166296945792745 5.978671026006919 3.592647944494406 0 0 0
67 1 16.009460257636846 6.543213606716362 5.6062466315108415 0 0 0
66 1 15.61326090083933 8.112023249571553 3.5656442184561716 0 0 0
68 1 14.618643339201691 8.660903656730692 5.823986198879563 0 0 0
28 1 20.360208250121737 4.907754205829094 5.470673498518501 -1 0 0
48 1 17.9498740877645 5.096674562621453 5.874583972253807 0 0 0
49 1 20.290384408171178 6.46645656225069 3.461540252939765 -1 0 0
69 1 17.76114934767798 6.74008672255901 3.8051833170747904 0 0 0
71 1 19.347858213441263 7.142715772606349 5.7029734733628175 0 0 0
72 1 17.273985598081552 8.514003886244346 5.441635585211678 0 0 0
56 1 2.9422355450565867 8.948813368946254 5.467395357127421 0 0 0
74 1 2.7138200781217177 10.464186255041147 3.5046716361906736 0 0 0
75 1 1.7986170987103696 11.084766763740191 5.814219176857046 0 0 0
80 1 4.273405996773482 10.94323420371159 5.4642558708259426 0 0 0
101 1 4.346675457551696 12.554047866853065 3.5605662190191176 0 0 0
97 1 1.7226674552119425 12.670415057756271 3.9559732302140116 0 0 0
198 1 4.668324440229697 9.210776995579181 7.333364413867266 0 0 0
77 1 4.752515152427374 9.02664003486758 3.6824045086094026 0 0 0
81 1 7.659533855065808 9.172333511543211 3.660624836761999 0 0 0
79 1 6.349138353170865 9.398601570072293 5.688583963398047 0 0 0
84 1 7.770040017624921 11.561957634249808 5.66255072990975 0 0 0
78 1 6.154234751102194 11.083501614470151 3.7500101860974024 0 0 0
103 1 5.70286996453918 12.971464388698617 5.619089328300776 0 0 0
85 1 11.00259586661903 9.646732086348056 3.6499801177712436 0 0 0
83 1 9.226458049212079 9.651575185585893 5.4621226985525695 0 0 0
88 1 10.5723618371246 11.517164872932119 5.446646949571545 0 0 0
86 1 12.311593604789998 11.602953869531435 3.7505378948198 0 0 0
82 1 8.96883779877399 11.116075477503474 3.5200240840706285 0 0 0
230 1 12.301978581755568 11.70333015551311 7.330852028709908 0 0 0
87 1 12.50285998651651 9.932267303048354 5.646998392153128 0 0 0
89 1 14.374740538550082 10.118031634020861 3.763670341306911 0 0 0
90 1 15.781455064396166 12.284957904604902 3.823486556440989 0 0 0
92 1 13.981053221054863 11.844523700129239 5.549587869884334 0 0 0
91 1 16.084901114518217 10.572001947124653 5.855358412059772 0 0 0
234 1 15.499261720044831 12.373504590491113 7.419763911338611 0 0 0
70 1 19.32309325297276 8.600864458006937 3.724653355711108 0 0 0
52 1 20.77821920195236 9.11605380913608 5.780709743173612 -1 0 0
93 1 16.952574907468815 9.989082364006933 3.533991435107323 0 0 0
73 1 20.66242680859225 10.69366835548763 3.877502519820705 -1 0 0
95 1 18.629288492526875 10.523441477291003 5.431137948539608 0 0 0
94 1 18.246082002228277 12.212052812343366 3.669341556952582 0 0 0
76 1 20.14917493294312 12.403950884252724 5.583917074672389 -1 0 0
96 1 17.31456298557903 12.610944454588664 5.843777800748459 0 0 0
99 1 3.14116588288544 13.045007020601213 5.799593696210302 0 0 0
98 1 3.0379690182542394 14.77647215638241 3.9261243758813777 0 0 0
100 1 0.9910830228507608 14.503808549418343 5.597270525080604 0 0 0
121 1 0.9063349089124829 15.946099172693211 3.528001401189323 0 0 0
123 1 2.447579823341392 16.41190535482955 5.653591819855423 0 0 0
125 1 4.482467239924928 16.755426081273818 3.823552946002839 0 0 0
104 1 4.750317198445959 15.21274326796151 5.833064910414711 0 0 0
105 1 7.589458164204511 13.201526882286512 3.7515946038774195 0 0 0
102 1 5.677267032784603 14.52543289497579 3.6198661924561155 0 0 0
108 1 7.261700145430495 14.97040883818257 5.475888012123974 0 0 0
129 1 6.977484462311837 16.47149825511022 3.324751489006741 0 0 0
107 1 9.07237903055426 13.455258571292521 5.835735536648372 0 0 0
109 1 10.160058103691874 13.102608652637802 3.405246590271775 0 0 0
106 1 9.139032226730567 15.260756913050114 3.7217979667485888 0 0 0
112 1 10.585562239038218 15.455272438181098 5.708363555105044 0 0 0
111 1 11.84940036307852 13.407774476038286 5.350378170688483 0 0 0
110 1 11.657988187225847 15.128111732177082 3.463794599054084 0 0 0
114 1 15.166987855708236 15.77891385153684 3.7072559560157785 0 0 0
115 1 15.322313235925707 13.954278422209274 5.4727343161213895 0 0 0
116 1 13.184574376326188 15.388681898218364 5.353553709687573 0 0 0
113 1 13.560623877278843 13.662898275964753 3.6002183527320484 0 0 0
257 1 13.438974143227831 13.80855005483428 7.139670115357907 0 0 0
258 1 14.89158121035912 15.777317234536673 7.052776576014788 0 0 0
120 1 16.742848375665766 16.034534168897395 5.662033986569018 0 0 0
117 1 17.28883051018272 14.305419686745768 3.8441259299656143 0 0 0
118 1 19.89665165687908 14.06258797044437 3.578710631981808 0 0 0
119 1 18.865000432084706 14.664590440127865 5.7696871464673745 0 0 0
141 1 18.773878045627896 16.301796377781987 3.9571019642269674 0 0 0
143 1 20.491105038501452 16.669456474877165 5.765562987468009 0 0 0
5 1 3.596380974353798 19.971786794158106 3.671347535122951 0 -1 0
3 1 2.6866443308264527 20.41241023734733 5.828328918097723 0 -1 0
1 1 1.0928100250230894 20.149780941544172 3.8115479940549135 0 -1 0
122 1 2.2385269845794205 17.953592488989486 3.7756651998084583 0 0 0
128 1 3.9461841400212836 18.32626274524523 5.593418697502273 0 0 0
124 1 1.260538299707076 18.581148242017164 5.846900872551501 0 0 0
9 1 7.313101800842729 20.704935509508694 3.8224346611572075 0 -1 0
127 1 6.112823297906399 17.163633190758574 5.631764680149773 0 0 0
7 1 5.158348104205469 20.301834450936 5.682032382735578 0 -1 0
126 1 5.670852806089773 18.871892687951807 3.9096603874366522 0 0 0
132 1 7.350670306501684 19.198500366529224 5.893643950702637 0 0 0
130 1 8.251938667428078 18.465001490860686 3.574957039310946 0 0 0
131 1 8.596726477792137 16.885483880592105 5.535751274270125 0 0 0
15 1 11.389548152583112 0.47388675913983747 5.481099141847529 0 0 0
133 1 10.416157301073731 17.33090503637777 3.8708678802326992 0 0 0
13 1 9.800458858029018 20.45491980175987 3.557202883551215 0 -1 0
134 1 12.004305595815822 19.13603149242499 3.6986866055379024 0 0 0
135 1 12.019846585380288 17.51155537980111 5.556084646855911 0 0 0
136 1 10.006663265914026 18.87381412832223 5.550752955908413 0 0 0
278 1 11.617910312188817 19.278010319630084 7.4552831655654765 0 0 0
277 1 10.244741739248282 17.250768127301107 7.412342520120929 0 0 0
137 1 12.98675562401094 16.999789099228906 3.398270674393451 0 0 0
17 1 14.489487183360524 19.03406138549191 3.5045981828032824 0 -1 0
139 1 14.59998489212942 17.417056984783322 5.343753258401849 0 0 0
140 1 13.457932260558435 19.5290218541531 5.677535945860498 0 0 0
19 1 16.17798610088881 19.139282189244952 5.2717288155278075 0 -1 0
138 1 16.66642756759618 17.591068637928345 3.48035112073526 0 0 0
21 1 18.139127319835794 19.473207782186385 3.684329444419368 0 -1 0
23 1 19.79854827946442 19.941953915328256 5.761233299818926 0 -1 0
142 1 20.206289671300397 18.27487029091656 3.9735861723159527 0 0 0
144 1 18.349462682111223 17.962584506319274 5.5888165846541735 0 0 0
146 1 2.1985140576012157 1.7912295468186323 7.549152262107187 0 0 0
173 1 3.714678591051193 3.7633864120272063 7.629389310821612 0 0 0
152 1 3.907203613035152 2.1267117970172196 9.665773484143152 0 0 0
171 1 1.7725393886713638 3.5426742520123855 9.207366124374888 0 0 0
290 1 1.9035171726240474 1.8627004663114113 11.235385027481877 0 0 0
317 1 3.4184536659218887 3.9188685095310003 11.197286519714872 0 0 0
293 1 3.9508193403989664 0.5842036714509333 11.559591246006907 0 0 0
313 1 0.9109055198937115 4.1248773764332505 11.560234990178019 0 0 0
177 1 6.971558484372925 4.266332722195153 7.802253655590012 0 0 0
150 1 5.665229520651053 2.2778740931942494 7.785495284992373 0 0 0
156 1 7.144764271194233 2.686089178092368 9.757779524275065 0 0 0
175 1 5.238353223717019 4.3333426171860445 9.622589414440302 0 0 0
151 1 5.758012422097909 0.7082521938926135 9.786841635078558 0 0 0
294 1 5.487368641789452 2.481652779363969 11.501971558470196 0 0 0
154 1 8.395690188947729 2.3526984793423864 7.585310561265364 0 0 0
155 1 8.779218691733147 0.807390436751681 9.401748968802387 0 0 0
179 1 8.549436660791503 4.527040098160175 9.66494574787291 0 0 0
297 1 7.317616096502765 1.062855282734405 11.636465262333603 0 0 0
158 1 12.08826901453076 3.06293089275381 8.04941042235115 0 0 0
160 1 10.128865398542333 2.598717878536609 9.554267105808309 0 0 0
159 1 12.31102954397206 1.3780316920516702 9.883846666364073 0 0 0
157 1 10.561515862334957 0.8983485653715646 7.8119803706722335 0 0 0
301 1 10.094425814082323 0.9913107281788227 11.664664323168228 0 0 0
302 1 11.710104213828874 3.26239790247247 11.62530497307132 0 0 0
298 1 8.843210208405559 3.0323842851138814 11.656572957755005 0 0 0
181 1 9.952714302665598 4.423780955473921 7.701866378220165 0 0 0
161 1 13.022700383190044 0.6720366648991143 7.581612375214907 0 0 0
185 1 14.572284073617787 2.7217803980718642 7.48171479507315 0 0 0
164 1 13.702958071530707 3.285649335564437 9.790874697929482 0 0 0
187 1 16.352718804265287 2.980371795812162 9.45739518295643 0 0 0
163 1 14.705500063095602 1.1508472779202346 9.395321945130929 0 0 0
309 1 16.34161247332797 1.5489340499645186 11.433346828280039 0 0 0
162 1 16.679280571949896 1.3276466890756935 7.640044365941469 0 0 0
148 1 0.39553077108826784 1.5799056657153419 9.32754539311621 0 0 0
189 1 18.128803413386272 3.510581651222468 7.74351716915048 0 0 0
168 1 18.360155233045376 1.6640548853506196 9.649724062743246 0 0 0
191 1 19.842176566760557 3.7950034275554034 9.554656855282667 0 0 0
333 1 17.845574237118818 3.547161289583673 11.351343073524676 0 0 0
310 1 19.98159309356518 2.158125511346257 11.518447770938767 0 0 0
176 1 3.161541246562524 5.63824182455075 9.310850568792496 0 0 0
195 1 2.108284407883586 7.921165711901641 9.705635346435468 0 0 0
172 1 0.7259165085797763 5.780740992961659 9.592003765438362 0 0 0
314 1 2.269061901327659 6.194484873425027 11.62556727693026 0 0 0
199 1 4.680771100136363 7.532917398425056 9.3890538534177 0 0 0
341 1 3.7416102313755375 8.212838950805024 11.699042825487833 0 0 0
321 1 6.8225487253094 4.623438084765133 11.618736167997046 0 0 0
201 1 6.733224585575565 7.7853351749012 7.770056010888461 0 0 0
178 1 8.357698669969968 6.139073072627081 7.820566211961116 0 0 0
318 1 4.773332072926343 6.026926925933668 11.411065724149237 0 0 0
174 1 5.083346061301089 5.96386220192757 7.550541985999952 0 0 0
180 1 6.641529314342659 6.178832838077999 9.687564243289458 0 0 0
203 1 8.008878339037066 8.17490240328127 9.722221187821194 0 0 0
345 1 6.204044158901225 7.985601379994839 11.339413738128165 0 0 0
322 1 8.281700436209718 6.505794545123278 11.569885517336898 0 0 0
202 1 9.564755234780366 8.079265277420308 7.839624532058326 0 0 0
205 1 11.543302888390894 6.286471137888425 7.702530458492224 0 0 0
183 1 11.654680751572437 4.74663180547977 9.707246286817465 0 0 0
184 1 9.941619151358381 6.415821033620429 9.667444546216998 0 0 0
208 1 11.2279090559541 8.39449196639485 9.58092571506718 0 0 0
325 1 10.036463698307031 4.9457947365255395 11.726251732812985 0 0 0
326 1 11.495819433882499 6.7530494247657025 11.564900077551332 0 0 0
206 1 12.742980982443294 8.412151929428255 7.678340663744221 0 0 0
207 1 13.018181892907462 6.716977185124374 9.629124307878293 0 0 0
186 1 16.01429785215973 4.772909193612954 7.498778714160697 0 0 0
182 1 13.584940091069063 4.99675051554947 7.96295669516753 0 0 0
209 1 14.792436330761525 7.152033827289561 7.7378556706101085 0 0 0
188 1 15.146189355460324 5.337245172842377 9.677784602999228 0 0 0
211 1 16.430820256083642 7.317338568296197 9.837918259105953 0 0 0
329 1 13.209287789062035 5.121890630890002 11.511481808628082 0 0 0
353 1 14.654486141091228 7.040451675163566 11.545288460791282 0 0 0
213 1 17.3478757807598 6.845398189534167 7.591101439844929 0 0 0
193 1 0.5154601738971181 7.443405914253359 7.618554441388742 0 0 0
192 1 17.675329877988197 5.156201218443327 9.468023206117373 0 0 0
190 1 19.435172963550883 5.439168515303387 7.7263020011224866 0 0 0
337 1 20.755011128077733 7.5578667382199045 11.5080726286684 -1 0 0
215 1 19.179109524410357 7.128567657708635 9.472165484972448 0 0 0
334 1 19.268646523642552 5.4057898148052415 11.410942634397152 0 0 0
357 1 18.147667390150794 7.583555547409243 11.583421165400173 0 0 0
218 1 1.2596252099480814 12.813971264716523 7.371153545483042 0 0 0
194 1 1.7450207121206747 9.532136403072746 7.789333732632503 0 0 0
221 1 3.3193410663795384 11.459084958972047 7.650149637925561 0 0 0
200 1 3.540446861385612 9.881577850320861 9.598458489351863 0 0 0
219 1 1.5924958455879004 11.183297097862221 9.501812238262865 0 0 0
365 1 3.0470031882540893 11.43443869271749 11.537696712346682 0 0 0
338 1 1.4803184560897273 9.598307925354279 11.379151353299692 0 0 0
222 1 5.867833793322251 11.326114637257312 7.4272622663091 0 0 0
225 1 7.915312161102889 9.897505608457895 7.571949884529018 0 0 0
223 1 5.074389630263032 11.883834050729737 9.7275702685183 0 0 0
204 1 6.075879128581478 9.66108056336967 9.356105910164164 0 0 0
228 1 7.554125241074005 11.562966280801753 9.418217313351196 0 0 0
346 1 7.76167552457727 10.023354126976706 11.399050829461798 0 0 0
369 1 6.686483024326719 12.412535750196968 11.650425730590056 0 0 0
342 1 5.286948158774592 10.209483929992723 11.640874875420376 0 0 0
229 1 10.781427696608624 9.993128095223748 7.350189665361574 0 0 0
349 1 9.758485191217558 8.455302026353882 11.571648648105706 0 0 0
226 1 9.453629539720666 11.899454590774246 7.753461443867745 0 0 0
227 1 9.41215413651183 10.090569652927096 9.584576479243383 0 0 0
232 1 11.024713507058994 12.228965363812549 9.638085580264573 0 0 0
370 1 9.217873862794141 12.179139116815302 11.332859870593756 0 0 0
231 1 12.366530785962082 10.350619349406315 9.332314996285831 0 0 0
373 1 11.131270176497079 10.502304821045136 11.512574924529611 0 0 0
374 1 12.713919883726009 12.52799452055839 11.450861961233626 0 0 0
350 1 12.82259757014291 8.677718866607442 11.50155857038604 0 0 0
233 1 14.25367640673529 10.217330230141052 7.670235311003227 0 0 0
212 1 14.465402987889002 8.675536942610606 9.700966652123785 0 0 0
210 1 16.260397773879426 8.984938941459001 7.907261622052563 0 0 0
235 1 15.743264566700931 10.96911712626232 9.608159463446839 0 0 0
236 1 13.681730971158643 12.245752775363348 9.256784775959067 0 0 0
377 1 13.978192873195932 10.611916474275283 11.23216594783808 0 0 0
378 1 15.326480217010436 12.58193258258976 11.377254879537146 0 0 0
354 1 16.022600572702416 9.122542225580629 11.577978208822929 0 0 0
214 1 18.832787029467383 8.760627693532136 7.510990151599136 0 0 0
217 1 20.27499979384224 10.91240643988416 7.500512292937405 -1 0 0
196 1 20.64040152842211 9.173358277337998 9.412043605395297 -1 0 0
216 1 17.726684189607816 9.236945148998144 9.81967961432247 0 0 0
237 1 17.768734649096544 10.89525732037832 7.824138980134235 0 0 0
381 1 17.440425877796713 11.200498381379013 11.490097628384046 0 0 0
239 1 19.482129528484734 11.376240621926845 9.900342408440268 0 0 0
240 1 17.26617277237974 12.704384245169672 9.514110971841157 0 0 0
242 1 2.590016222065495 14.726001855352562 7.559992407121815 0 0 0
224 1 2.85436735184279 13.325089136332679 9.72955027773671 0 0 0
243 1 1.6330688114790253 15.400473817355275 9.749638279267323 0 0 0
248 1 4.39272026688347 15.343838506700413 9.506965565027624 0 0 0
366 1 4.511929446831589 13.720884534385354 11.563938082434184 0 0 0
389 1 3.1821914529061486 15.663972061005323 11.733440434461755 0 0 0
269 1 4.168387481620256 16.828759752246206 7.6307680904333335 0 0 0
249 1 7.257435299177983 13.27586824564652 7.568260162973599 0 0 0
245 1 4.728731190797609 13.577405662717068 7.79148890656806 0 0 0
246 1 6.312422360346944 15.48694036822976 7.86996428191778 0 0 0
247 1 6.43512714451102 13.77533282582645 9.700788107400658 0 0 0
252 1 7.841727677764581 15.876132057633543 9.77324300343641 0 0 0
390 1 5.96128216798535 15.624077029201414 11.544349203241433 0 0 0
250 1 8.879651937599393 15.281767545924183 7.42249330289858 0 0 0
253 1 10.97124202171644 13.833038187956445 7.543492161056259 0 0 0
254 1 12.327251685335428 15.910904840123532 7.594046228598113 0 0 0
251 1 8.96896594776144 13.62392058088487 9.412039973175538 0 0 0
255 1 12.49562997390328 14.331630896694962 9.440890380885923 0 0 0
256 1 10.36184167056763 15.48919129506171 9.40480189776968 0 0 0
397 1 10.813386543013369 14.044682560396078 11.309532060470135 0 0 0
398 1 12.169901552785374 16.07634768713865 11.077029800200291 0 0 0
259 1 15.148006846580776 14.020280123873551 9.35533916703002 0 0 0
260 1 14.051266102513411 16.2815665523449 9.718316667629384 0 0 0
264 1 16.512230671891665 16.251999748072016 9.29310719978761 0 0 0
401 1 14.27685955775196 14.63233305957088 11.65742814291625 0 0 0
405 1 16.680281024804565 14.62110775678147 11.284794019335973 0 0 0
402 1 15.56531166830356 16.69031622888479 11.602518048931318 0 0 0
261 1 16.97518154151431 14.425314417524541 7.525181162005433 0 0 0
262 1 18.36113492697124 16.433866950188325 7.517928935417879 0 0 0
238 1 19.093536000141484 12.92499596930744 7.6674156865921015 0 0 0
382 1 18.746072001340075 13.209420126908498 11.47945772325166 0 0 0
220 1 20.750009881401958 13.460257500956736 9.714238464410368 -1 0 0
241 1 20.46278795176979 14.968021294179799 7.843239377382388 -1 0 0
263 1 18.482802075386367 14.779482112278462 9.426227354303485 0 0 0
406 1 18.11863358834708 16.474594345159645 11.2174043147728 0 0 0
385 1 20.220357616661026 15.104287503822018 11.456175638879946 -1 0 0
244 1 20.013068110246955 16.712415386506173 9.496262778783706 -1 0 0
149 1 4.113988778508047 20.881561583956945 7.79745660948037 0 -1 0
145 1 0.7619142341882468 20.20764262298912 7.615118966700296 0 -1 0
265 1 1.5279322422100843 17.021297914303545 7.805554556688882 0 0 0
267 1 3.063072186235847 17.317325614036108 9.742828645754205 0 0 0
147 1 2.317402908512637 20.720261403910925 9.460802938401518 0 -1 0
266 1 2.903106597164258 18.807181515120405 7.832976083981264 0 0 0
268 1 0.9187818749780824 18.73343394722074 9.49039673981788 0 0 0
410 1 2.485835285015129 19.028358981746948 11.492967627462646 0 0 0
386 1 1.1634654026621662 16.95558146832586 11.567811660425724 0 0 0
272 1 4.411591087867205 19.329230756582497 9.701018663039173 0 0 0
289 1 0.40162598922782433 20.4020149278578 11.212025656081966 0 -1 0
153 1 7.044402471259355 20.86189056950012 7.622936776145801 0 -1 0
270 1 5.577685261964036 18.7713360638502 7.566681686007025 0 0 0
271 1 5.75292665014853 17.407030911715317 9.500523989194901 0 0 0
273 1 7.6781172733193195 17.420453478971424 7.75791190343152 0 0 0
276 1 7.278582010125512 19.360079382531445 9.407182757329975 0 0 0
417 1 7.477318421229962 17.51214358088332 11.473562616208584 0 0 0
414 1 6.1221453603681075 19.44846872656057 11.574803407066895 0 0 0
274 1 9.196721721832951 19.30719068475026 7.909073346590116 0 0 0
275 1 9.326371440547174 17.738519479959862 9.717132199358726 0 0 0
279 1 11.80429746072851 17.68295859981204 9.30291233416106 0 0 0
280 1 10.717456364459519 19.903229133068045 9.726768798428875 0 0 0
418 1 8.68854210633226 19.487312058022944 11.460484158854321 0 0 0
285 1 16.219010720623793 17.838880242202812 7.333019828723963 0 0 0
281 1 13.836933162640348 18.00224159812886 7.631551897886561 0 0 0
282 1 15.179634124887551 20.081603551744728 7.45695340772746 0 0 0
283 1 15.381537756723406 18.40440506642929 9.552819430691816 0 0 0
284 1 13.223679607113212 19.666352068034932 9.418848092276537 0 0 0
426 1 14.859254488011626 20.032658357127843 11.350324693526916 0 0 0
425 1 13.470107675571374 18.232541548325344 11.39069290428731 0 0 0
288 1 16.870927815093324 20.291364548632828 9.575899734364715 0 0 0
165 1 17.791254646022935 19.638171574888517 7.270161507228735 0 -1 0
286 1 19.855061520609866 18.222773173800697 7.57638266648034 0 0 0
167 1 19.41327225846385 20.03946002112842 9.318959606717852 0 -1 0
287 1 17.90694900703656 18.166038445167736 9.366299045929665 0 0 0
409 1 19.61998086022743 18.467382502461568 11.414967701959602 -1 0 0
434 1 2.4465302718580206 2.7409426126611973 15.468358315221394 0 0 0
296 1 3.5047469794621553 2.2629710234841967 13.151701309537357 0 0 0
292 1 1.0558212854752371 2.3979673985872756 13.511964892734955 0 0 0
554 1 1.1116013301674326 0.744653522109211 15.425137444961912 0 1 0
437 1 3.7059646695523494 0.6201868324317803 15.197671242658458 0 0 0
438 1 4.968747802972792 2.5196237993992887 15.151828770356401 0 0 0
300 1 6.941426126298022 2.9038244674732496 13.518159765402201 0 0 0
441 1 7.133370397811715 1.13074853421611 15.336454064221796 0 0 0
319 1 4.879921299836481 4.326537066945722 13.137922139282848 0 0 0
295 1 5.613051130622772 0.8992328136345957 13.365343469906373 0 0 0
442 1 8.479791302827536 3.21842870286782 15.468554852213613 0 0 0
299 1 8.783325242478053 1.257842841543493 13.654853493936693 0 0 0
304 1 10.175034283063358 3.371818698863683 13.695972220649427 0 0 0
446 1 11.793279626689598 3.3476819154079345 15.635610140330941 0 0 0
303 1 11.801786978684683 1.5127289611654957 13.471628809151365 0 0 0
445 1 10.301888244500331 1.5247666767262122 15.732069424365855 0 0 0
306 1 15.261296665614655 3.6615638587389525 11.663223113104706 0 0 0
305 1 13.768954620627065 1.7875640093605132 11.796750400924882 0 0 0
308 1 13.273297100087103 3.4961576718725507 13.603346223503896 0 0 0
449 1 13.472616648888192 1.8923947407377357 15.50757522851327 0 0 0
450 1 15.005166285805583 3.852053178318474 15.555865992438122 0 0 0
307 1 15.437339917168133 2.211925884871793 13.752460694926764 0 0 0
312 1 17.05480961974989 4.122260706232214 13.66789783271333 0 0 0
570 1 15.574693643614562 0.5849498878309809 15.744156771572696 0 1 0
457 1 0.5801559600538582 4.136229029335821 15.272116822540932 0 0 0
453 1 17.053772655189135 2.434352506319286 15.497575663930645 0 0 0
335 1 19.616214489579043 3.8038799456679095 13.358038156460463 0 0 0
311 1 18.065253480553643 1.881788179865902 13.27616286246467 0 0 0
433 1 19.74926482755248 2.1647735834883433 15.3260933516979 -1 0 0
454 1 18.57059745511483 4.255867415790741 15.631886088112068 0 0 0
412 1 19.98905708790221 20.877256430463177 13.406885178284918 -1 0 0
315 1 2.376876867058867 4.425466952946684 13.509122746400577 0 0 0
461 1 4.042400619779196 4.811224157423059 15.394185588785316 0 0 0
458 1 1.9455993054873308 6.123913815123593 15.374859881429146 0 0 0
320 1 3.721730173598894 6.652735030252229 13.714460413702414 0 0 0
339 1 1.7688955304592462 7.871997558451632 13.377576942521129 0 0 0
485 1 3.237919029229392 8.358435244160948 15.428302885755787 0 0 0
481 1 0.7195033006076496 8.242199269391879 15.555004200770021 0 0 0
465 1 6.508489812070003 4.825318383964863 15.099782047292718 0 0 0
323 1 8.31762554613871 4.970037342711627 13.499871418857207 0 0 0
462 1 5.389591924326742 6.933196805154453 15.639831562150592 0 0 0
324 1 6.207885218597815 6.5748813646708 13.379173507805715 0 0 0
347 1 7.766556997757471 8.489276182698859 13.32308788276017 0 0 0
466 1 8.006103319485609 6.640084148810543 15.137617195817983 0 0 0
343 1 5.1422493122159025 8.78021657946715 13.78533251885479 0 0 0
469 1 9.994744952865945 5.109100261981424 15.46421159358706 0 0 0
327 1 11.520286211460922 5.181683099696272 13.561903157542712 0 0 0
328 1 9.765461633437383 6.9818678828200555 13.588448926875015 0 0 0
470 1 11.286993128256281 7.0786282258371696 15.422940790131065 0 0 0
493 1 9.29726381374289 8.725882151967287 15.32313019176141 0 0 0
330 1 16.755351323887297 5.874030227955365 11.744053905654741 0 0 0
332 1 13.006174373967795 7.0145293112809695 13.564176211614848 0 0 0
473 1 13.239215095189241 5.308159523082229 15.416175269759801 0 0 0
331 1 14.883954119556348 5.3265360144267735 13.486836258138911 0 0 0
477 1 16.49495416318795 5.7784080398457425 15.445553019995598 0 0 0
474 1 14.528685994349708 7.246678631555068 15.272391577436188 0 0 0
355 1 16.305100601317463 7.338744814038751 13.467985462130379 0 0 0
316 1 0.4239294414746837 5.863347142023105 13.320171164209379 0 0 0
336 1 18.363760483007304 6.091849597456262 13.698985929288003 0 0 0
501 1 17.921362541250325 7.7362140941326984 15.390534350037246 0 0 0
359 1 19.662370273078913 8.031329786894116 13.526218856202606 0 0 0
478 1 19.851455838697937 6.240775580570617 15.506381761594646 0 0 0
363 1 1.993357179341383 12.01310590737567 13.680551799857858 0 0 0
482 1 1.9148281926618869 10.417820105961132 15.63583368137318 0 0 0
344 1 3.1440639958181 9.904224775100035 13.38908413433267 0 0 0
509 1 3.544033979996046 12.253773524448532 15.624103731271132 0 0 0
340 1 0.5184601710721031 10.007474459875269 13.762240123669384 0 0 0
367 1 4.621288851448593 11.901509067862307 13.480719032322032 0 0 0
489 1 6.7238816664536865 9.105422393162907 15.579691366688962 0 0 0
486 1 4.732250701416303 10.290842223745823 15.462167392085382 0 0 0
348 1 6.7282573398378585 10.769767832637147 13.482671190876783 0 0 0
513 1 6.2010117357561505 12.22106763331424 15.433946264629638 0 0 0
490 1 8.29371204993108 10.97769812211533 15.460113497091063 0 0 0
371 1 8.204701027417642 12.68581430598444 13.594639623259882 0 0 0
351 1 11.44667506762708 8.888012088610573 13.562284868002656 0 0 0
494 1 10.909824175945392 10.806683462745788 15.199275394920909 0 0 0
352 1 9.280855551423615 10.390167595689075 13.46157614814759 0 0 0
376 1 10.875295161325834 12.496436601199141 13.332073504165812 0 0 0
518 1 12.421958061616637 12.672136564397222 15.192103343596273 0 0 0
375 1 12.844480830757206 10.854449717563211 13.485358173136603 0 0 0
497 1 12.876949023788079 9.142616279265917 15.396400099802966 0 0 0
498 1 15.87273948008095 9.053311441241842 15.276676075932297 0 0 0
356 1 14.36961874447441 9.005445006814172 13.365816663668326 0 0 0
521 1 14.35482861299572 10.991433282553068 15.376601716210471 0 0 0
379 1 15.667056626644793 10.858675114183876 13.244664528359214 0 0 0
361 1 20.84903353581803 11.793610912199163 11.82018662852392 -1 0 0
358 1 19.495704177354995 9.734544171948436 11.563372569122059 0 0 0
360 1 17.708096137300785 9.51421552671062 13.431115695541877 0 0 0
502 1 19.15247951837798 9.79240583212099 15.390275543912978 0 0 0
505 1 20.488950496407426 11.82939092037951 15.312081355384118 -1 0 0
525 1 17.11802937069973 11.081656491472664 15.166697171171158 0 0 0
383 1 19.060604450971937 11.451711408519508 13.478711119684617 0 0 0
362 1 1.6936449761230818 13.739580454593415 11.745048395979598 0 0 0
506 1 1.497521655154576 13.685052567060206 15.458829970240645 0 0 0
368 1 3.3222933823338465 13.91083780636654 13.669561407205817 0 0 0
387 1 1.2013238486677755 15.332736859979812 13.419293228143019 0 0 0