LAMMPS data file via write_data, version 29 Oct 2020, timestep = 200000

2744 atoms
1 atom types

-0.2903029198759395 25.09830291987469 xlo xhi
-0.2903029198759395 25.09830291987469 ylo yhi
3.015869822622836 56.51368282310516 zlo zhi

Masses

1 58.933

Atoms # atomic

1844 1 2.1147145597464214 0.3021444240893576 3.783772654356934 1 0 1
713 1 24.62704279914731 4.205014884540936 6.574912462623326 -1 0 0
266 1 0.48298432320605067 1.3064606703669968 5.461335198383676 0 1 0
924 1 1.0884748894800573 3.809696521979105 5.23831776834827 1 1 0
2150 1 25.035924162726737 1.4030910887716883 3.3761698369508495 -1 2 1
2390 1 25.066674016778478 3.582990094525625 3.4382847831577203 -1 1 1
826 1 3.6078654712459444 1.8972418359003043 6.141783249030182 0 0 0
2675 1 4.345967481150109 1.5180128644455033 3.5814400021106225 0 0 2
523 1 16.47330826278403 4.43922499035019 3.3033694097600783 0 1 0
211 1 5.907978485454883 1.2438370312563554 5.2967285770562835 0 0 0
1259 1 1.7940328445228375 6.783568400709722 28.9050441876731 1 0 0
214 1 8.045783148666592 1.2197001218749701 4.009935156572759 0 0 0
66 1 10.759029236676655 1.7390043429650128 4.69898730950616 0 0 0
2512 1 10.066273388603761 23.87166110551759 4.1336885495008335 1 0 1
12 1 10.33672993165372 3.9641618277714246 5.359118341596217 0 0 0
347 1 13.172906470075208 3.652097915503039 4.573555273575848 -1 1 0
1106 1 14.891995067356191 4.346962851262854 5.814100653492675 0 1 0
496 1 13.246379820906279 0.7587324737081358 5.330160000334205 0 0 0
2173 1 16.089723794717813 2.408799842035665 5.124757177859797 0 0 1
2161 1 16.28940250198562 0.820784882929152 6.53150867953813 -1 -1 0
389 1 22.40615045668774 0.22662014294509492 3.41154151171632 0 1 0
999 1 20.446042892830818 2.332082096284428 6.463885936343881 0 0 0
286 1 18.20919196716863 2.02590253301277 4.506672196802308 0 0 0
1516 1 16.61324386569843 0.6028171831949178 3.3915100676638628 -1 1 0
2566 1 13.582512644586984 18.317710451710134 4.4517199137484855 0 -1 1
465 1 20.388093136969488 0.9964613928279156 3.760715593864482 0 1 0
88 1 16.70580601823501 3.5920761423271617 7.170996257604949 0 0 0
907 1 23.52273789886145 1.9526039965235333 5.434673428824695 -1 1 0
9 1 16.123267845899413 12.085565554280178 29.641853021491954 0 -1 -1
1238 1 21.221421710015868 3.267480729122301 4.760771806174572 0 0 0
450 1 25.010957997298725 7.149887108048544 5.9876612855754 -1 1 0
2366 1 2.217347626256436 7.042877552564735 5.5745687852426276 1 -1 1
2323 1 0.2934394005216975 6.268175376418495 4.1953473335908384 1 1 1
236 1 0.3752736581598095 8.88613129356341 4.228369857274215 0 0 0
300 1 20.741134347375414 17.843620867816703 3.6616609423815265 0 -1 0
2139 1 6.161023216327231 7.040244885583761 8.105266181266659 0 1 1
167 1 4.534103462329845 7.852117541134287 4.642947888129095 1 0 0
1838 1 1.407046220532356 15.622375074951188 3.9295832128085264 -1 -1 1
349 1 5.725069106696968 5.851736081701627 4.500378238570627 0 1 0
2193 1 3.320847779363646 5.07751788952408 4.288969970987709 0 0 1
212 1 4.409614627111084 6.2274766568537965 6.5104360613264305 0 0 0
1629 1 7.816351762439178 3.044599936483723 6.299274780057109 0 0 1
770 1 7.551461659001773 4.493383735465765 3.965249563202634 0 1 0
309 1 10.298942104880068 6.050298222220692 4.593712383147599 0 0 0
784 1 -0.021188377487995125 24.14275751659175 29.243183243666092 1 0 0
420 1 8.650068813283161 5.351459444191028 6.00615487097374 0 0 0
434 1 13.556277623717415 7.837307025474216 5.81536372139799 0 0 0
2288 1 18.724790381303947 24.42333121234722 3.216064727042613 0 0 1
1703 1 15.09889370085265 6.119686637948775 4.378447785822516 -1 0 1
727 1 24.511462522804607 21.44407587463094 25.46992538328665 0 0 0
244 1 12.950496303700712 5.478903723395988 6.003337606593686 0 0 0
447 1 12.411123117614649 6.696354697521131 4.104859512676741 1 0 0
585 1 14.587031479206727 9.44187416600119 4.436262804586198 0 1 0
947 1 18.650403010721462 3.821370901050244 5.70846401520848 0 1 0
435 1 17.06974247737829 5.600918307352704 6.055261039513498 -1 0 0
768 1 19.32473234768546 6.090898424153224 6.037906516423748 -1 1 0
2480 1 18.539352024805524 5.8336361479341985 3.7999941944780735 0 1 2
124 1 12.028030277503046 15.153580760217809 3.335799801403081 0 0 0
1559 1 22.82091353300283 7.088197861894164 5.05806225910068 -1 1 1
1181 1 23.30918985130704 4.997377344608974 4.2683968073258125 -1 0 0
2280 1 20.89699461755329 5.5459318503950525 4.05565662255824 0 1 1
983 1 20.082274854261577 8.146145800087107 4.163071244096862 -1 0 0
2102 1 22.636845007221453 5.97877065894025 8.028318268801257 -1 0 0
761 1 -0.17711144770967682 12.425778389980145 6.360964081327692 0 1 0
2110 1 1.758895483301591 11.566745543927459 4.725145546319372 0 -1 0
1896 1 0.48840430037566285 9.979966470771567 6.234188068703544 1 0 1
1783 1 23.290453285518765 13.708643342565395 4.880263154899661 0 0 1
1557 1 1.1956477973628719 13.767855824806118 8.47723931631635 1 1 1
321 1 8.316413306953102 9.28577153668178 3.5624882774099427 0 0 0
675 1 24.208756636787427 8.676365215643099 7.617631419987416 -1 0 0
2 1 20.98607830414477 4.313345054896994 29.59371967506473 -1 0 -1
561 1 2.2319035759423618 11.603113322021485 6.978497337059769 0 1 0
794 1 6.391731959466601 9.383888574399915 4.871724639440749 0 0 0
1975 1 7.039861615364391 11.521533391130882 5.974735571183789 -1 0 1
11 1 3.0032821295565824 9.778517268538655 5.283672179077318 0 0 0
451 1 6.936930499451277 7.173253971857438 5.523333099965225 0 0 0
1406 1 4.409687145582219 11.025563420608934 6.046399466521242 0 -1 0
190 1 8.290424672334021 6.956849326021524 3.6587950298454586 0 1 0
2699 1 4.667538297469386 9.88935565588397 3.5716605719167642 0 0 0
1769 1 9.11269412723758 8.131501461943962 5.784641587322501 0 0 -1
1965 1 10.809262154293428 8.303115767862698 3.749387748568637 0 -1 0
406 1 9.063301570128676 10.348287030276301 5.43445973255149 0 0 0
478 1 11.660248475704858 10.010473686920353 5.560007776152814 0 0 0
76 1 10.639088696184599 10.84167472268416 3.5697356532906532 0 0 0
1971 1 11.288699216025954 12.625900139337562 6.378282911190194 0 -1 1
1481 1 12.67032619162191 11.726004544287713 4.469074520162776 0 -2 1
558 1 17.167477562458807 11.860972802448892 4.000048941206727 0 0 0
1710 1 14.061494169545837 11.700533796033822 6.274092285341386 -1 0 1
672 1 14.912760316797621 12.295671273915973 4.084645448505602 0 0 0
512 1 23.914564648152997 22.24903343791169 28.249647576062113 -1 0 0
52 1 17.114553754806714 10.175057008274768 5.402509422065607 0 0 0
2085 1 18.31449163565147 9.662797865566384 3.59639274048946 0 0 1
268 1 19.42683478181138 11.7700730436522 4.737143435666665 0 0 0
2120 1 18.85360658664692 8.567310201888645 6.095383601774968 0 0 1
788 1 19.226941062698437 13.553830742965946 7.402295470062467 -1 0 0
754 1 21.363008079418684 8.538798076122362 6.425097545017711 1 0 0
2554 1 23.48055278861156 9.538287306994585 4.856116857316131 -1 0 1
204 1 21.414313250536736 10.354045919997365 5.326940809286054 -1 0 0
1380 1 24.477688163721545 11.634344885904655 4.294431067901219 -1 -1 0
2245 1 19.971487406348572 20.065688255884396 3.656057052651613 -1 0 1
985 1 13.594505206989927 15.43316933035841 29.555579779828086 0 0 0
67 1 24.72387464044695 15.442981790668618 5.377120389787019 -1 0 0
2624 1 3.282103802889494 13.860689310269905 7.338492432947984 0 0 1
780 1 1.75673783948363 14.173071159949124 5.7140080274463685 0 0 0
335 1 1.7130373365839366 16.06138699884336 7.542289953876268 1 0 0
2734 1 5.27053930042101 4.32779151593549 28.104321917327447 1 1 1
356 1 5.533100322205344 12.301951067390053 3.6383397681947214 0 1 0
2486 1 21.519036320327224 22.179781675905964 28.637506054182325 1 0 1
2259 1 3.5157771056094296 13.149983127359652 4.933755651689982 0 -1 1
2404 1 8.528828550543103 13.715024433969559 5.0708501996222815 0 -1 2
2368 1 5.837981903628594 14.889708117807189 4.962225436572121 1 -1 1
1399 1 8.2878435296603 12.011522551021784 3.829127424197967 -1 -1 1
520 1 8.001377969891006 13.7257535022403 7.670482153847265 0 1 0
1688 1 10.983287699442421 13.25407381086841 4.275872573136126 1 0 1
1462 1 9.909019691639045 15.624175222234662 4.506624152944757 -1 -1 -1
2270 1 1.1876580266943177 17.80374405601885 28.661233910063608 0 1 0
2115 1 13.542779866758528 13.778360450380632 4.991239153245768 0 0 1
1819 1 12.247899008480411 14.946007056457365 6.5450761440359395 1 0 1
747 1 14.009808712068526 17.544054104062134 7.320183536203982 0 0 0
1420 1 18.6238602032709 13.874373147454536 4.514934531795184 0 0 1
2454 1 18.150759890167024 16.230349927248966 4.727349610346578 0 0 1
743 1 16.308155502382824 14.287961081808081 4.280807194253953 0 0 0
239 1 17.27842811883535 12.84711886980007 6.075519987237527 0 0 0
2180 1 19.456805087420726 15.565596388081651 6.49759063253342 1 -1 1
945 1 23.044194812890417 11.822480783287217 6.1134141553462165 0 0 0
2081 1 21.232702664837618 13.06092084206179 5.810797001819522 0 0 0
1735 1 21.260912296615075 15.246503631858218 4.683163504291104 0 1 1
256 1 22.38449307028587 14.589205429242416 7.225818052277467 -1 0 0
2039 1 8.832628185707843 22.06535281119583 3.0550508700150614 0 0 1
648 1 1.9348964920150218 17.8715613985594 3.150496914755151 0 0 0
2589 1 3.467341631743082 18.940312016242707 4.950033547473291 0 -1 1
51 1 0.9242075009042472 17.72869619637021 5.627521173376675 1 -1 0
925 1 -0.16677252778362278 21.255253275450478 6.4497766288678875 0 0 0
1864 1 7.020785225118955 15.871407641519225 6.932241181268714 1 0 1
582 1 3.928729399582921 16.70683954512552 4.0451430946472176 1 0 0
1247 1 8.09244071745856 19.575445367600345 3.972119939922122 0 -1 0
246 1 5.117726376977722 18.577037342893718 6.988217927166062 0 -1 0
604 1 5.800767534790746 20.570452116430438 5.941212178245543 0 -1 0
1310 1 5.89594794823661 18.310810268230938 4.447639816911517 1 0 0
2024 1 9.801332639692285 18.285209053055652 5.157457637424255 1 -1 1
2430 1 7.716213140389456 16.90970288265178 4.561473115738334 1 0 0
446 1 11.398862892068358 17.30698206714864 7.628605657024748 0 0 0
2418 1 10.24071591823443 20.549070040331337 5.069138662453902 1 0 1
2007 1 7.52073496144404 18.958992839152955 6.233446502886504 1 -2 1
2008 1 12.032650883764703 17.033960423495493 5.513931475470548 0 -2 1
2295 1 11.969911639628872 19.214815261043064 6.365246692524108 1 0 1
1236 1 15.089897872285299 19.932485141785975 5.263253303556059 -1 0 0
2532 1 1.1224583061548241 13.357325713820183 3.1493849201786763 0 1 1
2042 1 23.609574063206132 24.166692639124854 26.55007769691992 1 -2 0
2643 1 16.22730329882892 17.705681499641557 5.6502543696922105 0 -1 2
835 1 17.309572203004556 20.482340228800965 3.813336195351967 0 0 0
2436 1 18.32355897386617 18.356174942079548 4.334664913848791 0 0 2
543 1 16.11970333332922 18.32369889456944 7.804214614974738 0 0 0
571 1 22.509300906796092 18.87751063972089 4.595791164605893 -1 0 0
2282 1 20.876295222268993 17.872006020876874 6.102482728160293 -2 0 0
1392 1 23.321853373092537 16.8015365903317 6.731860651838781 -2 -1 1
744 1 24.280293360469457 18.83446335006468 6.167868336484315 0 0 0
1427 1 0.10685612009759288 19.27583749545866 4.123448365405339 1 -1 1
858 1 23.480533366785217 22.77926170059031 7.283643416986556 -1 -1 0
852 1 19.95400839539827 20.818883418158997 5.9238191964119995 0 0 0
2233 1 1.4616938653121032 21.092474015639574 4.586229641742403 0 -1 1
1521 1 2.6745075800006033 23.529404408366624 3.6651112600082274 0 -2 1
2619 1 0.41708966424389127 23.668353725765066 5.975754773865325 -1 -1 1
422 1 4.538536276441691 24.78376453826902 4.714169381198033 0 -1 0
1862 1 2.079795150799901 22.152078653269342 6.535148933266983 -1 0 0
2410 1 13.871640998868545 5.457184787997042 28.971810039166918 -1 0 0
1980 1 6.12107930647474 20.51263992949739 3.295717934540913 0 -1 0
2299 1 14.747568659416482 18.30465185519531 28.828700898736816 0 0 0
1053 1 7.3000181632470875 22.07160084352565 5.341321362365838 0 -1 0
314 1 3.97797081840519 21.288125369735134 4.114713233142054 1 0 0
2232 1 23.776379552051495 17.097048645667734 4.0475109036301005 -1 -1 1
1637 1 7.740142165928999 24.518521697099587 4.881831871264312 0 1 0
280 1 11.844864316983061 21.95466773746824 6.5111307697201815 0 -1 0
1079 1 13.383186383302936 -0.005474705237248134 26.92812952304331 0 0 0
1827 1 11.549073389661205 22.390128433187257 4.253005890571654 -1 -1 0
259 1 12.223256362343145 24.05584195975004 6.340587009728269 0 -1 0
940 1 9.657066996025423 21.922511453284777 7.059605510751765 0 0 0
2461 1 15.180373175100815 24.894771493691067 4.86492987087093 0 0 1
233 1 13.906190391315734 23.07024416574243 4.138825250892498 0 -1 0
1360 1 23.34988905807286 11.57845235961122 27.85124362101362 -1 1 0
1092 1 4.421239833856453 22.983315887087095 29.090491488324343 1 0 0
116 1 14.224472587489316 22.18937957118851 6.142319421394783 0 1 0
2472 1 17.62902252134129 24.86426850780181 5.201613279293522 0 -1 1
139 1 19.58338316590958 0.10069541806575766 5.778864576810672 0 0 0
2034 1 16.208537306198387 23.351179188507395 3.3198657410268697 1 0 1
548 1 16.55045225704152 22.400908426505126 5.371767779574428 0 0 0
2279 1 18.999305952091383 22.22759512961415 4.022456522061859 0 -1 1
106 1 20.092844141338787 23.394039849922073 5.964568017165918 0 -1 0
721 1 23.925153319493305 21.404859464204392 4.612207377874814 0 0 0
1507 1 20.937576431684235 23.903009110342957 3.699582828415482 -1 -1 1
651 1 23.220083785071644 24.251863626793487 5.11028837024341 -1 -1 0
257 1 21.807279517133736 21.856676477188422 5.201543863474871 -1 -1 0
134 1 21.763780831668427 0.5367786283991276 5.700586454254122 -1 1 0
986 1 24.05320247718285 0.08177774081137262 7.078274063740267 -1 0 0
386 1 21.91048818336038 24.46179198243592 7.5569624477023485 -1 0 0
260 1 1.7162948167956689 2.980999277919625 7.43057554840689 0 0 0
1025 1 1.4092991808780995 0.1890863312107 7.7843814555348425 0 0 0
592 1 2.5140497916452373 24.796933711706608 5.91967615259024 0 -1 0
1007 1 0.6948956283756318 2.022565274308988 10.346841434373149 1 0 0
1636 1 5.463024920477065 3.546281163308721 4.818587683977013 0 1 1
1467 1 3.706252147283323 4.294319278226139 6.612907622361268 0 0 0
120 1 5.73788283726255 2.551211099894969 7.319268684213114 1 1 0
616 1 3.719303271123665 2.436440630078423 8.900747274000175 1 0 0
387 1 7.838305900403606 1.7273798429544267 9.178474286408072 0 1 0
391 1 8.14029633146503 23.301273319305004 8.21505938324143 1 0 0
1141 1 10.053470953134587 1.6543627174293538 6.844472616879105 0 1 0
739 1 7.744354493602611 0.7574024418742213 6.701937736772535 0 1 0
1387 1 9.268943611833674 0.1163574631950765 8.548914196362944 1 -1 1
456 1 12.313850242241044 3.16111796735393 6.735315817898869 0 0 0
941 1 9.941335982789955 2.8007496230616007 9.090857478398167 0 1 0
175 1 12.515785022792496 2.354776975965378 8.939573787718842 -1 1 0
1847 1 11.45999599003762 0.29456240916897847 7.971915999624664 1 0 1
2375 1 15.740804846993464 -0.11467525394804318 8.904164825383994 0 0 1
717 1 14.374282126364688 1.8244968910100656 7.503929790030259 0 1 0
1788 1 13.951528547109836 4.042339203525782 10.638224799389624 1 0 1
936 1 14.120136114368458 1.2739801736230387 10.281652890221803 0 1 0
633 1 16.175769578368772 1.9664367262392957 8.97962230078709 0 0 0
1426 1 18.697297853134586 2.1191864253672192 9.130344007291214 0 -1 0
964 1 17.456831465003766 -0.233335552913438 10.239358603046497 0 1 0
576 1 18.16027561155127 1.6587153506426395 6.987138133284148 0 1 0
881 1 17.47616211115409 3.372346408652096 10.540795327870832 0 0 0
308 1 18.430454106771656 4.320763668408462 8.425746353116203 0 0 0
323 1 22.514244816785073 3.7754661213160663 6.773903047772973 0 0 0
1526 1 25.086950585978705 2.382572932289387 7.865240164884166 0 1 0
2425 1 21.228626542833453 2.7149131190917273 9.556864599134926 -1 0 2
1027 1 22.706593129565917 1.6654489692214993 7.534074875460514 0 0 0
2715 1 24.64513928908579 3.0637147850785076 11.458729571135297 0 1 1
2166 1 20.232606012744327 23.65189457036992 10.989729405016952 0 -1 0
2496 1 1.1154442587485958 7.99867774905074 7.80008653985669 0 1 2
2005 1 1.2659594424863199 5.389664833598269 7.43283184938138 1 0 1
1174 1 2.7165500196457675 4.635179039466366 9.151513431328917 1 1 0
1720 1 -0.25800053892847247 4.463847551951305 9.504713388471654 0 0 0
90 1 1.3655627672136315 6.31253762785521 9.890438643799119 0 0 0
1594 1 3.510519119584734 7.018407628616939 8.353467079059385 1 -1 1
640 1 6.438371900619878 3.34431980002438 9.301698598449672 1 0 0
168 1 4.9240874447886 5.121024867652458 9.195073970248531 1 1 0
1510 1 6.04812663941238 4.729139338066864 7.039397900393048 1 1 0
45 1 6.297334515773615 4.863671307786576 11.202181524272362 0 0 0
1994 1 5.160492779442212 7.220872836704352 10.076434679002466 1 -1 1
381 1 10.456548739044836 4.511126191076337 7.594463530914882 0 0 0
2435 1 8.175309755219354 5.130490266734403 8.410795800364571 1 0 0
91 1 10.291360010132566 6.338055579392513 9.724444140142474 0 0 0
327 1 10.747536002496082 6.804205543048984 6.943041448132084 1 0 0
2364 1 8.87101256719581 7.252442389974981 8.244460951497633 0 0 1
2598 1 12.30561478187924 5.271867353520131 9.025466675857224 0 0 1
2067 1 14.239331947847747 4.140936449334727 8.017348017616216 1 0 2
2263 1 13.210989701513803 7.301079221822367 8.185234496116557 0 1 1
552 1 14.57019519994706 6.653317961739587 10.059976978445082 0 0 0
1035 1 16.207714719487647 4.9220596106335845 9.250485162390957 0 0 0
666 1 15.060223129215352 6.281606105638432 7.242544922783736 0 0 0
324 1 17.68365525038802 6.793491231229215 7.916325506660328 0 0 0
2395 1 20.714754470723214 4.480551638385602 8.3274338542919 0 1 1
806 1 17.0013113874962 7.619071712338656 10.057200317943021 0 0 0
547 1 19.14054828436599 6.080755901371734 10.420862904164023 0 0 0
358 1 21.399999722019693 5.5002183852949695 6.2643799150932455 0 1 0
726 1 24.44324290650964 7.0110536764903415 9.460223166302637 0 0 0
223 1 19.95801536557631 6.975355622913512 8.46740681971123 0 0 0
1522 1 23.050545094587505 4.010541237945261 9.022809410763866 -1 1 0
958 1 24.479060898160412 5.572372147803166 11.639694288965377 -1 1 0
973 1 2.8191538401100824 9.700075641508388 8.313617663088449 0 0 0
984 1 0.33442335730475303 11.0745808335479 8.448534541140619 0 0 0
285 1 2.3126178417710355 10.426401806946082 11.589647548838634 1 0 0
292 1 3.040701966948198 8.009626636926246 10.46931326787885 0 0 0
459 1 0.9198081215048273 9.13781938366116 9.902576153933545 1 0 0
1689 1 2.894031537730886 11.996861956093735 9.58904783953266 0 0 0
274 1 5.184658088534125 8.880295219181642 7.123769103032832 1 0 0
2581 1 4.51727619148001 9.72702503411508 9.716816546025822 0 -1 1
828 1 6.988894720147971 8.96822341999399 9.485598780819084 1 -1 0
339 1 4.490451573975088 11.650274553793285 8.158369090175484 0 0 0
128 1 4.583452333288213 11.267333178543918 11.44435539625541 0 0 0
95 1 7.784589415998498 9.340012668532246 7.164401679642252 0 0 0
505 1 10.500174415597304 9.690365603309866 7.425232802887415 0 0 0
396 1 9.197243170764384 11.894846628487688 6.9601840479965515 0 0 0
722 1 8.735702310591492 10.975208524440388 9.019341015128798 1 0 0
1591 1 7.464262374275777 6.812479396972446 10.568296687815026 1 0 1
2550 1 9.322234538201487 8.832482550335104 10.01006831824366 0 0 1
2497 1 13.04633668956304 9.991460876207553 7.457839345602634 0 -1 1
407 1 11.65638167432008 8.496733065842651 8.980681284694667 0 -1 0
2730 1 11.579968998418448 11.428891556071962 8.649674359607022 0 0 1
545 1 16.32486730535473 11.695968851015857 7.727210536660696 0 0 0
2367 1 14.938045265111455 9.580289439193045 6.820700726620708 -1 0 1
686 1 15.26091414393132 9.348615965999093 9.35265225403154 0 0 0
1922 1 16.861915110302363 7.815987239618847 4.812330246548396 -1 0 1
1658 1 18.851037262503475 11.333069220086069 7.27190901131116 0 0 1
80 1 17.418468211662464 8.997859786052476 7.893801536126104 0 0 0
488 1 19.52039956622515 11.555691996227896 9.425563924815815 0 0 0
2303 1 19.033449124447927 9.16394824592194 9.85558781988788 0 0 1
415 1 20.371482596457696 9.731784136927107 8.201255897741385 0 0 0
961 1 22.72742623890187 10.459770964715732 8.114775487142964 0 1 0
295 1 22.092953301336536 8.12563616295355 9.204197328610132 -1 0 0
39 1 24.05707704270491 9.326975319542232 10.096550828790262 -1 -1 0
734 1 23.01750508871183 11.800260054308577 11.175836766091631 0 0 0
553 1 21.37724039556123 9.833701056098628 10.413713130422908 0 0 0
514 1 24.18614298689174 12.897481991760895 8.323277300586128 0 0 0
2033 1 24.853863954408773 15.176915708710585 7.704384859065375 0 0 1
504 1 25.04288907933268 13.555847946365976 10.371377984997958 0 0 0
857 1 0.9060888911035077 16.410843757500487 9.725315793734948 1 0 0
1505 1 2.7274630670418922 15.664336097780414 11.5250244098878 1 0 0
377 1 24.603607563043994 17.745470877698544 11.016114780947726 -1 1 0
320 1 4.280007956492329 16.337547384105036 6.282849803335607 0 0 0
1588 1 5.635209254600106 13.405085903795618 7.3408152831832245 2 -1 1
897 1 3.09657262436787 14.321758774736967 9.644258404973407 0 0 0
1258 1 5.067682616710707 15.319348259558888 8.395375849671648 0 0 0
677 1 5.540911554234911 13.02873332752463 9.749101263110473 0 0 0
155 1 6.894782437373536 11.332145532490808 8.23415762832869 1 0 0
1418 1 8.488182596972056 15.488344618535615 9.048094095502616 0 -1 1
205 1 9.995293509195198 14.64416162004991 7.237998497513075 0 0 0
27 1 10.977232016568083 15.576648026133869 9.483190025861703 1 -1 0
372 1 10.309079017251648 13.19075049890156 9.272824428369393 0 1 0
380 1 14.901312877832511 13.829343698830417 7.246601803521601 0 1 0
251 1 11.926409513263083 12.493091522487367 10.814720072323277 0 0 0
429 1 13.25882436651439 16.142084627603758 9.046584731496173 0 -1 0
681 1 12.549659936813718 13.822677625546682 8.359046165969275 0 -1 0
1995 1 14.142015897856515 11.755312031403317 8.82031585328373 0 -1 0
1110 1 15.339303618087063 15.892194252110981 8.684300241032576 0 0 0
96 1 16.77831693606926 15.419640765462226 10.369520193538055 -1 0 0
458 1 14.82806345963645 15.750822823479764 5.650523434777805 0 -1 0
554 1 16.91899788350279 15.397047074500565 6.689072117462107 0 0 0
440 1 18.58834666129441 15.985125253233656 8.94843901994842 0 0 0
206 1 16.95680954483761 13.947318499261414 8.508441340443444 0 -1 0
492 1 18.50206870319183 13.372354192901714 10.756258660843583 -1 0 0
180 1 21.45649009839029 12.515241853727494 8.657335190420238 -1 0 0
275 1 20.345883239354663 14.64169642848342 9.121599787803778 -1 0 0
164 1 20.716678704171777 13.112112245902988 11.026865058011234 0 0 0
953 1 23.62532031658774 16.274031534446152 9.47934803822032 -1 0 0
18 1 2.850362798513964 18.113409642639837 7.213118149801639 0 -1 0
2528 1 1.32875089114522 19.623556265667816 6.763576233200184 0 0 0
922 1 -0.01476966856142603 17.967119714162116 8.233806432828949 1 0 0
1296 1 2.5357971087286777 18.99496580692196 9.37840557408472 0 0 0
2635 1 0.4402819048537162 19.65944656189418 9.953875600312823 1 0 1
2181 1 3.1465688734388655 16.527062807506752 8.975942980549132 1 -1 2
100 1 0.2761383531073909 22.39242282640474 10.822704846670486 1 0 0
2385 1 7.356256377379613 17.67957827981043 8.272614332918867 -1 -1 1
2417 1 5.175543590462558 17.53072994236534 9.334546532551368 0 0 1
1429 1 7.527900429568462 17.723899157296565 10.743389704680371 1 0 1
2192 1 3.599819844503971 20.919194918747394 7.832856367977833 -2 -1 1
57 1 6.074949585825624 20.136357190362702 9.460104122678608 -1 -1 -1
357 1 3.9948976967632515 22.02886847387481 10.16024747798523 0 0 0
329 1 9.283409498999848 16.626153923134055 6.856748462661792 0 0 0
417 1 9.47128937386156 17.459458616879203 9.220729175358361 1 -1 0
217 1 9.784552677358047 19.296519071768664 7.354598075086334 0 -1 0
443 1 12.144711619546039 18.202295889281558 9.417385366006243 0 -1 0
2617 1 11.817177315193687 20.593322010983563 8.714972375392035 1 0 1
500 1 8.376291298720977 19.63197192295319 9.179144140991216 0 0 0
894 1 13.862285443804604 20.110812834621804 7.344695946440281 0 -1 0
471 1 14.694671336063127 17.06210547970481 11.051505259009737 0 -1 0
103 1 13.415454982340144 20.813678941654224 10.322032293507633 0 0 0
890 1 14.489527133699596 18.725624016793738 9.606630757883691 1 0 0
2628 1 17.15144958028708 17.776661772774624 9.966836537240885 0 0 2
373 1 15.868228564713926 20.589354583366287 7.542920052495536 -1 0 0
886 1 16.040118005020616 20.390779922085912 10.429472890685226 0 0 0
498 1 18.166826792977766 17.598978169416654 7.193870855688293 0 0 0
1067 1 18.14665818733191 19.949971259223574 8.488488035869388 0 0 0
750 1 19.507847975220216 18.012338597306545 9.856721218161809 0 0 0
1800 1 21.459403972835965 20.404599231417542 10.136866492553951 -1 0 0
144 1 20.561203271124867 19.049351424512352 8.138141248270378 -1 0 0
981 1 21.494014108438513 16.7316122853953 10.450706578815936 -1 0 0
1486 1 22.447957880681507 20.23437761668893 6.763130197200361 -2 -1 0
2100 1 21.15014715859874 16.786895256060475 8.008579929669743 -1 0 1
1164 1 24.472657151227487 21.34437704227993 8.819701876316614 0 1 0
694 1 3.118636570974585 23.519621582135287 8.276553364216323 0 0 0
476 1 0.5768485216943772 23.439544970343235 8.324156639433447 2 -1 0
1331 1 2.0370629278658456 21.352309886204843 9.10608591048264 1 0 0
1391 1 2.8157282509559396 0.27148683596710455 9.437500181516144 1 0 1
1201 1 0.8380788460691058 -0.19113116800713925 10.099630498662512 1 0 0
951 1 4.770952520412031 24.288374047294916 9.847815571602778 1 0 0
365 1 4.496460689340916 0.1827493314790975 7.640440458334588 -1 1 0
2343 1 7.2758803839468635 21.897362943070632 10.212978654610385 0 0 2
1302 1 7.561290267381383 21.002973644793776 7.590884754999352 0 0 0
1626 1 4.342656102239129 22.749720213479478 6.114603476867659 0 -1 1
430 1 6.160961584088742 23.843154751514383 6.515257393254483 0 0 0
416 1 10.844392931173124 23.48250912881933 8.29370895301913 1 0 0
261 1 9.450260741468114 24.361863235851203 6.402770744517234 0 -1 0
525 1 9.763015430755905 21.737810542442276 9.732480337404919 0 -1 0
580 1 11.913418648696137 22.519665169249933 10.50694820603109 0 0 0
524 1 13.234207581661467 24.395700345191493 9.57649217662389 0 -1 0
655 1 13.40526530586524 22.376657100885026 8.36791132725389 0 -1 0
235 1 14.461552699325605 24.49234032315207 7.087596689654805 0 -1 0
1936 1 15.885669490628105 22.95801253061196 8.399041392087558 -1 0 0
1954 1 20.49020300428613 0.8144861686596758 8.19975846697605 0 1 1
276 1 17.73224727433748 24.447797033923713 7.134206503580925 0 -1 0
59 1 17.949682482041958 19.95562754195285 5.924626970799119 -1 -1 0
445 1 19.3778527232285 24.052355707016012 8.734841778306778 0 -1 0
363 1 18.40342491810808 22.199746436280897 7.739033996118198 0 0 0
791 1 17.542754348056995 22.392837284960137 10.092388566732822 -1 -1 0
1692 1 23.514367446701065 1.3451436369132146 9.583429455150247 -1 0 1
1607 1 21.727659293277576 21.914572934031675 8.056842385152887 -1 -1 1
2123 1 23.919644090711735 24.273039452695862 9.090310527470976 -2 0 1
572 1 21.873750685773906 25.075476648112776 9.792271828889675 -1 0 0
317 1 22.57279175054532 22.757512479022942 9.958952430736076 -1 0 0
438 1 24.52429315004421 3.3462564577743117 14.175415508705056 -1 0 0
328 1 3.2044318715180062 1.708677720983292 11.396200435074935 1 0 0
1533 1 0.6117704908454866 1.5998963305864324 13.035974506746616 1 1 0
902 1 5.273420331540349 1.1562417955092785 10.08153903397954 0 1 0
529 1 4.7464868146788195 2.0294562600310937 13.13777866962718 1 1 0
1683 1 6.743764202072373 24.890547046666352 8.840298216045706 -1 -1 0
657 1 5.498440884230159 0.19883299634053025 12.230201122211891 0 0 0
313 1 8.295383932725553 0.43928437796765485 11.64552748930584 0 0 0
1796 1 7.247594412237914 2.8249406357838263 11.614805297515044 0 -1 0
1645 1 7.215404877979857 0.9199792541495226 13.859155326820229 0 0 1
1269 1 10.147575589348847 1.5860179951851672 11.246012607701005 -1 0 0
2114 1 9.296584637681795 1.5309540977065232 13.668661398438239 1 0 1
426 1 9.392972607749355 3.92653817131953 13.097981782801227 0 0 0
352 1 11.248035238467983 -0.15533188914729523 10.254089651547922 0 0 0
1430 1 11.566016436254635 0.5596678569386774 12.889750861512825 0 0 0
1208 1 11.25828828340577 2.835648056773761 13.106100245974618 -1 0 0
991 1 12.454391596896212 2.2810800091171246 11.208522647126728 0 -1 0
1105 1 15.748778954248538 24.520674530959276 11.72699051190026 0 0 0
2520 1 14.06780702885534 0.1214459279158826 12.671407561478757 1 -1 1
207 1 16.375482760791932 1.395445320596241 11.440562826738228 -1 0 0
303 1 16.45591872638196 -0.19004430431174596 13.746847057881155 0 1 0
1549 1 14.87459810134152 2.6287655176834517 13.095699967660552 0 0 0
591 1 18.68013687258499 1.2977794391338418 12.333051929542648 -1 0 0
160 1 17.61926264484709 3.2497387332965166 13.016313887560571 0 0 0
1160 1 19.871371357001856 0.6852654351425469 10.513326428641367 -1 1 0
252 1 20.67476487700342 2.8731489783978175 12.94892338254369 0 0 0
1441 1 19.071289294657603 21.807131280298705 12.173455288825357 0 -1 0
1130 1 21.868977066540893 1.4129540067907733 11.51138375445411 0 1 0
13 1 23.194345609679843 1.3454712223255 13.444556506566325 0 0 -1
735 1 22.05783703151097 3.9053093064311595 14.703417136527632 0 0 0
2196 1 22.278834577363668 3.682552198133852 11.633811187710062 -1 0 1
1775 1 21.324712487128814 -0.14721409920475664 14.407463745864225 0 0 1
2582 1 1.6192489283154639 3.910022713697953 11.146910135933023 0 -1 1
364 1 0.4952120085879774 4.992704293703547 13.239850051924279 1 1 0
1240 1 3.024139836993625 5.922980061318691 13.615878447865297 0 0 0
513 1 1.2416451300599571 6.839298037460348 12.16747453299732 0 1 0
923 1 2.4968687044364577 3.6102189509185556 13.29668750163657 1 0 0
448 1 3.6994164809920034 6.099443179891272 11.486691421245514 1 0 0
129 1 5.159549764557726 4.435746778390711 13.620927814964016 0 0 -1
1488 1 4.583152360217105 3.4033271882636185 10.869611934203357 -1 1 1
279 1 5.4650063977204235 6.751608403649638 12.832446079517943 1 0 0
2563 1 7.885860876487797 5.558091747689144 13.058681826547414 0 -1 1
1751 1 8.799984648299402 4.57371778161556 10.66538784133157 1 1 -1
2382 1 11.021277334700832 5.233574185198204 13.644055085923275 0 0 1
765 1 11.13625890583503 4.220178661906715 11.026949175004674 0 1 0
918 1 9.649548584526936 6.443208742785919 11.85201664052764 1 1 0