LAMMPS data file via write_data, version 29 Oct 2020, timestep = 200000

2160 atoms
1 atom types

0.18884270955275184 21.075157290447446 xlo xhi
0.18884270955275184 21.075157290447446 ylo yhi
2.769584963984631 62.28098846720751 zlo zhi

Masses

1 58.933

Atoms # atomic

8 1 3.6005748530082013 1.0836948205790025 5.560021709500144 0 0 0
145 1 1.7814423687973975 1.2748364712542555 7.029351370301654 0 0 0
4 1 1.0045588182269105 2.863368075435014 5.049425316115607 0 0 0
146 1 3.4933797385635232 3.0843515700199093 7.005517405643802 0 0 0
27 1 3.0928827670455576 2.9860424716033283 3.1481938590130754 0 0 0
25 1 1.2327641420644173 4.174571325198034 2.8027665745197243 0 0 0
29 1 5.2565600424604115 3.010685204300801 5.276367002427875 0 0 0
7 1 7.212324996456092 1.3028566308125382 4.954640567386953 0 0 0
150 1 6.908724936811087 3.265623017153654 6.888348799921167 0 0 0
1558 1 7.024971520120382 3.221447463413305 3.1083778645265427 1 1 1
149 1 5.556339208686638 1.4800124240245427 7.089751890292148 0 0 0
1348 1 5.236865753575966 1.728436269807807 3.381182898069027 0 1 0
12 1 8.754453970772502 2.9715258767819557 4.6368479074561115 0 0 0
153 1 8.777297340314464 1.6182819587619632 6.959762443432181 0 0 0
154 1 10.30510372900245 3.4515892258867047 6.9810573576043335 0 0 0
16 1 10.534978744263496 1.7299168517745902 5.089890156280835 0 0 0
1137 1 10.388529474794613 3.2522759497020544 3.2146671046240196 -1 0 0
39 1 11.988546058300647 3.7346079994079715 5.201917002026857 0 0 0
302 1 12.428602518446946 2.273533487949125 6.9966850825581615 0 0 0
37 1 12.49746535284507 1.996257113800498 3.004982210813579 0 0 0
10 1 9.10311021909872 1.2864565237073329 2.8365883320862593 0 0 0
157 1 10.87418169235592 0.6456827307177295 7.163295954326978 0 0 0
15 1 12.736681232001434 0.5081734880832756 5.2006355264152875 0 0 0
41 1 13.73181196311371 4.226625923413523 3.4197986394184325 0 0 0
20 1 14.189098083823763 2.3086177120804905 4.6688373897809345 0 0 0
162 1 16.75929794500422 2.6111864980102997 7.056701104486383 0 0 0
19 1 16.329915166394386 0.8811789441045864 4.705828016359861 0 0 0
158 1 14.773128734439268 0.8400862837113454 6.504581323288047 0 0 0
14 1 14.544419734554529 0.44278515255177037 2.9043192438505496 0 0 0
185 1 14.475489790016908 3.671210427047675 6.890279356239579 0 0 0
43 1 16.06598185055931 3.7685670369918407 5.016445438880006 0 0 0
24 1 18.008069058321183 2.675662763774393 5.025655758621651 0 0 0
165 1 18.551976188235745 1.0234499833985546 7.449945269925375 0 0 0
166 1 20.548070171830567 2.455524331056405 6.993135610088053 0 0 0
123 1 20.13630126132151 1.0250204076959784 5.219223084492141 -1 1 0
22 1 19.54050917176704 2.5238598725637185 2.9336547283044574 0 0 0
189 1 18.418476999892388 4.0504771234481645 7.398259504649864 0 0 0
47 1 19.97052069984658 4.005932254238097 4.386977628397311 0 0 0
23 1 18.17239065336444 0.740696791805539 3.0976776913646606 0 0 0
28 1 2.9465964600676386 4.535927722143905 5.171453583901238 0 0 0
169 1 1.366068097731234 4.583152912063008 7.007879534381861 0 0 0
71 1 1.0523193401143782 5.910507556284562 4.930682900773008 1 0 0
171 1 3.1007709363084057 6.115463820440847 7.158875823450478 0 0 0
51 1 2.44329065085128 7.759422121068279 5.354195690580397 0 0 0
193 1 1.0259750847298221 7.480763105372848 7.369387184967564 0 0 0
6 1 3.070255102344694 5.995969987152844 3.2012348012251404 0 0 0
49 1 1.046116707503769 7.804077565906712 2.856475134538402 0 0 0
53 1 4.399199060949016 8.09419548133955 3.4123021709859365 0 0 0
36 1 6.647869791671548 6.6308808826896195 3.1479787364161305 0 0 0
173 1 5.192135191305024 5.044163248818307 6.885906843788798 0 0 0
170 1 4.761050463556561 8.091888725566108 7.289739230477466 0 0 0
31 1 6.833872995368509 4.983960440157329 5.176178220080631 0 0 0
32 1 4.767611813564679 6.497528670109311 4.949877818717909 0 0 0
197 1 6.932852267525097 6.407971053273143 7.411551623101888 0 0 0
174 1 8.38943778055451 6.717368562647608 5.4329207874204 0 0 0
55 1 6.343144129787515 8.06788837974053 5.045615936959326 0 0 0
201 1 7.962840960583794 8.361112457542736 7.137788021798529 0 0 0
9 1 5.004463479180484 4.451551240763411 3.3794700708973595 0 0 0
57 1 10.21187877930712 7.63497506102748 2.9910229863539453 0 0 0
33 1 8.80405552875388 5.2751602185668 3.4477136117211513 0 0 0
177 1 8.62219322050647 4.803236011965285 7.0410448819235025 0 0 0
35 1 10.453325062060594 5.219275774848138 5.171829952629372 0 0 0
178 1 10.394295737124256 6.424939909426903 7.274950471839583 0 0 0
181 1 12.439295743574249 5.103294136527753 7.4144528449729785 0 0 0
34 1 12.039494994686459 6.979820492204151 5.268377371758412 0 0 0
40 1 10.130950064393506 8.209119339398551 5.435212108468598 0 0 0
1209 1 11.823661192200502 5.80986235002619 3.2028456195305233 -1 1 0
1316 1 15.84838446968496 5.533295228446109 2.9421300300129154 0 0 1
182 1 13.986238818931882 6.818168804771327 7.406185054821495 0 0 0
42 1 13.84732183505615 5.510642365724326 5.272104294714574 0 0 0
67 1 15.755954647374198 6.63314267394216 5.2679527007575455 0 0 0
186 1 16.305833652489923 5.0080472546723085 7.290379485297391 0 0 0
1083 1 13.91317848079615 7.270757038638006 3.3809801933782815 -1 0 0
44 1 13.982609830639772 8.332342820850922 5.31576131645306 0 0 0
45 1 17.97843965005066 4.416786480972757 2.8044693771884917 0 0 0
48 1 17.879486606562633 5.467019744578887 5.215170227792866 0 0 0
70 1 19.558924020251673 7.135545180098346 4.986156309120877 0 0 0
213 1 17.69620290418623 6.946434740303764 7.063111992427383 0 0 0
190 1 20.147587938528332 5.636177577628822 6.85597453543278 0 0 0
1593 1 17.683388747018693 6.939511503671521 3.1558595661152333 -1 1 0
72 1 17.382703706932823 8.346819123088233 5.3352759591213275 0 0 0
214 1 19.53822008008232 8.294326500444967 7.062190021157604 0 0 0
69 1 20.212707051601864 6.0023683595233726 2.882651287672843 0 0 0
75 1 2.0400185545003735 10.695879260725974 5.030392997816673 0 0 0
194 1 2.8083810640275124 9.314972950808425 7.419012079388839 0 0 0
52 1 0.4221512683343073 9.008856386546512 5.203171941512813 0 0 0
217 1 0.2756175966377816 10.319647853031205 7.163921286550116 0 0 0
50 1 2.5396399655189006 9.73402813664976 3.2164991537422467 0 0 0
73 1 0.321998500211678 10.636604980106965 2.911929082755985 0 0 0
77 1 4.33319937903704 11.416327082756869 3.174191004089596 0 0 0
221 1 3.896956364468863 11.400712443417735 6.759482012055823 0 0 0
56 1 4.15300506433111 9.503495086762236 5.585538677749451 0 0 0
74 1 2.0951170442364555 12.437888698608347 3.334038964518601 0 0 0
59 1 7.832156779097525 8.582607225463939 3.121996605649585 0 0 0
79 1 5.77109419416061 11.527601091948743 5.138982369681119 0 0 0
198 1 6.198642881498768 9.907222587319527 6.853714701328585 0 0 0
85 1 7.60255376273354 11.363359531894815 3.236434261681597 0 0 0
54 1 5.915281412432517 9.815944445049675 3.316227028220851 0 0 0
225 1 7.845744518056161 11.744249642695706 7.20121896121699 0 0 0
60 1 8.27948876071186 9.827850799559542 5.259889620048231 0 0 0
205 1 12.11384098430919 8.658454923789503 7.41146311346009 0 0 0
38 1 12.35492075629045 9.013141629315854 2.941851698590654 0 0 0
61 1 10.078963598515323 10.130800724732701 3.299983343384934 0 0 0
202 1 9.551157081121524 10.168645584666635 7.276091166539185 0 0 0
64 1 9.586328612187803 11.940039489020137 5.404182090854372 0 0 0
63 1 11.598831276431833 9.93703884102243 5.430498229079092 0 0 0
229 1 11.65487551355944 11.580843873384394 7.065711325626781 0 0 0
107 1 9.563810572694967 12.695807689732897 3.1051322998729702 0 0 0
1473 1 11.872314450115061 11.569519651245194 3.37480304752577 0 0 0
1521 1 13.85559067513858 10.380589487897945 4.125871391107568 0 -1 0
209 1 15.793597577272234 8.88144793757361 7.206431985517117 0 0 0
206 1 13.772647532150286 10.29147251878101 6.754534392805553 0 0 0
62 1 13.551371027263757 12.348602165766344 5.487686154038215 0 0 0
68 1 15.895150986816985 10.090147985190253 5.248249174031326 0 0 0
233 1 15.692199502792088 11.672902036388782 7.316977572856434 0 0 0
89 1 15.69041921073573 11.747848949685139 3.207698215463634 0 0 0
66 1 15.813899462744683 8.58338091854416 3.3736531805922243 0 0 0
1820 1 19.03119317766003 11.869624099091386 3.2727814852953436 0 1 1
76 1 20.769117524992108 11.901143515349704 5.177562826063972 -1 0 0
1795 1 19.64291527280135 8.552879981283839 3.0435100053581663 1 0 1
91 1 17.38508847056518 11.77073405800786 5.450718132961222 0 0 0
95 1 19.425864119039417 10.060231810996365 4.873933921660541 0 0 0
210 1 17.849510696671487 10.020853676554477 7.168411416641801 0 0 0
237 1 19.26475597995389 11.786117691191341 7.186962399665002 0 0 0
93 1 17.53891492865529 10.077073522387009 3.187139242059411 0 0 0
218 1 1.5790488392623476 12.738604450048099 7.252031021800741 0 0 0
99 1 1.2136683311086027 13.850253781746323 5.127224810360019 0 0 0
241 1 1.4444273141658504 15.46328762352095 7.054469923009752 0 0 0
245 1 3.5676044147687405 14.156506457015473 7.288521255388757 0 0 0
103 1 3.4068704890651382 15.725343922157371 4.785820284949666 0 0 0
101 1 1.7648162545424677 15.636963229925128 3.1174573041238687 0 0 0
80 1 3.729320045437487 13.12875150974251 5.233186105038151 0 0 0
1124 1 3.910912405751303 14.089962057989965 3.257066227675635 1 0 0
82 1 7.872513054318632 15.14158061695368 3.1711149941461083 0 0 0
222 1 5.746342022275105 12.95210015050121 7.087132355345738 0 0 0
83 1 7.4741103411540735 13.148011934977166 5.15917506361885 0 0 0
81 1 6.073249743127095 13.301206493504388 3.4801898412194125 0 0 0
78 1 5.4844180240771845 14.753376187947307 5.440230252578337 0 0 0
84 1 7.206623946519752 14.721403116250737 7.241598176012367 0 0 0
249 1 5.392855726014014 16.35484647679698 7.367497946248244 0 0 0
108 1 7.471257648726753 16.315939159412732 5.192886238483264 0 0 0
102 1 5.469838668973967 15.813401191599407 3.167588608701849 0 0 0
109 1 11.452723903828419 14.834132020380267 3.194416749558099 0 0 0
226 1 9.356504532040047 13.808777880655757 7.018468832310804 0 0 0
87 1 11.338261317443987 13.603927239663868 5.271038131851434 0 0 0
88 1 9.550197824352237 14.977999887553343 4.813451979263169 0 0 0
253 1 11.703566890744096 14.952403116134034 7.32786036848495 0 0 0
112 1 11.350712692511278 16.402755103362797 5.093716084103486 0 0 0
250 1 9.224241343188096 16.144470965826535 7.032776657049248 0 0 0
113 1 15.259456111974862 14.76197686590284 3.394101489058653 0 0 0
111 1 13.535845023569925 15.132296129389989 5.5864421013405465 0 0 0
92 1 15.439470288805968 13.580739617931398 5.635299328293858 0 0 0
257 1 15.045270361602055 15.254307758713416 7.248737792777651 0 0 0
230 1 13.561567439194194 13.334030881660302 7.415242999186146 0 0 0
116 1 15.368164514614412 16.678525323701734 5.32873863464486 0 0 0
86 1 13.458422198621975 12.982983929225734 3.237650691031118 0 0 0
137 1 13.308960339623217 16.3015257880429 3.1945232362579326 0 0 0
254 1 13.221308853055758 16.757929335605287 7.618918747249337 0 0 0
94 1 20.658365289456665 13.324960998364025 3.1899244454860116 0 0 0
238 1 20.51849890786403 14.184003738660746 7.173199084209937 0 0 0
119 1 20.584217513156176 15.539413983939047 4.998928638263772 0 0 0
234 1 17.51746724477658 14.003398738032518 6.941632053115582 0 0 0
90 1 17.394219868273062 13.419337379130102 3.4917507089557347 0 0 0
115 1 17.34957208140147 15.5367568407695 5.1077288587798 0 0 0
96 1 18.917959226627154 13.597200490973824 5.120271674525831 0 0 0
261 1 19.210033232470384 16.05591989804784 7.167936659754972 0 0 0
117 1 19.04977527579879 15.448198169748679 3.3829258006675835 0 0 0
5 1 3.5082042168654146 20.812249580311114 3.276133452313257 0 -1 0
98 1 1.8519417162230893 19.271338377538484 3.2993040399897584 0 0 0
100 1 1.6010399805612192 17.36048710747552 5.023357655447447 0 0 0
122 1 1.6218630774147633 20.71140128694886 5.150067918871832 0 0 0
269 1 3.703893555755977 20.9255861381976 7.571849785176353 0 0 0
242 1 3.1344804061577145 17.080175245493056 6.884608278507471 0 0 0
104 1 3.3798364977128843 19.059955866338758 5.124840806682885 0 0 0
266 1 2.0772854466459707 19.367244595622406 7.309574419069303 0 0 0
125 1 3.694614122387986 17.659902429805687 3.3558065534945847 0 0 0
262 1 0.21093719534987143 17.85390962722604 7.248090886708856 1 0 0
1942 1 7.185482311408653 17.6369589785135 2.9219584790602027 0 -1 0
270 1 7.117841159342501 20.341759996304436 6.991131385435877 0 0 0
1847 1 7.256492167299524 20.602491573697353 3.0896692388990306 0 -1 1
128 1 5.459999422207299 20.631240535562803 5.462150467384102 0 0 0
126 1 5.351143598957583 19.092517275129367 2.999648346042343 0 0 0
127 1 5.35120942027246 17.19011336555757 5.16399827705208 0 0 0
132 1 7.139388167954949 18.87065310928719 4.732069499305014 0 0 0
273 1 7.016676985527568 17.936944470733064 6.874935195053198 0 0 0
246 1 4.986146765440363 18.7152613866017 7.304923666473789 0 0 0
13 1 11.184997001303476 20.694677951512652 3.3488011096113532 0 -1 0
129 1 9.526868787589386 17.027137190578646 3.6203908098522626 0 0 0
11 1 8.99904397577788 20.76024791672906 5.14158007608136 0 -1 0
130 1 9.097222796814451 19.35127223562538 3.40732121506381 0 0 0
133 1 11.420173215431308 18.14292306596941 3.102706282027659 0 0 0
274 1 9.191728424079226 19.435146301686128 7.534615406774777 0 0 0
131 1 9.505909864149693 17.993200974146255 5.633347920194049 0 0 0
136 1 11.396030275790105 19.32611477292814 5.413307151004133 0 0 0
277 1 11.242882146000174 17.536714931091627 7.4209016557835135 0 0 0
21 1 16.275607849327574 19.674490469345454 2.9229073734161872 0 -1 0
17 1 14.894563094709518 17.815225635274256 3.446850044750974 0 -1 0
278 1 12.897736397690903 20.176708386524155 6.99417161287745 0 0 0
135 1 13.112079352554325 17.945090810345256 5.270781540765357 0 0 0
140 1 14.76119022469189 19.805700176904907 5.028085784221588 0 0 0
281 1 14.882562000224187 18.71793301092577 7.060761612481745 0 0 0
139 1 16.7536044065857 18.676774988928447 5.227832764433613 0 0 0
138 1 17.330881880966693 16.912994671038266 3.224648289635546 0 0 0
258 1 17.060846389514204 17.19471640549465 7.391442352795205 0 0 0
141 1 20.845353578981673 17.672658819117633 3.2080258691706875 0 0 0
120 1 19.154433977125308 17.446957285241446 5.099172896657516 0 0 0
161 1 16.950376181823597 20.048970971726625 7.392454984552371 0 -1 0
1509 1 20.573394515464837 20.562172986909534 3.267488077036917 1 1 1
265 1 20.7750436652787 20.3628246923299 7.288489962483594 -1 0 0
143 1 20.915639327005287 19.095275881557583 5.123107313421196 0 0 0
144 1 18.405027768538165 20.388878121107552 5.208030306255857 0 0 0
285 1 19.077309618005717 18.90149628932812 7.157152458638121 0 0 0
121 1 18.489091420746245 19.14027661660266 2.996496993292484 -1 0 0
290 1 3.534914386238289 2.963428638033841 11.2291196488755 0 0 0
148 1 1.5497259039755453 2.828796712314493 8.975452612700792 0 0 0
147 1 3.5605856952718438 1.7013274572166122 9.166970400499387 0 0 0
289 1 1.729285842735328 1.65089309436702 11.39685381668014 0 0 0
313 1 1.490987857274826 4.288865107319698 10.958949069097665 0 0 0
293 1 5.529653005478283 1.592772556539703 11.21082845047046 0 0 0
151 1 5.395226293363159 3.1553162813257782 9.074207744271689 0 0 0
294 1 7.049157862434699 3.255893929527113 10.938699590722269 0 0 0
276 1 7.096728450990823 1.492992520023268 9.33753235982067 0 1 0
156 1 8.86339157860519 3.146674204128964 9.178681478508196 0 0 0
297 1 9.039740661623352 1.2670289204625989 11.649228213641175 0 0 0
160 1 11.097065983864677 2.2955084528351426 8.902945915379838 0 0 0
298 1 10.693566022964221 3.132330032694164 11.434094036701548 0 0 0
159 1 12.700932247202903 0.5723160666922491 9.098376682255594 0 0 0
301 1 11.12484010166562 0.6491130582292322 10.796139265169131 0 0 0
155 1 9.254862968006213 0.43187045124979473 9.07058644406133 0 0 0
183 1 12.693077089137134 3.661408724460988 9.790599540314094 0 0 0
305 1 13.389624064898474 1.898909819155893 11.187681738041967 0 0 0
164 1 14.326261007041214 2.146365946706913 8.76100216330818 0 0 0
163 1 16.842065368276987 0.8762073768723712 9.458724225813388 0 0 0
188 1 14.823027139412153 3.804434650613461 11.133213198360702 0 0 0
333 1 16.53643929772642 2.254396082143085 11.401083055675729 0 0 0
426 1 15.143623260882322 0.35104133351083655 11.191692783741226 0 1 0
306 1 16.73775875338077 3.687967376270651 9.424461316315991 0 0 0
167 1 20.674058611740644 1.1778391274125284 8.909136069155249 0 0 0
168 1 18.71502297511598 2.5429458512222847 9.281056106780472 0 0 0
310 1 20.63139181113918 2.8298794699182075 10.81267242964259 0 0 0
309 1 19.11312370755264 1.0982702774402147 10.914719023912506 0 0 0
336 1 18.217423315672786 4.185066163823253 11.14302931945008 0 0 0
152 1 3.191139836786484 4.493979289037183 8.930376876924566 0 0 0
314 1 3.1366170805699674 6.1782431482082 11.03295157627291 0 0 0
195 1 2.9993283332446827 7.826639629659849 8.964256225364284 0 0 0
172 1 1.3240330537184917 5.82811138348366 9.115738812049763 0 0 0
337 1 1.0519311605988917 7.130058622724455 11.353524378974146 0 0 0
175 1 6.941890406587702 4.930715679805415 9.355400257392994 0 0 0
176 1 4.8898900073249845 6.379177754644077 8.960163031160944 0 0 0
341 1 4.69936210267488 8.210062606197637 11.034757645505264 0 0 0
317 1 5.132183120910482 4.691093313948854 11.106549266005242 0 0 0
318 1 7.104892065278719 6.570793707040819 11.123859031561738 0 0 0
199 1 6.309650056833428 8.136496255706511 9.276567998408733 0 0 0
485 1 4.981913738990905 6.5806911029155115 12.674119653299986 0 0 0
321 1 8.741882668017663 5.025241498688869 10.674060818994953 0 0 0
345 1 8.644082322070869 8.289230156435126 11.217009016846799 0 0 0
180 1 8.544987591303427 6.997194406266754 8.984353790118012 0 0 0
179 1 10.572888744948413 4.772551228954682 9.209109783180466 0 0 0
322 1 10.38738193645519 6.436038636108933 10.790139206586556 0 0 0
325 1 12.616075157110682 5.476563751127445 11.133106238335882 0 0 0
184 1 12.201708729647402 6.507649099218192 9.198804405091629 0 0 0
349 1 12.234468798645642 8.382383947013977 10.79142531993322 0 0 0
187 1 14.37361536393312 4.908853561462263 9.087959765459665 0 0 0
329 1 16.23952052862943 5.610514476369206 10.773194650982738 0 0 0
326 1 14.138304613939034 7.118902482879382 11.008273352216674 0 0 0
211 1 15.779786810489435 6.79480803571152 8.685342596223581 0 0 0
191 1 20.369182126868946 4.373745808784091 9.017556477583945 0 0 0
330 1 18.031654353338947 7.561564798202367 11.205078790271877 0 0 0
192 1 18.50372106776339 5.556872488160939 9.332004102034706 0 0 0
334 1 20.186102131019457 5.316177649182945 11.170886284009068 0 0 0
215 1 19.9770313970573 7.273230458744168 9.392093959259658 0 0 0
216 1 17.59905290245329 8.335386591736075 8.94772803601882 0 0 0
338 1 2.6190379432937956 9.655457370626063 10.904492988788679 0 0 0
219 1 1.9576371632227954 11.036752933383871 8.903594169864736 0 0 0
358 1 0.3839774158672508 10.851434242366382 10.92197961675938 1 0 0
196 1 0.9799201525070893 9.053710978443636 9.299822641276002 0 0 0
362 1 2.0618577298018685 12.659638195982897 11.063370306498458 0 0 0
200 1 4.29744735471914 9.663978343025846 9.238428252109575 0 0 0
224 1 3.76246080931561 12.355887329064844 9.308386952542897 0 0 0
340 1 0.9251237436368813 9.162418724969228 12.641067054283546 0 0 0
365 1 4.497353089642102 10.780241911420413 11.384071428467529 0 0 0
342 1 6.7312915717702895 9.636696767809447 11.209913124995111 0 0 0
223 1 6.282500348464595 11.229625223192107 9.021469866300217 0 0 0
369 1 8.144309647543441 11.507887209791317 11.116131043118918 0 0 0
204 1 8.272389020573442 9.952948616318986 9.21400120151662 0 0 0
203 1 10.258291046332667 8.603361677887465 9.151356907087237 0 0 0
227 1 9.793147548911886 11.94146749911983 8.903066957405777 0 0 0
208 1 11.707839292102996 10.42864707898172 9.02990229726026 0 0 0
346 1 10.079136477001684 10.138902586682503 10.90764089300287 0 0 0
373 1 11.941584539428696 12.14982930670696 10.999271420708665 0 0 0
353 1 15.725261770480024 8.747801060592424 11.468671916500266 0 0 0
207 1 14.204906854515976 8.878451799117476 9.311799033494955 0 0 0
231 1 14.121378971828435 11.425243526691464 9.099571909318303 0 0 0
350 1 13.966093802045078 10.18701041077867 11.32545882049508 0 0 0
212 1 16.300047464288404 9.986327821420863 9.09557638794254 0 0 0
377 1 15.907103993028462 11.718292430848562 10.923249116809446 0 0 0
357 1 20.037767745045336 8.804678386319678 11.185508293646095 0 0 0
361 1 20.76248492541064 12.632313693044347 9.39081763692605 -1 0 0
235 1 17.60641838125084 12.058406808229227 8.836659185530575 0 0 0
354 1 17.68962693961366 9.978469420838517 11.232867752713762 0 0 0
239 1 19.3320260527922 10.022238854251801 9.191806601225721 0 0 0
381 1 19.070738693878468 11.888222467680443 11.107331450746928 0 0 0
385 1 2.2568954586171253 15.890571337421155 11.007215328256269 0 0 0
220 1 2.0473734778289634 14.14472025110472 9.060511723932912 0 0 0
243 1 3.7051331210456575 16.034608081646084 8.890494013348036 0 0 0
389 1 4.28122276559856 14.398011481254384 11.010499362084579 0 0 0
366 1 5.991283368908865 12.869320766780895 11.07877240691517 0 0 0
228 1 7.695379942818172 13.630806448138863 9.019331273031312 0 0 0
247 1 5.598961713812231 14.464325089771622 9.116741268477817 0 0 0
393 1 7.706801162910209 14.527190406181575 11.298758777898408 0 0 0
252 1 7.70424950229705 16.123626530494832 9.239272455995323 0 0 0
390 1 5.833945100266449 16.227358825329155 11.139029986700589 0 0 0
370 1 10.031636923126294 13.398495681840737 11.02842791836911 0 0 0
232 1 11.840975914770826 13.513918215491806 9.20824885613576 0 0 0
251 1 9.654221540909425 15.034829121788487 8.994956460435695 0 0 0
397 1 12.06144267705568 14.653463898755545 11.383897825979036 0 0 0
394 1 9.779814944261888 15.983482428503907 11.197364690645253 0 0 0
256 1 11.59896480666372 16.287806300670766 9.573049155497689 0 0 0
374 1 14.025899195351183 13.165455368789091 10.9901955524392 0 0 0
236 1 15.847133309730069 13.406550631852094 9.107113924995465 0 0 0
255 1 13.741966663739804 15.05902738819466 9.58819867616117 0 0 0
401 1 15.555169894212698 15.194688153844389 11.343130263121681 0 0 0
398 1 13.684692392700542 16.688828989011146 11.359847945375659 0 0 0
263 1 20.73087176145557 16.09680058901897 8.918877677010608 0 0 0
259 1 17.200837101637546 15.490281546889697 9.431695945618179 0 0 0
382 1 20.98053628819693 14.364116844827407 11.056078095120453 0 0 0
378 1 17.289431947705534 13.40155329725249 11.001809842956503 0 0 0
240 1 19.174206191277232 14.101712887591933 9.002334920882973 0 0 0
405 1 19.21651032142225 16.02420876919165 11.004371630614298 0 0 0
268 1 2.0161879508856817 20.891788520443015 9.11448411069398 0 0 0
410 1 3.404102747523301 20.785952799843624 11.192892453824044 0 0 0
244 1 1.7862490578087629 17.497691388079158 9.062607315915507 0 0 0
386 1 3.9170678879112533 17.46384879373354 11.24843773884362 0 0 0
267 1 3.8587367750391257 18.896629724620325 9.442836783655258 0 0 0
409 1 2.1149584431150625 19.002596406233952 11.211219218292767 0 0 0
406 1 0.5312776822706625 17.232810982748322 11.275754379465877 1 0 0
430 1 0.463127767211045 20.74519331102152 10.980962179964518 1 0 0
414 1 7.249369839928433 20.897326193231667 11.339180741479595 0 0 0
272 1 5.36682802402255 20.8726270247148 9.50551967994727 0 0 0
248 1 5.822703615611502 17.58385375618929 9.352927409593441 0 0 0
413 1 5.486964452682276 19.305611473526753 11.15339828121517 0 0 0
271 1 7.484116132641624 19.530763092193983 9.355444790037764 0 0 0
417 1 7.650184907276813 17.704913146622683 11.137402356719251 0 0 0
418 1 9.416855321859462 19.479789496162056 11.306888985448154 0 0 0
275 1 9.46736483213717 17.621155786668176 9.218711813568639 0 0 0
421 1 11.523865609732796 18.164357878368588 11.302565713023709 0 0 0
280 1 11.168018476277906 19.70075544839744 8.933373153697358 0 0 0
260 1 14.990341643719322 17.058614622607458 9.543549161711844 0 0 0
422 1 13.126943607420245 20.041035513425047 10.900225638835348 0 0 0
279 1 13.361161190857459 18.6449006065703 9.007791620491062 0 0 0
282 1 14.759094135459796 20.463483803829064 8.76693917803841 0 0 0
425 1 15.033700126732741 18.85045856811787 11.526265954005533 0 0 0
283 1 16.487510860373632 18.82246248390435 9.179088607813238 0 0 0
402 1 17.016621503806824 17.20398425191398 11.470440606599647 0 0 0
284 1 17.036292277079585 19.964167330249456 11.071515597661092 0 0 0
264 1 18.63841358825199 17.39567819649066 9.228415859340348 0 0 0
287 1 20.92346989856481 19.395499284346542 9.191369745705899 0 0 0
429 1 19.088357958695585 18.964445920920767 11.31928845299855 0 0 0
288 1 18.700118137519805 20.039416030388004 9.376664046204873 0 0 0
292 1 1.7965605960112512 3.130438915366342 12.962519446998236 0 0 0
291 1 3.7896150308454617 1.3634046096930192 13.16196688034671 0 0 0
434 1 3.5061380838062592 3.1428111239951986 15.061377563741022 0 0 0
433 1 1.5411496510156484 1.8213757165845348 14.83431741230837 0 0 0
436 1 1.2603638932888925 2.525520106501618 17.362127172898226 0 0 0
435 1 3.461872154097881 1.211961317163995 17.09500592950201 0 0 0
457 1 1.2189596521681916 4.115048561884356 15.355862553785325 0 0 0
440 1 4.7151488910433885 3.622381987011142 17.04382518580269 0 0 0
295 1 7.0153279157108575 1.8504059696819892 12.905575312807683 0 0 0
296 1 5.179768453627185 3.5718741684503192 13.337949810451278 0 0 0
438 1 7.2752799683275 3.393118585800274 14.627705458575507 0 0 0
437 1 5.360209208215239 1.8953578248468361 15.243015967201105 0 0 0
439 1 7.07750183332531 1.9356383679174956 16.938543894178324 0 0 0
558 1 6.962395130046592 0.3377820915090002 15.058837696116644 0 1 0
560 1 5.4528923044534094 0.237143103236388 17.071724827382553 0 1 0
471 1 12.080460456461653 3.7594600614891447 16.811836707296422 0 0 0
447 1 12.323160458597792 0.4972436578647234 16.827318390208298 0 0 0
444 1 8.760731554177088 3.5098309853240703 16.794289714097033 0 0 0
441 1 8.93340747370639 2.084410188335151 15.224239738533676 0 0 0
299 1 10.42820404067569 1.6550858249805196 13.607346923774932 0 0 0
300 1 8.730258074758906 3.664387422779044 12.883450163422044 0 0 0
442 1 10.562833211473043 3.591578377143029 14.980060174197318 0 0 0
448 1 10.673862513401101 2.2524429539088726 17.494439505283943 0 0 0
446 1 12.60498186496481 2.0196807456703767 15.064492933460006 0 0 0
303 1 12.699313373563143 0.8112711972437261 13.02471803784963 0 0 0
443 1 8.861331454611152 0.6333906501307887 17.004492927547815 0 0 0
304 1 12.763049422391603 3.2645998486549885 13.061128795500855 0 0 0
452 1 14.122411183693032 2.482617174234099 17.155411837558585 0 0 0
308 1 14.893423776896068 1.8680322373150104 13.135599187721162 0 0 0
450 1 16.588056538567674 2.05931822218374 14.901810424898587 0 0 0
449 1 14.489711016836877 0.7882699080281306 15.54001962463848 0 0 0
451 1 16.491893321442888 1.1998014371847439 17.173898938959866 0 0 0
331 1 16.533345793126596 3.957683100059839 13.174327551913237 0 0 0
473 1 14.770886888001408 3.3799592508228065 14.623675643302743 0 0 0
475 1 16.386177762697404 3.662337591495481 17.011217534786255 0 0 0
307 1 16.957675933598118 0.6279436135099237 13.160383578102497 0 0 0
455 1 19.964825524299698 0.7928681741551188 17.074803617515208 0 0 0
312 1 18.351280018006843 2.6138664314837703 12.879465602073859 0 0 0
311 1 20.694238854270917 1.7374369692526457 13.073169895649798 0 0 0
454 1 19.999680419537924 2.8119202774663057 15.014975969449344 0 0 0
453 1 18.534259593629386 0.6215453881844323 15.166336664866947 0 0 0
456 1 18.44005388880666 2.3553923740813634 17.02729927940056 0 0 0
477 1 18.152827008434567 4.30667130346189 15.390148584953677 0 0 0
335 1 20.19205444819588 3.9822064923669833 13.206605203387173 0 0 0
315 1 3.109318653448382 4.931508923444423 13.065963121181623 0 0 0
316 1 0.7693634653556819 5.717296956178895 13.359109410946324 0 0 0
320 1 2.6517696634986967 7.426814152070218 12.955804147384981 0 0 0
486 1 2.862377735461199 6.179388020130263 15.20127601998948 0 0 0
481 1 1.1761629556272888 7.725714879853476 15.075379296713207 0 0 0
460 1 0.8133791522589141 6.099059257855396 16.90448453076657 0 0 0
458 1 2.796505371999154 7.874239651771495 17.10821027272003 0 0 0
459 1 2.668904545803303 4.595872914365794 17.163528146700774 0 0 0
462 1 4.549364959828515 8.052864741087685 15.260134321101125 0 0 0
464 1 4.842357783424369 6.135185960696186 17.00477084708282 0 0 0
461 1 4.887435146831596 5.358182961497397 14.742738605825416 0 0 0
463 1 7.044192917809976 4.730259947158141 16.78381189588748 0 0 0
630 1 6.262875656241972 8.121692689683542 17.298480671196682 0 0 0
319 1 6.85112638548779 5.022277968094211 12.92595349275096 0 0 0
465 1 6.485431257479551 7.125426877337681 15.087127830417975 0 0 0
343 1 6.852424608690257 7.821195920029867 13.027936155893467 0 0 0
487 1 8.302935510741035 6.851150518794801 16.93227767830829 0 0 0
324 1 8.867679170336237 6.071364628899842 12.764795080475173 0 0 0
468 1 8.829301892329317 5.4283525910030015 15.116056677952129 0 0 0
467 1 10.518007951250437 5.470501050381403 17.389489140402794 0 0 0
323 1 11.029609645117922 4.954096993901149 13.043216441259082 0 0 0
472 1 12.650309771461542 6.8610803716962465 16.801148569210177 0 0 0
466 1 10.91608534305598 6.662721577222603 15.357013804687481 0 0 0
328 1 12.257075309228355 7.141611010674578 12.983760910546227 0 0 0
469 1 12.70968002343231 4.87391481343884 14.760780719633459 0 0 0
489 1 8.826814392734203 7.691998031222875 14.66613257560893 0 0 0
347 1 10.331380124321974 8.096662213686944 12.876313206202049 0 0 0
491 1 10.650005809232827 8.42927494725127 16.795014582814233 0 0 0
499 1 15.977515699974733 7.208950414430321 17.115831169893223 0 0 0
327 1 14.403416581127367 5.170970378708975 12.945259349808108 0 0 0
332 1 16.101568470144095 6.775778170794012 13.174619782191767 0 0 0
470 1 14.066937968821247 6.881863434793093 14.828512602727935 0 0 0
474 1 15.929490093769902 5.458509554103205 15.38519942985456 0 0 0
476 1 14.317216186885576 4.892010514046569 17.00331665624841 0 0 0
351 1 14.223994234740399 8.541272892236442 13.139686246172422 0 0 0
479 1 20.022301820382516 4.432497595857245 17.18382565269933 0 0 0
503 1 19.777315518545084 7.238455324330189 17.11115701660669 0 0 0
502 1 19.852346195796702 7.739432744261769 13.099109316497447 0 0 0
359 1 18.276781210373326 5.7523834928371365 12.821696641484973 0 0 0
478 1 19.96660235698774 5.903558417708355 14.931350205012862 0 0 0