LAMMPS data file via write_data, version 29 Oct 2020, timestep = 150000

2016 atoms
1 atom types

0.6416987559079548 20.62230124409116 xlo xhi
0.6416987559079548 20.62230124409116 ylo yhi
1.4972970971198656 48.11870290287885 zlo zhi

Masses

1 58.933

Atoms # atomic

3 1 1.575529489658381 2.548633806486455 4.0761226989685735 0 0 0
8 1 3.3980674788356886 4.143259514767323 3.534994144096977 0 0 0
149 1 3.4657559446501804 2.508700117777064 5.147982468772284 0 0 0
146 1 2.153153708912748 4.211625011444774 5.3517332940814715 0 0 0
26 1 1.708798070781566 4.185972420616082 1.9475960146842777 0 0 0
124 1 1.7294818367077875 0.8031477185657607 2.136431523557411 0 1 0
122 1 3.30700046353994 2.4462014618101104 1.9606280438064572 0 1 0
7 1 5.040974077400726 2.295874444254734 3.2726434408278386 0 0 0
153 1 6.789331759370879 4.108002143850563 3.433528044142055 0 0 0
11 1 8.226615277037638 2.2830867969514843 3.2649525754556628 0 0 0
132 1 6.486740186970576 2.2567393054409335 4.849092176750389 0 1 0
270 1 4.9923249300673715 0.6601890806793165 5.039363011928344 0 1 0
150 1 4.903060991949088 4.255440023367342 5.001049709714135 0 0 0
1284 1 5.30582632782199 0.7638634187702757 1.824783866299065 0 2 1
6 1 4.8278540793836635 4.058667601954962 1.7627572597451426 0 0 0
12 1 8.353334125802403 3.9712016072661607 1.5940781550031853 0 0 0
10 1 6.760697442287796 2.647267105822127 1.8086652505717353 0 0 0
1030 1 11.219999191119832 3.8965081389642067 1.7305042906931773 -2 1 1
38 1 9.867669585713776 2.3721175153430503 1.8986806732736017 0 0 0
154 1 8.751715806781817 4.079038892357589 5.347265305809772 0 0 0
1759 1 11.76849134549592 2.3360524252913955 3.239822824944972 -3 2 1
16 1 9.689774174096724 4.120910176670848 3.360447038702842 0 0 0
157 1 10.028305085521266 2.0402643988137767 4.686904266033427 0 0 0
158 1 11.35416944790488 4.07593704805346 4.71591183311204 0 0 0
134 1 11.423656231638109 0.6697260409695409 1.6777313013060327 0 1 0
19 1 13.348413237085598 2.471894798743939 1.6445031421614844 0 0 0
161 1 13.216580575714497 2.4873128534602653 4.750440168753343 0 0 0
20 1 13.247597078285613 4.358118266731189 3.499467218767028 0 0 0
138 1 14.874019552115518 2.3448624384395433 3.525170686180569 0 1 0
162 1 15.092346805746365 3.7276324824820235 5.231155918354585 0 0 0
17 1 13.192201914176334 0.697387755391967 3.1525079374179183 0 0 0
282 1 14.931688804531177 1.2723938442189842 5.214267387428767 0 1 0
1911 1 16.512540703484525 3.828325892863335 3.7190033410889907 0 2 1
141 1 16.5853924227114 0.9135025946290369 3.579756764393754 0 1 0
119 1 14.893207793272124 0.7685900207564896 1.7717067661221093 0 1 0
1480 1 16.46589658748549 2.252970575425789 1.9827499199153882 0 1 1
41 1 14.990766259762886 3.9005065746029626 2.0937195184112327 0 0 0
24 1 18.38884138207949 1.0129967399179445 1.8707080021179872 0 0 0
165 1 17.001990886300923 2.3953468481984856 5.281313782214514 0 0 0
18 1 19.884555058991026 4.0860730952230195 3.285654287848737 0 0 0
166 1 18.09762874544417 2.700700100622607 3.2278350304799273 0 0 0
189 1 18.279810868510182 4.02527039152099 4.91275355798489 0 0 0
23 1 20.005695811495876 0.8085872246157438 3.5193318867242276 0 0 0
47 1 18.3105994162307 4.006828586909079 1.7297820880143 0 0 0
1882 1 20.534089736613595 2.479279482004706 1.7207429112127834 -1 -1 1
4 1 1.7663291859462837 5.535933156352321 3.4454984695438045 0 0 0
25 1 3.4361197290547367 7.145775871678994 3.6095925505647295 0 0 0
170 1 1.8514412186563274 7.290983741302199 5.272679550714207 0 0 0
173 1 3.395192616339128 5.9834191840551165 5.18024433528799 0 0 0
32 1 1.4346450453220736 8.243897151135718 3.1594982933613043 0 0 0
1630 1 3.496473036067385 5.499652318151447 1.6035631865587092 -1 3 1
1497 1 1.6354295745573384 7.065722746810432 1.6254681589924662 2 1 1
35 1 6.585929015719553 5.676208852606905 1.6992016035068576 0 0 0
31 1 5.072040640785122 5.890730475292198 3.052263565327584 0 0 0
36 1 6.641972399601362 7.575753466059044 3.234466965493672 0 0 0
177 1 6.68714144863507 5.5270363566533875 4.981699654506583 0 0 0
30 1 5.063120361513187 7.4094441501231865 4.986830444386723 0 0 0
1945 1 8.280856996279566 5.97561656708167 3.3293198296057147 0 0 1
178 1 8.236467448406781 7.4070015010218055 5.064530482868532 0 0 0
37 1 8.384679035262664 7.618794478715015 1.7019992228460101 0 0 0
69 1 10.223069398565524 7.3975029039953135 3.012194207340985 0 0 0
39 1 11.314691924805667 5.551300762237303 3.377965179260466 0 0 0
182 1 11.683821174414918 7.1815055065796995 4.933016706454262 0 0 0
181 1 9.734593372777148 5.865280241259077 5.149688575331795 0 0 0
1831 1 11.824531642192367 7.401821910346425 1.662620917716758 -2 1 1
1395 1 9.605678411697262 5.81477493481522 1.5790475136656426 -4 4 1
1378 1 13.217131114046243 6.934485180866541 3.283822065149407 1 1 1
65 1 14.905612669405912 5.6687247967536205 3.3648573169823357 0 0 0
186 1 14.967257486096129 7.2839307757630705 5.0939779122300575 0 0 0
185 1 13.303348454495264 5.4583684992534165 5.177279817474373 0 0 0
1724 1 16.438458510506656 5.540652319947494 5.209195611721258 3 5 1
1123 1 14.743621195759282 6.945238876644757 1.7695674247384736 -1 4 1
1646 1 19.99738375884578 5.797264479986644 1.613134819357917 0 5 1
1883 1 16.69583490059211 5.4163830139907505 1.8013063122142123 -1 -2 1
1226 1 18.399807684731144 7.473139505865712 1.8575602495369594 -1 2 1
48 1 16.827607143117447 7.442964919775299 3.54731957869175 0 0 0
49 1 19.82491025894049 6.807034108486015 3.6097623668274013 -1 0 0
190 1 18.03276001911646 5.699909439235353 3.276388442749826 0 0 0
169 1 20.193766447590036 5.43360050682201 5.283475598601106 -1 0 0
75 1 2.7496405654481073 10.373252318856913 3.3950554450824852 0 0 0
197 1 3.5658881207255755 8.915730800818674 5.054427633092644 0 0 0
125 1 1.318549546223703 12.070186927050532 3.212620878324322 0 0 0
194 1 1.6193153530663582 10.903838697561218 5.052878600032955 0 0 0
221 1 3.270339014288426 12.22742809434281 4.6332190349846805 0 0 0
60 1 2.812838422223844 8.8904040108088 1.8561255228426603 0 0 0
1755 1 1.099729750348814 10.646718232616664 1.6799968013791897 -1 1 1
1275 1 4.410482446620618 10.467611131342773 1.673574810077227 -1 1 1
201 1 8.088748043945586 10.829566029526394 1.7238601177403405 0 0 0
79 1 5.014964830789085 12.058371787713904 3.2547777975480745 0 0 0
198 1 4.8747149451116085 10.626554657912642 4.95354823289046 0 0 0
1756 1 8.328914022203001 8.913598717054926 3.3837891057617955 1 0 1
55 1 4.843034728045068 8.89407221495292 3.357891168465411 0 0 0
59 1 6.537266012995968 10.491684423029568 3.1279432076274913 0 0 0
51 1 7.799914714630521 12.370093098935719 3.5308827779056893 0 0 0
202 1 8.238031085949745 10.575142893939807 4.680734011735604 0 0 0
174 1 6.611489178322756 9.12497880254515 5.2381748955467735 0 0 0
225 1 6.5052478815311865 12.615825522790626 5.191859760246515 0 0 0
1693 1 6.380524480812455 8.995632701594525 1.6272819805423069 1 4 1
1873 1 10.193095027533843 9.27387536883376 2.1192146296670713 0 3 1
63 1 12.145330956607983 9.018117335339442 3.2311184842366396 0 0 0
40 1 10.102067864579949 8.981822086574725 4.575903107037945 0 0 0
64 1 9.966357490713852 11.151613357454433 3.450220592991241 0 0 0
205 1 11.826620534242265 10.609741449321467 4.873267571660309 0 0 0
206 1 12.02144056170573 12.352112909076872 3.197533826768382 0 0 0
229 1 10.101250794665452 12.552274009706839 4.8106155551688445 0 0 0
68 1 11.962012519454325 10.932593806955122 1.7612870536747633 0 0 0
1482 1 10.252850113422982 12.611093976059411 1.5777023655155324 1 -1 1
66 1 15.249096971508436 9.139122286578278 3.587957132027003 0 0 0
62 1 13.717555242035118 12.251086725414732 1.6206432998743836 0 0 0
209 1 13.716902405225408 9.026863080392767 4.971584561603176 0 0 0
237 1 13.481253367315777 10.671642281650877 3.183263890862402 0 0 0
1396 1 15.19759893077317 11.884163549352806 3.6403822903725356 -2 2 1
1855 1 15.101241968873541 10.5087992366584 1.7822049859686038 -1 1 1
1495 1 16.42932198930031 8.710670788669342 1.7165473840129013 -3 0 1
233 1 13.777732216783365 11.950319155295395 4.792164528692377 0 0 0
1633 1 13.735336145200455 8.75303141848872 1.8688089877995937 1 -1 1
1703 1 16.724791910192174 12.112802145974774 2.088273962260172 -2 -3 1
213 1 16.932408863220665 8.993614499242371 5.187892616306183 0 0 0
94 1 17.03179351343229 10.636524420232051 3.545691616063477 0 0 0
52 1 20.01649684355133 10.10868041810964 3.4538133512706173 -1 0 0
71 1 18.43813490553162 8.844140142550506 3.5474585671396226 0 0 0
1918 1 18.626352512499537 12.367984198444693 3.0776584806533114 1 -1 1
214 1 18.637869596661247 10.494437091869708 5.079786694770478 0 0 0
193 1 20.105326777347216 8.930386727724416 5.155983764250773 -1 0 0
217 1 19.716582171636205 12.294752796746186 4.787042828498197 -1 0 0
95 1 17.14638526141257 12.500548619046462 4.7092354830585474 0 0 0
54 1 3.205090078648847 15.569105625974254 1.7073565653085052 0 0 0
80 1 2.953346203154384 13.741624260633305 3.3151088449784805 0 0 0
99 1 1.4746150209974367 15.516057397433443 3.414305005382422 0 0 0
218 1 1.0819206436823359 13.845031114469958 5.283353466266451 0 0 0
245 1 3.0208149200751744 15.344129724297046 5.0084850849825795 0 0 0
1307 1 1.375482742297633 13.609445447516675 1.60627677641817 -1 0 1
131 1 6.118453957032745 15.616531121353958 1.787670813094991 0 0 0
1248 1 8.37311992572813 14.070477531673196 1.5534249598285776 2 3 1
103 1 4.684236337368706 15.357956086300005 3.433803774075197 0 0 0
84 1 6.177957906808955 13.722452018437432 3.186935922950293 0 0 0
107 1 8.219007770200488 15.19073171596934 3.2220832175547054 0 0 0
249 1 6.706708962056171 15.193594415681998 5.024593796543284 0 0 0
226 1 8.467235729528184 13.890346129038956 4.991745250452871 0 0 0
1098 1 4.649913130484762 13.653592248016531 1.674678783901455 -1 -1 1
222 1 4.7977981963529155 13.946020561279758 4.712884066887636 0 0 0
1910 1 11.641747705082736 14.447548678435341 1.8964608876020255 -1 -1 1
83 1 9.735045434697657 14.02301552704645 3.242955254650836 0 0 0
111 1 11.924423342177853 15.677694793561763 3.486487919711394 0 0 0
253 1 10.114561598722073 15.518461568171723 4.991428398114646 0 0 0
230 1 12.209659330074224 13.780397117333262 4.73432413716336 0 0 0
2000 1 15.35496032922906 13.90918113134042 1.7400503348676246 1 -2 1
87 1 13.635099833297994 15.984285201692268 1.914494535627617 0 0 0
1880 1 13.853062158295216 13.936146044877093 3.419867751981804 0 4 1
92 1 15.31907954174328 15.596414596127763 3.4209717032840032 0 0 0
234 1 15.619992574971088 14.005904363021102 4.976345014728134 0 0 0
257 1 13.73316975299418 15.49058207828258 4.9922092530191335 0 0 0
117 1 16.559512277934566 15.692085956310041 1.5789100263474127 0 0 0
261 1 16.978779141506813 15.674432933053046 5.059115733390164 0 0 0
96 1 16.95018368653875 13.873120067210271 3.2393166862382317 0 0 0
73 1 20.068598982082342 14.039225163781134 3.143721599298967 -1 0 0
100 1 18.44810309382553 15.334848401557268 3.190906538766133 -1 0 0
238 1 18.558112352706495 14.081104016838395 5.178388509011494 0 0 0
241 1 19.87500990755462 15.769571374592509 4.9543587703449905 -1 0 0
266 1 1.7176754204265523 20.53572633302854 5.097708077078709 0 0 0
1881 1 3.3769851803621944 18.986473375997 1.731793581228054 0 0 1
1018 1 1.8228305991393874 17.180172296970767 1.6429320229773035 0 3 1
128 1 3.4336615072662986 20.542394418077492 3.549853432070543 0 0 0
104 1 3.155285775090985 17.310260454340728 3.416279833393647 0 0 0
123 1 1.5468739950388186 18.988481256851742 3.4846031712849346 0 0 0
242 1 1.5850189351065391 17.185977909716783 5.040146216893044 0 0 0
269 1 3.2739561849109275 18.940597476745694 5.113267561762861 0 0 0
126 1 6.670719693459411 20.621167108845597 3.357901560781352 0 0 0
274 1 8.35206133405219 20.492585842897434 4.679464235246231 0 0 0
1332 1 4.7709321332171735 17.00906465223335 1.8458623319146081 -3 -1 1
129 1 6.508935558093305 18.516304479548772 1.7530261726177876 0 0 0
127 1 5.065605595134899 18.887778912491953 3.287138893891452 0 0 0
108 1 6.592857191160069 16.942601366455342 3.4297991767909988 0 0 0
246 1 4.660734723452289 17.05686997447244 4.732830260163668 0 0 0
273 1 6.85754132511977 18.976959800297692 4.97493050821567 0 0 0
250 1 8.445636722275022 16.804719608543266 4.828644328289018 0 0 0
133 1 8.11594313280885 18.637646379844014 3.2458061995547762 0 0 0
130 1 7.957107574127726 16.922529058339954 1.5448362167671632 0 0 0
136 1 9.788734389185672 20.507605970082736 3.189127887913284 0 0 0
88 1 11.557838275556964 17.196337775999154 1.5696019940682577 0 0 0
278 1 11.58623031582554 20.568465203016487 4.977338406671799 0 0 0
112 1 9.94848952695607 17.10448079381556 3.3694942381884676 0 0 0
109 1 11.729738804449578 18.810461218589758 3.207898169996956 0 0 0
277 1 9.84145959235645 18.653320681920356 4.539973371891439 0 0 0
254 1 11.877046257228388 17.23850572543912 4.962317297210323 0 0 0
116 1 15.172298823583025 17.515783931779445 1.6644773265627566 0 0 0
135 1 13.545134615366731 17.535551383099232 3.387689810726329 0 0 0
15 1 15.030216626701208 19.075695442610993 3.475125301559463 0 -1 0
281 1 13.606215103768987 18.882655802674726 5.174803760946115 0 0 0
258 1 15.557013069619455 17.021513979880545 4.621815701920953 0 0 0
286 1 18.076600229994376 20.59598991076072 5.227508494500594 0 0 0
1 1 19.844562018075692 19.22000587264091 2.092579176410818 -1 -1 0
115 1 16.650908753631683 19.000113696153655 1.7585688540074824 0 0 0
90 1 17.10637373191696 17.140485201853714 2.93666131517984 0 0 0
118 1 20.190377576569674 17.180139667592123 3.0861559455579632 0 0 0
139 1 18.09884421123847 19.13807835533874 3.5887351306100936 0 0 0
262 1 18.275703053131657 17.238731394711508 4.7374208547918455 0 0 0
265 1 19.89636458992667 19.14822926360808 5.213477000391389 -1 0 0
152 1 3.3529094963573773 3.908989890148396 6.988155538327311 0 0 0
290 1 1.6150066998635872 4.277479516679783 8.455054832979581 0 0 0
147 1 1.726001467540982 2.408350393658119 6.8349915630337685 0 0 0
293 1 3.1615070023933605 3.007902156287644 8.885527066148759 0 0 0
272 1 3.557059371411307 0.6830223819445038 6.394600960544363 0 1 0
289 1 0.6525416723212842 2.3857975500209667 8.694426456247328 0 0 0
410 1 2.293250785899353 0.8408198949978356 8.310744263207033 0 1 0
151 1 4.887765018448947 2.0849522370061617 6.991000904212727 0 0 0
294 1 5.413922001477153 3.8162721246000038 8.268238799395181 0 0 0
156 1 6.749174535752648 3.7597279949615605 6.642516094206547 0 0 0
297 1 6.7648477503634625 2.1116243213185513 8.419311370354194 0 0 0
298 1 8.353837119373079 3.781872177605655 8.246301881310604 0 0 0
155 1 8.423513948251593 1.9376941966065844 6.724903149736378 0 0 0
160 1 10.364380224068936 4.1056992629670965 6.890189645171611 0 0 0
159 1 11.833850321701918 2.7451597473410607 6.351470992434672 0 0 0
301 1 10.141482045151545 2.0802544964647023 8.188883335139028 0 0 0
302 1 11.936458229646083 4.0042644835339445 8.499845935546219 0 0 0
422 1 12.123034948421516 0.9135957295261583 8.396980747323832 0 1 0
306 1 15.245316348577337 4.213781806184533 8.675934470073834 0 0 0
163 1 14.960979933028307 2.7167641002843728 6.97717813383769 0 0 0
305 1 13.488387012607294 2.418952585779079 8.326842353759885 0 0 0
164 1 13.367594077880687 4.230196960587756 6.744880581943059 0 0 0
284 1 13.11160041767785 0.7766015497807749 6.519721303900145 0 1 0
288 1 16.47966669221714 0.9980902626843782 7.101440175021946 0 1 0
426 1 14.624948850187899 0.7255492956817877 8.479122401418579 0 1 0
145 1 19.987610871360985 2.0179222826280334 5.393472766319034 -1 0 0
309 1 16.972340750537015 2.351972998252898 8.808994155726278 0 0 0
168 1 16.92187284539464 3.8162374027455623 7.051789200493763 0 0 0
148 1 19.86165267960125 3.7442123755145524 6.40040657914824 -1 0 0
310 1 18.953644822904955 4.358406489066267 8.569309417921358 0 0 0
167 1 18.538890002954886 2.373502424132213 6.934942780746189 0 0 0
430 1 18.371970806193595 0.7439426946520413 8.557261423076312 0 1 0
317 1 3.5162856777811378 5.1612025759503455 8.61193653143641 0 0 0
171 1 1.9840350646494773 6.007356860537559 7.014103254426996 0 0 0
176 1 3.5331837287750014 7.416636226888557 6.703922387126075 0 0 0
314 1 2.137533777417098 7.586140002015256 8.325978402247596 0 0 0
175 1 4.964574922807357 5.3929292240856626 6.735711755179049 0 0 0
318 1 5.23680895065155 7.231289286438594 8.558611070282812 0 0 0
321 1 6.852621278795923 5.628080362353204 8.414213202968483 0 0 0
180 1 6.487151020732033 7.077038365245425 6.750734453241676 0 0 0
322 1 8.385700526649652 7.51842688315049 8.121292229080222 0 0 0
179 1 8.592309136842854 5.824375100110919 6.950840265507758 0 0 0
183 1 11.484978151958229 5.769928258154939 6.794357004695274 0 0 0
325 1 10.018372492348112 5.936113437983026 8.490369112571315 0 0 0
184 1 10.150356470833689 7.7873421835816075 6.424724571015552 0 0 0
326 1 11.717429831247408 7.502772195360652 8.266174813216738 0 0 0
187 1 15.529440860588915 5.643904380061141 6.841457254804077 0 0 0
329 1 13.616918578796248 5.821611734067679 8.353108148577903 0 0 0
188 1 13.541093053201807 7.181400801886058 6.581163255511799 0 0 0
330 1 15.110286832702869 7.174941231426879 8.379205945343879 0 0 0
211 1 15.468181685890727 8.563414280667304 6.993528244731422 0 0 0
28 1 18.585226105219164 7.244791232692832 5.4217740866798385 -1 0 0
333 1 16.760381892671113 5.548913484931197 8.27892462270529 0 0 0
192 1 16.889279646122148 7.162402576522059 6.4830170505448255 0 0 0
191 1 18.474223132346317 5.496950840859057 6.802156423171167 0 0 0
172 1 20.139767483740222 7.583036936234257 6.8892473752667405 -1 0 0
313 1 20.24562253802496 5.942540186305319 8.141443089203515 -1 0 0
334 1 18.359002171253707 7.380443955287333 8.324637936449783 0 0 0
195 1 1.8624345097236294 9.296616778780422 6.749478932087163 0 0 0
341 1 3.7725604876150434 9.196479193928965 8.202043150427027 0 0 0
200 1 3.4994925173452147 10.716232928998954 6.572618245568926 0 0 0
338 1 2.0316375111654867 10.614872768962892 8.251850764791353 0 0 0
365 1 3.550158525222929 12.007340039638438 8.53200672159724 0 0 0
219 1 1.8132189435867232 12.360942741356181 6.423431220902011 0 0 0
199 1 5.24282356272436 8.760748774046105 6.894922955508773 0 0 0
345 1 6.920606512813006 8.775045145021227 8.557411830908633 0 0 0
342 1 5.382519823805596 10.712791433180458 8.39521527928473 0 0 0
204 1 6.5788637721445555 10.608015126488585 6.529662514676756 0 0 0
223 1 4.802243492184763 12.622955235488947 6.619363218781179 0 0 0
203 1 8.232789851115148 9.015250806937427 6.71200146740022 0 0 0
346 1 8.191001241599558 10.7046779169716 8.402214610796674 0 0 0
369 1 6.780338384666328 12.452198446921612 8.17829916407643 0 0 0
227 1 8.38685191995385 12.09475955164596 6.511622524254022 0 0 0
207 1 11.950312204937065 9.156201943153508 6.515946273633334 0 0 0
349 1 10.269402403207003 9.03962832657956 7.991585715220065 0 0 0
350 1 11.644810024931468 10.636662727325502 8.26669359118469 0 0 0
208 1 10.100769775921503 10.72733838643997 6.424985527446231 0 0 0
231 1 11.918255360015127 12.260354880608391 6.298969455314705 0 0 0
373 1 9.98264510081737 12.106919076568257 8.422860030094107 0 0 0
210 1 15.187439801396712 10.2973847820003 5.52881776202147 0 0 0
353 1 13.535124769227949 8.974088482498617 8.299061903061045 0 0 0
212 1 13.545727144721784 10.50301481122341 6.6594521111611495 0 0 0
354 1 15.530224777629607 10.618440061882279 8.14415792750578 0 0 0
377 1 13.861869088515567 12.137320478457353 8.249173164400181 0 0 0
235 1 15.247461944901053 12.253557353041165 6.720486601208411 0 0 0
337 1 20.1217456372056 9.186984022981346 8.351349953971072 -1 0 0
357 1 16.828341930226898 8.725389302819515 8.962309034930126 0 0 0
381 1 17.223741493358318 12.21380859098889 8.492527751388511 0 0 0
216 1 17.014290629070352 10.63199614853391 6.434528198589972 0 0 0
215 1 18.482163140067584 9.115115236765055 6.719747174191494 0 0 0
196 1 20.208488985555235 10.708964409332056 6.540237947680754 -1 0 0
358 1 18.238511096621615 10.496015751521611 8.460750308098326 0 0 0
239 1 18.5001650414252 12.301011003028883 6.500451414715846 0 0 0
361 1 19.8093863438813 12.142508914059338 8.460511201686685 -1 0 0
224 1 3.3311838821329927 14.021330683204807 6.935428679918653 0 0 0
362 1 1.4310679262878638 13.447952054499927 8.30510905131013 0 0 0
243 1 1.37545966231967 15.587369194444838 6.589161905588516 0 0 0
389 1 3.436854642549583 15.564085869178358 8.560205209588148 0 0 0
366 1 5.535912351736232 13.944462530665776 8.73195730762378 0 0 0
247 1 5.144606512357208 15.531348478412214 6.763531313992921 0 0 0
228 1 6.717222667218527 14.338466871046965 6.981413459030941 0 0 0
393 1 6.973904943243668 15.76850708344892 8.466687123834248 0 0 0
370 1 8.310201472310514 13.644672896293056 8.495243122006002 0 0 0
251 1 8.698317903057966 15.358972339392405 6.698413962743084 0 0 0
232 1 9.860891916805977 13.57337018873165 6.849644025380962 0 0 0
397 1 10.151553533860978 15.640184103086774 8.285640526952442 0 0 0
255 1 11.901294756079606 15.374022787616305 6.427700517618974 0 0 0
374 1 11.550171038392003 14.077223972658821 8.271916719605535 0 0 0
236 1 13.808571231597439 13.641085817163013 6.414611465043053 0 0 0
378 1 15.362718338718544 13.723253555358434 8.348524151721923 0 0 0
401 1 13.551298420102563 15.32040254082462 8.126596978660743 0 0 0
259 1 15.161525067324485 15.5417176080844 6.597271579396239 0 0 0
240 1 17.111561784404586 13.781747674865663 6.589908582579577 0 0 0
405 1 16.71844103818806 15.628688337182053 8.25379638968912 0 0 0
220 1 19.77231156441087 13.863778931107035 7.062268267967723 -1 0 0
385 1 20.529406158530897 15.559054702476532 8.67464467636358 -1 0 0
382 1 18.426373745656626 14.079590115741794 8.703626654917803 0 0 0
263 1 18.58011093191459 15.68171922810799 6.854891881192861 0 0 0
386 1 1.8237871937871075 17.10419968306195 8.513032136048746 0 0 0
248 1 3.022200386851361 16.74157025859234 6.866113881616172 0 0 0
267 1 1.722791319135475 18.800103311059473 6.656703442133623 0 0 0
413 1 3.47054054335716 18.894530685332484 8.038247616024023 0 0 0
276 1 6.658624006264682 20.449951958195463 6.660253792348468 0 0 0
418 1 8.34084037160883 20.322282033956498 8.422745430187419 0 0 0
414 1 5.001424236925914 20.366618717392278 8.353185869842541 0 0 0
271 1 5.020647331138734 18.812594904100855 6.466303691983024 0 0 0
390 1 5.223783958978169 17.17066995505703 8.454951312496767 0 0 0
252 1 6.848055697937287 16.911626694097897 6.282224423298213 0 0 0
417 1 6.8622919366016815 18.498788111650136 8.026940662006048 0 0 0
275 1 8.517222102634715 18.827241864915727 6.25472671837753 0 0 0
280 1 10.092439757729435 20.338986106667676 6.743071212112078 0 0 0
394 1 8.8328393500712 17.463589691510705 8.223600206604374 0 0 0
256 1 10.13353090636534 17.142303219147976 6.441490990208372 0 0 0
398 1 11.402502411275645 17.11491666658369 8.317260953523386 0 0 0
421 1 10.365894600198242 19.156850290161223 8.496896105348338 0 0 0
279 1 12.079338856498248 18.842533012173583 6.965285048162234 0 0 0
285 1 16.223226044127074 18.975477546244072 5.457530655355008 0 0 0
402 1 14.83491290056145 17.011799196628765 8.206150186943567 0 0 0
260 1 13.398415446853015 17.239260213252237 6.668276734957905 0 0 0
425 1 13.056371516266793 19.215675570919778 8.851681636796583 0 0 0
283 1 14.864344249422413 19.03821353285697 6.88978901282278 0 0 0
268 1 20.205721129883663 20.60406522118626 7.045767730997756 -1 0 0
429 1 16.92082521671638 19.131001486736814 8.414842531657477 0 0 0
264 1 16.786674545262365 17.281670118075297 7.071767153631334 0 0 0
244 1 19.96598067804527 17.330818360155916 6.58485849596287 -1 0 0
406 1 18.539165281873444 17.283718080037623 8.198097907525977 0 0 0
409 1 19.98639355881825 19.157735237767163 8.373674730400426 -1 0 0
287 1 18.282310559037036 18.87838785610598 6.595786689877362 0 0 0
296 1 3.3362155518377534 4.1212922789284585 10.56149685330781 0 0 0
435 1 3.495970284613465 2.493850171476008 11.883125994125562 0 0 0
291 1 1.8612584575197497 2.0880056916771927 10.344510847131838 0 0 0
434 1 1.4716976133408104 4.100107684620895 11.674676851808293 0 0 0
416 1 3.632970377957287 0.6668724047545057 10.37933456356932 0 1 0
505 1 1.611235471611831 2.171926001841749 12.991747056238914 0 0 0
295 1 5.101659466904369 2.672502980761903 9.915787987427867 0 0 0
436 1 5.239623641234524 3.7182417094355222 11.9620470305726 0 0 0
300 1 7.121805150542302 3.7785199866194668 10.123944648029532 0 0 0
437 1 6.627106210196384 1.9145706560415852 11.609472091335311 0 0 0
299 1 8.493091040717648 2.398386336128225 10.037797544954506 0 0 0
438 1 8.556065232527724 3.8562584185491 11.79931794379414 0 0 0
304 1 9.972417406515607 3.850392308342783 9.935773135735179 0 0 0
439 1 10.124635138648737 2.485819227808933 11.910883784029439 0 0 0
303 1 11.227013524664654 2.099669023580941 10.063034312897969 0 0 0
440 1 11.986163040512185 4.189791764619454 11.732269127438093 0 0 0
500 1 11.803788225845793 0.8553143239447181 12.071710824223429 0 1 0
308 1 13.576569333766196 4.414779855440522 10.126158832684196 0 0 0
442 1 15.020900167734741 3.951548606350752 11.602181842984695 0 0 0
441 1 13.18743253916914 2.40382351125573 11.65063365233659 0 0 0
307 1 15.106309726768481 2.3097291815586782 10.040403089202377 0 0 0
428 1 13.17407935571867 0.7583122630497638 10.338378938095072 0 1 0
513 1 14.978692559354855 2.509863518396432 12.96604800204995 0 0 0
412 1 20.109975688329712 0.6875483027585645 9.963382299510771 -1 1 0
312 1 17.071308869960347 4.413534541693899 9.968814655640934 0 0 0
443 1 16.821411891147974 2.43025832645045 11.616206237680524 0 0 0
433 1 19.859055029727543 2.5269455567535895 11.686102921230662 -1 0 0
292 1 20.316591265203506 4.492271421023384 9.999757297159407 -1 0 0
311 1 18.61389438457504 2.3373033887458834 9.805617232070096 0 0 0
444 1 18.550970575683863 4.239778258750381 11.522594404796 0 0 0
447 1 3.5499910592364103 5.799132035002282 12.069459106020934 0 0 0
315 1 1.965026535230217 5.686626792269501 10.104071040387442 0 0 0
320 1 3.7966976233781886 7.335546136407252 10.276146784673415 0 0 0
446 1 1.9268008476246727 7.262480316768609 11.804974684380754 0 0 0
448 1 5.191783534688602 7.229553581069989 11.923557649330805 0 0 0
319 1 5.283505033631415 5.415324916074026 10.297502571381855 0 0 0
449 1 6.763250732356213 5.210925564916016 11.79595984445012 0 0 0
324 1 6.613929389194864 7.347292800130183 10.14937225578676 0 0 0
323 1 8.242100272811337 5.6114865686201005 10.074426351575571 0 0 0
450 1 8.336288673040944 7.115519755494518 11.580395153050244 0 0 0
451 1 10.023806813282482 5.803996483270764 11.636884523682015 0 0 0
327 1 11.736986718595409 5.809794675474951 9.914292808817658 0 0 0
328 1 9.951322012452554 7.364920454148883 9.924605192533763 0 0 0
452 1 11.903323951850412 7.289334523418966 11.381353282544673 0 0 0
523 1 11.76525853640127 5.780230888256112 13.090428072735731 0 0 0
453 1 13.487645910130356 5.800486102732668 11.742753448677691 0 0 0
331 1 14.852629345788133 6.022847061333291 10.124672792724088 0 0 0
332 1 13.66604437582253 7.656865578291487 9.99122276988229 0 0 0
454 1 14.76272574303328 7.886071602933335 11.792222616875316 0 0 0
528 1 16.510884616086436 7.318714606531403 13.115102848313557 0 0 0
455 1 16.739448187838654 5.7092888334632 11.875618109378918 0 0 0
336 1 16.67769636264339 7.269000827725529 10.408614710301986 0 0 0
316 1 20.515159404111188 7.455274550858979 9.86507565093874 -1 0 0
445 1 19.959426529818707 5.978666423073915 11.792687328139086 -1 0 0
335 1 18.444264260791407 6.400659361875542 10.236419787503344 0 0 0
456 1 18.527512125609817 7.45593457307256 11.851186891321182 0 0 0
459 1 3.4852716789026807 8.908964647468116 11.714672069421873 0 0 0
339 1 2.2797255937594607 8.837734520533141 10.108485880553225 0 0 0
458 1 1.8680838394726502 10.54676623508439 11.606376654245341 0 0 0
344 1 3.6531103956195925 10.671687078416438 10.242044639009793 0 0 0
471 1 3.7625296999055724 12.358031168390196 11.946232461202468 0 0 0
363 1 1.713819443390782 12.333813317373925 10.186941039770526 0 0 0
461 1 6.554085302778157 8.781540522646063 11.879140782862702 0 0 0
460 1 5.265587161563517 10.363492763080252 11.798808398671204 0 0 0
343 1 5.021530417608953 8.963436398629177 9.945726511405285 0 0 0
348 1 6.528382876884482 10.620192561938877 10.268067131867529 0 0 0
347 1 8.40804319917903 8.671912559007648 9.888601062400355 0 0 0
462 1 8.049778543331389 10.48314145924392 11.363264711340301 0 0 0
473 1 6.74565994208445 12.228466375678025 11.88200979001927 0 0 0
371 1 7.885179421426556 12.27221412609788 9.950582664819514 0 0 0
367 1 5.292282314388293 12.387165222023834 10.180656887068933 0 0 0
463 1 10.01615248604136 8.844739439184785 11.47150802329453 0 0 0
351 1 11.717183362170461 9.259144379730703 9.828710193111654 0 0 0
352 1 9.733236244199558 10.373086906797397 9.684453807386097 0 0 0
464 1 11.91396370418949 10.592433891891705 11.40588152061561 0 0 0
375 1 11.906770870400889 12.225046297741356 9.91193654450219 0 0 0
475 1 10.057304899470683 11.885990277658822 11.03241991717081 0 0 0
545 1 8.866112557617626 12.102943390737408 13.136298001338632 0 0 0
536 1 10.229513820734798 10.56628685045573 12.876222504121595 0 0 0
547 1 11.644887926989998 12.241391792607494 12.690422617212034 0 0 0
533 1 8.773004572452974 8.899123845711822 13.030189687570203 0 0 0
465 1 13.195378903885807 8.986678763903354 11.63508029506343 0 0 0
355 1 15.060132346166647 9.18232777562318 9.850229569259696 0 0 0
356 1 13.397259748523917 10.58620062668326 9.659352655531272 0 0 0
466 1 14.647304987852213 10.544859303956663 11.776125047863472 0 0 0
477 1 13.612613394524724 12.35091656008182 11.361237320701925 0 0 0
379 1 15.26107765274567 12.255757631298408 9.98443978806681 0 0 0
479 1 16.63620994300943 12.3400371390203 11.680190241444455 0 0 0
360 1 16.894744630141226 10.55401475423431 10.174895177039954 0 0 0
467 1 16.67240853439194 9.081771844452437 11.501471648384996 0 0 0
457 1 20.311128915235003 8.766609294721086 11.74987234780821 -1 0 0
359 1 18.68459512039084 8.92824274369702 10.09261350050969 0 0 0
340 1 20.22180461166608 10.58936163732335 10.002361302181 -1 0 0
468 1 18.66958806833987 10.445421170848732 11.67621629719227 0 0 0
469 1 19.835830686936987 12.280891055724489 11.74701464094154 -1 0 0