LAMMPS data file via write_data, version 29 Oct 2020, timestep = 300000

2016 atoms
1 atom types

-0.07233892125326591 21.336338921252626 xlo xhi
-0.07233892125326591 21.336338921252626 ylo yhi
-0.16879081625826942 49.78479081626047 zlo zhi

Masses

1 58.933

Atoms # atomic

1 1 0.01690444020807233 -0.027452207729487164 -0.1571393462979897 0 0 0
3 1 1.8454401637481048 21.327228256841664 1.699925040899953 0 -1 0
5 1 3.5370761703875795 -0.02395268922027314 -0.13696507963542448 0 0 0
8 1 3.3362998454858643 1.7820476615961076 1.639430132915174 0 0 0
25 1 21.2729468161739 3.581730654855161 -0.058399996336569296 -1 0 0
27 1 1.7291584166423468 3.6161238161972533 1.6569400249230608 0 0 0
146 1 1.8051585542906574 1.532957182925933 3.509894215261236 0 0 0
173 1 3.556322608324263 3.502929130630902 3.4623589062324887 0 0 0
311 1 19.46946994468049 -0.024983152050950252 8.765277041666684 0 0 0
12 1 6.973493991752951 1.7130342530038332 1.7038296171320377 0 0 0
31 1 5.341946166798407 3.417143000810348 1.6277670764782286 0 0 0
150 1 5.126347190186204 1.6529283052075034 3.47605800119376 0 0 0
153 1 6.927152166838035 -0.07224078954972855 3.4501181944143773 0 0 0
177 1 7.091998005014765 3.5108319061914073 3.508504954007989 0 0 0
10 1 8.709721639820941 1.613394280460088 -0.08194475331589918 0 0 0
14 1 12.471229394796142 1.6776098531567303 -0.16767572456516186 0 0 0
16 1 10.573732331033083 1.5525456484226443 1.7198756868437912 0 0 0
35 1 8.785140419726874 3.4197064903982475 1.7587605060966784 0 0 0
39 1 12.3035295184709 3.4174560735502273 1.7161680190456485 0 0 0
154 1 8.8424203984102 1.6859871820511823 3.3736476956407815 0 0 0
158 1 12.524798234654101 1.7606086067841107 3.447096473101526 0 0 0
181 1 10.643877643592374 3.4907097942945757 3.47568854820561 0 0 0
17 1 14.288128197091389 -0.015054958052485544 -0.12730079563354033 0 0 0
19 1 16.137831218563793 21.27669067234912 1.6454956534349743 0 -1 0
20 1 14.241276936509315 1.8010632278626733 1.6301533024945847 0 0 0
412 1 -0.05198534185494452 19.40732936308884 8.857958896963604 0 0 0
43 1 15.882667612504763 3.3696513692403025 1.5845743051186227 0 0 0
162 1 16.166618370044105 1.6152826775566618 3.4225312722469963 0 0 0
185 1 14.251015603109332 3.4034944106365743 3.469044427026879 0 0 0
4 1 0.05612919283233353 1.7628721354947454 1.6344047150202992 0 0 0
169 1 -0.07083086037592778 3.4449239380649126 3.375580734658609 0 0 0
21 1 17.79566527015021 -0.07012878409970917 -0.10898894145898533 0 0 0
493 1 -0.043599670825656744 17.710729110683467 10.680912434094452 0 0 0
24 1 17.733598122624517 1.7200461093673483 1.6145820135183404 0 0 0
47 1 19.48073011183137 3.5837816936493803 1.6998140944135363 0 0 0
165 1 17.95452031265565 21.18164831366566 3.2177134691140266 0 -1 0
166 1 19.541070684939143 1.6935569818593241 3.453807413169971 0 0 0
189 1 17.87958357111954 3.4982909196334897 3.407238051402894 0 0 0
28 1 -0.06235793360681291 5.348539060543616 1.676677411654441 0 0 0
32 1 3.5920114916646617 5.2562073395662985 1.5287497517910094 0 0 0
431 1 19.594602782053087 17.81671151372196 8.797779562641853 0 0 0
51 1 1.8061912332655827 6.987413469523778 1.448314475048626 0 0 0
432 1 17.72894185244276 19.51736877805931 8.760526810113769 0 0 0
170 1 1.7215769239631717 5.350734496073587 3.3818940976646408 0 0 0
193 1 -0.0010220172089125124 7.149254544036056 3.3633971634909305 0 0 0
197 1 3.598680178928472 7.1917532429444035 3.5720441970106136 0 0 0
503 1 17.859138514514314 17.774442106117263 10.609605559222263 0 0 0
36 1 6.888716600662228 5.357444748981648 1.6620072752050672 0 0 0
55 1 5.226250197898272 7.024944286216153 1.571403267452845 0 0 0
504 1 19.59786146934489 19.546825907989103 10.526457361893886 0 0 0
174 1 5.102079565615665 5.328541356991317 3.455773463918121 0 0 0
201 1 6.961397899130762 7.047844371575948 3.4933470374864384 0 0 0
34 1 8.691631544848816 5.181805236792326 -0.020960668733638665 0 0 0
40 1 10.590454396813552 5.2493705524056065 1.7519495284201247 0 0 0
59 1 8.699161728347143 7.017279315848346 1.5980472482317623 0 0 0
61 1 10.56304987115091 7.042343915086324 -0.0034176980871922225 0 0 0
63 1 12.418232867935954 7.1248856192322 1.7257505883002648 0 0 0
178 1 8.789313527605797 5.332100950255402 3.522189739424355 0 0 0
182 1 12.422008036863117 5.2768965411452315 3.4620836000238535 0 0 0
205 1 10.513672131972553 6.952768689521243 3.3760401089965435 0 0 0
44 1 14.113674227057794 5.203067831534381 1.6394244196100163 0 0 0
65 1 14.078855661233309 7.063376429214784 0.017751894244436545 0 0 0
67 1 15.950663648667973 7.0404465897894974 1.637448427265926 0 0 0
186 1 15.91589200916184 5.262890476415463 3.3501507075910006 0 0 0
209 1 14.190130632828142 7.010906518270612 3.38911798460583 0 0 0
48 1 17.770803152887016 5.341764709356651 1.7100569795195013 0 0 0
71 1 19.476204824309935 6.995125917320524 1.640060063448242 0 0 0
190 1 19.701939658703026 5.373925160618202 3.4633247801534326 0 0 0
213 1 17.80258728784961 7.096371133292258 3.4393384854368123 0 0 0
307 1 16.09263767438937 21.25254240977727 8.706225088975893 0 -1 0
56 1 3.445791269326979 8.703632757581351 1.6383619617769047 0 0 0
427 1 15.992881443796502 17.819173098910913 8.559634637099313 0 0 0
428 1 14.106144888051952 19.514926057670714 8.740947002076833 0 0 0
75 1 1.7145335175409975 10.575165319070924 1.6748128692108735 0 0 0
77 1 3.5022008757280663 10.692736129195639 -0.1658762678903027 0 0 0
80 1 3.5277895969696393 12.42856155227456 1.4157777292023508 0 0 0
194 1 1.7220217671465805 8.822557942832082 3.4304640081857896 0 0 0
218 1 1.625953756884148 12.522751905370713 3.4018600884059547 0 0 0
221 1 3.5000405642961208 10.700519955747824 3.4093372858035593 0 0 0
501 1 14.209966117989667 17.8011738296314 10.550658341118949 0 0 0
60 1 6.890094141955279 8.885718073038978 1.6076735401400992 0 0 0
78 1 5.344991592168175 12.35938877043019 -0.1662117823546454 0 0 0
79 1 5.231204185390937 10.531381425271618 1.5751058549765389 0 0 0
502 1 15.938408993821444 19.53752469045058 10.537283552790473 0 0 0
84 1 7.037285722749514 12.475907332339832 1.57874609122327 0 0 0
198 1 5.280126023411538 8.765222582280106 3.334130603460026 0 0 0
222 1 5.170349641852341 12.421613779005002 3.3211218460694916 0 0 0
225 1 6.892257615073908 10.68468177757829 3.355514950233472 0 0 0
62 1 12.356767538395063 8.806369953831402 0.026471237749661286 0 0 0
64 1 10.618732464565081 8.908005794846838 1.7002742229985457 0 0 0
82 1 8.726543389666881 12.422000944637983 -0.14947490873209873 0 0 0
83 1 8.841658923443724 10.66529947211654 1.6403697349744433 0 0 0
85 1 10.583318302550214 10.578284260491605 -0.06012101997084053 0 0 0
87 1 12.52536028215832 10.747732201026531 1.651508890641284 0 0 0
88 1 10.637681765443231 12.506528787417528 1.4971650664620828 0 0 0
202 1 8.703042569056716 8.937116885867871 3.2453386344304973 0 0 0
206 1 12.483312460532188 8.967336139918519 3.394502006761613 0 0 0
226 1 8.916428764186351 12.543266122772197 3.3217249814781837 0 0 0
229 1 10.762980633640257 10.673725697440018 3.3404547512954754 0 0 0
230 1 12.559736506981121 12.378254709120288 3.3548589954604084 0 0 0
68 1 14.234488617532104 8.841375534859413 1.7086899232540096 0 0 0
572 1 10.549392830275595 19.485503477152264 12.313301028296515 0 0 0
91 1 16.004120430095345 10.586435813591837 1.753297656452385 0 0 0
92 1 14.300229017048432 12.467377576958322 1.5508499161178289 0 0 0
210 1 16.116008745055446 8.870555209608877 3.4836427052822714 0 0 0
233 1 14.244575075632975 10.553916871259132 3.42479029033638 0 0 0
234 1 15.965001428736517 12.374672404358392 3.3743410178530864 0 0 0
52 1 0.05370990485080185 8.76845404747885 1.5619959881581642 0 0 0
76 1 0.00672651979547112 12.364096641060158 1.5108326846637363 0 0 0
217 1 0.007014059128813699 10.555267608954255 3.348214774899551 0 0 0
70 1 19.453175600769814 8.832426011336953 0.003273396009885521 0 0 0
72 1 17.69820476730197 8.83025866065016 1.6784011274131414 0 0 0
571 1 12.346302792664044 17.745376200648888 12.309970041500051 0 0 0
569 1 8.922824326408348 17.64257457785377 12.259593019798517 0 0 0
95 1 19.627270061128346 10.645267542153464 1.517220019119116 0 0 0
96 1 17.69121104686344 12.329827912782822 1.5662539847362196 0 0 0
214 1 19.573933084714888 8.767620570414818 3.321970201698159 0 0 0
237 1 18.054277585749947 10.668838112563181 3.3772963651015355 0 0 0
238 1 19.65712926802123 12.37268953441603 3.3511102563269106 0 0 0
97 1 21.21154993436413 14.223118795094749 -0.12230043852498056 -1 0 0
303 1 12.426544037328313 -0.06457666133816176 8.689767235041177 0 0 0
99 1 1.7629341941589942 14.2265558940625 1.6026199916096384 0 0 0
100 1 21.32000050707804 15.879061208577832 1.5216132969301277 -1 0 0
419 1 8.808968008466698 17.862960882854026 8.619323322145862 0 0 0
104 1 3.4139274426419806 15.857585806908455 1.5407209146741079 0 0 0
242 1 1.589235462622657 15.7576283194323 3.394262724177941 0 0 0
245 1 3.4837918450366105 14.197235406457041 3.245024315975202 0 0 0
103 1 5.242865207450638 14.170234716448482 1.6171501328362294 0 0 0
423 1 12.405681603695557 17.731171796161068 8.698347921149887 0 0 0
108 1 7.118974690616859 15.986451236463108 1.584806460361407 0 0 0
246 1 5.363735030309499 15.942922977742818 3.3600568572435514 0 0 0
249 1 7.0546371766724265 14.215850947511093 3.336644864935553 0 0 0
424 1 10.762160744498988 19.542625891709825 8.677252250147497 0 0 0
107 1 8.779657372810583 14.227073692304643 1.516558200472845 0 0 0
498 1 8.87698211474056 19.517811391571907 10.56125781463174 0 0 0
111 1 12.421927281691863 14.182411418553054 1.5264935925399445 0 0 0
112 1 10.580187113568503 16.04937757475239 1.4995813159188585 0 0 0
250 1 8.797799023386085 15.872669042027438 3.51233714878835 0 0 0
253 1 10.738539193915338 14.159990418930779 3.3831536999320386 0 0 0
254 1 12.341141784707151 15.98611037795396 3.3838369874142584 0 0 0
113 1 14.212180702600714 14.156780765518041 -0.1418478043495716 0 0 0
499 1 10.63522356964196 17.75211351144257 10.420714720027387 0 0 0
115 1 16.032839318799446 14.22275748899796 1.560233352340153 0 0 0
116 1 14.117878510462505 15.938838707219475 1.6020119499033205 0 0 0
257 1 14.241755948856344 14.031325796111972 3.416609393799124 0 0 0
258 1 15.9586524750803 15.947195980605365 3.4884924327960904 0 0 0
241 1 21.246639320575532 14.282997229319275 3.47382931774571 -1 0 0
119 1 19.603291811686486 14.107747204728941 1.6474886391941985 0 0 0
120 1 17.74166744923622 16.076595742207502 1.6377909523500231 0 0 0
261 1 17.787108554880753 14.103524134513583 3.359293604465698 0 0 0
262 1 19.583288435557186 16.05644704222716 3.3262642056903835 0 0 0
145 1 21.33594251497533 21.24347925911516 3.2998543403068044 -1 -1 0
149 1 3.5501653160579956 21.171938108716144 3.4155375015002534 0 -1 0
500 1 12.384178007832862 19.54290813922278 10.634936421726618 0 0 0
122 1 1.7925357034683307 19.58447748045505 -0.1628712835938451 0 0 0
123 1 1.6570267424629905 17.648861903047358 1.7727977441262608 0 0 0
124 1 -0.0036132046460427836 19.44280128142989 1.5050626746218814 0 0 0
415 1 5.357400777208263 17.58212338351163 8.820094021096839 0 0 0
128 1 3.469188072978015 19.328940463248653 1.718809693702255 0 0 0
266 1 1.733712588089681 19.442832302451432 3.361695587016265 0 0 0
269 1 3.4588265022336753 17.542127401254763 3.568000003292375 0 0 0
7 1 5.222151008252777 21.326836688506436 1.685394948005419 0 -1 0
9 1 6.9454885927975525 21.25132210526802 -0.06227449493921987 0 -1 0
126 1 5.249859168357709 19.489986140112563 -0.12953153114468247 0 0 0
127 1 5.088001615558579 17.617560618318493 1.7353546730608813 0 0 0
129 1 6.998059833499623 17.882791978653756 -0.10226205761821272 0 0 0
132 1 6.839377036895307 19.54425099881562 1.7181306364829785 0 0 0
270 1 5.173041393605259 19.403845847214747 3.568877971523034 0 0 0
273 1 7.082574954876637 17.691083135863806 3.439079814003053 0 0 0
11 1 8.719100161604896 21.3308669591471 1.7768965441927285 0 -1 0
15 1 12.501582808912957 -0.05066393322001517 1.6172010888450221 0 0 0
157 1 10.590775792812176 0.03279076753955579 3.5076177282629715 0 0 0
131 1 8.801093513262906 17.723496320227255 1.780547421874069 0 0 0
134 1 12.29798846156654 19.688451062293634 -0.11386613430037634 0 0 0
135 1 12.385466194093636 17.825979575579236 1.46424512472542 0 0 0
136 1 10.569530881794785 19.653318594530088 1.7505371695429282 0 0 0
274 1 8.781317821144684 19.605894072252855 3.4451898254898734 0 0 0
277 1 10.517613769224754 17.758927535770887 3.3947814956185636 0 0 0
278 1 12.473286253135301 19.57221311449425 3.2910421468910003 0 0 0
161 1 14.086320193658738 21.277019529773327 3.2736080315052725 0 -1 0
420 1 7.106352946903377 19.559849048047095 8.717905174724368 0 0 0
139 1 15.98628891348531 17.68912618399886 1.5330856042065784 0 0 0
140 1 14.338061168421087 19.513521642397492 1.5434475297652304 0 0 0
281 1 14.266273629528753 17.705673237695912 3.3160930127265593 0 0 0
282 1 16.083491218203285 19.478930327288648 3.323827839096092 0 0 0
23 1 19.672074850054845 21.332938380373257 1.523407605456215 0 -1 0
265 1 0.0008317429371444973 17.671048728097958 3.517002986535403 0 0 0
496 1 5.448396368663073 19.630591133684987 10.592244470000388 0 0 0
143 1 19.599104696484147 17.74779277271808 1.5390335844837881 0 0 0
144 1 17.760377103870162 19.292283300403188 1.5691092333472298 0 0 0
285 1 17.826759626449853 17.677482924043815 3.349121337013084 0 0 0
286 1 19.68650806183038 19.409104552903106 3.2714861291091575 0 0 0
148 1 -0.04331796997355833 1.5593654232078564 5.003703616493284 0 0 0
152 1 3.455243459703348 1.457386683278576 5.258097724250165 0 0 0
171 1 1.822705689530745 3.362119255556418 5.17737907203998 0 0 0
290 1 1.729070911538091 1.6050779640722541 6.9902702724653585 0 0 0
313 1 21.288717673816425 3.509795882022623 7.084652727241203 -1 0 0
317 1 3.5118644016825393 3.4470637442170493 6.9017244655844925 0 0 0
156 1 7.201361816371374 1.747683931369822 5.169767892251562 0 0 0
175 1 5.328834913333726 3.4934820790248478 5.225214096010144 0 0 0
294 1 5.358244515521072 1.7326769606523431 6.97570251457865 0 0 0
321 1 6.999689596739023 3.45141916528081 7.1855278494949335 0 0 0
160 1 10.774451661390707 1.7021502198632632 5.273554098671241 0 0 0
179 1 8.847038907424936 3.500224114374433 5.274672947127599 0 0 0
183 1 12.589215221606395 3.4581744326677133 5.253333398246909 0 0 0
298 1 8.910136273072764 1.5368388404597502 6.895757631733439 0 0 0
302 1 12.424355866851323 1.6310622924544953 6.999909137411926 0 0 0
325 1 10.757925578311493 3.4146158287471216 6.85346651870398 0 0 0
163 1 16.049647534239803 21.285124245087466 5.148192986258701 0 -1 0
164 1 14.346881939051336 1.6815638884862951 5.25825750603782 0 0 0
187 1 16.000179318110796 3.5311226603411345 5.236664122990729 0 0 0
305 1 14.209203062530934 21.255041696025227 6.884922262081654 0 -1 0
306 1 15.967906472779397 1.6891299140644238 6.971360723028267 0 0 0
329 1 14.283194554784771 3.4945543291822942 6.996995080187358 0 0 0
168 1 17.956412736011355 1.7386216085697765 5.149998345426856 0 0 0
191 1 19.647450135517 3.570541346186208 5.29536032158862 0 0 0
310 1 19.723136778134602 1.6684800715307402 6.935382107287278 0 0 0
333 1 17.859481788265203 3.3763843983457735 7.1194122634060735 0 0 0
172 1 0.03948715291713925 5.257679408470999 5.2800030759666 0 0 0
176 1 3.490813899308049 5.430835875811313 5.3101687614782636 0 0 0
195 1 1.6639448101706082 7.3245295254045555 5.320905298784598 0 0 0
314 1 1.6646019762742637 5.252766651664159 6.9793715323942305 0 0 0
337 1 -0.06521019004358983 7.169087131813085 7.0047948383395005 0 0 0
341 1 3.4435189092009635 7.068418598529621 7.017623461283251 0 0 0
180 1 7.05915674843412 5.251768671730458 5.321038051271838 0 0 0
199 1 5.25410259464089 7.080879203156613 5.2975364373231075 0 0 0
318 1 5.375217570290311 5.341771526692637 7.014260412888272 0 0 0
345 1 7.14400656213854 7.206976697349697 6.942169474363198 0 0 0
184 1 10.684848287975923 5.343974519283074 5.197255171154508 0 0 0
203 1 8.904457503036701 7.110301196569705 5.214902661271574 0 0 0
207 1 12.454531790005484 6.998879549523518 5.1005914221455635 0 0 0
322 1 8.91940860300275 5.387481801045826 6.9390315660305495 0 0 0
326 1 12.52355607700304 5.279973913875703 6.8460505799377955 0 0 0
349 1 10.607678538434813 6.9318356018743765 6.9265249558119475 0 0 0
188 1 14.357362921563247 5.207246784011169 5.208484758523354 0 0 0
211 1 15.913831239952428 6.984581445033897 5.119219161082412 0 0 0
330 1 16.133526761401946 5.359171886382364 7.021549780735647 0 0 0
353 1 14.128929676189076 7.125254538054429 6.935929020507654 0 0 0
192 1 17.8435795236299 5.266011726935663 5.2144919514600385 0 0 0
215 1 19.6054189928437 7.246504704126056 5.185704777042964 0 0 0
334 1 19.49904972036154 5.309911735268286 7.058677648546021 0 0 0
357 1 17.92954101611291 7.06338378201344 6.972569474262384 0 0 0
196 1 21.300895531641025 9.006377219718145 5.3532639719854105 -1 0 0
200 1 3.424494165310693 8.939801456475493 5.2261685398017885 0 0 0
219 1 1.614797299883744 10.76712909379313 5.173902037819656 0 0 0
224 1 3.588366409231155 12.553346515667029 5.119939968696542 0 0 0
338 1 1.7923699350600304 8.90690022926339 7.122191195963789 0 0 0
362 1 1.7991573973804025 12.40966173584582 6.950577612037566 0 0 0
365 1 3.5042517451004302 10.553356295603626 6.968801908002639 0 0 0
204 1 7.1401838816061325 8.952738793205219 5.140482631476414 0 0 0
223 1 5.275920753756267 10.59649448998089 5.072156592690117 0 0 0
228 1 6.982542820637256 12.378514707312526 5.061220018345818 0 0 0
342 1 5.366521486976466 8.884611963720083 6.891457192518555 0 0 0
366 1 5.159478417386298 12.454424849575732 6.908863307583709 0 0 0
369 1 7.16214926270373 10.688029207203654 6.826607116376728 0 0 0
208 1 10.715998847807287 8.733175834523635 5.075572055057504 0 0 0
227 1 8.882730781627894 10.540883246257588 5.071993687930416 0 0 0
231 1 12.415828925708505 10.507012276341817 5.2131376215080545 0 0 0
232 1 10.874610753957802 12.445443790852357 5.163601522452269 0 0 0
346 1 8.914954540962484 8.966378981494518 6.800901208229765 0 0 0
350 1 12.488094354921708 8.663708890206783 6.885111045367535 0 0 0
370 1 8.892418540356887 12.366047627463724 6.888507034904011 0 0 0
373 1 10.658049484238777 10.664881963771968 6.792757456447392 0 0 0
374 1 12.496502682532393 12.303136755992169 7.082561567214847 0 0 0
212 1 14.239421093802473 8.90205828947769 5.197652208559226 0 0 0
235 1 16.086327852343743 10.570957877203554 5.256371962785015 0 0 0
236 1 14.2136499855774 12.331297078289285 5.282344700275462 0 0 0
354 1 16.100448382677328 8.682561297258495 6.946268874298864 0 0 0
377 1 14.250347039086547 10.71733988424345 6.984818988185854 0 0 0
378 1 16.1372925502942 12.413771772567989 7.009657417543685 0 0 0
220 1 21.232122351407224 12.409554937246515 5.153637484626422 -1 0 0
361 1 0.03281457683920408 10.629257952073052 7.156513955288816 0 0 0
216 1 17.866143618105205 8.916756792410585 5.158399512440465 0 0 0
239 1 19.629151248895123 10.731244092846286 5.383106481194416 0 0 0
240 1 17.790486129153855 12.387755760904055 5.1476860667261635 0 0 0
358 1 19.455482114407875 8.863610776521735 7.20292312355529 0 0 0
381 1 17.73339064065316 10.555775730434293 7.163769564658052 0 0 0
382 1 19.570740094475536 12.370857763917734 7.165805827962915 0 0 0
243 1 1.608598187527731 14.139244205119148 5.287062553567722 0 0 0
244 1 21.320276111643672 15.943738866962853 5.298486978357877 -1 0 0
248 1 3.2629343850169334 15.858221727510536 5.3055518107913215 0 0 0
385 1 21.332128066386414 14.112261651521537 7.039969099779453 -1 0 0
386 1 1.6701277536378303 15.894068386265308 7.163347153768605 0 0 0
389 1 3.3952657237586004 14.22655260967866 7.262055701709205 0 0 0
247 1 5.075126398242849 14.256384565617576 5.2006728198333025 0 0 0
252 1 6.9915645960523065 15.842381252894286 5.255556656333003 0 0 0
390 1 5.380371711347434 15.867790262885284 6.992447338245564 0 0 0
393 1 7.186381513450757 14.068150093819233 6.884333547482653 0 0 0
251 1 8.97267316889115 14.097590030000697 5.258966086710046 0 0 0
255 1 12.522910004025182 14.12652358873594 5.129668152510668 0 0 0
256 1 10.64773528827077 16.07595077064681 5.175559179227925 0 0 0
394 1 8.988953060520654 15.920727828730987 7.052786118580129 0 0 0
397 1 10.797748112923722 14.070609021481138 6.898697181318198 0 0 0
398 1 12.415772939025189 15.97144809399613 6.916256816135186 0 0 0
259 1 16.118524055936152 14.182322363934468 5.206597383640563 0 0 0
260 1 14.30809881714736 16.02410355819468 5.225669110596356 0 0 0
401 1 14.134412392014553 14.272041846689302 6.9363370364696815 0 0 0
402 1 16.11173476825665 15.986223714142241 6.841194449759037 0 0 0
263 1 19.583265682707324 14.12571866572257 5.116262184552663 0 0 0
264 1 17.758156851771705 15.923474966728044 5.125911753479564 0 0 0
405 1 17.887159988829527 14.204563186780618 6.928687154021964 0 0 0
406 1 19.532666793462955 16.00251033550946 6.90120492123898 0 0 0
147 1 1.6112786577077907 21.006435639643286 5.327751933717932 0 -1 0
293 1 3.637821201624178 21.264744319845335 7.184545936425138 0 -1 0
267 1 1.7481184915212156 17.727000057270395 5.273036362686103 0 0 0
272 1 3.4236319266887594 19.60281996055671 5.343054466295005 0 0 0
410 1 1.835027600028101 19.360643669135357 7.08979767354599 0 0 0
413 1 3.5370727391182117 17.74518209992974 6.983021290397588 0 0 0
151 1 5.290954959990609 21.158334883047594 5.34111141280067 0 -1 0
297 1 7.10295733402475 21.29427173543859 6.949299457030119 0 -1 0
271 1 5.245625247397897 17.77999277094628 5.281263115959459 0 0 0
276 1 7.061973109551577 19.494235078204127 5.2231192414589716 0 0 0
414 1 5.384205228781812 19.46266153218782 7.172993585129036 0 0 0
417 1 7.093202946302131 17.62947064684713 6.965066285280728 0 0 0
155 1 8.728852068017623 -0.05169786687388367 5.11725272378501 0 0 0
159 1 12.500370446123384 21.229939033496233 5.208717814746919 0 -1 0
301 1 10.751277110490346 21.183787139433797 6.8144446059030335 0 -1 0
275 1 8.738143541997292 17.608115925449017 5.158477359583986 0 0 0
279 1 12.413752775197343 17.79186316127896 5.177512871228311 0 0 0
280 1 10.593974420654188 19.47145114583033 5.172543045139388 0 0 0
418 1 8.864404492301343 19.634239067748833 6.843538900412032 0 0 0
421 1 10.64452235438223 17.692212612206045 6.992180736972233 0 0 0
422 1 12.393618267204586 19.511334137606568 6.771999488837895 0 0 0
283 1 16.125914491650597 17.802278760424894 5.055580953769885 0 0 0
284 1 14.28533022001784 19.440462306524015 5.1007193120327425 0 0 0
425 1 14.233212443822977 17.781789653023544 6.907545163077991 0 0 0
426 1 16.10985894105793 19.571894731158338 6.87376639412581 0 0 0
289 1 -0.0236059375113733 21.252942635067022 7.009208008209905 0 -1 0
167 1 19.565778292347037 21.253036643031816 5.0332658067628175 0 -1 0
309 1 17.90029635098812 0.009206215846521815 6.828790923431971 0 0 0
268 1 21.232268657572813 19.50558266846199 5.1720666393190475 -1 0 0
409 1 21.304189116776495 17.694229824481464 6.966703708847898 -1 0 0
287 1 19.565267690175787 17.76689413333826 5.177914699365797 0 0 0
288 1 17.859749794272513 19.60753011101883 5.186165029967016 0 0 0
429 1 17.834635243431 17.8299152832614 7.003275984965216 0 0 0
430 1 19.663548376001117 19.580071804897894 7.005302519146437 0 0 0
291 1 1.8053725240396579 21.06940565391923 8.76538249171513 0 -1 0
296 1 3.5917172618858526 1.6389480553473466 8.749614004894516 0 0 0
315 1 1.6736148781892832 3.460191114694725 8.643197181778834 0 0 0
434 1 1.766225012762237 1.5749862909541616 10.42791335215895 0 0 0
445 1 0.09727862444303767 3.414010140724654 10.617393107613358 0 0 0
447 1 3.394743278836773 3.4303598266557533 10.532004075344656 0 0 0
508 1 3.4602257814339064 1.59442165060553 12.313492688103924 0 0 0
497 1 7.174570001453563 17.717247013037554 10.61049476703332 0 0 0
295 1 5.372865300708337 0.01174063602537205 8.844108891712688 0 0 0
300 1 7.187622873919246 1.6566809237134128 8.748749257063283 0 0 0
319 1 5.1353711458684606 3.465095137144431 8.879136531038647 0 0 0
436 1 5.313566630492396 1.8000513783801362 10.535643039096213 0 0 0
437 1 7.075631075130252 -0.06221180572232099 10.588825672804843 0 0 0
449 1 7.157657452224485 3.5030511230839054 10.471988096428134 0 0 0
435 1 3.5393766902043278 -0.06007372295561453 10.518301567491651 0 0 0
299 1 8.882074696707477 21.275073355149843 8.733243691352166 0 -1 0
304 1 10.550541772814604 1.5794587838987293 8.721026112194867 0 0 0
323 1 8.866849343863333 3.542029817422713 8.541826212541762 0 0 0
327 1 12.56730103942245 3.459162715360606 8.741526438119951 0 0 0
438 1 8.978269134979266 1.6975170896885983 10.561501071688317 0 0 0
439 1 10.704301502965949 21.18243887634035 10.511565457932345 0 -1 0
440 1 12.380060584924864 1.702614046742914 10.444759094406004 0 0 0
451 1 10.600477086975737 3.380936602284643 10.456718610442238 0 0 0
512 1 10.745545878025569 1.650525448091253 12.281338987181858 0 0 0
521 1 8.797096923795555 3.3652962680824845 12.315453928871408 0 0 0
523 1 12.58101775356907 3.522158040105965 12.157366235065433 0 0 0
308 1 14.321148093423465 1.6265146034169708 8.782325746476484 0 0 0
331 1 15.868714545808745 3.4665368032269446 8.715631276881505 0 0 0
441 1 14.195459864665136 21.26208341365891 10.551633501350826 0 -1 0
442 1 15.975699717520921 1.7072445412060153 10.578870060656227 0 0 0
453 1 14.219481613298619 3.492206197512505 10.515125659271511 0 0 0
292 1 0.04768949817382406 1.6187654221793268 8.818907188894979 0 0 0
312 1 17.791406355166504 1.6619498545421478 8.850710497621298 0 0 0
335 1 19.766437986170974 3.4628945586575237 8.896190460210004 0 0 0
443 1 17.879152448870627 -0.06638616885625497 10.546773208524241 0 0 0
444 1 19.643625455710442 1.6894148387379044 10.573335321006164 0 0 0
455 1 17.74552425340031 3.3877402937853325 10.492276149652481 0 0 0
433 1 21.248494367587625 21.154662319000366 10.57547458353971 -1 -1 0
316 1 -0.032397158237652685 5.298572049380517 8.940095296795429 0 0 0
320 1 3.5334970881298076 5.271334186168046 8.84576832208689 0 0 0
339 1 1.7325572917192438 7.068278712518299 8.759424424539205 0 0 0
446 1 1.6482905398628829 5.217310476852061 10.603047867016231 0 0 0
459 1 3.390076429615907 7.021806879438547 10.463426692880672 0 0 0
411 1 1.7488634504948215 17.591965738532632 8.918394098974117 0 0 0
324 1 7.072427734517211 5.3274543654339395 8.665859984258745 0 0 0
343 1 5.251539232856923 6.969980837688706 8.712012112901428 0 0 0
448 1 5.421157543197242 5.290746549791098 10.490142517140205 0 0 0
461 1 7.219610663600628 7.0960101206081845 10.483855761542943 0 0 0
522 1 7.194052610937052 5.214906595639469 12.148034079156599 0 0 0
531 1 5.260201707878774 7.0333708530084555 12.182032880074193 0 0 0
328 1 10.752362710883617 5.208232882252366 8.67733832122268 0 0 0
347 1 8.950339434722498 7.170597516254301 8.687795774050354 0 0 0
351 1 12.424886230835627 7.029914168034451 8.728093567138455 0 0 0
450 1 8.928303130558277 5.339781592789939 10.35165220664627 0 0 0
452 1 12.313215742214462 5.286763689704511 10.531404846851325 0 0 0
463 1 10.649496557167392 7.1805522427910295 10.48525965301325 0 0 0
533 1 8.997664241627605 6.949650025196696 12.27684434273262 0 0 0
416 1 3.613159979689111 19.394900006916746 8.928847253246605 0 0 0
332 1 14.254885712131346 5.322350575145165 8.724170442966821 0 0 0
355 1 16.081429928336537 7.077779500314812 8.76243055158501 0 0 0
454 1 15.898326508236943 5.260033036413731 10.495440301163764 0 0 0
465 1 14.036723670574625 6.975081956160348 10.571860503734502 0 0 0
457 1 21.23812317511423 6.982197704773434 10.595658124848907 -1 0 0
336 1 17.860780646106534 5.130468444097416 8.87409893322154 0 0 0
359 1 19.619250449007613 6.977799272490688 8.820424237555551 0 0 0
456 1 19.656366104170797 5.077886551230876 10.556672512658169 0 0 0
467 1 17.945027549622047 6.950003841908308 10.594911044868494 0 0 0
344 1 3.650300052150639 8.868403325012066 8.697503400992396 0 0 0
363 1 1.768022716657305 10.587250482181727 8.837486620283658 0 0 0
364 1 0.016368682001070334 12.397416553371846 8.835956005709152 0 0 0
368 1 3.6534368764567717 12.404379726754032 8.86510907701753 0 0 0
458 1 1.7389055105183344 8.758309171882857 10.610695438212154 0 0 0
469 1 0.022668822348153317 10.685420407786419 10.640399522784678 0 0 0
470 1 1.8282695515317837 12.361992133717013 10.628677000068603 0 0 0
471 1 3.525613293740582 10.49783352872089 10.506356630293162 0 0 0
532 1 3.4962752679794287 8.81425971480758 12.27456326379037 0 0 0
494 1 1.7871203995652494 19.42149997715996 10.686568150325197 0 0 0
495 1 3.584530449971413 17.660566719841864 10.609013134272509 0 0 0
348 1 7.214711032507948 8.894690870716607 8.682586582615535 0 0 0
367 1 5.359495285282913 10.642229880036464 8.64808082971459 0 0 0
372 1 7.073535155587958 12.370599324665905 8.658209192374805 0 0 0
460 1 5.421774739997512 8.769894728548277 10.560139772530427 0 0 0
472 1 5.410628761428868 12.347997064689423 10.532492949399513 0 0 0
473 1 7.251947902494036 10.55802516138286 10.64672583421921 0 0 0
534 1 7.239990518583536 8.766079943488636 12.274722107649946 0 0 0
492 1 19.38758423107729 15.897772992041107 10.54625031709735 0 0 0
491 1 17.68480859636107 14.230036596099168 10.571507892662856 0 0 0
352 1 10.71498107660466 8.96088488565336 8.664727835522482 0 0 0
371 1 9.001700682778779 10.710423890606187 8.765308156755792 0 0 0
375 1 12.42038995564684 10.628768793706824 8.751252273907225 0 0 0
376 1 10.73284742925653 12.33797533440963 8.73719967746229 0 0 0
462 1 9.091395500924593 8.908394970774111 10.44726615568219 0 0 0
464 1 12.359353382654875 8.869569553172848 10.557314025657451 0 0 0
474 1 8.853151943475257 12.412707737677945 10.511380433297415 0 0 0
475 1 10.696491389262825 10.655759429396419 10.637396899315327 0 0 0
476 1 12.518756684296195 12.585002995313308 10.600433272090779 0 0 0
408 1 17.894269603279948 16.0169214079094 8.661532669344927 0 0 0
356 1 14.2834678626405 8.8254413134927 8.796661413976452 0 0 0
379 1 15.92994747235096 10.50453777381448 8.80814488141816 0 0 0
380 1 14.164112801514973 12.516423396854064 8.693794707074437 0 0 0
466 1 15.990768454568677 8.766309096957231 10.608371170040446 0 0 0
477 1 14.112908616200972 10.646295397869677 10.523802916199175 0 0 0
478 1 15.863137363154424 12.439488604722342 10.601174020143942 0 0 0