LAMMPS data file via write_data, version 29 Oct 2020, timestep = 150000

2016 atoms
1 atom types

0.05697017697365325 21.207029823026957 xlo xhi
0.05697017697365325 21.207029823026957 ylo yhi
0.13293041293964336 49.48306958706013 zlo zhi

Masses

1 58.933

Atoms # atomic

1188 1 2.220518993043486 3.4218242067922473 2.0653298849836235 1 0 1
4 1 0.3211362449955571 1.3979667507290658 2.087722523003296 0 0 0
146 1 2.451923849830725 1.63648701341314 4.013786359951573 0 0 0
169 1 0.39834603508210203 3.4071837460759427 3.9588254839855215 0 0 0
8 1 4.092319973468969 1.4875266414285837 2.242875944589481 0 0 0
133 1 7.501152353213705 17.28572589375203 0.3985336638980961 0 0 0
1633 1 13.097109552893361 4.774924575475387 0.3172549787958567 1 -1 1
54 1 7.4406738350964075 7.018835449188145 0.27058087844821066 0 0 0
173 1 4.005444352096442 3.477905791108683 4.278357774765522 0 0 0
12 1 7.735453149473172 1.4105792984420837 2.0050303419722475 0 0 0
31 1 6.084515322757594 3.362486324036034 2.313011714366143 0 0 0
150 1 5.661254218684827 1.7323408073721982 4.218165142344384 0 0 0
177 1 7.8565471077216555 3.5657397211311763 4.413848579117258 0 0 0
1834 1 12.955776190156167 18.77157877771146 0.5175908362390282 -2 2 1
1908 1 16.365968553358307 4.879617145680064 0.47778748788090347 -4 2 1
16 1 10.853369660555014 1.583275136299686 2.1753200465156146 0 0 0
35 1 8.898939624974686 3.302614253882169 2.2236485874898024 0 0 0
154 1 9.290168874369854 1.314965823888111 3.7035829298797927 0 0 0
181 1 10.768663833273338 3.087439045053602 3.8621859010638384 0 0 0
1462 1 19.676479514266553 1.5139333528389771 0.373555101847332 0 -3 1
1360 1 9.334006442722089 1.4130510761695496 0.4768200267429448 -2 5 1
158 1 12.687113365634511 1.6750490646301013 3.656541403910846 0 0 0
39 1 12.779519076939838 3.272695220094593 2.2005316648930435 0 0 0
20 1 14.473509691493483 1.4585062010596617 2.0601494632495294 0 0 0
43 1 16.488883576320696 3.2658251460324492 2.01629248598487 0 0 0
185 1 14.621480877303433 3.209634356675849 3.871053021958245 0 0 0
162 1 16.32471763615687 1.198773730194458 4.09248821312599 0 0 0
1304 1 0.6229974026383488 3.2314638685314976 0.33506286189547707 1 1 1
1441 1 14.44927559642992 2.8902432477291353 0.3580096413824311 -2 2 1
24 1 17.950684529300034 1.2429441003918216 2.5066018199184743 0 0 0
47 1 19.754976698895653 3.1529760668105777 2.165345080182229 0 0 0
166 1 19.665466820206042 1.7616609663938536 4.44359903744676 0 0 0
189 1 17.85174789067658 3.2096502596666108 4.083270217966845 0 0 0
503 1 18.09391592818553 17.406636885022877 10.739273778044055 0 0 0
73 1 0.2708686967515504 10.004865868120351 0.24388711930688708 0 0 0
443 1 18.249731806199737 20.820598177704078 10.803506228545219 0 -1 0
51 1 2.0820910164181496 6.639309323688944 2.1802445536489223 0 0 0
193 1 0.3726481842004825 6.771170219732398 4.104455754998536 0 0 0
28 1 0.28403310489984623 5.037802433027397 2.0754031172396274 0 0 0
56 1 4.126258962769836 8.790437751088282 1.6859100168686352 0 0 0
27 1 3.991369802454687 4.88918589463468 2.34419923828038 0 0 0
197 1 3.9703806333003895 6.882523381505907 3.681181214119632 0 0 0
194 1 1.7784031455408522 8.385101715716663 3.851712809121704 0 0 0
52 1 0.45262340078559676 8.693618465902274 2.099659863006587 0 0 0
46 1 0.2283434267339608 6.847492666083828 0.5303673844049468 1 0 0
53 1 2.2978416308137057 4.965422769679411 0.36646917979024773 0 0 0
36 1 7.658633497435635 5.196903818632546 2.1691236029443535 0 0 0
55 1 5.506601184005286 7.186572880883116 1.9318818964256408 0 0 0
201 1 7.216196854840438 6.6694720961320275 3.8948036312658147 0 0 0
174 1 5.89028421032071 4.956486147614176 3.8658558176427227 0 0 0
198 1 5.521884658685736 8.565005821233033 3.8605110460437357 0 0 0
1563 1 16.30946402504964 1.1998925039167032 0.7438564685844024 -1 3 1
60 1 7.24358343291169 8.296501807176984 2.222048247319974 0 0 0
72 1 17.778321180516585 10.253011560080052 0.19863925827571083 0 0 0
34 1 7.890821642527251 3.0889247757724125 0.34474118443510127 0 0 0
59 1 11.055075579671131 4.934783621239473 2.0986203210721532 0 0 0
61 1 9.420843287055202 6.784565679518907 1.9569457958666647 0 0 0
205 1 11.447043766153296 6.7012561360130976 3.588959075375649 0 0 0
178 1 9.276968680764787 5.158222659905217 3.7448440295180583 0 0 0
64 1 11.247867767500509 8.60739380528562 2.1412907085798385 0 0 0
122 1 2.428911157693494 18.809663283924206 0.32123489577378095 0 0 0
182 1 12.897391386100871 4.922783701106506 3.6328214596030928 0 0 0
63 1 13.27746866743 7.165306513631063 2.0551997543295224 0 0 0
44 1 14.712139020184072 4.908631398864576 2.0184384552767236 0 0 0
209 1 14.643217233070274 6.838039896107393 4.008818525651841 0 0 0
1630 1 16.21761591408177 6.556341142559223 2.1573816207885956 -2 3 1
186 1 16.246805960752592 5.098965227098461 4.000926554251254 0 0 0
210 1 16.33771168918776 8.457944561850622 3.9846921484728255 0 0 0
68 1 14.519109398546549 8.958507860764911 1.55273591105153 0 0 0
25 1 2.5629888519695396 1.4989741590578443 0.47833494361825646 0 0 0
206 1 12.942913077179849 8.534514148824139 3.984806061120084 0 0 0
98 1 2.6065710168485006 15.344441648142224 0.4828215958903163 0 0 0
101 1 3.859826461527748 13.419386416048615 0.3144868912656424 0 0 0
29 1 4.561690633747595 3.1279068804320924 0.23562693754535424 0 0 0
48 1 18.118565817060226 4.980746570662472 2.449807429357003 0 0 0
71 1 19.507152499893742 6.827855867235975 2.041609009573685 0 0 0
190 1 19.719833699253286 5.04690161723754 3.7258240864563477 0 0 0
213 1 18.218882233069895 6.8559002596502125 4.0552959187708115 0 0 0
137 1 14.683801162425002 17.20285880600144 0.3331654375564955 0 0 0
106 1 11.067913404970236 13.405650903637211 0.4346187761848856 0 0 0
311 1 19.793198497318212 20.85839681120991 9.478786572788337 0 -1 0
75 1 2.1603172498879943 10.203873504458763 1.7388345586712395 0 0 0
76 1 0.2665094585137828 11.700574302768727 2.464288723249695 0 0 0
218 1 2.262669856713377 11.786951881012184 3.962891818482895 0 0 0
80 1 3.7552704283947573 11.770510558013871 1.8733399275909965 0 0 0
217 1 0.09925385602004866 10.14962089763538 3.9953668090791568 0 0 0
221 1 3.9126839446478123 10.18095918177003 3.461958466147625 0 0 0
432 1 18.194603011645643 18.899061258285695 9.02181204004769 0 0 0
42 1 14.775573791642993 6.775555698038778 0.2742947623059532 0 0 0
79 1 5.831555527631688 10.332718948053484 2.1552264213601626 0 0 0
84 1 7.695043254526558 12.085968724093952 2.4237374273340664 0 0 0
222 1 5.827168310206132 12.01895307966482 4.1863954933581216 0 0 0
225 1 7.664700568180603 10.555230138666623 3.9404463079801073 0 0 0
1669 1 9.420123229122618 8.769099506238138 0.47568408073713725 -1 2 1
78 1 5.741275284177841 11.903397183334276 0.2521260063510704 0 0 0
89 1 14.924617109733303 10.684763599203249 0.3378627313194425 0 0 0
85 1 11.12344515628165 10.364805396896122 0.29587546259782704 0 0 0
202 1 9.144822271855839 8.500117883554841 3.6434678254042114 0 0 0
83 1 9.047466083716813 10.348792122007131 2.4086075693932547 0 0 0
88 1 10.763143577293501 12.207102352008654 2.42914008787325 0 0 0
226 1 9.282469655151225 12.228315282801375 4.040096665158499 0 0 0
229 1 11.128389163055742 10.103640663039037 3.7622180310069413 0 0 0
255 1 12.595910269396072 12.241620304545219 3.824473169110559 0 0 0
1854 1 19.605282502808837 4.879273733961119 0.4602767587447529 -1 1 1
2 1 4.180593608877754 20.64699941297194 0.4035465917819505 0 -1 0
66 1 16.3023001794138 8.573498571003435 0.8920225042188897 0 0 0
50 1 2.1564330490230996 8.213394075827777 0.38887430478486207 0 0 0
230 1 12.960399370159825 10.363901948712853 2.2003206325158744 0 0 0
92 1 14.751239852437822 12.109266578845185 2.2583135318016967 0 0 0
91 1 16.416552160540355 10.228225396129147 2.6974276683566547 0 0 0
234 1 16.722989845352423 12.057356107644528 3.7936286211926804 0 0 0
233 1 14.384151834045284 10.67588028073902 3.827653345572797 0 0 0
45 1 17.820999029847545 6.710243583977305 0.34980836084039413 0 0 0
32 1 3.9699053253994894 6.679843381166074 0.3222153299762706 0 0 0
214 1 19.769841363832715 8.50467904734239 4.119489567055316 0 0 0
67 1 17.975031901922673 8.254629508726051 2.08356869506997 0 0 0
95 1 19.475597608326943 10.131998960035752 1.8998295876436122 0 0 0
96 1 17.808406817724876 11.946862972666617 2.019420382175908 0 0 0
238 1 19.305887539012097 11.941482435304657 3.5730952019906765 0 0 0
237 1 18.0653264234745 9.900829306095117 4.269183208516549 0 0 0
1399 1 7.452996934754454 13.194917727557254 0.3740037848676717 -3 -2 1
1332 1 7.506275269683885 20.854901724813857 0.5188563493329962 -3 -1 1
69 1 19.61915118270143 8.493172215727382 0.13797388482736636 0 0 0
1432 1 11.147156772558775 20.69787999100818 0.3250125131191726 0 -3 1
99 1 2.591394192718682 13.778203918130053 2.2730771132237093 0 0 0
100 1 0.6008494666417746 15.3321949747421 1.91281294840017 0 0 0
241 1 0.9223234935617457 13.96350256241856 3.9048864649341724 0 0 0
245 1 4.086868905558968 13.667258399346531 3.9206928718601626 0 0 0
104 1 4.29335046764785 15.417474913496223 2.1095762263853866 0 0 0
242 1 2.509501097837663 15.620484982917597 3.8809543822620696 0 0 0
504 1 19.80227411836784 18.954645346217667 10.865842500262097 0 0 0
102 1 5.982433145998093 15.364091722557085 0.5987995197788061 0 0 0
103 1 5.45749397654897 13.390500469635635 2.0872384028631625 0 0 0
108 1 7.725265781465104 15.536419834117888 2.2770988893397353 0 0 0
246 1 5.974314338215126 15.381868244497783 3.9651347514304494 0 0 0
249 1 7.934804283524613 13.805309470214711 3.967070741472577 0 0 0
431 1 19.890836113774107 17.204880842225496 9.341802446023792 0 0 0
1 1 0.6599178156768708 21.032550117270684 0.3673013655067206 0 -1 0
107 1 9.205117092251742 13.777354868920325 2.012353124276941 0 0 0
112 1 10.766136804677995 15.66524449239702 1.8651191058630332 0 0 0
253 1 10.901163339358815 14.036636480960532 3.716263786371837 0 0 0
250 1 9.16712655833257 15.791079393032437 4.242816320032426 0 0 0
111 1 12.806949335763296 14.01811377399866 2.1160532150797713 0 0 0
277 1 10.982728594077876 17.12680926681328 4.003311085842361 0 0 0
254 1 12.901218011657637 15.609692044952613 3.9994485400920867 0 0 0
116 1 14.552669407709566 15.493457963841 1.9577011812490128 0 0 0
257 1 14.337988024476639 14.013714166214065 3.871334718644517 0 0 0
115 1 16.19333599664261 13.669542461064587 2.065824620299468 0 0 0
258 1 16.41918135113261 15.612824056213347 3.738730304921063 0 0 0
1636 1 9.117931556435332 15.387538217091091 0.36610159079325194 -2 1 1
125 1 4.1684955662035135 17.30571528197117 0.6692453735576094 0 0 0
119 1 20.19908838294753 13.606206964356279 2.0323287516364745 0 0 0
120 1 18.15905400456439 15.616162937079533 2.009976339642484 0 0 0
261 1 18.0522408447749 13.915021757500195 3.681245672398256 0 0 0
262 1 19.90842306172445 15.471353798810219 3.929635712957257 0 0 0
303 1 13.625537137544756 21.016333106792487 9.014953454301981 0 -1 0
265 1 0.45853725152563757 17.16115629500537 3.8024615795456485 0 0 0
269 1 3.9905860134174564 17.27951389788727 3.559366309863413 0 0 0
3 1 2.227971289649498 21.044914153675318 2.2601341701302173 0 -1 0
123 1 2.2228057687877074 17.120476288853506 2.122965384843725 0 0 0
266 1 2.398247364774577 19.292845015248236 3.879646836772978 0 0 0
124 1 0.6388002458680154 19.118223921096774 2.0294056315575197 0 0 0
145 1 0.23916817193498563 0.06568184474656036 4.147015467213658 0 0 0
149 1 4.241585296063251 21.006139608944416 3.9251154368239374 0 -1 0
118 1 19.989446250128978 15.540911763089262 0.3849458263694255 0 0 0
128 1 3.929266175015665 18.931553600037066 2.1732665454759834 0 0 0
307 1 16.405631420266296 20.594984899527486 9.007513780749846 0 -1 0
121 1 0.664608022014091 17.121745265888038 0.5968275626607302 0 0 0
1671 1 12.693606560502605 1.3778084137070716 0.203335049309517 1 -2 1
1886 1 6.082221926919297 4.706017767613936 0.2757136723831968 1 2 1
81 1 7.489390461790759 10.233946930491209 0.4729396672061711 0 0 0
127 1 5.8137589595275445 17.284395359866938 2.4367700416401776 0 0 0
7 1 5.820583285363412 20.722250152067367 2.378279570084045 0 -1 0
9 1 7.558921035419868 19.003709058658394 2.2567727504733797 0 -1 0
153 1 7.346159299142882 20.935232713553244 3.814321646036876 0 -1 0
273 1 7.709214710186552 17.183984476920603 3.918555884516374 0 0 0
1189 1 11.039874036840473 17.37275001053109 0.4642302544401678 -3 2 1
1292 1 5.792574885886183 1.1842537466022092 0.5448782685899894 0 0 1
131 1 9.332089459650705 17.382890249140104 2.007059566510671 0 0 0
11 1 9.436075336841267 20.539635376367517 2.13038268368126 0 -1 0
136 1 10.937496321857227 18.998499328157422 2.1687328379507043 0 0 0
274 1 9.336242310018772 19.252106887680444 4.047309487238756 0 0 0
157 1 11.179111507609623 20.97536181287087 3.757606868143503 0 -1 0
15 1 12.797693517636665 21.027409485635307 2.2224028549045753 0 -1 0
17 1 9.248324576873113 18.977067140742236 0.2321052901454391 0 -1 0
1056 1 10.886849749108134 6.874527148797259 0.40942301680593896 0 -3 1
281 1 14.698467222847569 17.293402342805805 3.8056951933652448 0 0 0
135 1 12.47362379424348 17.05635204137679 2.2407613375619797 0 0 0
139 1 16.5377303156045 17.291737855528954 1.8563058844390932 0 0 0
278 1 12.927729349453589 18.959276232752448 3.4982670342897793 0 0 0
161 1 14.598310336628051 20.643585374625335 3.9229432711997947 0 -1 0
19 1 16.276791624535118 20.73410350687982 2.3217602430215316 0 -1 0
140 1 14.666924436119825 18.99612126812362 2.010824907691072 0 0 0
282 1 16.37429201005946 18.744493602181127 3.957082753396951 0 0 0
424 1 13.008753823037349 18.72449345955738 11.208835068098862 0 0 0
498 1 9.335965553451361 19.325108085800537 11.001980314049762 0 0 0
1425 1 18.075281019355167 3.079377870974853 0.4876933680895807 1 1 1
142 1 19.827781194933976 19.237882503891914 0.14725184024329382 0 0 0
143 1 20.054776905806992 17.463942335155412 2.263525790858459 0 0 0
23 1 19.612854528202334 20.910039359929133 2.225703721907864 0 -1 0
165 1 18.008167786987368 20.745982661127247 4.023083510538116 0 -1 0
144 1 17.840561732766076 19.006049308739147 1.9221332396818223 0 0 0
285 1 18.282797439049535 17.32379905994438 3.9918157720724956 0 0 0
286 1 19.91535809016138 19.09516519285096 3.8937986961232682 0 0 0
5 1 5.947080470947046 19.258153626291485 0.36449536617425904 0 -1 0
502 1 16.57692212197963 18.918819114633244 10.78147102808465 0 0 0
171 1 2.526548759902187 3.1035287236580626 5.716068134492278 0 0 0
290 1 2.481732137596764 1.5130982584166468 7.339234640613766 0 0 0
313 1 0.7362768226964707 3.1410885609848864 7.433440774998214 0 0 0
148 1 0.8512776910589154 1.6637768588392752 5.697460411506223 0 0 0
317 1 4.349883775476749 3.3343579175693656 7.333377657839725 0 0 0
152 1 4.427929693252255 1.5100640309552464 6.057444649640795 0 0 0
156 1 7.5937882755926065 1.3353727238684179 5.595226472889458 0 0 0
175 1 6.062776588463778 3.2675140117620454 5.6795287012576345 0 0 0
294 1 6.032351295282942 1.4011298647713153 7.712914593560551 0 0 0
321 1 7.741224953287835 3.0844350686878115 7.187549043306358 0 0 0
298 1 9.634420874056097 1.0644634638074906 7.312645695452389 0 0 0
160 1 11.163726182721911 1.1726173561732252 5.478684383315954 0 0 0
179 1 9.339978585065568 2.8334774853473723 5.8121792979830555 0 0 0
325 1 11.140368782205979 3.0114866350880187 7.187843648398865 0 0 0
302 1 12.998604808925704 1.5427446644499383 7.330404928781627 0 0 0
183 1 12.826190531155563 3.1739028954397344 5.362532191913373 0 0 0
164 1 14.738941996133319 1.5939038222426243 5.609213923038654 0 0 0
329 1 14.862533559598946 3.253623955253 7.367814062183152 0 0 0
306 1 16.237206891756188 1.2238121133909536 7.624787386876132 0 0 0
187 1 16.443016086127834 3.2643707843030056 5.86067192629028 0 0 0
168 1 18.048437022405878 1.3929321206535312 5.775868386300701 0 0 0
333 1 18.19775149602421 3.27569072542706 7.4028813374678375 0 0 0
191 1 19.560640286703688 3.5184340956619256 5.563975334428888 0 0 0
310 1 19.89808719537971 1.389006360498874 7.341561018684684 0 0 0
170 1 2.1716572702470334 4.897004645896801 3.8843808909001476 0 0 0
195 1 2.4506159003858614 6.563297805748456 5.779237001253159 0 0 0
314 1 2.0870267095311363 4.969356198202204 7.584903831835758 0 0 0
172 1 0.5428253764822805 4.611164395109198 5.542938923870736 0 0 0
337 1 0.4968242708158151 6.8485399548996995 7.436185988972029 0 0 0
176 1 4.018390622004862 4.9556249072037595 6.03131879083281 0 0 0
341 1 4.312917135821043 6.725524775986493 7.43850272160666 0 0 0
200 1 3.8584211426861392 8.4506153587946 5.381463660912572 0 0 0
196 1 0.9530604826495008 8.659798895934617 5.778241466449414 0 0 0
338 1 2.5354295620891674 8.430088318422149 7.471678709383921 0 0 0
180 1 7.421024178883507 5.3124686592269965 5.556271055028209 0 0 0
199 1 5.63768302898761 6.7439778632133525 5.418611072624981 0 0 0
318 1 6.103890551969513 4.956885319257728 7.539694430764161 0 0 0
345 1 7.683052837961092 6.915925469110482 7.4680821684056236 0 0 0
184 1 10.59961990811172 5.025644985173176 5.5995539303121795 0 0 0
203 1 9.022460957908086 6.869241508587573 5.477143701436341 0 0 0
322 1 9.24085164445251 4.877011434690647 7.2386871793414675 0 0 0
349 1 10.914712693608847 6.686572877880549 7.405954862148544 0 0 0
326 1 12.67621629347669 4.768147001856306 7.13064546503974 0 0 0
207 1 12.419420340949735 6.455634164592833 5.531177428685475 0 0 0
188 1 14.922261569152063 4.8658584411629455 5.616089112955519 0 0 0
353 1 14.139386971542745 6.4448499745303165 7.288482515983896 0 0 0
330 1 16.148319523935392 5.1508525903152975 7.740682645291328 0 0 0
211 1 16.177415960442737 6.659058834562788 5.886378274280068 0 0 0
354 1 16.16971719226996 8.293674592506008 7.676098948248497 0 0 0
192 1 17.89004011782396 5.400373472413823 6.1398931729147534 0 0 0
357 1 18.011824624814125 7.018271336255781 7.873684894777921 0 0 0
215 1 19.725589741693966 6.741929115970796 5.985075522846261 0 0 0
334 1 20.40321058458926 4.715438703290696 7.510496822653046 0 0 0
216 1 18.0049031908714 8.34952632080347 5.804781495854975 0 0 0
219 1 2.6807066161054385 10.65477634749862 5.625153290891466 0 0 0
362 1 2.213265191760778 12.182731372585845 7.211521804527181 0 0 0
361 1 0.7941680654823196 10.380211841307203 7.145184747273344 0 0 0
220 1 0.28572912025479724 12.014386105381575 5.592451197552315 0 0 0
224 1 4.413433287844733 12.080762370014092 5.8914105908835035 0 0 0
365 1 4.064736880688663 9.999664101702106 7.463674110519288 0 0 0
342 1 6.0066998992968506 8.517112335772122 7.366496905738149 0 0 0
204 1 7.459684056052103 8.783358436023905 5.565607016252375 0 0 0
223 1 5.861192990587904 10.263601173506792 5.962339935594719 0 0 0
369 1 7.883765592808212 10.105159980748532 7.30221352333354 0 0 0
366 1 6.118418159055679 11.896670710855041 7.419681826312895 0 0 0
228 1 7.619157048200257 12.109678036807468 5.757053141818566 0 0 0
346 1 9.644681909764412 8.557418494084223 7.494849831531363 0 0 0
208 1 10.88065349652117 8.303740709406876 5.222787925205403 0 0 0
227 1 9.391866434908756 10.396286680514466 5.671471618883264 0 0 0
373 1 11.037820079555313 10.434581898555336 7.3531699655805305 0 0 0
370 1 9.39930827694436 12.129869322776386 7.441057104731245 0 0 0
232 1 10.93077427752774 11.903299062758679 5.712696497645412 0 0 0
374 1 13.031468918066064 11.749461727146988 7.429035733959207 0 0 0
350 1 12.535822946042614 8.4252120935286 7.175009107649471 0 0 0
212 1 14.633153310923651 8.32609295965644 5.857616327439667 0 0 0
231 1 12.9420027631444 10.191392086235076 5.744571065633029 0 0 0
377 1 14.415252061059059 9.843752988036425 7.723337669146732 0 0 0
236 1 14.597733719953977 12.354493368614342 5.523137991949364 0 0 0
378 1 16.26838391316488 12.12761470048221 7.33668734752019 0 0 0
235 1 16.19468649426669 10.139968386704346 5.567219001330548 0 0 0
358 1 19.77279963252302 8.73537320777409 7.740766971924645 0 0 0
381 1 18.095157413229305 10.372777844237975 7.81994532628631 0 0 0
239 1 19.68472999942631 10.15831087466461 5.971818230373515 0 0 0
382 1 20.119015199546933 12.154109619537577 7.42938640731988 0 0 0
240 1 18.1494517542483 12.038472833595847 5.792195431190408 0 0 0
243 1 2.44515243199963 13.825569336468448 5.652597155090636 0 0 0
386 1 2.068177928020812 15.747183186438562 7.6300070699320806 0 0 0
244 1 0.4155030547582425 15.593294033148297 5.5173210651737294 0 0 0
385 1 0.4249191250447617 13.973991638248474 7.464936919575539 0 0 0
389 1 3.893777473311807 13.824439768909631 7.4532853145339075 0 0 0
248 1 4.035671966249286 15.62214249464565 5.514207615499994 0 0 0
267 1 2.4346098673258063 16.94857116839387 5.704300316420634 0 0 0
247 1 5.8580015051193275 13.874667122380048 5.798272699214779 0 0 0
393 1 7.694805982430708 13.872610799413875 7.55823703282643 0 0 0
252 1 7.533711129576282 15.529890865351382 5.651199791097987 0 0 0
390 1 5.825004374077953 15.534187420384146 7.562787688106269 0 0 0
271 1 5.781471205565633 17.30094436461796 5.555662034718551 0 0 0
251 1 9.473509867411874 13.79893664593066 5.741435793025529 0 0 0
397 1 11.249624430089137 13.313493515255692 7.457747314047986 0 0 0
256 1 11.52592751304641 15.632851838482285 5.98673457173941 0 0 0
394 1 9.521551947344175 15.206389169022922 7.443551939309569 0 0 0
423 1 12.803609658856766 15.535532470560106 7.567843425731388 0 0 0
398 1 12.636404762621028 13.671843791039763 5.637961839503172 0 0 0
401 1 14.426589736565983 14.0280284400549 7.580995058743699 0 0 0
260 1 15.024909465056329 15.718172263512804 5.658406529758856 0 0 0
402 1 16.194716628129346 15.553628754175769 7.4236825479124215 0 0 0
259 1 16.125193792313947 13.811003007930248 5.579737939781124 0 0 0
283 1 16.609163187691617 17.254806451089173 5.659618387021048 0 0 0
405 1 18.148835312992077 13.93974895909782 7.539549819987656 0 0 0
263 1 19.936247698474034 13.628123482915116 5.616955310923889 0 0 0
264 1 17.97666519352181 15.223272421839779 5.525168185297512 0 0 0
406 1 19.890469226196803 15.624528903041222 7.333747484021761 0 0 0
413 1 4.185988348959689 17.039130409002325 7.532139955544057 0 0 0
289 1 0.7756563584377364 21.107249551367946 7.396119489151387 0 -1 0
147 1 2.4964729598701396 20.89212983100958 5.562870494812439 0 -1 0
410 1 2.5334878323698184 18.986304528879185 7.304190433260522 0 0 0
268 1 0.740188688451374 18.939157827826186 5.457059386947715 0 0 0
409 1 0.6205776158556946 17.440108919606175 7.29136347202491 0 0 0
293 1 4.100632148608397 20.487620067569924 7.468133102016639 0 -1 0
272 1 3.997991523777431 18.884653327798944 5.778111589509702 0 0 0
270 1 5.478510429472442 19.032824106083503 3.937195634185612 0 0 0
417 1 7.635355152423592 17.797559685357783 7.3983357069945335 0 0 0
151 1 5.956598358839995 20.752774313910226 5.641557810095238 0 -1 0
297 1 7.713108919979249 20.618914881898476 7.4107043856975015 0 -1 0
276 1 7.529707304670196 18.873013214257096 5.278636366998794 0 0 0
414 1 5.756046743198577 18.838547984686322 7.1839326497511475 0 0 0
275 1 9.935641621092492 17.40916436764836 5.951167463225273 0 0 0
421 1 11.47575299755393 17.439497534427836 7.6983464653542 0 0 0
155 1 8.992264654548594 21.04594723701571 5.676735337690916 0 -1 0
301 1 11.531101369259408 20.81004636947259 7.4890736153237745 0 -1 0
280 1 11.161606337187473 19.165614130890663 5.349986554699473 0 0 0
418 1 9.613433470875382 19.125491096554182 7.320107161345693 0 0 0
159 1 13.026033813523457 20.77427464599515 5.493580785090738 0 -1 0
422 1 13.163242744108151 19.145468181610454 7.244761109559956 0 0 0
279 1 12.726916482315035 17.49961166362022 5.627902419495747 0 0 0
425 1 14.27714494561048 17.124667013768153 7.258672268133453 0 0 0
163 1 16.56944932940308 20.60082341681699 5.793020104475701 0 -1 0
305 1 14.76685768902302 20.771790246580835 7.20363115454299 0 -1 0
284 1 14.889296900008796 18.92911632709706 5.440034608965366 0 0 0
426 1 16.491316874260104 19.040589571364876 7.300048950492701 0 0 0
287 1 20.02519356388366 17.2410252977881 5.682024137175856 0 0 0
429 1 18.196322943522503 17.240821484751677 7.3906339565977035 0 0 0
309 1 18.40488322712859 20.705888196806253 7.252431987931272 0 -1 0
167 1 19.696961582185512 20.816206773009764 5.516259587734738 0 -1 0
288 1 18.33458907697786 18.876116670545414 5.76605083254263 0 0 0
430 1 19.930746041082887 19.1549738940006 7.456431967770224 0 0 0
315 1 2.2810964994129774 3.0395106182542952 8.926768564650269 0 0 0
434 1 2.042505742328161 1.702200205709489 10.74399887271832 0 0 0
292 1 0.41854282408274257 1.2887864890712206 9.183064081984988 0 0 0
445 1 0.5620003970097701 3.278618395109825 11.261239231430277 0 0 0
296 1 4.031538912515877 1.4114643001423863 8.722390468505496 0 0 0
299 1 11.691262117203022 19.454225912608358 9.294737787191249 0 -1 0
447 1 4.188973042453222 2.917551855937281 10.642014501569085 0 0 0
300 1 7.840913990106765 1.0385432196070976 9.168224477564719 0 0 0
319 1 6.206584871939208 3.273788730743407 9.131829128013967 0 0 0
436 1 5.955376722224066 1.5552936201777547 11.118741152063501 0 0 0
449 1 8.03958088225216 2.851536396019692 10.780837285866328 0 0 0
441 1 14.976241438117375 20.680243756536047 11.027618747204501 0 -1 0
323 1 9.154712740682527 2.8069628240511704 8.8981738738532 0 0 0
438 1 9.744576949691995 1.1170850021885275 10.849679082380396 0 0 0
451 1 11.37617126115301 3.439905302418123 10.995476876670597 0 0 0
440 1 11.211685096434255 1.5882477468957272 9.278126653009764 0 0 0
514 1 13.156503070794415 1.2758590665258476 10.9940986424096 0 0 0
327 1 12.79092827963457 3.1375523565662835 9.345242299869097 0 0 0
308 1 14.723082093414707 1.771882084585586 9.144804355371468 0 0 0
453 1 14.741506650722577 3.630384289437206 11.062890911496536 0 0 0
331 1 16.541268248038516 3.5480086693678334 9.3037589890097 0 0 0
442 1 16.546101663309706 1.536257408925774 10.849386737007398 0 0 0
312 1 17.94880637367494 1.3243436704525988 9.123898997067943 0 0 0
455 1 18.119601838101012 3.269081360307638 11.049730735644706 0 0 0
335 1 19.73392460790669 2.9632808921621057 9.298264395040828 0 0 0
444 1 20.285224174068407 1.4643733773201353 11.084712845779931 0 0 0
428 1 14.48690868009109 19.027005196239166 9.140072478281581 0 0 0
316 1 0.4742017813527271 4.689599250583056 9.31955623854471 0 0 0
339 1 2.109251366571185 6.6234579939557445 9.112535214867856 0 0 0
446 1 2.2714952990234 4.863372379870453 11.026977174767861 0 0 0
457 1 0.8343504430332475 6.909549199034856 10.677239368928548 0 0 0
459 1 3.768839703016542 6.404061244761194 11.031996647219684 0 0 0
344 1 4.076405443271009 8.266240899698124 9.537222368295465 0 0 0
340 1 0.7321930390191314 8.468739669271477 9.132315738949575 0 0 0
320 1 4.444361865388108 4.953846488613094 9.011404596151495 0 0 0
324 1 7.951044450833873 4.988663099905154 9.644893338552027 0 0 0
343 1 6.138736226076224 6.907594125751051 9.037201445100742 0 0 0
448 1 6.06178067167209 5.107364053666939 10.94785818268116 0 0 0
461 1 7.8374555257506975 6.847843539522269 10.735873065002929 0 0 0
348 1 7.965825863203248 8.600853168073446 9.14096651057622 0 0 0
450 1 9.659351946732645 4.749208649249575 11.067848282080018 0 0 0
328 1 11.192907241377997 4.692825822383984 8.966676356269364 0 0 0
347 1 9.643707702654908 6.57332887142517 9.236213412875214 0 0 0
463 1 11.335442502035711 6.610336479039769 11.07865415736282 0 0 0
352 1 10.991560607539627 8.355702007338651 9.383497911170778 0 0 0
462 1 9.301120939955299 8.229727661133145 10.961361531069304 0 0 0
452 1 12.822244333298835 5.069828091326983 11.171223153416722 0 0 0
351 1 12.95984238436499 6.911315325184016 8.994983508556624 0 0 0
332 1 14.493638339943303 5.130579082396644 9.401055271198201 0 0 0
465 1 14.570305015596347 6.970168160462428 11.249230690100969 0 0 0
355 1 16.33234592811196 6.551752807168149 9.843584871645174 0 0 0
454 1 16.51944502542874 4.949323669044823 11.341426918149107 0 0 0
356 1 14.688711435463457 8.066920263291804 9.167427526803744 0 0 0
359 1 20.142511249434317 6.8385520836656 9.376644215185909 0 0 0
336 1 18.30739637539671 4.950258356472551 9.008890334390452 0 0 0
467 1 18.58370137775432 6.642824918390968 11.1638441193384 0 0 0
456 1 19.998969282609757 4.638499802306905 10.983537499148179 0 0 0
427 1 16.23773362338594 17.344952360826973 9.015290228155353 0 0 0
458 1 2.369907251284189 8.814309315260484 11.08726368605396 0 0 0
363 1 2.475796158398068 10.0530644341316 8.992730466017218 0 0 0
470 1 2.2395278920090558 11.738852540508319 10.549232961294292 0 0 0
469 1 0.40699729656936534 10.120268497620076 10.653601410771584 0 0 0
364 1 0.5905241609299585 11.957643074920204 9.272850071349652 0 0 0
368 1 4.013292224902108 11.748209875595025 8.75823762319102 0 0 0
471 1 4.360318232831906 10.312600258332946 10.567807919815074 0 0 0
460 1 5.712860722169052 8.585289861797452 10.847208305710293 0 0 0
367 1 6.008823155917431 10.313675977603523 8.943223402182124 0 0 0
473 1 7.560523203919621 10.5301819243376 10.68623182857881 0 0 0
372 1 7.760786311505869 11.969315867982203 8.993892008102074 0 0 0
472 1 5.793634515462237 12.012449342040659 10.95496063309903 0 0 0
371 1 9.484937269201252 10.51227015092895 8.93853602932717 0 0 0
475 1 10.865791766444335 10.496191335273492 10.859646279156136 0 0 0
376 1 11.286205122146171 12.172028052729889 9.231104975472952 0 0 0
474 1 9.139044289631597 12.175201622818673 11.05836396910968 0 0 0
464 1 12.964917073900521 8.53811791828407 10.979535275628619 0 0 0
466 1 16.436578782265858 8.805178308233085 11.047492221898029 0 0 0
476 1 12.912872920350024 12.003739031541064 10.649518025957322 0 0 0
375 1 12.600781544034298 10.043062828813527 9.147404886745283 0 0 0
477 1 14.476290119119113 10.27345163078407 10.646070857134864 0 0 0
379 1 16.143952509387454 10.565656517433062 9.251899502237974 0 0 0
478 1 16.646499907657518 12.105675869754963 11.137972782225106 0 0 0
380 1 14.638084822213406 12.465246356473052 9.025571017020633 0 0 0
501 1 14.932676439797033 17.11280841312744 10.819344484561478 0 0 0
468 1 20.05544124885383 8.548130178670082 11.07163808172381 0 0 0
360 1 18.367228767013454 8.664105864837131 9.74118623379695 0 0 0
384 1 18.406334292397297 12.044650680867502 9.432467131192222 0 0 0
383 1 20.13216093278432 10.38182269807774 9.227153090232026 0 0 0
479 1 18.038660515464368 10.577775663636979 10.897499153796334 0 0 0
480 1 20.07927230575645 12.243647146901496 11.030095752408801 0 0 0