LAMMPS data file via write_data, version 29 Oct 2020, timestep = 300000

2048 atoms
1 atom types

-0.03913886733352534 28.39113886732933 xlo xhi
-0.03913886733352534 28.39113886732933 ylo yhi
-0.03913886733352534 28.39113886732933 zlo zhi

Masses

1 58.933

Atoms # atomic

169 1 2.579271747052216 2.340061717691542 2.128583069705761 0 -1 2
49 1 0.5756655433473117 4.042468000064451 2.1483780486441684 -1 1 -2
825 1 1.7501575930621152 3.5706118567257676 4.035590304877547 2 -1 -1
257 1 2.6588374393206635 1.0566302131052772 4.113983379541818 0 2 -2
1615 1 0.7771749656668054 2.396114439986423 0.26069345385842657 0 0 1
1785 1 12.786299631930133 3.065851477431208 0.8053512915557598 1 1 1
1817 1 27.90005471690938 2.7226191481387625 4.374063668132629 -1 2 2
58 1 27.184793933243895 11.377170969559161 13.614385242919113 2 0 1
951 1 5.116936678837025 0.32009359553991756 1.2632982445478325 -1 1 2
1283 1 7.536090366736086 1.9373944502672267 1.2140640904395918 -1 -2 -2
1272 1 4.853201201094996 2.551013747044469 1.368755706934914 0 2 -1
400 1 4.24228450486663 3.5424480169036108 3.862580883969722 2 -2 -1
1166 1 25.734060493209384 0.2365592330685241 0.409463696739749 0 1 -1
714 1 6.530488964588572 4.0579420966239965 3.4182875413766665 3 2 1
689 1 4.812999049926779 1.0309443514368517 3.5251004242162574 -1 -3 3
432 1 2.9445298548660803 4.014446032898845 13.181361140448615 1 1 0
1511 1 21.35431239803313 11.626798864871207 1.198050623295251 -3 -1 -3
1774 1 9.009765111565805 4.059615301928984 0.7063165347534789 0 -2 -1
553 1 4.609842016087873 13.806690406188764 1.0543806437829961 0 -1 1
1348 1 8.769840289175452 2.653969528744538 3.1539487351155207 0 0 2
2042 1 10.675103562005988 2.62155351980243 1.4648672451104077 0 2 1
1180 1 10.564734574525474 3.9086507858270307 4.172524867360698 0 2 1
291 1 11.520664055660935 1.6096657331438462 3.535400827117329 1 0 2
1027 1 8.295266763003754 1.8940499356204927 5.597883539452222 -1 2 2
1265 1 14.775563831823735 2.778658517100563 1.6429190632106312 0 0 0
1858 1 13.974764117463575 1.952362800721629 3.7953999585124394 -1 -1 2
1684 1 15.248056864701125 0.04926341145996402 1.0682817635258564 0 0 0
966 1 5.311316360249108 0.182167159703314 13.176430088771895 0 0 -1
605 1 15.901506018640829 1.322409970991265 3.0502725240120325 1 0 -1
1346 1 16.285240542275567 2.0877176108740962 0.24905524438727122 -1 1 -1
680 1 13.064330932660658 0.7619379786859828 1.3686472347418277 0 0 1
984 1 15.858412664170462 9.215063770039158 0.6263412426533141 2 0 3
985 1 19.01317197820024 4.438931316045421 1.0802541679588615 0 1 3
1650 1 19.250503870875242 3.8932941304698665 3.335427919120083 2 0 1
1259 1 18.129515073985687 1.573099160029771 1.8664734428851097 0 2 0
53 1 22.41774701595282 11.045664328448446 13.188551081205137 0 2 -4
586 1 20.312856107436204 0.45450243722492356 1.3547885212705282 -2 2 -2
562 1 19.329610680090546 0.9804039165747214 3.8184053658908614 -1 -3 -2
488 1 3.016786442702422 3.5866870210705675 0.25884768283747467 0 0 0
247 1 10.789930681136763 3.9722024920951284 13.395131559771656 -1 1 -2
527 1 20.603591220331666 3.0271682381409604 1.656429893700161 0 -1 0
1130 1 22.217552431388114 1.648491230884668 2.0715504371259623 0 2 0
700 1 7.514239855881886 0.6934542729814149 3.185610892191696 0 -2 2
1129 1 23.019900681978044 3.9419390334966593 2.7732277364647047 -2 1 0
1349 1 23.067907392927843 2.89537758187477 0.32388354866213326 2 2 0
1047 1 21.355970210741233 2.5373352666094418 3.8533490398851393 -2 0 -2
1135 1 0.40172169762983645 1.4650473199524199 2.6227672185358926 1 2 -1
1119 1 24.80801082053005 1.7046865037561185 2.0426131932915634 -2 2 0
1352 1 23.53821945352164 2.2266897948564424 4.117871873583721 1 0 -1
98 1 16.52122091023419 14.014014360231378 3.002536466562344 -2 -1 -1
1573 1 26.98322889410543 2.6629610585025625 1.976052685671466 -2 -1 1
1391 1 12.179689610615476 0.2715814308197104 7.540307512732563 0 0 1
1202 1 25.092110833559587 4.068945223977756 1.7078147062581006 1 1 -1
622 1 26.96691665249908 13.954079592762094 0.15352120452396922 -1 -1 2
1171 1 27.244927222414383 4.593283415224845 0.6224987073429659 -1 -1 -2
595 1 26.34848704985174 0.618606503031469 3.40864139976907 -2 -2 1
428 1 3.06293768375795 4.667710716534065 2.2067997575397498 0 -1 -1
1635 1 1.2317462691429886 5.576019431469952 0.36764203185431776 -1 0 1
62 1 3.304314626908627 6.534996982291781 0.9243737252356398 2 -1 -3
1293 1 1.4694781408331814 8.058372026839994 1.1205821672707967 0 -1 2
299 1 3.10893238313207 7.465690439511697 2.890612769085341 1 2 0
1351 1 3.6155942567392643 9.121836339945018 1.1098757029303092 1 0 0
57 1 1.2709250586095966 6.130665218266941 2.879655847400456 -1 1 -3
1829 1 1.9324756471518563 9.237779355242937 4.528809005293393 -1 1 0
1355 1 28.19090658319366 5.025810123386607 4.675983494087631 2 -1 0
1733 1 0.25745112885801336 8.474719799397429 3.0859983528214725 0 3 3
84 1 5.563662159030391 6.039915323070975 4.6336152200262894 -1 1 -2
556 1 6.65004717017556 4.728174980604984 1.227729385300896 0 -1 1
425 1 5.071408022931878 5.822144044186977 2.6000111789719274 3 -2 0
46 1 7.71526658211668 6.383553968550319 4.9399417997634085 -1 0 -1
342 1 7.392305113739328 6.6237977630704705 2.4996965327925253 -1 1 1
109 1 5.634064859363202 7.6619864806133355 0.6880781345972944 1 0 0
359 1 7.730106057223087 8.740077162990008 1.3978757174443794 0 2 -1
1118 1 7.539236613437814 8.708889069864668 4.805550693671905 2 -2 -1
1810 1 5.69137970146033 8.239057639751996 3.0291372620831627 1 -3 -1
557 1 3.3630489217615924 1.1639993210136896 0.04063883637192506 0 0 3
1406 1 8.763783256892747 5.140792209766706 3.046130586551664 0 2 1
1987 1 11.457562949647352 4.960674709518375 1.3293508531474776 -1 1 -1
755 1 11.67601935256814 7.058895999286931 0.9119692166958075 0 1 1
446 1 9.337519148600895 6.595219283075794 1.1738109149592815 0 -1 2
822 1 11.321567868962546 6.121890884727913 3.2733346683363567 -1 0 2
497 1 9.355323249339826 7.499866533527811 3.2912915903485267 2 1 -1
803 1 10.197871942167527 9.073861393200032 1.293531877438145 0 2 0
660 1 11.651537319788925 8.501295332064382 3.0481607211578514 -2 0 0
1318 1 12.856249831312946 3.768880689339735 2.9149717533353448 1 1 2
364 1 18.462888229541583 6.308751354246657 0.2507449342043777 1 -1 1
1247 1 13.364498606879641 9.020075498165486 1.5099047224019184 1 -2 2
1811 1 13.700718688150445 6.538797755791185 2.4568994626984777 0 1 3
1371 1 13.637929623613983 8.135162329267995 3.938017141919102 1 -2 -1
99 1 16.421302269054642 6.103135648822163 2.5209613393486636 -1 -2 -1
129 1 14.970472158826675 4.321910062429574 3.586881577494377 -1 0 0
1594 1 15.601959229929257 9.368447523775496 4.815978808032737 0 -1 -1
1791 1 14.890058832900623 5.337398438574153 1.0181202774299078 0 2 2
899 1 17.023441199113613 3.655963657124491 2.0276085288788908 -2 -1 0
216 1 18.303124611188665 8.08304713918749 1.7794073327216824 0 -1 0
540 1 17.208216549262495 7.578626586739473 4.201156233543361 0 -1 0
71 1 18.739818622290343 6.138450242630311 2.8301789570168743 -1 -1 -2
1434 1 19.975944686914715 8.004623449683555 0.3982526210443737 -2 0 0
596 1 20.099373968910733 5.538506650277532 5.056179954678275 2 1 2
2007 1 19.77680095178674 9.719183057090813 2.508369127370542 0 0 1
91 1 21.199936182286322 5.411917397132804 2.1747542668595896 1 0 1
591 1 22.979289376654442 5.0482620993903025 0.7283033532152224 0 0 1
1459 1 21.988411019224905 6.255808635028031 4.126407081451163 -1 0 2
32 1 20.812830994280652 7.628974393337586 2.625848403438728 0 0 0
1708 1 23.275331887327425 7.441313048184554 2.3336154202726473 -1 2 0
261 1 19.764882475741658 7.819464018726696 4.6239782144226975 1 0 2
1213 1 21.950049105688073 9.131845192515966 4.141221737892031 -2 -2 0
534 1 22.23273648123378 7.302375825552727 0.393210689748136 0 1 1
1137 1 24.659600034105765 8.529061485847825 0.49184300044762097 -2 0 1
1657 1 26.7637774404024 5.227818141589005 2.874972104909714 2 0 1
495 1 27.459941115855223 7.039327975882759 4.327603097694534 0 -1 -2
1117 1 27.622089960211433 6.824817959996428 1.2778145531248142 0 -2 -2
471 1 24.450578286160706 5.639490281221544 3.198171185661134 0 1 1
194 1 26.044945503496002 7.856063232407407 2.7866748343817105 -1 2 0
880 1 25.327880230312395 6.350693309334138 0.7899313450562715 -2 -1 0
2016 1 5.663208523096595 11.009435002477572 13.624480428807454 1 0 0
1702 1 2.391081499980033 13.38652968265727 1.0402956025982428 -1 1 2
1188 1 1.9249819326910935 10.144886050728095 2.4445316324987947 -1 1 0
790 1 2.8279116530063124 11.73231558572011 4.175590934150962 1 0 2
549 1 1.2017859678203344 12.22035034978762 2.7016008785653427 0 -1 1
1539 1 0.40557855767343887 12.382279822030672 0.25860157977763515 -1 -1 1
339 1 3.9391554241834736 11.98236100821854 2.2671849739685803 -3 0 2
1291 1 0.205719354157847 10.227406904443262 1.2177929361010884 -2 -1 1
20 1 0.9537583692013227 12.973220261019113 5.308911287535795 0 1 -2
1496 1 2.6634764717570407 11.159193671397274 0.37693439250992633 1 0 1
1187 1 6.532978112138753 10.317854480042989 3.4632681066645805 1 0 2
1288 1 24.97351681337409 14.050045472238446 13.092471806837196 0 2 -1
1333 1 4.184417215756532 9.711962117538103 3.5308290791766934 -1 0 -1
1945 1 5.818476620521757 10.017116275307703 1.2186041271672627 0 2 0
1493 1 6.30233615337932 12.356549078188248 2.4256542083133574 -1 0 2
923 1 6.467147544095158 13.195028151912476 0.2509071865571708 0 0 1
1070 1 8.39641394351091 11.71610902824786 3.6400831269017115 0 2 1
45 1 9.544535320746496 9.925180880425279 3.342380090693922 -1 -1 0
159 1 11.598505274540374 13.598255970550687 2.3623847515623324 0 1 0
1796 1 7.993510247078332 11.003810079851993 1.4670613382451907 -1 1 -1
1479 1 20.331622356339693 0.11755074168953095 7.405608928700285 0 0 2
1448 1 10.390410094773442 11.626674941230307 1.5523432142075628 0 -1 -1
603 1 9.568159605742053 13.485066303077373 3.58693309583372 -1 1 0
1126 1 9.423029600134834 10.592584165074436 5.590923276121748 0 0 1
1934 1 11.42428274068707 11.047857204816852 3.6266073382490784 2 -2 0
479 1 14.203750067852804 7.453637449779915 0.23182855757225956 -2 2 1
1225 1 8.817990707155158 0.9582566526459945 10.41801862071261 1 0 -1
1952 1 12.713578958032251 11.295018622016425 1.6647787233588216 1 -3 0
913 1 14.841235192150355 11.077425506400205 0.7525320448138791 0 -2 0
568 1 13.70485756295384 10.378532049099626 3.338676404557297 1 0 0
362 1 15.772480130494197 8.271660315268193 2.7274356248772134 0 -1 -1
338 1 12.852389918721432 12.752790459193815 4.2860849410462665 1 1 0
582 1 18.065511300506422 10.240830965921802 1.118061024930083 -1 -1 -1
839 1 15.790694595228182 11.767842131262325 4.738445656162951 1 2 0
515 1 16.277937959745238 10.651391689293192 2.641389420789643 0 0 0
2040 1 17.877947939227163 9.781153686105135 3.9499008038242516 2 2 0
92 1 16.929968988396766 12.581411450707217 1.1824488241440734 0 -1 1
1388 1 17.9352981933436 12.055437969843513 3.7572827956980754 2 1 0
1632 1 17.25737545130645 13.944446799362451 13.824254761368959 1 3 2
1561 1 8.715274800307213 13.526660848765134 1.4716516537278423 -1 -2 1
9 1 22.643405315492593 13.435382012885489 11.97409107618754 2 0 -1
1659 1 20.043682252121258 10.431697501462143 4.5376625016506775 1 1 0
1050 1 19.261093294588676 12.202365003447845 2.0595986488598355 -1 0 0
1428 1 22.229815742515058 9.416356596198513 1.7396604692621502 -1 0 1
326 1 22.876909481037764 12.905543468223481 2.2678666654196333 0 -1 -3
1759 1 20.52660815066666 12.626670071551137 3.7989543850295138 4 -1 0
1295 1 22.533968517986708 11.19036398540702 3.569319076330381 2 0 0
1401 1 26.249924186286464 9.337752358470846 5.168865950367029 0 0 0
394 1 -0.028581073761742667 11.01024007143293 4.325028837104838 -1 -1 -1
650 1 24.252657514688174 9.382197457070701 3.1554185329363555 0 -2 1
1414 1 24.96354916942856 13.270530055373273 1.4422051578907762 -1 0 0
1185 1 24.80062101217439 11.966340616846235 3.244304482011061 0 2 -1
483 1 27.034023622125922 12.776268470853665 2.350787596773747 0 1 -1
1515 1 26.64812018579613 10.295986825225524 2.8789816387886877 0 1 0
621 1 24.79869247108904 10.508363484553392 1.2101138378402727 -2 1 0
1240 1 26.619911592475823 12.804831166967976 4.782606363294229 -1 0 0
1737 1 1.2974295822821962 2.01811184727812 5.900344050984707 1 -1 0
1723 1 16.41767697874431 7.027916548153385 0.15812383106539557 -3 -1 0
1905 1 0.3656969191876107 2.8986925044098104 8.102296125280983 0 1 2
2025 1 2.8294964688092965 2.709558629149206 7.920133679067459 -3 0 1
805 1 3.737820951997277 1.9025862259955302 6.056260195435457 0 -1 0
180 1 0.648630995610356 0.59147914784361 7.967838553653305 -1 1 -1
319 1 20.657548412028532 1.5351557661579305 13.954882574519823 -1 1 0
748 1 5.049927552772156 3.3929679059088844 7.678134379944797 0 1 0
539 1 5.979937994131983 2.356940374445579 5.194731155195697 3 -1 -1
1850 1 5.263380004161484 0.9890172976876859 7.37743044934672 0 -1 0
589 1 6.248510510399777 4.649956670550026 6.255593340177225 1 2 -1
1099 1 3.3727918586217647 4.320750741165174 6.030333694322556 -1 2 1
1470 1 8.73983814264899 4.263546440165809 9.182611258423018 -1 1 0
504 1 7.97481116007028 0.4399286353678308 7.283377204370242 0 1 0
1409 1 17.322528133995647 4.741502779411984 13.321058026709213 0 0 -2
545 1 7.557138169658726 2.915887555224206 7.393931654269231 1 1 0
430 1 8.16073497548719 3.9471383633688597 4.941760076186252 -1 1 -1
183 1 9.983823853207275 3.2890617463665768 6.54763280303495 3 -2 0
1320 1 10.25694392042442 0.6823828065873808 6.364312152826972 0 0 0
1753 1 9.450213272570183 1.708319769877561 8.389700951279998 3 2 -1
221 1 13.468275102580646 3.7787771663948724 8.925716251387076 -1 0 2
1977 1 11.135154487630622 0.5018498783021463 9.737926057696853 2 1 1
1869 1 11.101242907264734 4.236796456562903 8.940156999491732 1 0 2
1157 1 0.30944172984757146 12.886338520774713 12.58250329964233 1 0 0
718 1 15.627760435129696 2.5860187488253192 5.582321478388798 2 -2 0
440 1 11.972830410717288 2.4813994732096205 5.493460294119862 -1 1 2
393 1 11.822193217437471 2.634809573199105 7.824381430933289 0 -1 1
1946 1 27.07387165688241 5.343817453909325 13.843342800951312 2 1 0
1794 1 13.793786024440463 1.5601682442994855 6.126395395699596 -1 0 0
371 1 13.744413729256067 3.8856541585180064 6.705880077493189 1 2 1
1454 1 15.7706744809881 3.03476166522188 7.947151090229886 0 4 0
1897 1 13.97477713208123 1.681052650680909 8.510288981730456 0 0 -1
1521 1 16.212237431774845 0.45865892930666113 5.055458910397973 0 1 0
877 1 17.173085525947258 2.832760043173235 4.177505340444617 1 1 0
520 1 19.67105875527092 2.546136434585117 7.651763889699755 0 0 -1
1152 1 17.596603396759548 3.7930377511990185 6.957031626266518 -1 2 0
308 1 19.69805614422031 4.996013806467932 7.334519388780657 2 -2 0
1429 1 18.083228495673723 1.1021471763751072 6.099000190885467 -2 1 -1
1354 1 17.848508533418958 1.648476697009785 8.477308466625434 0 2 -4
796 1 19.280664995828367 3.0552874425912253 5.362140997043529 0 2 1
756 1 21.649078296349906 0.08771885122525933 3.5329382238601634 1 0 0
1910 1 23.150984956554858 0.5881552395712406 5.670158481304783 -2 0 0
465 1 21.74500906146465 3.370661874159266 8.232249518440897 -1 0 0
528 1 23.268106577084104 2.723738093372628 6.398341486430123 0 1 0
1509 1 22.49433729126887 1.2228121974405952 8.056672636421974 -1 1 0
1556 1 21.161971592947516 1.4734855263651467 5.922422373423838 1 1 -1
431 1 24.353974290097675 2.936098929557622 8.772382966026077 -2 2 0
188 1 23.446304687381392 4.740984682139296 5.2452478621526115 -1 1 2
1927 1 25.39549415681814 3.2675338219427346 3.92492729706633 -2 3 0
1445 1 24.88076067919691 1.0554092950412137 7.487297685674509 1 1 1
633 1 27.228287565472712 2.0923168951574724 6.773336431326179 -2 1 1
1308 1 27.285191131386384 4.630592528404352 6.874298788926681 -1 0 2
1586 1 26.591304899624603 3.493118750206109 8.71614836807834 1 0 -1
617 1 25.366914727673937 3.334673491380607 6.181558213678996 1 2 -1
1041 1 25.545845016833226 1.1115125218373392 5.336130821832464 0 -3 0
1221 1 1.2151279213136528 4.4711177086915255 6.261118263951215 -1 3 0
516 1 3.10496490086051 5.666648844699868 4.275050736368834 -2 -1 0
1314 1 3.704369738531694 4.890345197379256 8.73394261239908 1 1 0
1018 1 1.4958194455455933 6.925379918579843 5.279059088876535 0 0 2
324 1 2.6698098005362243 6.473461404313131 7.36641915788334 -1 0 2
597 1 2.0336504917222213 8.768363837854798 6.658303547575643 3 -1 -1
1895 1 3.277764129257913 6.703711692122617 9.892686236167858 0 -1 2
892 1 3.798138490308523 7.852356683123254 5.255317916658377 0 1 0
626 1 4.648882523073126 6.2836392647029236 6.927167756256765 1 2 0
1734 1 6.333159920124772 5.078640143744761 8.471686527834292 2 1 2
1866 1 5.432842571671416 9.58719184586853 5.5614007084773105 2 2 -1
1263 1 5.449197383067308 7.218286942516662 9.300152099760577 -1 0 0
687 1 6.427851268495825 7.752988526972243 7.062097603890525 -1 -1 1
478 1 8.508320909930605 7.727199262910714 6.583604739202672 -1 1 2
1246 1 6.990768656936367 9.196966477698563 9.204503445822251 -2 3 0
668 1 10.003265410004245 5.8751816471699545 5.386237503927353 0 1 0
1663 1 12.328074928711438 6.15428516569406 9.007765006101248 1 2 -1
205 1 8.5701202318027 5.298325397726271 7.083460971065977 -2 0 0
579 1 10.260359646031327 8.424990151349487 5.305202115982782 -2 1 1
1455 1 11.738113412999152 5.033043363565239 6.895249501024232 0 -1 -1
1831 1 10.232682232507878 6.730146728302381 7.838154767693682 0 2 0
1761 1 11.767414116591045 8.465846594794122 7.434146410667577 0 1 -1
206 1 9.431971677488455 9.229708759232128 7.839497523506901 -1 3 -1
11 1 12.015506053787023 7.165504610660507 5.383133882938336 -2 2 0
1510 1 7.453108597394302 9.943202859766226 6.987110858988234 -1 0 0
525 1 13.055699540739663 5.096273105605733 4.860709113904268 2 2 0
370 1 15.137693398115248 6.523497254820887 4.577155135646129 1 0 0
917 1 13.791597375213858 6.3107943857972995 6.873830323772456 -1 1 1
441 1 15.681694338308102 4.892729048811954 6.270253113286806 -1 -1 -1
354 1 15.099375959810992 5.574553971201609 9.067046302618374 -2 2 -1
136 1 15.384530910923884 8.140039488077505 8.59725196160218 1 0 5
34 1 13.116316347525753 9.00986824336064 8.951702918508428 -2 0 -1
780 1 14.039820649849146 8.54382442305023 6.208454529893965 -1 0 -1
132 1 18.417499853437945 6.716634783447031 6.129169256282614 1 -1 0
801 1 17.82797499552762 4.840832643007914 5.037009189547818 -1 0 0
1473 1 18.564729599467377 9.028980122318575 6.215786124312307 -3 -1 -1
1782 1 16.740292699189027 7.170379983821737 10.145005659610646 1 2 -1
120 1 17.176905080682566 5.662620817449068 8.187062522930862 1 -1 0
699 1 16.28487548035026 7.231261506643309 6.625026876056334 2 0 0
1695 1 19.747621063025186 7.2528672404186425 7.972773031150979 1 2 1
543 1 21.73513743035344 5.729365485706701 7.176913726245396 -1 0 -1
182 1 24.222295572730793 7.597794384294438 4.657141599496669 2 -2 -1
363 1 21.388257397860308 3.827913346233204 5.87409976179941 1 1 0
152 1 21.38102946899327 7.657064340259227 5.996192545673875 -2 -3 -1
113 1 24.328645656815127 6.991937886885743 8.645571985274694 0 1 -1
186 1 22.044132086079436 7.922938684662892 8.739361952110293 -1 -1 0
615 1 23.568154087412744 6.714169493150389 6.560373392455462 -2 2 1
16 1 28.22907134344326 6.464272212409272 6.489759542245608 -1 1 -2
296 1 24.120177523273384 9.063316716389444 6.5965768932144995 -2 -1 1
1456 1 25.926158926264037 7.797681990944401 6.746340584322308 -1 -1 1
866 1 24.78283887746253 5.067241758478298 7.515211015408818 -2 0 2
1770 1 28.260225422684876 8.760296305081503 7.531093988395855 -2 1 4
911 1 25.874417301774812 5.661611197140401 5.205760731789255 2 -3 1
402 1 26.441732947320695 8.160255775240202 9.015012004020624 -1 0 0
1033 1 26.720253327171974 6.062666432008212 8.387129321261723 0 1 1
655 1 28.32615215003252 8.775282338913993 5.423434075418014 -2 -1 -1
1913 1 25.955894657000968 9.545775976601256 12.478992728484087 0 -2 2
274 1 1.7267964942057432 13.092487234312644 7.592014943619859 2 -1 0
775 1 3.2901779112637466 13.200647555718149 6.034416526663077 1 0 1
1954 1 2.867206065032465 10.585966133042108 8.264726358314354 -2 -1 0
1714 1 3.480273226197686 10.59301353138312 6.065322085647848 1 2 -1
1275 1 1.0971105523797124 10.846203537839314 6.368874476750146 0 0 0
919 1 0.49764803429882576 9.980570949274078 9.38079610950427 1 -1 -1
613 1 1.4745540471053156 12.239103717876882 10.141397503097656 -1 -1 0
93 1 24.371901303833383 0.4530646349383844 9.589005481905374 -2 1 0
855 1 5.407839931601904 13.466977053686144 6.376136469442949 2 -1 0
1660 1 4.405916323057631 12.54414044513922 8.03048181120354 1 0 3
1128 1 4.21342745611726 8.528953216952269 7.410186892472563 2 1 0
1638 1 13.583935123181998 0.09760379546038409 10.534419904545931 0 1 0
1085 1 4.972020868193189 12.04275970371431 4.533184853755094 0 1 1
1997 1 6.886515782664261 13.52079388052988 4.69135721569971 -1 0 0
845 1 7.015354038973041 11.449483761591633 5.598348373144034 -2 -1 1
962 1 5.361037076699781 10.479806407820588 7.584416917891288 -1 -2 2
1696 1 6.22205284335882 13.737593565041808 9.081064838265146 -1 0 1
1840 1 5.9429880689261525 11.642292340220427 9.57348400963873 -3 1 -1
776 1 12.059141506538099 9.692759346843465 5.4302139485995715 0 -3 1
1410 1 7.106653017982615 12.199348266947187 7.666798518456634 2 0 1
988 1 8.792959668787983 12.821629932309344 5.880450236019216 1 0 2
450 1 11.188365770296409 12.303103478221438 5.7905335419037085 1 -2 -3
1505 1 9.466417311034627 11.63419644068181 7.7221637076219745 2 2 0
1519 1 11.221146634811037 13.216528098794939 8.158995360671314 -1 0 1
377 1 8.552178640324051 13.420224551748793 9.180528544286618 -1 -1 2
1104 1 13.79605603906227 11.11585063048934 5.6704203528065955 3 0 2
1142 1 14.606600018890038 13.852070781617298 5.35356096303924 0 2 1
1074 1 14.622960595077139 10.855749791441204 8.533014345156115 0 2 1
1484 1 12.232455352438858 10.83336696943819 7.469536512931153 0 0 1
1722 1 13.279342952447161 12.950176727775306 7.605739709891917 2 -1 1
758 1 15.62688251954083 12.396093415061568 7.181712995410887 -2 3 -1
154 1 14.825148991580809 13.335387803791903 9.462214553895 3 1 1
1296 1 12.97187373838892 11.651220807551487 9.821727643825053 -3 3 -1
1356 1 22.067199412214315 0.12099507155287331 11.419705275893334 -1 0 0
1709 1 16.33103752682087 10.16371222777748 6.621922864750916 0 0 2
593 1 16.973209483686638 13.898047360358804 5.532537561683283 -2 -1 3
1279 1 17.984969815279257 10.567918478905153 8.126470233676153 2 -1 0
947 1 17.768824677272022 8.343181468799031 8.387782394930074 1 1 0
1552 1 19.27019179697904 13.789172588314417 5.300607776860846 0 1 0
1032 1 18.370614053129017 11.640424040882449 6.081301139004589 -1 2 -1
1758 1 17.999119353358978 12.815710001725066 8.084748243109214 0 2 2
195 1 19.99223189800079 11.87522873046286 8.742481512141367 -1 4 0
1691 1 19.778962695352725 13.83784142944672 7.471452967591462 0 2 -1
1069 1 20.711723963499367 9.921525768795442 7.2280541422131455 -1 2 0
631 1 23.13942810614502 12.853644535582188 5.685029016874505 3 1 1
315 1 22.51048977303352 10.514746692815327 5.7300310230550435 1 1 0
96 1 23.80509565030622 11.469801669156308 7.716878463873303 0 0 2
78 1 21.022785515126806 12.283418013490312 6.326810243217468 0 -1 0
843 1 22.262233167135307 13.48873785826224 8.160097064071202 -2 -2 2
494 1 27.4121634812022 13.575314209722187 7.062679413794021 0 1 1
1918 1 26.100915818629105 10.086696763288025 7.776264153658331 -2 3 0
2 1 24.074430530555553 9.409818384568288 8.892693061385204 0 -1 0
131 1 24.777683210757353 11.215825504421606 5.380239503646641 -1 -1 2
502 1 25.915760245828295 10.618722212422831 10.242093946573972 1 -1 0
1930 1 28.237275576341816 11.9790386699652 8.333683834508182 -1 1 1
561 1 25.32955177272973 13.395731006485871 6.663404233268339 -1 -2 1
1798 1 27.260952083852608 11.233807447423418 6.120029910301621 1 -1 0
696 1 25.6567124707473 12.421547065452252 9.09423053881398 2 1 -1
1024 1 0.8771726414223739 5.3493166706739315 8.237952229370324 1 1 1
1671 1 1.9770482045153601 1.2189288839329142 9.831800575920015 1 1 1
1907 1 16.18617793107881 0.7688395321210149 13.79566276386938 1 3 -1
1141 1 1.3315550480922065 2.003750909452441 12.55828848060388 0 -1 -2
297 1 1.9746359573982621 3.8386549407813804 9.799069907655502 0 -4 3
2004 1 3.174946519840555 2.2128509830641883 11.447753806625423 0 0 0
2031 1 0.6143935172504522 4.369990020893417 12.144848310938999 -2 0 -1
1760 1 3.2854536484330272 1.150259057647566 14.047146679051778 2 2 1
2003 1 5.609126557049968 3.66392474046486 10.085200791244166 -1 0 2
107 1 28.278970644939427 10.988929256699116 11.23104862952532 0 2 -3
1613 1 4.224678855524591 1.3806406010978542 9.32076046797309 2 -2 1
184 1 6.886722101393579 1.498170365250753 9.349164501134142 0 -2 0
1668 1 7.6058855675385635 0.9971263926460723 12.70206698438742 -1 1 0
507 1 5.5890393928507764 1.665542768615074 11.698589312428929 0 1 1
818 1 5.706214551756423 3.955968864529658 12.203975810650022 1 -1 1
1805 1 7.255225940600224 2.991772928588538 13.715216765389718 0 0 0
676 1 0.04484406197782849 0.24053085471415064 11.033370937480793 1 2 0
581 1 8.911744902222697 4.78635678300816 12.139823416039922 1 -1 1
608 1 7.874482340104218 2.845154077471802 11.307884574352329 2 0 1
811 1 9.45111644486282 2.0047722802014523 12.969189606148912 0 1 2
238 1 10.227474626191414 2.7261196122872615 10.579040960953847 0 0 2
1385 1 13.377881683031047 13.725257974338453 0.7792129757445253 -1 1 0
847 1 1.902373197584329 0.14338346436356766 1.300737538368356 1 0 1
1449 1 11.860688604819748 1.2110877376976799 12.032672711927031 -2 0 0
1823 1 12.77114325521009 3.2769524323135193 12.679244444953294 1 -2 -2
225 1 11.536898817993295 4.679157458237971 11.36464976493919 1 -1 0
146 1 24.867615897507143 11.835560023305424 14.033878792942803 -2 0 0
1971 1 16.027228705218484 0.9700250761325673 10.216229587698258 -1 2 1
713 1 14.881447049511497 4.071233420719785 12.917042832106434 1 2 1
512 1 12.466462737375425 2.7496291546645764 10.532297803316549 0 -1 2
82 1 14.543987732125462 1.5114273536807097 12.091138127430563 1 2 0
1735 1 15.461085699261332 3.1936241764287128 10.469387954298071 0 0 -1
830 1 13.899861184612545 5.03201848795753 10.874217118294977 2 1 1
1832 1 17.556977006340617 3.7152149474715994 9.38370864264766 1 0 1
1375 1 19.96996998531253 3.83881751330478 9.709944716372696 0 0 1
287 1 20.601519654021303 2.035448203895052 11.605458987590595 1 -1 0
1077 1 16.770803713098047 2.7471212761249086 12.23820161864288 -1 2 0
1941 1 18.400243203722248 1.9265239179315057 10.915282386470357 1 1 1
1655 1 18.922404581957665 3.885373715423377 12.064385088895092 1 0 2
1253 1 8.015134723689103 11.753537805727229 13.692400098602647 0 0 -1
558 1 16.208688246187016 0.5478695161943794 7.397599268643993 -1 2 2
491 1 20.276003497375598 1.0487679411148483 9.648813348401074 -1 -1 3
86 1 23.23464873458007 4.734779495254027 9.469764750879559 1 0 0
1522 1 21.89784118719401 5.116727071952522 13.130130177667503 -2 0 1
1045 1 21.712241373175928 4.116593919157472 11.194177662289222 -1 1 -2
806 1 24.016619123983887 3.4183101291679274 11.511398256653575 -2 -1 0
1460 1 22.560161951925792 2.215561144853091 10.28106516814872 2 2 -1
1886 1 22.466649901903878 2.4622816974160537 12.850371759285023 2 0 1
1890 1 26.733620769230818 1.1638634359414386 8.882021786752043 0 1 2
147 1 27.742303059154537 3.1026262225061343 13.76528114593919 0 0 0
1730 1 28.040811913637157 2.5182354494620744 10.913513414490513 -2 3 2
1893 1 26.68808822153637 1.3493230861083465 12.466410064845133 -2 1 -1
2011 1 25.03530286476383 2.300979464860656 13.641988591837695 2 0 1
246 1 26.245898971877537 3.870960057518474 11.957612290545864 -2 1 1
1277 1 25.59946365435225 2.139497234085104 10.670739636207687 1 1 0
1802 1 24.237500391286872 0.8725566147162314 11.835118107584584 -2 1 -1
39 1 14.629523268050221 12.47612548825286 2.4808051183507502 1 0 0
306 1 2.2299987762393765 8.498016496779966 8.797062450852804 -1 1 -1
1957 1 1.3950992400947746 5.910294184810597 10.667211486120344 0 2 1
926 1 3.3292671149528488 6.734511996795037 12.756765500236487 1 0 2
208 1 4.08462267288058 8.295941202472289 11.140157637617337 -1 1 0
42 1 18.350414707649698 9.469902071447565 12.077434327235379 0 0 -2
382 1 1.0921296645531335 6.576021498678732 13.094700796555413 4 1 -2
1692 1 3.4783449283154404 4.813100881170076 11.358292748940135 0 1 1
771 1 4.7005066476463595 9.432409994433247 9.542245818629032 0 -1 0
1640 1 20.814207816586794 12.162565022275874 11.339680640641877 -3 0 3
1362 1 8.07067475275132 6.928347543794167 8.796280999877583 0 1 1
1648 1 5.352343735794416 6.018858999012402 11.378053393128468 2 0 0
3 1 4.862472235660682 8.189043355897262 13.430135443727684 0 0 -1
1108 1 7.462571368713776 5.618427319042587 10.590938331033742 1 0 0
1700 1 6.73034210174556 6.350843140474952 13.090759541749945 1 -3 -1
380 1 4.706064078706218 5.435425295752232 13.861846317374315 1 -1 -1
1058 1 7.060811916682991 9.168266423548056 13.579775273416894 0 1 0
686 1 8.593239113068266 7.578310164473993 12.594828950030038 0 -1 0
1588 1 6.649427476808419 8.228701092497923 11.341750882002714 2 0 -1
1222 1 9.357961405660724 9.842928599650048 13.568143213671798 -2 -1 -1
637 1 11.278597419528012 8.05581067800895 9.57908362259802 1 0 -1
953 1 9.809762927375893 6.383217993279628 10.394640422691332 1 0 2
2044 1 10.46727231338276 6.408035835994427 12.988959616988762 0 2 1
1706 1 10.414936378379105 8.617137171660408 12.01847037573706 1 1 0
1439 1 9.021218786424576 8.77897576493808 10.301938690218734 0 0 0
1825 1 25.923514465628294 12.545929692025117 11.871132617235185 0 -2 0
1549 1 12.887978925764303 5.977835295529621 13.339503831105763 3 1 0
389 1 12.058787671983431 6.989181158550332 11.603884682569479 -1 -1 -1
869 1 15.96739355337188 8.728201244301843 12.345424217427173 1 1 0
1497 1 15.141706045297763 6.370670176285072 12.821131409938232 0 1 1
1021 1 12.264832712885772 9.75869421316862 11.015412982360651 0 -2 -1
128 1 16.557566408630542 5.098585656337397 11.235294274272473 0 2 0
1757 1 14.354750578590211 7.445656752303449 10.532743939152917 -1 4 0
934 1 13.599810427312727 8.434671658529474 12.620295028929204 1 -1 2
1584 1 19.839548564728346 9.268151940079894 9.189043768737088 -1 2 0