LAMMPS data file via write_data, version 29 Oct 2020, timestep = 300000

2048 atoms
1 atom types

0.10159041081715259 28.250409589179764 xlo xhi
0.10159041081715259 28.250409589179764 ylo yhi
0.10159041081715259 28.250409589179764 zlo zhi

Masses

1 58.933

Atoms # atomic

689 1 1.585150494264147 2.9169213964934912 3.1331729130923143 -1 -3 3
1406 1 2.4904641750279293 2.850496102477448 1.060304026483239 0 2 1
49 1 3.0889534404096275 0.8198646237515264 3.7354219764755503 -1 1 -2
1010 1 1.6143146838328533 0.6837184291710029 1.7857830107454786 1 -2 3
1355 1 0.4324610606460713 0.520546460901619 4.145042741594467 3 -1 0
1927 1 0.21218190621153776 4.613377252565152 2.6317030655211937 -1 3 0
1431 1 0.11778558339382528 2.6284273634961814 1.1550323694402946 0 1 -1
1348 1 4.202731349992936 3.1789830937359462 3.0248309206648436 0 0 2
1350 1 4.022058529236395 1.1219331802316386 1.598983882381423 0 -1 1
1099 1 5.13997303193352 3.0020326206320647 0.5916605962401318 -1 2 1
1877 1 6.757031022724118 3.432041394880219 2.5746410078575344 1 -1 1
1283 1 6.5653191196803515 1.2023172345316384 1.0779748872250166 -1 -2 -2
1051 1 5.642214230593974 1.1918107365483477 3.3544995962161845 3 0 2
183 1 8.388061323736379 3.3130940814712155 4.400470197982616 3 -2 0
430 1 5.767867209473326 3.0247489978908018 4.898778115688302 -1 1 -1
1598 1 23.164913667992625 0.4027950720983952 11.211196962585438 -1 3 0
342 1 8.146322006822226 1.2329632615017376 2.9694359459679815 -1 1 1
1807 1 9.316825620525504 1.3420543724821437 0.8984545821077753 1 1 1
425 1 9.405361922427382 3.2770853269223355 2.15555823183626 3 -2 0
971 1 10.584499656215687 1.428182879196275 3.009271051724046 -3 1 1
958 1 11.889401160571413 3.69670991612933 1.8175326628404758 2 -1 1
129 1 10.850182190439567 3.5972839754570085 4.299776620623527 -1 0 0
915 1 11.917465582585796 1.6143099225642505 0.7167075425024193 0 0 2
899 1 13.17022847003204 1.630614603643078 2.9749025988030646 -2 -1 0
1259 1 14.557969621965317 3.728434818229961 1.8527902648826953 0 2 0
1429 1 13.107404573026544 3.8324416072149243 4.245473873059697 -2 1 -1
1330 1 15.820240821830962 1.64588636814324 2.73004382982184 -1 3 1
1556 1 15.805851732440184 3.9257272179730944 3.9518111775427807 1 1 -1
1987 1 14.22406425327074 1.4740917022895645 0.7268879800695239 -1 1 -1
1723 1 14.623004093708213 1.9273109786018017 4.7500818596684145 -3 -1 0
1047 1 16.909784223101187 3.710095834043609 1.7714755996527882 -2 0 -2
586 1 18.2802337145555 1.4551424336036003 2.1656552515670153 -2 2 -2
1678 1 19.29891149173554 3.8857531566568952 1.2775153455688886 1 0 1
464 1 18.410869953797956 3.6991583769380125 3.565054490729946 1 2 0
1509 1 19.930285764783275 1.8297433718345693 4.277230758513039 -1 1 0
235 1 17.102839562331113 1.882254716208193 4.542630048373146 2 1 0
296 1 26.72357485809456 10.594088605963092 11.421526152007216 -2 -1 1
295 1 25.016079454933674 0.11984013485245078 2.245605157073666 1 -1 2
1119 1 20.840623425398288 3.940090174929374 3.4907626644224976 -2 2 0
1301 1 20.667775263960362 1.7791870084914536 2.2359728079497128 1 -2 -1
1468 1 22.426170109366154 1.9391751551768153 3.84423694727331 0 2 4
1130 1 23.33648670478862 1.9434359822920797 1.6882855330670135 0 2 0
240 1 21.698249709822587 3.750123376418168 1.2459579291913736 1 -1 2
173 1 23.307700615922222 4.0263898546248384 2.9322895751287614 0 -1 2
1187 1 3.436229550701289 10.735885807651504 0.2565032012621954 1 0 2
1913 1 0.21255057409250355 10.591385423352913 13.506514078619475 1 -2 2
1441 1 23.98310684970881 10.394529655379134 11.492164247173163 -1 0 0
591 1 24.357572614207708 3.979570973555684 0.8082871785663427 0 0 1
495 1 24.79657182403048 2.1054322439836897 3.5941658262837524 0 -1 -2
1871 1 25.77930687011043 2.2880399616111715 1.4626301690677717 0 2 2
1041 1 27.23844764969758 2.350968276642293 3.598480687796002 0 -3 0
746 1 26.797181763800413 4.455887456763837 0.4734365637658648 -1 0 2
1463 1 26.024083209616613 4.180501184719997 2.7979270501978615 -1 0 2
1024 1 26.154121807022605 0.3057364349223482 4.4875895148113445 0 1 1
315 1 27.821519022871993 12.667585271655634 10.671150749083171 1 1 0
1529 1 27.481406350923496 0.552344289118228 1.957603644214705 -1 2 -1
1768 1 20.86126738799846 10.493639776080629 13.69774687225598 -1 3 1
825 1 2.5207717897436517 4.820531263722057 1.9599185163557393 2 -1 -1
1737 1 1.8664579677734856 5.075184550504379 4.616689841944791 1 -1 0
1866 1 2.875063826436608 6.942834579119683 3.504631276440975 2 2 -1
1117 1 1.246514628489574 6.573779037992038 1.58459187526701 1 -2 -2
1573 1 1.2968235052829695 8.720491878428183 3.3447237824080247 -1 -1 1
1490 1 2.0458800155712167 8.745704305746674 1.2212299408642309 -1 1 1
516 1 0.261917971935369 6.536080708284068 4.094050015950531 -2 -1 0
1188 1 3.5822506321962653 6.869166710913983 1.2244645842743545 -1 1 0
332 1 4.026578737528217 9.024322605136074 2.701686290427449 1 0 0
1923 1 20.861358386854498 4.4313939725256475 14.06689920614047 -1 -1 1
400 1 4.200285109892957 5.238970881542946 4.292945033177633 2 -2 -1
686 1 5.140712087676753 13.029346591893395 14.174458550041736 0 -1 0
1810 1 5.461594486588206 5.246381057679644 1.86089251543903 1 -3 -1
1510 1 6.682564561735893 5.339396348420614 4.156761605362901 -1 0 0
1481 1 6.40234240915409 7.176614165560197 1.29236433519165 1 3 2
250 1 5.540031005930955 7.092862189692467 3.4533499602807067 0 0 0
1496 1 6.718494782232224 9.223443466207287 2.6064553138399553 1 0 1
1796 1 5.05797489942737 8.99977840435637 0.8357688564015995 -1 1 -1
359 1 8.115981248065385 5.257089319811944 1.7170691656645145 0 2 -1
206 1 7.953354758444068 7.420222101128504 3.0151877523255983 -1 3 -1
1448 1 8.305710322899433 9.475394937882866 4.612768330709341 0 -1 -1
2042 1 9.265586394273171 5.397366212584233 3.6497236022334976 0 2 1
54 1 10.57809697084693 5.523954918036253 1.3264152662689066 -1 0 -1
497 1 10.208666728858098 7.505858778686454 3.032483291021173 2 1 -1
1180 1 9.002639106549083 7.312506098126637 0.9540777645971608 0 2 1
1550 1 11.547894334187939 7.389267692183276 0.8223421777732792 1 1 1
1126 1 9.269923708255691 9.397657020185145 2.196223394374057 0 0 1
159 1 10.553655322636319 9.588280561616182 4.390881037934929 0 1 0
45 1 11.68371911948475 9.533055681943859 2.023352616998742 -1 -1 0
1785 1 11.954560627037308 5.503099716446912 3.245897552143316 1 1 1
99 1 14.642184453082383 5.7041413943354815 3.078440964428531 -1 -2 -1
1265 1 13.130664701732234 5.654210636611868 1.3486723101681195 0 0 0
668 1 12.972726077465872 7.476859757658384 2.651854072087208 0 1 0
1281 1 15.832104259593486 5.5775587044310955 0.7298012316519785 -2 1 0
776 1 15.42601202774626 7.74922553527472 2.086185553704765 0 -3 1
984 1 14.515962453345493 8.016228433394195 4.466506320365735 2 0 3
1104 1 13.864590641083346 9.564747851171608 1.6229856350913616 3 0 2
1650 1 13.242949481132264 9.711953088148196 3.938821360008236 2 0 1
362 1 13.835989002674992 7.532712162108825 0.2745582807275736 0 -1 -1
1811 1 17.039031359264122 6.033755728062965 3.0000791380914333 0 1 3
32 1 19.56887631273341 5.577705922247438 2.6348871066121378 0 0 0
1371 1 18.15181775965229 7.8224589138874165 2.0404339805638054 1 -2 -1
985 1 19.596730419108574 7.672795681277915 4.05132840330172 0 1 3
515 1 18.10060732411787 5.815473772285755 0.8279485181521805 0 0 0
801 1 17.20029649818732 7.8919081642069315 4.243472448600738 -1 0 0
1142 1 16.60130939467606 9.685472334165741 1.2630568726976046 0 2 1
1500 1 20.43140692505194 5.962748308640014 0.5266570079555997 2 3 -2
479 1 20.718781202895634 7.907618122067186 1.9833998811479223 -2 2 1
534 1 22.071486075652373 5.926334568333243 2.5592156517634788 0 1 1
600 1 22.235312721313978 8.032135257902006 4.004004935636727 0 0 2
1295 1 22.92695085191735 8.063298294669377 1.7068853504825878 2 0 0
596 1 23.81031874489604 6.088807312600299 4.451002021965011 2 1 2
1129 1 21.096064720734798 5.818160703614607 4.611763054975101 -2 1 0
1659 1 24.839075978409184 8.28127314465733 3.5212352855650377 1 1 0
1708 1 24.364081686382782 5.992944940375799 2.123903805538139 -1 2 0
879 1 27.80446909970678 8.576573008675343 1.1169963626981152 -1 1 0
880 1 27.158051906629474 8.378796420087394 3.5602929226604445 -2 -1 0
1494 1 26.671326015587315 6.4351664138657245 1.9720701054402914 -1 1 -1
1202 1 26.151758467466315 6.324383060341306 4.204029598268408 1 1 -1
1993 1 25.51963223752828 8.305502621182132 1.0988599711411828 1 0 -1
1539 1 2.4348160061302497 10.832016901827824 2.5832785930037927 -1 -1 1
213 1 1.1235965696348487 12.696076143976102 1.3368296920697589 0 -1 -3
494 1 2.6316779744565966 12.871287168668278 3.9851595470062744 1 1 1
230 1 3.7261533080883433 12.757046445711914 1.5688248883802056 3 1 -2
2032 1 1.2942271878338596 10.889481480124436 4.521306370181072 1 1 1
549 1 4.112097878472834 11.02789681890969 4.469935076267052 0 -1 1
1515 1 0.19412866086675995 12.55548443425094 3.6767446634612813 1 1 0
1651 1 5.195665711952089 12.908056819180663 3.4481834093666297 0 1 0
760 1 5.153765886448192 10.89979599765936 2.080252252579088 0 -1 -1
1422 1 5.91652285003679 13.077087829627251 0.9957664965131028 0 0 1
923 1 6.478677210781716 11.147016471848685 4.010644778091022 0 0 1
125 1 7.657399529985965 13.458296479699664 3.2686219495919526 0 0 -1
103 1 7.520303128620089 11.498287487693133 1.9454984651060605 -1 1 1
1001 1 8.918458195244993 12.973779021396956 0.8628055295935084 1 0 1
822 1 10.45468750721279 11.328239648184296 1.583051953315803 -1 0 2
476 1 8.999013262221089 11.405419446719296 3.7149422719978427 0 0 1
505 1 10.10228004589977 13.390681519531185 2.6681642427649455 1 -2 0
450 1 11.578978143826484 11.635131214731398 3.489105471133211 1 -2 -3
1007 1 10.97057019782878 13.51036938042342 0.5846995368524337 -2 2 -3
466 1 20.14235865061657 11.846617291808672 0.25771663898967906 1 -1 0
540 1 15.448003109202936 9.871495165622287 3.3195583322190476 0 -1 0
338 1 12.708986011874691 11.779518528400812 1.1054192075410538 1 1 0
316 1 12.756808272196519 13.779611582160259 2.3046250496573744 -1 -1 0
1050 1 15.74842566646965 13.728454370184217 2.003482029552024 -1 0 0
1296 1 14.091310819037552 11.87628344818672 2.9650555887355594 -3 3 -1
737 1 15.278667754595006 11.505990867060751 0.8078244420877432 0 1 0
78 1 13.991375156159663 13.84498150975378 4.073282690692121 0 -1 0
1249 1 25.420019409019957 12.578989297865476 10.820432920978002 -2 1 1
1564 1 18.139641973412132 9.789397770476842 3.3107062983848685 -1 1 1
1434 1 19.076655719139975 9.794166579484514 1.195485282143289 -2 0 0
1722 1 16.91269386426592 11.696249092385594 2.675319506221165 2 -1 1
151 1 19.24056147821539 12.010796601781657 2.4017342760648557 -1 -1 1
462 1 17.806844822855485 11.799067431059866 0.4370330630794066 -1 -1 0
1758 1 16.80112171756857 13.639016183799818 4.149743884612918 0 2 2
1896 1 19.346026133912055 13.982343498839596 3.7619564372715293 -2 2 1
887 1 23.398696582338584 0.3253102701988101 0.30348388581976027 0 -1 1
1023 1 20.769689422719814 9.678217437134355 3.22162092590818 1 0 2
94 1 21.691165250702756 11.744865677975868 2.1323840450448532 1 -1 -1
1511 1 23.04107876285212 10.025453810624963 2.9182436822734124 -3 -1 -3
326 1 21.459549934778696 10.0499467318084 0.8512947628639816 0 -1 -3
1979 1 23.181935971417907 12.320654668967741 4.194409050037851 2 0 0
107 1 20.719413038740306 12.037638645100598 4.369245476015681 0 2 -3
2007 1 23.923469956654223 10.077319296128112 0.7626850628873589 0 0 1
1433 1 24.396552879670537 12.149801195830713 1.995972704349952 -1 1 -1
669 1 27.075319401340273 12.455639439428037 12.760925260712602 1 0 1
225 1 8.093861178062195 7.581960806181998 13.642246460175754 1 -1 0
856 1 28.05010055859274 10.513234969415128 2.344032253098612 0 0 0
1664 1 26.376735207552002 10.291722646233294 0.45476839903439087 1 1 3
1428 1 25.558263338768423 10.245993585997873 2.565675513826015 -1 0 1
1060 1 25.68256635294574 12.359847686737464 3.847726146203609 -1 2 3
1404 1 26.884657407437007 12.459538348661942 1.7751271228299037 -1 0 1
314 1 3.273443434245318 2.922135900931722 4.957960296566364 4 0 0
1850 1 1.437851395566711 0.8240705548397159 8.316657047493193 0 -1 0
428 1 2.143930358194701 0.826215396386271 5.8185322110932045 0 -1 -1
1730 1 2.368438344541642 2.804386123642325 7.268443821257395 -1 3 2
1733 1 0.6464946498905557 2.7363502830016824 5.283739061855415 0 3 3
1109 1 3.7601613744846367 0.8845033708874035 8.371846371330742 2 -1 -2
1753 1 3.5997467088878667 3.0184698176129423 9.555333263631928 3 2 -1
700 1 4.326093435614275 1.1443372427290008 5.923291485033574 0 -2 2
291 1 7.3298444900620705 1.0999005678567553 5.160611171997886 1 0 2
1326 1 4.870863519217216 2.9901919216611708 7.1821482894259 -1 1 1
1362 1 7.308541781651667 3.234620355990115 6.500436115843341 0 1 1
1320 1 6.096057377823901 1.0129948685027657 7.436755455494002 0 0 0
184 1 6.465444285671785 3.186360340679515 8.920055048443995 0 -2 0
393 1 9.787801846835931 1.5846721763940825 5.179256558942997 0 -1 1
238 1 8.484054921032456 1.3252345553163094 7.356702158242821 0 0 2
371 1 9.58995071430884 3.478340170875978 6.5778444859441025 1 2 1
1217 1 11.169481359280267 1.5304109158914896 7.223043905404409 -1 -3 1
136 1 8.748575931768105 3.335049503670685 8.84511492026621 1 0 5
1391 1 11.066629116782234 3.6239893624092985 8.652018180671202 0 0 1
492 1 10.168978471921635 1.3286376834157985 9.414177076827398 -1 1 -1
289 1 12.223487665853007 1.5944167237101832 5.083427409346688 0 0 -2
1454 1 11.970190536773288 3.578805287111707 6.6339897449573035 0 4 0
1897 1 14.904179030342329 3.634888941355707 6.1750369383794705 0 0 -1
1418 1 13.630006102278097 1.4096476549625145 7.065777039898869 -1 2 1
221 1 13.715176578746405 3.5178911290799246 8.395493115538331 -1 0 2
1907 1 15.30917831427854 1.9547333877630848 8.801172690038573 1 3 -1
1244 1 12.702880693398834 1.5294469771027783 9.314008600069315 -1 2 -2
128 1 16.32845265033494 4.054023125444831 8.190546474943172 0 2 0
616 1 25.74069475947818 10.450344119691291 13.57316023322094 -1 -1 1
1354 1 15.991178425746368 1.6287944951038322 6.662246694844088 0 2 -4
1375 1 18.72178757898775 3.938425953767951 7.946157419755649 0 0 1
619 1 17.05560386301489 4.0342637153584615 5.921115071645402 -4 2 1
806 1 17.67110736935348 1.9859871572192072 8.665044828593356 -2 -1 0
1898 1 18.57388383449931 2.0054596648638627 6.3562236108663805 -1 2 -1
527 1 19.81205144048582 3.8904490605002406 5.724351873086958 0 -1 0
1447 1 23.034766695999753 10.579859035365176 13.557263714503593 0 1 -1
195 1 23.00638305696398 12.423691550605096 10.685729793679963 -1 4 0
1886 1 20.298147864170048 1.9490305247411843 8.158320627259737 2 0 1
431 1 21.459632658403546 2.1156669749515062 6.051029320443651 -2 2 0
617 1 21.249881027055036 4.080685072585883 7.655964115993741 1 2 -1
1308 1 22.430377939201176 2.1338212798299376 8.271535202282497 -1 0 2
465 1 22.605634931175526 4.120819208911439 5.103277232140776 -1 0 0
1586 1 24.002435716069936 2.0260087190293548 5.68972704725722 1 0 -1
188 1 23.93037389381625 3.9255801097683034 7.2693932952950915 -1 1 2
748 1 27.92478739661325 2.753560858064583 7.5561370653551085 -1 1 0
471 1 24.85909630070014 4.07143558827204 5.085397246727124 0 1 1
1166 1 26.27186890549097 2.2259688130039335 5.744494530969682 0 1 -1
508 1 28.027654752213884 0.5223562885770605 6.518139177958276 0 2 0
1639 1 25.302338446725447 2.220224179875555 7.903469082824619 0 2 2
1412 1 26.920101886271024 0.5254456762953452 8.621090132517034 -1 -1 -1
633 1 26.34202955174651 4.389212496228698 7.125387302182731 -2 1 1
16 1 0.11614049895681688 4.809314034650611 9.264391567425386 0 1 -2
1552 1 18.011267182541708 13.915149362093256 1.5328934995685624 0 1 0
1033 1 25.368657873267846 4.337981858077497 9.458337691423923 0 1 1
634 1 23.061533721225985 10.519850458895304 9.299987607336 -1 -1 1
402 1 0.874857654035097 5.0079645048466475 6.846484091577388 0 0 0
1622 1 2.271850052512079 4.607582280624649 8.804046774013024 0 -1 0
539 1 3.52409904851296 5.01194441369555 6.560913647915655 3 -1 -1
84 1 2.7794067337602506 8.951699399522274 5.013787030066599 -1 1 -2
324 1 2.013024502079498 6.906984388566494 5.893449625173553 -1 0 2
597 1 2.2624676545999276 8.905510127038323 7.471470465184637 3 -1 -1
696 1 1.0989921371596405 6.926703614087077 8.080839551855128 3 1 -1
2003 1 3.6104689704361634 7.039844892415263 7.8238289198533995 -1 0 2
483 1 0.41579110698946703 8.802053314551006 5.668252603677149 1 1 -1
1070 1 5.826077181609657 9.236644046272517 4.647383075996496 0 2 1
687 1 4.438115420789979 7.103823662693864 5.639261776131084 -1 -1 1
1671 1 4.786273453281342 4.888754759724017 8.683510658937521 1 1 1
1660 1 4.615952200637769 9.0633638703303 6.99962683893964 1 0 3
1663 1 7.222157298997249 5.403855639890223 8.143832161975146 1 2 -1
626 1 5.752940743002166 5.08783596295689 6.270150087513768 1 2 0
306 1 7.054317198738221 7.444374732743798 5.544581739753903 -1 1 -1
805 1 5.830942034332054 7.159079170373959 7.808456002097648 0 -1 0
1493 1 7.187951784733755 9.418282754236344 6.845520565775408 -1 0 2
545 1 6.131078204520051 9.157277953283144 9.004398815452655 1 1 0
589 1 8.523635656936408 7.609492811200554 7.44738512725966 1 2 -1
1761 1 11.860064301218062 7.734007876774314 4.845178909513815 0 1 -1
1648 1 8.489456742907015 5.617284012724728 5.879005476003787 2 0 0
1831 1 9.42812204581805 7.542739054977886 5.12325678271113 0 2 0
953 1 9.738627463588113 5.482287816240022 7.978255713549431 1 0 2
1118 1 11.004028200957404 5.647284621298241 5.656762871898588 2 -2 -1
478 1 10.879621131333485 7.534874363015484 7.111067732642089 -1 1 2
579 1 9.523991604417393 9.597452264435708 6.766581049243527 -2 1 1
962 1 8.638079277788536 9.428098004042422 8.946960474290632 -1 -2 2
758 1 11.78580737133431 9.815607445087762 6.23634542939063 -2 3 -1
440 1 12.487699306034441 5.8169507130522105 7.619879087162911 -1 1 2
917 1 12.521167507194985 7.617636705453489 9.19439093663264 -1 1 1
718 1 13.304983352703756 5.8812283116070425 5.243474891079246 2 -2 0
830 1 13.365563183730162 7.857938881157291 6.637909510319131 2 1 1
877 1 14.791951576383502 5.876065782282663 7.27217267261452 1 1 0
141 1 14.972652555816508 8.007692453254887 8.646412620502431 1 -2 0
46 1 15.945121763239401 7.96505237144255 6.4387586437485735 -1 0 -1
796 1 15.786086477319772 5.803042436423212 5.21926125296774 0 2 1
538 1 18.464287327024113 5.746126721780275 4.835768636920383 0 0 -1
520 1 17.41931039954778 6.040061421048879 7.009563099203846 0 0 -1
120 1 17.47440656262798 8.254745132744159 8.522182306381955 1 -1 0
152 1 18.459147224329236 7.912192983628124 6.352790902036448 -2 -3 -1
308 1 19.996809619607617 8.138150022163819 8.379522248102354 2 -2 0
113 1 19.845002513112917 6.001580414622901 7.014968842877153 0 1 -1
354 1 16.536471437302186 6.124913650418306 9.287658594338662 -2 2 -1
1352 1 19.085129101978357 6.011172165446775 9.168285697001966 1 0 -1
1140 1 22.44103521959583 6.080594496826405 6.631366667334828 0 1 0
261 1 22.75108693059235 8.239417871161043 7.80427948405884 1 0 2
86 1 20.823191915481615 7.885191917858488 6.2262143157366365 1 0 0
1351 1 23.832851364464666 7.9402621547028165 5.740924940397691 0 0 0
653 1 21.88930006555212 6.164382681611297 8.875529167577414 2 0 3
528 1 27.413977623407646 4.459018204376593 4.957276898493632 0 1 0
1307 1 24.180866822560038 6.258873139550672 8.625192038382496 -1 0 -2
57 1 27.302185538286164 6.491630807699811 6.274947275920835 -2 1 -3
655 1 27.428803866743902 8.718500303923925 7.71605042910549 -2 -1 -1
911 1 24.97893349573233 6.056645973840603 6.412078575231763 2 -3 1
615 1 25.33237835618055 8.286948107472824 7.75001677517303 -2 2 1
194 1 26.237972775480237 8.555629177471156 5.437970077916044 -1 2 0
1459 1 26.73778986074922 6.445330289947952 8.43754120064692 -1 0 2
1333 1 1.5878460149363047 12.953571677647917 5.978933081566196 -1 0 -1
1930 1 0.7483341532778103 12.89542562507583 8.373875557769344 0 1 1
1770 1 2.2475929694018664 10.720909969731546 9.086223556548045 -1 1 4
1018 1 2.8904209564377714 10.964382735945383 6.654711368936178 0 0 2
892 1 3.1223894549214646 12.985357544690803 7.931854733483066 0 1 0
1401 1 0.6954148303237476 10.581075229100142 7.057255807365366 1 0 0
1128 1 4.1435522306689725 13.109737821191644 5.735495679402585 2 1 0
1895 1 4.533007204409882 10.815847009656933 8.55532359644428 0 -1 2
1085 1 5.591503439440913 11.006338867722375 6.298254684855978 0 1 1
1410 1 6.9795012989489775 11.2969306723854 8.399290081174499 2 0 1
544 1 6.573673429859168 13.225838935854092 5.474662322435979 0 0 1
786 1 5.553273517581901 13.00355548149749 7.601429385089072 -1 -1 0
1934 1 8.236903505472966 11.524289413734458 6.1470436293986355 2 -2 0
988 1 8.182117577891768 13.594051212861954 7.439841579959937 1 0 2
226 1 11.78067078807 13.54022919159874 4.671087428814578 0 0 0
1505 1 11.332970977713485 9.4219573118868 8.704185780643272 2 2 0
944 1 9.321279926149968 13.515782963208565 4.973231943131008 1 -1 1
883 1 10.731182380634774 13.857413582853827 6.911001986818117 -2 -1 -1
408 1 9.819137538383437 11.620597496259512 8.063614543180151 1 1 0
1284 1 10.654180277064 11.885186263881042 5.690071766127784 1 1 2
771 1 9.777789375093088 13.798058995571852 9.194880283624192 0 -1 0
1058 1 12.176915280340893 13.82479742847601 9.083589124627384 0 1 0
499 1 12.445888378715543 11.785789440875156 7.548615922634633 -2 -1 1
216 1 14.484668401508072 9.949730093525435 6.059083698783092 0 -1 0
11 1 14.74292752728874 13.925936207772674 8.706076073035861 -2 2 0
211 1 13.496482558660377 9.833685180989324 8.145795468472784 -1 -1 -1
562 1 15.566802679525216 11.85136249440757 4.880277008686816 -1 -3 -2
1594 1 13.055976265888109 11.96254451744371 5.35254467614561 0 -1 -1
1179 1 13.086390380399951 13.733142356052 6.84634736530842 1 -1 0
1484 1 14.709206463422671 11.791694910147942 7.426081554256715 0 0 1
1709 1 15.64453997105716 13.83578604677558 6.226741662058126 0 0 2
51 1 23.34990400328659 4.2243239750258414 13.851304361340512 0 1 1
98 1 18.310362062368714 13.87579807712142 6.1514501166459725 -2 -1 -1
1152 1 15.95983613329418 9.917757630837048 7.824439386965956 -1 2 0
631 1 18.24293087513857 11.898220740347986 4.605722935894064 3 1 1
1473 1 16.781006695492266 9.851974860425532 5.364252154164949 -3 -1 -1
699 1 18.613240030314 10.180109081352136 7.265413517446183 2 0 0
71 1 17.116078400257933 11.83827679140911 6.944378462140516 -1 -1 -2
2040 1 19.59458297112342 9.652849764487168 5.162365596242302 2 2 0
364 1 19.61974206520217 11.962483441663274 6.765088353434178 1 -1 1
370 1 18.75030298481947 11.917782569823508 8.955122410235843 1 0 0
1074 1 16.120958582836995 12.157492676765973 9.309779202619271 0 2 1
410 1 18.431077531729848 4.299750514883411 14.039372372591409 1 -3 -1
53 1 21.632314019059546 10.535943495704828 11.660931231736077 0 2 -4
427 1 16.68201610922728 1.3816844866199267 0.25400148930310706 1 -2 0
363 1 22.324818619110182 10.036650162110869 5.320903709511458 1 1 0
788 1 21.285902911704582 10.091901408893207 7.618095205946428 -1 0 0
593 1 22.37563119920193 12.049548274148556 6.599018972436726 -2 -1 3
543 1 21.26968954598626 12.000767523355943 8.941083525925 -1 0 -1
1508 1 23.807395819655405 10.029596947876232 7.083510128441322 -1 2 2
1160 1 24.04021096836802 12.5245308587927 8.24513193777786 -2 3 -1
1291 1 27.11753153633929 10.519336910116325 4.736538864149756 -3 -1 1
1185 1 24.70758534755128 10.158719594574848 4.837467567535191 0 2 -1
650 1 25.284134626925834 10.490833729032317 9.467269965247594 0 -2 1
1213 1 27.735488365193657 10.703011411285932 9.170088456966177 -2 -2 0
182 1 27.493804446866747 12.68643073554697 6.146886250059954 2 -2 -1
502 1 24.99315692465733 12.12523270998648 5.968066441982384 1 -1 0
186 1 26.130256984698143 10.658344622021948 7.165615393495751 -1 -1 0
131 1 26.454969839789467 12.476027975213398 8.519168352850157 -1 -1 2
1445 1 22.807534381687294 0.16287216495043566 6.760244741330486 1 1 1
1905 1 1.124890976264308 2.589451644113966 9.933364135976282 0 1 2
2004 1 2.552234966366858 2.7613048867134586 11.587981884064147 0 0 0
1613 1 2.7858534207700942 0.8781302663909822 10.485449260337813 2 -2 1
1994 1 1.943773440549865 0.8253025605144116 12.810458517421727 0 -1 0
1656 1 1.5650610148196353 4.94689709219486 11.160266994286788 -1 2 -2
1071 1 0.3922011569246397 4.97931514117653 13.237818397606317 1 1 -1
382 1 28.060435607820896 2.6361171746918775 12.096464408522836 3 1 -2
1823 1 7.989694887821844 1.4359663670545457 13.896382192826039 1 -2 -2
954 1 4.347264203728569 0.7603188516264745 12.449997533704368 2 -1 2
118 1 3.7047553974253966 2.6701242370468194 13.628838232828025 0 1 -2
1225 1 7.6555986331775205 1.2328002495604555 9.839029354054118 1 0 -1
178 1 6.1930689913006525 3.170725089931894 13.477947672432288 1 0 -1
933 1 6.543554966562522 1.0406702631774896 12.101217957742202 1 2 2
818 1 4.941239188001744 2.807270332860382 11.54725983740786 1 -1 1
1834 1 5.289063515273738 1.1422306950450403 9.83511675908953 0 0 2
507 1 7.5873413710035855 3.36138477487302 10.99960408035319 0 1 1
1549 1 9.046114745175888 3.459495581134981 13.002600481824553 3 1 0
389 1 9.872420712083965 3.4604787425357677 10.932766003413644 -1 -1 -1
1449 1 9.1637617833611 1.3663499412149724 11.75500759157912 -2 0 0
247 1 11.672973280472776 3.758357677002398 12.86877367435075 -1 1 -2
198 1 11.454047531809012 1.8609314227967007 11.409446829724901 0 2 0
68 1 10.601807365985787 1.7910935812778395 13.68416217226581 2 0 2
1757 1 13.210609841899808 1.6189943469281767 13.314150181201365 -1 4 0
1735 1 15.553499614112733 1.822899398419325 13.137605044571055 0 0 -1
1455 1 14.131661420169618 1.557894514735419 11.208300210042205 0 -1 -1
1470 1 12.531217409124885 3.833962411780789 10.56164680663482 -1 1 0
717 1 15.003565252642954 3.9655758650142277 10.272052641234664 0 -1 0
1974 1 14.214013259659515 3.8551894221016854 12.569745044256388 -1 0 2
864 1 19.37555005414515 0.46655468001048306 13.593093030729092 1 1 1
1782 1 16.704621293113387 1.939560773390993 10.829743282905461 1 2 -1
1034 1 17.926818193150652 2.31460724187398 12.684318298866504 -1 3 -3
728 1 19.34198923009446 2.2428334483772465 10.31823056466115 -3 0 1
1098 1 16.550610806410933 4.164151811029983 12.456129895601435 2 3 1
1872 1 17.28932895588231 4.174661231879258 10.272179450011082 -1 1 2
1584 1 19.22091521285568 4.243759321721487 11.833350535652576 -1 2 0
177 1 7.510387629523697 3.181834415556715 0.3716257944334393 -1 0 2
1288 1 24.32828729393603 12.53067011351856 12.738689483997689 0 2 -1
2022 1 20.35087437405381 4.344819898089511 9.754803278386543 1 -2 -1
1522 1 20.429457515321744 2.4939594063583836 12.578791858442491 -2 0 1
1944 1 23.112244708332955 4.264271320308137 9.374576768224529 0 0 -2
1073 1 22.12465676698741 0.5688574920396549 13.254449796700873 -1 2 0
1893 1 21.690147041886984 2.461130653749964 10.674655218203839 -2 1 -1
1655 1 21.964254610192793 4.470477905036274 11.860249386053578 1 0 2
2035 1 23.521377952271997 2.2172841653100717 12.707512318104213 2 0 1
755 1 16.576307769390933 7.798803087756327 0.1947649694246404 0 1 1
1086 1 19.73916830122078 13.972952060140308 8.14127325126202 0 0 -2
1277 1 24.256394808224286 2.293567253771366 10.255493891401123 1 1 0
1890 1 0.34891696266822075 0.5219651763991093 10.836878668436533 1 1 2
1501 1 24.35386965738111 4.255532173853536 11.769820653909377 1 0 -1
297 1 27.3396523507624 0.6624337533316385 13.171791173184078 -1 -4 3
147 1 26.913273324594787 2.5400536238549196 10.02268116523212 0 0 0
273 1 25.80833057122204 2.6213783729732527 12.491493941642341 0 0 1
1314 1 27.15869375308806 4.543935399937799 11.334591592523434 0 1 0
1141 1 25.868155768710995 0.6282557340405263 11.008613264089895 -1 -1 -2
287 1 26.300639602240494 4.390619241966334 13.668361069846174 1 -1 0
3 1 3.543201621913434 8.915447723972218 9.429987257711057 0 0 -1
1824 1 2.8694787136424815 4.893546864637338 13.151111591295273 -1 1 1
919 1 0.9762848828071685 8.70368897734945 9.46651852641067 1 -1 -1
695 1 2.4441169464739505 7.014450268337382 10.201034919001671 2 1 -1
1704 1 2.30469730512111 9.048168978831868 11.58567832131944 0 -2 1
246 1 1.437359530790019 6.984688347010791 12.490304126687047 -1 1 1
674 1 3.7570691143064225 4.875647150619943 10.971706839741802 2 0 -1
1530 1 1.6610804819928184 8.895051203836223 14.104851221591915 0 2 -1
792 1 28.0014374922758 8.876497258255695 11.962131007886573 1 0 1
1353 1 3.887676411803574 7.1707204955972985 12.145869871341127 -3 2 -3
1957 1 4.0555991107229765 8.842283454393899 13.444152519362692 0 2 1
245 1 14.079402435202988 13.62077158695591 0.34534243635087924 2 1 -3
632 1 7.319752242795647 7.252218617994017 9.826672948615272 1 2 2
452 1 5.213115467328921 5.158230712337885 13.000593208257719 -2 0 1
720 1 5.935097284823772 5.255623344624309 10.742905216215723 1 -2 -1
1478 1 4.821174456158227 6.890932354986909 9.830826072918423 -1 1 0
1815 1 6.222749837764089 7.117161858578425 11.943876165816821 0 -1 0
1734 1 5.176199844392633 9.051501331484701 11.171717063416729 2 1 2
346 1 7.599507391411301 5.300432321537085 12.453388549558934 2 1 1
637 1 6.477255209388217 9.123959328210018 13.45154214459231 1 0 -1
1519 1 7.630422049246276 9.093472577919993 11.331052279593573 -1 0 1
1439 1 10.027541546222848 7.470250431885655 9.358335903514135 0 0 0
474 1 10.45038809395132 7.2707480453159095 13.683150801044716 0 3 1
34 1 9.19044724888751 7.203865554398318 11.503745318190957 -2 0 -1
581 1 11.15577165516381 5.599603926850278 9.973306521794512 1 -1 1
1706 1 8.864986279991422 5.361679828230755 10.181867542816946 1 1 0
1021 1 11.480201858576969 7.726843552951458 11.685618331516268 0 -2 -1
1692 1 10.163316568512066 5.38233710064473 12.469580529582737 0 1 1
1011 1 9.277242819946427 9.43567829694614 12.902430251802631 2 -2 3
1108 1 10.17170024182001 9.687775372501877 10.666224553910485 1 0 0
1495 1 14.680417513121693 5.765262433764229 14.090579735201686 1 1 -2
132 1 14.05098779848735 5.8005166534313135 9.53029113795533 1 -1 0
2044 1 13.198708002168098 7.70325722233486 13.239021693143712 0 2 1
1312 1 12.89561622266176 5.802272667143115 11.597636884311045 -2 0 0
366 1 15.277532271558055 5.8817980221323705 11.746657259056901 0 1 -1
1497 1 14.110090192100332 7.946369031283175 10.924107014778574 0 1 1
482 1 15.685095212215872 8.030772944870726 13.007612566067703 -2 0 0