LAMMPS data file via write_data, version 29 Oct 2020, timestep = 300000

2048 atoms
1 atom types

-0.08041784082998937 28.4324178408248 xlo xhi
-0.08041784082998937 28.4324178408248 ylo yhi
-0.08041784082998937 28.4324178408248 zlo zhi

Masses

1 58.933

Atoms # atomic

65 1 4.275171563526255 1.5233093056758085 4.474419786825641 -2 0 0
342 1 2.495534227038267 1.1715745425202184 2.61236836670689 -1 1 1
13 1 2.9908962587148937 3.254493646748446 1.4008973901173865 -1 0 -2
1477 1 0.47970614765463415 1.9411201228581638 3.2706175059318716 -1 0 0
226 1 27.78938236004104 14.107125691586667 13.002438544846413 -1 0 0
384 1 27.47579164375683 3.8083407904187316 4.3458046704357125 2 1 -2
1050 1 1.0306328683153152 2.598610178439458 0.9308187875316487 0 0 0
66 1 18.82720612831809 12.440387798722659 0.4975130144413191 -2 1 2
406 1 2.8522126087601967 3.114874694625939 4.155595909876789 0 -1 0
1080 1 4.965623419997832 2.6753981471897577 2.5853188739242325 1 -1 0
120 1 7.08480884092143 1.292115166463814 1.919466354966305 1 0 0
1628 1 6.776905462519935 2.792781994811229 4.294261265726984 1 2 0
1119 1 5.733753075922803 4.663063078415812 3.7130330269307543 -1 2 0
1600 1 6.3247474258471 4.848913554994455 1.3554266421051668 3 -1 0
562 1 25.435160401412006 1.297622841269307 13.55398591392457 -1 -3 -2
932 1 8.08292987852323 0.9266339930025393 4.514648187039336 1 0 1
1962 1 4.557678604611802 1.3731073064946988 0.2784830544729265 2 0 0
2040 1 9.15484324862833 0.9834501474603223 2.7308199582976784 2 2 0
100 1 7.930966617909325 3.273512096944576 2.4708714394821425 -2 -1 1
511 1 10.898779712435635 2.8763969067595223 2.222863070728901 0 1 1
1360 1 11.605136322347857 0.7440175588561393 2.0486515032187924 0 0 -1
1095 1 9.253378324871454 1.8541003257409172 0.6229432229587162 1 -1 -1
967 1 8.68475008929724 4.829027226950016 0.9568553924288252 -1 2 -1
1114 1 13.068584152347986 1.530673736189767 3.684789367112706 0 1 -1
145 1 13.693741976643885 1.2932553248821999 1.157347856708014 -2 3 0
1772 1 13.250845069922484 3.6542489448159174 0.50156117937723 -2 -1 -1
925 1 15.310879915076573 0.5659102248527567 2.9833160235665668 -2 0 0
206 1 14.48594946494202 3.0933151947357613 2.8081316401609584 -1 3 -1
918 1 12.53382686788554 4.664606626234283 2.2023084335865195 0 1 1
1953 1 15.110705992429377 4.62039641252269 1.165520996260952 0 3 1
2031 1 17.261206466889348 0.8045087270898649 1.8305083780071174 -2 1 -1
616 1 17.241809391148372 2.0169828069881395 3.793675271848929 -1 0 1
1700 1 19.60242481525035 1.1156364944217954 2.6034701310475548 0 -3 -1
1846 1 18.307061462442597 2.9690082410854037 1.9357739525922448 1 -1 0
1527 1 19.73061551068546 2.6862887531083315 5.150122354237934 2 0 0
1455 1 6.208974743055002 13.822724487850978 6.257445563859457 0 -1 -1
152 1 16.92577132031542 0.27157625201334923 13.004213063080897 -2 -2 -1
1133 1 15.469613273026786 2.475318509555164 0.39169451577743253 1 1 -1
453 1 16.626487064416047 4.490238751980148 3.0240848561097367 -1 2 1
912 1 19.14081764861185 13.210647899631054 8.433500872888049 -2 -3 1
812 1 15.519758647740426 12.912605579854857 0.15637505505173235 0 -3 2
936 1 23.445086523430483 0.3502796186996066 0.5598424529621516 0 0 1
1924 1 22.001475917945953 2.008439217676718 1.2682151224063798 -2 1 4
1449 1 24.846019614580285 2.840244690203666 1.2242934003974586 -2 0 0
1346 1 24.311535529635883 1.419199720980489 3.402942010143468 -1 1 -1
14 1 26.166236152994117 4.395756082056472 2.3655822054629514 1 0 -1
668 1 17.507418672989772 8.185629568813383 0.1679763208425589 0 1 0
672 1 12.950043396950171 0.45938214098504393 9.616318236947514 2 0 -1
796 1 28.360112202838458 0.4215040610323192 0.8398273986697611 -1 2 1
900 1 27.13598399128405 2.270627158999351 1.7454179624015527 -2 -2 2
1165 1 26.699489410238513 1.7574516798660242 3.9651371186085953 1 1 -1
691 1 0.6528156255642179 0.24723151206369526 12.144372342340976 0 -1 0
1084 1 1.5298322260809105 4.72604490882118 1.7775033595402447 0 0 0
757 1 3.7868538270008747 5.969337221113756 1.0266983954430677 -1 0 1
316 1 1.0805035940158123 4.69218750543718 4.0071703610137686 0 0 0
1269 1 1.49525572478742 7.508583896174242 3.780836764167618 1 0 -1
51 1 1.801635238904456 7.176656340379028 1.429201375066744 0 1 1
1661 1 27.95631727678267 6.325848301612097 2.750301303272091 0 1 -1
594 1 3.497770493946784 8.00466146963805 2.6059474037914527 2 1 1
256 1 0.21717161549504355 9.04437709528502 4.629147538220363 -1 -1 -1
1615 1 6.489770696082673 13.553906114080958 1.134431644150278 0 0 1
844 1 8.245735591101658 6.231093182972915 2.587018571215521 0 1 1
1394 1 3.423176953731289 5.270793088743376 3.5488305339519117 1 2 1
952 1 5.764665897055373 8.53157007972839 3.843498195179522 0 -1 1
2018 1 5.655227626715525 6.943660820000897 2.3815789562616803 -1 0 0
989 1 4.996741060763144 8.03449286169968 0.6790505855689021 1 -1 1
663 1 7.082358177125385 8.676428218667287 2.0671910932258797 -1 0 -1
2042 1 4.228098127443391 10.067390873868732 4.5615426174059825 0 2 1
938 1 16.020907000070842 10.13614980623981 13.485204367166064 1 -1 0
121 1 11.157026548049503 4.637488749627904 0.30593614783558193 0 2 -2
1112 1 9.278294064315151 9.3357048397798 0.7042677420286433 0 0 0
201 1 10.31126404374937 5.464429674858318 3.086080585939333 0 -1 1
1554 1 9.937907521254125 8.012855527508199 2.877199085621875 0 0 0
1224 1 10.259010464568538 6.975010738739981 0.7791136387225678 0 -1 -1
1961 1 7.8599681475636 8.848438878059953 4.218708217142049 -2 2 1
1076 1 11.586938980874033 7.836908473590614 5.471055399450806 -2 0 0
1954 1 19.930729058045202 4.678444221867442 0.23022315072988409 -3 -1 0
541 1 12.306809220437595 7.432620019956569 3.2809937812656447 0 -1 0
415 1 14.03802556444088 6.73662605865215 1.6569842559683452 0 1 1
849 1 15.146386079524442 8.311562664055879 0.24838368717701065 1 -1 0
441 1 14.593764670032517 5.367624555097889 3.420069594739456 -1 -1 -1
1105 1 14.565941384328955 8.776023329425957 2.846552797595494 -1 2 0
1263 1 16.413152488782195 7.111844886537555 1.8362665006506649 -1 0 0
203 1 12.261255815000306 7.652219296699519 0.7080751113576557 1 0 0
179 1 16.71266350261031 9.411390024544716 2.3635468253759293 1 0 0
921 1 20.636081531072122 3.4678074496971125 2.58437485800433 1 -1 1
404 1 17.770509481475052 6.526648111511138 4.025712415081311 0 1 0
45 1 18.83312468876185 7.7720607091546094 1.9666592560940992 -1 -1 0
1773 1 18.119728077020902 5.479470786465657 1.7451384143327644 -1 0 0
1546 1 18.097826875310076 8.981376455812956 4.071159952683096 0 0 -1
1044 1 20.742161486202782 6.833530485118641 0.8426007221029845 1 1 0
325 1 20.08770333588855 5.872305770487644 2.9170108132284227 0 2 0
717 1 23.05026825378708 3.4045989766987725 2.595919510480802 0 -1 0
29 1 21.952132721645683 5.108959888421235 1.813725078491361 -1 0 2
1053 1 13.076456212136717 0.11755887842919555 11.928928212849886 -1 -1 3
1580 1 22.98560891493358 6.849920470042331 1.702729740802803 -2 0 0
1283 1 18.70104180073946 4.2974903214961655 3.9966021305717057 -1 -2 -2
718 1 22.121552484380977 6.926115377019087 3.879886795847986 1 -2 0
560 1 24.30250715661763 5.081953193367711 0.8890236528530129 -1 -1 1
1575 1 17.137868901171622 -0.040651652256968915 9.29947327263575 -3 0 2
640 1 23.952052925986465 5.247359645410351 3.6339489700479626 2 2 -1
1011 1 24.183977633460316 7.531184774948262 4.7733903242996245 1 -2 3
923 1 27.850301240783885 4.625676610259167 0.9869021019368431 0 0 1
1264 1 26.201973848113425 5.644082078591589 4.388196148131156 0 1 1
451 1 27.705188521166903 7.234838341784289 0.6709479294908962 -3 -1 0
1342 1 25.52338799224784 6.838516700467323 1.9364048309510444 2 2 1
431 1 26.54953747528502 8.046773838230381 3.865474332793138 -2 2 0
309 1 21.39674596426387 0.5279835992739662 8.550323695607853 0 1 0
1947 1 26.408819209888428 9.129771251099289 1.908431179444936 0 0 1
1586 1 4.4588421547796715 14.044205975563719 4.252744645709602 1 0 -1
116 1 2.672421070276468 12.539004852305661 0.9808150993488642 -1 1 1
1530 1 2.4336260667455694 9.45890654855426 1.4790345907352045 0 2 -1
78 1 2.0130236545936238 9.886116572926191 3.8609356819586402 0 -1 0
1945 1 2.5423929841943345 11.804857682630178 4.763894423449127 0 2 -1
818 1 1.0625961956606162 11.890865394670923 2.809274014901499 1 -1 1
948 1 0.3467942957140962 9.25687869860243 2.1711984998194263 1 -1 2
943 1 26.83255663808496 11.906757333737747 13.439248967947055 -1 0 1
1237 1 3.7733111652635705 11.417487116931257 2.84819386999244 -1 0 0
225 1 6.495477134359753 10.63049639930167 3.4156446458162453 1 -1 0
28 1 5.6701295886574785 12.662765590411022 3.164287532347364 1 1 0
606 1 4.921780094213235 9.749546352138374 1.9720146821965696 0 0 0
578 1 5.8081529814931185 11.480806546147832 5.554010118922933 2 -1 2
284 1 27.816691484852804 1.6817604915083773 13.561740343189987 -1 1 -2
346 1 7.172959993633814 11.01624879168913 0.8643163856057388 2 1 1
736 1 8.171396550711624 12.766712772904691 2.834544024040713 0 1 0
1019 1 17.215600712729263 10.893540541881933 0.07096817994658727 1 1 0
1068 1 21.72252287025188 13.549621352181859 13.232903786624824 -2 0 2
1595 1 26.06635089139249 13.904239967597588 11.00147940200398 -1 -2 1
2048 1 10.111696595678076 12.148704726659693 3.7533660734199707 -1 1 0
1373 1 9.554316338863194 12.084989935543282 0.9539043868318247 0 0 0
741 1 10.792714499995558 10.23384154328193 2.622038338278265 0 0 1
980 1 11.39226570775159 10.813211215316612 0.5497682704349065 -1 1 0
1986 1 8.643258072048676 10.616416666755994 2.656112216312661 0 3 -1
139 1 0.3983173731683874 0.3733833420884261 9.723048013633639 -2 1 0
1348 1 13.140589183652754 9.584599436271873 1.1418436838511343 0 0 2
666 1 12.615513651975133 11.735797170732399 2.6518597789119016 -1 0 0
1183 1 14.96094353119728 11.076435335380117 3.3548774115361004 2 -2 0
1507 1 15.03305427939196 10.586095828320374 0.8438365863362683 1 0 0
931 1 11.714957926359432 13.598874294154976 0.829745737780963 -1 -1 -1
625 1 11.975403383737957 11.998433579663903 5.037902216348573 1 -3 0
1756 1 12.644333524680839 9.551662422130429 3.617009072299223 0 1 0
1337 1 14.012717472107534 12.974512447827468 4.303770810929372 1 0 0
1287 1 14.233118373685866 13.815522289971266 1.7440704234078728 0 -2 1
1049 1 16.881613992284628 11.933472731358991 2.002406341300253 2 0 -1
499 1 18.977314392177163 10.117872290848478 1.9930228572040987 -2 -1 1
969 1 19.018863719694664 12.94412291991797 2.701396206781937 2 0 2
635 1 17.56778070842958 11.373042302234852 3.907808948819989 0 -1 0
1179 1 2.591749542990541 -0.06910139608180543 10.61950691844311 1 0 0
1046 1 20.96845566457288 8.617337510715243 2.771931919946952 0 0 -2
649 1 20.960061462718798 10.653688699164459 0.7630141374070826 0 0 0
1167 1 16.362683909253683 13.464681879379695 3.691307039064675 -2 1 0
1701 1 20.19812897497834 9.5770133097429 4.573235129124826 -1 1 0
1077 1 23.029907249247152 10.364832161056963 1.2388626530780131 -1 1 0
1214 1 15.383737426248501 0.6341727157933927 7.547683800852711 0 2 0
1137 1 20.875081693751362 11.484268996370393 3.1367057335768855 -2 0 1
11 1 23.814128786804865 8.750910065461841 2.653979189476266 -2 2 0
108 1 22.606343529339483 10.141185901264178 3.884762937411674 0 1 -1
983 1 23.832586084117423 12.513085813837032 0.10313718015422169 1 0 0
1564 1 21.351792084735607 12.809674422106665 1.274097562129913 -1 1 1
627 1 23.534434581743703 12.234593163001733 3.0282713734866435 0 0 1
1559 1 0.29242086952640556 13.174593098770146 0.7104768327316868 2 -2 2
1885 1 27.631030012524867 10.800147820902836 3.701730987779151 -1 -1 3
1980 1 25.433292214290603 10.207747803670504 3.8593980230448763 2 2 1
1809 1 25.204814341651044 11.250297569230113 1.669831489789899 -1 2 0
1853 1 27.177992956980866 12.756920153135244 2.7440238065633653 0 1 1
1607 1 27.54030929449703 11.121518485055942 0.7553866355022265 1 0 0
1754 1 4.921795861330511 11.792430093117733 0.8376382582371543 -1 2 1
1208 1 2.5794790384806383 1.2767859840791664 8.703876078085253 0 -2 1
506 1 2.3143597537422362 2.328615288073541 6.567841532195014 0 3 -1
775 1 0.13795612559252374 2.1215344660947686 5.660765476632511 1 0 1
1577 1 1.4546353834466341 0.3743935087888863 6.899578244468445 1 0 0
1992 1 4.099314785698096 0.9639824657400498 6.711881473496825 0 1 1
141 1 3.7311690803668145 3.216532064418763 8.32393929918375 1 -1 0
876 1 1.8428738856887952 0.6346037504065967 4.901998682035063 1 1 0
331 1 1.8788176455827528 4.5155806060883465 8.111656086131877 1 0 -1
907 1 6.271918595296879 1.5994423596253988 6.293119275608991 1 -1 -1
1211 1 5.281673125204675 1.7025529082777833 8.445193575598346 3 1 -2
1687 1 5.903331177660505 4.144540617695036 7.926936068023592 1 -1 1
1851 1 14.684273975619488 0.547951383257798 13.48100955871954 2 -2 0
1981 1 7.44366567295117 0.5756425872955634 7.8665313271640604 3 -1 3
1832 1 8.136012784085286 3.046552409060307 6.286965937002448 1 0 1
1144 1 4.871198221180114 3.193046450850715 5.622466954908524 3 0 -1
1109 1 10.81742170320503 0.6941689983818097 4.286623513783569 1 -1 -1
1220 1 9.517687720770375 2.9341713780282075 4.315060041183578 0 -1 -1
1789 1 11.584055551192643 0.5657630408177619 7.995059564920801 1 -1 1
569 1 9.586743916331944 1.6872160626606612 8.426944498539116 -3 0 2
485 1 10.58428782280948 2.4676857671633945 6.5157238260653 0 0 -2
671 1 9.272704341731037 4.028945947535906 7.972276595971316 1 -1 -1
942 1 11.743138042669715 3.4630808733297145 4.37713387787268 2 0 -1
1940 1 10.467925358558498 13.763680587493946 2.6309895697884027 1 -1 -1
1843 1 15.635131318073919 1.038472946484187 5.202901245683159 -1 -2 1
824 1 13.825233324281696 3.587350754923113 5.085070811307825 -1 -1 0
1164 1 19.38415870696705 0.24475423165854865 13.329897618297437 0 0 0
1083 1 15.107924220477999 2.870431776144156 6.628917916315253 -1 1 0
776 1 12.603334643478293 1.4029947532294396 5.890629088720953 0 -2 1
318 1 13.447356561395994 2.088197233733289 7.942696356999241 1 0 1
1210 1 16.055121242597963 4.527776897390992 5.21872680576633 2 0 0
1408 1 14.2018049897636 3.830492556282 9.133532862492325 -1 0 1
367 1 17.364434015598178 0.3169863487364054 6.440979871894712 0 3 0
1006 1 9.48143827068023 0.35927436199787893 6.414286778653327 0 0 0
1716 1 16.921278858432217 2.1619691276658006 8.190335594206845 2 1 0
482 1 17.69032131317328 2.844051660773817 6.158282971836966 -2 0 0
106 1 20.048396960337577 4.706715940671359 5.865180391557604 0 0 1
238 1 18.674792396692176 4.665215944700003 8.052139901855186 0 0 2
1593 1 19.271697492825858 1.3970536217775154 7.544478545839835 0 1 1
1092 1 19.276684076058743 0.6266900741346255 5.04238221457597 0 2 0
1159 1 27.52485542982142 10.198765956053027 10.365142697677557 -1 2 -3
1484 1 20.87110912693575 3.0743891410462627 8.516900058469615 0 0 1
517 1 21.43173562150467 1.4185351699201152 3.810977934813138 -1 -1 2
1973 1 23.17286812920795 1.9085520917317846 8.09721017665575 0 2 0
1525 1 21.31149001303193 1.6821592955321394 6.358219078766194 -1 -1 0
817 1 22.3788031707872 3.76549890260815 7.014781537622614 -1 -1 1
39 1 13.460603276221793 14.006642779266098 11.424444235046733 1 0 0
1487 1 21.91901711500534 3.889051865868946 4.847097675320364 -2 2 0
1432 1 23.148291632448974 14.013334657311166 4.017401729850081 0 2 3
1731 1 27.787751016050102 0.4948268980323254 7.5431358258605545 0 0 -1
1439 1 25.42472124017757 1.0595713842807901 8.042743706341502 -1 0 0
112 1 25.616511431076653 1.598955900083182 5.774945508440055 -2 -1 2
892 1 23.257682958187928 1.7354276491924268 5.6007272696466215 -1 1 0
1916 1 25.04041281000857 3.487790983007154 8.075812515886623 -2 0 1
1691 1 25.201021775355997 3.5782935093981654 4.6310871355679275 0 2 0
1969 1 0.6421889430072573 2.3958454694875844 8.354156856677694 0 1 1
1473 1 27.13011935667074 2.666611612747595 7.071690813892933 -3 0 -1
1987 1 26.74454623329352 1.9321340033758894 9.335803463387311 -1 1 -1
500 1 28.347201231629505 6.740383797548768 5.050917450328068 0 -2 2
1511 1 2.8355558445990283 4.438320175579433 6.020045942292191 -2 -1 -3
1780 1 0.6795546065788142 4.110199347517198 6.260237954588131 2 1 2
1713 1 2.0031795456694743 6.977661447611604 8.523934970710513 1 0 0
1230 1 2.113012187564083 6.52522106072356 6.1741533949921354 3 -1 3
602 1 4.315569884263686 7.533067089407439 7.064140978011471 0 0 1
1975 1 2.2956227433316223 9.435056354859652 8.017418330822142 2 0 0
1830 1 6.856100023749873 6.5475407747001855 4.676027563340558 1 0 2
1304 1 3.94627461272428 5.426862493870301 7.860030426335596 1 3 0
2026 1 5.099156894776902 5.361292976147865 5.937607470905021 0 0 1
457 1 7.619626375137746 4.9104920716226585 9.55584581170895 -1 0 2
1585 1 6.01027089346542 6.692836622694436 8.16372771334484 0 -2 -1
396 1 4.155469022329843 7.123118956356576 4.606906523065336 -1 -1 -1
1316 1 7.679006458024542 5.335429896899004 6.767064760392219 -2 0 -1
1256 1 7.395078925565436 8.558278761812016 8.57952313247867 -1 0 1
1086 1 8.427616118082394 4.885410241287172 4.4871830223374864 0 0 -1
1232 1 9.462819536128716 6.845631341313444 5.148000090635095 0 0 0
1757 1 12.717788905780905 5.780342130116108 4.987635303804607 0 3 1
686 1 12.419903940445524 3.9164053384620736 6.869114511157315 0 -1 0
1682 1 10.30639310784245 5.033119466460589 5.9129670094537685 2 -1 2
438 1 7.5508126795078665 7.621106536686948 6.672143685489064 -1 0 1
181 1 9.275658799585733 6.527422079297766 7.817029454825674 0 -1 1
992 1 11.685317954618496 6.177880494338431 7.456952512547565 -1 3 0
151 1 11.143079580156941 7.805871748792739 9.155222394648842 -1 -1 0
2009 1 10.575786967363017 9.887973560987033 4.857099423777262 1 0 0
911 1 15.748161162879436 7.043522783617965 4.666984824392988 1 -3 1
1334 1 14.21346814283868 5.718903475881594 6.48068562480249 1 1 0
798 1 13.224943585436632 8.244948680580123 7.163954703740031 0 -1 1
1469 1 16.28567912146486 4.571429262616326 7.956682078150861 3 0 1
1265 1 13.747559212066069 6.414241886853005 8.786946388497828 0 0 0
575 1 14.000290820208695 8.113912566455936 4.948384311148948 1 -2 1
1090 1 15.816196116214728 6.978461627398504 7.348120441319997 -1 1 1
559 1 17.871341715500535 5.646874101598333 6.321513418677426 0 -2 0
377 1 17.732364732391183 8.110316671083567 6.381134345735074 -1 -1 2
822 1 17.661002096389474 6.7829766947689665 9.015716784113007 -1 0 2
1001 1 19.808309209182113 6.268638068364786 9.95549246435043 1 0 1
590 1 19.223578122580676 6.918822002785632 7.433198541201378 -1 1 0
1748 1 19.949434577432477 7.201363647315293 4.907922208609037 0 1 0
1791 1 19.779617338473336 9.380924472438378 6.911482429629339 0 2 2
1226 1 21.02386967764214 5.437089579830858 8.003063858757391 1 0 -1
363 1 23.5448304599974 5.811415123782371 7.977189151404696 1 1 0
508 1 22.365427593578865 6.1923094582773395 6.2040058249404595 0 1 0
82 1 21.422903516596705 7.831836069197865 8.270371904405051 1 2 0
450 1 24.240638436476203 7.8720582027763895 7.073991062054143 0 -1 -3
254 1 22.030900255536054 8.324724561990138 5.939432945161892 1 1 0
1502 1 24.460793415067442 5.396615114825457 5.800821571959567 0 1 -2
524 1 24.11505700372031 7.97893620392229 9.426163180143243 0 -1 -1
727 1 28.3678100782397 6.041076829334745 8.036303706477401 0 -1 1
1709 1 26.862665029288927 5.040519922137526 6.307888001180654 0 0 1
950 1 26.31291874780156 7.434429541793099 6.147651659716962 0 0 -1
480 1 27.93423003866367 8.213238429584305 9.122015516093853 -2 1 1
1075 1 26.10608972941052 6.612786504412111 8.426243541428498 0 -1 2
1740 1 0.4619446314165677 7.979105675630766 6.986613292598352 -1 1 1
638 1 26.22548162472532 9.042386952415734 7.716154947508612 -1 1 0
1385 1 2.839393007203975 8.70196635677428 5.675971967009783 0 1 -1
452 1 1.0657012331341842 13.171972712236814 6.407639763229008 -2 0 1
1039 1 2.3186033313839713 11.798201771841608 7.635636904653323 1 -1 2
1409 1 0.28080517958671647 12.604204278202877 8.902731420819517 1 0 -2
1930 1 0.8935492386995235 10.69703659000688 6.151847357944206 0 1 1
714 1 0.1621563873154157 12.787222576119422 4.544899658514289 3 2 1
421 1 3.9835100267941286 10.46638215480445 6.980674632149585 1 -1 0
393 1 5.997704748272889 9.375786452416063 6.077228099488824 0 -2 1
439 1 7.812937965843637 10.24156898018872 7.084498368273522 2 -2 0
1910 1 6.480386207337844 13.81526341588733 8.543816397400445 -1 0 0
498 1 5.4621377251262375 9.666103934766348 8.177593751389905 0 0 -1
473 1 3.974210012622697 12.750525882003442 6.419092992117271 -1 -2 1
1640 1 4.322800357039772 12.504794464931988 8.7633533732253 -2 0 3
769 1 6.237819576111741 11.881099317208173 7.591593914166813 -1 -2 0
750 1 8.145705579901865 11.708833380725652 4.825469405988886 -1 0 -1
1418 1 5.026678177150223 0.07100116814674262 2.5966245753788653 0 2 1
235 1 7.474973843618854 10.81728454396173 9.467761928251308 2 1 0
1769 1 7.5491318796976765 6.621159106940459 0.2385172058781287 -2 1 0
800 1 9.765766678864745 8.604596344199672 6.685161089187025 0 -1 1
213 1 9.948272972994314 13.38556788565123 5.44043291290877 -1 -1 -3
825 1 2.1552056987264403 0.4869689552816189 0.16173501674022636 2 -1 -1
18 1 8.194739102261853 13.129517066131847 7.122056691681628 -1 0 -2
615 1 9.784498697419997 11.283193433048671 6.318661621402253 -2 1 1
374 1 9.689649064348174 11.648938705923879 8.550030805355274 1 0 -2
1978 1 11.728034773163873 12.408710604507105 7.46489197307533 0 2 1
791 1 6.305731722154539 6.182569595152784 13.769518867168395 2 -1 0
1175 1 11.473400542838002 9.86002279382326 6.955528666337677 1 -2 0
1551 1 13.517924586235933 10.38585349018048 5.461443727327199 -1 1 2
1104 1 13.692550178281913 10.704915425730784 8.097825235786862 3 0 2
204 1 16.383500895931896 12.42004612198471 7.610822142540278 0 -1 -3
503 1 14.500693692165655 12.469057496932491 9.212182673209934 1 3 0
845 1 15.915116687124778 9.25198318468794 4.651074700974131 -2 -1 1
1990 1 15.350800883063172 9.665688089494575 6.786620058022451 -1 1 1
673 1 13.964366592604511 12.290798339005153 6.602223870234866 1 0 2
1000 1 17.6749308481824 13.199200008580222 5.690399802191008 -5 0 1
300 1 17.696200002292663 10.543058326139878 6.037494045913004 2 0 2
1688 1 15.762604249252982 11.662280080641501 5.301626984650134 2 2 0
862 1 19.563977589910664 12.218950310594188 4.992390015674133 1 0 -2
1153 1 17.338853433062617 9.333364314148948 8.313606964910829 -1 1 -1
1934 1 19.25790877821141 11.366962441129093 7.287585919005507 1 -2 0
1141 1 20.914167566554354 13.008402307701552 7.221230588710959 -1 -1 -1
230 1 21.709302016617457 12.643777046613561 4.852792176290395 2 1 -2
370 1 23.141957785716535 9.574796969578161 8.14099621914577 1 0 0
783 1 21.595377799978202 10.694206100423731 5.901808064092072 0 -1 0
544 1 22.73421767846311 11.722769047301501 7.6226125919637715 -1 0 1
1816 1 24.300356324293567 9.686597957571111 5.73254278874191 -1 0 2
1260 1 20.968183576687103 11.318816023778757 9.03047292490418 -1 -1 -1
132 1 23.711204338229656 11.888181128822229 5.6402872324691 1 -1 0
1800 1 26.676743590943687 11.912567203485336 9.043421638664185 -1 3 3
1631 1 24.66185024487155 12.998659079403474 9.345817071133924 -2 1 1
1188 1 25.770822042771258 12.459169586602188 4.789275420893978 -2 1 0
1064 1 25.259631880391254 10.30150039812607 9.60002928449511 -2 -1 1
1325 1 27.234977534643136 12.019436879953412 6.863204199857642 2 -1 1
1679 1 28.34292003600268 10.204749518133859 8.188148136453888 0 -2 1
855 1 25.133846809207135 11.197596916414984 7.272284572653836 1 -1 0
772 1 26.977956114657246 9.87263739175823 5.860360640365863 -4 -1 1
1516 1 25.245842105945556 13.404915204380004 7.3609479530118005 0 -1 1
354 1 18.390319960734445 13.761484065038108 13.900878113502213 -2 2 -1
1777 1 26.306556488770042 13.014397976466677 0.3720774811777621 -1 1 -1
1652 1 3.1583814951241322 0.6370826552036702 12.615287242903591 1 3 -1
801 1 3.092916393082109 4.320726968299284 10.279215243830208 -1 0 -1
811 1 1.4899603303580422 2.5764770916873885 12.591053522922259 0 1 1
1989 1 1.8530698246946424 2.192233136786316 10.414185889001775 0 1 2
1538 1 3.7694830118606006 2.877254315129396 12.111706325517176 -4 0 0
165 1 2.1897457217252585 4.8127619541170485 12.337550282285365 0 0 0
465 1 4.26435194712102 5.191016783591724 13.223497216508429 -1 0 0
1667 1 21.592980858451106 12.395676529659044 11.188352962431459 0 0 0
1655 1 4.23656048682289 1.3665881049269355 10.364653049578372 1 0 2
1609 1 7.222561120908765 2.6289325057297526 8.550768546577265 -1 1 0
622 1 5.437575736300907 3.4567909829324344 10.507238319830849 0 -1 2
1746 1 5.5965655463680335 0.9325005499760319 12.525509236141732 0 -1 1
246 1 5.736623063025864 3.4833097437807714 13.154582164682491 -1 1 0
1079 1 7.390754905195171 3.202348467646722 11.250829451461367 0 1 1
1692 1 6.5812237544096215 5.260672713305725 11.639368156530077 0 1 1
1465 1 7.811043744128285 4.696810210920931 13.379296884705498 2 0 -2
588 1 23.406871371913887 0.4101999779176554 11.870385905135366 0 -1 2
1943 1 11.7506079011741 3.2258384805083056 9.142364011181348 1 1 0
773 1 10.462801236493926 1.0293370571871827 10.505578384557426 -1 -1 2
154 1 11.442406715629165 1.452962877984751 12.546382959088021 3 1 1
1759 1 7.743227154548891 1.1659449356505391 10.469634666343849 4 0 0
1501 1 9.529981562340645 2.7849162679508574 12.624831497320335 2 0 -1
297 1 11.263686313539841 3.8388191936278004 11.907863482090994 0 -4 3
608 1 9.432372410552624 3.4196216019218717 10.087275422455802 2 -1 1
1835 1 10.170468903366485 14.158403171524297 7.642198392129627 0 0 1
274 1 15.133847670827167 1.54080111330582 9.401281046318982 2 0 0
1241 1 20.072744315879746 12.074240095338387 12.79804838047493 -2 1 2
1665 1 13.19673105986492 2.56407616015507 13.610021828178432 -3 0 0
43 1 12.86623303321542 2.5686165727271226 10.907230693165353 1 -1 -1
392 1 15.36904603583234 1.9324217686547485 12.020164611682128 -3 0 -3
1229 1 19.97500110466531 2.312411667509637 0.07103427010414007 -1 2 2
1928 1 15.160110297299031 3.902057343224794 13.986367728248178 0 0 1
968 1 14.56410072972859 4.525666043057072 11.781469997011081 0 0 2
1752 1 12.727122505867728 4.941273620206716 10.429376640474898 0 1 1
63 1 22.13668252672032 10.16814416614148 12.417901052571354 -1 -2 -1
1069 1 18.813413609519756 3.0385050001276537 9.552505545612538 -1 2 0
211 1 28.153653580403926 12.180341191987415 11.491211643216886 -2 -1 -1
1839 1 7.565539868484148 1.8156891194199123 13.075855475847119 0 0 0
50 1 16.451628944469505 3.227765685248461 10.422800481493933 0 0 1
573 1 17.724130640735645 2.602639283220333 13.183727074379417 1 0 1
187 1 17.58760258988182 1.3495398933874425 11.184649381286837 -1 1 0
55 1 20.006272941137503 1.8753828021607402 11.830730444390055 0 0 0
360 1 19.37850625424945 0.6932964726310711 9.736553048881838 0 0 -1
278 1 19.507735703068796 4.072743750222672 12.005603666068943 -2 2 -1
659 1 25.102376441077844 4.143760269810598 13.159511901594625 -3 0 -1
1883 1 22.910475760272554 3.91195308816581 9.652369639570427 1 1 0
408 1 21.82367320402126 0.729165912875098 13.359887340980327 0 1 -1
494 1 21.82165161587283 3.3823597222277253 13.126207413593184 0 1 1
1196 1 21.99453384479566 2.008955118398225 10.430907747837598 -1 1 0
697 1 23.798760707776523 2.792080855888898 12.218211951828435 0 1 2
785 1 20.889295784512257 4.279123663200424 10.539891879858612 3 0 -1
1057 1 27.16700380768821 4.3550818864029255 8.681149268181308 -1 2 -1
720 1 24.269457406343868 1.6157630834597423 10.06789961918978 0 -2 -1
491 1 25.63867441704047 3.872059149934932 10.210600008288054 -1 -1 3
1468 1 27.268992752564387 4.104296433350271 12.37499203029827 0 1 3
219 1 25.85251533358344 2.130039870033371 11.593975492282167 -1 2 -2
1684 1 0.5383873382924402 4.095445902928274 10.2827226175579 1 0 0
1131 1 28.13095868445221 2.196837562913734 11.060259554350038 -1 -2 -1
1389 1 24.830422443474163 8.022495998144931 13.824013784939195 -2 1 -1
1281 1 19.951201796681907 2.5945900325576443 14.035217183537084 -2 1 0
683 1 19.839003905763008 14.070450052737357 12.174805214044952 -1 0 1
1565 1 0.747405372236262 6.344067270199428 10.066543414284046 2 0 0
1558 1 1.5774159736346691 8.740033106342981 10.263630698410058 -2 0 -1
770 1 1.9786703790530535 7.887111927929546 12.887901025581515 1 1 -2
864 1 2.823108656807986 6.738509058095122 11.135751437061817 2 1 1
1301 1 15.23380125334403 14.09176311250533 5.837641140788366 1 -2 -2
1540 1 1.7977615482158626 13.631229749977045 10.431882209407325 1 2 -2
349 1 4.117596110536243 8.283254215685753 9.483145080317483 1 0 1
713 1 22.364737319754276 13.321688716435064 9.354378487729921 1 1 1
1233 1 6.667371368599444 9.337261481909165 12.819081095034782 -1 0 -1
1200 1 4.5358355589508825 5.869094802523531 9.949915059748104 1 -2 0
1808 1 5.2934625629972984 7.594988771547641 11.783463433728969 2 0 0
1526 1 6.759349881490654 7.122807146081048 10.20332683667564 0 0 -1
1310 1 3.550123906922059 9.344766319870576 11.52002555653307 1 2 1
848 1 9.425053768575633 5.376091633324671 11.749272324371717 0 -4 2
1694 1 10.189772535040127 4.579426847337226 13.936656960525616 -2 -1 1
164 1 12.294653802426811 5.767303741498593 13.202762933195187 0 2 -1
738 1 7.992471921037817 7.2355971223958955 12.268570465380481 0 -2 2
1402 1 8.968654263539934 7.196514950099979 9.961055018807443 0 2 1
134 1 11.686184193242845 10.167419629178813 9.158418146338182 1 -1 1
1199 1 10.433845123291793 5.2002874767702645 9.49573173378289 1 -1 1
814 1 10.286675829600537 7.472023757377787 13.15876235140158 -2 1 2
1811 1 11.297324904035264 6.534011909716508 11.181609272750977 0 1 2
1027 1 8.266909596926252 9.483406755368897 10.85006648876029 -1 2 1
1698 1 10.50797677846892 8.717476356451641 11.055388772002754 -1 1 -1
533 1 15.585113050059011 7.980001576011732 9.695208822451523 1 0 1
826 1 16.065634906224915 5.775104258672356 10.38386397167214 2 -2 -1
1008 1 14.760791528165933 6.109134036308448 13.460383117280584 0 -1 0
1021 1 13.867699435556958 6.79569826677951 11.305984759902914 0 -1 -1
589 1 14.944617279959768 9.030155102302283 11.796096105821338 1 2 -1
280 1 12.494574046091149 8.17031565757384 12.477387106484203 0 -1 1
1038 1 13.47628227040238 8.843317883154077 9.46686093527659 -1 0 0
1889 1 18.20553138946042 4.882965002196844 10.39852947708646 -1 4 2
850 1 16.447131559889506 7.260822104103354 12.189649531564253 -3 -2 0
1073 1 16.71391016510951 5.078958896466441 12.48317930698044 -1 2 1