LAMMPS data file via write_data, version 29 Oct 2020, timestep = 300000

2048 atoms
1 atom types

0.09111722866683358 28.260882771328234 xlo xhi
0.09111722866683358 28.260882771328234 ylo yhi
0.09111722866683358 28.260882771328234 zlo zhi

Masses

1 58.933

Atoms # atomic

689 1 2.0604107454718763 2.4504709128591884 3.2488762635544397 -1 -3 3
1406 1 2.906380475761194 2.664964145497972 1.0518184296969615 0 2 1
1927 1 0.7052581780769749 4.384083412431244 3.123429267002843 -1 3 0
1431 1 0.28396315445046805 2.457269222404832 1.2860511121985092 0 1 -1
825 1 2.9136618519924458 4.689664318343568 2.276954978594288 2 -1 -1
49 1 3.54763780235552 0.5662032698897431 3.9603187926179286 -1 1 -2
1635 1 1.3566411824417632 4.4252581552914885 0.38169388646608515 -1 0 1
1737 1 2.471440503703865 4.138834841972572 4.701858565760367 1 -1 0
1850 1 1.7924549182293579 0.3711627185656725 8.662375429716556 0 -1 0
362 1 13.784262897533933 7.426847946197415 0.5236067737303387 0 -1 -1
1350 1 4.196905708484935 0.9413606961414981 1.656713283207107 0 -1 1
1348 1 4.489557606673744 2.6298660587372686 3.301974942154858 0 0 2
1099 1 5.138330394014723 2.861338843424739 0.5867285914382419 -1 2 1
1877 1 6.886784492442189 2.645830425024755 2.616570909998454 1 -1 1
1283 1 6.56215196915041 0.8400690138123743 1.2684247907485142 -1 -2 -2
1051 1 5.881166195763962 0.4647477165244148 3.415206103237213 3 0 2
1810 1 5.532689333689619 4.622295896973129 2.298697833857215 1 -3 -1
1201 1 25.441292296649173 13.980330178350188 7.711572110897545 -2 -1 0
342 1 8.416308072985885 0.9236982206959486 3.4857541957284472 -1 1 1
1807 1 9.075706945540235 1.0643109674442095 1.009738420309763 1 1 1
425 1 9.1727364703845 2.994688308916491 2.2323618482794396 3 -2 0
971 1 10.781343022107459 1.1649646321528973 3.2132596635766872 -3 1 1
915 1 11.648076492532104 1.2936437251835764 0.7109218009516821 0 0 2
129 1 11.085800175439863 3.418403601836795 4.272140662598974 -1 0 0
958 1 11.876022463475516 3.4320684983591816 2.160246741271814 2 -1 1
183 1 8.96281271338899 2.78092596992182 4.706601129646403 3 -2 0
747 1 27.078132299331266 14.130212049924012 3.208330168696147 2 0 -1
899 1 13.26021477690373 1.5265205794425831 2.5982776489344 -2 -1 0
1429 1 13.43221911000081 3.6160352033032366 4.131689426163607 -2 1 -1
1259 1 14.320322237960005 3.5893628354908302 1.8643699819206332 0 2 0
1987 1 14.25493236725798 1.4057457784777379 0.4876712957424224 -1 1 -1
1330 1 15.551130544263387 1.6032905239511697 2.434316938189163 -1 3 1
1556 1 15.822898920233406 3.6485690554729375 3.858221322081278 1 1 -1
1047 1 16.570929009806058 3.737907630753645 1.2332996130300191 -2 0 -2
1509 1 19.05885852178377 2.7154689022654055 4.32101902303548 -1 1 0
586 1 17.740544906271012 1.873864576288557 2.2764665164679125 -2 2 -2
1678 1 18.946425549237745 4.665199797851517 1.0933096483597422 1 0 1
464 1 18.0039109021387 4.168583838155269 3.2558554485185995 1 2 0
235 1 17.172796912265916 1.5309608379031503 4.614786657154547 2 1 0
1301 1 20.138671564979965 2.259015577156131 1.8373533865923348 1 -2 -1
887 1 22.87278540447403 0.46510256428005664 0.4699031176678767 0 -1 1
1119 1 20.29782962869311 4.481699362769645 2.932506984883533 -2 2 0
1468 1 21.745396494141296 2.9352300225795704 3.677090705495353 0 2 4
1130 1 22.89343153087175 2.7521040360349995 1.3964364804384748 0 2 0
1083 1 23.268702726967398 1.16915214245392 4.487122275920821 -1 1 0
64 1 21.838246842465487 0.5142168363292398 2.737631357085531 1 0 0
240 1 21.405226495394523 4.239308123270139 1.0460542310877134 1 -1 2
295 1 24.157698090259743 0.7202004581802337 2.119698163415443 1 -1 2
495 1 24.147709698699195 2.804261264497691 3.1963099564547908 0 -1 -2
1355 1 27.94346591011717 1.4683809786384305 3.6604054414317755 2 -1 0
1871 1 25.09953873736209 2.642703234213372 1.0486789058036239 0 2 2
1041 1 26.475670145319256 3.3473719999568994 2.838543938363947 0 -3 0
1024 1 25.56502548622634 1.2463794338012928 3.9856497762623686 0 1 1
1529 1 26.537148066985246 0.9415701282614751 1.9477499360695225 -1 2 -1
746 1 26.829969630262823 4.315876423932026 0.6774083394230782 -1 0 2
1866 1 3.0824781443876867 6.557127187846337 3.593494237461791 2 2 -1
1117 1 1.467102440316007 6.24014637271906 1.7554006481155966 1 -2 -2
1573 1 1.4168832466412082 8.389916109323586 3.2876384263451888 -1 -1 1
1490 1 2.1392276215200083 8.506856738531054 0.7002959097605063 -1 1 1
516 1 0.7259727506397524 6.305709473397425 4.234778467925371 -2 -1 0
879 1 27.999475004649014 8.272948438896703 1.2419121748456627 -1 1 0
177 1 7.44388880501392 2.7941908734218397 0.3656693384684749 -1 0 2
1598 1 24.051627172474937 0.1074443167598593 11.276598521566905 -1 3 0
400 1 4.890708157205192 4.771308515876407 4.539357160340266 2 -2 -1
1510 1 7.237460595185835 4.414157866466093 4.039742807600032 -1 0 0
332 1 3.5527115218506613 8.66631311376886 2.5670549481178093 1 0 0
1188 1 3.7131344069195062 6.637968843157365 1.2535121443463684 -1 1 0
1796 1 4.479481040839055 8.844553493859006 0.43817198091150134 -1 1 -1
1481 1 6.247652607247231 6.65962370859944 1.2062158054802776 1 3 2
250 1 5.324088871636899 6.824682285956993 3.2718099909286438 0 0 0
1496 1 5.956196123843064 8.673331536212944 2.153950410446109 1 0 1
359 1 8.023980750500566 4.814293779658764 1.5798347329937905 0 2 -1
1448 1 7.723174277385454 8.852648936243927 4.04269800830488 0 -1 -1
206 1 7.744946677231018 6.581447775985738 3.0017743703337283 -1 3 -1
2042 1 9.415425970898156 5.1329290206919245 3.96965114891711 0 2 1
54 1 10.366168919304847 5.180361947655593 1.6110211584914906 -1 0 -1
497 1 10.121772369522917 7.266628997173097 3.027680363284045 2 1 -1
1126 1 8.601410295430307 9.259161914172148 2.0123038417618226 0 0 1
1180 1 8.426304998676777 7.2601681114355205 0.9766727955295046 0 2 1
1550 1 10.957305652670408 7.2085351416088 0.8893340061867393 1 1 1
159 1 10.148912413035017 9.487255052595822 4.288737361665158 0 1 0
45 1 10.940368069094095 9.415936465637943 1.3955265883688395 -1 -1 0
1785 1 12.067917646303936 5.655893053342933 3.5468094228803784 1 1 1
1265 1 12.665705261997807 5.354349143229542 1.2475461979996698 0 0 0
99 1 14.407273742558774 5.563931230867787 3.1865983016906374 -1 -2 -1
668 1 12.564031315267451 7.679514384066542 2.7386604933629046 0 1 0
1281 1 15.385602890682902 5.580417210052845 0.8517489138418615 -2 1 0
776 1 15.242065853299419 7.8953461928416475 2.1617136521853726 0 -3 1
984 1 14.021255126644641 7.580625106104888 4.875901626907428 2 0 3
1104 1 13.462810127279061 9.509721573803589 1.5335250429344518 3 0 2
297 1 27.912172302187663 0.3016224808874784 12.960064124897157 -1 -4 3
515 1 17.44251222967177 6.427208884365916 0.534735140658149 0 0 0
1811 1 16.475416842733615 5.665527328869725 2.7429862420307423 0 1 3
32 1 18.999382232902633 6.233799435493555 2.762283138028651 0 0 0
1371 1 17.40247934485476 8.371304264307119 1.7108772165925412 1 -2 -1
985 1 18.810965806512357 8.391910454983817 3.999268787097089 0 1 3
479 1 19.99186264784221 8.552822493859745 1.8756165693814335 -2 2 1
498 1 20.24287036320414 0.19546773891065783 13.525236167558058 0 0 -1
801 1 16.43649409736304 7.920378153600812 4.250533686896112 -1 0 0
591 1 23.980914117572446 4.576880058594309 0.3086574278241603 0 0 1
173 1 22.841425531899844 4.928052486407468 2.7841965868450314 0 -1 2
534 1 21.346422725337142 6.595442384905274 2.2265276708151887 0 1 1
596 1 22.651792014087448 7.0341800968714825 4.155364958745332 2 1 2
1708 1 23.846671090380426 7.1042993607616065 1.7494690378669975 -1 2 0
1295 1 22.23062289755547 8.661767769898148 1.3102340320055215 2 0 0
600 1 21.18945229729028 8.660744629180545 3.6307325880384034 0 0 2
1659 1 23.815321422860208 8.911571620577993 3.193596738966189 1 1 0
1463 1 25.2754140260311 5.235315503833525 2.445119483298504 -1 0 2
880 1 27.34899367548578 8.107395141910946 3.4448383276368744 -2 -1 0
1494 1 27.384217044431047 5.915093971666947 2.305258129203123 -1 1 -1
1202 1 25.37981294611167 7.400919488973205 3.962312317413159 1 1 -1
1993 1 25.583544478567397 8.301175060517986 1.6839469863791654 1 0 -1
528 1 26.72258788626506 5.46072823552425 4.502264326099877 0 1 0
471 1 24.248165264463097 5.14931299768945 4.53709948606351 0 1 1
1890 1 0.5860430869881219 0.34461613319931383 10.651873414219489 1 1 2
686 1 5.574090698245527 12.683391591072985 13.812330719090586 0 -1 0
1539 1 2.441514955143861 10.736243287014268 2.067924851308124 -1 -1 1
213 1 0.654663194534085 12.25382344424003 1.4401853433814393 0 -1 -3
494 1 2.373217357338622 12.633728456443267 3.4577398796432197 1 1 1
230 1 3.3890822631707183 12.730209625895066 1.0980728569693778 3 1 -2
2032 1 1.8587860050891223 10.296198782374915 4.360834439691077 1 1 1
1515 1 0.2689104334716001 12.200462640852452 3.9020183037122202 1 1 0
549 1 4.316229757351679 10.33128492191792 4.185841267021906 0 -1 1
1651 1 4.94941366889538 12.884569572762643 2.9979647977459356 0 1 0
760 1 4.91308181603941 10.886563822910393 1.7711453254149125 0 -1 -1
1422 1 5.857214505040596 13.064769605676327 0.576526277037769 0 0 1
923 1 6.535243508144427 10.947186055690176 3.7497694999124946 0 0 1
125 1 7.50370720003859 13.339170341833599 3.02893238428632 0 0 -1
103 1 7.255475075508702 11.178746025492856 1.5261276118310743 -1 1 1
1001 1 8.370430628338926 13.401367354990144 0.5945713426460445 1 0 1
822 1 9.641477559939686 11.395757560410981 1.3393869351335923 -1 0 2
476 1 8.626637048479957 11.090894587476711 3.5870822495807526 0 0 1
505 1 9.876721230970086 13.310529892554426 2.51499439427973 1 -2 0
450 1 11.163003249685369 11.23047219172406 3.2105486219638895 1 -2 -3
1007 1 10.82295554155359 13.445021373643241 0.5892258737532841 -2 2 -3
1010 1 1.7414358438562838 0.6921949975205428 2.0315065294284014 1 -2 3
1650 1 12.771121603914025 9.718237236912639 4.286266611479992 2 0 1
338 1 12.014946446237714 11.670935063833639 1.0271719289453072 1 1 0
1296 1 13.677692763878065 11.595331834509595 2.804963447709153 -3 3 -1
540 1 15.134254400283366 9.815526025965289 3.7051450749683754 0 -1 0
737 1 14.36531430209374 11.812547538602123 0.7040289845583443 0 1 0
78 1 14.522453260632446 13.127808754696018 4.4614525145779025 0 -1 0
316 1 12.412321143030502 13.48325960243741 2.6316117848548295 -1 -1 0
1050 1 14.635750986237541 13.777225454634854 2.2036930770377525 -1 0 0
315 1 28.090797401328643 12.22570402544676 10.604606864485152 1 1 0
1142 1 15.835726480624958 10.147986389630818 1.6430824587598443 0 2 1
1722 1 16.043744604400032 12.125753015952382 2.7736636868881104 2 -1 1
1758 1 16.944975517907153 13.39456694919361 4.502981366002202 0 2 2
151 1 18.681164896289474 12.34465963164529 2.51642161649887 -1 -1 1
1564 1 17.460043444801897 10.216675092255235 3.303321385178423 -1 1 1
1434 1 18.570334492440907 10.178158420534864 1.2024931279135433 -2 0 0
1896 1 19.751504493309746 13.718239714150803 4.126223147923166 -2 2 1
462 1 17.05735881912591 12.046851939940112 0.5206382415160031 -1 -1 0
1023 1 20.13616127108029 10.517468736774612 3.3834695045921483 1 0 2
631 1 18.6935869424291 11.535027800852081 5.044168848747324 3 1 1
1288 1 24.677586477307912 12.107173760475016 12.685474900988787 0 2 -1
94 1 21.042215626225484 12.515128940026239 2.373802955584905 1 -1 -1
1511 1 22.709922279500674 10.818989560836755 2.645452230152714 -3 -1 -3
326 1 20.858744014261724 10.62891086504382 0.8911504275691425 0 -1 -3
1979 1 23.707941130572912 11.760158850785087 4.542242063023816 2 0 0
561 1 22.431564361809386 13.740198866132333 3.765599185988093 -1 -2 1
107 1 21.457110963069574 11.820863728153682 4.726982058698497 0 2 -3
2007 1 24.10103716204747 10.321294065338575 0.8380972690468371 0 0 1
669 1 27.115258954620522 12.530948167362801 12.679991725995022 1 0 1
296 1 27.24943967709313 10.292382676571696 11.412820297506022 -2 -1 1
856 1 27.700144833021113 10.438118008104915 2.548016554949456 0 0 0
1088 1 8.270092396879498 13.052857900324744 13.79757633221899 0 2 2
1433 1 23.8572378392954 12.658924330308684 1.883196526907082 -1 1 -1
1428 1 25.338910286679486 10.482950714390288 2.7763054143426 -1 0 1
1060 1 26.1775068451469 11.972407261159587 4.181367969674215 -1 2 3
1404 1 26.395251974248474 12.259290608618972 1.7041053909858546 -1 0 1
1664 1 26.45038173690356 10.581407164831386 0.364353113242747 1 1 3
2029 1 26.574340040879427 14.02347190540754 5.336220252078321 -1 0 1
1441 1 24.64223665529245 10.040408576762498 11.766189592189654 -1 0 0
428 1 1.4263120364993254 2.0885997107673013 5.523252425255141 0 -1 -1
1730 1 2.800347452083614 2.3978954615134542 7.936655099679953 -1 3 2
402 1 1.2531873790270196 4.1746713611059745 6.764727344665455 0 0 0
1622 1 2.7388674154906045 4.5456468123089495 9.043720508918126 0 -1 0
314 1 3.87605994866146 2.410175417457574 5.41295716883571 4 0 0
539 1 3.83579938429442 4.483755994622799 6.77485168499357 3 -1 -1
748 1 0.36380887387203137 2.1747782113778604 7.793777519618104 0 1 0
16 1 0.3213881493579275 4.256073941636377 9.139536946887803 0 1 -2
1873 1 25.793882712281906 14.142800861035647 11.926857632237226 1 2 -1
1264 1 22.46201348225238 11.903701965329834 0.36431688443432575 1 1 1
1109 1 4.288112359122855 0.37644761836902146 8.361181415775505 2 -1 -2
700 1 5.050094763168743 0.5048251258640436 5.988309379595009 0 -2 2
430 1 6.419533062261154 2.370558737662123 4.852911075460707 -1 1 -1
291 1 7.606824173337573 0.2644788710261404 5.7295283037125255 1 0 2
1326 1 5.325741829462467 2.3665530132190944 7.347187452505282 -1 1 1
1362 1 7.8856124352353705 2.822831242810229 7.014588608775808 0 1 1
1320 1 6.825944540740005 0.5861386310013704 7.890181296066616 0 0 0
184 1 6.700942504212401 2.5345524420020373 9.442603691649788 0 -2 0
393 1 9.891879635477927 0.8654048367212431 5.5617189699771465 0 -1 1
238 1 9.069215979434754 0.7845906307502463 7.800577346949817 0 0 2
371 1 10.214314170003748 3.1876983681043582 6.54745883659321 1 2 1
1217 1 11.678334360872563 1.065227999642376 7.300595392277119 -1 -3 1
136 1 9.524948623240197 2.684535838627829 9.027834376537827 1 0 5
1391 1 11.861637360199586 2.9881623797373535 8.917221632094373 0 0 1
1723 1 14.757817557467064 1.6367417010761152 4.873698093977952 -3 -1 0
289 1 12.207490312650336 1.529057713579534 5.013561848013704 0 0 -2
1454 1 12.454303433763801 3.47021794523743 6.374858173377272 0 4 0
1897 1 14.766913395026178 3.61356064222453 6.4349142775081125 0 0 -1
1418 1 14.25242960718732 1.4060488228738164 7.263518263690253 -1 2 1
221 1 14.172639402196289 3.422808929089145 8.624786860301988 -1 0 2
1907 1 15.879335865641032 1.348448167025814 9.175674997859984 1 3 -1
1244 1 13.184040055917944 1.157654829366318 9.34813937802535 -1 2 -2
1354 1 16.753423251674114 1.4768844324625914 6.8576164401632145 0 2 -4
128 1 16.968499653779794 3.2915939532383467 8.402750952179577 0 2 0
1375 1 19.138912088946455 3.5129738824122674 8.060091754942015 0 0 1
619 1 17.242687479053984 3.865362819731811 5.647737587615583 -4 2 1
806 1 18.452886836541083 1.52203867457443 9.13976697723704 -2 -1 0
1898 1 18.919221363339275 1.8232032687117505 6.482443728031494 -1 2 -1
527 1 19.30236544214469 4.639595795453524 5.3261273376668266 0 -1 0
2030 1 20.647352583231168 1.1941211512899932 4.672097541891527 -2 1 -3
431 1 20.711820266602984 3.0063424055978154 6.367143931494612 -2 2 0
1886 1 20.84428365553049 1.5880470798396416 8.577849086173773 2 0 1
1445 1 21.982523019627784 1.1907351941286057 6.536869711350233 1 1 1
1586 1 23.217175127682204 3.3531837371267734 5.625960693487025 1 0 -1
617 1 22.155360399163598 3.6616723279551335 7.9379376478386465 1 2 -1
1308 1 23.476757177607077 1.6590636734035404 8.368108404177457 -1 0 2
465 1 21.7772252514825 4.773390570647309 4.783731736145618 -1 0 0
1733 1 27.922406293004308 3.6299648020497846 5.0174855744189 -1 3 3
623 1 24.597430633680794 1.3997143943529584 6.351310429236557 1 1 1
188 1 24.576234871287042 3.6561960063811503 7.769113486883995 -1 1 2
1166 1 25.53917026587365 3.368240296088847 5.223909041920834 0 1 -1
508 1 26.988842950126667 1.5937687773644102 5.879314168297448 0 2 0
1639 1 26.075645474784487 2.1540814769304357 8.227570082361586 0 2 2
633 1 26.97990384319381 3.9746076630217173 7.2648169355284775 -2 1 1
84 1 3.335025253664833 8.216185090411095 5.063293738267817 -1 1 -2
324 1 2.4859895994350643 6.113681531384206 5.8444514339599465 -1 0 2
597 1 2.6471479911041964 8.139728643484279 7.315749378855385 3 -1 -1
483 1 0.8717441635934605 8.151387416071065 5.614225832457703 1 1 -1
696 1 1.4763968582880316 6.369135808278201 8.131551553335145 3 1 -1
2003 1 4.055256307853597 6.424872250301886 8.198752974202039 -1 0 2
1671 1 5.242780780216039 4.535942916043924 8.671093563132727 1 1 1
626 1 6.279226108206139 4.485375621492016 6.460395461573301 1 2 0
1070 1 5.70609921987268 8.48343707811596 5.090117988313074 0 2 1
687 1 4.671567598299136 6.58904858894597 6.03287137652073 -1 -1 1
1660 1 5.084986425467457 8.696154538470177 7.100077505575725 1 0 3
306 1 6.880638152949142 6.4053850904274805 5.194348204618096 -1 1 -1
805 1 6.458766130883389 6.51210163244943 7.54974095493312 0 -1 0
1493 1 7.7749349627798185 8.583924761353034 6.600366086239412 -1 0 2
545 1 6.592217489207042 8.556551428459692 9.012671434361966 1 1 0
3 1 3.925447312920189 8.44877947703893 9.36684163317385 0 0 -1
1663 1 7.937750314069018 4.6614322919538 8.58712414593135 1 2 -1
953 1 10.511958082510967 4.78481848847362 8.130492727410795 1 0 2
1761 1 11.476379411851417 7.783314193607898 5.052318801340644 0 1 -1
1648 1 8.554392879147265 4.78292753665474 6.1920329563592365 2 0 0
1118 1 10.945932955863974 5.314058642896571 5.598409712150304 2 -2 -1
1831 1 9.383543504042217 7.096497233006059 5.062244836022115 0 2 0
589 1 8.74584716216582 6.779381867659695 7.712241889783496 1 2 -1
478 1 11.308875898664672 6.989148433652228 7.196011932450369 -1 1 2
1439 1 9.101318896156366 8.977158980673961 8.855998822893385 0 0 0
579 1 10.054294495199468 8.643278109690865 6.86784344940649 -2 1 1
917 1 11.746136709661235 9.202707136137603 8.580357370970967 -1 1 1
758 1 13.013841142604612 8.741885409066768 6.691168083799588 -2 3 -1
440 1 12.658884905681195 5.2230726185084295 7.885028154603808 -1 1 2
718 1 13.021434533170414 5.498897095434118 5.787946803502583 2 -2 0
830 1 14.215569704853765 6.899457074488956 6.999383656034483 2 1 1
877 1 15.67979318435281 5.365912926416246 8.0217410226782 1 1 0
354 1 15.467964759094702 7.315166735912325 9.31842879100605 -2 2 -1
141 1 14.184642243788037 9.421231348682864 8.42821332750197 1 -2 0
132 1 12.793205954249643 7.0654391724526295 9.282613648202634 1 -1 0
216 1 15.395957476342332 9.089642976542152 6.173771408469555 0 -1 0
796 1 15.36930301164013 5.660501312725818 5.313292700686828 0 2 1
538 1 17.82396764865883 6.1472963259549465 4.800672525584951 0 0 -1
46 1 16.67218192090231 7.097384170497149 6.750110357783347 -1 0 -1
520 1 18.1108039731293 5.542956280084161 7.282821326854896 0 0 -1
120 1 18.073198482776206 7.369765557803213 9.111253746560989 1 -1 0
152 1 18.88861550965283 7.698569639241767 6.484128522390024 -2 -3 -1
1352 1 19.613957023638356 5.504539005268485 9.464828523817419 1 0 -1
1152 1 16.881125846861927 9.231192706484945 8.27661782915446 -1 2 0
1129 1 20.36614743958716 6.501703428993794 4.666568819523882 -2 1 0
308 1 20.841507331834215 7.5655504168269845 8.420687956935433 2 -2 0
113 1 20.570639936067998 5.558699381285803 7.090632433493388 0 1 -1
1140 1 22.855145979176427 5.674409843356259 6.843550196693405 0 1 0
261 1 23.06310501206695 7.97239655151223 8.137879891305873 1 0 2
86 1 21.568822804041915 7.7129476713776395 6.324854119617579 1 0 0
653 1 22.07358881796315 5.911582800988754 9.125730788053875 2 0 3
1351 1 24.186548373195563 7.505533658759135 6.211794475776982 0 0 0
655 1 28.096312118567397 8.174225276051528 7.958339871194106 -2 -1 -1
1307 1 24.760340975385702 5.758262128150967 8.81480965454982 -1 0 -2
57 1 28.06122742942364 6.0866628198847454 6.612056419930275 -2 1 -3
911 1 25.495481480463425 5.540817900321251 6.7400775485516045 2 -3 1
615 1 25.650865243223564 7.806172314023969 7.906426280183584 -2 2 1
194 1 26.555537756770477 7.888905648677162 5.825805511861413 -1 2 0
1459 1 27.082075372820356 6.032790801983673 8.766347863740949 -1 0 2
1333 1 2.2555604155693834 12.23744596202525 5.6193796823784075 -1 0 -1
1401 1 1.1014174290648886 10.008885480483437 6.801020022114377 1 0 0
1930 1 1.1957319505883197 12.253664099076685 8.088523078828159 0 1 1
1770 1 2.5858965079620764 10.34086077806145 8.63897909799036 -1 1 4
1018 1 3.629244815980936 10.348009199772656 6.3766972379620395 0 0 2
892 1 3.728923033877724 12.321029777604322 7.647556340176109 0 1 0
1128 1 4.641122573583232 12.53548559304714 5.306107695245279 2 1 0
1085 1 6.039360182561523 10.602630215209032 5.8910184920714235 0 1 1
1410 1 6.241781432205646 12.47342174590633 7.232242630721669 2 0 1
544 1 7.064269237515631 12.891265264326986 5.113807664274907 0 0 1
1895 1 5.02103087081164 10.583761290517208 8.527793426390406 0 -1 2
962 1 7.402103070746644 10.638217178087823 8.175909020178533 -1 -2 2
1934 1 8.44601955219473 10.68733429591082 5.808205006507796 2 -2 0
944 1 9.604022556248495 12.600011155920038 5.068501718160421 1 -1 1
408 1 8.596384395253477 12.585870270153181 7.013409980642566 1 1 0
1505 1 10.052722468892476 10.969017348669452 7.819635508785538 2 2 0
499 1 11.194041689809854 12.911560813607634 7.0627038457643225 -2 -1 1
1284 1 11.461868379643017 10.58839791552117 6.053810249138689 1 1 2
226 1 12.034378930789646 12.696201350585172 4.978065993152314 0 0 0
1840 1 10.020558048421641 13.112069870481838 9.044744851154693 -3 1 -1
211 1 12.817990595212654 11.315020992333077 7.628582908766719 -1 -1 -1
770 1 12.914717473642082 13.127551264231066 9.234449107738488 1 1 -2
1594 1 13.85479284880733 11.15255017564292 5.660692444756072 0 -1 -1
1179 1 13.97205873947246 12.962224763712653 6.7742378778637615 1 -1 0
1484 1 15.230931902346546 11.161627783523558 7.5990269097865 0 0 1
11 1 15.293714177660098 13.376106206229071 8.954479357517465 -2 2 0
1709 1 16.242971322509014 13.51497506135975 6.7918541384029 0 0 2
562 1 16.21288986760807 11.427679927006137 5.44085154230252 -1 -3 -2
1473 1 17.70298511258987 9.51444112243806 6.051393680721581 -3 -1 -1
699 1 19.213493562589107 9.449258413452103 7.9549030652604715 2 0 0
71 1 17.52151314787632 11.53059090668972 7.342793625673099 -1 -1 -2
1691 1 17.732306560686425 13.681762572991543 8.801977163566375 0 2 -1
98 1 18.63686688551647 13.45906856573461 6.377160233743447 -2 -1 -1
370 1 19.193874221813644 11.591379391573101 9.327626034537445 1 0 0
1074 1 16.49348244099177 11.423550232443114 9.74258666094752 0 2 1
1388 1 21.517048156874182 14.14893729487635 6.037005957881515 2 1 0
2040 1 20.339624334130335 9.601627346086788 5.578461342049981 2 2 0
1086 1 20.120215653929087 13.787661612105026 8.310161763619499 0 0 -2
364 1 20.040719555643093 11.429182737271143 7.03090052593966 1 -1 1
788 1 21.78715485663959 9.834332710567926 7.5491217419252035 -1 0 0
363 1 22.79456414472513 9.415607884259508 5.271849054807274 1 1 0
543 1 21.75108975968441 11.659458082333932 9.166864035348944 -1 0 -1
593 1 22.616783809879003 12.002769793050916 6.98015503116516 -2 -1 3
1508 1 24.260192860316245 9.753944960569944 7.178649558849287 -1 2 2
1160 1 24.091347225731973 11.981300127831249 8.756614489917263 -2 3 -1
2039 1 24.03781215122507 13.887895555187793 5.722653513676008 -1 0 1
1412 1 27.335972105900538 0.2607605978636869 8.802167033391314 -1 -1 -1
232 1 0.620186029322607 10.262607830474874 0.3295759693446342 0 0 -1
1291 1 27.596798665462607 9.959623897234556 4.866654087665065 -3 -1 1
1213 1 28.15146462836241 10.494155297778027 8.750036778247367 -2 -2 0
1185 1 25.153244540900047 9.738406341860697 5.007220775548428 0 2 -1
182 1 28.08636343350277 12.221557099966615 6.349101491443594 2 -2 -1
502 1 25.331236393881944 11.949480115877721 6.209946648624946 1 -1 0
186 1 26.553377057947415 9.884537104592129 6.912518275751407 -1 -1 0
131 1 26.700946813027713 12.100177118955429 8.21026778054739 -1 -1 2
650 1 25.447481039579387 9.836775093258105 9.109728550069809 0 -2 1
118 1 4.832355441610488 2.828680375681848 14.093182604291755 0 1 -2
51 1 24.12049522910177 4.224534829095951 14.11896502674084 0 1 1
1905 1 1.8448859274717353 2.5359097260410506 10.135320140535073 0 1 2
2004 1 3.2120022695536856 2.531640076988454 11.960761895713274 0 0 0
382 1 1.0269424510382978 2.318867417226877 12.246873781786347 4 1 -2
1656 1 1.6714934778726196 4.427185040588428 11.066606268399177 -1 2 -2
1071 1 0.6906986866906286 4.673630448642973 13.520576689566761 1 1 -1
1994 1 2.0683086781753866 0.49549187821383056 12.849133323307036 0 -1 0
1613 1 3.0674150925605215 0.3501110356462911 10.749443950036632 2 -2 1
1019 1 24.800434475811137 13.808072856129828 3.5785346236123594 1 1 0
1753 1 4.270820131595025 2.6239191487432074 9.628742047498319 3 2 -1
1141 1 26.382412493463278 0.1501157670342555 10.929023488788426 -1 -1 -2
178 1 7.376196883153703 2.6849403248102433 13.477412528356812 1 0 -1
933 1 7.553377756895398 0.9714397850934474 12.30040127555678 1 2 2
818 1 5.645529159015482 2.8633064633539687 11.94655995050086 1 -1 1
954 1 4.599930292750091 0.6485335729673628 12.534538152008052 2 -1 2
1834 1 5.6943843453144245 0.489501405653866 10.334296587754586 0 0 2
452 1 5.702068438552502 4.93510363620434 12.991982271966776 -2 0 1
492 1 10.94921934894282 0.8516448378022253 9.679913910044043 -1 1 -1
1225 1 8.286614775307596 0.764407491266624 10.242802237038843 1 0 -1
507 1 8.390471783001841 2.9256740834192154 11.297435128836462 0 1 1
1549 1 9.833465846005758 2.7775353919385153 13.169275131486495 3 1 0
389 1 10.618336824375742 2.974725683280802 11.148033148407894 -1 -1 -1
1449 1 9.80826268546857 0.8406319029655239 11.94474153297819 -2 0 0
68 1 11.534675509486794 1.206150869747563 14.012637840555861 2 0 2
198 1 12.021773047706795 1.212136036817946 11.592686007453942 0 2 0
1757 1 12.070442468575358 3.2754718000407133 12.954846958437168 -1 4 0
82 1 13.845029084835277 1.277712207425952 13.586058341138976 1 2 0
1735 1 14.785334563095548 3.586552256311898 12.892093987866843 0 0 -1
1455 1 13.244779895099592 3.4096269604646894 10.737416637859544 0 -1 -1
1869 1 14.684234352701058 1.2909871164776052 11.112588170341459 1 0 2
1782 1 15.591243296983894 3.4880490468941763 10.726367508920058 1 2 -1
1077 1 16.113399114870994 1.593208924832674 13.435547163719443 -1 2 0
1034 1 17.322689130374187 3.744919252113505 12.377811228738688 -1 3 -3
1832 1 17.064246468297874 1.589140743076294 11.234980543245229 1 0 1
728 1 18.342963433742817 3.6664193635752 10.44910744554516 -3 0 1
864 1 18.918067338564448 1.711524573856418 13.032762834357106 1 1 1
1941 1 20.11458971761118 1.5377191264147345 10.926202094545364 1 1 1
1522 1 20.153767764425986 3.598415972539583 12.464795381424304 -2 0 1
1944 1 23.380200220548858 3.9830716937638044 9.73933219273779 0 0 -2
2022 1 20.91820674358953 3.5377950847206026 9.958421591086303 1 -2 -1
1073 1 21.42026771636229 1.8294616208971926 12.633327222130179 -1 2 0
1893 1 22.537498913839322 1.8513503914399858 10.469110466241265 -2 1 -1
1655 1 22.631661869333463 4.298774544243077 12.016481330855125 1 0 2
2035 1 23.849337961714426 2.1565842036585674 12.488632276420963 2 0 1
1751 1 21.74818410084319 13.837116493298455 10.203793019905559 1 -1 1
1033 1 26.218994548093534 4.196469007144367 9.626125366148903 0 1 1
287 1 26.45781974534524 4.2074063497002125 13.637975181598641 1 -1 0
147 1 27.64145849772281 2.1930359964319583 10.205485028933792 0 0 0
1501 1 24.91967037518878 4.070831243855524 11.50788469540876 1 0 -1
1277 1 25.067260770276405 2.0656447322376037 10.234101768535343 1 1 0
273 1 26.308816212678977 2.2346529211299515 12.184387034553636 0 0 1
1314 1 27.444723426475115 4.3850622134330175 11.546352349551729 0 1 0
1249 1 25.695112433660846 11.841109894404967 10.706952938881429 -2 1 1
1530 1 1.8608351568826036 8.57088422941025 14.004061209705457 0 2 -1
1824 1 3.199262168231322 4.621607693190349 13.360788054525736 -1 1 1
919 1 1.2885464706994965 8.5594404673495 9.738664488396768 1 -1 -1
695 1 2.925921967269792 6.69070310660183 10.248423541110789 2 1 -1
1704 1 3.1251381048869558 8.737910402213496 11.637653506251747 0 -2 1
246 1 1.8481691859482619 6.455215228612947 12.701095901764223 -1 1 1
792 1 0.6309402544212049 8.42667438616401 12.24715340721296 2 0 1
208 1 0.44855896070949536 6.377464149232995 10.677453214774655 -1 1 0
674 1 4.159928054171365 4.564377917306877 10.896934980878697 2 0 -1
720 1 6.629269852124811 4.578308131187381 10.59181018943189 1 -2 -1
1353 1 4.364970856898598 6.698361619873239 12.24818776363088 -3 2 -3
1957 1 4.879302954198641 8.77378956801753 13.310573272392514 0 2 1
1478 1 5.34172530471 6.52721788633267 10.110201483817589 -1 1 0
1815 1 6.757974501001677 7.075030922175269 12.090138243546944 0 -1 0
1734 1 5.392907866463662 8.78286864837471 10.971044070278005 2 1 2
637 1 7.2446400560495094 9.089371527711378 13.358156689975594 1 0 -1
34 1 8.180489343361652 8.900695805836095 11.190114562454216 -2 0 -1
632 1 7.843357237163582 6.7522934407512 9.82101884807751 1 2 2
581 1 10.307968748794899 7.040754958072516 9.433674328482951 1 -1 1
346 1 8.199483971236129 4.776668388919303 12.630075951374845 2 1 1
1706 1 9.340399023429086 4.994214130669104 10.434079355399069 1 1 0
247 1 10.564220847014404 5.017050710426363 12.370763651690346 -1 1 -2
474 1 9.530487203172402 9.210117741125444 13.407685866748805 0 3 1
1021 1 10.436369876724545 9.174567163918033 10.541543716785739 0 -2 -1
1692 1 9.677520382028405 7.048092457611045 11.685521922267078 0 1 1
1470 1 11.734292364824416 5.041758011996519 10.424888082300109 -1 1 0
2044 1 11.858197191192167 8.948963863693653 13.007678522799267 0 2 1
1646 1 10.67816492619292 7.075114501581068 13.927610992291948 0 2 -3
1312 1 11.98477173139246 7.182107989450866 11.617375273897727 -2 0 0
1974 1 13.225252739502741 5.462775198505262 12.029319840974564 -1 0 2
717 1 14.277928234417189 5.230702407220466 9.928482786730362 0 -1 0
1495 1 13.4185142002271 7.3613953536406616 13.689109196807554 1 1 -2
366 1 14.403924771846599 7.457026592021509 11.472388317604723 0 1 -1
1497 1 12.859679160812584 9.244513417305022 10.849612107708532 0 1 1
482 1 14.424402206786269 9.419946103278688 12.775155798572278 -2 0 0
305 1 15.486073323365268 9.351710152616997 10.614514134059833 0 0 0