LAMMPS data file via write_data, version 29 Oct 2020, timestep = 300000

2048 atoms
1 atom types

-0.12218640413328075 28.474186404127806 xlo xhi
-0.12218640413328075 28.474186404127806 ylo yhi
-0.12218640413328075 28.474186404127806 zlo zhi

Masses

1 58.933

Atoms # atomic

1692 1 3.2405659324982046 5.092252873127191 2.1294208387961566 0 1 1
580 1 1.0401827703577675 3.8708984881459028 3.0008148408613886 -1 0 1
1543 1 3.123975746911349 2.693241242474498 2.717506630882369 2 0 0
400 1 4.952497958231473 0.7711284616299611 3.71258540195445 1 -3 -1
375 1 0.5374243720998885 1.3951691490833853 2.670572305161514 1 0 2
1572 1 4.164965627836241 0.006195091426643068 7.250578347194154 0 1 0
1311 1 4.841448396481728 3.3514149579921333 4.214617970762375 1 1 0
1447 1 7.047385106504289 3.3831423305296355 3.431540662336199 1 1 0
385 1 4.954399578951239 0.4006318967209218 0.8457352788219362 -2 0 0
808 1 8.181126257092346 0.6783515212702786 6.420600556396963 -1 0 0
1938 1 5.51411203958049 2.291220496087158 2.0971782757379938 0 1 3
378 1 7.2862341218253315 1.1080469550313425 1.994810701777614 0 2 3
1400 1 6.666096816304711 2.443562271464747 5.4767519439025225 1 2 0
1995 1 7.124501835910646 0.6980800683640898 4.0552069504188175 0 1 2
1340 1 7.254176928405826 3.5343988919914056 1.1050274616836961 1 2 -1
309 1 4.1542556599802305 2.7952111748968473 0.3485232647106955 1 1 0
1496 1 9.099403527960947 2.6757080143426175 2.6565695007927865 1 1 1
1041 1 11.187892289230865 2.76260498470914 1.751250984920018 0 -3 0
721 1 8.968401646322782 2.222182920835167 4.995566786851049 1 0 0
809 1 8.63972265213362 4.495461311949087 4.700987760558608 1 0 1
1743 1 9.918012726229207 0.3481052954727939 1.8245930075129 0 0 0
801 1 10.369288317104429 4.551045161134831 2.9258968654995186 -1 0 0
1937 1 11.128848789620442 1.1644534968704268 3.7935010951959574 -1 0 -2
116 1 27.119117423491215 8.807062439126106 -0.10104670033093356 -2 1 1
1574 1 13.40815795911551 2.65755487339461 2.3353011384305598 1 0 3
1099 1 13.570342278330292 0.870058967265583 3.8766435876616963 -1 2 1
308 1 14.524732679628329 4.137985406580871 3.4466554353889634 2 -2 0
793 1 14.598860624590827 1.8974729732883242 0.5032165725162893 3 1 -1
602 1 15.644495649876571 3.8825034002942624 0.8157527430332759 0 0 1
1661 1 12.064427004058313 3.5677464450148393 4.265420673372018 1 1 -1
310 1 15.78391069597781 1.9914104162224242 2.6408035198723834 0 -1 -1
1117 1 19.545851174021426 4.61264982042655 3.249355571339456 0 -2 -2
279 1 17.997875612964393 3.53392333348381 1.5904750824123892 -1 0 0
1380 1 18.094252792885133 1.808062062656642 3.0059471162005864 2 2 -1
1512 1 16.912649104494797 2.302238567846835 5.412251606654898 -1 2 2
433 1 19.204791870216425 1.6164397999568303 0.493115957378778 0 2 0
520 1 20.20412049243635 2.9830239552829068 1.801166228371386 -2 0 -1
1069 1 16.7664476100409 4.335096754951529 3.5933422713762955 -1 2 0
1579 1 13.237122800667404 3.7266741682622757 -0.019595423813160068 1 1 0
1869 1 5.061360444972355 11.58821498697868 0.2045690213622567 1 0 3
1330 1 22.566069224682053 2.457107605116907 2.7310708225543587 -2 2 1
455 1 21.725440799822813 5.346624189778051 2.0661704094378286 -2 0 2
860 1 23.409847568502794 2.9334406201146783 0.3573214972029686 0 -1 1
1214 1 3.8310601929562025 0.1736344224244062 13.942584778605074 0 2 0
2019 1 24.201166522645558 5.068891342307944 -0.08649847587889598 -2 1 1
359 1 24.22891035688836 3.960998039894294 2.293775113271879 0 2 -1
1238 1 2.515907604506246 0.16301070756166341 12.23366180195876 -1 1 -1
1523 1 24.61641392888179 1.3779638406357402 2.841961512417949 2 -1 0
164 1 26.786813828680142 10.955260951572571 12.169150597468475 -1 2 -1
1442 1 8.756003773533067 10.07942436348165 13.771960064232665 -2 -1 -1
8 1 26.886127132355895 0.6307593285170183 1.639337867153459 -2 0 -1
92 1 25.684529773087483 4.957343510736857 4.072930755489562 1 -1 2
1906 1 26.589174300090285 3.059802795347138 2.919891649020879 -2 -1 1
1074 1 25.691058290599557 2.943466412806869 0.7791760269193105 1 1 1
410 1 28.309839834976657 2.904867904020703 1.1211892160619252 1 -2 0
163 1 26.379431075804444 4.954073551831376 1.7213276296413857 1 1 0
1272 1 18.099436391968148 13.711195346214621 11.261655694547585 0 2 -1
1545 1 3.361448009781941 0.028144589200838677 4.913817297098994 0 0 0
1741 1 1.8086971896826047 9.48846910262848 2.7183740904027456 1 -1 0
1122 1 2.544313812475213 7.56222389708498 1.5947363118430118 0 0 -1
714 1 2.175352986855163 6.4476149046451425 3.636853137717501 3 2 1
1815 1 4.431387289124571 6.0684297181197495 3.98345884329133 0 0 0
82 1 1.2284649692077305 5.689545749432215 1.223587921288796 2 2 0
1703 1 3.507100015080542 5.30878929605018 -0.0064714369166703894 -2 1 3
706 1 0.03650809611458117 8.420318864076753 1.5060858695665182 -1 -2 3
419 1 5.436568819684754 4.786400028822897 2.0275471122311033 0 0 1
870 1 6.739141758715075 5.258185869548422 4.661238017774242 -1 -1 1
1895 1 7.044227603866046 6.709757981422271 1.0940231321253815 -1 -1 2
1095 1 5.952271826360589 7.96663098569292 3.4958338068805226 1 -1 -1
523 1 4.928388911054732 7.162333701984048 1.2605780795711028 0 -1 0
931 1 7.490325126944748 8.991806286301221 2.3133328383553478 -1 -1 -1
69 1 3.5740421915539704 8.463869731463648 3.9235286066562587 0 -2 1
1655 1 8.306199569299183 5.025888632456541 2.1372301908350613 1 0 2
1979 1 8.268902869598607 6.825339749669133 3.531093232689379 2 0 0
666 1 10.796799264819974 6.372428803455284 1.478932077970531 -1 0 0
480 1 9.113590026316492 7.934062143407694 0.9430303710573178 -1 1 1
1878 1 9.887083401846612 8.337902471374553 2.836180468908205 0 -1 0
1793 1 3.4001022714010967 -0.09326641338788212 2.2915317208730905 0 1 2
1305 1 10.687617978123358 6.146317912147143 4.27010992681237 0 0 -2
47 1 14.199283930210422 -0.023475379934478013 9.503703357426444 -3 2 0
1701 1 13.06760073732926 6.263309211046952 4.401161266680438 -1 1 0
1966 1 14.18613335131848 5.778868753012048 1.3818415059996925 1 0 0
841 1 12.540000066272176 4.629963713391871 2.1988697147417695 0 -1 0
1571 1 19.37238688965711 5.4293538839262485 1.273212147666195 0 0 1
878 1 18.48919919170543 6.79446890592284 3.0990603568540793 0 0 -1
1249 1 15.740268307766526 6.292491360445887 3.866067193689926 -1 1 1
2047 1 16.457886806358218 6.203451530304425 1.7389310846590478 1 1 -1
749 1 18.31118128788403 7.383619945570479 0.633344508236479 0 0 1
1241 1 24.333711048956015 13.94736396832769 7.507321181737551 -2 1 2
1625 1 16.950690467185307 9.271054405995159 1.389900744575723 2 2 1
521 1 19.418436448429425 9.147609415024075 1.95338618245506 -1 0 -1
1323 1 14.739084173387594 7.986822899973882 1.8031646224743627 1 0 1
933 1 17.25269842134194 8.56701879110727 3.669404966403172 0 1 2
2005 1 17.26300387460824 0.42368982561537083 1.404035748748557 1 0 -1
1650 1 20.47201206741243 7.268670988589383 2.0920212297970977 1 0 1
1761 1 24.101746996285726 6.073646624417709 2.2817591077968653 0 0 -1
715 1 21.81709095727338 9.005602705114066 1.38874195656585 -1 -2 2
273 1 22.902507511210487 4.971933980365863 4.093843128219036 0 0 1
996 1 22.345508218406845 7.082201077129885 3.6227184978872065 -3 1 1
117 1 19.777710795017875 8.849400328541794 4.108566632776769 -1 1 0
535 1 24.362726193548454 8.9365798120761 0.41466984739309753 -1 0 -1
1983 1 27.01169387714128 6.614502646922466 5.482689535633663 1 -1 3
1169 1 26.615047996465073 7.198266765976697 2.929749569608196 -2 0 0
158 1 28.416634974792498 5.819514970478953 2.8837077332050813 0 -1 0
720 1 28.409132905054125 8.098377852228621 3.8332041075539114 0 -2 -1
1342 1 27.627687627991715 6.57191889675531 0.3076585138224124 2 2 1
1388 1 25.963478098876177 8.838784791641562 4.446359612526942 1 1 0
893 1 25.45390046807472 7.089248791028362 0.7659400184086469 0 1 1
504 1 4.048798466909253 9.648798223605311 1.3851462974341793 0 0 0
1949 1 27.307947029858028 -0.10090962097740341 6.952933680283388 2 1 -1
215 1 0.488000909973768 10.656147227414513 1.4020311589316323 1 1 0
89 1 3.4588660517241188 10.842557645814754 3.720313063074331 -1 0 2
1614 1 1.5198551644158642 12.120146835814985 2.7596598413824576 1 1 1
1076 1 24.503289249834243 0.6971032665170389 0.26458732127882034 -2 0 0
1402 1 1.3733482115816462 11.09763589628324 4.971720348187316 0 2 1
424 1 11.713235545958348 13.921371961612357 12.676773651980024 0 -1 -1
1501 1 25.231129416146615 12.507242704353658 13.334488197695933 1 0 -1
336 1 3.451751208358262 12.139641776388306 1.7078988652648506 1 1 1
16 1 5.925124129681123 10.710685949415595 2.6945241312572 0 0 -1
1843 1 5.559359873274788 12.948086723988684 3.216086075042533 -1 -2 1
231 1 20.772623940788478 13.150751846412469 11.52702374403802 0 2 -1
1176 1 7.4683557717037266 12.316545908663134 2.394303376133573 0 0 0
31 1 12.624233907593569 13.996120440177394 5.389224645545277 3 0 -1
578 1 9.01050830088174 10.400618292266518 2.7128877390224226 2 -1 2
1317 1 9.647004225721034 11.840690961292736 0.7643126741422115 1 1 -1
613 1 11.276565926199266 10.371517874760336 2.0833436244756185 -1 -1 1
1955 1 7.7487851882894505 10.723382663517578 0.611862538974647 0 1 0
1801 1 6.166245706994133 9.085548993840193 0.5105022847716504 -1 -1 1
563 1 10.921595356817372 13.150045954974797 3.6480302242112623 0 1 -1
651 1 8.828947121604413 12.599028938717115 4.146213131852846 1 -1 1
985 1 10.723906451369809 10.696804001081354 4.32429353821898 1 1 1
1687 1 22.877021564107665 7.086297448644912 0.5400538329032644 0 -1 1
1514 1 11.476190086204305 13.162069399770502 1.4237025661915879 1 1 2
1807 1 12.377515532117409 7.294274711353475 2.4999254069910246 1 1 1
1462 1 11.472428870219055 8.806554060332203 0.8411553031420435 1 0 -1
2045 1 15.152512258342764 10.099362824827969 2.9202822200287413 0 -1 -1
354 1 13.616900188844848 11.901729156571795 1.533680471917901 -2 2 -1
919 1 15.427335891287582 12.323461042144979 2.9676709795038168 0 -1 0
765 1 13.73308201846686 9.427479747822545 0.8148331718598675 0 0 -1
993 1 12.965858698116183 9.359412426832279 3.307620119065159 2 0 2
920 1 15.866343940719133 10.569159934260327 4.8827573242171605 -1 0 0
1577 1 5.374531588590362 14.136893177444469 5.04775161199803 1 0 0
1315 1 17.12137627348499 13.018798331561003 0.9661970516939467 1 -1 0
1219 1 15.882154639466979 11.010181443905903 0.6793935069155147 0 2 -1
836 1 18.3571049800448 11.065728530876704 0.9144562800786058 0 0 0
1844 1 19.873400441161877 11.181043251154204 4.146414121332477 -1 2 1
206 1 17.71328276903991 10.922257656471064 3.1806904185372136 -1 2 -1
1088 1 20.189272408779686 13.06434000910627 2.897798938794714 0 2 2
204 1 14.554716114307313 12.669276637987295 4.9802169422850175 0 -1 -3
1324 1 8.98995813189852 12.899034463439985 8.255797275435006 -1 0 -1
731 1 22.125657829614042 13.88098247399198 0.4691282466145781 1 -1 1
335 1 20.888016920946587 11.07989818327412 1.7666795338066608 0 0 0
1100 1 21.85540324627637 9.650233439042301 3.8665494926808956 1 -1 -1
872 1 22.13601254503765 11.929605560617576 3.460870950658626 -2 1 0
1754 1 23.93414054657075 8.805580101557714 2.6502001191566387 -2 2 1
1677 1 23.425888286484074 12.94318502718926 1.9359549033174344 -2 0 3
1876 1 22.837582903747368 11.000597284257951 0.6424064083010111 1 0 0
1419 1 22.79746393700493 0.7138732226171101 7.307780825332966 0 -2 -1
148 1 27.38054448165301 12.147895506011142 1.9884378919232444 0 -3 0
1247 1 28.143129196961404 12.466338879538332 4.355237357003425 0 -1 2
992 1 25.17449480565674 11.374748743347997 1.3184165369463445 -1 3 0
451 1 28.181055231371264 10.284183795807069 3.251862225971352 -3 -1 0
1148 1 26.326766462568376 9.512349045390913 2.3498375246473855 1 2 1
954 1 24.14103899722809 10.863920179356985 3.6502005022478015 1 -1 2
1723 1 25.522900795796335 13.503495550284013 0.5151123050275392 -3 -1 -1
1396 1 16.769807012316274 12.494719352397025 13.114262551244485 0 3 0
260 1 25.499576760632955 13.719488037226878 3.0756889120238333 0 -1 -1
803 1 2.110461966161155 2.0766284091276135 4.702759597668869 1 2 0
102 1 2.261298024377454 0.28633660135735817 8.331644565772793 1 1 0
399 1 28.201274798972083 4.273162585599334 4.538884532850198 0 -2 0
1691 1 2.068742778558855 2.4717820962341523 6.878190930783409 1 2 0
1659 1 -0.0914865461744381 1.8728241181636325 5.156852524585598 1 2 0
209 1 0.2091453903500336 1.3296009672736877 7.976276711713897 2 0 1
608 1 27.54635954418554 4.135058639774897 9.047514085004076 1 -1 1
67 1 26.45653960858086 0.6316366502611777 13.557630936193208 -1 -1 0
145 1 3.804883134922201 1.8453020778219396 8.485418219984217 -2 3 0
1208 1 5.451067770310662 3.8704231496651014 7.195709741278762 0 -2 1
1698 1 4.160454224599282 2.1751465907944083 5.799703341423307 -1 1 -1
527 1 6.103639072302984 1.5387490609701562 7.620044669566229 0 -1 0
458 1 7.46887879143233 3.937630238448377 8.88140586183496 1 1 -1
1586 1 6.291377779170083 1.5693206544337361 10.043536580045458 1 0 -1
1972 1 12.313944467227957 0.6474516408273795 6.109388429126975 -1 2 1
1090 1 8.28555116158451 3.330730100331485 6.899999232707251 -1 1 1
251 1 16.137672573503252 1.1933232012346062 9.059024679291026 -1 1 1
1047 1 9.811020148316953 3.5112527680459644 8.2965811412915 -1 1 -2
1078 1 11.120775759152618 2.551283267781801 5.913548163041754 0 1 -2
489 1 8.033466681836064 1.458662126816766 8.558274887081135 1 0 1
634 1 11.814647173363735 4.20347967173458 8.580116166445825 -1 -1 1
726 1 10.203757230558603 1.25416025205652 7.840961555100331 3 0 0
328 1 15.12445025358478 0.23484394018387084 5.386034455755891 2 0 0
794 1 12.9384655706228 2.595058478343172 7.1918688502361094 0 1 1
751 1 14.178646826576292 2.463476838041689 5.1689008439915485 0 2 1
1156 1 15.582312488788643 2.1776526928824707 6.927790024181358 0 1 -1
91 1 0.4959376390482658 0.5539266831648924 -0.0485685206364789 2 1 0
183 1 18.89164620159513 3.156433101589634 4.768332432901589 2 -1 0
657 1 19.61556605935823 3.2237171978759775 7.65606813437236 -1 -1 2
230 1 18.19345102631522 1.5358525002159462 7.494022433846693 2 1 -2
40 1 17.151410052618477 3.879866285735833 7.140219469933042 -1 0 -3
427 1 15.682464846209726 4.544958848733646 5.602017156067991 1 -2 0
1881 1 20.251024930996646 5.035365713663913 6.369460493688112 1 1 -1
274 1 28.132089953866867 0.6386758799702064 11.804132305402216 1 0 0
1260 1 20.39169573097797 1.461033129393523 4.171069095091072 -1 -1 -1
1091 1 24.095363416160627 3.162029254859802 4.390523526539959 0 2 1
358 1 21.205127763578645 3.783686174757013 4.502070493566027 1 0 2
729 1 20.712003075246933 1.3693808024289948 6.456694382542289 0 1 1
1548 1 26.960003442285107 -0.03288764317470573 9.372466020106184 0 3 1
935 1 22.162775873474242 2.234067290375762 8.681224820423845 1 -1 1
1297 1 22.9670354801148 1.2163482217680606 5.210516750171958 0 1 -1
932 1 22.560309701695633 3.6599888417333744 6.721266296254727 0 0 1
1646 1 21.158321790214597 4.771166418207232 8.9567903219391 -1 2 -2
1965 1 26.480992390264845 11.132097383529244 9.734338421821967 -1 1 0
1451 1 26.365963993796974 3.2953818914274784 5.597963811982785 -2 1 0
746 1 5.434062275299152 10.78142872514203 14.056973198815664 0 0 2
238 1 24.68787034923142 0.9580824741267959 8.96156797017059 0 0 2
443 1 25.970404603589625 1.0002164020766977 4.6599620290985 -1 2 -1
1580 1 24.365456331130616 2.3914338584957746 7.1790842524641905 -2 0 0
2016 1 26.668471750171108 2.2144585298317474 7.662511756399321 0 0 0
56 1 25.295678464047032 4.362332959438796 7.908522377897368 -2 0 -1
1022 1 1.4944891785860435 8.645595110563406 5.169222296180548 -1 1 1
524 1 0.07518303209420354 3.320848763265853 6.981152123385552 1 -1 -1
2035 1 0.7699441038323852 10.336358648271501 7.412253294687495 3 0 1
880 1 1.3535044550178426 5.327695733363434 7.990132223399145 -1 0 0
622 1 2.2869351702561223 4.2484829397635 4.9689817164566445 0 -1 2
1007 1 2.1992546167651144 8.381750470765379 7.635777195288153 -2 2 -3
1511 1 0.7020687071481759 6.126979458228073 5.7412579186556325 -2 -1 -3
1892 1 3.018684650138578 6.53728932706138 5.84498508829413 0 0 1
1589 1 3.2425732899984774 4.696650153832108 9.317013650040638 2 0 1
566 1 3.3636239701933426 4.605769153834956 7.0430613671605355 0 2 1
624 1 4.866533319111775 8.37130193083624 6.165206664169738 1 1 2
470 1 3.6453232934085573 6.722325653776188 8.023803094457014 -1 0 0
193 1 6.179618597475648 8.286266810604396 8.084490540399681 1 0 -2
1835 1 7.060306255575017 7.778102052967025 5.820687526793626 0 0 1
1455 1 5.429398827488464 6.182420981787111 6.486956891362271 0 -1 -1
379 1 5.419704646207473 5.725857431480333 8.693579201581791 1 0 0
676 1 3.951773668779503 9.084456867160517 8.689554794559532 1 2 1
387 1 10.265002717568422 4.685796931026347 6.377333184585953 1 1 0
1114 1 7.527934975178733 5.437653971364346 7.0296771046864395 0 1 -1
759 1 8.970655825633235 6.458008972084263 5.942470635315027 1 0 1
79 1 9.640511533168011 8.736580395142132 5.8434340848165265 1 2 0
1160 1 7.508881823190332 6.2758900736267895 9.0201207118742 -2 3 -1
1664 1 7.422924941342697 9.857692941071548 6.794054781836257 1 1 2
867 1 8.432912299452239 7.9271608135620415 7.772578740723718 -1 -1 0
184 1 11.548668470354766 8.434911501396455 4.838292337985217 0 -2 0
1358 1 12.881815984342392 4.7433048659808765 6.04732088152975 0 0 1
329 1 14.706844994767595 8.249153298734841 4.480065673129331 1 -2 2
10 1 14.591424002150877 4.2115756697173925 7.5402268007947395 0 -1 0
182 1 13.207021167941274 6.0857090308172275 8.08364685394062 2 -1 -1
1216 1 11.286419273151944 6.8174167723719155 6.525304741935089 1 1 1
1922 1 14.808841704343894 6.3803511657029786 6.201933272089856 -1 -1 0
1055 1 13.351585346839684 8.387288373902619 7.079860713869506 1 1 0
668 1 15.547577437831638 9.150705974258264 7.218095603873792 0 1 0
798 1 16.246988954312844 5.301336692097312 8.784375557675697 0 -1 1
760 1 15.520134534943475 7.353510674827876 8.51707713906773 -1 0 -1
174 1 18.987132994369095 7.547754273822965 5.877023472696684 0 -1 0
1025 1 17.310448289768303 6.074987002993791 7.1483692843751685 2 -2 0
1603 1 18.086998117274334 5.3998228159535016 5.0821315654841355 2 1 1
1594 1 16.67297426283625 7.6573743805504435 5.912545122994047 -1 -1 -1
900 1 20.42037095383645 7.256684735996621 7.748481574937424 -2 -2 2
59 1 21.331360001540666 8.194029287766925 5.630981148323326 1 1 -1
7 1 17.66581271902829 8.164499994207894 8.148209289609294 0 -2 -1
6 1 18.803996047011864 5.800511572985344 8.940144652738265 1 -1 0
1445 1 20.613599858157677 6.343419648994011 4.387728996401039 0 1 0
768 1 24.577197762976823 4.731196539679372 5.779853349925701 0 1 0
70 1 22.718116922359535 6.157731824846598 6.614141349455975 -1 2 0
211 1 22.023011437402722 7.121958721613895 9.527953270608194 -2 -1 0
1465 1 24.533117528094465 6.958789820677201 4.984311791106835 1 0 -2
722 1 22.576471187270748 8.50386051045592 7.607386329178252 0 1 0
952 1 23.425437045990037 9.204007396086356 5.725967289449038 -1 -1 1
557 1 23.231051615715067 3.8334066599526757 9.160841222023892 -1 0 3
1199 1 23.984356366024542 6.118010841836545 8.864393529523392 0 -1 1
245 1 27.335584664500455 5.384798264142551 7.214604020817455 1 1 -3
1631 1 -0.05525088109245192 7.029554371231891 8.259350744560997 -1 1 1
1164 1 25.256354887298503 6.642272192137825 7.1085260830945485 -1 0 0
2038 1 27.52163658877886 8.996323679567512 8.976500837638135 -1 0 -1
483 1 25.82178526459938 8.881353093513438 6.590025583283111 0 2 -1
1251 1 24.665929733402447 8.316527627665737 8.432867734570323 -2 0 0
1583 1 28.17991357111759 8.333409683536296 6.277378840644277 0 -1 0
1129 1 26.571733728861034 6.785423273033519 9.520137574267672 -2 1 -1
85 1 1.6709749741119753 13.310676309886071 5.163397386833117 3 -1 0
351 1 2.493288999125786 11.952202599858293 7.188864591615016 0 -1 2
1561 1 28.35406952038927 12.413411924315637 6.505011253840428 -2 -1 1
1036 1 5.017134164843029 12.766316442027374 7.47491662775722 -1 -1 -2
370 1 2.754609174586621 1.1541592892259156 0.5772938880122832 2 1 0
1363 1 2.248260324056891 10.610153316199352 9.375737137848443 -1 1 1
2027 1 4.999626624138451 10.56103814267617 7.4289792905139596 0 0 0
1985 1 8.139588898028995 11.477247204428272 9.871008113975343 0 0 0
80 1 3.2147755740153365 9.996817536483839 6.03807081315277 1 0 -1
1910 1 5.302179016327234 10.147372782137108 4.824793447661466 -1 0 0
108 1 4.071406391836814 12.212851131528641 5.688250467776558 1 1 -1
1622 1 3.890864593752954 12.14337598727543 9.232680583012062 -1 -1 0
1788 1 6.484905453751753 12.228622446092345 5.354835764309754 1 0 0
411 1 7.243108801125071 11.766170061031314 7.800893975774252 1 0 1
693 1 7.5713118930167225 9.749225524096818 4.630901933703964 2 -1 0
728 1 9.117386569495402 11.095432890296177 6.398938216678251 -2 0 1
393 1 11.263223492342238 9.853115159384785 6.612969915209179 1 -2 1
981 1 3.969476826355417 0.16842897043805005 10.004166355016665 1 -2 -1
1236 1 9.472804510287915 10.357337190934002 8.381661228678245 1 0 -1
1997 1 13.43611015999547 10.000203090017424 5.61726315540294 -1 0 1
1758 1 11.402143773819091 11.854176254781361 8.039619147033058 0 2 2
1755 1 12.018138632752159 12.025543323208142 5.727633483320189 0 1 2
719 1 13.044397543671993 11.403729519753783 3.8020625185236603 0 -2 2
95 1 15.267909425529865 11.636086837571446 6.909749799843065 0 1 0
360 1 13.418974865494034 10.457116642281417 8.281115024804572 0 0 -1
1686 1 15.393322289943772 11.655297986043285 9.165876266130711 3 -2 0
1721 1 16.237338857273386 9.621604746064744 9.721988180828724 1 1 -1
398 1 13.488081079295156 13.049329150375403 7.4895687192752805 -2 -1 0
1605 1 17.382827084626797 12.62365029636277 4.722027681702955 -1 -1 0
687 1 17.70172607529684 12.511387832019919 9.335938658778092 -1 -1 1
1432 1 17.82466462587786 13.321777352497175 7.212372822441517 0 2 3
1385 1 18.203966435535605 9.569927319463506 5.644302125921714 0 1 -1
1727 1 17.521411149647207 10.565276115852566 7.643511453388607 0 2 0
588 1 19.071904735917713 11.580227551971978 6.31950653324908 0 -1 2
416 1 19.822913783026056 9.487363646995142 7.193140315032806 -1 1 0
262 1 9.310920423253496 13.808886011652023 1.96372926401602 2 -1 1
1495 1 21.297490053600942 13.683324930384916 4.657038075826468 0 0 -1
1320 1 24.751872208532305 10.943323529166642 5.93408156396164 -1 0 1
337 1 22.320372725316364 12.736682512207276 8.614075953816885 0 0 -1
1683 1 23.54224641344396 13.871444829554635 4.093004865692514 0 0 1
817 1 21.275033126372872 10.671858733911872 6.070565510148747 -1 -1 1
121 1 23.012005728711127 12.478225150243881 6.181096410270313 -1 2 -2
1360 1 22.378929231214745 10.626962966828023 7.730290819594511 -1 0 -1
405 1 24.632132869149352 10.813841370030907 8.226788435572239 1 1 2
604 1 1.9822662097443051 3.529970741589257 0.6123437359239 0 1 2
1453 1 24.617429205556128 12.78572733808013 9.727912833233132 0 2 -1
1709 1 19.966837298283156 11.63848043503953 8.388735377600941 0 0 1
750 1 9.747832985020537 3.699378420688294 0.16663359469135652 -1 0 -1
997 1 26.66827386740557 13.224116127161968 8.390002185347646 2 0 1
278 1 -0.08409981170278781 11.946330714746912 8.946466553829476 -2 2 -1
1060 1 15.819230017675224 13.691794627459016 8.173725468468927 -1 2 2
2023 1 26.155387295063726 11.332396634747264 4.1333756551257945 -1 -2 2
964 1 27.856888296284644 10.429138047527527 5.538966566257988 -1 1 0
1555 1 26.85309987009065 10.785426951157735 7.405202028306501 -1 1 3
285 1 26.22644746236794 12.87492630651334 5.907773473212583 -1 1 0
570 1 3.8184585967477545 2.754081330821431 13.352637589867344 0 1 1
1246 1 1.4119383604871598 2.8264003256228376 9.039617277160392 -2 3 0
1335 1 1.2723707166910538 1.1413725549672302 10.424864897337386 0 1 -2
2021 1 1.267436964348083 2.3683135957201547 12.758656836803983 1 1 2
914 1 28.284274210627995 3.9602874746733683 13.582967110888813 -2 1 0
915 1 0.870154456298201 3.7951496596972603 11.067149975410324 0 0 1
1426 1 3.3941204920203485 2.2827931903634053 10.696586837543451 1 0 -2
923 1 3.3287011527111354 13.785284616044393 3.67292700814651 0 0 1
938 1 11.003137889637152 9.865617160578235 12.903938451306685 1 -1 0
450 1 5.246029276910086 3.4551522225125697 9.61874034360123 0 -1 -3
1478 1 24.974694524460972 0.48738637417123554 6.476600122589477 -1 0 0
1929 1 7.602144443125587 3.7683212291323898 11.124844615181908 -1 1 1
1355 1 5.080107685273858 0.9321471829887356 12.008777445597289 2 -1 -1
857 1 5.696765975589909 3.195558864353791 12.154166588771085 1 0 1
1255 1 7.333547235693704 1.5256071232311679 12.229716098523417 -1 1 1
739 1 20.179228037424977 12.519476068182703 0.3277680834002468 1 1 2
319 1 14.057553310769295 14.169768048296548 9.639360105843688 0 1 1
1797 1 11.624209572397731 2.0200521964549205 9.979076368759813 -1 1 1
1760 1 21.8488145362929 0.06886819716732659 3.368356354056169 1 2 1
1137 1 9.360037143723698 4.930056274099689 10.366611014397005 -1 0 1
1405 1 10.925456784989747 1.9052235313159116 12.106622488977756 1 1 0
1143 1 9.414075715207922 3.9354811319870864 12.791121828642419 0 1 0
1705 1 9.134172618609144 2.3821962429644787 10.489016608938492 0 1 1
1105 1 11.17084838800058 4.035613057787341 11.319180704837489 -1 2 0
660 1 9.437954100194993 0.36696712557557026 12.632994514553927 -2 1 0
946 1 10.594162231929003 -0.07918025657986205 10.28862586464613 1 -1 1
127 1 18.369373729354187 0.3225251582946051 4.920844744554673 -1 1 -1
655 1 19.89966436578293 9.556535150393424 11.37696060118948 -1 -1 -1
1406 1 14.016219226701326 1.8909821423358477 11.274370362969583 0 2 1
1175 1 19.802021755331605 0.04695973496024111 2.4338472333879104 1 -2 0
829 1 8.731149848054788 1.5142997806067824 0.14478203384830396 -2 -1 0
1417 1 17.84716497899229 1.4219845281719916 13.632509182945983 -1 -1 0
1068 1 12.141716087444141 0.246227997692187 8.45956758560941 -2 0 2
1883 1 12.628786071834623 3.5883270672920715 12.871011451332837 1 1 0
1198 1 14.18156744732974 2.286078525449418 9.081955459720174 2 2 0
1658 1 13.163359990602837 4.0653864434645595 10.302999779851486 2 3 1
1000 1 15.607783631918993 3.6210051234422185 10.916321222711845 -5 1 1
1773 1 23.10163139238256 12.777184864605136 11.758918403917123 -1 0 -1
1193 1 18.946825930401282 13.982751633964034 4.935235114425307 2 1 1
106 1 12.609964758986806 1.0930174143558091 13.512403703997487 0 0 1
344 1 16.24208314915363 1.4416666531207165 11.472591223120045 0 -3 -1
1621 1 17.532439649468703 3.002806092015841 9.45062437714721 0 0 1
349 1 18.330638404879547 1.0564171885730735 10.277540598946892 1 0 1
1732 1 19.666675274394176 3.301257422710123 10.294565468260618 0 0 1
513 1 18.26408048452489 2.831155347673674 11.857674423414524 0 2 0
1846 1 16.393660253789626 3.8134807093039007 12.985776620925694 1 0 0
582 1 22.039948725971243 0.7941714456049919 0.9900169046603526 -2 1 -1
1362 1 20.77007790269621 3.4492182347819424 12.659627299766987 0 0 1
1425 1 20.42540655046288 1.3001229851766873 11.178973967891592 -2 0 -2
1986 1 20.216445660627148 0.8238613135324773 8.645102087448814 0 3 -1
341 1 22.019812478780132 2.9593827124070238 11.052814568093773 1 0 -1
1403 1 22.454241089412704 0.9392867231642938 12.437097449326414 -1 1 1
452 1 22.303274408682213 0.6251672393829729 10.082182750349997 -2 0 1
1719 1 23.216373887323293 3.8194258050716723 12.603968561868488 1 -1 -1
1624 1 4.3006555876669355 4.816143635441639 13.916399925963873 0 1 0
652 1 9.044563663197597 5.776036723830455 0.019821099187088714 -1 0 2
1957 1 24.023091114619962 2.1681251707485 10.904198457617715 -1 2 1
653 1 2.1031016499852395 9.459282234656158 0.11461720467077019 3 0 3
734 1 27.859571105240125 2.286183603891442 9.908806538406353 0 1 1
312 1 26.05775192896267 1.1141626133405411 11.248803182088087 1 -1 0
1461 1 25.685629847015267 2.9727037747913245 9.85439891928252 1 1 -1
823 1 26.790849066899206 2.9008082043051413 12.060582551774466 0 2 0
1889 1 25.731093077349264 4.780189292639316 13.312863256343801 -1 4 2
819 1 27.557024217931392 5.034288242043903 10.899929737690446 -2 0 1
1475 1 1.2034955064214843 8.540532427453998 9.707301992401687 0 1 0
422 1 3.2365080017209396 4.603072157653888 11.594053260226985 0 -1 0
1684 1 0.9528984686912709 6.154639829824725 10.437262031078893 1 0 0
229 1 1.6548154135781274 7.598572089789088 12.149482516417699 -3 0 0
1987 1 1.8978012931830772 4.897968541948848 13.348395204662227 0 1 -1
465 1 0.9602425457620662 13.850848664323408 7.428281379582458 -1 0 0
892 1 26.89322236066858 8.470538298441296 13.365011391891002 -1 1 0
753 1 3.6433644206821314 6.860377465192371 10.246352492440538 -1 0 1
1083 1 6.803957497887032 4.426688025497819 13.728913245109364 -1 1 0
1566 1 5.65851646213807 5.481975634566301 11.118722474016975 2 -1 0
503 1 10.179886872708382 13.455501642785066 6.334736496181204 1 3 0
1038 1 4.112247924241644 7.139504131293029 12.346872985682005 -1 0 0
1139 1 5.650266997791587 8.03264685372002 10.310760314589858 -2 2 1
265 1 6.236635849746938 6.655823523363472 12.967865233240628 -1 0 1
418 1 7.46057026045034 6.850107460378651 11.351662303954033 -1 0 1
951 1 15.83755510756462 13.240644323282673 11.027588119008877 -2 1 1
236 1 9.986021780896971 5.90829326819369 8.216962749948726 0 0 -1
1138 1 8.497035986484766 6.013726989136309 13.261298499079144 0 0 -2
1591 1 9.393099540788967 7.5055510498648665 10.12094075975214 0 2 0
802 1 7.238819577998542 9.067979385692098 12.390153615365357 0 0 0
1050 1 10.407946584066377 6.14973082871099 11.859377217640388 -1 0 0
1195 1 9.570195300442109 8.188030534100589 12.495883294930875 0 0 -1
383 1 7.870906108675949 8.947429625126443 9.847183217268055 1 -1 1
473 1 12.757263030177079 5.753081871344798 12.268263761185796 -1 -2 1
1201 1 10.804259060109208 8.187514415376803 8.417865699792394 -1 -1 0
340 1 10.894193055975693 5.097569788520621 13.837103435875184 -1 0 0
772 1 11.609348114752095 6.224230943401399 9.929320430474776 -3 -1 1
396 1 14.161348180698859 6.384766576042573 10.55842550658222 -1 -1 -1
186 1 15.471986407888258 8.040187696309244 11.250972638018645 -1 -1 0
1343 1 14.09747425063421 8.11300517105446 12.957409660606002 1 0 0
258 1 11.91201569224171 8.142176330507304 11.374661680147497 1 0 1
1708 1 17.52513362208917 4.837115245481178 10.604270539978563 -1 1 -1
1999 1 19.422190307745538 7.6926358172822065 9.876523934110939 0 2 2
724 1 14.810639045639721 5.1505922853696475 12.29061964239436 0 2 0
2031 1 16.607585210123144 6.379268085488627 12.56263758774735 -2 1 -1