LAMMPS data file via write_data, version 29 Oct 2020, timestep = 300000

2048 atoms
1 atom types

-0.1107575377676735 28.462757537762126 xlo xhi
-0.1107575377676735 28.462757537762126 ylo yhi
-0.1107575377676735 28.462757537762126 zlo zhi

Masses

1 58.933

Atoms # atomic

1276 1 3.3740330503894063 1.798918809168295 3.412816245469089 1 0 0
1042 1 0.9101034625747444 4.558962746008795 2.648910731686411 1 1 1
1943 1 1.1771026875243713 0.33257867743705644 0.6164372858443077 1 2 0
333 1 1.0616664611168767 0.8913382882052949 3.226980419493774 0 0 0
1706 1 2.8433339594443394 4.46503985926337 4.024890078150887 1 0 0
1686 1 27.782000449902895 2.567437052929819 3.019597762511414 2 -1 0
749 1 1.6698962285556114 2.6795198020223725 1.527165015079251 0 0 1
1671 1 15.108536805758241 9.084460704396772 14.03589653968184 0 1 0
1027 1 5.064070460494168 3.7470853691303194 3.0824651956136075 0 2 2
1433 1 4.248854893253768 3.3518794751769483 5.486011257587225 0 1 -1
334 1 7.571287381608125 3.027593134422916 3.6482782260470423 0 0 -2
1979 1 6.449074194547816 2.0167721090357893 1.8240252311618061 2 0 0
958 1 8.731714528061465 2.509973854152942 1.4099986813043097 1 -2 1
302 1 26.29578386837416 13.351256636846843 2.897715515063773 2 -3 2
109 1 24.479754666231848 13.333085708403312 0.9749027139040236 0 -1 0
1717 1 8.149052832879763 0.6966128412682346 2.8736750690961865 1 0 2
206 1 7.258175018872268 0.634525198893081 11.95120773115532 0 2 -1
1881 1 8.629350711032124 6.3254591088200085 1.4048504322804307 1 2 -1
319 1 9.861550251762715 2.707214918427052 4.842591698356695 1 1 1
1700 1 24.325009745929997 6.212630956132983 14.020402288756312 0 -2 -1
1244 1 11.220335347214295 2.5826323214604656 2.553835585686852 -1 1 -1
1227 1 12.522841976975181 0.9406480908049448 2.1357512487880377 -1 0 -1
759 1 10.454666530317201 0.8267637039591157 1.1484613277229039 1 0 1
1473 1 11.101410915416814 4.8815942836290676 1.420809260362235 -2 1 0
889 1 9.281972400582024 4.435640027082566 2.8795672598274145 1 -1 -1
97 1 17.466826935774662 0.03931207562735206 10.475261596466483 -2 -1 -1
539 1 13.920593718907485 13.913290443954498 13.238651253296823 2 -2 -1
1037 1 14.415795068030889 1.0993440654950726 1.1302828020623013 1 3 2
1012 1 13.235086897337357 3.3120350394028715 1.5730774940333292 1 3 0
461 1 1.8718630391356768 13.754646749577253 12.085554327200672 0 -2 0
725 1 14.882016387032193 5.1076307121648385 1.7596328811570527 1 1 1
1035 1 15.786232506009682 2.8994874716483268 2.4214387309275547 -1 1 1
1972 1 16.211598353725833 4.278936409911535 4.369153460603883 -1 2 1
272 1 14.149492352176873 1.6247003232211246 3.5187091135842565 0 1 -1
1259 1 17.32533353648548 4.129198081466796 1.0710947887785538 -1 1 0
988 1 18.046308368844024 1.5741041948846979 2.1471275138632886 1 -1 2
1068 1 20.121560694813958 0.5367899552775139 1.7918396387099176 -2 0 2
1967 1 19.430404816414672 0.852305231043597 4.451098105127277 1 1 1
193 1 12.946949236539018 0.595914049302836 8.684780727026492 1 0 -2
1870 1 9.548832416486517 0.1709771898561931 10.545608315573649 1 2 0
1726 1 18.339886651872327 3.8389499980060715 2.9520916244677773 -1 0 1
1213 1 28.21563025936085 0.6606147470265555 5.183662992282763 -2 -2 -1
1017 1 22.61751504370114 0.3846800994896756 1.6487039936295957 1 2 0
1893 1 23.1106252756286 2.526673948161915 2.982543299985103 -2 1 0
473 1 21.89901667514298 2.4566689254649954 1.001377742486475 -1 -2 1
1844 1 20.4802054490182 2.4050807407578834 2.984048234519337 -1 2 1
1447 1 20.132258480920584 4.151841919166912 1.5079817444624855 1 1 0
1252 1 22.165874756988593 4.5668805346609425 2.320582892437284 -2 2 2
1298 1 23.88790155485853 3.2064766616472387 6.367657182215042 1 1 1
524 1 23.72518949183688 12.48544887885286 13.132119796134077 0 -1 -1
1713 1 23.05337935647308 13.047838846666743 10.980492385071772 0 0 0
574 1 20.35438929173514 4.972360791581427 4.051666021197519 1 -1 2
599 1 27.561772318942516 0.7779386246325606 7.521901029843301 0 1 -1
1023 1 28.063045057305885 2.298232596695528 0.03015548914509439 1 1 2
415 1 27.369303353191825 0.7431826196775789 1.6968929985815433 -1 2 1
1428 1 24.046369520665188 2.7449661382771464 0.5725168007427476 -1 0 1
1963 1 24.932509800806997 0.560887760430961 1.6711337259297876 -1 1 2
1548 1 24.54884734532621 4.455494435113864 2.737290782651188 0 3 1
569 1 25.087546479115375 4.602790536350264 5.2153236247459915 -3 1 1
28 1 25.891106262495043 2.451847661023364 2.150524937237017 1 1 0
863 1 26.517347897960825 0.5392915815311641 3.7158209869519023 2 -1 1
1516 1 23.393090911302068 4.802912886303508 0.3192085753639971 0 -1 1
1825 1 2.085996125706309 9.198999682906422 3.432754681605911 0 -1 0
2039 1 1.9986117077049514 6.555858235954431 2.5731333059210075 0 1 0
1203 1 3.533121330386561 6.975524188656557 0.6212372603728116 0 -1 -1
1317 1 3.030359154490833 4.508097236454379 1.7952561889986751 1 1 -1
1089 1 4.421855552789676 5.963944952504362 3.1172471592703355 -2 1 -1
771 1 0.23993019313104647 7.40365415224876 4.09269284575394 0 -2 0
1644 1 0.42665422760389304 8.530562219729156 1.7943079647632536 1 0 1
1237 1 28.145769112650584 6.355561927300192 1.7244293138037095 -2 0 0
87 1 6.3368256892419135 7.006448998334008 2.5646126231987805 -1 1 -2
245 1 6.319093511416609 5.063094871813816 4.76500577807422 2 1 -2
613 1 7.145785970358661 4.388706828265584 1.895145026985218 -1 -1 1
702 1 6.846298603696356 6.669570194028213 0.18406027751953452 2 0 1
1065 1 9.287605565498046 8.097429269333288 5.004240968173663 2 0 1
1975 1 7.257022056988946 8.672727233420806 3.782434865204808 2 0 0
484 1 7.983989577662438 6.554273629704124 3.705677462457817 0 -1 0
1248 1 5.746456553465962 8.502514080052007 0.8154620859858185 0 0 2
1771 1 27.01261034206464 13.145618017840501 10.490348580608279 -1 -1 0
291 1 17.2238199564636 10.849854665695375 1.3563898650505595 1 0 1
1119 1 9.516310804282819 8.103492021378903 2.9542008830676494 -1 2 0
1097 1 14.759961020099125 10.8845020913292 0.07589470319446129 0 0 0
1010 1 11.710792418588888 7.254722185883719 2.5164180651040766 1 0 2
436 1 11.379783119419605 9.248967284353943 1.0588614101162026 1 1 2
1744 1 7.814872013868021 8.927685246815876 1.6568031759516317 -2 -1 -1
1603 1 10.901895085756003 9.749406541799724 3.3683058308207667 2 1 1
497 1 12.78908357541326 6.135022811139613 0.8850478310873581 1 0 -1
2034 1 13.000477096058155 9.332509438123418 3.0002275748114493 0 0 0
5 1 12.513862972603183 8.462506473388846 4.96490933105713 -2 1 0
1354 1 13.804027754607025 6.547449058884568 3.1425381756599364 -1 1 -2
687 1 15.190419805244376 8.468404435037199 3.592505730563334 -1 -1 1
1016 1 13.605804584133038 8.26258522659735 0.6405634707903405 1 -1 0
756 1 7.6695447983602225 5.292409494635275 13.166699800383102 1 1 0
968 1 19.198852084424715 13.92480771541149 10.793397179031139 0 -1 1
395 1 18.67980017808599 6.238545052977885 1.1929939274580288 0 -1 1
1462 1 17.700624501601695 8.495187820062155 1.2578087419108854 1 0 -1
1436 1 16.786032589304526 6.066492362346084 3.0971511140536854 1 -1 2
1359 1 19.0806082869075 7.181617836564851 3.38853397305282 -2 3 1
582 1 15.597715731747464 7.378053439251045 1.4397869653675106 -2 0 -1
14 1 20.213778647356612 8.478645591193677 0.7697809683437029 0 0 -1
1861 1 6.2298146247065915 13.87388809342146 0.8101483080833835 2 0 0
694 1 23.33387123557616 6.771796127163926 1.7573357335809052 3 0 2
637 1 20.986392715727504 6.920011874325806 2.0922702124279136 1 1 0
1803 1 22.375829839239906 8.732793573341848 3.1084908688859447 -1 1 1
1446 1 24.62163657237437 8.756290499439174 2.2186057632471208 -2 0 -1
157 1 22.343477480784856 8.811593367691673 0.7844965449085546 0 0 0
410 1 21.312212396117133 5.606153285282009 -0.03138963306161642 1 -2 0
1758 1 22.14514005119083 6.645116958484859 4.039950996387989 0 2 2
1653 1 26.936444325853408 4.456018488105613 2.4138393726854 1 1 -1
266 1 25.777004136998556 6.815406602636674 2.0257499174844495 0 -1 -1
1407 1 26.914934839738706 6.2799583434572455 4.510667246500351 -1 -1 0
608 1 27.054214095998738 8.291068196024012 3.0094638462522725 0 -1 1
212 1 24.664425891883873 6.895698243706883 4.078605525499272 1 -1 1
146 1 24.91582654308091 9.597753876000379 4.56987041155062 -1 -1 1
1752 1 26.967993461971027 8.730445701436938 5.346295481668344 -1 1 1
811 1 0.17517454517311332 12.931859133921277 0.26974934654200544 0 0 1
1550 1 28.145069749053803 10.263350580694729 0.6318358688341768 0 1 0
1245 1 0.16890294244016935 9.962530196261259 4.551064024460761 0 0 -1
541 1 1.1779570658909018 10.857323243573575 1.9779945639998155 1 -1 -1
921 1 4.200904423366096 8.068359184486772 2.694745866558076 1 -1 1
1933 1 1.477516013305831 11.889511818367946 4.4486329381060195 -2 -1 2
1041 1 2.2203556020868946 12.540877020945315 1.0703035705098431 0 -3 0
460 1 16.027023009507523 12.791514818254134 1.0524313726288423 -1 -1 0
39 1 4.566812738918077 11.884969451026997 0.9040541732772716 1 0 0
1490 1 15.828971229270582 -0.020288954161383904 2.5004892615031267 -2 1 1
1815 1 3.226292440217755 11.30306392521369 2.7631025202482107 1 0 0
842 1 5.9546350493830715 13.120206636560892 2.697219753851796 -1 0 2
1917 1 5.457349358620627 10.196945374877517 2.448162947382872 0 -1 1
1448 1 4.853540863038885 12.03344096745461 4.419385864077058 0 0 -2
1689 1 11.543825287201178 0.011934303408180705 13.694466504246284 1 1 -2
1950 1 7.06135891060358 11.33196043058055 1.4894515874784942 1 0 -1
1098 1 6.803693232922837 10.684292200803478 4.452469835713993 2 2 1
807 1 8.571380234990045 10.935670894817466 3.005647819328744 -1 -2 2
1061 1 10.438392950560294 12.76367224468704 4.008276830691685 -1 -1 0
1578 1 8.129195196642575 12.887137386463406 4.5925470217557685 -1 0 1
564 1 10.691571081513422 11.805097901678923 1.6744844876130223 1 -1 0
166 1 8.55035950575714 12.936772318114514 1.9127454418674499 1 1 0
260 1 14.594360463891121 13.843757921383695 9.344870197098908 0 -1 -1
641 1 24.354402613534283 9.7005610821804 12.988137122537113 0 -1 -1
715 1 21.325402206792376 11.638688139240497 12.417803543700527 -1 -2 1
1404 1 12.243648879385807 13.877419391293962 2.8692489490276287 0 0 0
450 1 12.751935470906684 11.048004076264016 1.3672181425413197 0 -1 -2
95 1 12.357869550800583 11.420905073034811 3.5569786245919284 0 1 0
1208 1 14.111068288104677 10.252822652757187 4.904185454101964 0 -2 1
51 1 13.179644390794268 13.193730784757754 0.5191454350447285 -1 0 2
385 1 14.610082159370528 11.571472727339815 2.5999955794851433 -2 0 0
2023 1 14.014976887553724 12.757987455971417 4.651549145951266 -1 -2 2
522 1 14.970038156322222 13.92149794608711 2.696736345597392 0 1 1
148 1 18.613154378941402 13.098080929404057 0.6578608183221224 0 -3 0
661 1 0.8646167095490609 0.07446214771270829 9.412356798987652 0 -1 1
1694 1 19.063760845088154 11.54525451091952 2.6958757334380525 -2 -1 1
767 1 23.037332834120875 10.51879374966403 10.769268637523286 -1 0 1
1727 1 20.738283962967245 13.253806777697308 1.277282156223561 0 2 0
1619 1 17.33844775351315 9.269547875640743 3.191050212353102 -1 0 -1
1424 1 16.823384845680977 12.767416537727945 3.383331585273657 0 1 0
271 1 15.340854809189501 9.606594956079718 1.7354659956041676 0 -1 0
1630 1 19.6791650873731 9.256732552310229 2.7565962109769 -1 3 0
448 1 21.087258618044764 12.203298497422278 3.9414365452116984 1 1 0
748 1 18.70799215532177 12.761207987569561 4.815788135171738 0 1 1
620 1 26.0132517476505 3.934350967486333 0.3496390448066758 -1 0 0
980 1 23.16733397963457 10.771975870337513 0.6883471402230027 -2 1 1
1903 1 20.263593049166545 11.304272794797111 5.8982215768607915 -2 1 2
707 1 22.739263215191222 12.627838698379641 2.2362143343426957 -2 0 3
916 1 21.292708174639593 10.792030348787298 2.0266714546830102 0 -2 2
250 1 22.908661368467108 13.79227801334935 4.139694442044367 -1 0 0
400 1 23.087815557419518 11.133554086059952 3.575353021096767 0 -3 -1
1642 1 16.52894419814146 0.763042062503714 13.89319023401147 0 0 1
90 1 26.64784557842058 10.618019382955561 3.827178115272861 -1 0 -2
592 1 25.103633435745287 10.98275149984425 2.2655040075738295 1 0 1
1340 1 26.513590380737185 11.794291365531642 0.8451028285251798 0 2 -1
204 1 25.56584925288997 9.403939220658192 0.4259566940096422 0 -1 -3
1186 1 25.044968499924657 12.046159483704974 4.539839556633689 0 0 1
1925 1 28.224405833490557 12.068564833451848 2.8688057268138873 -2 -1 2
1989 1 19.64116480929048 11.078167890214152 0.4772638532803406 0 0 3
1987 1 0.7333567672652487 2.0901660296142217 6.956210927100952 0 1 0
1797 1 22.711509857785572 13.992066539119948 9.012368321415996 -1 0 1
784 1 2.2044033363481335 3.6376211370997 6.660075050706795 -1 0 3
791 1 2.742037724831363 1.1385978609419265 5.549847219152801 3 0 0
1800 1 3.7981991646961886 2.8719409203615056 7.978453688574392 0 3 2
773 1 1.0984159862061713 2.911439152118472 4.574950197240635 -1 -1 1
742 1 0.4389912582750102 3.761748837002537 8.278236191165092 1 0 -1
1938 1 5.6497346812331255 1.884701659857657 4.464771223952901 0 1 3
1106 1 4.998038053269962 1.302933826486648 6.638577227565467 2 0 -1
182 1 6.08149665012115 3.026570343126464 8.190759505080488 2 -1 -1
1468 1 7.001377083416345 -0.025806405039771912 7.4109925633268015 1 1 2
393 1 7.85217106478358 1.517848193120249 5.823385390360478 1 -1 1
1493 1 5.273675201587971 0.7448752747691326 8.998333008113738 0 1 2
33 1 6.556837770363971 3.3309019851173107 6.1195116894182515 1 -1 -1
1837 1 4.764684271764067 4.989404972828271 7.436202856692331 1 2 -2
1571 1 17.078249551220395 1.4271815339233958 0.14595943960452173 0 0 1
470 1 9.093741780844312 3.5258755577595755 7.2683624927407 -1 0 0
544 1 12.371375554980373 2.3667967265618737 4.627643745879305 0 0 1
721 1 10.954412717196023 0.47498656115870586 3.869420466117584 1 0 -1
174 1 11.488754266430515 3.009289978120342 7.828180664709838 0 -1 0
1185 1 11.43871655158573 0.9288598409093114 6.6410832975414955 1 2 -1
1741 1 12.713908370031952 4.208019550952573 6.36947125883338 1 -1 0
1976 1 9.653259493388395 1.3466803646847103 8.030768041640501 -1 0 2
1188 1 3.1481715456453045 9.392189463716726 1.4441658925732446 -1 1 1
989 1 13.817591616730235 3.9855977052753992 3.6162965157992986 0 0 1
1648 1 14.953231471246063 0.10509783371584833 7.489248045918477 2 1 0
1282 1 14.748467872521145 3.403007983079916 5.705059044095699 0 0 0
736 1 16.90251398882706 1.8331770912186456 4.086912002305374 0 2 1
465 1 15.561307480535243 2.5813373577380263 8.779712777764837 -2 0 0
920 1 16.93647039074329 2.1103136588724025 6.501827192916416 -1 0 0
1356 1 11.56426512600112 4.911041895743348 3.7840041849559882 -1 0 0
2044 1 15.00653401436808 4.377807952768202 10.84371265354746 0 3 1
1995 1 13.884781108052037 1.8435802484996304 6.939228517933028 0 1 2
1577 1 28.29719056818042 14.146255214054081 11.772380672664575 0 0 0
1236 1 16.61286227238297 4.310842892724253 6.689909030405886 1 0 -1
735 1 18.0302239362208 3.248547253748669 8.564901569016486 2 1 0
821 1 18.615162420355922 3.395797466863332 5.275657831081726 -1 -1 1
1536 1 19.45361710557988 1.6295215195341524 6.869662771504635 -1 1 1
1638 1 18.933173996402793 5.197332844564186 7.634321282917399 0 1 1
376 1 16.983862867378683 0.30542829169549074 8.208742657127935 0 0 -1
1019 1 22.61034282879867 4.251080380776282 4.5699979707359795 1 0 0
1383 1 20.58971324816205 2.964667746356381 5.104220695244969 -2 0 1
2019 1 24.685383117870963 2.3463736988976898 8.36406581050261 -2 1 1
1093 1 20.96329198430106 4.599854252620732 6.738861901309063 -1 2 1
1239 1 20.47855187934551 3.2727922023091147 8.568522232826771 -2 1 -1
445 1 22.576153736697435 1.9801858371489351 9.541404588638322 -1 0 0
377 1 21.684413081955938 2.3640926115880636 7.178528163065028 -1 -1 1
398 1 22.355851671569873 1.7409035226618288 5.218731405099883 -2 0 0
965 1 25.217771053659092 11.369573436582598 11.303460978445393 0 1 0
1956 1 27.19761822038228 3.2050431685648264 4.895541781488672 -2 0 -1
66 1 25.017964740123332 2.206033320496472 4.163043889537892 -2 2 1
737 1 26.843850675622 3.1982688831032076 7.516167653360082 0 1 0
516 1 27.2472148822266 11.809112376593678 12.574993201388896 -2 -2 -1
1381 1 25.805171604530734 1.4794602404571557 6.324852236818358 -1 2 0
1052 1 25.068699588799056 4.091632299587737 9.658401036104074 0 0 0
1547 1 25.431723276316596 4.900995986657107 7.55535230858465 -2 0 0
1683 1 27.155206794184586 4.781864204399519 9.32463608609519 0 0 1
829 1 2.060060658501977 6.160780821423195 6.711993067685159 -2 -1 0
1367 1 2.76039675737138 7.306275625420691 4.527585649537301 3 0 0
194 1 1.5654793723207416 9.112496955297955 5.863186081913765 0 1 0
822 1 0.29199950763887744 7.384431217008165 6.369847117739643 0 1 2
320 1 1.817771231187238 8.549457038862185 8.04012897154393 2 2 -1
631 1 1.0774695518491466 5.387006889358608 4.9319604711920055 3 1 0
1000 1 0.8759561525823131 6.405679107962712 8.715689663126325 -3 1 1
762 1 5.46617263904575 7.665864250172256 4.649701481930744 1 0 0
273 1 3.587608942192834 8.019256497138525 6.637259421628634 0 0 1
1568 1 7.047465089835026 5.209563280468426 7.458470041887954 0 1 1
328 1 7.416432379508265 6.979703828209379 5.800442580927762 2 0 0
1425 1 4.252317624173548 5.865245849213198 5.412333692620162 -1 0 -2
1869 1 3.6718494981407193 6.964811299599081 8.558415664594206 1 0 3
476 1 5.9617263723078855 7.517601301884939 7.5108919878759295 0 1 0
730 1 8.682864253503515 4.735775074054197 5.557199903857792 0 2 2
1335 1 10.870237849914808 6.772245976761683 4.619969218333979 0 1 -1
908 1 8.023776652213105 8.91155465560149 6.926348144619677 -3 1 1
434 1 9.320823388083934 6.636985813363315 7.202833808245718 0 -1 1
669 1 10.766540742847397 4.947204211600401 6.167180585551577 1 0 2
1150 1 7.083944223438369 9.544984815473248 8.97234078340526 0 2 2
2013 1 12.178139354237434 5.821995826034344 7.926262208181667 -1 -1 -2
1912 1 9.613197361297386 8.842325180910045 8.84670878547911 0 0 0
1108 1 10.616055385770533 8.733821170493682 6.583576506951202 1 0 -1
1507 1 9.306082140940926 5.167292030203416 8.785747006607458 1 1 -1
2005 1 13.146931431029808 6.302828271567823 5.852704623644777 1 -1 -1
238 1 16.827779606498588 6.812185549507979 6.763867250457798 0 0 2
1660 1 15.336301804805032 6.394077437580662 4.761299391590929 1 1 2
828 1 14.625536552910624 8.337533190480855 6.264256530053063 1 -2 -1
1137 1 14.731101015474444 5.3711077316033204 7.483713717690924 -1 0 1
689 1 15.198830393521913 7.5797302365802475 8.488431667909822 0 -2 2
317 1 13.32741929103105 3.775763368673871 8.712985174319208 2 1 0
419 1 17.595609013854485 7.817799782233639 4.928178825013478 0 0 1
890 1 18.140519523969935 5.717953759158015 5.192383367792677 0 0 0
618 1 19.387075374696785 7.252048135076139 7.285341504975385 0 -1 0
1003 1 16.63928378268342 5.258741932406365 8.904817141568548 -2 -1 0
1058 1 17.4860941362653 7.765182989584193 9.169623852412021 -1 1 1
427 1 16.46043411840678 9.471897589548751 6.367521080649061 1 -2 0
1008 1 18.9353405606795 9.555327394597299 6.7979927389705805 1 -1 1
853 1 20.01572373324315 8.15696415300821 9.35670380757984 1 -2 1
597 1 19.26418319724967 5.858735806685936 9.874353550403047 1 0 0
852 1 20.514621942893534 8.605794322054901 4.964828663069859 1 1 1
1224 1 20.388912718608182 6.4239807826623485 5.564239835013048 0 0 -1
1765 1 23.240463730730674 5.811324292641702 6.6140022901571855 -1 1 2
459 1 22.83132503438344 4.09626203446084 8.512777036007328 -1 0 0
159 1 21.280941539830863 6.107771383581058 8.597939133916798 0 1 1
918 1 21.71064536222906 7.861730982030915 7.475303675353633 -1 1 1
103 1 23.171461882296803 8.002250273560964 5.888342828806435 -1 2 1
734 1 22.366803839637008 9.862048476948809 5.718436085121042 0 1 1
1031 1 24.00127718592919 7.0100002898542515 8.186932489869282 -1 2 1
1153 1 22.412533622063847 8.113354265017048 9.749665577827184 -1 1 -1
1852 1 28.08588313267456 5.350550819983853 6.583919175660613 1 0 1
389 1 27.007551447014876 7.028032660774335 8.132539759295721 -2 -2 -1
1293 1 25.33589122376128 6.881501840456423 6.196328025020316 -2 -1 2
1044 1 28.14998526157848 8.92550615567172 9.012559644491756 1 1 -1
946 1 24.924132897456374 8.939296750071096 9.873442976423801 1 -1 1
1355 1 0.4932848382514039 12.17083456437575 6.559070302163621 2 -1 0
593 1 2.7069977941446792 11.234452690200728 7.717617557347777 -1 -1 2
89 1 2.188932926542272 13.947857798506194 7.71061140886686 -1 -1 2
1449 1 3.412199719589725 12.291485576250759 6.0665115458062955 -1 0 0
252 1 0.42272031464222193 10.991297632297703 8.543857009235833 2 0 -1
1347 1 27.43513263781776 12.499979353235881 7.963837681929899 -1 2 2
371 1 27.396256798530885 8.076097671195598 0.28763160112412967 0 1 0
797 1 3.879073366520218 9.927545084468408 4.7614271033354925 1 0 0
568 1 5.672922913050182 9.245616334889872 6.470311484992683 1 1 1
233 1 4.546334842968534 11.972203332254969 9.50462361941307 0 1 1
934 1 4.567140932110232 9.449809939092003 8.491949260429353 1 0 2
47 1 4.323167876795249 13.651689660671789 8.17080300973634 -2 1 0
269 1 5.0699830093175775 11.578478716723183 7.381350633180289 -3 -1 -1
432 1 6.819403084660212 11.934001435759415 9.022159362468063 0 0 0
489 1 7.454415440868002 14.081083286609362 9.341946414664568 1 -1 1
1824 1 6.015933103709014 13.201526684840424 5.713607376069526 -1 0 1
356 1 7.237087755727783 11.209685318667727 6.610474649887037 0 -1 0
878 1 8.248358551177823 13.131688352490212 7.205551162074293 0 0 -1
639 1 11.976878024567847 12.73692814364659 8.715378904489654 -1 0 1
1403 1 9.355223840510206 10.849949471996597 5.108635468133423 -1 1 1
657 1 9.576849365390537 10.62064567744314 7.379524174850996 -1 -1 2
1113 1 9.297980308939529 11.894695528637813 9.189403349359312 0 -1 0
1184 1 10.473931730590055 12.893089197758629 6.967401587448244 -1 2 0
458 1 13.1160191461028 12.313433179914782 6.516090749014287 1 0 -1
2001 1 12.280885062892501 14.137451806332564 5.293909132020598 1 0 -1
1872 1 12.745233280619793 8.14143456411409 7.606236217953989 -1 0 2
1488 1 11.576015156947577 10.67665916633735 5.612563765324237 0 1 0
1183 1 27.171589361577176 0.3608274442244988 9.963466767700574 1 -1 0
1006 1 14.103479090388669 11.63360422796943 9.039544217228574 0 0 1
787 1 12.660004347171162 8.933199426420806 13.862506683065499 0 -1 0
1092 1 16.17201151832377 11.463240863689332 5.000428310155127 0 2 0
1957 1 13.851374445823458 10.132484642413845 7.429900668486339 0 2 1
142 1 16.818442202262247 13.473707998084471 5.82463206300307 0 1 2
116 1 15.524556942472126 11.809657202240361 7.220242662059036 -1 1 1
1109 1 18.72132042357753 13.926923873330677 7.1408122881269085 1 0 0
1505 1 17.950520655670537 11.491778464699909 6.73711065870951 2 1 0
1781 1 16.036613598541066 9.912918385030325 8.731245807668321 1 -1 0
321 1 19.193295568519638 12.335780174006628 8.772441235463305 1 0 0
1718 1 18.207657645458525 10.68744129438677 4.601865273335887 -1 1 2
1309 1 16.768525162945338 11.72420536065154 10.014252889181103 -1 0 1
660 1 18.244818413458383 9.967360344309698 8.911233223744766 -2 1 0
354 1 23.42133454864046 9.513645009540733 7.826222770200211 -2 2 -1
205 1 16.959002832380428 13.417943157724814 8.205573712728143 -1 -1 0
1324 1 5.80561684943173 0.4610192671256965 13.793946504427549 0 0 -1
1915 1 20.962692576142437 10.450461248831587 7.954233177035965 0 -1 0
34 1 21.29118284160277 13.253727645160474 6.969230732174017 -2 0 -2
324 1 20.85668435681879 12.443447760685457 9.974884245808461 -1 1 0
1843 1 19.402075219048115 3.289885765981031 13.992438308445257 -1 -1 1
891 1 23.171357957191184 11.95675231846613 5.601346514564231 1 0 2
956 1 23.67153795851128 13.8004594334757 6.564426097508678 2 0 2
1889 1 27.40013332544168 11.756049552954185 5.373633625890723 -1 4 2
77 1 25.618845149011413 11.043685865136135 8.848257940303819 -1 0 -1
768 1 28.040047584269097 10.043627220200054 6.756546067181329 0 1 0
1476 1 27.958060811277967 13.758138284367655 4.531517362839879 -1 1 1
530 1 25.919247141966444 9.122312444172028 7.4419582041463785 1 0 0
1285 1 22.90531593525069 11.867575475982514 8.439365332796363 2 -1 1
1164 1 24.877317977896737 13.018848420085657 8.703032835872424 -1 0 0
1361 1 25.12534771038831 11.215444745755292 6.712061132544689 -2 1 1
1127 1 26.004005774795637 13.66762813269848 6.590637054420137 0 2 -2
1310 1 27.83718321657158 2.413833635786365 9.517735446681154 0 2 1
1777 1 2.5991082242199774 4.7856166653026815 9.136971072334244 0 1 -1
877 1 3.3086089565899144 1.0640633358375244 13.006377017651825 1 1 0
308 1 2.6479359215764786 3.720010447792224 11.413391697086418 2 -2 0
1215 1 1.8257111923201372 2.355848190123132 9.312927373081385 1 2 1
1540 1 0.811314917765534 3.4971940035058164 13.053963289585521 1 1 -1
1401 1 1.6605871962402343 1.3305312220427168 11.56715224943193 1 0 0
355 1 0.09878546297952637 5.927080665840443 12.4586384946224 3 -1 -1
1859 1 0.9202864346845789 14.141229636017636 2.6183609337675398 0 0 2
867 1 4.6744842965408235 3.992475808897624 9.930385623794088 -1 -1 0
1326 1 4.51562339085804 2.862067706392466 12.575417638570956 -1 1 0
561 1 3.7024974480767403 1.6754420125140843 10.694145375180081 0 -1 0
1835 1 7.595483260042501 1.483670478692968 9.300865263483301 0 0 1
1755 1 5.9798992292697095 2.371137209472627 10.594922709463326 0 1 2
1981 1 7.1839257792785824 4.154486057025696 9.691200022792824 2 -1 2
1269 1 5.7745988514545274 4.59497015981753 11.850847409226066 1 1 -1
327 1 9.606105983384142 2.7739039312351004 9.815635604865246 0 -1 0
1087 1 8.132373944704634 3.330923612934317 11.589262328258965 2 0 0
1190 1 11.475675760085798 4.636469164223863 9.673508133967601 0 0 0
158 1 11.75723117489222 2.035895185535405 9.972415855735807 1 -1 0
1082 1 19.129398678277738 13.945067780167815 3.040709743652268 0 2 0
729 1 10.956183628974323 1.312120553778478 11.765621782514547 1 0 1
409 1 10.448641436078471 4.09241462465006 11.474924358487522 2 1 0
20 1 10.8771729948065 13.9724123748848 0.7438752101360306 -1 2 -2
1432 1 23.983387652366126 0.08005189209736752 3.9903033095298612 0 2 3
922 1 6.8259590612438465 2.7307217388877683 13.451114701250853 0 1 0
287 1 13.28841945891063 0.3563031607846558 11.256190971548802 1 -1 0
907 1 13.914217940114082 2.273350228024649 10.323409525186012 1 -1 -1
1836 1 15.174393986247443 0.4373866340248236 9.978495616804922 0 0 0
1443 1 14.650929404877846 2.585812881369243 12.508501518815748 -1 0 1
799 1 15.537693396066423 0.6431641253058074 12.194340271583208 1 1 1
1899 1 20.540674450463406 10.09023664635869 10.16720987835797 -1 0 2
1678 1 18.833456110070884 1.411751298875712 9.245317285093845 0 0 1
1360 1 18.58812456743029 1.1678310903427205 12.414422742517983 0 0 -1
1582 1 19.203209948801295 3.4740223646001844 11.275013302401167 0 0 -2
1246 1 17.03573824093207 2.220455685203396 10.79457677366577 -2 3 0
1674 1 17.124051310133083 3.6605224129720146 13.03014545129302 -1 -1 -1
256 1 17.287055180957395 4.965816007923617 11.29617194138345 -1 -1 -1
428 1 21.018219961773745 0.9288094888809424 12.844088616811366 0 -1 -1
196 1 19.2930230111282 13.088138028413159 13.010830830754685 -2 0 -1
855 1 20.604486913796173 1.8786314249743157 10.649206445755151 1 -1 0
1055 1 21.111477585390197 4.612912378958999 10.565597713504557 1 1 0
1040 1 23.240325694484987 3.7834282354249913 13.563007081178192 1 0 0
44 1 23.402285433736893 1.6142193773260773 12.068210759519856 0 1 0
323 1 25.139387464709763 1.1581196252406907 10.218727640284046 -1 0 -1
534 1 1.7490398048430458 14.0107881763366 5.071256178096667 1 0 0
917 1 20.957081789815724 0.3543075232546866 8.922025373413378 0 1 1
1491 1 2.974368741420023 0.48093144160238566 8.06310184272945 0 0 0
228 1 25.431774117276774 4.041078608103206 14.03129054228645 -1 -1 0
1001 1 4.4401790454990975 2.8586135632940652 1.0697157712709244 1 0 1
982 1 23.11827128213963 3.8590985183401445 10.884790863660195 -1 -3 1
1088 1 0.17400835935770653 0.49146407456248487 13.586732919385666 1 2 1
1554 1 27.043963352511284 4.6179558071818185 11.750102948034609 0 0 0
961 1 25.578829630264586 2.6221751608580695 11.994044996559666 0 0 2
1643 1 28.020571934726092 1.8427465616972036 11.76006968781143 -1 -1 2
563 1 3.653017244584535 8.507533502231352 10.981648628435083 0 1 -1
969 1 3.8620661234441798 6.245357480771806 10.877569991457646 1 -1 2
248 1 2.513146005728261 7.205042938153526 12.82450119661396 0 -1 1
1710 1 1.7432083698930203 5.66618627157017 11.041785199114134 0 0 -1
1992 1 2.1402785988615696 9.962902039503335 12.440482863864679 0 0 0
335 1 1.3245088747761495 8.00438534384553 10.52309769789816 1 0 0
850 1 3.6901537808378255 5.19527279855726 13.309791555075126 -2 -1 0
1421 1 4.996249945562725 7.559812180001677 12.505103007053618 1 1 -1
1573 1 7.72382670912476 7.009603317507799 9.199444510068929 -2 -1 1
743 1 5.651335158752678 5.822378073825168 9.53916674120625 -2 1 -1
1204 1 5.843889051670162 7.944670397912402 10.091371062785456 1 1 0
495 1 7.110369373078897 7.248041986576161 12.090454541567675 0 0 -2
824 1 6.498534462462553 9.518674289538989 12.683607551966308 0 -1 0
281 1 8.314979493415281 8.596051299236898 10.665044594379761 1 -1 -3
1277 1 21.329521413528305 0.17170447007317385 6.2164924815024625 0 2 0
253 1 3.4712370937155015 0.5402042251177042 1.3570349683574143 2 1 -2
1984 1 11.489706058635203 6.263106643287281 11.706774836439086 0 0 -1
1794 1 8.65973321702195 5.506502739827077 10.996362879673471 0 0 0
1924 1 9.721087368164005 4.54406521375415 13.451617174794137 -1 1 3
933 1 9.412844773297172 6.996018063820755 12.680047168871074 0 1 2
472 1 10.055166684566288 7.002321267134351 10.040011604272186 0 1 2
606 1 11.298338553663017 8.440881554138667 12.132971673993039 -1 0 0
1501 1 9.116098184499029 9.46059730360357 12.661152170405375 2 0 -1
678 1 15.922530528165607 12.975306447190318 13.983952976352898 0 0 -1
106 1 13.526614376772486 6.302146447337253 9.556730050376917 0 0 1
1866 1 12.363377694350934 6.637480898141075 13.712516563636386 2 1 -1
1721 1 15.89866989512594 6.809209876564679 10.694383328667051 1 1 -1
521 1 13.763503702119017 8.445648522813157 11.732751054902302 -1 0 -1
2004 1 14.043507705656147 9.21068979625631 9.62580926541379 -1 0 0
1508 1 15.90552089998546 7.428147045698013 12.970049887919389 -1 2 1
1210 1 13.924297964010577 6.260206084344648 11.869549344102369 2 0 0
1766 1 12.894816353835504 3.8144319962348168 11.487686388149482 2 1 0