LAMMPS data file via write_data, version 29 Oct 2020, timestep = 300000

2048 atoms
1 atom types

-0.05931854572981088 28.411318545724182 xlo xhi
-0.05931854572981088 28.411318545724182 ylo yhi
-0.05931854572981088 28.411318545724182 zlo zhi

Masses

1 58.933

Atoms # atomic

1224 1 2.862760738724632 2.028902698775136 2.096422886522004 0 -1 -1
683 1 3.132767823789717 4.5610405127534746 1.2705294800524267 0 0 1
1230 1 1.3131157951718784 1.5602893210532855 4.1890733194503715 3 -1 3
1715 1 1.0001529532886493 3.068692856054776 1.2547201700697734 2 0 3
1913 1 24.928373981606953 7.373920726566452 0.6369610654459745 0 -2 2
1119 1 0.4467233996085994 0.7695984947140267 1.0067522750242193 -1 2 0
1075 1 9.169167380558322 13.397047597720286 4.050846385715909 1 -1 2
1266 1 10.212359424613947 11.233342382230305 0.5676000065130106 0 1 0
746 1 4.163425920245586 2.759535509963499 0.5269824040978508 0 0 2
1452 1 5.195327749383334 2.295175681066564 2.43436763544939 -1 0 1
1297 1 6.5772151317476 3.246900787309413 0.5598853363533947 0 1 -1
876 1 6.889742110555511 1.0834440758335886 1.2925718521342326 1 1 0
1226 1 7.514774940988789 0.8531242361438233 3.2961881026672506 2 0 -1
1948 1 4.208837764923917 4.23688869049454 3.1847143515231497 0 0 1
663 1 6.762111019673274 5.390644546130762 4.13613775911432 -1 0 -1
916 1 4.140129709444225 0.41402293326739054 0.8621865892681783 0 -1 2
1196 1 26.85836372241789 12.389898555530815 10.902748742672443 -1 1 0
1747 1 11.626384963673317 0.2726189708623325 8.50333240501145 1 1 1
512 1 9.311565270688545 3.8977992620619992 0.3679815411865051 0 -1 2
346 1 8.007146746488651 2.854312777623874 2.208246702325016 2 1 1
1678 1 9.607773496179355 2.1413037465458507 3.8607801864141145 1 0 1
774 1 10.810350267177446 3.329878095353483 2.1783754924081444 -2 0 0
1256 1 9.571541039462161 1.6483527743865938 0.8762431229386454 -1 0 1
1868 1 10.555325091326498 5.708443678140429 2.689513822843022 -1 -1 2
1883 1 17.462976166474995 0.7895685948952905 10.645800838786785 1 1 0
1211 1 9.484556319473516 0.2475293202215793 2.6366912622503036 3 1 -2
101 1 11.904382886118226 1.5307754512524234 4.301384736720627 0 0 -1
1931 1 14.305354948354937 1.260771294456443 4.75147546498294 2 0 3
181 1 13.879887382607885 3.187843338281556 3.0356389030405366 0 -1 1
1108 1 13.173807300990614 3.1296582572815637 1.030017300634181 1 0 0
739 1 15.612404206926056 3.9657054155079337 1.100802140742549 2 2 2
591 1 15.981077991513844 2.4217821784172644 2.751861768004474 0 0 1
1361 1 7.427451092135799 14.013093476933108 6.300455969777736 -1 2 2
819 1 15.29362843352304 3.3365692222999375 4.735004745894283 -1 0 1
451 1 13.893446508993478 0.7113889004438034 2.5698952478088595 -2 -1 0
1268 1 18.22222376845147 1.437583618668537 2.148248435979392 -1 -1 -1
735 1 16.661165218173153 0.9890466756599525 4.711123780380279 1 1 0
1755 1 24.086034167314573 13.458635295101022 8.079623269041216 0 1 2
1074 1 19.771746946037958 3.2496434141381645 2.9646178831405474 0 2 1
114 1 19.91535803926334 0.2599246181622696 0.0270189454128624 1 1 -1
1158 1 17.606476024924014 3.1209318436195024 3.932663271131282 1 0 -2
1070 1 18.053097870732984 3.8638919023395286 1.4239510273634126 0 2 1
1851 1 14.49258082410943 13.178404480431492 13.36577297275548 2 -2 0
1179 1 9.895810147965417 0.21678582233484583 12.861361273671431 1 0 0
385 1 20.9524368937319 1.8597194083254804 1.413115162750438 -2 0 0
1326 1 21.736038672611542 4.4458595640480345 2.7165302073419304 -2 1 1
64 1 22.628467144640865 2.8827766220855846 0.695682180865705 1 0 0
1449 1 23.38086942227629 2.457287423840709 3.189192557131595 -2 0 0
1756 1 24.092710352498415 1.2751992919991275 0.7606970667721534 0 2 0
429 1 21.43441604966702 2.0097002416916356 3.77229245529165 1 0 0
93 1 22.765823214326872 0.03522593488556229 2.341511152917946 -2 1 0
167 1 6.926632478577159 13.53362454937466 9.207127738635725 0 -1 -2
1635 1 25.0880952306212 2.9841697411804335 1.9573666217451384 -2 0 1
277 1 27.54481586205629 1.288791822134209 2.684953996238302 0 -1 0
249 1 28.367379790065208 3.154271899783359 4.059642067696233 0 -1 -1
792 1 27.285693053320948 3.6470346630378803 1.6800624140211466 1 0 2
815 1 26.750754577374316 1.6758844357558176 0.578287121030423 -2 1 3
1876 1 25.197145712795987 0.6006755875955365 2.587039443196247 0 1 0
1772 1 25.29920454136674 3.121982795040178 4.315597516202694 -2 -1 -1
1011 1 1.9275149129388283 4.260661237889153 3.585810579262116 2 -2 3
626 1 3.730072262874046 8.727462415632147 0.824269135587274 1 2 0
767 1 0.1627068518551768 5.219906676848414 2.4330954799028035 0 0 3
1516 1 2.7815032760682206 8.800255384044108 3.3098142467524774 1 -1 1
41 1 1.8387846478857066 6.583435798836152 1.3439697119408323 0 1 0
553 1 1.4631011841983688 8.852140947945122 1.3894506692033726 0 -1 1
248 1 2.210398362020093 6.486380397017567 4.033793044138649 -1 -1 0
182 1 1.005507783884673 9.9852288333406 4.26340372724703 3 -2 -1
1498 1 0.5828125532294095 5.025209615547646 0.10201258567491867 0 3 0
981 1 4.603073978275484 6.575363872506203 4.5751594467629095 1 -3 -1
748 1 5.946004885287305 4.86530851739351 1.8740178308337532 0 1 0
224 1 3.8424836428497127 6.413725075569226 2.3751477545414823 1 -2 2
1502 1 6.45355381058593 7.132761416016441 2.2072758809256845 1 1 -2
775 1 5.215023119133073 8.6729059024983 3.6692897877416115 1 0 1
1798 1 5.871405179191057 9.093947262860324 0.44524884726505165 2 -1 0
331 1 7.082982056852327 7.7430786942497924 4.382243980587242 1 0 -1
702 1 1.2961016063749546 0.049973649109677054 7.287997394413331 2 0 1
1286 1 8.005691373996989 7.610259925671508 0.4341065840565277 -1 -1 0
666 1 8.288240684399936 5.201827836818699 2.294245905647274 -1 0 0
967 1 12.64959230823167 11.917182321995417 0.31423846653816223 -1 2 -1
268 1 9.165691927661555 7.106200532198757 3.556545835006556 1 1 2
1489 1 11.642084331135129 7.997175812640263 2.336256954377994 -1 -1 -1
342 1 9.03808032037072 5.018120977871848 4.275207672960799 -1 1 1
1793 1 12.121859355988201 6.5178979058431965 4.147003051594208 0 1 2
1289 1 8.549382878029732 13.973993143125469 1.7380320517833465 1 -1 1
1152 1 15.65617586097149 5.087687814962037 3.032718505877967 -1 2 0
137 1 12.902209212238755 5.055215747137061 2.409331233542097 -1 -1 -1
443 1 14.209354052402524 6.792386494497524 2.014770653250853 0 2 -1
605 1 16.109440052200533 7.561857737781179 3.0527601946557357 1 0 -1
957 1 14.541873573410367 9.505463244175974 2.5031425440226505 -1 1 -1
810 1 12.637505754017083 9.50543808124076 4.092537258911728 1 0 0
1996 1 11.001164819567238 13.926931582240519 0.3519049863262895 1 1 1
862 1 3.1835370015365987 0.03659277775445598 3.3858323478045476 2 1 -1
1858 1 16.79094696840165 8.659220962826828 1.088328547406738 -1 -1 2
1657 1 17.095696631367794 6.31463204202948 1.394532185161488 2 0 1
186 1 18.775223903036512 7.731665304301446 2.2939035340673937 -1 -1 0
962 1 17.912267556014136 7.916971208761256 4.578700403418903 -1 -2 2
964 1 21.96000623934006 9.092687138504502 0.46714071631246357 -1 1 0
1090 1 20.283500118967787 7.178303714150167 4.572410290473203 -1 1 1
105 1 17.94697042608164 5.385479122926744 3.359219568636139 -2 2 -1
1183 1 19.923148670319186 5.892372471392366 2.3277089870828354 2 -1 0
535 1 20.37900425052181 4.090911837759264 0.847711141912921 -1 0 -1
1388 1 21.21133949581734 8.128107431291093 2.5021375278823355 2 1 0
1136 1 21.03001910729425 6.35000724002328 0.3972359031290495 -1 -1 1
606 1 23.022206837892902 5.08604199151143 0.7467018279925897 -1 0 0
670 1 22.589350293187124 6.575749125309099 2.698478419942856 0 0 -2
1002 1 23.606505732117228 8.907947155087275 2.073314917835655 0 1 3
1987 1 24.100398904566518 4.7494482185589995 3.0510261928823708 -1 1 -1
976 1 24.685222359746263 9.143610140773612 4.510566671873179 0 -1 2
1203 1 21.65483400425189 10.497235685899865 2.712925219098752 -1 -1 -1
2035 1 19.82383359017026 4.829380843963963 4.600945953275629 2 0 1
1895 1 28.38659216363272 7.534143269445009 2.9694474708772916 -1 -1 2
1872 1 26.327146966122214 4.6978599954545475 3.381229703179208 -1 1 2
1564 1 26.163457165338095 8.84541360762554 2.3543181577163814 -1 1 1
431 1 24.661069310215332 7.1159941288113675 3.3802007671761785 -2 2 0
138 1 25.267589649520758 5.024296213085984 1.0624149870063717 1 -2 1
61 1 26.576925975442315 6.555119702143272 1.723743929926401 -1 -2 -2
1187 1 27.573405358278478 8.487729683466984 0.6826751902875579 0 0 2
211 1 2.9100629629554673 13.792580972712884 5.653256659155355 -1 -1 -1
1767 1 1.991783146533118 11.238279610636098 2.2295919258806425 0 1 0
1218 1 0.37540390834684145 12.82524031297117 1.240093849518953 -1 2 -1
1769 1 4.259982146551824 10.309465392807125 2.230698632279715 -2 1 0
365 1 2.610110829156326 12.756447600851383 0.3418842600062691 -1 -1 2
488 1 2.5297566789689014 13.60435687893878 3.3252329908074745 0 0 0
1713 1 7.163690856698188 9.4055283928359 2.5062142548851534 1 0 0
1679 1 6.2031719977737865 10.735124265926578 4.12836598618833 1 -2 1
549 1 4.24120286998423 12.086367595868944 4.0349367331689034 0 -1 1
1376 1 6.582806744117742 12.587153525381481 3.0750270238863004 0 -1 -1
1969 1 25.833510675146016 0.6400251575848698 8.99143613257282 -1 1 1
373 1 4.397198224451366 12.607666558423709 1.8075625110045868 -1 -4 3
262 1 11.61575770701357 4.659813115699789 0.18499165967395986 2 -1 1
6 1 6.463569261073822 11.263698170120518 1.3443726426098888 1 -1 0
237 1 25.081786070150663 13.180079379973526 1.2406974751538484 2 -1 1
1089 1 8.256101347636159 9.690967332321668 4.245843606221893 -3 1 -2
1810 1 9.58462235166264 8.9097388504261 2.2426281415366667 1 -3 -1
245 1 10.969911401615056 8.390957540506337 4.786266480149782 2 1 -3
1536 1 8.536935276842826 11.644747922957954 2.4443313651521428 0 0 2
1362 1 10.193006751215767 10.878717799878372 3.678231118827903 0 1 1
329 1 10.657744523443798 12.80239216245977 2.2299333269202655 2 -2 2
1436 1 14.521331563189362 0.3561284920044009 8.695527351134237 1 -1 3
1180 1 12.443565844087422 12.904295068213127 3.8094594171852747 0 2 1
1328 1 12.219793726367179 13.87592263290855 14.040213560120238 -2 -1 0
801 1 13.225668943369303 0.6718504627316073 0.10516350191422244 -1 0 0
1401 1 27.32703071165102 7.972390647371666 13.535038665070175 0 0 0
844 1 11.89151320517799 10.381062172228061 2.117469806748337 0 1 1
863 1 13.853599332613241 11.824962356863281 2.3735365958712173 2 -1 1
77 1 14.242561480982637 11.156091856915232 4.602641718387499 -1 -1 0
1049 1 15.538635343613377 9.113742377668258 4.947255039625476 2 0 -1
348 1 16.42497490724002 13.496791242404829 2.162723888982834 2 -1 0
1722 1 16.013292430623252 11.339981555667125 1.5449459460760833 2 -1 1
2040 1 26.38851198877667 0.813790200312109 4.7002617177989 2 2 0
495 1 17.31091329805554 9.752229698757851 3.154018042328005 0 -1 -2
1642 1 18.389211962295697 11.762483868899535 2.1038362907238826 0 0 2
32 1 19.384694630138675 12.509962466904865 0.3043271344171808 0 0 0
1936 1 19.782980178283076 10.030329056895718 1.6683448979788476 2 0 3
1252 1 16.449415464121287 11.885752908337079 3.8834292982014826 -1 2 2
1265 1 16.562153231595623 2.0295326575405848 0.439312525722588 0 0 0
1954 1 19.233182261424652 11.458702031957404 4.616111611105183 -3 -1 0
1129 1 20.17467959026144 9.469485235324681 4.108946351942055 -2 1 0
1207 1 20.628194979555765 12.684035181848593 2.638684307118724 0 -1 1
28 1 23.092310711042245 12.630908674417848 2.324271183989701 0 1 0
1739 1 22.272264322217353 13.270552723367476 4.425997048877368 -1 1 -1
556 1 23.60683340896791 11.071671889777734 0.7396270264068924 0 -1 1
1419 1 23.646200314690724 11.256963198872485 4.485173286284894 0 -3 0
16 1 21.36186170007565 11.743041812335974 0.5028867638592144 -1 1 -2
814 1 21.411262719715644 10.356997633352318 9.991808518888257 -2 1 2
725 1 28.143115493264638 9.99229206875107 2.638815301061708 0 1 0
299 1 26.762273209051628 12.235408282085237 2.3918121659390223 0 2 0
858 1 0.49658138274380303 12.641481508218426 3.413408507899484 2 1 4
1032 1 24.616423179900636 10.879603845374925 2.4760345754510436 -1 2 -1
900 1 11.702798950177327 1.023513643797076 1.8121302800876578 -1 -2 2
2003 1 26.28478569768184 10.655486856675648 0.7182033159064749 -2 0 2
230 1 0.28254112616198557 10.563045782729791 0.5515411387777657 3 1 -2
1549 1 7.8425815126450305 0.5248457282020229 11.754961950364132 3 1 0
2007 1 3.3551742173003527 2.7669421865230484 4.5401615303488585 0 0 1
1138 1 3.2447505950926314 0.5490873626017588 8.380786114705264 0 0 -1
1957 1 2.816731131947797 0.12209470960590024 5.692903676315847 0 2 1
811 1 1.3478006226507477 2.1218664871553474 8.162448089345643 0 1 2
918 1 1.3272604043660832 3.4403002124469015 5.948956873884718 1 1 1
1889 1 2.6190628543351773 4.246688537381961 7.93844488188042 0 4 2
333 1 1.6141232775753536 1.350994522562019 10.40286872822868 1 0 0
582 1 3.347559696174866 2.6508323903361606 9.830618865295973 -1 0 -1
1232 1 27.136157016231024 13.869337230435583 8.906134031560095 -1 -1 0
1644 1 3.4613915261400763 2.275975047027111 6.73309963632767 1 0 1
822 1 7.011215137815607 3.1069259296726837 4.393583986316004 -1 0 2
911 1 5.03780941032855 1.2969488945969203 5.305243402461481 2 -3 1
805 1 6.256922100689775 2.5023889081473922 6.6541995245052945 0 -1 0
1632 1 7.220691201159621 4.074851440555587 8.639897052710658 1 3 2
849 1 5.084177967464899 4.212021829989669 5.4043443025389895 1 -1 0
750 1 7.243537757951322 0.8315364397449068 8.024503002120714 -1 0 -1
1960 1 4.808885913310737 3.458696465002387 8.30350718096431 1 1 1
780 1 5.3945579583283 1.556578509586468 9.589314375989046 -1 0 -1
1530 1 11.588783219992086 3.923544533523602 4.360455569262903 0 2 -1
447 1 8.223499282341518 1.2633697187589379 5.60956424524737 1 0 1
1250 1 8.052022634078721 3.889494684671702 6.294764183331025 -2 0 -2
631 1 10.267968671075593 3.0779443767850636 5.996264820995225 3 1 1
1439 1 8.891208910729246 2.2804151968965267 7.832812331367378 0 0 0
1444 1 10.397186050020297 0.7353835168537488 6.648476131825982 -1 2 0
1225 1 11.491260048899239 2.6624868195182128 7.9408194010295805 1 0 -1
287 1 9.589090351633809 4.7579820568841455 8.010789826105828 1 -1 0
828 1 14.099555303714823 0.04844285220978975 11.548936088853697 0 -3 -1
717 1 13.183300575232934 3.1089620943804066 5.983840948023804 0 -1 0
674 1 15.38514939791877 1.9182935777649943 6.8734834151871205 2 0 -1
2025 1 12.985751493400665 0.7383686005606579 6.854563277998513 -3 0 1
260 1 13.792482290460562 2.8871587103952026 8.205466533981047 1 -1 0
63 1 14.930177473022278 4.728923061027606 6.772308335421219 -1 -2 -1
1091 1 17.53207517403944 2.479148247336738 6.489823582189499 0 2 1
1976 1 17.754573920315572 1.3639268669763491 8.64345493518249 -2 0 1
194 1 19.20641488452449 1.1181474342840498 4.640907147502698 -1 2 0
1356 1 17.26242686741147 4.500634950211407 5.853511646154454 -1 0 0
1617 1 15.979195402772215 3.8187916250319 8.484184926409796 0 -1 -1
1650 1 19.770225504346392 2.195029517066123 8.057213671572082 2 0 1
925 1 19.979798762082318 2.8837074768064714 5.653027353637798 -2 0 0
1381 1 17.953309394439408 13.93658482289863 12.915889056516775 -1 2 -1
1684 1 20.794393136742983 3.69695141013601 9.202415318845096 0 0 0
571 1 23.278218218095795 1.913745346580354 5.6533167925727215 1 1 3
541 1 22.083077272333576 3.9752705871309164 5.041643066703896 0 -1 0
1000 1 21.903060898349075 2.9439731754471037 7.109646033538538 -5 0 1
741 1 24.108765574722227 3.775141622918019 6.615059198598075 0 0 1
1285 1 21.549706808607525 0.867701809181165 8.481122611659087 1 0 2
1687 1 20.820862069752394 0.7337951927792212 6.12228174236259 0 -1 1
1935 1 23.07356364148665 3.713437526520927 9.039822540649341 -2 1 0
428 1 24.07371564907551 1.5483967012710915 7.948193490029155 -1 -1 -1
1137 1 27.28073663624442 2.731013034436952 9.137075141821711 -2 0 1
1277 1 28.21168571186191 1.9521419222833751 6.259425326121639 1 1 0
970 1 26.90425977330107 4.269636451746111 5.543447631550791 -1 0 1
173 1 26.275822679684303 2.429534790911046 7.2218993558901445 0 -1 2
1198 1 25.577976459503894 4.54138357738368 7.970206682241715 2 2 0
1643 1 28.33383648327407 0.6758024848645406 8.962234492093971 -1 -2 1
589 1 25.19359142023842 2.7986492847527953 9.650079476734163 1 2 -1
2028 1 2.9334205778341698 7.684607817239554 6.055734165137355 1 1 0
7 1 3.4133296693789763 9.787266845733733 5.328838528072206 0 -2 -1
47 1 3.076121925225882 4.7570436350346155 5.873112889958016 -3 1 0
1628 1 1.3465812893449411 6.285977278010975 6.995863671537912 1 2 0
1249 1 4.002450457966222 9.393028404123369 7.444078837003212 -1 1 1
502 1 28.35464781247653 8.718927532678869 7.916786164678652 1 -1 0
1523 1 1.7409762690919193 9.31287434104922 6.687731431603469 2 -2 0
1841 1 2.206574676115592 7.938410392433931 8.551060028533504 -1 0 -2
1208 1 4.362579311501934 6.17401362473397 7.236699959929042 0 -2 1
70 1 5.6110713584306025 8.222146628895578 6.441080269516074 0 2 0
590 1 2.9205097375862343 6.006700845623213 9.296892104246323 -1 1 0
558 1 7.364304424647428 7.699983715117125 8.023358115900756 -1 2 2
773 1 6.509492319847539 5.558645649709745 6.808700136433988 -1 -1 2
665 1 8.46218310523641 6.159340147450433 6.400944481812582 -1 1 -1
2005 1 4.929139009363081 7.980562953332154 8.847095103668147 2 1 -1
377 1 9.096794956648772 8.420299048826422 5.790982038348298 -1 -1 2
1057 1 10.173154737529964 7.6149600081250455 7.469897958512087 0 2 -1
482 1 11.981183285889777 6.711829544508305 8.63067262409733 -2 0 0
803 1 10.667357417461567 5.473626567730566 6.0988151446956635 0 2 0
570 1 11.529845190015278 9.038064132152034 9.60634142054039 0 1 2
1869 1 12.374735384616924 7.297341435012552 6.377974030505851 1 0 2
1754 1 9.400740137418524 9.64887293834442 8.031845479475772 -1 2 1
203 1 8.296045238580827 6.051519997443449 8.996561479072358 1 0 0
1537 1 12.48238364041865 4.951761427067106 7.477779454181576 -3 -1 0
740 1 14.066255882064587 7.605988426019235 4.001563723281134 -1 1 -1
129 1 13.82535286504455 5.252802903751821 4.772250205481583 -1 0 0
1981 1 14.62742825706139 7.266211249779913 6.530764507869671 3 -1 3
817 1 14.576179316499669 5.568810798407235 9.017778856745018 -1 -1 1
60 1 13.630669963258718 8.157498428457409 8.406070877640062 -2 1 -1
782 1 16.20837806951055 6.521402531735683 5.0981196198361225 1 0 1
562 1 14.074396815870115 9.496677761749547 6.622022299001686 -1 -3 -2
1751 1 16.630446587129512 8.332289721923173 6.8845455914040805 1 -1 1
1763 1 15.854649951359018 7.7018201478375845 9.077555279029532 0 1 0
788 1 16.775814483858937 6.02754907651951 7.347169595417144 -1 0 0
1201 1 18.985504781886192 6.445369874831003 6.246019552980859 -2 -1 0
491 1 18.37922369779691 4.566651162527092 8.072732528823162 -1 -1 3
1083 1 18.271365268951293 7.441797270836575 8.28816467909078 -1 1 0
652 1 19.409645010745557 9.177072911381144 6.058330081145901 -2 0 2
176 1 20.330916207319056 9.117081001341575 8.534027358000566 -1 -3 -1
161 1 20.55293391593473 6.727239128888949 8.348899427945303 0 -3 -3
1346 1 22.90970011532739 6.000942961469965 4.966661138325248 -1 1 -1
807 1 22.425865567089673 8.48486197476053 4.196495107866874 -1 -2 1
383 1 20.491407669912334 4.960974000445142 6.894525692967964 1 -1 2
947 1 22.904750263348433 5.743083695827604 7.4282159114357205 1 1 0
1980 1 22.563760993743934 7.937756515823224 8.286885591951995 2 2 1
392 1 21.37794301294433 7.215413231268142 6.317355741251487 -3 0 -3
1459 1 23.78927848913606 7.970462264081274 6.241104396556329 -1 0 2
1069 1 22.25205715368964 6.022086252916232 9.706194912468932 -1 2 0
1213 1 24.95679581989323 6.168365097738816 5.609461903858517 -2 -2 0
372 1 26.80936167920057 6.904238622108708 4.287641427461178 -1 -1 0
315 1 0.07460036020696928 4.037186192352594 7.920502626346035 2 1 0
324 1 0.18598832781346136 7.620901689982199 5.570075310636142 -1 0 2
201 1 0.3530477928162025 5.522630862193795 5.000007171319304 0 -1 1
1431 1 24.986146800159545 6.577646925059655 8.18930001334492 -1 1 -1
370 1 26.214192383116888 7.896512128656447 6.5460567212606575 1 0 0
1508 1 27.339063397596306 5.994853478571984 7.2295170682141805 -1 2 2
253 1 25.019369611979783 8.961036347930067 8.692060650307992 2 0 -2
1705 1 27.107781109706295 9.148032169430483 4.635181331493788 0 1 1
1 1 2.136858961822942 11.698538274293291 5.3030162395401454 0 2 0
271 1 2.8860721919111336 12.634089939024527 9.35357433511455 1 -1 -1
1943 1 9.970574079089866 6.4990004146809035 0.673277094976592 1 1 0
1262 1 0.7749663448726326 12.795019957215583 7.278771764353879 -3 -2 0
283 1 0.8749387907254789 0.07489972290905647 12.091595795456586 1 -1 -1
1056 1 3.552400424332474 11.68235149649948 6.977398211726494 1 2 -2
944 1 7.990329164812378 11.968585707338216 5.247487365107686 1 -1 1
238 1 7.379451843326678 9.714927233759466 6.639243215298599 0 0 2
1934 1 5.090071779143375 11.0749551817888 8.90413893047182 2 -2 0
136 1 5.432392208268534 10.812796615631353 6.221657356209797 1 0 5
472 1 6.957178137613077 9.785995004985987 8.957298723961344 0 1 2
1357 1 5.583080186023792 13.022022087742515 5.838805902185249 -1 1 -1
301 1 4.63959547648165 13.348407680472617 8.055679656700224 -3 -1 -2
1071 1 7.16116006017225 11.804657324451421 7.523248043422927 1 1 -1
1443 1 9.613786434131931 7.387372755516867 13.954154494503012 -2 1 1
1243 1 11.783809527299896 9.480691259465418 7.3765996670014005 0 1 -1
845 1 10.545877887081026 12.920347232464191 5.525327353499576 -2 -1 1
1663 1 9.350903328908265 12.756508611595917 7.6958954887538775 1 2 -1
393 1 9.97378481635397 10.704203740808962 6.073095579081376 0 -2 1
1694 1 10.970744073023706 11.535052533668878 8.347541511953766 -2 -1 1
27 1 11.57188351912723 13.572988627268247 7.3780920131298275 -2 -3 -1
1140 1 8.603443226931176 11.721158568040071 9.278375290004888 1 1 0
1611 1 15.516010139517055 10.209039299961345 8.73346969265404 -3 0 1
327 1 12.408501451589968 11.65283668106146 5.809663826650199 -1 -2 0
1247 1 13.593745536245983 13.789598932494352 5.540160467574592 1 -2 2
1843 1 17.06762031718783 10.676714170303203 5.902131872533854 -1 -2 1
572 1 13.506036273292201 11.631442896118749 7.6482081551007655 1 -2 -1
1216 1 14.879493794670665 13.408852654480043 8.035099458469924 1 0 0
185 1 12.609058937016933 13.223261684036803 9.248231541183415 0 2 4
706 1 15.240005767133956 12.095754113219659 6.194399779107878 -2 -2 2
1455 1 13.311929557625295 10.423269486256395 9.673240391732536 0 -1 -1
1667 1 18.852127255655404 13.568265107344404 3.835743546248828 0 0 0
1430 1 18.974000241781496 13.141754472577839 8.000247184376935 0 -1 -2
1131 1 17.901620830161256 9.939569944598613 8.060565569834678 -1 -2 -1
1332 1 19.88195856803206 11.294461693706491 6.944779045589021 -1 0 2
1866 1 17.867847143140935 13.013558599251088 5.92818718326373 2 2 -1
188 1 19.315238254079738 11.534419903664116 9.491588433904424 -1 1 2
351 1 16.775440928734604 12.0925078771721 8.146965586480242 0 -2 2
1552 1 22.107278131270085 9.614328256311367 6.526214541373263 0 1 0
1616 1 21.372623670871917 11.080202128910626 5.0936052597514 0 1 1
1001 1 24.36831169898911 13.461019828160714 5.428361944838953 1 0 1
624 1 22.973751416357366 11.978457007708087 6.5385118114545095 0 0 2
1468 1 20.39573762761328 13.318024909123013 5.7548051708060335 0 1 3
575 1 23.274669174837648 10.599732684485586 8.476263505486118 1 -2 1
1045 1 24.64601674911338 10.393657595887325 6.544420085146221 -1 0 -2
1214 1 21.496964966059977 12.575506519878497 8.335437029510969 0 2 0
1146 1 14.985393298775069 13.173312642438136 0.4047021227393763 1 1 -1
1212 1 28.297191987469446 10.34468651447273 6.3147426233812896 -2 1 1
1132 1 1.6952586447833835 10.858844658588588 8.268542609785415 1 1 -1
756 1 27.337608893398404 3.5177107186174217 13.636170986904233 1 0 0
892 1 27.661102805366298 11.75018046270841 8.560919433810405 -1 1 0
44 1 27.53498175587287 12.275964475678746 5.416961678303842 -1 0 0
534 1 25.84618023251413 11.398641836459747 4.415040409023661 0 1 1
296 1 26.568017818198662 10.191373277263205 7.583587274738402 -2 -1 1
406 1 25.68016700876302 12.434808659955978 6.962991049462809 -1 -1 0
991 1 23.434693870439332 0.265807320433587 10.394750530820678 -1 2 0
1648 1 8.306405499697814 9.883655108979648 0.5459407096078628 2 0 0
1903 1 10.315589789752865 4.8703432500332475 14.056325782576897 -2 1 2
1482 1 2.696269668566134 0.477207966175236 13.254215497847877 -3 0 0
1839 1 1.7393483830287149 3.054515812231876 12.204241599805975 0 0 0
1320 1 3.7731816261406634 0.34691137796359134 11.009743540124274 0 0 0
38 1 4.248827906351986 4.685793945813636 13.30793555832948 2 0 1
474 1 1.297691914534341 3.921351688992584 9.88769387347713 0 3 1
1038 1 28.358992785972212 4.734680119184838 11.753179756328606 -2 0 -1
1085 1 5.481052984247718 0.6480444204697854 12.236082650962924 0 2 1
676 1 5.59649476907746 2.4684032093194697 13.785467761767125 1 2 0
1526 1 6.72201750449941 2.711518496249716 11.707118466377175 0 0 -1
798 1 4.202856743082596 2.758246894827265 11.908243309566922 1 -1 1
1219 1 5.549517438079657 4.12188267109236 10.403228157340585 0 2 -1
469 1 6.419655781413328 4.7152737319855555 12.880191358838397 -1 0 0
206 1 7.446328583703318 5.185954747681079 10.8343353915081 -1 3 -1
672 1 18.889499740660646 2.3341309324025623 0.004717759803379976 1 0 0
871 1 7.818011001850757 1.868783595106644 9.932502030855503 -3 0 1
1405 1 11.709970505878388 1.7610706766226205 12.064142265099267 1 1 0
698 1 9.022782829603665 3.84028264707737 9.926083417121054 1 2 -1
86 1 9.272704541849892 2.179868263151244 11.769992534085603 1 0 0
1982 1 11.476261869298302 4.445071084782458 11.813444892817966 -1 2 -1
1625 1 10.748599030729137 2.120110714931806 10.108745711307133 2 2 1
808 1 8.900490560033383 4.319971270449596 12.303694146738076 -1 0 0
307 1 10.440186937473605 2.2621521690206805 14.071230054301667 -1 0 0
1758 1 12.996695098193106 1.5793613771726518 9.956004663494168 0 2 2
195 1 1.1017562049236564 4.7697350211959835 14.108545998925983 0 4 0
1729 1 11.21931064261157 9.151027000365994 0.08614246538530851 0 -2 1
68 1 11.291596472713042 4.451796492594968 9.292627381570185 2 0 2
1427 1 15.633068084788496 1.70115208162709 12.463376565259164 0 2 1
669 1 13.614345537129822 2.483915524441119 12.286539838867602 1 0 1
150 1 13.565106410226408 3.8368594466422183 10.233649383645854 1 2 2
769 1 15.632327096997939 1.8922857453266952 9.973210686293344 -2 -2 0
1765 1 21.02026146005729 12.265400121485586 11.373429622104409 -2 1 0
802 1 17.850208985737858 3.1335991742484075 10.008481668546946 0 0 0
1799 1 26.400722229779184 13.807874509931604 4.633275072693497 1 1 2
1682 1 19.503590928917312 3.7096548181388767 13.90200986215287 2 -1 2
800 1 19.97444303425516 3.51855117261082 11.455443016780412 0 -1 1
455 1 17.90622653935833 2.5836023485638258 12.279394559268834 -2 0 2
617 1 15.771218614245594 4.1166428045667764 11.305671054372592 1 2 -1
309 1 19.595393948412884 1.205484733969589 10.231914228012863 0 1 0
601 1 22.538127014696954 13.782633728930724 12.126417080228888 -1 1 0
1055 1 20.41467810797235 1.7727022203518707 12.681350838969587 1 2 0
1710 1 21.900583469745612 2.202320768909369 10.748171759268162 -1 1 0
1898 1 22.156411605016416 3.2795610420087464 13.42514783897533 -1 2 -1
1323 1 22.160102449221007 4.537572082653755 11.663500038053506 1 0 1
1811 1 24.184166289851703 4.925961488255799 13.173569448437352 0 1 2
1481 1 21.850844138799275 5.465877675911461 13.728194896823288 1 3 2
57 1 0.7263573456970561 2.3150319404398023 14.010269912667805 -1 1 -3
1692 1 25.37676581323283 1.3180783967970415 11.503387306366939 -1 1 1
577 1 25.253563794469628 2.4157648953799042 13.57244199403182 -2 1 0
29 1 28.071608560756374 2.5910849625576375 11.438642248002333 -1 0 2
235 1 24.576706073029634 5.18623603130231 10.468273937252892 2 1 0
941 1 27.37006057092492 1.0264047068339146 13.069251579678673 -1 0 0
1457 1 23.93011286494059 2.9901204212351824 11.755862369843506 -2 0 0
1881 1 26.067168500019257 3.589086521967807 11.796190369882622 1 1 -2
120 1 27.036513415423002 5.067649845792095 10.03198581664083 0 -1 0
497 1 22.896320943933183 1.0401816647697062 12.828185004760753 2 1 -1
399 1 3.4479586260268604 4.773229923646876 11.05661514061195 0 -2 0
147 1 24.359918731185765 9.655588125301005 13.21114243491228 0 0 0
494 1 0.6331758412750768 9.210748765340314 9.9801319740034 1 1 1
736 1 7.95346709360855 12.121115873208321 0.13615269760335133 0 1 0
1688 1 1.512020955045563 6.136724549149924 11.384851204795979 3 2 0
1735 1 0.4194671159519143 6.347973118364216 8.985043144444187 0 0 -1
106 1 3.1983543577442295 7.867358680752508 10.743463046177123 1 0 1
2037 1 1.1693519508873542 7.002058059191515 13.72503517894381 1 0 0
397 1 1.7534692201757305 8.701975880419237 12.1456876573818 1 2 -1
496 1 3.3950047853141148 6.661170699604655 12.830012966533106 0 -2 1
1104 1 3.9111686948763182 9.00399955569908 12.544222919540145 4 0 2
699 1 2.8964485373704454 10.124254234651268 10.250875461158804 2 0 0
1166 1 6.765310128557058 7.881526076337673 12.594436292732546 1 1 -1
770 1 9.202166605397892 8.04613255041003 9.634159465398756 1 1 -2
46 1 5.7119743290400145 5.899049810438121 8.960877385114204 -1 0 -1
250 1 5.303800785456866 6.246359342818897 11.4820105087971 0 0 -1
1711 1 6.780990251559326 7.780245521445362 10.245981663133511 -2 -1 0
1450 1 7.837687393133087 6.299223809669787 13.783897252871435 0 1 1
1962 1 6.28571669335273 13.779943293557825 1.107324641755762 2 -1 0
225 1 10.641415001562907 8.335222192625878 11.640719432149044 1 -1 0
785 1 10.336623466287623 6.202944995095342 10.387844943097564 3 0 -1
687 1 9.90303091840417 10.120304719228605 12.874533580646654 -1 -1 1
734 1 11.586528204007914 6.583168128637498 12.988564764495505 1 1 1
1727 1 8.688049327991957 6.76762734950842 11.766474025988657 0 3 0
1036 1 25.34635716156169 11.783459446308301 9.183973883458492 -2 -1 -2
39 1 26.261941594255497 10.969878236712173 12.944075790570723 1 0 0
154 1 12.76043770329306 6.170868382765267 10.687489456051697 3 1 1
1944 1 15.868294945981697 5.480975448988581 13.40886052766997 0 0 -2
349 1 13.663688889413207 4.86218317062532 12.522531666061335 1 0 1
1659 1 15.484528142737343 9.183959954883056 10.843122934876686 1 1 0
1541 1 24.70341809274524 10.460859495162813 10.909623032929117 1 -1 -1
836 1 14.114919001279274 7.28924262982359 13.412336434989488 0 0 -1