LAMMPS (29 Oct 2020)
OMP_NUM_THREADS environment is not set. Defaulting to 1 thread. (src/comm.cpp:94)
  using 1 OpenMP thread(s) per MPI task
package omp 0
using multi-threaded neighbor list subroutines
package omp 2
set 2 OpenMP thread(s) per MPI task
using multi-threaded neighbor list subroutines
# units metal
# dimension 3
# boundary p p p


# lattice fcc 3.5440
# region box block 0 8 0 8 0 8 units lattice
# create_box 1 box
# create_atoms 1 box

read_restart after_heating_press_150000_2900.lmp
Reading restart file ...
  restart file = 29 Oct 2020, LAMMPS = 29 Oct 2020
  restoring atom style atomic from restart
  orthogonal box = (-0.31115362 -0.31115362 -0.31115362) to (28.663154 28.663154 28.663154)
  1 by 2 by 2 MPI processor grid
  pair style eam/alloy/omp stores no restart info
  2048 atoms
  read_restart CPU = 0.001 seconds

variable P equal 150000
variable dt equal 0.001
variable loopVar loop 6
variable sys_press equal "press/10000"

# variable sim string "heating"
variable sim string "cooling"



pair_style eam/alloy
pair_coeff * * Co_Zhou04.eam.alloy Co
Reading eam/alloy potential file Co_Zhou04.eam.alloy with DATE: 2018-03-30




neighbor 2 bin
neigh_modify every 10 check yes

thermo 1000
thermo_style custom step temp vol press ke pe density

timestep $(dt)
timestep 0.0010000000000000000208



# velocity all create 2400 123123

print """
yo aagadi
"""

yo aagadi

label ensemble

print """
Label pachadi solti, hos garam.
"""

Label pachadi solti, hos garam.

variable T equal 2100-${loopVar}*100
variable T equal 2100-1*100
# variable T equal 2750


reset_timestep 0
fix 1 all npt temp $T $T $(dt*100) iso $P $P $(dt*1000)
fix 1 all npt temp 2000 $T $(dt*100) iso $P $P $(dt*1000)
fix 1 all npt temp 2000 2000 $(dt*100) iso $P $P $(dt*1000)
fix 1 all npt temp 2000 2000 0.10000000000000000555 iso $P $P $(dt*1000)
fix 1 all npt temp 2000 2000 0.10000000000000000555 iso 150000 $P $(dt*1000)
fix 1 all npt temp 2000 2000 0.10000000000000000555 iso 150000 150000 $(dt*1000)
fix 1 all npt temp 2000 2000 0.10000000000000000555 iso 150000 150000 1
Resetting global fix info from restart file:
  fix style: npt/omp, fix ID: 1
print """
<--------------------------------------------------------------------->
<------------------ Equilibrating at temperature $T ----------------->
<--------------------------------------------------------------------->
"""

<--------------------------------------------------------------------->
<------------------ Equilibrating at temperature 2000 ----------------->
<--------------------------------------------------------------------->

fix temp all print 1000 "$(step) $(temp) $(press) ${sys_press} $(vol) $(ke) $(pe) $(density)" file temp_${sim}.txt screen no title  "step temp press pressGiga vol ke pe density"
fix temp all print 1000 "$(step) $(temp) $(press) ${sys_press} $(vol) $(ke) $(pe) $(density)" file temp_cooling.txt screen no title  "step temp press pressGiga vol ke pe density"
run 250000
All restart file global fix info was re-assigned
Last active /omp style is pair_style eam/alloy/omp
Neighbor list info ...
  update every 10 steps, delay 10 steps, check yes
  max neighbors/atom: 2000, page size: 100000
  master list distance cutoff = 7.6035394
  ghost atom cutoff = 7.6035394
  binsize = 3.8017697, bins = 8 8 8
  1 neighbor lists, perpetual/occasional/extra = 1 0 0
  (1) pair eam/alloy/omp, perpetual
      attributes: half, newton on, omp
      pair build: half/bin/atomonly/newton/omp
      stencil: half/bin/3d/newton
      bin: standard
Per MPI rank memory allocation (min/avg/max) = 4.320 | 4.320 | 4.321 Mbytes
Step Temp Volume Press KinEng PotEng Density 
       0    2892.4127    24324.235    152832.87    765.31943   -7924.2495     8.239453 
    1000    1994.5726    23471.841    145691.84    527.75496   -8199.7877    8.5386735 
    2000    2002.9619    23417.012    149308.02    529.97474   -8203.4347    8.5586661 
    3000    2013.2384    23426.377    154280.23    532.69387   -8170.5307    8.5552448 
    4000    1982.2876    23458.842    145505.27    524.50443    -8206.377    8.5434048 
    5000    2025.6226     23365.69    156034.24    535.97066   -8190.0779    8.5774649 
    6000    1995.3853    23482.568    146304.46    527.97001   -8190.3986    8.5347731 
    7000    1947.1698    23391.092    150319.93    515.21239   -8203.2557    8.5681501 
    8000    2040.8403    23469.046    148899.92    539.99719   -8187.7034    8.5396905 
    9000    2024.6748    23347.555    156178.25    535.71988   -8193.7908    8.5841274 
   10000    1967.6663    23511.135    141403.16    520.63568   -8203.2945    8.5244029 
   11000    2049.1439    23404.614    151348.48    542.19428   -8199.6491    8.5631999 
   12000    2016.1872     23416.59    146859.64     533.4741   -8216.2423    8.5588204 
   13000    2035.2006    23467.987    149115.74    538.50495   -8186.6541    8.5400756 
   14000    1973.3067    23450.854    149377.23     522.1281   -8188.4555    8.5463151 
   15000    2043.5126    23338.369    157466.03    540.70426   -8190.3531     8.587506 
   16000    1989.1097    23566.835    137443.23    526.30951   -8206.1199    8.5042555 
   17000    2004.4002    23436.764    153865.49    530.35529   -8169.6928     8.551453 
   18000    1988.9128    23427.678    148357.06    526.25742   -8201.2736    8.5547697 
   19000    2034.0829    23435.206    148277.31    538.20923   -8198.9788    8.5520216 
   20000    1949.8136    23447.546    148544.66    515.91194   -8194.7749    8.5475207 
   21000    2053.0277    23367.309    155473.43    543.22191   -8193.7105    8.5768708 
   22000    1942.4452    23530.637    144670.51    513.96229   -8186.1844    8.5173381 
   23000    2022.6013     23347.41    154412.02    535.17122   -8201.1911    8.5841806 
   24000    2048.0458    23437.681    148192.49    541.90373   -8202.1294    8.5511184 
   25000    2026.1969     23408.03    147478.11    536.12261   -8213.1531    8.5619501 
   26000    2029.7891    23418.807    154575.42    537.07309   -8177.6973      8.55801 
   27000     1963.344    23552.953    134851.17    519.49202   -8219.7445     8.509268 
   28000     1998.762    23304.952    158624.59    528.86347   -8193.9483    8.5998197 
   29000    1937.3535    23382.955    148849.86    512.61506   -8212.1322    8.5711317 
   30000    2015.5635    23455.215    145963.98    533.30908   -8202.1643    8.5447262 
   31000    2000.2138    23398.576    157257.06     529.2476   -8170.0624    8.5654095 
   32000    1992.1042    23446.815    148596.81    527.10185   -8194.6766    8.5477874 
   33000    1986.9074    23490.344    143962.12    525.72679   -8198.1381    8.5319478 
   34000    1976.1425    23305.479    160538.17    522.87846   -8188.9934    8.5996253 
   35000    1971.9614     23517.45    143898.86    521.77214   -8192.5325     8.522114 
   36000     1994.053    23258.613    162051.57    527.61748   -8197.5256    8.6169535 
   37000    1999.7621    23513.183    142147.61    529.12809   -8201.8375    8.5236602 
   38000    1985.0004    23375.269    152968.03    525.22221   -8199.6679      8.57395 
   39000    1969.7795    23437.472    148658.92    521.19482   -8194.9845    8.5511946 
   40000    2048.8258    23305.724    158279.04    542.11012   -8199.7896    8.5995347 
   41000    1949.1296    23469.898    148559.61    515.73094   -8180.8135    8.5393805 
   42000    1983.9364    23507.382    148000.15    524.94068   -8177.0238    8.5257639 
   43000    2022.3761    23400.526     154099.8    535.11164   -8188.2146    8.5646959 
   44000    1988.4796    23444.349    146437.72    526.14279   -8202.1397    8.5486863 
   45000    2038.9566    23305.079    158563.36    539.49878   -8196.8494     8.599773 
   46000    1995.9679    23542.262    139373.63    528.12415   -8204.0595    8.5131322 
   47000    1971.9314     23441.25    148975.83     521.7642   -8189.1021    8.5498167 
   48000    2048.5069     23369.53    150325.02    542.02575    -8218.226    8.5760554 
   49000    1920.5328    23437.084    146751.04    508.16436   -8198.9849    8.5513362 
   50000    2034.1758    23465.639    149727.92     538.2338   -8187.2274    8.5409304 
   51000    1992.9251    23407.499    152402.14    527.31905   -8186.9548    8.5621443 
   52000     1995.915      23439.4    144796.47    528.11017     -8211.02    8.5504912 
   53000    2010.5266    23316.413    159740.11    531.97634   -8189.0075    8.5955925 
   54000    1944.1836    23452.416    145155.64    514.42226   -8203.1272    8.5457459 
   55000    1969.4137    23395.442    152609.24    521.09804   -8190.3762     8.566557 
   56000     2013.103    23414.005    151650.77    532.65804   -8185.2352    8.5597654 
   57000    1980.4713    23472.431    146040.79    524.02382   -8197.3273    8.5384587 
   58000    1996.9474    23460.638    150669.62    528.38332   -8181.8349    8.5427509 
   59000    2011.2906    23342.081    152362.09    532.17847   -8215.2089    8.5861406 
   60000    2010.9732    23406.239    153061.82    532.09451   -8190.5747    8.5626052 
   61000    1980.5973    23518.436     145088.1    524.05718   -8185.2671    8.5217567 
   62000    1921.2128    23402.016    149711.62     508.3443   -8198.3055    8.5641505 
   63000    2031.8034    23410.573    151805.42    537.60607   -8191.9792      8.56102 
   64000    1943.5888    23408.126    151557.76    514.26488   -8187.6827    8.5619152 
   65000    1942.9153     23410.02    151694.45    514.08669   -8189.2473    8.5612223 
   66000    2029.4031    23452.088    151681.04    536.97096   -8184.5852    8.5458653 
   67000    2010.6326    23303.227    159620.54    532.00437   -8196.3438    8.6004563 
   68000    2022.8567     23542.74    139195.66    535.23882   -8209.8256    8.5129593 
   69000    1981.9627    23420.791    154513.71    524.41846   -8171.2554    8.5572853 
   70000      1984.55    23374.366    152509.07    525.10303   -8203.6811    8.5742813 
   71000    1979.7554    23380.063    152014.89     523.8344   -8200.3079    8.5721921 
   72000    1954.4828    23464.844    149576.89     517.1474   -8179.8881    8.5412197 
   73000    2086.5946    23521.158    146474.12    552.10358   -8184.9503    8.5207704 
   74000     2009.788    23353.928    156272.81     531.7809   -8193.8769    8.5817851 
   75000    1945.3278    23421.016    147467.24    514.72502   -8199.2575     8.557203 
   76000    2041.7099    23362.781    154761.53    540.22729   -8199.9247    8.5785328 
   77000    1998.8068    23458.468    153831.07    528.87531   -8166.9368    8.5435411 
   78000    2010.9701    23497.726     142386.7    532.09368   -8206.7841    8.5292673 
   79000    2026.1678    23406.743    153063.03    536.11492     -8187.29    8.5624211 
   80000    1964.8374    23422.444    153015.33    519.88716     -8180.41    8.5566812 
   81000    1953.4852    23569.677    138655.03    516.88343   -8196.3946      8.50323 
   82000    2009.6477    23304.869    162315.07    531.74376   -8179.0335    8.5998502 
   83000     1929.064    23460.912    146096.25    510.42169   -8195.2515    8.5426511 
   84000    2104.0849    23408.686    151103.09    556.73144   -8203.0328    8.5617102 
   85000    2029.9783    23430.731    149424.08    537.12316   -8195.0801    8.5536549 
   86000    2031.3495    23449.959    146564.42    537.48596   -8206.9977    8.5466411 
   87000    1970.9729    23290.004    157436.77    521.51059   -8205.0293    8.6053393 
   88000    1993.2079    23481.205    141545.64    527.39388   -8211.2545    8.5352684 
   89000    2073.0253    23389.736    157140.97    548.51321   -8176.0491     8.568647 
   90000    1983.1375    23523.362    143284.35    524.72928   -8188.2124    8.5199721 
   91000    1996.5868    23449.425    150206.65     528.2879   -8186.9023    8.5468359 
   92000    1973.7479    23372.643    152970.29    522.24485   -8199.6294    8.5749132 
   93000     1970.022     23423.11    147452.32    521.25898   -8203.7314    8.5564379 
   94000    2016.2463    23310.071    159905.39    533.48973   -8186.1074    8.5979313 
   95000    1983.1392    23482.601    144778.07    524.72974   -8200.8089    8.5347611 
   96000    2019.4551    23370.833    153141.32    534.33878   -8202.6924    8.5755774 
   97000    2034.7051    23405.981    154532.65    538.37384   -8183.5125    8.5626997 
   98000    1960.0002    23474.219    146369.37    518.60728   -8189.9755    8.5378084 
   99000    1979.0516    23383.655    151962.82    523.64818   -8196.7285     8.570875 
  100000    2011.2563     23424.66    151056.72     532.1694   -8192.6451    8.5558716 
  101000    2053.0092    23535.454    141124.04    543.21703   -8203.3287    8.5155945 
  102000    2029.6757    23366.765    155664.34    537.04308    -8190.045    8.5770704 
  103000    2016.3745    23510.721    142694.39    533.52364   -8199.5665     8.524553 
  104000    1988.0392    23406.976    149454.83    526.02626    -8206.114    8.5623356 
  105000    2017.4053    23439.119    148380.15    533.79639   -8196.6567     8.550594 
  106000     2046.846    23458.518    152066.63    541.58627   -8171.4639     8.543523 
  107000    1976.7268     23448.93    149557.15    523.03304   -8187.5763    8.5470164 
  108000    2019.8892    23367.027    152369.61    534.45364    -8200.773    8.5769743 
  109000    1974.2526    23506.517    142210.15    522.37839    -8201.862    8.5260775 
  110000     2044.151    23345.928    157716.59    540.87319   -8187.3998    8.5847256 
  111000    1958.8381    23456.408    146534.43    518.29979   -8201.3171    8.5442915 
  112000    1970.9179    23409.798    156177.28    521.49605   -8166.8832    8.5613037 
  113000     1955.302    23423.847    152303.47    517.36415   -8183.2666    8.5561686 
  114000    1986.4452    23435.291    151485.03    525.60449   -8186.3294    8.5519906 
  115000    1978.0745    23408.121    150231.43    523.38964   -8198.3498     8.561917 
  116000    2068.5837    23374.372     154055.8    547.33798   -8194.6303    8.5742789 
  117000    1985.4815    23548.695    141540.09     525.3495   -8192.5787    8.5108066 
  118000    1936.2991    23376.791    150376.58    512.33606   -8208.7842    8.5733916 
  119000    1966.1633    23346.414     155851.2    520.23798   -8188.1363    8.5845468 
  120000     2017.484    23436.095    146637.15    533.81723   -8211.0084    8.5516972 
  121000    2044.6266    23482.525    145190.55    540.99904   -8196.2944    8.5347886 
  122000    1942.1668    23401.128    151072.63    513.88862   -8192.9901    8.5644753 
  123000    1964.3815    23403.575    153554.06    519.76653   -8183.2747    8.5635801 
  124000    1919.1808    23362.082    155906.78    507.80663   -8179.7539    8.5787895 
  125000    1984.9404    23453.235    142728.13    525.20633   -8217.3557    8.5454475 
  126000    1932.2371     23348.19    158491.32    511.26127    -8177.509    8.5838937 
  127000    2053.4172    23463.212       145420    543.32498   -8208.5632    8.5418138 
  128000    1935.2411    23440.771    149646.37    512.05613   -8186.5984    8.5499914 
  129000    2026.3219    23462.224    149567.92    536.15568   -8185.3652    8.5421734 
  130000     1994.898    23384.763    151240.91    527.84107    -8199.028     8.570469 
  131000    1928.3514    23381.618    153602.86    510.23315    -8190.416    8.5716218 
  132000    2016.1251    23354.382     154593.9    533.45767   -8201.4922     8.581618 
  133000    1989.6438    23486.908    142294.65    526.45083   -8209.1225    8.5331958 
  134000    2010.7652    23325.916    162221.59    532.03947   -8173.3865    8.5920908 
  135000    1963.5796    23411.882    146931.11    519.55437   -8208.2277    8.5605413 
  136000    2000.6588    23456.938    146672.52    529.36535   -8200.7545    8.5440985 
  137000     1971.329    23384.129    156384.72    521.60482   -8175.9457    8.5707014 
  138000    2084.1309    23545.958    143163.63    551.45169   -8191.4191    8.5117958 
  139000    1989.6031    23381.466    153156.84    526.44007   -8193.3662    8.5716775 
  140000    2023.9277    23473.737    146288.79     535.5222   -8198.6545    8.5379837 
  141000    1946.1457    23357.173    154063.14    514.94142   -8197.6607    8.5805926 
  142000     1953.468     23380.05    155320.71    516.87889   -8183.6684    8.5721966 
  143000    1936.1207    23466.033    143394.71    512.28885   -8208.8823    8.5407869 
  144000    2045.0182    23326.006    159176.98    541.10264   -8186.8613    8.5920575 
  145000    2002.4134    23440.828     147324.9    529.82962   -8202.6175    8.5499703 
  146000      2004.64    23456.631    146210.98    530.41875   -8198.8888    8.5442104 
  147000    2011.6508    23352.424     153944.2    532.27378   -8200.3676    8.5823378 
  148000    1993.8022    23500.896    142361.03    527.55114   -8204.7418     8.528117 
  149000    2031.1302    23433.473    150589.44    537.42795   -8191.8415    8.5526541 
  150000    2015.3575    23452.731    152328.36    533.25456   -8170.8851    8.5456309 
  151000    1949.4159    23453.508    143968.26     515.8067   -8209.6699    8.5453478 
  152000    2049.8106    23233.647    162093.98    542.37069   -8204.5403    8.6262128 
  153000    1947.4743    23497.606    145767.33    515.29297   -8187.3093    8.5293107 
  154000    1956.0018     23391.76    151240.83    517.54932   -8201.4169    8.5679054 
  155000    2005.2071    23387.707    152305.35    530.56881   -8195.9052      8.56939 
  156000    2012.5021    23484.569    143905.77    532.49903    -8204.776    8.5340457 
  157000    1960.1531    23409.512     150742.8    518.64772   -8192.2525    8.5614083 
  158000    1997.9972    23399.053     153437.6    528.66111   -8184.0267    8.5652349 
  159000     1990.413    23486.296    144955.06    526.65437   -8195.5694    8.5334182 
  160000    2034.0376    23365.854     154571.8    538.19722    -8199.058    8.5774049 
  161000    2060.7259    23471.338     146854.1    545.25884   -8201.6326    8.5388564 
  162000     1972.443    23461.591    144741.58    521.89959   -8206.2065    8.5424038 
  163000    1984.0757     23339.02    159654.79    524.97755   -8178.5776    8.5872667 
  164000    1944.4355    23406.705    147338.96    514.48893   -8214.4376    8.5624349 
  165000    2003.8658    23528.809    142367.45     530.2139    -8193.571    8.5179997 
  166000     2081.058    23372.232    155993.17    550.63862   -8190.8795    8.5750639 
  167000    1954.2688    23507.802    142386.44    517.09077   -8197.4695    8.5256116 
  168000    2036.6186    23399.424    151285.93    538.88014   -8199.5722    8.5650992 
  169000    2001.6457    23367.157       153652    529.62647   -8196.9349    8.5769265 
  170000    1937.5503    23444.767    147587.69    512.66713   -8196.2181    8.5485338 
  171000    2027.6313    23436.785    150023.31    536.50215   -8191.1316    8.5514452 
  172000    1961.0032    23404.493    150272.94    518.87266   -8197.1827    8.5632442 
  173000    1990.2792    23370.367    156300.57    526.61895   -8185.1454    8.5757483 
  174000    1952.0325    23458.419    149487.94    516.49906   -8184.8702     8.543559 
  175000    1993.6602    23413.924     151070.1    527.51355   -8192.6939    8.5597949 
  176000    2019.8729    23451.871    152731.77    534.44931   -8175.8131    8.5459444 
  177000    2005.3014    23483.233    145880.12    530.59375   -8196.0417    8.5345311 
  178000    2038.7745    23386.183    157492.89    539.45059   -8178.4198    8.5699487 
  179000    2025.0489    23526.306     142958.8    535.81885   -8195.6874    8.5189057 
  180000    1947.0269    23390.297    151021.47    515.17459   -8200.3931    8.5684412 
  181000    1966.5752    23396.402    152073.59    520.34699   -8190.6532    8.5662054 
  182000    1968.1873    23366.487    151372.28    520.77353   -8205.3602    8.5771723 
  183000    1992.5052     23436.67    147006.97    527.20795   -8204.5869    8.5514872 
  184000     2044.029     23335.98    159325.08     540.8409   -8182.6569    8.5883852 
  185000    1948.2528    23506.289    142700.96    515.49897   -8199.8658    8.5261604 
  186000    2020.7251    23432.515    148557.62    534.67479   -8200.7983    8.5530036 
  187000    2018.0566    23420.329    150672.55    533.96874   -8193.1816    8.5574539 
  188000     1958.231    23461.882    144760.74    518.13914   -8200.6115    8.5422979 
  189000    2003.4238    23373.319    153189.55    530.09697   -8197.8902    8.5746653 
  190000     2056.958    23465.481    148625.26    544.26187   -8194.8708    8.5409878 
  191000    1986.0315    23521.357    140464.67    525.49503   -8206.4626    8.5206983 
  192000    2007.8634    23287.316    161148.36    531.27165   -8192.4256    8.6063326 
  193000    1966.9548    23394.993    148223.48    520.44743   -8210.2186    8.5667213 
  194000     1975.402    23451.815       145821    522.68252    -8203.979     8.545965 
  195000    2012.0406    23274.275    161100.35    532.37691   -8196.3178    8.6111549 
  196000    1985.9338    23522.639    142939.71    525.46917   -8189.5694    8.5202339 
  197000    2045.0541    23394.757    153525.43    541.11214   -8191.6588    8.5668079 
  198000    1963.3102    23426.638     146287.5    519.48307   -8206.8479    8.5551493 
  199000    2025.1924    23463.773    149411.08    535.85682   -8185.1773    8.5416096 
  200000    2022.6791    23402.778    151611.96    535.19182   -8193.8873    8.5638718 
  201000    2015.0913    23543.674    143075.95    533.18413   -8181.8952    8.5126214 
  202000    2019.2946     23428.21    149695.98     534.2963   -8195.3661    8.5545752 
  203000    2018.7219    23508.241    147915.52    534.14477   -8174.1527    8.5254522 
  204000    1937.4215    23480.156    145620.03    512.63304   -8196.5676    8.5356497 
  205000    2044.1277    23407.154    151906.35    540.86703   -8196.0541    8.5622708 
  206000    1972.4442    23414.205    149107.25     521.8999   -8203.2494    8.5596921 
  207000    2011.1723    23360.192    152121.33    532.14716   -8209.2324    8.5794838 
  208000    2009.6248    23380.372    154677.19    531.73771   -8190.8348    8.5720787 
  209000    2003.3131    23507.144    146835.12    530.06766   -8182.2226      8.52585 
  210000    2015.5196    23520.722    141355.93    533.29744   -8201.1452    8.5209284 
  211000     1961.737    23299.733    158535.43    519.06681   -8197.2052    8.6017459 
  212000    2026.3536    23512.635    143370.81    536.16407    -8199.535    8.5238591 
  213000    2017.7347    23485.804    147886.41    533.88357   -8183.3565     8.533597 
  214000    2084.3876    23495.564    151113.19     551.5196   -8168.0142    8.5300521 
  215000    1989.9763    23378.437    152908.65    526.53881   -8193.4785     8.572788 
  216000    1999.3982    23384.251    151360.37     529.0318   -8201.0298    8.5706567 
  217000    2014.3543    23525.396    145890.16     532.9891   -8178.7686    8.5192353 
  218000    1994.0537    23430.464    149282.73    527.61766    -8196.848    8.5537523 
  219000    1988.7196    23515.349    146577.66     526.2063   -8176.5126    8.5228753 
  220000    2036.1346    23312.212    157784.29    538.75208   -8200.3366    8.5971415 
  221000    1993.0535    23444.736    148663.69    527.35303   -8189.1409    8.5485453 
  222000    1972.0129    23409.522    151237.65    521.78578   -8190.7014    8.5614045 
  223000    2044.4544    23432.255    144314.39    540.95347   -8219.9908    8.5530987 
  224000    2016.0037    23350.466    162453.79    533.42554   -8164.0784    8.5830574 
  225000    1994.7375    23529.266    144130.08    527.79859   -8187.2462    8.5178343 
  226000    1998.6385     23450.18    145737.99    528.83079   -8203.1934    8.5465607 
  227000    2016.6026    23437.591    148859.55      533.584   -8198.2929    8.5511512 
  228000    1989.0818    23395.265    152690.19    526.30212   -8193.3707    8.5666219 
  229000    1933.5729    23424.639    152944.78    511.61472   -8180.6304    8.5558794 
  230000    2033.9238    23432.549    147768.11    538.16713   -8202.2211    8.5529913 
  231000    2012.9688    23405.183    148243.73    532.62251   -8206.4522    8.5629915 
  232000    2054.1264     23426.93    152072.11    543.51264   -8189.5386    8.5550429 
  233000    1973.9359     23444.24    149164.23     522.2946   -8194.4467    8.5487262 
  234000    2018.2839    23519.625    143800.61    534.02887   -8196.1613    8.5213258 
  235000    2039.5016    23318.861    160739.97    539.64299   -8186.6772    8.5946903 
  236000     1933.206    23472.976    146384.75    511.51764   -8192.7437    8.5382607 
  237000    2033.9138    23416.279    151638.21    538.16448   -8191.8033    8.5589341 
  238000      1928.12    23435.364    149292.73    510.17192   -8189.9414    8.5519638 
  239000    1970.9801    23471.174    147581.86     521.5125   -8186.8009     8.538916 
  240000    1952.7811     23257.71    164041.99    516.69712   -8181.3412    8.6172881 
  241000    2001.2409    23557.562    140399.13    529.51936   -8194.1354    8.5076031 
  242000    2066.4882    23498.357    148872.72    546.78353   -8178.9904    8.5290383 
  243000    1986.1907    23420.092    151358.72    525.53715   -8190.0964    8.5575406 
  244000    1985.9976    23363.352    152048.13    525.48606   -8207.6757    8.5783231 
  245000    1962.9925    23357.143    153227.31    519.39902   -8198.1049    8.5806038 
  246000    1966.5115     23411.73    144686.67    520.33013   -8222.5017     8.560597 
  247000    1987.7303    23433.854    148575.35    525.94452    -8198.809    8.5525149 
  248000    2026.7819    23367.205     155494.6     536.2774   -8191.9999    8.5769088 
  249000    1951.4121    23593.779     135822.4    516.33488   -8201.9964    8.4945436 
  250000    1992.8559    23406.348    153839.49    527.30073   -8185.5992    8.5625653 
Loop time of 480.793 on 8 procs for 250000 steps with 2048 atoms

Performance: 44.926 ns/day, 0.534 hours/ns, 519.974 timesteps/s
120.3% CPU use with 4 MPI tasks x 2 OpenMP threads

MPI task timing breakdown:
Section |  min time  |  avg time  |  max time  |%varavg| %total
---------------------------------------------------------------
Pair    | 277.47     | 282.9      | 287.29     |  22.5 | 58.84
Neigh   | 3.8985     | 3.964      | 3.9939     |   1.9 |  0.82
Comm    | 20.488     | 24.898     | 30.431     |  77.4 |  5.18
Output  | 0.0057426  | 0.010414   | 0.01198    |   2.6 |  0.00
Modify  | 168.04     | 168.14     | 168.29     |   0.7 | 34.97
Other   |            | 0.8792     |            |       |  0.18

Nlocal:        512.000 ave         520 max         504 min
Histogram: 1 0 0 0 1 1 0 0 0 1
Nghost:        2820.25 ave        2828 max        2814 min
Histogram: 1 0 1 0 0 1 0 0 0 1
Neighs:        40912.5 ave       43178 max       39419 min
Histogram: 2 0 0 0 1 0 0 0 0 1

Total # of neighbors = 163650
Ave neighs/atom = 79.907227
Neighbor list builds = 4434
Dangerous builds = 0


# fix 132 all momentum 100 linear 1 1 1 angular
fix out_file_1 all print 1000 "$(step) $(temp) $(press) ${sys_press} $(vol) $(ke) $(pe) $(density)" file one_phase_${sim}_press_$P_$T_.txt screen no title  "step temp press pressGiga vol ke pe density"
fix out_file_1 all print 1000 "$(step) $(temp) $(press) ${sys_press} $(vol) $(ke) $(pe) $(density)" file one_phase_cooling_press_$P_$T_.txt screen no title  "step temp press pressGiga vol ke pe density"
fix out_file_1 all print 1000 "$(step) $(temp) $(press) ${sys_press} $(vol) $(ke) $(pe) $(density)" file one_phase_cooling_press_150000_$T_.txt screen no title  "step temp press pressGiga vol ke pe density"
fix out_file_1 all print 1000 "$(step) $(temp) $(press) ${sys_press} $(vol) $(ke) $(pe) $(density)" file one_phase_cooling_press_150000_2000_.txt screen no title  "step temp press pressGiga vol ke pe density"

# dump 3 all custom 1000 traj_npt_new.lammpstrj id type x y z
run 50000
Last active /omp style is pair_style eam/alloy/omp
Per MPI rank memory allocation (min/avg/max) = 4.321 | 4.321 | 4.322 Mbytes
Step Temp Volume Press KinEng PotEng Density 
  250000    1992.8559    23406.348    153839.49    527.30073   -8185.5992    8.5625653 
  251000    2011.5873    23379.871     147204.1    532.25699   -8220.1041    8.5722624 
  252000     1968.336     23439.08    148258.32    520.81287   -8200.8842    8.5506079 
  253000    2007.9103    23421.738    152454.83    531.28405     -8180.34     8.556939 
  254000    2020.6998    23461.184    149070.31     534.6681   -8193.2597    8.5425522 
  255000    1972.8997    23405.418    152627.76    522.02041    -8186.403    8.5629056 
  256000     2009.391    23362.222    156427.97    531.67585   -8188.5016    8.5787381 
  257000    1965.6506    23521.948     140331.6    520.10233   -8207.5258    8.5204844 
  258000    1996.9166    23358.203    155859.32    528.37519   -8190.9689    8.5802144 
  259000    2055.4091    23516.407    149281.48    543.85202   -8169.5301    8.5224918 
  260000    2029.1097    23441.208    148004.49    536.89333   -8201.0764    8.5498319 
  261000    2067.9713    23408.584    152352.95    547.17594   -8193.2973    8.5617474 
  262000    1958.7887    23494.988    145649.27     518.2867   -8188.0402    8.5302612 
  263000    1927.9774    23392.634    152222.64    510.13417   -8188.3693    8.5675852 
  264000    2057.1827    23443.457    148423.46    544.32132   -8195.7254    8.5490115 
  265000    2014.9051    23492.417    145590.67    533.13484   -8193.9045    8.5311949 
  266000    1955.8701    23338.772    157999.84    517.51446   -8185.1708     8.587358 
  267000    1979.4484    23503.141    148356.64    523.75317   -8171.9338    8.5273021 
  268000    2007.2399     23356.85    155068.18    531.10668   -8199.8205    8.5807114 
  269000    1982.8557    23403.589    154554.82    524.65474   -8179.3414     8.563575 
  270000    1971.5421    23486.449    147440.33    521.66119   -8185.9948    8.5333626 
  271000    1980.8759    23364.846     153652.5    524.13089   -8199.2323    8.5777747 
  272000    2020.0468    23423.959    149456.65    534.49533   -8199.3808    8.5561278 
  273000    2025.0962    23516.116    140632.44    535.83138    -8207.733    8.5225973 
  274000    2028.1446    23333.098    159762.21    536.63797   -8183.5235    8.5894462 
  275000    1963.3489    23434.916    146982.67    519.49331   -8202.6645    8.5521275 
  276000    2021.0863    23441.795    151032.31    534.77037   -8187.4162    8.5496178 
  277000     2012.195    23373.623    152486.38    532.41777   -8202.3193    8.5745538 
  278000    1968.6788    23437.108    147126.83     520.9036   -8200.1393    8.5513275 
  279000    1954.5729     23397.85    153004.15    517.17124   -8185.5953    8.5656753 
  280000     2008.187    23502.844    143118.41    531.35729    -8203.724    8.5274102 
  281000     2089.146    23398.486     152560.4    552.77866    -8200.308    8.5654425 
  282000    1988.5016    23458.151    147937.13    526.14861   -8194.9343    8.5436566 
  283000    2020.8572    23416.197    155296.95    534.70975   -8173.7649    8.5589639 
  284000    1953.2137     23423.36    150166.04    516.81159   -8193.8084    8.5563467 
  285000    2048.0433    23519.718    147932.37    541.90308   -8176.3098     8.521292 
  286000     2003.443    23397.264    152010.35    530.10202   -8196.9903    8.5658897 
  287000    1993.0288    23502.573    143917.96    527.34649   -8193.6303    8.5275082 
  288000     2004.175    23315.685    161057.81    530.29572   -8177.8568    8.5958611 
  289000    1921.2752    23489.254    146087.27     508.3608   -8186.9415    8.5323435 
  290000      1984.64    23371.693    153061.05    525.12684   -8193.2198     8.575262 
  291000    2061.6622    23522.912    144276.93    545.50658   -8193.6269     8.520135 
  292000    1996.4604    23433.419    149593.46    528.25446   -8195.0316    8.5526737 
  293000    1961.3779    23339.076    156876.13    518.97181   -8190.5857    8.5872461 
  294000    1938.6446    23572.064    140409.85    512.95668   -8184.7861    8.5023691 
  295000    2005.9523    23401.084    155489.48    530.76599   -8177.2057    8.5644914 
  296000    1958.6776    23462.185       148130    518.25732    -8187.281    8.5421876 
  297000     1950.687    23400.459    151787.71    516.14302   -8194.7958    8.5647204 
  298000    2013.6779    23334.253    156561.08    532.81014   -8195.9981    8.5890207 
  299000    2040.9225    23461.288    145387.11    540.01895   -8204.1469    8.5425142 
  300000     1985.405    23328.725    154695.44    525.32927   -8202.8597     8.591056 
Loop time of 98.1047 on 8 procs for 50000 steps with 2048 atoms

Performance: 44.035 ns/day, 0.545 hours/ns, 509.659 timesteps/s
118.7% CPU use with 4 MPI tasks x 2 OpenMP threads

MPI task timing breakdown:
Section |  min time  |  avg time  |  max time  |%varavg| %total
---------------------------------------------------------------
Pair    | 56.788     | 57.704     | 58.639     |   9.1 | 58.82
Neigh   | 0.78836    | 0.79799    | 0.80536    |   0.7 |  0.81
Comm    | 4.3644     | 5.3141     | 6.2417     |  30.5 |  5.42
Output  | 0.0011125  | 0.0014958  | 0.001626   |   0.6 |  0.00
Modify  | 34.082     | 34.106     | 34.125     |   0.3 | 34.76
Other   |            | 0.1813     |            |       |  0.18

Nlocal:        512.000 ave         518 max         507 min
Histogram: 1 1 0 0 0 0 1 0 0 1
Nghost:        2868.50 ave        2876 max        2863 min
Histogram: 2 0 0 0 0 0 1 0 0 1
Neighs:        40903.2 ave       42246 max       39498 min
Histogram: 1 1 0 0 0 0 0 0 0 2

Total # of neighbors = 163613
Ave neighs/atom = 79.889160
Neighbor list builds = 882
Dangerous builds = 0

unfix temp
unfix out_file_1


write_data after_${sim}_press_$P_$T.in
write_data after_cooling_press_$P_$T.in
write_data after_cooling_press_150000_$T.in
write_data after_cooling_press_150000_2000.in
System init for write_data ...
Last active /omp style is pair_style eam/alloy/omp
write_restart after_${sim}_press_$P_$T.lmp
write_restart after_cooling_press_$P_$T.lmp
write_restart after_cooling_press_150000_$T.lmp
write_restart after_cooling_press_150000_2000.lmp
System init for write_restart ...
Last active /omp style is pair_style eam/alloy/omp
next loopVar
jump in.lmp ensemble

print """
Label pachadi solti, hos garam.
"""

Label pachadi solti, hos garam.

variable T equal 2100-${loopVar}*100
variable T equal 2100-2*100
# variable T equal 2750


reset_timestep 0
fix 1 all npt temp $T $T $(dt*100) iso $P $P $(dt*1000)
fix 1 all npt temp 1900 $T $(dt*100) iso $P $P $(dt*1000)
fix 1 all npt temp 1900 1900 $(dt*100) iso $P $P $(dt*1000)
fix 1 all npt temp 1900 1900 0.10000000000000000555 iso $P $P $(dt*1000)
fix 1 all npt temp 1900 1900 0.10000000000000000555 iso 150000 $P $(dt*1000)
fix 1 all npt temp 1900 1900 0.10000000000000000555 iso 150000 150000 $(dt*1000)
fix 1 all npt temp 1900 1900 0.10000000000000000555 iso 150000 150000 1
print """
<--------------------------------------------------------------------->
<------------------ Equilibrating at temperature $T ----------------->
<--------------------------------------------------------------------->
"""

<--------------------------------------------------------------------->
<------------------ Equilibrating at temperature 1900 ----------------->
<--------------------------------------------------------------------->

fix temp all print 1000 "$(step) $(temp) $(press) ${sys_press} $(vol) $(ke) $(pe) $(density)" file temp_${sim}.txt screen no title  "step temp press pressGiga vol ke pe density"
fix temp all print 1000 "$(step) $(temp) $(press) ${sys_press} $(vol) $(ke) $(pe) $(density)" file temp_cooling.txt screen no title  "step temp press pressGiga vol ke pe density"
run 250000
Last active /omp style is pair_style eam/alloy/omp
Per MPI rank memory allocation (min/avg/max) = 4.321 | 4.321 | 4.322 Mbytes
Step Temp Volume Press KinEng PotEng Density 
       0     1985.405    23328.725    154695.44    525.32927   -8202.8597     8.591056 
    1000    1902.3994    23297.726    151068.18    503.36635   -8232.0952    8.6024871 
    2000    1869.6359     23336.15    145569.89    494.69727   -8241.7438    8.5883227 
    3000    1940.9617    23236.664     152932.2    513.56975    -8244.999     8.625093 
    4000    1846.9213    23306.831    152061.51    488.68709   -8217.2104    8.5991263 
    5000    1901.0806    23322.546    151939.25    503.01739   -8214.5254    8.5933322 
    6000    1828.5267    23251.767    153056.71    483.81997   -8231.8183    8.6194906 
    7000    1895.9178    23333.601    149876.51    501.65135   -8226.7879    8.5892609 
    8000     1940.743    23354.278    150124.39    513.51189    -8220.389    8.5816561 
    9000      1916.13    23309.442    150331.78     506.9994   -8229.4914    8.5981634 
   10000    1941.1613    23252.256    153137.27    513.62257   -8242.6109    8.6193092 
   11000    1932.1099    23401.336    147373.18    511.22762    -8213.305    8.5643993 
   12000    1887.5327    23343.007    144672.33     499.4327   -8245.2395    8.5857999 
   13000    1967.6598    23245.838    155180.33    520.63395   -8227.3238    8.6216888 
   14000    1917.7183    23335.648    145215.98    507.41966   -8245.0749    8.5885074 
   15000    1939.7652    23314.805    148752.56    513.25319   -8240.4567    8.5961854 
   16000    1901.8474    23370.191    146476.82     503.2203   -8226.7742    8.5758129 
   17000    1878.2439     23316.92    149554.52    496.97491   -8230.8117    8.5954055 
   18000    1956.9525    23306.424    149897.27    517.80085   -8236.3572    8.5992764 
   19000    1920.4824     23353.36    146920.04    508.15104   -8233.5355    8.5819935 
   20000    1936.1828    23331.316    148465.97    512.30529   -8230.6495     8.590102 
   21000    1845.2878    23316.713    150527.96    488.25489   -8222.8207     8.595482 
   22000    1943.3588    23295.329    153540.34    514.20401   -8220.6464    8.6033722 
   23000    1895.3234    23327.635    147165.56    501.49408   -8235.0986    8.5914574 
   24000    1925.4621    23412.563    141027.55    509.46865   -8238.9803    8.5602926 
   25000    1874.8333    23120.949    162056.17    496.07248   -8238.3291    8.6682595 
   26000    1938.8737    23404.823    144614.77     513.0173   -8226.2843    8.5631233 
   27000    1904.2743    23387.373    145614.04    503.86244    -8219.469    8.5695127 
   28000    1925.5752    23288.946    151238.55    509.49856   -8232.8253      8.60573 
   29000    1859.4969     23279.73     154818.1    492.01455   -8216.9443    8.6091371 
   30000    1857.3652    23301.899    150453.81    491.45051   -8224.1576    8.6009466 
   31000    1888.3385    23358.903     147671.5    499.64589   -8220.2281    8.5799571 
   32000    1919.8503     23267.39    155905.27    507.98379   -8219.5383    8.6137029 
   33000    1865.0714    23397.049     143932.8    493.48953   -8229.6404    8.5659687 
   34000    1953.9939     23340.67    150451.02    517.01803   -8220.8627    8.5866595 
   35000    1943.4892    23398.708     144341.8    514.23852   -8229.6004    8.5653611 
   36000    1885.1785    23433.496     144254.4    498.80978   -8215.5531    8.5526455 
   37000    1934.4413    23299.119    153710.67    511.84449   -8217.5928    8.6019726 
   38000    1960.1914    23305.636    154119.09    518.65786   -8216.0152    8.5995675 
   39000    1901.4564    23451.061    140847.17    503.11684   -8227.4283    8.5462395 
   40000    1833.7792    23205.805    151709.32    485.20974   -8257.2391    8.6365627 
   41000     1919.271    23293.142    151334.45     507.8305   -8229.8075    8.6041801 
   42000    1889.4744    23287.821    148121.12    499.94644   -8245.2079     8.606146 
   43000    1901.7952    23334.485    148850.31    503.20649   -8225.6973    8.5889353 
   44000    1913.4297    23283.493    156026.32    506.28491   -8215.6211    8.6077455 
   45000      1983.93    23388.285    149056.84    524.93899   -8212.3346    8.5691785 
   46000    1834.4474    23349.115    145044.69    485.38655   -8236.7916    8.5835538 
   47000      1894.96      23167.8    159389.84    501.39791   -8235.1457    8.6507301 
   48000    1932.4323    23373.106    146482.42    511.31293   -8223.7866    8.5747432 
   49000    1842.2633    23323.528    144745.11    487.45461   -8246.9212    8.5929705 
   50000    1927.7022    23229.383    157908.22    510.06137   -8224.3424    8.6277964 
   51000    1919.1031    23387.812    149162.77    507.78608   -8208.8716    8.5693517 
   52000    1915.8202    23333.783    146413.56    506.91745   -8243.7716    8.5891939 
   53000    1863.4686    23315.686    150071.26    493.06544   -8230.1368    8.5958606 
   54000    1930.9852    23215.827    155456.15    510.93003   -8236.1503    8.6328343 
   55000    1884.4484    23388.145    143557.38     498.6166   -8231.1067    8.5692296 
   56000    1910.9468    23294.453    154114.06    505.62796   -8217.2891    8.6036959 
   57000    1950.9518    23269.835    155037.15     516.2131   -8221.6911    8.6127981 
   58000    1862.3811    23368.292    144613.03    492.77768   -8234.8187    8.5765099 
   59000    1917.3425    23304.532    150527.24    507.32023     -8232.54    8.5999748 
   60000    1938.2633    23289.342    149854.51    512.85577   -8239.7716     8.605584 
   61000    1894.3211    23279.905    150399.67    501.22888   -8238.6395    8.6090724 
   62000    1872.5499     23463.71    140479.69     495.4683   -8221.1222    8.5416326 
   63000    1869.8899    23264.374    155851.42    494.76448    -8219.527    8.6148196 
   64000    1851.4783    23377.985    148779.97    489.89286   -8210.7388    8.5729537 
   65000    1881.5263    23359.541    148247.99    497.84341   -8217.1908    8.5797228 
   66000    1829.2283    23277.451    152326.45    484.00562   -8227.8971    8.6099799 
   67000    1856.0272    23256.009    152032.11    491.09648   -8236.0664    8.6179183 
   68000    1897.1442    23316.714    152110.94    501.97584   -8218.1783    8.5954818 
   69000    1958.7304    23330.213     147575.8    518.27128   -8240.7681    8.5905082 
   70000    1907.1798    23429.906    137949.94    504.63123    -8245.118    8.5539561 
   71000    1908.7434     23257.92    155139.02    505.04494   -8226.4335    8.6172104 
   72000     1942.885    23236.275    154822.29    514.07867   -8234.2535    8.6252374 
   73000    1872.4892    23344.695    148796.06    495.45225   -8221.0594    8.5851792 
   74000    1941.0211    23336.279    150404.85    513.58548   -8223.1913    8.5882754 
   75000    1904.5811    23349.343     148338.4    503.94362   -8225.9047      8.58347 
   76000    1881.2413    23330.444    152769.52    497.76802   -8213.3601    8.5904233 
   77000    1851.7542    23370.487    147664.18    489.96586   -8218.2205    8.5757043 
   78000    1897.1288    23319.463    150188.87    501.97179   -8224.9054    8.5944684 
   79000    1930.4588    23262.868    153813.98    510.79075   -8227.9494    8.6153773 
   80000    1939.3849    23369.125    141015.04    513.15256   -8256.5683     8.576204 
   81000    1921.5799    23326.061    146761.92    508.44142   -8235.1045    8.5920372 
   82000    1894.9579    23245.699     149796.1    501.39735   -8253.2217    8.6217407 
   83000    1938.4467    23372.659    146565.74     512.9043    -8225.854    8.5749072 
   84000    1980.8826    23395.648    143452.24    524.13265   -8234.1123    8.5664816 
   85000    1920.0882      23348.4    146756.83    508.04674   -8233.4751    8.5838166 
   86000     1876.104    23238.994    156718.43    496.40871    -8226.294    8.6242283 
   87000    1864.8703    23291.471    146969.25    493.43631   -8253.4995    8.6047975 
   88000    1838.6274    23436.105    138542.05    486.49255   -8237.0318    8.5516936 
   89000    1848.4713    23195.531    160685.23    489.09723   -8216.2403     8.640388 
   90000    1883.6064    23335.182    150494.14     498.3938   -8216.5744    8.5886789 
   91000    1875.4824    23217.713    156519.33    496.24424   -8230.5886    8.6321329 
   92000    1939.3921    23381.958    146678.47    513.15446   -8225.1741    8.5714973 
   93000     1903.348    23299.072    151179.79    503.61736    -8228.037    8.6019901 
   94000    1855.6635    23262.893    156906.84    491.00024   -8214.3121    8.6153681 
   95000    1909.8391    23408.548    143810.32    505.33486   -8228.4756    8.5617608 
   96000    1933.1442    23294.463    153438.86    511.50128   -8220.7107    8.6036921 
   97000    1933.3717     23250.88    153370.33    511.56148   -8239.0353    8.6198195 
   98000    1858.5848    23508.981    134316.03    491.77321   -8232.0468    8.5251841 
   99000    1917.2062    23262.068    154862.58    507.28417    -8224.405    8.6156735 
  100000    1920.5117    23281.223    155409.91    508.15878   -8220.4241     8.608585 
  101000    1912.2423    23388.673    147407.13    505.97073   -8214.6277    8.5690362 
  102000    1962.1285     23444.33    142512.69    519.17042    -8221.804    8.5486932 
  103000    1912.5935    23188.612    161324.21    506.06366   -8219.1388    8.6429662 
  104000    1942.4232    23290.208    152676.33    513.95648   -8225.7438    8.6052638 
  105000    1890.7097    23348.362    143439.86    500.27331   -8245.0393    8.5838305 
  106000    1926.2468     23338.31    148827.03    509.67626   -8230.8681    8.5875277 
  107000    1871.3804    23296.602    153897.06    495.15887   -8212.8292    8.6029022 
  108000    1884.7191    23382.063    143213.29    498.68822   -8236.6765    8.5714585 
  109000     1955.426    23264.021    155824.31    517.39695   -8220.9283    8.6149503 
  110000    1912.4081    23360.909    147546.22     506.0146   -8223.2362    8.5792204 
  111000    1923.9697     23405.14    144718.28    509.07374   -8226.0081    8.5630073 
  112000    1882.1101    23297.853    153486.34    497.99791   -8219.6922      8.60244 
  113000     1905.208    23255.972    152412.62    504.10951   -8237.2596    8.6179321 
  114000    1837.8114    23366.525    140770.76    486.27665   -8245.5164    8.5771583 
  115000    1899.3321     23321.22    151233.56    502.55476   -8220.2658    8.5938209 
  116000    1878.5952    23318.764    154363.41    497.06787   -8207.8218    8.5947258 
  117000    1911.1942    23348.159    143572.87    505.69342   -8250.0155    8.5839053 
  118000    1959.5444    23327.828    151915.51    518.48666   -8220.3882    8.5913866 
  119000    1950.2412    23320.065    152443.53    516.02508   -8217.9401    8.5942464 
  120000     1936.268    23394.794    140601.53    512.32782   -8247.7191    8.5667944 
  121000    1944.0324    23377.103    148313.78    514.38225   -8216.6049    8.5732775 
  122000    1906.4736    23205.972     156668.3    504.44437   -8238.1024    8.6365003 
  123000    1887.1151    23391.457    145137.91    499.32218   -8223.2065    8.5680165 
  124000    1847.8162    23301.639    154490.67    488.92387   -8205.7013    8.6010425 
  125000    1874.6198    23240.092    155765.37    496.01599   -8225.9754    8.6238209 
  126000    1923.0506     23384.47     142043.4    508.83056   -8243.9133    8.5705763 
  127000    1936.1544    23286.658    152870.57    512.29777   -8229.5949    8.6065757 
  128000    1919.5972    23359.622    144288.71    507.91682   -8237.5215    8.5796931 
  129000    1864.7247    23339.862    148701.64    493.39779   -8220.3508    8.5869569 
  130000    1890.5514    23318.048    149598.54    500.23142   -8228.5866    8.5949899 
  131000    1942.8047    23321.478    149164.28    514.05742   -8233.6145    8.5937258 
  132000    1888.2466    23355.924     144549.7    499.62159   -8238.9166    8.5810515 
  133000    1931.7088    23232.694     161042.4    511.12149   -8206.7309    8.6265667 
  134000     1859.114    23279.797    154455.42    491.91324   -8219.6581    8.6091122 
  135000    1949.2762    23427.129    145387.67    515.76974   -8217.0197    8.5549702 
  136000    1874.8979    23232.082    153300.33    496.08958   -8235.4915    8.6267939 
  137000    1857.7038    23374.251    144417.76    491.54009   -8228.3572    8.5743233 
  138000    1848.3734    23331.448    151375.41    489.07131    -8211.936    8.5900535 
  139000    1869.4292    23202.277    157855.09     494.6426   -8225.9171    8.6378758 
  140000    1864.4424    23381.444    145373.96     493.3231   -8224.0182    8.5716857 
  141000    1929.3491    23327.366    150327.21    510.49712   -8221.4732    8.5915565 
  142000     1884.575    23325.457    147729.71    498.65008   -8235.0487      8.59226 
  143000    1917.3948    23238.221     158952.6    507.33406   -8214.6055    8.6245151 
  144000    1884.3234    23290.896    153856.27    498.58351    -8217.508    8.6050097 
  145000    1895.1428    23432.915     143882.1     501.4463   -8221.8621    8.5528575 
  146000    1825.5776    23294.557    153464.44    483.03964   -8215.2126    8.6036572 
  147000    1933.2689    23342.481    154116.89     511.5343   -8204.2869    8.5859934 
  148000    1877.5472    23288.954    153826.09    496.79058    -8219.755    8.6057272 
  149000    1834.9588    23363.466    145698.45    485.52188    -8223.564    8.5782813 
  150000     1931.741    23343.107    148233.26       511.13   -8228.9314     8.585763 
  151000    1926.9405    23220.206    155786.76    509.85982   -8236.7959    8.6312064 
  152000    1890.2945    23377.981    146107.91    500.16344   -8228.4059    8.5729553 
  153000    1884.5194    23419.837    145591.41    498.63537    -8214.392    8.5576338 
  154000    1936.2167    23260.483    156575.36    512.31425   -8216.5031    8.6162608 
  155000    1889.1971     23290.62    150052.62    499.87308   -8234.0789    8.6051116 
  156000    1934.6659    23364.057    146350.95    511.90393   -8233.4774    8.5780645 
  157000    1929.1516    23222.183    158752.79    510.44486   -8221.2819    8.6304713 
  158000    1839.2322    23308.413    149833.26     486.6526   -8225.9802    8.5985429 
  159000    1908.5182    23352.152     145545.3    504.98535   -8237.6264    8.5824377 
  160000    1882.5114    23257.466    153782.73    498.10406   -8227.5815    8.6173785 
  161000    1943.4504    23357.293    146434.55    514.22825   -8235.2289    8.5805485 
  162000      1862.05    23360.744    146394.87    492.69008   -8226.3923    8.5792811 
  163000    1868.1447    23303.599    150495.14    494.30272   -8225.3637    8.6003191 
  164000    1885.5507    23307.969    153962.43    498.90826   -8210.4112    8.5987066 
  165000    1891.3271    23275.446    150790.82    500.43668   -8240.4252    8.6107218 
  166000    1949.6997    23357.145     143807.2    515.88181   -8244.7774    8.5806031 
  167000    1935.1628    23188.826    161860.32    512.03541   -8219.3195    8.6428865 
  168000    1892.1688    23293.173    151510.79    500.65938   -8225.4113    8.6041684 
  169000    1915.7067    23369.875    145287.04    506.88741    -8230.544    8.5759287 
  170000     1947.795     23200.72    154021.23    515.37783   -8251.3651    8.6384554 
  171000    1874.9259    23438.544    143560.47    496.09699   -8212.4162    8.5508037 
  172000    1863.7115    23284.768    152528.93    493.12971   -8226.1763    8.6072743 
  173000    1930.8712    23307.611    152322.46    510.89985   -8220.2476    8.5988385 
  174000    1932.5369    23335.313    146618.06     511.3406    -8235.946    8.5886306 
  175000    1970.7499    23342.151    149903.32    521.45159   -8220.8403    8.5861146 
  176000    1925.4385    23363.471    145180.74    509.46239   -8234.5377    8.5782796 
  177000    1931.4036    23380.714    144536.88    511.04073   -8234.4919    8.5719532 
  178000    1917.3367    23305.986    151068.95    507.31869     -8221.77    8.5994382 
  179000    1878.5812    23305.088    150050.55    497.06417   -8231.1187    8.5997696 
  180000    1899.1049    23312.051    151085.44    502.49464   -8221.4505    8.5972011 
  181000    1887.0342    23379.716    143464.93    499.30078   -8235.7712    8.5723191 
  182000    1865.9622    23335.482    148117.28    493.72524   -8226.4965    8.5885684 
  183000    1878.2152    23217.774    158089.13    496.96731   -8220.7443    8.6321104 
  184000     1875.912    23328.626    148040.36     496.3579   -8229.8762    8.5910926 
  185000    1961.9291    23261.689       158658    519.11765   -8211.8516     8.615814 
  186000    1913.2819    23358.423    149172.84    506.24582   -8219.8611    8.5801335 
  187000    1902.5654    23408.738    145570.18    503.41028    -8217.806    8.5616912 
  188000    1833.2918    23261.542    153322.65    485.08079   -8225.8537    8.6158685 
  189000    1885.8937    23350.852    146978.02    498.99903   -8226.6184    8.5829155 
  190000    1876.4672    23268.519    153043.86    496.50481   -8228.0586    8.6132851 
  191000    1923.2184      23250.5    154037.74    508.87497   -8237.6902    8.6199604 
  192000    1868.7758    23413.901     145858.8    494.46971     -8215.29    8.5598032 
  193000    1882.4197    23311.271    149251.18     498.0798   -8232.7016    8.5974888 
  194000    1910.3595    23274.202    156960.57    505.47256   -8209.6531    8.6111817 
  195000     1907.804    23377.723    143254.44     504.7964   -8238.3251      8.57305 
  196000     1884.298    23368.978    144147.35    498.57679   -8235.7695    8.5762582 
  197000    1926.6102    23285.114    156222.63    509.77241   -8212.4815    8.6071464 
  198000    1875.3914    23331.768    147602.41    496.22016    -8233.602    8.5899358 
  199000    1946.6104    23324.363    149534.39    515.06438   -8227.7813    8.5926626 
  200000    1830.9015    23280.502    152357.69    484.44832   -8227.8975    8.6088515 
  201000    1920.4329     23330.36    147897.55    508.13795   -8232.7878    8.5904542 
  202000    1930.0654     23386.83    148455.47    510.68666   -8216.2535    8.5697116 
  203000    1834.3372    23209.265    159577.36     485.3574   -8216.3649    8.6352749 
  204000    1909.0815    23287.773    149583.83    505.13439   -8239.1553    8.6061636 
  205000    1851.1362     23350.08     148114.6    489.80233   -8221.6095    8.5831992 
  206000    1921.5139    23192.007    157064.95    508.42397   -8242.8642    8.6417008 
  207000    1849.5333    23382.574    139567.25    489.37822   -8251.9727    8.5712712 
  208000    1890.9819    23307.704    151381.15    500.34534   -8224.4081    8.5988042 
  209000    1899.9595    23359.064    149265.77    502.72077   -8217.4985    8.5798981 
  210000    1926.8053    23311.934    150850.77    509.82405   -8225.7848    8.5972441 
  211000    1920.3723    23348.413    146374.71    508.12189    -8231.935    8.5838121 
  212000    1846.8527    23370.908    146288.56    488.66896   -8221.0397    8.5755498 
  213000    1851.3365    23169.807    159760.19    489.85533   -8229.4577    8.6499808 
  214000    1888.8053    23393.683    147017.58    499.76941   -8214.3807     8.567201 
  215000    1862.2055    23339.111    148111.69    492.73124    -8225.522    8.5872332 
  216000    1876.4462    23235.037    159677.59    496.49924   -8207.0223    8.6256969 
  217000    1915.5958      23354.8    147427.05    506.85805   -8230.7898    8.5814644 
  218000    1872.7593     23302.24    150070.07    495.52372   -8229.4467    8.6008206 
  219000    1959.7689    23322.305    150170.65    518.54607   -8225.7109    8.5934212 
  220000    1897.2471     23391.25    145419.85    502.00307   -8219.8588     8.568092 
  221000    1944.2594    23244.223    157110.22    514.44232   -8220.7228    8.6222881 
  222000    1811.8234    23231.803    158187.83    479.40034   -8213.2722    8.6268976 
  223000     1864.034    23379.871    144810.54    493.21505   -8228.2788    8.5722622 
  224000    1913.8305    23304.955    152193.04    506.39096   -8220.5832    8.5998185 
  225000    1892.4912     23338.48    150519.28     500.7447   -8218.1802    8.5874652 
  226000    1923.9589    23307.198     151622.7    509.07091   -8226.1452    8.5989909 
  227000    1881.3458    23419.332    143066.24    497.79566   -8222.3382    8.5578181 
  228000    1887.3616    23409.525    142619.59    499.38743   -8227.3634    8.5614035 
  229000    1952.9808     23291.71    154426.84    516.74997   -8216.0043    8.6047088 
  230000    1894.6376     23341.98    149812.24    501.31261   -8222.2686    8.5861776 
  231000    1900.4848    23274.049    150071.16    502.85976    -8243.698    8.6112384 
  232000    1932.6654    23316.952    153159.58    511.37459   -8214.6294     8.595394 
  233000    1896.0087    23349.951    143884.77     501.6754   -8243.7911    8.5832466 
  234000    1905.0831    23246.024    154655.29    504.07646   -8231.7672    8.6216202 
  235000    1918.5531    23310.025    146653.64    507.64054   -8244.9363     8.597948 
  236000    1863.1346    23252.682    150752.18    492.97707   -8246.2861    8.6191513 
  237000     1917.044    23313.201    151152.18    507.24124   -8225.3477    8.5967767 
  238000    1901.9458    23503.742    135127.28    503.24634   -8232.1431    8.5270842 
  239000    1984.7742    23225.529    155283.54    525.16235   -8244.1036    8.6292281 
  240000    1898.0267    23317.947    147107.34    502.20935   -8241.8425     8.595027 
  241000    1855.9748    23263.517    152237.43    491.08261   -8230.3195     8.615137 
  242000    1935.0719    23309.837    147793.93    512.01135   -8244.3029    8.5980173 
  243000    1903.4972    23303.512    152337.37    503.65684   -8222.0279    8.6003512 
  244000    1941.9038    23368.544    147529.92    513.81904   -8222.5095    8.5764174 
  245000    1952.4645    23353.658    146740.29    516.61336   -8234.3563    8.5818841 
  246000    1865.2258    23311.224    151536.71    493.53039   -8223.6897    8.5975061 
  247000    1890.6077    23358.973    147456.91    500.24633   -8222.0312    8.5799315 
  248000    1879.5117    23269.683     150727.5    497.31038    -8240.813    8.6128542 
  249000    1880.4518    23369.145    148299.45    497.55911   -8214.5186    8.5761967 
  250000     1857.573    23399.393    145411.18    491.50548   -8213.0502    8.5651104 
Loop time of 542.982 on 8 procs for 250000 steps with 2048 atoms

Performance: 39.780 ns/day, 0.603 hours/ns, 460.420 timesteps/s
115.4% CPU use with 4 MPI tasks x 2 OpenMP threads

MPI task timing breakdown:
Section |  min time  |  avg time  |  max time  |%varavg| %total
---------------------------------------------------------------
Pair    | 317.8      | 323.23     | 328.29     |  22.5 | 59.53
Neigh   | 4.2187     | 4.2499     | 4.2776     |   1.3 |  0.78
Comm    | 37.41      | 42.517     | 47.927     |  62.7 |  7.83
Output  | 0.0063009  | 0.010854   | 0.012387   |   2.5 |  0.00
Modify  | 171.74     | 171.92     | 172.01     |   0.8 | 31.66
Other   |            | 1.05       |            |       |  0.19

Nlocal:        512.000 ave         526 max         503 min
Histogram: 2 0 0 0 1 0 0 0 0 1
Nghost:        2817.00 ave        2829 max        2805 min
Histogram: 1 0 0 0 1 1 0 0 0 1
Neighs:        40933.0 ave       42443 max       39414 min
Histogram: 1 0 0 0 1 1 0 0 0 1

Total # of neighbors = 163732
Ave neighs/atom = 79.947266
Neighbor list builds = 4289
Dangerous builds = 0


# fix 132 all momentum 100 linear 1 1 1 angular
fix out_file_1 all print 1000 "$(step) $(temp) $(press) ${sys_press} $(vol) $(ke) $(pe) $(density)" file one_phase_${sim}_press_$P_$T_.txt screen no title  "step temp press pressGiga vol ke pe density"
fix out_file_1 all print 1000 "$(step) $(temp) $(press) ${sys_press} $(vol) $(ke) $(pe) $(density)" file one_phase_cooling_press_$P_$T_.txt screen no title  "step temp press pressGiga vol ke pe density"
fix out_file_1 all print 1000 "$(step) $(temp) $(press) ${sys_press} $(vol) $(ke) $(pe) $(density)" file one_phase_cooling_press_150000_$T_.txt screen no title  "step temp press pressGiga vol ke pe density"
fix out_file_1 all print 1000 "$(step) $(temp) $(press) ${sys_press} $(vol) $(ke) $(pe) $(density)" file one_phase_cooling_press_150000_1900_.txt screen no title  "step temp press pressGiga vol ke pe density"

# dump 3 all custom 1000 traj_npt_new.lammpstrj id type x y z
run 50000
Last active /omp style is pair_style eam/alloy/omp
Per MPI rank memory allocation (min/avg/max) = 4.321 | 4.321 | 4.322 Mbytes
Step Temp Volume Press KinEng PotEng Density 
  250000     1857.573    23399.393    145411.18    491.50548   -8213.0502    8.5651104 
  251000    1899.3993    23250.716     157769.4    502.57254   -8216.0208    8.6198801 
  252000    1884.7739     23385.69    145875.14    498.70272   -8223.0086    8.5701291 
  253000    1848.3203    23312.439    149413.64    489.05727    -8227.072    8.5970578 
  254000    1916.3622    23253.586     153749.5    507.06084   -8233.0504    8.6188163 
  255000    1873.5117    23308.901     150021.4     495.7228   -8232.6596    8.5983628 
  256000    1883.1064     23441.26    141725.73    498.26151   -8222.2182     8.549813 
  257000    1915.1113    23290.921    150677.33    506.72986   -8240.6408    8.6050007 
  258000    1848.2867    23270.387    154946.65    489.04838   -8219.9288    8.6125938 
  259000     1904.867    23257.092    155481.46    504.01926   -8227.9175    8.6175171 
  260000    1907.7744    23449.914    137066.39    504.78855   -8246.0012    8.5466577 
  261000    1925.2735    23306.504    149036.97    509.41873   -8234.3754    8.5992469 
  262000      1928.36    23202.618     153912.6    510.23542   -8252.7746    8.6377489 
  263000     1856.628    23371.216    148138.16    491.25544   -8212.4813    8.5754367 
  264000    1881.5569    23352.624    151828.67    497.85151   -8204.3953    8.5822642 
  265000     1906.891    23241.892    152975.87     504.5548   -8238.7888    8.6231527 
  266000    1941.3608    23369.232    143950.28    513.67535   -8236.7482    8.5761647 
  267000    1901.4621    23249.027    152206.77    503.11834   -8243.4006    8.6205065 
  268000     1891.418    23359.901    147340.53    500.46072   -8224.5363    8.5795905 
  269000    1858.9292    23294.281    153719.07    491.86433     -8215.25    8.6037594 
  270000    1906.7166    23394.836    145644.57    504.50866   -8222.1372    8.5667789 
  271000    1856.4163    23306.688    153745.58    491.19943   -8209.5627    8.5991792 
  272000    1898.9614    23389.626    139770.58    502.45667   -8252.6865    8.5686871 
  273000    1922.7309    23277.661    153112.83    508.74598   -8226.4584    8.6099023 
  274000    1914.9466    23304.782    154124.17    506.68628   -8212.6123    8.5998825 
  275000    1832.7577    23303.449    152285.32    484.93946   -8219.5783    8.6003744 
  276000    1899.6865    23341.143     145820.9    502.64852   -8237.5922    8.5864855 
  277000    1940.9492    23238.774    155369.88    513.56646   -8232.2159    8.6243099 
  278000    1898.9689    23362.235    147286.79    502.45866   -8223.9309    8.5787334 
  279000    1892.1283    23347.342    153064.29    500.64868   -8201.1561    8.5842055 
  280000     1889.404    23327.408    150598.55    499.92783   -8218.2767    8.5915414 
  281000    1865.9158    23351.703    145302.04    493.71295   -8240.1693    8.5826024 
  282000    1901.7749    23174.664    159423.67    503.20112   -8233.9755    8.6481681 
  283000    1902.0886    23299.225    150700.99    503.28411   -8230.9125    8.6019335 
  284000    1859.7807    23372.661    148659.93    492.08964   -8214.6217    8.5749068 
  285000    1875.8034    23264.544    154647.22    496.32918   -8220.4493    8.6147569 
  286000    1888.4426    23381.284    145749.82    499.67346   -8227.8439    8.5717442 
  287000    1942.7228    23354.335    145209.81    514.03574   -8236.0614    8.5816353 
  288000    1884.0175    23202.573    158461.75    498.50258   -8230.3041    8.6377657 
  289000    1836.2937    23349.519     150079.5    485.87509   -8215.1087    8.5834055 
  290000    1832.2873    23344.432    151375.26      484.815   -8207.1058    8.5852759 
  291000    1844.4582    23356.117    147062.68    488.03537   -8227.6897    8.5809806 
  292000    1871.3491    23169.033     160077.8    495.15059   -8231.8606    8.6502699 
  293000    1854.5809    23321.163    145141.14     490.7138   -8244.1834    8.5938417 
  294000    1850.7928    23373.607    147987.77    489.71147   -8217.5875    8.5745596 
  295000    1877.5787    23258.953    150293.18    496.79891   -8243.3479    8.6168273 
  296000    1932.9395     23310.48     152225.6    511.44713   -8223.1632    8.5977805 
  297000    1923.6572    23323.674    148676.82    508.99107    -8234.603    8.5929168 
  298000    1870.3522    23292.326    152233.64     494.8868   -8224.1683    8.6044813 
  299000    1870.0907    23229.975    159995.04    494.81761   -8213.2395    8.6275766 
  300000    1852.9734    23384.756    141970.86    490.28847   -8241.3024    8.5704714 
Loop time of 104.408 on 8 procs for 50000 steps with 2048 atoms

Performance: 41.376 ns/day, 0.580 hours/ns, 478.891 timesteps/s
120.0% CPU use with 4 MPI tasks x 2 OpenMP threads

MPI task timing breakdown:
Section |  min time  |  avg time  |  max time  |%varavg| %total
---------------------------------------------------------------
Pair    | 60.542     | 61.554     | 62.541     |   9.8 | 58.95
Neigh   | 0.81806    | 0.83054    | 0.84306    |   1.0 |  0.80
Comm    | 4.8612     | 5.8566     | 6.8894     |  32.3 |  5.61
Output  | 0.0011657  | 0.0014886  | 0.0016015  |   0.5 |  0.00
Modify  | 35.945     | 35.973     | 35.999     |   0.3 | 34.45
Other   |            | 0.1922     |            |       |  0.18

Nlocal:        512.000 ave         518 max         510 min
Histogram: 3 0 0 0 0 0 0 0 0 1
Nghost:        2817.25 ave        2836 max        2796 min
Histogram: 1 1 0 0 0 0 0 0 0 2
Neighs:        40924.2 ave       41915 max       39917 min
Histogram: 2 0 0 0 0 0 0 0 0 2

Total # of neighbors = 163697
Ave neighs/atom = 79.930176
Neighbor list builds = 852
Dangerous builds = 0

unfix temp
unfix out_file_1


write_data after_${sim}_press_$P_$T.in
write_data after_cooling_press_$P_$T.in
write_data after_cooling_press_150000_$T.in
write_data after_cooling_press_150000_1900.in
System init for write_data ...
Last active /omp style is pair_style eam/alloy/omp
write_restart after_${sim}_press_$P_$T.lmp
write_restart after_cooling_press_$P_$T.lmp
write_restart after_cooling_press_150000_$T.lmp
write_restart after_cooling_press_150000_1900.lmp
System init for write_restart ...
Last active /omp style is pair_style eam/alloy/omp
next loopVar
jump in.lmp ensemble

print """
Label pachadi solti, hos garam.
"""

Label pachadi solti, hos garam.

variable T equal 2100-${loopVar}*100
variable T equal 2100-3*100
# variable T equal 2750


reset_timestep 0
fix 1 all npt temp $T $T $(dt*100) iso $P $P $(dt*1000)
fix 1 all npt temp 1800 $T $(dt*100) iso $P $P $(dt*1000)
fix 1 all npt temp 1800 1800 $(dt*100) iso $P $P $(dt*1000)
fix 1 all npt temp 1800 1800 0.10000000000000000555 iso $P $P $(dt*1000)
fix 1 all npt temp 1800 1800 0.10000000000000000555 iso 150000 $P $(dt*1000)
fix 1 all npt temp 1800 1800 0.10000000000000000555 iso 150000 150000 $(dt*1000)
fix 1 all npt temp 1800 1800 0.10000000000000000555 iso 150000 150000 1
print """
<--------------------------------------------------------------------->
<------------------ Equilibrating at temperature $T ----------------->
<--------------------------------------------------------------------->
"""

<--------------------------------------------------------------------->
<------------------ Equilibrating at temperature 1800 ----------------->
<--------------------------------------------------------------------->

fix temp all print 1000 "$(step) $(temp) $(press) ${sys_press} $(vol) $(ke) $(pe) $(density)" file temp_${sim}.txt screen no title  "step temp press pressGiga vol ke pe density"
fix temp all print 1000 "$(step) $(temp) $(press) ${sys_press} $(vol) $(ke) $(pe) $(density)" file temp_cooling.txt screen no title  "step temp press pressGiga vol ke pe density"
run 250000
Last active /omp style is pair_style eam/alloy/omp
Per MPI rank memory allocation (min/avg/max) = 4.321 | 4.321 | 4.322 Mbytes
Step Temp Volume Press KinEng PotEng Density 
       0    1852.9734    23384.756    141970.86    490.28847   -8241.3024    8.5704714 
    1000    1819.0094    23196.965    150956.85    481.30173   -8258.7881    8.6398539 
    2000    1839.4549    23201.781     149517.9    486.71151   -8267.8603    8.6380603 
    3000     1845.864    23233.235    144952.44    488.40735   -8276.4016    8.6263657 
    4000    1769.2221    23210.242       148014    468.12823   -8267.9413    8.6349114 
    5000    1821.1104    23218.056    152203.22    481.85764   -8247.2612    8.6320055 
    6000    1772.1132    23244.615    146740.55    468.89321   -8260.4175    8.6221428 
    7000    1814.5946    23232.968    149277.49     480.1336    -8258.643    8.6264652 
    8000    1753.1439    23071.673    158515.92    463.87403   -8266.2603    8.6867731 
    9000    1765.0794    23253.948    145845.68    467.03208   -8263.9464    8.6186821 
   10000    1827.3748    23161.586    151777.75    483.51517   -8271.1044    8.6530512 
   11000    1797.9466     23206.03    154530.22    475.72861    -8242.009    8.6364787 
   12000    1778.5927      23144.1    155507.98    470.60765   -8257.5938    8.6595888 
   13000    1829.6277    23306.368    140864.55    484.11129   -8269.8497    8.5992972 
   14000    1864.4877    23254.507     147204.8    493.33509   -8259.8919    8.6184751 
   15000    1786.9391    23115.678    156640.23    472.81606   -8262.5192     8.670236 
   16000     1772.357    23160.857    154644.81    468.95771   -8253.3803    8.6533234 
   17000    1793.5503    23234.702    146222.03    474.56536     -8269.54    8.6258212 
   18000    1780.8169    23177.807    152322.83    471.19616   -8259.8281    8.6469951 
   19000    1848.3057    23145.817    154265.87    489.05339   -8265.9699    8.6589462 
   20000    1847.0482    23283.834     144664.7    488.72067   -8262.7118    8.6076195 
   21000     1815.866    23225.386    147123.39    480.47001   -8271.2328     8.629281 
   22000    1782.4978    23148.742    154517.36    471.64092   -8258.7769    8.6578522 
   23000    1774.7611    23182.296    152026.07    469.59382   -8259.4889    8.6453209 
   24000    1798.6073    23226.034     147814.4    475.90343   -8265.7734    8.6290403 
   25000    1831.5413    23128.691    154257.91    484.61761   -8273.6153    8.6653579 
   26000    1821.2471    23120.227    159245.32    481.89383   -8251.1477    8.6685303 
   27000    1817.9545    23312.537    141984.59    481.02261   -8266.8727    8.5970219 
   28000    1809.9089    23233.391    145220.65    478.89379   -8274.8144    8.6263079 
   29000    1808.2758    23168.603    155772.69    478.46168   -8250.8074    8.6504305 
   30000    1826.7369    23210.593    149389.83     483.3464   -8265.2748    8.6347809 
   31000    1788.6086     23243.98    142428.08    473.25782   -8281.5234    8.6223783 
   32000    1827.9885    23297.948    146615.85    483.67757   -8248.4541    8.6024051 
   33000    1786.7883    23127.622    157952.63    472.77617   -8248.7104    8.6657583 
   34000     1789.145    23228.038    149057.32    473.39974   -8257.9059    8.6282961 
   35000    1765.2452    23202.736    148376.34    467.07597   -8269.2453    8.6377047 
   36000    1794.5881    23211.016    149235.79    474.83996   -8264.9418    8.6346238 
   37000    1793.2597    23267.888    145274.28    474.48847    -8261.483    8.6135184 
   38000    1815.2799    23248.705    149388.95    480.31493   -8250.1784    8.6206259 
   39000    1804.4746    23117.441    158145.47     477.4559   -8254.9688    8.6695748 
   40000     1820.145    23220.283    151260.94    481.60221   -8258.8818    8.6311776 
   41000    1839.7229    23322.291    140884.43    486.78244   -8266.6954    8.5934263 
   42000    1789.5657    23200.695    150638.76    473.51106    -8257.911    8.6384646 
   43000    1731.9423    23109.876     157732.9    458.26416   -8255.6485     8.672413 
   44000    1779.0192    23258.971    147659.83     470.7205    -8253.024    8.6168208 
   45000    1810.1659    23240.077    148555.55    478.96178   -8256.5635    8.6238264 
   46000     1814.191     23167.57    155713.24    480.02682   -8248.1955    8.6508161 
   47000    1831.5171    23219.123    154410.41    484.61122   -8235.8092    8.6316086 
   48000    1804.8368    23305.193    141404.68    477.55172   -8266.3774    8.5997309 
   49000    1803.2354    23269.077    144491.68    477.12799   -8263.3681    8.6130785 
   50000    1780.7802    23191.282    151883.88    471.18647   -8258.0019    8.6419709 
   51000    1721.6032    23149.255    154087.84     455.5285   -8258.2116    8.6576601 
   52000    1766.3454    23284.089     146991.6    467.36706    -8246.288    8.6075254 
   53000    1749.5049    23226.214       148318    462.91116   -8259.6007    8.6289735 
   54000     1789.961    23141.892    158013.65    473.61566   -8245.1251    8.6604149 
   55000    1776.1637    23172.588    157521.16    469.96495    -8237.402    8.6489427 
   56000    1762.9983    23180.978    149202.88    466.48145   -8273.6445    8.6458123 
   57000    1799.5407    23201.177    150818.11     476.1504   -8262.0609    8.6382854 
   58000    1771.2031    23222.143    151691.04     468.6524   -8243.0731    8.6304864 
   59000    1819.3477    23239.229    145125.52    481.39123   -8274.2832     8.624141 
   60000    1836.3335     23279.55    144211.73    485.88561   -8266.8907    8.6092038 
   61000    1862.2125    23084.599    163609.76    492.73308   -8244.0815    8.6819089 
   62000    1784.0747    23169.853    153314.47    472.05816     -8260.97    8.6499637 
   63000    1813.6942    23248.849    144780.34    479.89535   -8271.9891    8.6205724 
   64000    1816.6003    23243.223    146055.58     480.6643   -8269.5687    8.6226591 
   65000    1804.0298    23197.954    151248.81    477.33818   -8262.7624    8.6394856 
   66000     1798.761    23226.661    149976.38     475.9441   -8250.8758    8.6288074 
   67000    1833.4763    23220.939    147038.56     485.1296   -8273.6684    8.6309337 
   68000    1774.8808    23205.274    148618.83     469.6255   -8265.7959    8.6367603 
   69000    1829.4843    23220.997    148614.28    484.07334   -8266.2364    8.6309121 
   70000    1763.0205    23154.484     153151.6    466.48731   -8261.7945    8.6557052 
   71000    1811.6618    23242.153    149430.84    479.35758   -8255.4568    8.6230561 
   72000    1852.8396      23319.3    142152.36    490.25304   -8266.1735    8.5945284 
   73000    1906.6358    23152.957    157004.62    504.48729   -8254.0858    8.6562762 
   74000    1827.3963    23214.277    153741.34    483.52088   -8246.7085    8.6334106 
   75000    1779.4425    23269.677    145899.63     470.8325   -8259.5902    8.6128563 
   76000    1785.0888    23246.284    149068.13     472.3265   -8253.4433    8.6215237 
   77000    1831.8543    23215.942    155651.27    484.70042   -8233.8175    8.6327914 
   78000    1811.8196    23243.547    148179.06    479.39935   -8259.2343    8.6225389 
   79000    1779.5776    23189.309    151824.61    470.86824   -8260.1985    8.6427063 
   80000    1837.7283    23179.554    150686.62    486.25466   -8270.0877    8.6463436 
   81000    1799.8745    23124.053    155883.76    476.23873   -8258.9664     8.667096 
   82000     1847.349    23267.179    148444.73    488.80026   -8247.1427    8.6137811 
   83000    1794.0957    23214.391    148665.95    474.70968   -8262.3302    8.6333683 
   84000    1802.7679    23209.411    150273.63    477.00431    -8264.949    8.6352207 
   85000    1755.6818    23206.072    150927.31    464.54553   -8254.1941    8.6364632 
   86000     1785.827    23138.948    147351.05    472.52183   -8297.4501    8.6615166 
   87000    1744.4921    23198.892    150663.25    461.58479   -8255.8975    8.6391361 
   88000    1814.1087    23189.902    151376.07    480.00502   -8261.6962    8.6424853 
   89000    1748.1921    23263.797     146696.6     462.5638   -8250.2263    8.6150333 
   90000    1769.0077    23263.469    145584.99    468.07151   -8259.7466    8.6151547 
   91000    1845.9451    23163.821    154922.54    488.42879   -8255.6336    8.6522162 
   92000    1775.1219    23155.959    153691.77    469.68929   -8259.3743    8.6551538 
   93000     1743.954    23205.246    149436.32    461.44241   -8260.7154    8.6367707 
   94000    1793.5279    23187.208    151932.22    474.55943   -8258.8179    8.6434893 
   95000    1835.1199     23230.77     151929.8    485.56451   -8246.7111    8.6272811 
   96000    1798.4524     23287.31    146437.49    475.86244    -8249.223    8.6063347 
   97000    1753.0382    23112.099    156480.14    463.84606   -8260.6338    8.6715787 
   98000    1839.6349    23267.712    147773.12    486.75915   -8253.8144    8.6135836 
   99000    1775.1974    23282.829    143861.37    469.70928   -8260.6028    8.6079911 
  100000    1798.5327    23226.164    145067.48     475.8837   -8276.0727    8.6289921 
  101000    1778.6523    23066.073    163912.68    470.62342   -8248.1808    8.6888821 
  102000     1822.812    23294.149    151910.21    482.30788   -8223.9977    8.6038082 
  103000    1778.4591    23266.256    148279.13    470.57229   -8246.6489    8.6141227 
  104000    1831.8153    23228.752    147874.75    484.69012   -8264.3129    8.6280307 
  105000    1788.9167    23195.304    152948.54    473.33935   -8254.0807    8.6404724 
  106000    1813.5553    23208.145    157080.26    479.85861   -8232.0266    8.6356918 
  107000    1798.4701    23374.014    140859.66    475.86713   -8244.0727    8.5744104 
  108000    1780.4008    23228.782    150751.14    471.08608   -8252.4852    8.6280196 
  109000    1861.9654     23185.82    153390.43    492.66769   -8253.9568    8.6440068 
  110000    1754.0942    23192.177    151189.07    464.12547   -8259.7797    8.6416376 
  111000    1734.6614     23253.81     147646.5    458.98364   -8250.7837    8.6187332 
  112000    1855.4261    23124.645    157756.32    490.93743   -8256.1665     8.666874 
  113000    1824.0058    23151.045    154135.91    482.62377   -8261.6021    8.6569908 
  114000    1779.1231    23238.857     144393.3      470.748   -8278.6651    8.6242791 
  115000    1809.5913    23183.329    148833.88    478.80975   -8273.0855    8.6449356 
  116000    1739.8455    23076.175    159701.81    460.35531   -8262.5592    8.6850784 
  117000     1813.506    23284.178    145987.09    479.84557   -8254.4743    8.6074925 
  118000    1787.3451    23202.699    151335.89    472.92351   -8257.1985    8.6377187 
  119000    1824.6535    23201.842     150783.2    482.79513   -8261.0959    8.6380376 
  120000    1768.2845     23307.23    143613.52    467.88016   -8255.0044    8.5989791 
  121000    1816.3959    23251.761    147880.32    480.61022   -8254.6961    8.6194927 
  122000    1798.7189    23153.046    157684.98    475.93295   -8240.8226    8.6562427 
  123000    1778.4096    23179.312    150956.99    470.55921   -8265.8664    8.6464338 
  124000     1809.043    23229.417    145390.32    478.66467    -8275.499    8.6277838 
  125000    1809.4614    23237.657    148910.34    478.77536    -8255.693    8.6247244 
  126000    1844.2889    23258.527    147426.15    487.99058   -8259.6319    8.6169853 
  127000    1831.9007    23106.594    153482.78     484.7127   -8283.9411    8.6736446 
  128000    1861.9561    23270.352    148131.67    492.66523   -8255.3214    8.6126066 
  129000    1783.4536    23258.496    148030.43    471.89384   -8253.3129     8.616997 
  130000    1830.6949    23151.196    154023.55    484.39366   -8264.0333    8.6569346 
  131000    1805.5057    23187.213    154187.11    477.72872   -8246.3126    8.6434876 
  132000     1805.099    23256.294    146809.84    477.62111   -8258.2181    8.6178125 
  133000    1768.3718    23236.569    147852.96    467.90324   -8257.6134    8.6251283 
  134000     1864.922     23164.77    156631.64       493.45   -8250.7251    8.6518619 
  135000    1818.9937    23182.698    153510.85    481.29758   -8253.2992    8.6451708 
  136000    1760.3969    23232.824    143806.03    465.79312   -8280.9787    8.6265183 
[...]
  120000     1476.116    22353.088    151133.05    390.57369   -8580.8067    8.9660266 
  121000    1512.3789     22378.35    150095.39    400.16869   -8578.6786    8.9559055 
  122000    1493.3808    22342.878    152583.23    395.14187   -8579.1729    8.9701238 
  123000    1548.4945    22342.347    154564.02     409.7247   -8571.5744     8.970337 
  124000    1466.3173    22228.776    162223.16    387.98097   -8576.6248    9.0161684 
  125000    1497.3926    22337.043     155186.3    396.20337   -8568.2408    8.9724672 
  126000    1462.0868    22343.215    151950.29    386.86162   -8580.6799    8.9699887 
  127000    1526.7759     22389.27    148187.63    403.97807   -8581.5329    8.9515372 
  128000    1525.6828    22417.369     147333.3    403.68883   -8576.7682    8.9403172 
  129000     1440.055    22356.704     146381.2     381.0321   -8600.7578    8.9645767 
  130000    1504.4417    22434.367    143889.46    398.06854   -8585.6161    8.9335433 
  131000    1461.3297    22484.123    139521.72    386.66129   -8585.8591    8.9137739 
  132000    1521.2024    22425.629    145356.45    402.50332   -8581.2362    8.9370241 
  133000    1490.7564    22384.039    148664.46    394.44746   -8582.3479    8.9536293 
  134000    1540.4829    22394.671    149568.53    407.60487   -8575.8748    8.9493786 
  135000    1487.9953    22301.586    154927.16    393.71689   -8584.1239    8.9867323 
  136000    1507.7416    22359.316    150287.73    398.94167   -8582.2983    8.9635295 
  137000    1497.9785    22400.068     150254.3     396.3584   -8567.5605    8.9472224 
  138000    1510.7583    22385.514    149219.94    399.73988   -8577.7449    8.9530392 
  139000    1542.2863    22359.097    152025.39    408.08204   -8577.1728    8.9636171 
  140000    1522.1299    22317.925    153878.32    402.74875   -8584.6995    8.9801534 
  141000     1496.558    22343.768    154742.79    395.98255   -8567.0967    8.9697667 
  142000    1520.0484    22333.157    152527.83    402.19798   -8583.4087    8.9740283 
  143000    1466.7853    22291.456    157233.77    388.10481   -8576.3513    8.9908162 
  144000    1515.7975    22354.875    153570.91    401.07321   -8569.0648      8.96531 
  145000     1521.809     22347.24    151570.71    402.66384   -8581.6387     8.968373 
  146000    1532.6201    22363.049    150914.03    405.52441   -8582.7797     8.962033 
  147000    1470.5354    22356.565    151858.09    389.09707   -8574.4479    8.9646323 
  148000     1492.418    22364.533    148839.67     394.8871   -8586.8555    8.9614385 
  149000    1530.0516    22394.432     147583.8    404.84481   -8583.2515     8.949474 
  150000    1482.6152    22366.444    148956.36    392.29334   -8586.3372     8.960673 
  151000    1499.4825    22392.409    149814.38    396.75634   -8575.0314    8.9502827 
  152000    1472.0587    22360.281    150231.64    389.50013   -8579.9432    8.9631427 
  153000    1498.8842    22386.256    149153.25    396.59803   -8577.7381    8.9527425 
  154000    1486.4929     22379.95     149301.1    393.31935   -8578.1684    8.9552651 
  155000    1494.1777    22392.837     147257.6    395.35273   -8585.0631    8.9501113 
  156000    1511.5354    22424.755    147362.09    399.94549   -8572.4101    8.9373723 
  157000    1524.7765    22367.556     147978.9    403.44904   -8591.8722    8.9602273 
  158000     1533.224    22397.061    149054.15    405.68419   -8574.5258    8.9484237 
  159000    1479.0075    22315.943    152976.85    391.33876   -8586.0831    8.9809508 
  160000    1484.1514    22320.909    156220.48     392.6998    -8570.601    8.9789528 
  161000     1485.104    22297.109     158038.9    392.95186   -8572.3838    8.9885368 
  162000    1483.9466    22235.946    161392.16    392.64563   -8577.6076     9.013261 
  163000    1495.8362    22303.981     157561.8    395.79154   -8568.9857    8.9857673 
  164000    1491.0424    22351.338    151968.28    394.52313   -8576.7105    8.9667287 
  165000    1522.2098     22357.02    151192.39     402.7699   -8582.2661    8.9644499 
  166000     1537.004    22367.916     149705.8    406.68436   -8588.1824    8.9600831 
  167000    1495.1501    22342.326    151046.74    395.61001   -8586.8889    8.9703457 
  168000    1510.1132    22353.257    151920.75    399.56917   -8579.2397    8.9659589 
  169000     1481.208     22321.27    151621.18      391.921   -8591.8861    8.9788075 
  170000      1488.94    22367.543    151249.82    393.96684   -8574.5629    8.9602325 
  171000    1548.4798    22368.704    150246.64    409.72082   -8582.2574    8.9597676 
  172000    1518.1409      22398.8    148376.23    401.69328   -8579.4273    8.9477286 
  173000    1497.6141    22396.797    147690.73    396.26197    -8580.012    8.9485291 
  174000    1503.5433    22337.492    149688.74    397.83082   -8594.4029    8.9722869 
  175000    1527.6243    22351.105     153252.1    404.20254   -8576.4864    8.9668223 
  176000    1482.5996    22321.223    154734.62    392.28921    -8574.478    8.9788263 
  177000    1482.5978    22339.905    152979.14    392.28874   -8577.7138    8.9713177 
  178000    1492.6174    22332.112    153177.18    394.93986   -8580.6285    8.9744484 
  179000     1477.078    22353.982    151203.33    390.82822   -8582.1493    8.9656684 
  180000    1489.5907    22368.202    149983.36    394.13903   -8580.9848    8.9599687 
  181000    1446.4389    22402.119     145304.6    382.72125    -8588.793    8.9464033 
  182000    1480.1754    22459.146    140969.15    391.64778   -8587.6492    8.9236867 
  183000    1478.4411    22428.429    143046.72    391.18888   -8590.1465    8.9359085 
  184000    1517.9298    22435.027    143107.71    401.63743   -8589.4164    8.9332805 
  185000    1494.1746    22400.413    145519.52    395.35189   -8589.8959    8.9470845 
  186000    1498.0615    22382.286    147955.76    396.38036   -8585.8736    8.9543305 
  187000     1521.431    22394.089    147179.65    402.56382   -8585.1508    8.9496112 
  188000    1468.8326    22381.974    147051.75    388.64653   -8589.0535    8.9544555 
  189000    1460.5106    22398.617    146291.76    386.44455   -8584.7698     8.947802 
  190000    1516.7187    22445.304    145030.05    401.31697   -8577.4859      8.92919 
  191000    1495.1276    22414.753    145293.14    395.60405   -8584.2202    8.9413603 
  192000    1535.4402    22409.508    147173.06    406.27058   -8578.7739    8.9434531 
  193000    1504.1078    22370.749    149790.83    397.98019   -8583.8156    8.9589484 
  194000    1515.5121    22378.738     150223.2     400.9977   -8576.8143    8.9557502 
  195000    1522.6648    22335.727    152499.64    402.89028   -8582.9454    8.9729959 
  196000    1521.7636    22311.464    155998.01    402.65182   -8577.3255    8.9827535 
  197000    1457.2362    22289.479    157201.48    385.57815   -8575.0171    8.9916139 
  198000    1474.3213    22332.846    153416.98    390.09881   -8576.6775    8.9741534 
  199000    1480.5316    22349.744    152134.18    391.74203   -8576.6984    8.9673683 
  200000    1485.8997    22305.863    154550.48    393.16241   -8584.4801    8.9850094 
  201000    1504.1666    22352.794    151447.07    397.99573   -8580.2974    8.9661447 
  202000    1512.7826    22343.837    152253.51    400.27548   -8580.1577     8.969739 
  203000    1480.2411    22320.857    155048.06    391.66515   -8574.5169    8.9789738 
  204000    1497.6302     22317.38    152385.48    396.26623   -8591.1243    8.9803723 
  205000    1523.4391    22292.829    154949.16    403.09514   -8590.2927    8.9902626 
  206000    1532.2273    22375.763    152129.45    405.42048   -8569.2786    8.9569409 
  207000    1522.9951    22372.288    151172.47    402.97766   -8575.6594     8.958332 
  208000    1517.8977      22271.2    158526.21    401.62893    -8582.509    8.9989934 
  209000    1518.0399    22247.949    161355.65    401.66656   -8578.5804    9.0083981 
  210000    1539.4335    22298.726    157787.36    407.32721   -8575.0917    8.9878852 
  211000     1525.999    22299.709    155718.92     403.7725   -8583.6937    8.9874888 
  212000    1468.8609    22247.549    156916.07    388.65402   -8595.6533    9.0085602 
  213000    1510.0038    22326.469    153871.73    399.54023   -8581.6915    8.9767168 
  214000    1499.5588     22387.55    150513.62    396.77655   -8570.0569     8.952225 
  215000     1538.988    22378.914    147842.51    407.20934   -8590.9663    8.9556798 
  216000    1484.0994    22391.653    147467.06    392.68604   -8584.5711    8.9505849 
  217000    1445.3126    22353.205    149893.75    382.42324   -8585.3132      8.96598 
  218000    1494.7921      22366.8    151466.53    395.51528   -8575.4757    8.9605302 
  219000    1469.8081    22351.185    148958.12    388.90463   -8592.4652    8.9667904 
  220000    1480.6557    22406.855    146817.23    391.77487   -8580.6076    8.9445122 
  221000     1442.654    22394.176    145305.42    381.71979   -8591.3492    8.9495763 
  222000    1517.1662    22473.124    138486.18    401.43537   -8593.5341    8.9181364 
  223000      1478.78    22446.938    142518.08    391.27856   -8585.9148    8.9285401 
  224000    1518.1659    22445.636    145585.01    401.69988   -8571.1571    8.9290581 
  225000    1495.2531    22427.484    143520.87    395.63726   -8590.3816    8.9362847 
  226000    1468.7735     22422.91    145209.55    388.63089   -8582.7535    8.9381077 
  227000    1500.4151    22405.188    145566.23    397.00311   -8587.5623    8.9451778 
  228000    1506.5564    22450.241    144397.08    398.62807   -8577.3181    8.9272264 
  229000    1436.5193    22404.096    144593.68    380.09658    -8590.014    8.9456135 
  230000    1505.9227    22451.114    140974.15    398.46038   -8590.3607    8.9268794 
  231000    1470.0723    22403.486    144559.12    388.97454   -8591.9348    8.9458572 
  232000    1494.0012    22464.199    140807.29    395.30601   -8587.9772    8.9216795 
  233000    1487.1311    22459.441    141484.82    393.48821   -8586.6177    8.9235696 
  234000    1478.4071    22404.902    145695.87    391.17989   -8587.5195    8.9452916 
  235000    1529.0873    22396.271    147923.17    404.58966   -8581.5855    8.9487391 
  236000    1532.2471    22372.104     148901.1     405.4257   -8587.3587    8.9584057 
  237000    1438.9167    22353.964    151489.65    380.73092   -8574.3781    8.9656756 
  238000    1475.5751    22359.229    150172.36    390.43057   -8583.3574    8.9635641 
  239000    1458.0727    22360.273    150924.25    385.79949   -8579.4314    8.9631458 
  240000    1493.8876    22392.816     145998.9    395.27596   -8590.5174    8.9501198 
  241000    1501.3232    22401.002    145947.48    397.24338   -8590.3146    8.9468494 
  242000    1516.8917    22401.742    146173.77    401.36275   -8587.6928    8.9465537 
  243000    1487.6917    22410.147    143930.12    393.63654    -8593.234    8.9431981 
  244000    1501.4401    22419.942    145474.13    397.27432    -8583.625     8.939291 
  245000    1552.3832    22407.725    145804.41    410.75364   -8589.1647    8.9441647 
  246000    1525.2018    22424.154     142238.7    403.56156     -8599.67    8.9376119 
  247000    1493.5889    22481.151    140522.21    395.19694   -8581.5094    8.9149524 
  248000    1470.5841    22457.859     141383.4    389.10996   -8584.0578    8.9241983 
  249000    1467.5917     22433.47     144518.1    388.31819   -8579.0863    8.9339002 
  250000    1454.7676    22426.387    142956.95    384.92498   -8590.0272    8.9367221 
Loop time of 499.979 on 8 procs for 250000 steps with 2048 atoms

Performance: 43.202 ns/day, 0.556 hours/ns, 500.021 timesteps/s
121.8% CPU use with 4 MPI tasks x 2 OpenMP threads

MPI task timing breakdown:
Section |  min time  |  avg time  |  max time  |%varavg| %total
---------------------------------------------------------------
Pair    | 291.29     | 296.13     | 300.97     |  21.3 | 59.23
Neigh   | 2.9984     | 3.0496     | 3.112      |   2.3 |  0.61
Comm    | 20.196     | 25.099     | 29.998     |  74.1 |  5.02
Output  | 0.005907   | 0.010927   | 0.01261    |   2.8 |  0.00
Modify  | 174.71     | 174.85     | 174.92     |   0.6 | 34.97
Other   |            | 0.8442     |            |       |  0.17

Nlocal:        512.000 ave         514 max         509 min
Histogram: 1 0 0 0 0 0 1 0 1 1
Nghost:        2865.00 ave        2869 max        2860 min
Histogram: 1 0 0 1 0 0 0 0 1 1
Neighs:        42796.2 ave       43957 max       41315 min
Histogram: 1 0 0 0 1 0 0 0 1 1

Total # of neighbors = 171185
Ave neighs/atom = 83.586426
Neighbor list builds = 3329
Dangerous builds = 0


# fix 132 all momentum 100 linear 1 1 1 angular
fix out_file_1 all print 1000 "$(step) $(temp) $(press) ${sys_press} $(vol) $(ke) $(pe) $(density)" file one_phase_${sim}_press_$P_$T_.txt screen no title  "step temp press pressGiga vol ke pe density"
fix out_file_1 all print 1000 "$(step) $(temp) $(press) ${sys_press} $(vol) $(ke) $(pe) $(density)" file one_phase_cooling_press_$P_$T_.txt screen no title  "step temp press pressGiga vol ke pe density"
fix out_file_1 all print 1000 "$(step) $(temp) $(press) ${sys_press} $(vol) $(ke) $(pe) $(density)" file one_phase_cooling_press_150000_$T_.txt screen no title  "step temp press pressGiga vol ke pe density"
fix out_file_1 all print 1000 "$(step) $(temp) $(press) ${sys_press} $(vol) $(ke) $(pe) $(density)" file one_phase_cooling_press_150000_1500_.txt screen no title  "step temp press pressGiga vol ke pe density"

# dump 3 all custom 1000 traj_npt_new.lammpstrj id type x y z
run 50000
Last active /omp style is pair_style eam/alloy/omp
Per MPI rank memory allocation (min/avg/max) = 4.321 | 4.322 | 4.322 Mbytes
Step Temp Volume Press KinEng PotEng Density 
  250000    1454.7676    22426.387    142956.95    384.92498   -8590.0272    8.9367221 
  251000    1526.4886     22444.75    141772.56    403.90204   -8592.6724    8.9294105 
  252000     1464.738     22441.02    146464.93    387.56311   -8568.0816    8.9308949 
  253000    1501.3538    22385.029     143694.8    397.25148   -8605.4107    8.9532334 
  254000    1502.5104    22442.112    144106.95    397.55751   -8581.2824    8.9304602 
  255000    1529.2766    22413.361    145044.83    404.63972   -8588.9993    8.9419159 
  256000    1506.8126    22429.216    146218.86    398.69585   -8574.2832    8.9355948 
  257000    1511.5072     22414.57    143843.16    399.93804   -8593.0981    8.9414335 
  258000    1468.5608    22456.836    139395.37    388.57461     -8593.88    8.9246049 
  259000    1507.3893    22455.967    139620.68    398.84844      -8596.6    8.9249502 
  260000    1543.9694    22445.795    144904.95    408.52738   -8577.7078    8.9289947 
  261000    1463.1783    22357.885    150864.99    387.15042   -8579.4869     8.964103 
  262000    1487.2526    22345.622    154204.82    393.52037   -8571.4886    8.9690224 
  263000    1527.1347    22296.064    157426.18      404.073   -8576.4814    8.9889583 
  264000     1487.317    22303.594    157077.04     393.5374   -8572.7875    8.9859233 
  265000    1473.6285    22296.986    155913.56    389.91549    -8579.224    8.9885863 
  266000    1507.2442    22363.123    152393.44    398.81005   -8570.6783    8.9620033 
  267000    1523.7681    22346.994    150314.19     403.1822   -8591.8823    8.9684717 
  268000    1524.2059    22357.336    151641.22    403.29806   -8581.5929    8.9643231 
  269000      1470.75    22336.881    153835.15    389.15387   -8574.4809    8.9725323 
  270000    1519.0961    22360.537    150519.66    401.94601   -8582.3346    8.9630401 
  271000    1490.5823    22368.313    149749.11    394.40138   -8582.6527    8.9599243 
  272000    1489.1134    22405.857    147705.88    394.01273   -8576.1946    8.9449105 
  273000    1525.0148    22413.969    143083.72    403.51209    -8600.583    8.9416734 
  274000    1494.3822    22443.231    141335.92    395.40684    -8594.638    8.9300147 
  275000    1534.8962    22447.984    143993.06    406.12667   -8579.2151    8.9281239 
  276000    1485.1051     22384.93    148051.73    392.95216   -8584.6513     8.953273 
  277000    1472.5398    22372.992    146678.98    389.62742   -8593.7674    8.9580503 
  278000    1473.7615    22433.982    145669.26    389.95069   -8575.0348    8.9336966 
  279000    1502.3349    22378.552    148240.47    397.51107   -8585.6665    8.9558244 
  280000    1476.9023     22338.59    149258.88    390.78173   -8595.3499    8.9718458 
  281000    1464.6271    22307.111    153293.44    387.53376   -8587.7742    8.9845066 
  282000    1514.3946    22345.436    151668.56    400.70203    -8581.978    8.9690972 
  283000    1556.5841    22395.637    147409.74    411.86518   -8587.3102    8.9489925 
  284000     1455.989    22363.977    150905.71    385.24817   -8576.7722    8.9616611 
  285000    1534.1331    22391.641    148507.03    405.92475   -8581.9956    8.9505893 
  286000    1494.1978    22329.912    151605.09    395.35804   -8588.6427    8.9753325 
  287000    1456.5028    22376.305    150883.21     385.3841   -8571.1041    8.9567239 
  288000    1487.0065    22353.815    150208.49    393.45526   -8587.1564    8.9657351 
  289000    1471.4142    22358.361    153097.98    389.32961   -8570.4499    8.9639125 
  290000    1495.9579    22360.417    148143.74    395.82374    -8593.997     8.963088 
  291000    1499.8674    22410.052    144664.53    396.85819   -8591.7176    8.9432363 
  292000    1546.0024    22476.946    139679.62    409.06531   -8592.0411    8.9166201 
  293000    1535.1932    22462.846    140396.22    406.20523   -8592.8592     8.922217 
  294000     1418.346    22360.575    147916.71    375.28798   -8590.7878    8.9630247 
  295000    1494.9754    22421.128     147870.8    395.56378   -8571.9212     8.938818 
  296000    1485.4084    22394.164    146404.45    393.03241   -8588.2253    8.9495811 
  297000    1492.2939    22395.992    147097.99    394.85426   -8586.0871    8.9488508 
  298000    1490.0017    22371.371    149564.36    394.24778   -8581.2505    8.9586995 
  299000    1508.8079    22400.859    148102.82    399.22382   -8578.4358    8.9469064 
  300000      1462.67    22353.714    149849.33    387.01593   -8586.1209    8.9657756 
Loop time of 97.9348 on 8 procs for 50000 steps with 2048 atoms

Performance: 44.111 ns/day, 0.544 hours/ns, 510.544 timesteps/s
121.3% CPU use with 4 MPI tasks x 2 OpenMP threads

MPI task timing breakdown:
Section |  min time  |  avg time  |  max time  |%varavg| %total
---------------------------------------------------------------
Pair    | 56.973     | 58.155     | 59.208     |  11.3 | 59.38
Neigh   | 0.55936    | 0.56863    | 0.57855    |   0.9 |  0.58
Comm    | 3.8149     | 4.88       | 6.0743     |  39.5 |  4.98
Output  | 0.0010671  | 0.0013894  | 0.0014977  |   0.5 |  0.00
Modify  | 34.139     | 34.168     | 34.188     |   0.3 | 34.89
Other   |            | 0.1615     |            |       |  0.16

Nlocal:        512.000 ave         514 max         510 min
Histogram: 1 0 1 0 0 0 0 1 0 1
Nghost:        2892.50 ave        2903 max        2883 min
Histogram: 1 1 0 0 0 0 0 1 0 1
Neighs:        42904.8 ave       44117 max       41487 min
Histogram: 1 0 0 1 0 0 0 1 0 1

Total # of neighbors = 171619
Ave neighs/atom = 83.798340
Neighbor list builds = 636
Dangerous builds = 0

unfix temp
unfix out_file_1


write_data after_${sim}_press_$P_$T.in
write_data after_cooling_press_$P_$T.in
write_data after_cooling_press_150000_$T.in
write_data after_cooling_press_150000_1500.in
System init for write_data ...
Last active /omp style is pair_style eam/alloy/omp
write_restart after_${sim}_press_$P_$T.lmp
write_restart after_cooling_press_$P_$T.lmp
write_restart after_cooling_press_150000_$T.lmp
write_restart after_cooling_press_150000_1500.lmp
System init for write_restart ...
Last active /omp style is pair_style eam/alloy/omp
next loopVar
jump in.lmp ensemble
























Total wall time: 0:59:55
