LAMMPS data file via write_data, version 29 Oct 2020, timestep = 300000

2048 atoms
1 atom types

0.682953340772821 27.669046659228137 xlo xhi
0.682953340772821 27.669046659228137 ylo yhi
0.682953340772821 27.669046659228137 zlo zhi

Masses

1 58.933

Atoms # atomic

1286 1 2.8929878730979732 4.406521671140817 2.1745787337197355 -1 0 -1
77 1 1.1777493503939587 5.025024410171408 2.74012849783622 2 1 0
1640 1 4.400738308561012 0.7862734739982108 3.6394815941376475 1 2 0
1750 1 0.8725058607668564 0.9627995191930893 4.329668387481655 1 1 1
2042 1 1.570223704213003 1.0752012189319051 1.3681977817946493 1 1 2
956 1 3.5582633069776892 2.876996920089862 5.065685649099681 0 0 1
359 1 2.8668527283222827 4.996498860694169 4.257395852972813 0 0 0
1482 1 2.7055170502230212 2.3220182073845255 2.802272558378308 0 1 1
1419 1 6.821452631312289 1.5293800555403192 1.2443278760624843 1 0 2
126 1 8.028302244770334 1.3851127526044742 2.915592332340211 0 1 0
201 1 4.551376211212422 4.142889501982175 3.483525989834721 0 0 -1
1567 1 4.856868962542272 2.6469023225933697 1.8112568502279158 1 1 0
1826 1 6.547528687400224 3.817919155792175 2.693451645810992 -1 0 1
1573 1 6.051520500229346 1.9448509995104786 4.383329545633174 0 1 0
1037 1 8.407799425173305 3.041140537350252 1.5021214759982362 -1 0 0
151 1 8.469452553620478 3.7036257320588186 3.783640845178765 0 1 0
3 1 8.755547692672755 1.536262458813344 4.856786322382403 -2 0 -1
1717 1 9.9130756447517 1.5619128716945008 1.5151675507057443 0 2 1
479 1 11.95072787856242 3.2341002224414352 3.2271693847923584 0 0 2
572 1 10.33000205891737 2.3555525916742592 3.64534605407813 0 -1 -1
1245 1 12.030080701214269 1.406162441111914 4.088424502565326 0 1 0
1887 1 10.05861776839774 4.017185274981946 5.150124378953506 1 1 0
1033 1 10.169650167905882 4.2810385845686545 2.518936780203919 0 1 1
1890 1 11.423560054665884 5.131335802442914 0.9276779381456698 -1 -1 1
111 1 10.572951031085948 3.2792642151863642 0.8469285668636815 0 0 -1
765 1 12.279744004855228 2.316345375649848 1.2611537673535604 0 0 1
66 1 15.711669085117903 2.926719460646623 4.3610579809173835 -1 -1 -1
658 1 14.312816329394222 2.826760306355935 1.4977873422906207 2 1 1
1356 1 13.867203407734959 4.359504216970521 4.633112415512828 0 0 0
971 1 13.687094963867736 2.1521438300948903 5.055196163389195 0 0 0
1792 1 14.17078818319532 1.0567460560689288 3.2544313700427945 -1 1 1
1741 1 16.050373489470772 2.3780114447501566 1.139521472661999 -1 2 1
421 1 13.377400614855766 4.562432626388809 2.5855658229495164 0 0 1
1385 1 16.573339831867095 4.8229894039189105 0.9222274661576405 0 1 1
653 1 16.617882759541658 1.2733814615668093 2.696182701957313 -1 0 1
1322 1 19.714602419541784 3.5723950362293557 3.8725733037469374 -1 0 1
383 1 16.97054388380125 3.521073516897 2.944913987802631 0 0 -1
1224 1 18.089748451145127 1.9243301829804809 4.427975038254906 -1 1 1
2043 1 18.226396082544483 3.6643865197336445 1.1629612177063666 0 0 0
462 1 19.785697673844474 2.1729145302356283 2.6354362579683217 0 0 2
1543 1 18.57926999670034 1.4343687690975804 1.3604339259386447 0 0 1
590 1 21.316531291869666 2.292644748465958 4.723803696702816 0 2 0
1086 1 23.694995012927464 4.331956851723854 2.314302813751911 0 1 -1
776 1 23.63089965977028 2.0773797150040845 3.333747710600347 0 -1 1
1006 1 23.6934290804312 1.856182148978209 1.4020665296592152 0 1 0
1758 1 20.375816900646107 4.296395678389148 2.0991304585524073 1 1 -1
1207 1 21.87176161363376 4.8500710498472674 3.6412062108737637 0 0 -1
1949 1 21.341548745866348 0.893739199303937 1.6253563941102405 1 1 0
309 1 21.611090878781205 2.7700817115798295 2.2587656302071335 -1 0 1
1658 1 27.507275406518772 2.7007871613637144 2.984470506636605 0 0 0
214 1 25.94729247897711 0.7532781068414556 1.7023116447483575 -1 0 1
81 1 25.63647970445885 3.0932334758040674 1.9531058427799477 0 1 0
1204 1 25.084686205774723 2.981872830170139 4.088431709865153 0 0 0
677 1 25.57669880292724 0.8535188566435719 3.7969064174508995 -1 0 1
639 1 26.05460173411963 5.0610828457071335 2.3178759755445046 0 0 0
1393 1 26.660588385979544 4.43760555230255 4.4441853035590935 -1 0 0
91 1 2.031326649354699 6.6034147170310264 3.361445256468473 0 0 0
1761 1 2.4557463389717418 6.403673838918758 1.1544457144720743 -1 1 -1
1375 1 3.4896359515280597 7.8015873439262915 3.361351226609831 1 0 0
908 1 0.907189226066875 8.447204991305028 3.6755462625896573 -1 1 1
1511 1 2.8720177641421523 8.43674636797424 1.4730868222924407 -1 1 0
35 1 2.7724402604941907 8.634373303362487 5.062478814790947 1 1 0
142 1 6.77394406719199 5.36333591563747 3.7292240533382843 0 0 0
655 1 5.3791754649643675 8.568428359539041 3.086464934994865 0 0 1
1742 1 5.2505034050438315 5.406999457955182 1.9008830428872603 0 1 0
1728 1 4.765980480478097 7.149489202126512 1.4479489885125387 1 0 1
88 1 6.851807079209923 7.085260479119521 2.2359562333126926 0 1 1
575 1 6.568827367414957 9.064755595857171 1.4829711157151797 2 -1 0
1610 1 7.590957202446876 7.98339563265594 4.144164940751892 -1 1 1
1938 1 4.791568478087161 6.526627992001119 3.7181667762887356 0 1 1
1652 1 4.68268956533522 9.678211385975334 0.9757345550687497 1 1 1
1714 1 7.9076540355285845 5.244387269434225 1.675281478248449 0 1 1
1387 1 8.960215009485703 7.810185880367045 2.4252653321870254 0 0 0
1088 1 12.028843715779118 5.342313169940558 4.527490635656702 0 -1 -1
212 1 10.677376675192999 9.100919968816871 2.6037176580067625 0 -1 0
704 1 11.406291455740844 9.558317596528033 4.742958176201518 0 -1 0
842 1 9.909401726425838 7.643898658246169 4.567567965434433 1 0 1
1134 1 9.010453586190717 5.820029720707121 3.3795923495967695 0 1 1
710 1 11.238044052865773 6.519667019542183 2.918585148935506 0 1 0
784 1 9.898586397013121 7.183370520320621 0.8101854956442203 -1 0 1
1326 1 12.122756187544773 7.053174791189387 1.2563734631968242 2 1 0
1112 1 15.085148122064744 5.251451766986779 2.5105595547456643 1 1 1
954 1 12.550032771469931 7.981303713022673 4.134102016102842 1 -1 0
680 1 16.069601648587543 5.441586184341701 4.199341425998344 -1 0 0
434 1 13.269664673895006 6.377604842172632 3.0116731017829292 0 0 -1
1667 1 15.810137555335317 7.719607567881482 3.6375762148391226 0 1 1
862 1 12.82936389017977 8.678566771652621 2.2953142264299755 0 0 0
1440 1 14.763446682795538 9.678118869171223 2.832769248890057 0 0 1
1916 1 13.988108867943778 6.615105218240167 5.1294596540683095 0 1 0
2022 1 14.457704985610684 7.575677622833816 1.3401261667620787 0 0 1
1181 1 18.256129934026205 5.517727566767129 3.6033719762798624 0 0 0
490 1 16.570217711644503 6.839294791531616 1.6313981542153542 -1 1 1
1354 1 17.839745087861345 7.86264575031546 3.4502963555084745 0 1 0
517 1 18.367361794830906 8.706759953188875 1.476305377008495 -1 0 1
1535 1 16.385193534050288 9.11685066026673 1.486428782892929 1 2 -1
1838 1 19.92106979745023 8.847269051535182 3.0653566697132963 1 0 2
1519 1 18.997816295161982 6.076767291540856 1.7292219477081396 -1 0 0
520 1 21.136324974710384 7.066024737920673 2.743536620522224 -1 -1 0
610 1 20.340250714733237 7.12990297422436 4.543735418648694 -2 0 0
433 1 22.500076337070958 6.775186349362572 4.543709594525691 1 0 0
296 1 23.57302894375539 8.634520108123375 2.3539625847914194 -2 0 1
585 1 23.06865801409907 6.427547465599356 2.2561910812981996 0 0 1
115 1 21.964707348049373 8.96634656191021 3.6869038165269474 0 0 1
1800 1 20.9494451492928 8.396775528814207 1.276621110504939 -2 -1 0
422 1 24.527664214967217 5.68850883488941 4.1896455679883005 0 0 0
1249 1 27.50503870575369 7.231066541436053 1.562635563986181 -1 0 0
1995 1 25.221852637674594 9.280260392092403 0.8834301670025576 -1 -1 1
1548 1 26.6913487636983 6.865577468276916 3.7630221475596706 -2 0 1
1738 1 25.09641559051095 6.970183216803739 2.3965430340698752 -1 1 1
804 1 26.2610112948881 8.715169033896252 2.58290856201023 -2 1 0
1013 1 27.514338949007705 9.617208658237809 1.5490640118403407 -1 -1 0
1217 1 26.186653800144143 8.696086286719874 4.832664555161372 -1 1 1
219 1 27.33652995001635 5.242302133763292 0.8196965080160652 0 0 0
1490 1 3.3982730240894155 13.5668820126422 3.323250340102901 2 0 1
364 1 2.812380580322622 9.805602608679296 3.016916989821106 1 0 1
1311 1 2.769378567229171 11.776550599415343 2.1839435546210595 1 0 0
356 1 3.0078807553125464 11.506226311922184 4.849751960521332 0 0 0
1713 1 0.9022239740816882 10.010739190240043 5.07091648345608 0 0 1
1941 1 1.4140358374228756 13.238839870003032 4.430733600348978 -1 0 -1
1402 1 0.8907540931710187 10.99791827644574 3.083094911961571 1 0 1
527 1 1.147657124310019 13.101212241610197 1.956407729787086 1 0 1
1495 1 4.730317045895671 9.795258255373618 4.750336142314837 1 0 0
929 1 6.566717852214722 10.027689228846244 4.052605405234081 0 -2 2
768 1 6.4817037576646115 12.258449728327259 3.9676356303148403 -1 0 2
1710 1 4.592723996596684 11.409678538779088 3.47604897558434 0 0 1
1 1 5.040580630756697 13.04392239353124 1.4690912160973437 -1 -1 1
805 1 6.5812060120558415 11.325057633564402 1.9067051713102503 0 -1 0
1634 1 8.180715984533805 9.86077580056665 2.4234657892430977 -1 1 1
1886 1 7.3635293723138275 13.470341727321438 2.078472861356068 0 0 1
599 1 10.438144727379598 10.991419354164814 1.381212035017958 1 -1 0
357 1 8.496514172817854 12.013334384997947 4.748782092543941 1 0 0
1425 1 10.399923342212194 11.489477673496868 3.8787527537895667 0 1 0
608 1 9.011593770263854 12.062447845372901 2.5506344602775846 0 0 1
521 1 12.050308840415363 10.64890525329055 2.964997696387096 0 0 0
182 1 9.361101183910923 13.95758576776404 3.9989970106955597 0 0 1
252 1 10.735126684174821 13.586507040216622 2.6960700184022164 1 0 0
432 1 9.239891939653482 9.827901014967322 4.157900327437872 0 0 0
36 1 15.81593599934373 14.006631520360726 4.430448889546991 -1 1 0
693 1 12.45468606349849 12.410333332166587 4.394410918978011 0 1 0
937 1 15.981936484817956 11.452278286752932 3.060189823624386 0 -1 1
1824 1 14.527973409232985 11.222033349150408 4.40839912320358 0 1 2
1367 1 13.021388741384325 13.498212917559714 2.3322051269033706 0 -1 0
30 1 15.06539759375227 13.57040236428367 1.8672271238741704 1 0 0
943 1 15.467970214822348 11.040803115003026 0.859789692073101 -1 -1 1
1778 1 13.87570846175163 11.74148871346147 2.241436270601719 0 1 1
1942 1 12.46772610338266 10.12143227488654 0.7779710853033938 0 0 2
925 1 12.277042003496481 12.21504528464525 1.1194726770074581 0 -1 2
946 1 16.406647298869416 9.762924914187474 4.800120657457633 -1 1 1
1408 1 17.90399191530974 10.407512191067262 2.848260108089978 1 0 0
33 1 17.033578737761495 12.266968262391721 1.4006011071530167 0 -1 1
561 1 18.47945702804489 12.570223332757951 4.109084210651761 -1 0 1
186 1 19.882344119011464 12.907569671975049 2.2219841956568533 0 0 1
1151 1 17.065843470544017 13.622264911810591 2.797781207254602 0 -1 0
1380 1 21.32656739786892 12.10712133600501 0.9619121195451279 -2 2 1
1568 1 20.211346063679834 10.829414650470621 4.1905429607665905 0 0 1
244 1 20.034666561049875 10.66324692682316 1.7826266030003022 -1 0 0
290 1 23.63709781116959 12.136660476765895 2.1292700261347655 -1 -1 0
739 1 22.29755171107157 10.025748547303401 1.2642849775180527 -1 0 0
1893 1 21.90847958439496 12.938927827223592 4.556684254144468 0 0 1
2032 1 21.970677681551663 13.47846747352962 2.806703456959063 -1 -1 -1
1591 1 20.13629378325694 14.056515417624679 3.851185814323199 0 0 1
409 1 21.80894746227232 11.270180791337538 3.1202710150361814 -1 -1 0
286 1 25.204506883905076 11.005533318131636 2.491864369829295 1 -1 1
1526 1 26.295131622228574 12.750271166121614 3.4381495023784057 0 1 0
223 1 24.432189832399928 12.409080558545531 5.006104465889798 0 0 -1
1946 1 25.713731892502466 10.895342438890244 4.490449907986046 -1 0 1
79 1 24.02174660323255 9.97410761788177 4.433779175276156 -1 -1 0
503 1 23.90760700921458 14.152950734408478 3.068685734639985 -1 -1 2
1629 1 25.363127113705886 13.21839614373964 1.2034477934065055 0 1 0
1683 1 26.762422542495194 11.556098161563447 1.247586826761495 1 -1 1
1124 1 1.3514732344818774 1.3177591142635365 7.326811113292502 0 1 0
96 1 1.2916216469236308 2.9970218273221514 5.22025316170495 1 0 -1
104 1 2.7744008320510654 3.160997343647758 7.069369195801692 0 0 -1
1678 1 3.5943781711014435 4.791353590918217 6.565044631898404 -1 1 1
1054 1 3.598492951251588 1.3001272688071086 7.980049613401574 0 1 0
1901 1 1.5052241547021141 4.211395555867513 8.761072999273226 0 0 1
640 1 3.3342983264261536 2.7826004195151177 9.3256238874049 1 1 -1
629 1 1.3231424991120668 2.0832095800407697 9.51800806722432 1 0 1
1192 1 7.660574652266898 3.332034629076511 5.5456997862576 0 0 1
911 1 4.676176299403577 1.814176886016669 6.369789315166889 0 0 1
969 1 6.944033676526334 1.8817245500884425 6.553312662561444 0 0 1
250 1 5.508458981503481 0.9280423006815556 8.282638286700708 1 1 0
2012 1 4.8649663328236175 3.3758801686807245 8.21990416258873 0 1 1
1016 1 6.727540075895435 2.394272745732926 8.830988137101219 1 1 0
1851 1 5.412678782052134 3.777459079612641 5.248010188841143 1 0 2
1962 1 6.624937064382163 4.004971687263742 7.067909064055415 -1 2 0
425 1 7.050096814454015 4.785964787674166 9.383094647842073 -1 -1 -1
100 1 8.20884604111584 0.7942950238458517 7.971973093632949 -1 2 0
829 1 10.24454693758987 0.8269708169213388 8.626918357457967 0 -1 0
1867 1 8.629673623029202 4.070979588299181 7.213947610572351 -1 0 2
1187 1 11.765110687520112 2.71070559691372 5.683054627713025 -1 0 0
1334 1 12.012947673320628 1.7713052591043341 7.820666594679981 0 0 -1
1218 1 9.26990368072572 4.976357189901921 8.989540386398957 -1 0 2
449 1 11.319115274682403 4.317216161447989 6.941181427617617 -1 1 0
1888 1 9.916654994384922 2.3000152214711562 7.072547311064123 0 0 1
373 1 10.62085264802578 3.508145721470189 9.370596338804727 0 0 0
1144 1 8.769025972452901 2.7143286191817437 9.332557400986916 1 1 1
711 1 15.836999613658646 3.3842811938250112 6.570078341838517 -1 1 1
45 1 15.101417182689268 0.7458178483068882 9.343923200844785 1 0 0
1685 1 14.488603860226474 1.6129241984006448 7.265787868582358 0 0 1
410 1 14.33025911188426 3.1611869426869244 8.746238390927171 0 1 0
1793 1 13.538923405709324 4.1277484875471835 6.715939167629135 0 1 1
1931 1 16.07536503624842 4.0829699848758185 9.310042580925161 -1 1 1
769 1 12.255605984199516 4.384777561746677 9.080305538386886 0 0 1
2016 1 17.52790913270183 4.055337350090891 5.2720753964068985 0 0 0
888 1 19.502472354899027 5.179941988179647 5.2300513304830965 -1 0 1
1171 1 18.14756478213439 2.57097691465831 7.202024045566389 0 0 -1
1126 1 17.109960369393328 4.951163251264081 7.32534896158951 0 2 0
790 1 18.23804406881009 3.0782125435670933 9.38979993242183 0 -1 0
1986 1 19.394432297022078 4.946372520981859 7.530131098286639 0 1 -1
1174 1 19.776221637317903 4.316146711049832 9.629850910388274 0 -1 -1
1525 1 19.95062087557283 2.048144909623872 8.819840567115007 -2 1 1
333 1 16.134696628985246 2.086540229203287 8.162330316782693 -1 0 -1
1588 1 16.749690405863184 1.3462164525731484 6.054505532441637 0 0 0
435 1 22.00493827326803 3.243074257903056 7.184196378187731 -1 0 0
1100 1 22.193548841858444 0.9311931334595385 7.492192651832915 0 1 0
854 1 23.192542713126407 1.2223864141052108 5.450884665122872 1 1 2
674 1 20.01308452400373 1.2842262686914037 6.571636990592968 1 1 0
1395 1 19.976109631865846 3.259667389006869 6.770593282412971 0 1 0
1787 1 21.139485079440014 4.9727509781805335 8.242724375168065 -1 1 1
1035 1 23.153965337766103 3.7131435270716073 5.4164069441541765 -1 1 0
185 1 23.51851345619243 4.349802503329619 7.9557627561636135 1 1 0
1645 1 21.825535042695257 3.384072444394998 9.42148663740342 0 -1 -1
1003 1 23.57807336362903 2.075795835487491 8.95553550574957 -1 0 0
376 1 21.555306885625257 0.8119560426511065 9.213419580508758 0 1 -1
1009 1 25.330070038581 4.438919583494067 5.985521154835198 1 0 1
42 1 24.46963753057321 2.5445429000145547 6.767720396763922 -2 -1 -1
442 1 26.429643507169537 1.7164793357327406 5.801523914565254 0 0 -1
110 1 25.932959707114073 2.0889993499003747 8.591051858842471 1 0 -1
1720 1 25.549669704586307 4.307288673012453 8.507429857566683 0 -1 0
1363 1 27.42335496183358 3.5827914210355227 7.183753437529218 0 1 0
628 1 1.7255093032042703 5.339321416957674 5.54929426810534 1 1 1
945 1 3.4914328433751316 6.689026071648008 5.645338467067183 1 0 0
7 1 2.4017627551998624 6.0540619833086025 8.04795961579871 1 -1 0
180 1 1.2544328527961888 7.593023390981233 6.216406506335756 1 0 -2
1655 1 2.9259281450384376 8.472107401566042 7.303060206006043 0 -1 0
323 1 2.4463348067657305 7.856111228458547 9.144941110639447 0 0 -1
1226 1 4.599073130955466 5.645458608366667 8.117070893759497 1 2 0
877 1 4.856021092083619 8.016071671299864 7.158421714160441 -1 0 0
644 1 7.443538543854708 6.0403813343935875 7.5741249019107215 0 0 1
950 1 5.582118079959751 7.7657505212786715 5.188895730783218 0 0 2
1229 1 5.658579697662128 5.9112511209328495 5.90825642191476 1 1 0
199 1 6.37912812872808 7.323159323069739 8.802780116236473 1 1 0
1834 1 8.341993520879452 7.161617249692341 9.455010013211863 0 1 1
2018 1 8.283766481935551 7.237933387500858 6.226025776484357 -1 1 1
949 1 6.935330908354703 8.527539305431304 6.8205081218490555 -1 0 1
1968 1 8.519910788343063 5.579274272992296 5.244697746391916 -1 0 3
83 1 10.497435259136163 6.215323975509916 6.232686762832981 2 1 0
165 1 10.255452818194787 8.851780989764743 5.978808523964153 -1 0 1
1671 1 9.76727459199259 7.299899864378828 7.730634365533933 0 0 1
488 1 11.830565232250127 6.223689020402838 8.68286568834886 -1 0 1
470 1 11.57566032003221 8.229591763075838 7.920128053824963 -1 0 0
1688 1 12.6390429681531 6.037785383114884 6.465484181894365 0 0 1
1556 1 15.636516008336358 5.513714581068237 6.0261253577759035 0 0 1
1769 1 14.755659381861777 7.213206388108838 7.293783508946121 1 1 0
1549 1 13.700647976635333 7.355110635489125 9.351544999580888 0 1 0
1700 1 12.260983498057293 8.137151066011723 6.062122627204755 -1 2 1
861 1 15.80075682868539 7.996188174304214 5.880215677908934 1 0 1
1522 1 16.035729635113334 6.475502196066282 8.92074701381106 0 1 0
1212 1 14.104533643155547 9.121172935108383 5.4716218287978675 0 0 -1
901 1 13.866240117771364 9.229644262223063 7.708094945720616 0 -1 1
1857 1 15.929050791319177 9.271221179213226 8.470723339565506 -1 0 1
28 1 13.877069802621598 5.5302794582615675 8.448769762757031 1 -1 0
210 1 17.37109659125794 6.486449533569131 5.707232614171426 0 1 -1
1464 1 18.50323119433429 6.1582489269329415 9.130586346392157 0 1 0
164 1 18.34659230477083 8.592773282093347 5.341604313111835 -1 0 -1
904 1 19.148711651182246 6.83681001747832 6.853232903421586 -1 0 0
1528 1 17.336056339237118 7.985485347502129 7.639779102422152 0 1 0
1927 1 19.38771480497776 8.403814535667301 8.290448887901452 0 -1 1
1056 1 23.29908103302956 6.044887791132537 6.286586470161858 0 1 -1
1598 1 21.329014683095608 5.242803940082739 5.839520857772759 0 0 0
481 1 21.651726900331106 8.485768316104394 8.434470090235708 -1 0 0
172 1 20.344262952060973 9.225285720718439 5.78249548873105 1 -1 0
965 1 21.395968306500336 7.240672790289847 6.6854539265865185 -1 0 1
1467 1 23.036148370557974 6.873792065013568 8.236271285231787 2 0 1
277 1 22.561298521963025 9.143240409063775 6.065621821716671 0 -1 1
601 1 23.71504675462755 8.691889616439466 9.659866909223654 1 -1 0
613 1 20.79185032615743 6.601176844362408 9.440190166757501 0 -1 0
935 1 26.601292864437532 6.188738375957458 5.9402752156741485 -2 0 0
593 1 24.832728271360892 6.034530200064856 7.619640123760103 0 0 1
1314 1 24.29708681929032 7.9026401988298165 5.2575761150763585 -1 1 0
1143 1 26.350327687949395 7.948722343908756 7.13762228754308 0 0 -1
1022 1 25.314550523006602 7.489353022137991 8.855091097466646 0 0 1
1203 1 26.95674457569345 6.14864818242826 8.270129774968062 -1 0 1
1010 1 23.993184081977233 8.745862544759502 7.759586861770584 0 -1 1
963 1 27.66691413058041 8.869750168667698 8.887793169830369 -1 1 2
1236 1 2.869256414898057 12.972362445293014 6.482702132407726 0 0 -1
1533 1 4.231081620184533 10.561392321630475 6.9994571373040975 0 1 1
1752 1 2.2385087314377223 10.748202515810025 6.616880624377127 0 1 0
1680 1 3.9068038504197355 14.165246685618158 7.894947909468057 0 0 1
895 1 0.728967617608042 11.541128848276761 8.700741833433247 1 1 2
579 1 3.0347473377960523 12.260022970698149 8.661584671033758 -1 -1 1
1609 1 4.522433839870317 9.745108529330517 9.163675247759627 1 -1 0
1649 1 2.6064488103230445 10.06440095593406 8.72181656009901 0 1 0
524 1 1.0623268685427392 13.191920878571782 7.033650088875606 0 0 1
1554 1 7.388440953747211 12.582057636402132 6.486549764696102 1 0 0
701 1 4.772667928210649 13.956683446990391 5.470407009111716 0 -1 1
569 1 5.0324908061042475 12.47418509648515 7.665026293898638 0 0 -1
225 1 5.299254111314505 11.981012734253499 5.823939923466674 -1 -1 0
827 1 6.41394925482537 10.689159072001898 7.3241406641413525 1 0 0
820 1 7.901566996868693 9.996870057303639 5.49160896063523 -1 0 0
63 1 8.006260597897446 9.788318528926904 8.817938849871393 2 -1 0
358 1 7.15758429603052 13.266568257470185 8.437397007823913 1 0 0
1241 1 5.982479733933242 11.42368114412851 9.406382733558102 0 0 0
1452 1 10.40088173239397 13.507211113517215 5.830280249846414 1 0 -1
605 1 12.119432830308135 10.120266863931038 8.410471444839857 0 -1 0
190 1 8.841887837446855 10.918532699779856 6.974428740805667 0 0 1
492 1 10.82026593713511 11.961946436531969 9.190582561737957 -1 1 0
1914 1 11.83168990790178 12.352323605091499 7.40574825225232 1 1 0
884 1 10.622039109205003 11.296093620913922 5.938216426924518 -1 0 -2
200 1 8.778972462870758 11.900188356939413 9.264058587726124 0 0 0
1109 1 10.082902574811392 9.724194669460642 8.252967541616487 1 0 1
853 1 9.289182300621913 13.326278586531258 7.691182540351878 1 -1 0
1094 1 12.584890093507719 14.131947439158974 6.015690029967899 -1 0 -1
1370 1 12.593035318409452 10.594008277665536 6.122615945843826 0 2 0
818 1 14.598075908486697 11.133606469124345 6.677100316152009 1 0 0
1718 1 14.682749883923188 13.382053191443804 6.280925105348914 1 0 -1
1248 1 13.373576920739836 13.597829935768186 8.369897142185739 0 2 0
119 1 14.173436029219946 11.762832857716758 8.40383817005568 0 0 0
615 1 15.348079171319963 13.904506772910823 9.313303868141427 -1 0 1
54 1 15.99982427820135 11.10527917542177 9.147885631860408 1 -1 -1
211 1 16.86840815123103 9.917153609916685 6.638446419531802 0 0 0
267 1 16.34441902804718 12.024478017299874 5.207229023336795 0 -1 -1
1788 1 17.754048452691478 13.466421348105992 5.918231572673155 0 1 0
923 1 18.612658078721815 10.833181510298639 5.618253200518375 0 0 0
2033 1 16.54002540661461 12.368989709914475 7.436213936414725 -1 0 2
1697 1 18.18685221481323 9.961200754570124 8.505125191458976 -1 -1 0
417 1 18.62965498834088 13.136668753167427 8.76079238577053 0 1 0
1069 1 19.380873903738056 12.269972621837558 7.073898724176119 -1 1 0
1304 1 20.736578671485482 13.506652190499494 9.32844509717072 -1 0 0
819 1 20.77589658442931 10.12740436108882 7.39337655912785 0 0 0
1277 1 21.967706571348288 11.21180074963384 5.553404268670615 -1 1 0
134 1 23.630754737346564 11.566663396771915 7.137619347659563 -1 1 0
1936 1 20.28665478707672 11.417765017304369 9.148215651954484 -1 0 0
29 1 21.50951389645313 12.280986222685032 7.594297348074639 0 -2 1
2010 1 22.509627061568388 10.394689665789352 8.87972491893916 0 -1 -1
670 1 22.86090605903523 13.476205361557701 6.378947994847736 0 1 0
1903 1 25.747005255884602 14.029943256181399 6.03034933698128 0 0 2
1782 1 26.186637673708475 14.093561011741466 8.618818184655058 0 1 0
2004 1 25.6541810730728 10.120185630453136 8.44470343109633 -1 0 0
1897 1 26.8175042833032 11.788854012495344 5.965249839348289 -1 1 0
1656 1 24.926349180876734 10.11458277330928 6.369999195094534 0 1 1
1166 1 23.844566467032074 13.375637532641015 8.544409707120321 0 1 0
1895 1 25.59985232485812 12.409405744349733 7.75294856118026 -1 1 0
733 1 27.364049199447237 9.866367242060898 7.028305761256252 0 0 1
1930 1 24.534969845190204 11.636591259181046 9.436178924688129 0 0 0
1630 1 3.5527140495326743 4.627245274365384 9.729422293931039 2 0 1
1483 1 3.5550843459566015 1.9075370261963045 13.609215812129325 0 1 0
1081 1 3.140469948807663 1.6957831765384277 11.2585028073989 0 3 -1
150 1 1.615828758327075 2.3480224603499256 13.12386038928493 1 0 -1
1087 1 4.08217120534707 3.4019556125701538 12.040861663399374 1 0 0
504 1 2.042933786418441 3.7239454313314 11.317916824302685 1 -1 0
1978 1 2.1346447102920427 4.443311534580166 13.218494408023604 1 1 1
1292 1 5.946805917859569 3.1735344712661493 13.062213468048151 2 0 -2
269 1 5.040493656798655 2.3494130821084402 10.270583629259347 -1 -2 1
50 1 7.07912586595921 0.8758472752698214 13.556170671793703 1 0 0
2041 1 6.641194714999543 3.6308153680547264 11.095140902406696 1 1 1
162 1 5.527172337396482 1.0319655992793746 11.820501897894236 1 0 0
143 1 7.600202412438951 1.5883051082327106 11.291943342500122 0 1 0
1156 1 7.7773017298650915 4.760158615538441 12.424718502297386 0 0 -1
1097 1 8.29762767630798 2.9828018001113863 13.88734338503472 0 1 -1
1382 1 9.049289925913866 1.4587617744886825 12.49607437124978 -1 0 -2
2020 1 10.26873114905027 4.48742896354219 12.613394733567175 -1 0 0
238 1 10.551124056541221 2.3427742984180435 13.645969820210059 -1 -1 0
1722 1 9.125148484928443 3.347570851347466 11.190270554208562 -1 -1 -1
595 1 11.045325461349597 1.8739690445903956 11.249052535168325 1 0 0
900 1 14.692280629366383 2.9059851847609655 13.028487877987994 1 0 2
1828 1 12.25023738490982 3.499488878709539 11.682745713497232 -2 0 0
516 1 15.038146329092362 2.306482370879992 10.747964475389841 -1 0 1
830 1 12.711779383703197 2.3622857481129333 9.794028545527171 1 0 0
1250 1 15.878942593173257 4.763121914917201 12.466208741197113 0 1 -1
647 1 14.575904702454357 4.342933107135015 10.609059943946818 0 0 0
1850 1 12.722496670946336 2.2909237808464713 13.311632122785701 0 1 1
916 1 13.335831375934381 1.1302238231924682 11.670259568383619 0 0 0
355 1 17.431323952950002 1.224468285252066 10.399433470535037 -1 0 -1
824 1 18.838312545067417 2.202341963226066 12.054043800329133 -1 1 0
194 1 17.084173050688342 3.3046019570280083 11.225150047640792 0 0 0
612 1 16.913555291268153 2.1086508252818947 12.727651925316193 0 0 1
496 1 18.372354362470517 3.637794116675572 13.717776680937506 0 0 0
491 1 18.834227200143637 4.57332920151805 11.625855805549078 -1 0 0
1459 1 21.907950008993687 1.7340142884600225 12.672586112160355 -1 -1 -1
777 1 20.39017501518532 3.206075481789595 12.88966495883635 0 1 1
447 1 20.72824707940459 2.6331080024341076 10.91557451512312 0 1 0
1992 1 22.77215138206963 3.777570915851358 11.55428261240526 -1 1 0
744 1 22.710190716637726 1.930894714634887 10.723041325302951 1 1 0
642 1 22.831442647236614 4.986760255173737 10.030629851958475 -1 0 0
1749 1 21.94168378154663 3.861761629679611 13.824746771310439 -1 1 -1
526 1 26.865256132526063 4.37926391484153 9.95961856938938 -1 1 1
1794 1 27.031701307423994 2.119079993411879 11.223840985083827 -1 1 0
537 1 26.975555685895074 4.119560628045523 13.822977052360033 0 1 0
571 1 25.06073256523046 3.1009609325027303 10.441529370438555 1 -1 1
1780 1 24.48535971911994 2.0005347513096283 12.342023365930686 -1 1 0
906 1 26.530468895997984 1.9927353624791717 13.507457404472571 0 1 0
1912 1 26.104016360002895 3.997319916270173 11.947433517984063 0 1 -1
465 1 24.244696523160307 4.0198177468393395 13.523812793371295 0 2 1
1712 1 3.095300625369204 9.375486105080052 10.668926173362506 0 0 2
882 1 4.216242059260267 7.324686375721701 9.956632090056955 0 0 1
584 1 1.7646164482957156 5.743417398531803 10.468659714466726 0 -1 0
648 1 3.3580634091868857 5.877169058962724 12.100262560109684 0 0 0
1642 1 1.173982385586642 7.584751489436958 11.026052490046396 1 0 -1
174 1 2.9296330302833957 8.01473073151532 12.51560782905924 1 -1 0
801 1 4.626954046547582 6.674351144762275 14.091621129216573 0 0 1
855 1 7.1962744532095035 6.426194471741822 10.838704300492216 -1 1 1
108 1 5.577414109796523 5.567158717362329 12.590159205680544 0 0 0
823 1 6.862410225637138 7.429063796980972 13.27778467851442 1 0 1
1586 1 5.407974922752341 5.3685421302870004 10.55217748667081 0 1 1
536 1 5.650500196923829 7.476141044290661 11.681189738812606 -1 -1 1
761 1 6.359643960192227 8.880698762341122 10.179337271457124 1 -1 1
12 1 6.775068631848016 9.357804008171744 12.743047205357538 1 0 1
44 1 8.748748308112626 6.364325655481978 13.419199315601805 1 -2 -1
127 1 10.690276056639272 7.401338177094289 10.134269570331341 1 1 0
1514 1 9.56444657572863 5.836561385604051 10.999838938065645 0 0 0
1318 1 11.030695889550465 6.940188559134731 12.709902384859072 1 1 0
1484 1 11.936632919374498 5.454911653352448 10.878152450268274 0 1 -1
597 1 9.551000963989992 9.490228376354294 10.162225292848953 1 1 0
1195 1 8.650984054706921 7.9487624341223055 11.64341577941602 1 0 0
826 1 10.557021088901369 8.824325188509512 12.080325856847784 -1 0 0
1293 1 8.966230501684798 8.416608968551717 13.87363463139501 -1 0 0
1061 1 13.508178610518105 5.287707999807672 12.404749818226039 0 0 0
1831 1 13.053246373399256 7.08693435905205 13.668455709890747 0 1 2
1505 1 12.600301167412308 7.668223493434631 11.347019017951968 0 0 -1
905 1 14.853874951793502 8.197032427259249 11.997007746862236 0 0 -1
543 1 14.7119555060529 6.352481332173711 11.094861595572727 1 1 0
1583 1 13.193005340542012 9.351076028610649 13.12826881661744 1 1 -1
332 1 15.354188897969227 6.580694414669681 13.434924903334148 2 -1 0
224 1 14.136726152308414 9.319890907192034 10.055749797479617 1 0 -1
684 1 16.687069102528156 9.431224705239792 13.40621245735926 1 1 0
792 1 17.6751866506322 5.691493116998724 13.157111513672483 1 0 0
1929 1 16.13588424130079 8.05988673737722 10.103372713855634 0 0 1
1801 1 18.811648434455236 8.43414211238668 12.731349637742507 0 0 -1
1501 1 16.736792010333893 5.741166413086483 10.715891592859615 -1 0 0
903 1 19.88960465089086 9.255118489453931 10.131176126253683 -2 0 1
757 1 16.944007996507025 7.620536672769552 12.013316794715506 -1 1 0
351 1 18.286360023995464 8.03268357771788 10.105560581035007 1 1 1
1266 1 18.897832264492898 6.657475572375404 11.37373988768592 0 1 -1