LAMMPS data file via write_data, version 29 Oct 2020, timestep = 300000

2048 atoms
1 atom types

0.6469688634544077 27.705031136545742 xlo xhi
0.6469688634544077 27.705031136545742 ylo yhi
0.6469688634544077 27.705031136545742 zlo zhi

Masses

1 58.933

Atoms # atomic

635 1 2.7094411804770315 1.4107401183672903 2.297461410478075 1 1 1
1529 1 2.6140814593009623 2.4271262443843162 4.37564901746534 3 0 0
256 1 3.2921807429147556 4.031101794787022 3.5318740353461613 1 0 -3
1735 1 1.8823619426335427 4.849475976775661 1.525328350494731 1 3 1
1815 1 3.625421190595101 3.074581519237044 1.6474009237756821 -1 2 5
1288 1 1.3705089743672718 3.5830049573159 3.0350276937056586 0 0 -1
1091 1 3.5153149053341273 5.102325310739935 5.1491621980134905 1 1 -2
1411 1 3.9005989840357937 1.0622441483208216 4.652927415770552 -1 1 -3
1119 1 1.6405838518722065 2.6900163738730067 0.789583217406918 2 4 2
1872 1 4.888441262937549 2.3614108325847925 3.23656892034093 -1 1 1
836 1 5.546809173379407 3.7760301917201184 1.2427071235978604 2 0 3
2013 1 7.783468925243286 4.698581973251018 2.362358048397401 0 3 1
768 1 6.73803007382477 2.6575712118143384 2.763005000887998 0 -2 1
2006 1 5.4215895395163445 1.2858431060004656 1.162768649788672 1 3 1
1913 1 7.521384722307047 0.8107084625463096 1.5348484489980336 1 4 2
133 1 5.710624882522792 4.562579431270821 3.3408780126849136 2 -1 0
204 1 7.287964606472498 4.216192084348603 4.540530361449246 -1 1 -1
686 1 4.660668067135065 3.2762630243069064 5.061186628402019 0 0 2
1606 1 6.189759949917398 1.5742063614030575 4.910455049167031 -2 -2 -1
715 1 8.008988187909052 1.5149249824594873 4.1404521007596475 -1 1 -1
1069 1 9.957276358313397 1.361273924262099 2.638386900029124 -1 1 0
1100 1 11.200134796771621 2.9144477346243627 0.8603633577036267 0 -2 2
275 1 10.72500901143317 3.676971689954595 2.6861526417260357 3 -1 -1
520 1 12.139555552034102 0.8872828151940368 1.7076647308632498 1 1 -1
978 1 8.551742958380395 3.064616111404801 1.5744023779762868 1 1 0
9 1 9.365013488865944 3.7015876690039247 4.0144638461904485 2 -1 -1
1462 1 10.349184825707367 2.0174188160751916 4.978487545526136 1 1 1
953 1 11.888008013130495 1.9276529410968983 3.398238615149764 2 1 4
2003 1 9.632585824568071 1.2754179475581067 0.7435904623713938 -1 1 1
579 1 13.063688541449963 4.665347426163917 3.765092211869625 -2 2 -3
1558 1 13.802898770048968 2.726398141177253 4.847127103352436 0 -1 0
1958 1 15.541843407239494 2.3268807113815857 2.427556942524806 -2 0 1
1500 1 14.825740654806845 4.373399720143884 2.1125824201815657 0 3 3
585 1 15.746823589065212 1.270302966239355 4.5617572312833 -3 1 3
1539 1 13.0958763859203 2.8593087834774638 2.1842249371895166 1 1 2
1404 1 12.652458611353577 4.673112321177762 1.4156434890927656 0 3 -5
1684 1 15.835326419049135 3.638394013958252 4.052364683893316 1 -1 2
1170 1 13.872951317737408 0.9715380938359581 3.4211964152120333 0 0 -1
510 1 14.19576087842185 0.7784023106848398 1.2674923344120992 2 0 1
2036 1 17.876275196860554 2.2504645310929074 1.609496189846693 0 5 0
1613 1 18.49263172429199 2.4102857816040144 4.068416635785935 1 2 -1
693 1 17.613624465187222 3.7736888876423804 2.531410937099836 -1 0 0
1997 1 19.947336426440433 3.4468735689433783 1.8272104968635818 -1 1 1
888 1 16.784078095084492 4.915825314249734 0.9211385917263812 -1 1 -1
561 1 22.600004099311906 4.593461919460383 4.313723837123863 1 -3 -1
957 1 23.532896235058836 2.182250474626785 2.340440063520814 0 2 1
776 1 20.349136203156597 4.00678174130115 4.136116515679921 0 0 2
1980 1 22.177746524139792 4.330552082870191 2.218214240572994 -1 0 0
912 1 20.219586533812162 1.1340860368657864 1.5556714143264825 1 0 0
1982 1 22.67067550228461 2.0186538524278905 4.631944606726993 1 -1 2
66 1 21.357317311778917 2.149053652239311 3.0725684168315586 0 2 0
1756 1 25.4426301344735 0.8209928217516776 3.550586725660928 -1 1 3
2043 1 24.292725395589418 4.148784685703703 2.105536503455213 -1 1 0
1160 1 26.698538169997672 4.501132608692664 3.9807383995556345 -2 0 3
1045 1 27.12793848237922 2.1315051418037125 4.074250232714707 1 0 -1
1652 1 26.86945789461461 3.887332615391877 1.07756090792887 1 -1 -1
834 1 25.84060639074913 2.638085781430744 2.241578490103408 1 0 -1
1594 1 24.98524390385975 3.180824525587006 4.337626330357788 0 1 0
1139 1 25.12984388498456 0.9004138700042057 1.495092804480302 1 4 1
2009 1 26.84204033550822 1.479404203848894 0.6899999289056034 -2 -1 4
229 1 2.7121325598354677 7.033461307863057 1.9200129483332722 3 0 2
752 1 4.327148653736631 5.631719348012212 1.6912098909655042 1 1 2
1217 1 1.8984817549075703 5.928624121814061 3.990959639848198 0 1 -2
1090 1 2.3722777088001195 8.862648914648577 3.0810864087966134 -3 1 3
1004 1 4.500925225260877 6.380045058249817 3.6987408433551385 -2 0 0
560 1 1.2023550820518782 8.87103484378824 1.29659778497597 -1 2 -2
1755 1 4.554671150359988 8.100549826399028 1.9029030315297224 0 0 2
881 1 4.514325684839834 8.213458488195243 4.466123477253357 -3 -2 -1
553 1 6.408833212623048 6.338118201428997 1.1506585664789795 -1 -1 1
592 1 6.8034277147858875 9.01496459060734 2.1570254859732545 -1 1 3
1782 1 8.1198941033832 6.993835879260442 2.5231627180726286 0 1 3
1169 1 6.37245628220077 7.158829018359912 3.682507298961793 0 1 2
432 1 8.311136798838778 8.981914373406743 3.416021170214979 0 -1 -2
524 1 8.614846056747968 6.0025868895173415 4.533574707066502 2 1 0
1467 1 10.87125974152985 5.36897437260638 4.160919495815874 1 1 2
995 1 10.14860804058222 5.731516399064643 2.081137584939097 0 1 0
1830 1 9.7578706231819 8.425061951194422 1.9387838456163415 -2 -1 3
1934 1 10.114497894372985 7.5891323446275125 3.799076422170729 -2 1 0
1947 1 9.564635686795132 9.06984985992563 5.149345645542609 2 -1 1
851 1 11.462565538691877 9.470513061560302 1.091289955732153 0 0 0
108 1 11.706070304478422 7.607153543377588 1.4436145554496735 -3 3 -1
1994 1 12.742414973345472 6.567901785624796 3.0321757550832 2 2 -3
979 1 14.910462015249507 5.95349575371874 3.841422772062201 -1 -1 2
1116 1 14.149139062149512 6.111837579868734 1.2479912178732255 0 0 -2
541 1 15.829257879798908 8.08495230997288 3.450038128622181 3 3 1
1205 1 14.124174329076695 8.693299127653455 2.102158906129391 1 1 3
848 1 15.950040538995276 7.327618236113622 1.5783153483048227 -1 4 -2
1179 1 12.666787875523015 8.679186380899926 3.4463339356190184 2 0 1
418 1 18.49013286907325 5.210294486966343 4.628812307584532 0 -1 0
641 1 19.00695229918954 5.622107359886993 2.391676432663317 -1 -5 -2
820 1 17.030165148169903 6.089155306146659 2.849312439772328 1 1 2
1789 1 17.661129395783444 7.563682152128735 4.992650655534751 -1 2 1
1686 1 18.110014565853685 6.887930258254338 1.0259889214666584 -1 2 -1
349 1 19.131988922454006 7.979232381964587 3.147151759035626 -1 -2 2
723 1 17.778839750827853 8.788899098428638 1.9843459037540947 1 2 1
1771 1 21.23545479881282 6.397028113989886 3.618416091575559 -3 0 0
1242 1 23.52001055648287 7.806310103287342 3.4546608312789955 -1 2 -1
10 1 22.991725349244163 5.971305297831618 2.666909331070456 -1 4 0
1210 1 21.128594074249474 6.260900544266519 1.0367792798086422 -1 3 1
251 1 22.505537111408795 7.852579694093555 1.5260527659701733 0 1 2
207 1 21.283705197970438 8.718907021360955 3.727296386394492 -1 -2 1
1538 1 20.160814704306247 7.991317273281624 1.417087097050303 2 4 -2
1081 1 24.75407947985684 5.471035428045957 4.7472076922612425 6 -2 1
281 1 27.460907288658344 8.112643635938202 3.1220440258969786 -3 1 -3
831 1 27.369846587364325 6.030367026642066 2.4453057636958215 -1 -1 2
1368 1 25.39772810599372 5.544335892121094 2.349570870470145 -1 -2 0
434 1 23.940405716817892 9.399743396552331 1.3080200551844159 0 0 1
344 1 25.71508443858201 6.868167325790968 3.8625201028855893 0 0 2
224 1 26.18614908207492 8.497292917379838 4.7529734962160965 -1 -1 5
1247 1 25.620704561723347 7.857232813969951 1.7977475960823588 3 1 -2
825 1 24.182543990240752 6.586216885649788 0.7542847723054571 0 1 2
565 1 1.2646263686251775 10.940938419666027 1.9450414712151378 4 1 2
350 1 2.459971403209431 13.545485293405351 2.5008735837550073 1 0 0
2016 1 1.0870458255172881 9.736670385873031 4.403394226343367 1 1 4
126 1 3.5205829746895185 12.21994546073398 3.9724773355475227 2 1 -3
120 1 3.4808174184801794 11.61854904211009 1.9771763657064265 3 2 2
1747 1 1.503869871928572 11.650561072028585 3.7757375309820462 1 3 1
1154 1 3.1421382108964835 10.403892085673482 4.8006370797289595 -1 1 1
1147 1 2.869242767528148 9.803802315361597 0.9896812029857165 0 -2 -1
355 1 1.3724785121430956 13.902025045849907 4.405628233097426 0 -1 0
169 1 1.426901312175672 12.580179878774096 0.8698850391048758 2 0 1
246 1 7.6513387013863206 10.720403887051864 1.4688300574174304 2 0 2
1395 1 6.107672689675775 11.781178563320802 2.9626588657223847 0 1 -1
885 1 5.793169087613019 12.147347723565668 0.8091317033001274 -4 2 2
273 1 4.703332824578879 10.021393672449275 3.0865995342753685 0 -2 3
991 1 7.6874691205655274 10.916507401214242 4.16140049812671 1 -1 4
613 1 6.068116238858604 9.694436737177972 4.641474139391157 -3 -3 0
284 1 6.671377200800728 14.037675405843052 4.307056991673647 1 1 2
48 1 5.024980850641124 13.406439679516367 4.801841369085045 0 2 0
557 1 7.961000354475149 12.672382127043749 2.3737858565854824 1 0 1
1026 1 4.886885196346465 13.356128105847361 2.21854253450567 0 5 -1
634 1 7.542866091311486 13.817410733671004 0.7725732099537921 -1 0 2
85 1 5.131515907739801 9.995057709649942 0.9055443388663917 2 -2 2
217 1 9.530140784346079 10.613385159100694 2.819585186308241 -1 0 -1
262 1 11.940111975902733 10.83908029424631 3.4867022906592227 -3 1 -3
695 1 11.142008921387145 11.824327059110722 1.8342510591347467 0 3 4
1709 1 9.592998467487277 13.690097865816988 2.28296970698522 -2 -1 0
1082 1 10.628850311475954 12.57737323886464 3.7846547315823313 -1 -2 0
1110 1 8.777551456537447 13.398056908716415 4.362531777610321 0 1 1
511 1 9.30208054340814 12.527351496446897 0.860947642709089 -1 1 -2
1144 1 12.858322071302782 13.657907902532374 4.279899118569787 1 -1 1
1890 1 14.855102967969868 10.292281700301801 3.925962862739283 -1 0 2
659 1 13.239611778615084 12.522761555937334 1.340305318857326 0 0 5
1615 1 15.211932354575527 11.10565567520895 1.8987512456323319 -1 1 -2
276 1 14.61295936359291 13.463818784689286 1.9297455766360503 2 -1 2
1844 1 13.37012283533295 10.686389356130936 1.0701992535479192 -3 1 2
855 1 13.785136151180517 12.011116324096125 3.3280220560828604 -2 -2 0
1917 1 15.373997551373442 13.059326604067985 4.506763999544306 0 -2 -1
1999 1 13.388696210478006 11.222307084705504 5.110145923773835 -1 0 1
1212 1 18.23390067500904 9.80316936676152 4.465340533598837 2 -1 0
1070 1 18.572116900528297 10.829721694008402 2.7629745785895805 -1 0 1
632 1 18.49425309110737 12.621481964314645 1.1291614139454034 1 2 3
1692 1 17.37069331611117 11.001796057614978 0.8644327777879358 -4 1 -2
1748 1 16.633023526985987 10.253924279660955 3.4807918215236464 1 1 0
1569 1 16.604357048801546 12.335961257641443 2.668828681116709 -1 1 1
461 1 18.3691796907618 13.17459503115009 3.1272925015635282 1 1 1
775 1 18.428938618770392 12.622501213413953 5.115364950810853 2 -3 -4
192 1 22.581446276823918 14.129681075220363 1.7734018746887588 -2 1 -1
232 1 20.44224028625541 10.144764241324712 2.1446904607134094 -1 -2 2
1831 1 23.35482155348484 9.88968379914712 4.282044984925177 -1 1 -1
429 1 22.71651397216181 13.632540549383082 3.9879144108546605 2 2 3
1062 1 21.8432805051485 10.989565079838577 3.6654366945256034 -2 -2 0
778 1 20.693981828060846 12.83448514904605 4.754488122816437 0 0 2
1702 1 20.392538778110826 12.401120055494902 2.622909908131875 -2 2 2
500 1 22.358183879018064 12.135341190754438 1.8316209147358802 0 1 1
1420 1 20.068847815855673 10.480034947658671 4.602036358730511 0 0 2
35 1 22.31531106610545 10.013594284324979 1.7528652030887895 1 0 1
33 1 24.425221815452396 11.26663770077127 2.3100525364395286 1 -1 2
1025 1 27.288112475486475 13.759149303897411 2.429314044837742 2 0 0
898 1 24.40073188510952 12.030750474483979 4.503081176851053 -1 1 1
170 1 25.559385586577147 9.867636093912665 3.3950404316570317 -1 0 0
2028 1 26.536871695171083 11.685280682247548 2.5887984257470955 0 -2 1
1121 1 26.275018766155707 10.074970734234503 0.9865807906822637 -2 0 0
1044 1 24.77157541303755 13.321795280707232 2.680267071600579 1 -1 0
959 1 26.2160020550184 12.878803930921066 4.338783561689339 -2 -1 2
1058 1 1.2890108148531798 1.2442390860387067 5.756243926960633 -1 2 2
1156 1 1.329698433476551 4.237091078455576 5.43089259045734 3 0 0
937 1 2.3432262535116717 3.0528262901861702 9.320269323744252 2 -4 2
1318 1 1.2490676094237063 2.951619005198251 7.275800186054783 4 4 0
1764 1 3.128413088005717 3.235097143118518 6.478701324655662 3 7 3
82 1 2.0613876397489213 1.0628968265120857 7.928388486461731 0 0 -1
1950 1 2.9496036867465136 4.6925415667184245 7.761150841567733 3 2 1
174 1 4.172966555593136 2.1641059181603115 8.289140276883831 -2 -2 0
1354 1 4.37353445645227 0.6675027155915672 9.641563305324508 0 0 0
1942 1 4.522358452790625 1.5145541753045446 6.51642627673196 0 -1 1
313 1 5.032507298325338 3.854102338531286 7.570654262017417 -1 -1 -1
1575 1 6.794682104810938 3.163392052321139 6.584172856157575 -1 3 1
84 1 8.07626481979019 2.493955701586795 8.22603900289095 -2 -3 -2
83 1 6.754774775664999 4.383441305564194 8.819686719329727 0 1 0
1864 1 6.512620040753829 1.2726250791889258 7.279334833730522 1 4 1
1506 1 5.917259595750296 2.8189819335683395 9.499695536356231 -3 1 -1
762 1 6.319393552265634 0.8951980435246943 9.65899900182231 -2 0 3
1730 1 8.874333809166194 2.652141306823808 6.292755724412264 -2 1 2
347 1 9.634777032716558 4.360573371584734 5.988179464616399 2 -3 2
1191 1 11.143683155232555 2.4033407666493565 7.3442154742303325 -1 -1 -2
1541 1 9.923130680069427 2.6516681767244825 8.986654738073511 -3 0 -2
2040 1 11.867364479597196 4.236167100427039 8.868082708342557 -2 1 3
2027 1 9.2600920268795 4.853782286072193 8.109612152482423 1 4 0
1059 1 12.222046884842147 2.429345025725855 9.478333932867189 1 2 1
300 1 11.906656138685852 3.5051425643200957 5.472208332991154 -3 0 0
1265 1 14.707897901581296 4.361392260377876 5.521522939972286 0 4 -1
685 1 14.621185349081367 2.0670909756850504 6.7748516905229135 -3 -1 -2
623 1 12.987656262483304 3.5881132730325986 7.331341298117007 1 0 0
1460 1 15.21486448013228 4.041396500480493 7.292454046050212 -1 0 1
639 1 14.408468396905423 2.2383969515894466 9.022813042501136 2 -1 2
1230 1 14.131285769449246 4.844258665516022 9.156948243487957 -1 0 -1
1556 1 16.059603742757698 3.63461768081348 9.37180057310603 2 -3 -1
222 1 12.478593523912087 1.2454906728937736 6.081232230362679 1 -2 0
2017 1 16.18080480987851 0.9362042177106105 6.5692053295060795 0 1 2
1483 1 18.346232823019083 3.3925840507130682 7.859941626268065 -1 -1 0
466 1 17.13894221814261 3.0347632381320513 5.787725660553935 -1 1 2
2030 1 16.991835787027146 5.105435873356175 7.4733930814217455 2 2 -1
89 1 19.52407102588208 3.9638631627740737 6.193324718143308 2 -2 0
645 1 18.60193944102809 0.8447915106598759 5.642815383990582 -4 0 1
617 1 16.274892091024725 1.7023617686501487 8.639780176285026 1 4 0
1498 1 18.30016538350468 0.9890825111424018 7.804847386858646 3 3 -2
727 1 21.545672151548754 0.8057298513382527 8.898556020680086 0 2 -1
1599 1 20.71655595891246 2.119433421887755 5.315549750671241 1 3 1
411 1 20.412538420757745 2.1679610645210605 7.73025298087306 1 0 0
1772 1 21.837202739232744 3.5032991014860837 6.7168118509354775 -1 1 1
477 1 23.531102238317427 3.537985761310294 8.300330663769465 0 2 3
689 1 20.8676132186569 4.339670958888154 8.266201464855559 -2 4 -2
1358 1 22.436946780635992 0.9666421232028055 6.882924134707282 -1 -1 -2
609 1 26.117756273436253 0.675685651966628 5.696131061500368 0 0 0
1723 1 25.620000414242458 3.689626644030203 8.415360621826402 -2 0 3
380 1 23.91127653207235 3.8420906199313527 6.140707707451725 1 -2 -1
838 1 24.615099483842155 1.8790089052939127 6.759884533007841 1 -3 -2
167 1 26.200671724389125 2.8763952773655386 6.405790496689583 4 1 -1
425 1 26.10401464240943 5.017324760895726 6.666790042897078 -2 0 -1
936 1 27.50022742679037 4.69688256360706 8.163593989220884 -3 -1 0
1701 1 26.988607892569448 1.910954389941165 8.075035589122702 -2 1 1
683 1 24.29356655108755 1.3234120859506389 8.97015898569766 1 -1 2
1320 1 1.765293099527076 7.80858945050731 5.158496191077695 0 0 0
1744 1 4.466504808630635 6.203927473874465 7.32015755899125 -1 3 -1
502 1 2.291667813956825 6.103255583805472 6.445623409751438 1 -2 -1
244 1 2.4548922948083973 9.42931646598811 6.985013401730993 2 0 -2
8 1 3.539753087003572 7.846168495620509 6.163455507826061 2 -1 0
548 1 3.5139915076912214 8.585953575081316 8.627322175419454 0 1 3
325 1 2.179183556276894 7.06279113880838 8.611396231235387 -1 -1 -1
963 1 5.89997986904037 8.368758684518259 8.329943758846158 1 4 1
842 1 5.80799240918746 7.564003951181725 6.248261820742496 1 1 4
252 1 7.693358314334551 8.212925409426974 5.593967850430048 3 0 0
1878 1 5.5663340805126715 5.372466914867079 5.701296821460882 2 0 2
607 1 7.877847893152212 7.414259347296795 7.779817067267829 3 1 2
1775 1 7.555256205253684 5.677754458012416 6.697229528528669 -1 1 5
1023 1 6.411755288067683 6.097628196111739 8.903498486642423 1 0 2
1367 1 12.111972811074406 5.583005121539238 6.394305873929301 1 -2 -2
175 1 11.75682966369887 7.604863009933909 5.362853392256859 -4 1 -4
210 1 9.667908039941528 6.744695614835465 6.088337383253828 4 1 2
1523 1 10.952582095704173 7.034870241759227 7.603310065271088 1 2 0
282 1 10.686520907583015 9.01304057940565 7.560086464520104 -3 0 0
832 1 8.97504752006602 6.735474591145421 9.2191670291892 1 1 1
1488 1 8.68660759403667 9.565610038847906 7.631849239742167 -1 1 1
530 1 10.041794998762567 8.391787883571615 9.519772492773617 3 0 -2
414 1 13.48216308516007 6.850636496501931 5.290774066379983 -1 1 2
1981 1 15.616018091302902 7.19296198107184 5.933680816803667 -1 1 1
1818 1 14.078750520802727 8.63418670978297 5.629562654051941 2 0 -2
947 1 12.29528576626713 9.120964118391994 8.955728348287721 1 1 -1
1124 1 15.150387889245371 8.740210146279344 7.355740631744085 0 3 -3
77 1 13.0918650626361 7.644765503062862 7.329113496124749 1 1 1
161 1 15.127158797835483 6.177332938435689 7.892019418630635 0 -5 0
1461 1 14.180169861377365 8.07477685137891 9.350592969147284 -3 0 1
294 1 12.64756878211439 6.2120976698548835 8.660756543503117 -1 2 -1
852 1 16.52873857287826 5.382108435480076 5.387890289020494 4 0 2
1204 1 17.193777246160256 7.9353744673438715 7.244124327375842 0 -1 4
788 1 18.904557284923108 6.252839619516101 6.675157406997948 2 0 -1
509 1 16.136891604360144 9.360235239465059 5.5066667773929865 -4 -1 -4
1956 1 16.256141198268715 7.962908924469413 9.125507386710419 -2 3 1
195 1 19.624461681436518 5.732549485147956 8.95823888886427 0 2 0
1704 1 19.708579239313167 7.773199197305834 8.36802726544474 -1 1 -1
1401 1 18.070704961883724 6.831602510770139 9.259212664258136 0 2 -1
1667 1 18.241477311437844 9.099451091842118 8.961097147812309 -1 -1 1
761 1 18.90549390381514 9.371630361967924 6.662036411259691 -1 -1 0
1006 1 21.33750608689585 7.437614217328555 7.18178387003515 1 1 0
1899 1 20.933485391430384 5.529864820344422 5.666096767886035 -1 -1 1
440 1 20.066793231966486 7.6865622315633235 5.31398376494476 -1 -2 0
16 1 22.805926940665938 7.969344129272583 5.798521892354994 0 0 0
1843 1 21.574132652436404 9.629887614176099 6.172473717323994 2 -1 3
1960 1 22.49355655446837 5.650088294454755 8.044693013177683 -2 1 3
702 1 23.407539093638555 7.98977297278947 7.957882541084038 -2 2 1
46 1 21.456345796018308 9.25132837741719 9.459028456839937 -2 -2 2
1526 1 23.210251118864626 5.808432402095452 6.002056513622849 1 2 0
2018 1 21.94652487323582 7.1493477786817765 9.446669902318561 -2 2 1
374 1 24.67417858014918 6.003170360479651 7.933240002638317 0 -3 1
1988 1 26.811131474093468 6.761605090507435 7.772849883753345 -2 -1 0
417 1 25.08958328448592 7.491447986621954 6.321288318356413 -2 1 1
966 1 27.69845040728582 8.57191553423094 8.648451121724726 0 1 0
1914 1 27.37565767695817 6.628968748582361 5.552100234118156 -4 1 1
348 1 27.279091307432726 8.82611267324692 6.3528821282837 2 -1 0
404 1 25.6416142133349 9.184326473093169 8.269615261873398 -2 1 0
1433 1 25.024873415974874 6.69334796193531 9.61415394194693 3 1 -1
932 1 1.1746741729819952 13.95597829081476 8.919296855898322 1 1 2
280 1 3.0807320013201998 13.638255356846345 5.626574092550673 1 -3 -1
1563 1 1.2010988640228244 13.521183180564657 6.441493644162565 -3 0 1
187 1 3.853503336924573 10.922962253865542 8.744860750982463 -1 -1 -1
2033 1 3.651730293992181 11.527301920688089 6.547358996245303 0 0 -1
367 1 1.5777375499858763 11.488926104398528 5.810897882081076 1 1 0
886 1 1.6131771695586392 11.731880691682662 8.029333043798488 -2 -1 -1
1738 1 3.3387819190307018 13.035570664618842 8.397620495866942 2 2 3
1611 1 1.8079446915781352 9.99893242772531 9.286487708419134 1 -3 -2
739 1 5.620509085039424 11.686259685194237 5.419828402419025 0 1 -1
1509 1 7.200150657294812 10.328154367150317 6.198951671745641 -2 2 3
749 1 6.248805328125878 11.565572074705461 7.72604737331249 1 1 -2
501 1 7.045924876939134 13.671722077875152 7.912096622081587 3 -1 0
563 1 4.593740661906457 9.7423909987215 6.443909588949838 -5 -1 0
52 1 7.272446246332493 12.59698244171866 6.201911662718721 0 -2 -2
1974 1 4.815403356799218 13.485415614170922 7.180790568442216 -3 1 2
396 1 5.120363242028101 13.07730508927962 9.346314702868613 1 1 -2
499 1 6.997749293997371 9.912607172040666 8.985783667007658 0 2 0
894 1 11.868091594293718 12.94482042213657 6.016578149561495 1 1 2
61 1 9.778725518512616 13.184366883504339 6.6226184412130085 2 -2 1
289 1 11.514176912859087 9.904785747300197 5.489024066463398 -3 -4 1
1047 1 9.44824324555542 11.483054678149173 5.366706345132583 2 3 -1
1283 1 10.974176263224209 11.003434719195324 7.2711076741972995 0 -1 1
1442 1 8.708775661620125 11.476633237890486 8.034998231100044 -2 2 0
1993 1 11.153208963474043 13.155547853248725 8.262275682856862 1 3 1
1758 1 10.548583840502474 10.765414695670993 9.572624558156392 4 2 0
1657 1 8.930222850836913 13.472284228891652 8.929612289186664 -1 -3 -3
787 1 13.263763636967573 9.945682706564803 7.1615811075669 -1 0 0
823 1 15.021781463812129 11.195421073295508 6.897752724698144 1 1 -1
1929 1 14.577961085581554 10.44773556436727 8.879575587466372 -1 2 0
830 1 12.943433414621959 11.781686085681399 8.648108077634232 2 3 1
113 1 14.046639979843729 12.913229524749504 6.439881250455904 0 -1 -1
1493 1 14.91776957116401 12.581318052201777 8.644244474319201 2 2 -1
1343 1 12.879580712625398 14.048812183195398 8.351937487205458 2 2 -2
1399 1 19.729501506222693 13.617969619379773 9.20267285480189 -1 1 -1
449 1 16.731505071443735 10.330985423317053 7.974622160738914 0 0 0
73 1 17.021666942589427 11.347173579646052 5.903115036721687 1 -1 -2
65 1 19.3033262952913 10.692372249479003 9.175419670420224 -1 2 0
1834 1 18.527373772446225 12.14944554059895 7.569196624420735 0 -2 -2
1389 1 16.591009138695725 13.08602809981487 7.664183490529001 7 2 0
1987 1 16.998175581718748 13.706811000744617 5.823741731328128 -3 -1 2
340 1 20.98351470249471 10.753888924109809 7.373012844066068 -1 -2 4
1301 1 20.38811413720049 12.725121181629333 6.7268644344079105 -1 0 1
1891 1 21.86832895507091 12.969428707351192 8.281243739204296 -1 1 -1
1173 1 22.800234697502123 11.866340446386266 5.959869601242568 2 0 1
1732 1 22.807641034339287 10.667831554205202 8.322882271180639 -1 -1 -1
1109 1 22.310470349320507 14.018395178503361 6.223067719598281 -1 1 0
472 1 24.08122989531402 13.386174889047467 8.018517134879705 -2 -2 0
1535 1 24.308844260053405 13.815605932080716 5.527572250351227 -1 -2 2
1270 1 26.174884167879135 10.615412948254583 5.436904831917291 1 -1 3
828 1 26.166578258905567 12.769151280741607 6.489179085699492 0 0 1
1501 1 24.176424776708227 9.766797670575988 6.688676770107036 1 3 2
839 1 25.341375104897036 11.055803636729834 9.646602251017564 2 0 -2
1127 1 24.85968846000728 11.438637421594088 7.440028043481385 0 3 2
808 1 26.917793783575103 10.698306271640313 7.4496499122773345 -3 -4 3
157 1 26.592061014981734 12.534966091929666 8.617720480989322 -1 -3 -3
254 1 1.724063977495523 1.3458174092089026 10.18237023230144 2 0 0
1007 1 4.157488150579696 4.546317731576016 9.902885607395278 2 3 -1
1924 1 2.2246591056374783 5.050137009307862 10.022205272784616 2 0 -1
1959 1 2.8912736840251965 4.407130940100812 12.939381602351535 1 0 2
903 1 2.1009896966767525 2.5930680858289312 12.154658732762439 0 4 3
608 1 4.095254966554567 2.705934100293976 10.736704133432893 0 1 -3
1770 1 3.5464746168390238 0.9960389019537488 12.328454725693275 -1 -2 -2
665 1 3.553445044261203 2.30865475764014 14.061029002840009 -2 1 3
1553 1 4.7939875017125635 3.481880322952334 12.594421825320136 4 1 -3
610 1 8.006533532060295 4.690623607779456 10.397702678131632 4 -1 0
600 1 6.602087452544483 3.0231135755853265 13.358135777492894 -1 -4 -2
79 1 6.016941218445098 4.06533075649912 11.082456091278114 2 0 -1
926 1 7.650409648804352 2.563492087213986 10.516240588219537 4 1 -2
293 1 6.184854376012474 1.4256904723383268 11.860370545049523 0 0 1
1491 1 9.288780843451978 0.8658475587812724 10.522157895514049 3 -2 0
921 1 9.879742859084965 4.727783285319166 10.19305568112597 -1 0 -4
1795 1 11.376594444161858 2.362089230229663 13.364130825526134 -2 1 3
76 1 10.551734518932923 3.0826006932731076 11.054006324398687 1 -2 2
949 1 9.411475089626586 1.9825235866447057 13.020664934617775 1 -2 1
291 1 12.091983806523423 1.503266525084005 11.661581040150256 -1 1 1
277 1 8.405787973556356 3.6727500901364927 12.152357433979558 1 0 -1
1162 1 10.523774193834473 4.539752899565897 12.572344301070355 1 0 -2
215 1 12.184343243578418 4.7865135088052995 11.026440662132622 3 0 -2
392 1 15.643561453888761 0.7703764744852606 12.886292339659535 -2 -2 0
1298 1 13.543852757525062 1.1503501715428452 14.156908248162068 -2 -1 0
1290 1 13.229515569261075 3.4880462637285454 12.567086216694122 2 -1 0
1598 1 15.360490238971622 2.002283440800829 10.887870450534423 0 2 2
31 1 15.064110319882769 2.596791677034796 13.451997206543217 -3 -2 0
202 1 12.574868966461743 5.087261122086515 13.473746369568497 1 -1 -1
1626 1 13.453754139377349 3.098332590773958 10.741480394382187 -1 2 -1
345 1 15.198432883192934 4.065112766974096 11.404996188649813 3 1 3
128 1 17.191736131524248 2.682547195110232 12.78174739992752 0 2 0
1449 1 19.03285908222446 2.6693855955061587 13.710852705446165 3 3 1
1470 1 18.980825859950702 1.6414415611472997 12.094007582841062 2 2 4
975 1 19.363538792459657 4.340743738476734 12.041784721828805 -1 2 1
1234 1 17.114480012526265 4.430489044577538 12.019058669606535 3 -1 -1
1223 1 19.69872346240094 3.531744403553739 10.136926479568057 -1 0 -4
677 1 17.97247101570033 4.950679761576404 10.19583328368683 -1 0 -1
206 1 19.813707420554145 1.4132056171860028 10.149828582510569 -1 0 0
1281 1 17.744142481682953 2.628727981063966 10.31810736461466 -1 0 1
437 1 17.296201203716738 0.7180370708912365 14.161595616300934 -4 -1 0
250 1 17.42595531272151 4.435416790769954 14.088774486011564 -1 2 -1
317 1 20.154770531195936 4.283435537778574 14.138541614240237 3 -1 -1
1428 1 22.22268853950636 2.7982028330979936 9.864474485011838 -1 -1 1
1655 1 23.44022671083511 2.0965029273545444 11.494575712393122 1 1 -1
967 1 21.251062358631327 1.0233381976542257 12.475830727345915 1 2 -2
482 1 21.21686989855977 2.939268335851807 11.681154632175067 -1 0 -2
1803 1 22.907961357070672 1.400947766572687 13.361404266037832 1 7 -1
1324 1 21.749644318636665 4.9299650443006975 10.359227189262938 0 0 0
1079 1 23.111156161757545 4.362052670466891 11.770777945707069 0 0 1
1382 1 21.572675694234675 4.858140530596304 12.693872727758956 0 -1 2
1213 1 24.825039002351957 2.6975688026782576 10.311074439960258 -1 1 -1
2011 1 27.282768463495515 3.8078045301129753 10.809161629536124 -1 3 1
127 1 26.05765744927501 4.850943465655644 10.183485804907363 1 0 1
1077 1 25.11778582717 3.537287058867743 14.10739074045363 -1 -1 -1
766 1 27.352204400175168 3.988663207458774 13.456447424639759 -1 -1 1
159 1 27.45821976912161 1.8050860923926726 13.16150926902122 1 -1 0
444 1 26.747595339680238 1.2607521988907586 10.301883461295494 1 0 1
1103 1 25.780107463138823 2.6937898048802715 12.137964734800994 -2 0 -1
1027 1 25.08740572908154 4.854907082323588 12.362262243598972 -2 2 4
423 1 2.501919968014441 9.352473153527013 13.584469526037712 1 0 -2
745 1 3.526257289390218 6.463880301670345 13.898240313743045 -3 2 -1
1954 1 4.03557213942053 5.8942277327862636 11.96349287626737 1 2 -3
1835 1 2.0521630756081377 6.325767153486657 11.835933472321045 2 0 1
1469 1 2.3326415236328915 8.274042163985921 10.66349665472297 -1 -1 -2
1549 1 3.8211426879375274 8.215492922612306 12.132293507466535 1 -1 0
1955 1 1.5215823810917397 7.463506965253153 13.227528631493135 -5 -3 0
1564 1 4.2061243549810845 6.500779774096349 9.746075452141246 -1 3 -2
1583 1 5.690200859253645 7.243034066609508 13.105035319259805 0 1 -1
339 1 6.135077176257819 6.2437681768280076 10.943262795850037 1 3 -2
980 1 6.8005315782613405 5.246822641225076 13.223022111064179 2 1 2
1446 1 5.357790936486273 8.309964413263423 10.370005806095962 -1 1 -1
1808 1 7.672540068345937 8.138819277549041 10.301290784722967 -1 -1 2
116 1 8.318986570633456 6.080394328542505 12.240867228177128 0 -2 1
1300 1 6.487811235880504 8.967117427311836 12.071121356650124 1 0 -2
384 1 10.281162928062471 6.7359839643614485 13.643333644337831 0 0 -1
1580 1 11.013392447879257 6.3942465573219085 9.7306210212658 2 3 0
1922 1 8.755560688855017 8.571533429797606 12.71286599888112 -4 1 5
328 1 10.172579212681057 7.350470012498946 11.351482851657673 0 1 0
357 1 12.05370281471875 6.456108698674308 12.289491695285438 -4 -1 1
455 1 10.59762198053146 9.394105883929194 11.400049969487103 0 -2 0
492 1 11.38114011452624 8.510746226083985 13.323658217185853 -3 2 -2
648 1 13.833514271404564 6.647971392186426 13.892709783758727 -2 0 3
619 1 13.294459548003779 8.16824403015075 12.489762314255868 1 3 3
621 1 15.870657527115776 5.982565243182401 10.250711140416307 -2 -1 2
2042 1 13.960204060224804 6.058960904633176 10.881291312432964 0 0 3