LAMMPS data file via write_data, version 29 Oct 2020, timestep = 300000

2048 atoms
1 atom types

0.7951825616122115 27.556817438388485 xlo xhi
0.7951825616122115 27.556817438388485 ylo yhi
0.7951825616122115 27.556817438388485 zlo zhi

Masses

1 58.933

Atoms # atomic

35 1 2.471736276952486 4.137851977159267 2.307449672673635 0 0 0
162 1 4.121658483824138 3.7556137129720626 4.069093114333992 0 0 0
158 1 0.8974455913237852 3.937598669018737 4.314160704255869 1 0 0
4 1 0.96819710496192 2.1737556650755088 2.072768516393195 0 0 0
6 1 2.3424322555223025 2.236033339434065 3.8032450836309764 0 0 0
37 1 3.181295774251581 2.3330132338274936 1.7229141948084892 0 0 0
1128 1 4.282030997975118 1.2817004774438452 3.8017725967367726 0 1 0
8 1 5.481953257430957 3.791343925801229 2.300221975910377 0 0 0
12 1 7.336347316037131 2.4732685949029163 2.2211014538045273 0 0 0
169 1 7.421800753319927 4.325141113990865 3.9507084669113683 0 0 0
137 1 5.89086869660623 2.5241075302500855 4.215050400954762 0 0 0
134 1 5.733143260251346 1.3282079592836744 2.0623811456196695 0 0 0
135 1 7.388513978832722 0.8668301104601965 3.8246268395493517 0 0 0
9 1 9.298427342560379 4.02199090915222 2.4106430472938887 0 0 0
138 1 11.072517308127518 4.131317310186381 4.560290825103451 0 0 0
47 1 10.92257432848096 2.3233003122845877 2.5004011262898382 0 0 0
144 1 9.00961022810384 2.1586829123169595 3.990148969959735 0 0 0
1386 1 10.824933774608215 0.9006417836307179 4.021359246615078 0 1 0
16 1 9.097762804751701 0.9773183315033585 2.2776423293517247 0 0 0
174 1 11.109950379907232 3.898109055944756 1.1347789505115138 0 0 0
145 1 14.041657054086611 1.278670961923663 4.249732176239716 0 0 0
1389 1 12.739768598035708 3.768477532786886 2.7581984411364733 0 1 0
173 1 12.29727190981176 2.4303420969317973 4.469043149732103 0 0 0
20 1 14.438964403803894 2.183453285718043 2.453609295871577 0 0 0
177 1 14.445856557806986 3.925887177870824 3.9095069966525022 0 0 0
141 1 12.83339044499741 0.8272650096892223 2.7477886402474034 0 0 0
49 1 14.227986542795657 3.735012161857475 1.0431425221360984 0 0 0
14 1 12.770026576468705 2.0701919657646384 0.8016910287491719 0 0 0
51 1 16.258658167494634 3.939249069570933 2.1573380769236072 0 0 0
146 1 16.39784904213691 3.0054536366093814 4.161965188547011 0 0 0
24 1 17.81558878969162 2.52878929206629 2.6791718288491078 0 0 0
181 1 18.247204916686023 4.306975248423758 3.8391281157294035 0 0 0
313 1 19.62693781495046 3.8787923485780196 2.2895733215847747 0 0 0
923 1 19.193908772317 1.98593674043528 4.3084632452546145 0 0 1
922 1 19.481354387209084 0.8868900591710254 2.1548275587458887 0 0 1
281 1 20.754504234315046 3.741696051512093 4.157618565640087 0 0 0
28 1 23.049721070032362 3.863819702871261 2.846995616012715 0 0 0
25 1 21.09742817210915 2.302811472769086 2.4809801684732595 0 0 0
899 1 22.65202433175472 2.328684784518114 4.490465452400792 -1 0 1
54 1 21.327735362802883 3.823342372321564 0.9164697425284594 0 0 0
64 1 24.129300483481796 3.988535910016696 4.404402020753613 0 0 0
157 1 24.109770764300755 2.2914077188597006 2.630007934413074 0 0 0
161 1 25.732519494179236 3.6851726454540756 2.2556118174923494 -1 0 0
191 1 26.001010241804536 2.505073400758463 3.921297128821231 0 0 0
221 1 26.052734091079387 5.243254359263429 4.011784337594149 0 0 0
965 1 27.328650838867553 4.437164609215484 0.878274924440948 -1 0 1
325 1 2.6897553968156798 5.2848008351360205 4.214512397932031 0 0 0
66 1 2.251614283009774 7.023912200197708 2.6044252686328995 0 0 0
67 1 2.335733048029855 8.814620228537617 4.375835270938769 0 0 0
198 1 4.141574116250469 7.140242949763122 4.028487138556672 0 0 0
76 1 4.175643931533486 5.623227846101858 2.206715989986546 0 0 0
195 1 0.806221535205168 8.863622841210674 2.788418049843549 0 0 0
72 1 4.181065151432058 7.29674618479609 0.9305379574319593 0 0 0
326 1 4.248075448436619 9.09023476368771 5.028583695810762 0 0 0
201 1 4.15044130526669 8.779781151011267 2.585061243060612 0 0 0
995 1 2.3399066662104824 8.613155265910873 1.0319304886134866 0 0 1
71 1 5.8705871967026 7.368347457181433 2.491146285494919 0 0 0
38 1 7.683966783276236 5.443829370451263 2.0637187834269457 0 0 0
197 1 5.600100458958219 5.352528130012822 3.6707027403334562 0 0 0
203 1 7.6660992003873565 6.869638427371571 3.960536172070272 0 0 0
77 1 7.566111156879007 8.630869552791735 2.4391284458793434 0 0 0
963 1 6.218525069543505 8.80168874266995 0.8740724650962056 0 0 1
229 1 5.9947025158874805 9.037727564842351 3.9865469904716235 0 0 0
10 1 7.7514285874401825 7.128922878104582 0.8611333635024283 0 0 0
165 1 5.791884062948623 5.615685329699462 0.9035533045820175 0 0 0
170 1 9.254776312868398 5.488518235980417 4.372628886202073 0 0 0
75 1 11.031938708191175 5.294728711343306 2.8237247450564547 0 0 0
73 1 9.307438707048972 7.18967412787238 2.3864698776676314 0 0 0
80 1 11.125966406473209 7.453885785408595 3.9030904221346545 0 0 0
202 1 11.332968062374272 9.389262627095547 2.0417718172537196 0 0 0
45 1 10.848182070584626 7.607813484793443 1.1563156779956918 0 0 0
204 1 9.266694033392854 8.973139370875888 3.9279928257279866 0 0 0
1935 1 9.240704000800584 9.351365106388064 1.0995092962873394 0 0 1
48 1 12.789685046583234 5.654604730473423 3.9400026446050918 0 0 0
209 1 12.415988784497307 9.338976314626983 3.987790197932562 0 0 0
79 1 12.9854082973494 7.764622635619357 2.401483580563267 0 0 0
52 1 14.4771495056363 5.707693355774561 2.145745443665855 0 0 0
178 1 14.318570920732553 7.186457762431755 4.342572002038187 0 0 0
84 1 14.452546493677671 9.412391735057094 3.0287180786036725 0 0 0
112 1 12.865175783651463 9.34292350294292 0.8397079523065006 0 0 0
212 1 14.537453430672596 9.060824936204721 5.197354179253373 0 0 0
46 1 12.372140278346892 5.546268475799742 0.9769749276661238 0 0 0
924 1 14.423833604739427 7.663594583636895 1.0929214553088809 0 0 1
182 1 19.85775341215528 5.822419048223669 4.11570818279958 0 0 0
56 1 16.137821577977487 7.5036958000601786 2.8028538223068855 0 0 0
210 1 16.49997002182883 9.264550770093251 4.2163524864463175 0 0 0
180 1 16.18831773166283 5.501900364386539 3.9370118248649746 0 0 0
89 1 18.45631641760857 5.630761541522853 2.372118938433423 0 0 0
213 1 18.009619871948082 7.438507130827409 3.4960049505726056 0 0 0
214 1 19.835533792706702 7.341938481459182 2.445211457597887 0 0 0
88 1 17.460216430933833 9.688998734884136 2.36053098740324 0 0 0
117 1 19.08780610854082 9.33945164496706 0.9505598345962101 0 0 0
211 1 16.583756949674633 7.320221082929147 5.251334268660272 0 0 0
119 1 20.010062355074865 8.86144092082661 3.9337998651414057 0 0 0
59 1 22.29782899700088 5.291578663929241 4.298755351334838 0 0 0
60 1 21.12993486319533 5.449384984103086 2.369997691438467 0 0 0
92 1 22.29749220975496 7.200442538049427 2.6826955546544156 0 0 0
188 1 21.195200040050103 7.4272408012863895 4.4677834313382965 0 0 0
217 1 22.608231635256917 9.12722105754664 4.0206081018551725 0 0 0
983 1 20.999990298374712 9.023113215369333 1.9190408200079212 0 0 1
58 1 22.66471618605232 5.527722355206901 0.9082051723642177 0 0 0
982 1 21.619563747391254 7.201062398198953 0.8184577844013852 0 0 1
36 1 27.181371550665112 5.949747452523253 2.5398882233164164 -1 0 0
321 1 27.16296429087823 7.651120069092735 4.365388755416774 -1 0 0
68 1 24.143305952888383 9.030725856935524 2.217639686062851 -1 0 0
91 1 24.422151549958297 5.558229988990793 2.2739764070227513 0 0 0
185 1 24.084903435661314 6.991770748615466 3.9956481822012058 0 0 0
960 1 25.5968677719972 7.446290141933004 2.4322697809308167 0 0 1
225 1 25.578342958912188 8.953748718691966 4.042131620809087 -1 0 0
95 1 27.15392845836545 7.337618760821538 0.9164497295803145 0 0 0
226 1 2.584755022004876 12.542299313559873 3.67362754943479 0 0 0
101 1 2.454721054600177 10.502967043687498 2.7068392935764924 0 0 0
196 1 3.8979426792109093 10.910892236055489 4.17636170008122 0 0 0
1051 1 0.8937690167378437 12.603175700242318 2.3875824548059867 1 0 0
104 1 4.378500836547798 12.262829564312694 2.2150555127161313 0 0 0
353 1 0.9992167175139179 12.685746706461641 5.0954898236343436 0 0 0
1182 1 2.9833882449926024 14.031860064311521 1.8944645544380088 1 0 0
70 1 4.23593247647006 10.362654064664158 0.9439958370305028 0 0 0
97 1 0.9141157290619044 10.380609511717255 1.271894557390496 0 0 0
105 1 7.369930692787037 10.614069120602316 1.0209491901043948 0 0 0
103 1 7.595198579616325 10.771350816791013 3.781856953371039 0 0 0
108 1 7.367424104684749 12.958977802532264 1.7752154083153031 0 0 0
230 1 5.762309581852795 12.026735947885989 3.882009950633968 0 0 0
968 1 5.823834911745585 10.466365416032327 2.410128831309546 0 0 1
1159 1 5.639222822514235 14.052105663796528 5.021323802036779 0 0 0
1033 1 5.798948622469368 12.031480837556401 0.8197216788720425 0 0 0
107 1 9.333294085038839 11.264872001600338 2.294309677268367 0 0 0
1039 1 10.78020810946661 12.793546741156025 2.059679218095805 0 0 0
234 1 9.183289819748646 12.400067186794107 3.8627717659410425 0 0 0
237 1 10.828503967742906 10.816546820617056 4.0144974406539875 0 0 0
1161 1 9.032288987147263 14.038450492891624 2.2033041600130714 0 0 0
238 1 12.376561728283288 12.551016840788515 4.4883132892806525 0 0 0
111 1 12.471484871592978 11.113534485271162 2.7579966635048274 0 0 0
83 1 14.23191460014728 11.164156746247025 4.534398020204584 0 0 0
241 1 14.186777907074022 12.81037975399045 2.757477809197348 0 0 0
242 1 16.01807663971071 13.007053839366593 4.28328399634413 0 0 0
115 1 15.537320305075204 11.423319079899743 2.6108444880439823 0 0 0
113 1 14.250261654936198 10.9136799157352 1.041390209647418 0 0 0
116 1 12.512311925335148 12.335162215527202 0.941694652498942 0 0 0
1967 1 14.167815916143388 14.051602844621348 0.8695341074644887 0 0 1
121 1 19.424795228268263 12.75690808311174 4.4072808289544305 0 0 0
120 1 17.584142928825006 12.361954951967428 2.695283098551039 0 0 0
245 1 17.965344469120744 10.766721140581325 4.570116806316108 0 0 0
86 1 19.403279440708832 10.917748466896152 2.8296628526787933 0 0 0
1173 1 17.8200410180402 14.044786534280677 4.266665585061797 0 0 0
1047 1 19.555960410705126 12.48763888335684 0.9201576000326845 0 0 0
218 1 22.21657008066799 10.743077887564423 2.4942527855438357 0 0 0
124 1 20.90716248652377 12.811255187387522 2.60467332205556 0 0 0
249 1 21.127593023112425 10.785280829369057 4.254550182055567 0 0 0
250 1 22.496657691146503 12.79636803457426 3.8536326428389405 0 0 0
253 1 23.944891466241682 10.92834175126857 3.7575089088868983 0 0 0
99 1 27.408289050651327 10.876315682413354 4.011727608505655 -1 0 0
1052 1 23.956278268466164 12.196069746727478 2.242270531471882 0 0 0
127 1 26.085214459182083 10.542677244174252 2.445481167559356 0 0 0
254 1 25.985379446196706 12.365745718044959 3.6820004701781763 0 0 0
126 1 25.930438762726556 12.35830451698512 1.1944048773077565 0 0 0
1181 1 24.27653123445514 13.729409357227166 3.659846348588572 0 0 0
163 1 2.4463551725981096 3.861019065543543 5.938869196195405 0 0 0
159 1 2.199962953776909 2.464221197729708 7.619067061979475 1 0 0
136 1 4.058332783192636 3.9254771543455864 7.728391207679521 0 0 0
268 1 4.050800922910825 2.0610124096539044 8.806121667927616 0 0 0
261 1 4.200418667601358 2.376367044283117 6.045526415965541 0 0 0
290 1 2.4088855677280616 5.177659050522996 7.770908366110417 0 0 0
262 1 5.96996883800746 0.8860392471802818 5.583238960578482 0 0 0
167 1 5.6733262350891325 3.944574086497744 5.999990047741353 0 0 0
264 1 6.088143038879829 1.9267919597737946 7.645527226478873 0 0 0
425 1 7.500237029820422 3.8189417862629793 7.37193809556858 0 0 0
265 1 6.885849747115 2.3123850828783183 9.491573114194043 0 0 0
272 1 7.466158489209663 2.4956595069823733 5.342529504319369 0 0 0
295 1 5.993805385754262 4.236693641616964 8.95465195198548 0 0 0
301 1 10.724075124355846 0.8633387269164781 7.415673194488285 0 0 0
270 1 9.38583342573041 2.459211620697376 7.410655935168159 0 0 0
269 1 10.700375119527338 3.0074731035665727 8.800443780282137 0 0 0
171 1 9.264998883821093 4.10036700945954 5.779039704950947 0 0 0
304 1 11.0252160015859 4.361522554653585 7.256438937425128 0 0 0
140 1 8.970994004118987 4.109671952486383 9.110657910743436 0 0 0
302 1 11.167685349576166 2.581668037197125 6.1104134416371 0 0 0
266 1 9.310848567906902 0.8752591640035328 5.577698857167351 0 0 0
271 1 12.394628503281163 0.9923266225329446 9.033584807785271 0 0 0
1394 1 14.549006601932707 1.052980482713934 7.692153832459682 0 1 0
147 1 12.630792604202028 4.465887583358225 5.982687276122383 0 0 0
303 1 12.602005480162088 4.361008449312152 9.24456363254769 0 0 0
1390 1 12.505707244418812 2.7177433688207686 7.3609880703553445 0 1 0
175 1 14.282140932171297 4.381963150816331 7.69691102291277 0 0 0
276 1 14.254227181060417 2.812547047796483 9.01376361465765 0 0 0
143 1 14.0246760595306 2.644736835542829 5.907055589131008 0 0 0
179 1 15.934934530258888 3.9490878657459105 5.855227265164838 0 0 0
142 1 16.086544294523733 2.57061202210707 7.860583096920444 0 0 0
305 1 15.843587672347148 4.385407865122131 9.226558507348871 0 0 0
148 1 15.868688691303445 1.3639213545408932 5.775390576496202 0 0 0
411 1 19.179146969683323 0.9421503015107682 9.497220960000432 0 0 0
184 1 19.037914558826337 3.9551405455083235 6.11404847394102 0 0 0
152 1 17.789972650666822 2.409668253532489 5.7648046399119774 0 0 0
438 1 17.476484096274632 4.103103178460007 7.470947645367309 0 0 0
309 1 18.859783241885474 2.273140913014258 7.796828014623998 0 0 0
343 1 18.975088029142988 3.86976022743711 9.104109269394549 0 0 0
279 1 17.46176687398733 2.3155422229848894 9.525922087477444 0 0 0
187 1 22.45644374330216 3.8989919347573805 5.951849524785016 0 0 0
150 1 20.802379795626237 2.2599924501300297 6.037368784807486 0 0 0
1280 1 22.36628871081118 2.473810969851162 7.930354065635582 0 1 0
285 1 22.500429198365836 4.236123087150634 9.116283301572066 0 0 0
316 1 20.838490395243113 3.9354104523686884 7.600357944362423 0 0 0
284 1 20.77095120797291 2.4559407353376765 9.198132252149389 0 0 0
286 1 27.53364537935266 2.517003964484247 9.232644977460573 0 0 0
132 1 27.330931017490435 2.300609812900881 5.74090266871199 -1 0 0
289 1 27.454835044940367 3.7794864971230124 7.732059396985315 -1 0 0
160 1 24.56053502965528 2.1500919142144768 6.078816394972436 0 0 0
317 1 24.042909775161586 3.6336933619683123 7.688248554509597 0 0 0
194 1 25.79713798260156 3.893971412102482 6.130187866714589 -1 0 0
190 1 25.851924494095854 2.480734979484346 7.806122936688624 0 0 0
260 1 25.946323099796157 4.3228727804335865 9.368065761762383 -1 0 0
288 1 24.227427649126557 2.1342522124426893 9.130047396341238 0 0 0
189 1 27.43123520945357 0.8018185930470061 7.492640757036992 0 0 0
200 1 2.7714086412991503 7.227245531107947 5.899607280823804 0 0 0
168 1 4.060210042021249 5.639137869028819 6.0762279756976305 0 0 0
323 1 2.3932158995566537 7.20338785834583 8.83972179149412 0 0 0
294 1 4.243878221258548 7.295951433742512 7.37498737201783 0 0 0
328 1 2.7623966849346044 9.15280517129799 7.314946695801725 0 0 0
296 1 4.031540140222641 5.804762672344619 9.207977224257638 0 0 0
324 1 1.0136023957178895 9.20770783732198 9.201956941816322 0 0 0
351 1 0.8016977531477251 7.016240628656832 7.365182491130058 1 0 0
292 1 0.9518140765382554 5.843579841515919 9.250798501425114 0 0 0
164 1 0.877491630850275 5.518848204189611 5.858872489258253 0 0 0
355 1 4.365333130719564 9.239518111763116 8.735175627772445 0 0 0
172 1 5.980126955232034 5.607025980910101 7.276850507333496 0 0 0
300 1 7.456958047664346 5.759286054394764 8.903558524692325 0 0 0
166 1 7.217575492986624 5.505018374339308 5.681035567503615 0 0 0
199 1 7.519527202515276 7.249050446884899 7.201106127247182 0 0 0
327 1 5.789530195393899 7.262350846612199 9.125173684031123 0 0 0
329 1 7.416955110201445 8.836685042449957 8.968434293634598 0 0 0
357 1 5.6900333872928694 7.356787472677926 5.511302258515921 0 0 0
354 1 5.9546472595895 8.709907103953256 7.285505062353311 0 0 0
361 1 7.472653114588811 8.910396750026313 5.6586744480464635 0 0 0
297 1 9.23431795583029 5.715677905820775 7.5693972120639605 0 0 0
333 1 10.759781048835274 5.555564360537905 9.106525490032505 0 0 0
176 1 11.076984263127487 6.099090167318031 5.746745022682538 0 0 0
205 1 9.323729439825762 7.433070750061289 5.792850289867306 0 0 0
206 1 10.914413297008664 8.75474385996147 5.859485899360323 0 0 0
298 1 10.643559359362042 7.485536478473168 7.6151546955933735 0 0 0
336 1 10.59422343349628 9.131719814063219 9.485736284881675 0 0 0
489 1 8.938016167340935 7.486469574622363 9.05094931578018 0 0 0
235 1 9.395784225027876 9.102043506757546 7.398350289341974 0 0 0
334 1 12.250190188555695 9.554260284428032 7.638568695146519 0 0 0
208 1 12.300133387611359 7.753818051133693 8.945652293593387 0 0 0
331 1 12.638071220822722 6.250992711537305 7.47748248122049 0 0 0
207 1 12.789691290744692 7.4802482207819425 5.8755386618044305 0 0 0
308 1 14.136168509798171 6.135368194326146 8.81148033429103 0 0 0
306 1 14.368559762967783 5.707853046972414 6.074078258008283 0 0 0
337 1 14.47184590681872 7.625938967076628 7.095165748997809 0 0 0
339 1 15.749599581885779 7.521148199908045 8.938750811400862 0 0 0
340 1 14.308224662043703 8.947922323097147 9.067495663380983 0 0 0
338 1 15.954680645435625 9.497914028957386 7.250150127133837 0 0 0
216 1 18.345744120252345 9.150664791122823 5.3427822382134345 0 0 0
274 1 16.27572477710995 5.914646083920655 7.597939311449993 0 0 0
310 1 19.46707440272992 7.374136326590535 5.609001726913175 0 0 0
215 1 17.346400999880903 5.384828964623898 5.511409170713666 0 0 0
312 1 17.500290546706342 5.833872318869625 9.177869905317342 0 0 0
278 1 18.698894093349956 5.843171303087324 7.291246238105169 0 0 0
341 1 17.546706774820745 8.137295705055426 7.377166414095924 0 0 0
156 1 19.2754606963871 7.579301910820977 8.446351866616379 0 0 0
373 1 17.075412419705113 9.158182593585936 9.434777295367088 0 0 0
342 1 19.477074722163316 9.314661331087274 7.206655619028452 0 0 0
219 1 22.495696687718585 6.968385724198239 5.783202169281002 0 0 0
248 1 21.13471191884428 9.336701966587007 5.916584583226551 0 0 0
314 1 20.530437659851827 5.307692383685242 6.210802615966425 0 0 0
192 1 22.39189887430757 5.6220386191105165 7.6439106079174275 0 0 0
346 1 20.266849168162597 5.637744692863767 9.100675010379389 0 0 0
345 1 20.961272102007374 7.338725485216543 7.667055387311137 0 0 0
473 1 21.291258792927945 9.18068051117449 8.44517996607724 0 0 0
224 1 22.936018160180158 9.090605529641085 7.299306453788417 0 0 0
348 1 22.80609878133299 7.271797351673089 8.893312461438205 0 0 0
322 1 27.282054387818345 9.175396197111956 5.7359205423584205 -1 0 0
319 1 24.480166416719918 5.988014144051312 8.881294259817137 0 0 0
352 1 24.602483603425636 9.056079515649017 8.80862137632657 0 0 0
223 1 25.845264886938487 7.003646046469966 5.973602219218791 0 0 0
186 1 24.184403896817006 5.488868216128872 5.809800723333477 0 0 0
349 1 24.465050303242005 7.355375111274078 7.400278303711805 0 0 0
318 1 25.93128735339599 5.421126622344576 7.60647173933306 0 0 0
222 1 26.12939078737896 8.706750522186251 7.300472843427892 0 0 0
987 1 24.138207205518796 8.332291309725111 5.648243349964829 0 0 1
320 1 26.133612331141173 7.446941244324864 8.891661027616129 0 0 0
232 1 2.29858518142499 10.643080831132218 5.477014310015593 0 0 0
227 1 4.2729495012199905 10.49027371703169 6.840465791753733 0 0 0
360 1 4.065533620186155 12.238340286770518 8.696413128788759 0 0 0
356 1 2.338879810616869 10.972628970771954 8.84253665380848 0 0 0
231 1 3.7507870307349447 12.838834549986423 5.50777635697881 0 0 0
1156 1 0.9315463682885027 12.53059676620469 8.96241303561946 0 0 0
1315 1 2.3069057093957426 12.359376550321556 6.987491452868622 0 0 0
1283 1 4.079288745217667 13.779402593575284 7.126469652243791 0 0 0
1438 1 2.7671446027871758 14.06714941803072 8.409151353211065 1 0 0
1155 1 0.9142435389143713 14.078103854360128 7.104878433550029 0 0 0
332 1 6.012804222756474 10.52222772642696 5.646068887365137 0 0 0
236 1 7.563511985849382 12.63555323908887 5.55823942295387 0 0 0
1288 1 5.611283209208001 12.365690132193977 7.128373207091035 0 0 0
359 1 6.041409888230103 10.620104130450557 8.643751965013132 0 0 0
362 1 7.571358489566969 10.50808102684521 6.764205643779168 0 0 0
364 1 7.508745955358114 12.585697444494476 8.650310410954745 0 0 0
1285 1 6.013804852025438 13.99145254371208 8.843101507852653 0 0 0
1295 1 9.302408539849926 13.846830637583265 9.0506159296068 0 0 0
1325 1 10.884197536506571 13.869218830351175 7.469032914705484 0 0 0
233 1 9.224891567906958 10.480050617945649 5.42375857093054 0 0 0
1293 1 8.902029794713282 12.429380305880386 7.506997600999561 0 0 0
240 1 10.555080959343126 12.365340150461277 5.58990180078059 0 0 0
365 1 10.74162834235055 11.009144635279851 7.769362270017666 0 0 0
358 1 8.606969123280571 10.366218991616192 9.10488491842053 0 0 0
368 1 10.64946753501137 12.354851673419505 9.27937895054631 0 0 0
239 1 12.425019411813071 10.768540589330332 5.75548911741455 0 0 0
369 1 12.51380861474247 10.999006155669388 9.182216998745506 0 0 0
244 1 14.279861630461394 12.96253992558422 6.05882225480742 0 0 0
625 1 12.4707483815191 12.489257860735078 7.139421570036497 0 0 0
366 1 14.077643940050415 10.85109550654848 7.312853689383773 0 0 0
372 1 14.030213037558577 12.518741501644092 8.897312627727068 0 0 0
1301 1 15.926927071844073 12.330039239062595 7.360931127875918 0 0 0
371 1 15.747542036531913 10.889902090333036 9.08820240888 0 0 0
1299 1 15.969718782716274 13.920874542623173 8.898675390515933 0 0 0
1297 1 14.02481636231307 14.132183276317384 7.643282812746283 0 0 0
502 1 19.169496183367883 14.101658354244414 8.954172930625454 0 0 0
374 1 19.470698485761545 13.93184829326072 6.258910941767257 0 0 0
243 1 16.257667340241444 10.96445164890194 5.508025412149844 0 0 0
1305 1 17.791105204577164 12.720056446996043 6.437135707466685 0 0 0
370 1 17.611868958968998 10.706219828204176 7.77807895345734 0 0 0
376 1 17.91032534688364 12.43345766158905 8.943191540446222 0 0 0
252 1 19.729410419220347 12.523218308239446 8.050289212668883 0 0 0
375 1 19.53293202141873 10.342677735752408 9.02574341806268 0 0 0
247 1 19.658645065805544 11.24046340879178 6.088286835787239 0 0 0
380 1 21.46292025985183 12.299063956309993 9.067396955186574 0 0 0
220 1 21.33118790999711 11.090344038664341 7.141018128319417 0 0 0
251 1 23.14893892430472 10.708629271829091 5.689943233903999 0 0 0
1177 1 21.541785337409056 12.706383218776473 5.69460962797585 0 0 0
381 1 23.32325655587496 12.530240913932927 7.450016478913841 0 0 0
379 1 22.993448689687494 10.692149394062746 8.896382534527442 0 0 0
128 1 25.985942659162024 13.781166019339302 5.447973379778188 0 0 0
384 1 27.512768792211222 10.638239671261703 7.334868466543482 0 0 0
1307 1 24.73384481459832 12.449850311002574 9.231232034527402 0 0 0
382 1 24.268320047298342 12.347434393277272 5.514394747223571 0 0 0
255 1 25.933245256830965 10.833343843267762 5.4928061678129705 0 0 0
1281 1 25.852787523580453 12.416590082346612 7.390435143458986 -1 0 0
350 1 24.776425240742398 10.657100233220042 7.247126923597163 0 0 0
383 1 26.309615790018906 10.685333538308722 8.996932304935385 0 0 0
259 1 2.3241475259336974 4.223113027392671 9.752822690204631 0 0 0
287 1 2.54098006996734 2.0409529854525372 10.543909260900659 1 0 0
386 1 3.752600769663165 2.3183318040026357 12.479628290132952 0 0 0
392 1 3.0851712557177153 4.271065700631487 12.261562154133987 0 0 0
421 1 4.2944267852178175 4.308403357067064 10.54127701693567 0 0 0
419 1 1.0124604501431227 3.7121320052063074 13.89604060878829 0 0 0
385 1 1.3116161680490337 2.489563861494729 12.243689027385935 0 0 0
514 1 2.447550699385574 2.2656428118862646 14.078952432948777 0 0 0
553 1 7.1660227665620075 2.115170127568031 12.186114211045302 0 0 0
263 1 5.020664102786713 2.3093371700884027 10.582422630105919 0 0 0
423 1 5.702942889920432 3.8886387849427675 12.26262307076464 0 0 0
426 1 7.164395805028629 4.2534152328025705 10.869288550362446 0 0 0
394 1 7.680025339729079 1.1720526444837938 13.999847363517862 0 0 0
396 1 5.622414845788366 2.01678145872531 14.0804195016064 0 0 0
397 1 10.429717276355802 1.2466445405694415 10.56899461026977 0 0 0
526 1 12.007217598353387 2.4811024470470606 13.979172729381949 0 0 0
427 1 8.67501747581006 4.02289143554785 12.64337514170926 0 0 0
390 1 8.93162863243323 3.0951908992751065 10.894619021963589 0 0 0
430 1 10.573977123134252 2.6914367068773326 12.23880761180095 0 0 0
429 1 11.010102710362254 4.026252627737252 10.723638427465012 0 0 0
557 1 10.714136735012378 4.190796295523458 13.986206199877477 0 0 0
403 1 14.016991894501542 1.2069079118865818 10.374917006308959 0 0 0
400 1 12.528418999537164 4.33331597251507 12.206567720797523 0 0 0
398 1 12.465484861158906 2.9150632725690793 10.716909709994393 0 0 0
433 1 14.110646815667339 4.491720645277539 10.691711788565094 0 0 0
402 1 14.1973658940001 2.53028739989862 12.210997531867962 0 0 0
405 1 15.672070850876032 2.710101819851516 10.689400169373426 0 0 0
561 1 15.81822787368858 4.206861297314873 12.207607370176676 0 0 0
399 1 12.332680898597554 1.1041327965333223 12.303498519838891 0 0 0
401 1 15.624888960190958 0.9906503007801071 12.338723597732603 0 0 0
686 1 13.938728980534098 3.898631732605616 13.824046802358392 0 0 0
530 1 15.76859035559765 2.4152348043036125 14.071567301153483 0 0 0
437 1 18.899883900943664 2.436690588435423 13.765220372119554 0 0 0
1400 1 17.492827133272318 0.9270002921061398 11.164679347628297 0 1 0
406 1 17.690415791152045 4.1623418680264255 10.811061226626165 0 0 0
307 1 19.363826756229823 2.5360556273616774 11.007577748466016 0 0 0
1528 1 17.114872217437128 2.5298474052628377 12.429218150418938 0 1 0
440 1 19.59038785261019 4.404229157404511 12.201339776606916 0 0 0
408 1 17.564166124837378 3.9583530574986034 13.816858891261584 0 0 0
569 1 21.049849243509964 4.139889728913186 13.977130317359071 0 0 0
412 1 20.78186544688736 2.664418259872126 12.636283196916253 0 0 0
441 1 21.016021913490693 4.523885672322572 10.484917319702006 0 0 0
443 1 22.68287183968755 3.999062267605141 12.511048613565544 0 0 0
410 1 22.75677162434043 2.334504533326035 10.707148540989605 0 0 0
418 1 26.985770056460105 4.259006205172934 10.948842974104569 -1 0 0
445 1 24.187318817962698 4.10591134120595 10.704869468657066 0 0 0
416 1 24.469251403306302 2.6802703169574067 12.212668242000538 0 0 0
417 1 25.987681551414546 2.1327185730825273 10.597512290360065 -1 0 0
447 1 25.85173062672882 4.084110992362083 12.823397755662487 0 0 0
414 1 26.020333755834645 1.0238541353748707 12.649542571279925 0 0 0
415 1 24.02749461988252 1.1150178799943484 13.647780801634612 0 0 0
581 1 4.144406086064681 6.9890435243940825 13.95418825148506 0 0 0
291 1 2.3326473754983583 5.902849286228079 10.921795046470107 0 0 0
451 1 2.6558504085811796 7.551475686530706 12.339911957955739 0 0 0
487 1 4.07722768395138 9.31332098787571 12.317601904870402 0 0 0
453 1 4.224772956288975 7.760714798489985 10.651894701651084 0 0 0
450 1 2.7466190082603896 9.394761631403874 10.495722049400815 0 0 0
481 1 1.1237345444019826 9.086449824288866 12.311627815141003 0 0 0
449 1 0.8765869108949795 8.019964713337412 10.757827797335114 0 0 0
546 1 2.4057205131115533 5.5336139536025595 13.935499216823567 0 0 0
456 1 2.9007273097986674 8.873450569981706 14.124967396153854 0 0 0
424 1 4.642291385540052 5.727930351765813 12.162083571826543 0 0 0
422 1 6.377737969508656 6.0269496606547195 10.721107777214849 0 0 0
455 1 5.798677242365791 7.576080101959771 12.323562538513277 0 0 0
457 1 7.807440274202063 7.650126823040311 10.658080666329305 0 0 0
460 1 7.224229838952085 9.19900192937479 12.439204123737255 0 0 0
428 1 7.0576012090801274 5.532053643449508 12.670214756287105 0 0 0
454 1 5.757932193838535 9.225433838236505 10.119765994455907 0 0 0
589 1 10.406306780616825 7.271773733169042 13.822558918147651 0 0 0
299 1 8.926758278416978 5.709277307277641 10.518865805044207 0 0 0
432 1 10.522406738838987 5.659329607395525 12.31468058203697 0 0 0
330 1 10.69366868737097 7.352195986454989 10.88541296731386 0 0 0
459 1 8.659392262211089 7.660613054119965 12.539557982525896 0 0 0
463 1 10.679353884631736 8.850341418833676 12.331332550717127 0 0 0
458 1 8.86405397050611 9.674738821793447 11.124172518886652 0 0 0
714 1 12.06233492536115 8.889932057152928 14.013260126764798 0 0 0
464 1 9.195937215497606 9.25874087872398 14.113807320427181 0 0 0
558 1 12.660115447699823 5.6490298397414955 13.9193682965485 0 0 0
564 1 16.02930439349932 5.603410488183542 14.05941682649081 0 0 0
461 1 14.14605222015608 5.796090846295113 12.429756788370096 0 0 0
431 1 12.845744680083246 7.7507556499758685 12.308144623373467 0 0 0
335 1 12.408679295239295 6.06697863671764 10.691462280577113 0 0 0
462 1 12.615415209419144 9.252159047825716 10.995601898686344 0 0 0
465 1 13.792139599737837 7.562637908958519 10.564931162659072 0 0 0
499 1 14.065663982862164 9.664261076107953 12.518539338029951 0 0 0
466 1 15.482729267571969 8.997458285236494 10.974584825623872 0 0 0
467 1 15.727637835910485 7.188028958890519 12.642685589086653 0 0 0
434 1 15.617650763704797 6.143244485388718 10.770885119021392 0 0 0
472 1 15.705781731998105 9.116031477671056 13.847385214020823 0 0 0
597 1 19.450107424372774 5.7996383087183006 13.87606077326489 0 0 0
471 1 17.378729310932535 7.494632369433372 13.89985572172757 0 0 0
566 1 19.23981838356937 8.984736963598225 14.059148388651007 0 0 0
377 1 19.223523350860567 8.83922094268089 10.703262230506978 0 0 0
594 1 17.425625104392857 9.23578680397701 12.105901540206032 0 0 0
469 1 17.41012273635946 6.01114328573719 12.492878768360494 0 0 0
344 1 17.523405600430376 7.584388373864826 10.764828737688587 0 0 0
347 1 19.110675116441367 6.093544449816857 10.941053109314094 0 0 0
435 1 19.35241642966668 7.456835159566563 12.72206410485519 0 0 0
442 1 22.645839253888923 5.880572579094286 10.541519523560183 0 0 0
476 1 20.77232640847496 8.966828812036583 11.970866285362948 0 0 0
474 1 22.64010918008911 9.161514589540632 10.481820308992473 0 0 0
444 1 20.81155371393255 7.502878792411859 10.101136622720603 0 0 0
475 1 22.596701887866214 7.527625505344078 12.227589419444818 0 0 0