LAMMPS data file via write_data, version 29 Oct 2020, timestep = 300000

2048 atoms
1 atom types

0.6675635535747073 27.684436446425348 xlo xhi
0.6675635535747073 27.684436446425348 ylo yhi
0.6675635535747073 27.684436446425348 zlo zhi

Masses

1 58.933

Atoms # atomic

670 1 2.7673896096413118 1.193648066776189 1.379610474868093 0 0 0
294 1 2.348163085180733 3.654320248507614 1.811605904027834 -1 1 0
662 1 3.4325190377519768 2.345113233165451 3.043873559929734 0 1 -1
574 1 1.1178536265917667 2.566611560458756 2.801802127108741 1 0 2
1684 1 13.85103232966178 1.8947830017125018 8.901972643088836 1 1 2
264 1 4.089507062111995 4.143313896404605 4.195527204471805 -1 -1 0
1556 1 2.8545091583731197 2.7383475979406238 6.07942056220343 2 -1 0
720 1 25.482189798887575 1.0724560418010696 5.282206724261136 -1 1 0
220 1 6.196903910868254 5.694695089636856 4.609708883463634 1 -1 -1
1147 1 7.8192012752412134 1.1980024905728848 2.5148721320837057 0 0 0
1783 1 19.649850236354794 3.367028598388394 1.0459043350761932 1 2 0
1928 1 21.877373365333625 10.638434776472693 13.69834071501993 0 1 -1
1956 1 7.3890133899344965 6.856688485459742 5.861488025068876 -1 1 1
775 1 5.432271451728921 1.0133150109579951 2.653571616765931 2 -1 -2
1360 1 5.964302291449582 2.9272700860122645 4.0553231120937445 0 -1 -2
301 1 7.084388173763833 4.109678544365616 3.0985118780819993 0 0 2
1798 1 5.18052910990189 3.6433714514583873 1.8570771101239223 -1 -1 1
1512 1 21.377438763800065 1.6999994787697714 8.973076723803036 0 1 0
1860 1 8.334754230729398 2.6120157618715147 4.062698136705143 0 -1 -2
256 1 11.019494826675734 5.198514293776773 7.869672910270429 1 2 -2
1922 1 12.885197150618149 2.667354073706727 3.14035419626658 -2 2 2
553 1 11.932948722788208 5.0129689508729065 2.7636286989408747 0 -1 0
559 1 11.655427836827464 7.3062380776450055 2.0839971509495037 3 0 0
1397 1 6.017696914074943 0.8567246656503028 13.173731197253609 1 0 1
1942 1 11.91432707355558 3.7974142482680104 4.526434062439879 0 -1 2
523 1 14.869672578284812 2.5404238787442535 1.8940389177335872 1 1 2
362 1 19.40255171196725 12.651169112914953 8.34329967524923 -1 1 -1
1550 1 10.280103489966582 4.916184486259459 5.812333392129393 0 -1 1
1498 1 24.362506873043223 11.76613162807619 1.0395475467087618 1 2 -1
711 1 8.307388652155783 10.651142801828296 13.809677701191 0 0 -1
423 1 16.30045111146536 1.4764309498914079 3.116010268476037 0 -1 -1
214 1 15.105070421407518 3.1143387825171374 3.9856685116576323 1 -1 0
90 1 10.699524962612442 9.265833205403377 1.7586855409128288 2 -2 -2
2028 1 20.071380864846468 5.244600676203563 1.3881721931772402 0 -2 0
1707 1 18.320345973390246 1.478668310294218 4.132569636702613 -1 2 -2
1021 1 25.834331923976272 13.502794670927024 2.603782659622207 1 0 1
610 1 15.175117283627692 13.822732368475766 1.5084224616758835 1 0 0
1639 1 22.70744825472353 2.8283642366954167 2.187329893259005 -2 2 -1
644 1 9.018198916678065 10.404308509805468 1.2228642735337878 -1 -2 1
993 1 23.920954361199733 4.571969185899864 2.29382288072349 -1 1 1
1904 1 21.355934790281744 1.6346945042844174 6.630740632479722 0 2 0
1957 1 21.03007636850967 6.247322490107103 4.824931673393017 -2 0 1
1791 1 20.23852633017117 2.4665415645310422 5.216084908144485 -2 -1 -1
1436 1 18.137094729706455 1.6122192958729706 1.7682606589110854 0 0 0
663 1 0.9173463529817667 2.0457038207451372 4.969534635430517 1 0 3
1006 1 25.98250691352783 3.150570040054847 6.2277215025828 -1 0 -1
1248 1 14.31373676920509 11.90312462707445 0.865829600358761 2 1 0
1777 1 23.602168025194473 1.1647117289420574 0.6820327987142105 1 1 1
1311 1 22.249286383643472 2.353196630471232 4.615151574621029 1 -1 -1
193 1 23.293049976062306 5.802038808670393 5.6344773592873425 -1 1 1
656 1 24.615183754256144 3.6264445478557548 4.127957445914278 0 -1 3
175 1 26.832579696059895 3.969860848707478 4.060039798544493 -3 1 -1
1722 1 25.25776895169676 13.885210628281317 12.264431144963357 -2 0 0
547 1 13.348700589389288 13.73752011711735 5.935100293459122 1 -4 1
1940 1 25.00650240052216 2.546276345235837 2.210609660262155 -1 2 1
1967 1 3.6328397536424113 7.491370637591044 0.8425065440639521 2 1 0
360 1 2.1115411360309233 4.824466466833246 3.8477277716963 -1 0 -1
1486 1 3.4586041422144795 7.413610097078578 5.080691315461558 1 -1 1
1085 1 26.744518961963124 6.944916421143017 6.313139006559902 0 0 -1
1155 1 4.648802475671279 11.98269713627795 3.8222321465007414 -2 2 2
1633 1 2.2983496243347004 7.122717990732319 2.8181005751741246 1 0 3
1098 1 4.099673698881852 8.364817057182215 2.8357218955186143 -1 1 0
1439 1 5.830238568479886 7.908460506974492 4.072374892101955 2 0 2
632 1 6.110457467387066 10.19664284139335 3.120473450775274 -1 1 2
224 1 8.278154163628844 6.626580397933469 4.082930826015248 0 -2 2
617 1 3.5684335364778716 5.636107565377829 1.8189190855483115 1 2 -1
487 1 7.224965740623767 7.954405010783996 2.5482221597760333 -2 -1 1
2032 1 4.03201545989673 9.472971016545376 5.067546977338671 0 2 1
1883 1 4.55882139827037 6.139358806647118 3.8070214770366415 3 -2 0
871 1 6.158204766188319 5.847688282544516 2.185150366196451 -1 0 2
1660 1 17.471446505672873 4.273924803848859 0.922189375091042 1 1 1
495 1 14.006795868323627 7.488335617543481 1.9994365252773814 0 2 1
941 1 13.114353706056477 5.9628979351121725 4.1095047177956525 1 0 1
1293 1 10.219694688173455 6.160681527282445 3.627030008482491 0 1 0
996 1 8.298141222302881 5.75635016393529 2.023595772949818 0 -2 2
1315 1 1.0530575105410644 11.312729895792684 2.008039364196866 -3 0 0
1541 1 7.036882808249237 9.867944801250315 1.537710043244957 -2 0 1
478 1 9.310299309378781 7.68506772963671 2.0226895955989113 -1 1 3
1004 1 24.404117656705758 13.09226677755845 10.479011233251745 -1 1 -1
705 1 13.15058870868566 7.848744946498783 3.6357111574227003 1 1 2
946 1 14.495666418371545 4.935248843348377 2.8197665193354813 0 -1 1
1610 1 14.5955640127591 4.9189074735479466 5.339830132725653 -4 3 0
1520 1 15.5532431663779 6.589161153186025 3.6387983167114237 1 1 0
493 1 18.865974440886966 13.088432309281893 6.144735176561355 -2 0 0
1347 1 22.614764599354864 13.467704320422719 8.409824541514478 0 -1 -1
77 1 18.38656198831893 5.710168228184791 2.886678305843023 1 0 0
1765 1 19.476950171090856 4.375458257882605 4.437087125334369 1 0 1
733 1 16.06809640450966 8.37086463271595 2.286455059186679 1 2 0
1888 1 20.41306222927612 2.1584745921164727 3.2352317692391694 -2 1 0
532 1 17.638426108177185 7.990619114310134 3.5045326527255836 0 1 1
1148 1 15.882461783456728 7.173189593063646 6.953211970144569 0 0 0
951 1 18.85740639956078 9.6087829554949 4.254766513867299 -1 -1 0
44 1 20.036393132733323 8.454044320724924 1.7508475895690714 -2 2 1
1944 1 13.712470712788209 5.710525107576109 1.2571368303450912 -1 0 2
433 1 20.40709420922432 6.0992588297828165 2.952707397203106 -1 1 0
1036 1 21.73299621315897 7.605806533528525 3.5439450497029905 -1 1 -1
1119 1 22.958536752529056 9.644825822903051 4.187418716254817 2 2 0
964 1 23.119887770952054 5.743248441487335 3.6425535975934773 -1 0 2
482 1 24.930007633435928 7.839122184067412 4.012030676090344 -1 -1 -1
1568 1 2.2375729782656104 13.864384452003158 11.093206120961822 1 0 0
1035 1 23.4962687395456 8.220506045325017 2.686048005866382 -1 -1 -1
694 1 18.101491888698796 13.73374823775479 11.538837226938705 -3 0 2
1357 1 27.181496762618906 7.969231353434467 3.9495138635939897 -1 0 0
1061 1 5.161431006870811 12.275413299788735 1.5036474457320697 2 1 0
1090 1 10.196680223177918 0.6692836516817451 4.478373486456453 -1 1 0
19 1 27.47718137883028 6.121171164783344 2.9530450521981533 0 0 -1
602 1 25.416766586749596 6.0462631159589595 2.8417907946311374 -1 0 1
1688 1 26.64229776439975 8.810757768835053 1.5842018136803389 0 0 -1
1240 1 17.731531562980656 7.214630283298061 13.465574515375627 2 0 -2
1408 1 2.5160995194845652 11.407985899743164 4.047738527466888 0 1 1
497 1 21.97742548317043 6.6723710543012045 1.5361466120706468 -1 0 1
1976 1 3.239118341072784 13.894007857431667 4.207270591674358 -2 0 1
1446 1 2.305182200277375 9.347969543356186 1.9889765820260903 0 1 -2
1501 1 1.9972414314544062 10.587326001286756 5.767637632245145 2 3 2
1156 1 14.062803325810078 9.407612075141731 0.9928446305769207 1 0 0
344 1 22.749790103558745 12.539625050166636 12.740906516125765 0 -1 0
1299 1 26.777378792866443 6.312076711307141 0.8248159224545342 -1 3 0
1017 1 3.601947099624499 13.436758748450613 2.094295386863849 0 1 1
1985 1 20.730599126842016 10.963977411865441 10.191779520851496 1 0 -1
1986 1 16.131842233942617 10.548132619601954 1.3348628769064976 0 2 1
1738 1 6.649193117447659 13.748083828015412 2.424866660542609 0 1 3
427 1 6.196106425319692 10.25581534208214 5.068225470900291 1 -1 1
2043 1 5.859649376080325 12.2560163423051 5.198423949618654 1 -1 0
2010 1 7.643872660294635 11.647530531587707 3.43472930185273 0 2 -1
566 1 7.208057641127396 1.5887096693681935 8.17721159320677 1 1 0
1915 1 8.699520040181142 12.76567794824504 1.6467133560881189 0 0 2
1861 1 9.689086031908841 12.493445057040246 3.6750531393493517 -1 1 1
1326 1 10.56416004963677 10.695662088926463 3.1382788629656555 1 -1 3
834 1 8.671493893105199 9.49130895067572 3.202700693936421 0 0 1
768 1 12.873876421070635 11.53805528176924 6.117986543533632 0 0 1
1753 1 8.028498769616796 14.07547768996851 3.710353610593236 2 2 5
1523 1 10.8194659374545 12.30058409455311 1.9524020883815127 1 0 2
1935 1 12.528237517690252 10.331321042479338 1.5692418338416751 -1 -1 2
27 1 24.608979152740964 9.759673379074083 2.1800720647300826 0 -1 -1
1864 1 14.078238919995961 10.08728481229935 3.222517141297296 -1 3 1
598 1 14.500925708964752 12.080380484529352 4.54705079687437 2 0 0
990 1 17.82652773055021 9.236681926103486 1.8379430540710293 0 1 0
1672 1 26.88194361904017 9.489141081139852 12.208732378036876 0 -1 -1
1306 1 12.14551103367231 12.085220335885968 3.9350250625508423 1 -1 1
107 1 16.21741263386553 12.790112755262934 5.532972708882108 1 2 1
639 1 14.792066689645635 9.149154801539055 7.634013689571486 1 -2 2
1806 1 15.607683155079188 10.708822147624234 5.71749519182491 0 -1 0
1662 1 12.788837162693923 12.425166070629375 2.2935308514174224 -1 1 -1
233 1 9.61147291865099 4.421884003884301 3.2649835585753006 -1 0 0
1950 1 27.16261423560465 3.9303297509916204 1.4134958122613255 0 2 1
808 1 15.463831397845373 13.994097804458537 4.006681731095386 -2 -2 3
41 1 16.527933934847056 10.124753750702164 3.7407499095917203 0 -1 -2
1746 1 18.535102689281516 11.14072199948525 2.6158317121041437 1 0 1
1493 1 15.364139701661177 12.085981697032638 2.68288743408225 2 0 0
1107 1 17.47997196565364 12.617689415716288 1.5185080671337405 -2 0 1
252 1 19.691099245812097 13.010572768563323 1.1917079812108158 1 0 -1
1342 1 22.595636999576605 13.751767000010407 10.683198889831761 1 1 1
1023 1 23.6011537002311 11.239543537844847 3.2090165626762928 0 -1 1
1914 1 26.334413606961313 1.8260053773874412 3.5604358569415346 -1 1 3
1235 1 20.933593250857555 9.837061862299883 3.103758928652999 1 0 0
1696 1 8.516642877879505 1.1061983886238056 5.595564497012185 0 1 1
379 1 25.286818446121607 9.925426244909563 4.267401559127471 1 0 -1
1250 1 22.52807589454561 10.399112697866961 1.0388623896136566 1 -1 0
1711 1 9.29409275312372 1.0585994310805231 9.303861915794407 -1 -1 1
1881 1 18.606280976562786 7.096934865062938 0.980626899363924 -1 1 -1
933 1 25.766040635960167 11.836694628921686 11.72429904101778 1 1 1
1351 1 1.0304543022883044 13.149439747145946 0.8719036554434682 0 0 0
178 1 20.328642177072574 0.8008059499088319 1.3317675391842685 -2 -1 0
1577 1 6.984863316276377 1.121965435825 10.93546017113522 1 2 1
1539 1 26.045319060556707 11.423707818938688 2.5125019251661387 -1 0 2
305 1 27.44485111086344 10.063315723348671 3.59813854445144 0 0 -1
1521 1 26.96154030297123 11.603610834916697 4.986066364296802 1 1 1
1018 1 20.565904876756115 8.703983629452562 12.134939518315365 1 1 3
1447 1 2.6349184097532907 2.542020842331552 9.43396273808379 1 0 -1
1160 1 1.84559763527729 1.2981253340612384 7.810027028701921 -1 -1 2
982 1 1.3848227506920434 3.1714518224175388 7.8360057086944295 0 -2 2
719 1 7.11520307795301 4.0770073199959835 0.9974400259538889 0 -1 1
1387 1 5.700175977665183 3.5080656836557473 8.253523911141247 1 -1 -1
1294 1 4.074183320933256 1.6833688764964434 7.974387511199554 0 0 2
249 1 1.11053236752387 4.792919571250299 12.285880309439507 0 -1 0
369 1 3.193309234792163 6.23950878189714 9.936671714634903 2 -1 1
824 1 12.671881426548847 0.9596045372852609 1.602776948687576 0 -1 1
1831 1 2.440774583939866 3.444265261097756 12.795126372377327 -1 1 0
1595 1 5.349150289490267 14.099689620648878 4.461030870451243 2 1 1
1375 1 5.435227883263387 5.791168872598999 8.064255452669716 1 1 -1
1880 1 4.083706846297632 1.723723649175304 4.6963474466143955 2 1 0
1529 1 6.975985789378656 2.8690375361829727 5.855184238409204 2 0 -1
289 1 4.88068233256124 4.260126029477257 6.163662202806421 -2 -1 1
752 1 5.391485297837277 6.966822875093741 10.052607127320563 -1 1 2
394 1 7.493431870830981 4.661810879843871 8.22290931160212 1 0 0
1324 1 6.44216191616238 0.9659188958755122 4.773209798752177 0 0 1
126 1 9.964610073853466 1.46481409615003 7.378391241877124 1 1 -1
467 1 10.019977585278303 3.1959458677659125 8.809759600716001 1 0 0
904 1 10.58321503264323 7.36474156854496 8.655529660854313 1 -2 0
966 1 8.877678056572845 3.1400883553044974 7.012504976000598 1 1 1
1256 1 11.562254270333394 3.0577347120250504 6.991914252483856 0 1 -2
411 1 6.932674667652006 4.945902339944287 6.425085058613909 1 0 0
1086 1 8.926899918150559 5.286377690716602 9.201460355177966 2 1 -3
954 1 13.476334457431834 3.5679427116799216 7.658435828654884 -1 0 1
1321 1 22.292412082274616 0.9261116578166977 2.682956313063499 -2 1 1
891 1 8.272904306674073 4.680878262272008 5.112662680156779 0 0 1
1123 1 25.087638018468482 12.103530519454154 13.697523564074933 -1 0 -2
464 1 14.548129838088958 3.0390985797857835 6.15274197176052 -2 1 -1
80 1 12.562776137666637 7.033015485029124 7.7393037143620615 0 0 0
334 1 12.409867625916444 4.9668800523545755 6.220442395822226 -1 -1 1
1401 1 15.414425768243563 3.1751286093141253 8.298928005983779 0 2 1
475 1 12.307534722087217 3.669342469112433 9.45198173811422 2 2 0
626 1 16.012904899771577 1.569089873635074 9.57443986714581 2 1 -2
1120 1 16.38562023818171 2.060206786519489 5.346647204067042 0 2 -1
599 1 19.447844353070153 1.3725004454204799 7.375111635120323 0 1 0
1407 1 18.981768425121423 2.4773467721849696 9.243051394845722 1 1 0
136 1 24.04868818028195 10.49182164815521 12.79248770226499 -2 2 -1
406 1 19.42109783756385 4.298713955734949 10.260303173594778 1 -1 1
552 1 17.18185346738042 2.4710193247588004 7.42744143697983 -1 0 1
1399 1 5.67811520465837 11.41506033597868 13.91733948571274 0 1 0
1368 1 22.85735775412214 4.985315944984953 7.708130990758079 0 0 0
1551 1 18.551134052924077 3.3272971866333094 2.9822492644645604 0 1 0
131 1 15.440493085416819 1.244023758082252 7.4011901043913575 -2 1 -1
146 1 19.88435842430882 3.624357747660895 7.505279755651496 0 -3 1
1554 1 22.68400180768362 3.071878185546211 7.983710944761469 2 -3 -1
1800 1 21.641138923869867 4.246690233888131 5.889214431741373 0 2 -1
1735 1 21.17547975252937 4.762257567981562 8.75963859516978 0 2 0
1349 1 23.663226482275455 1.8611790683197202 9.795799618743814 -1 2 0
307 1 26.659200453206672 2.779642120593378 9.253517287884588 0 1 0
1542 1 17.0577536886367 13.588035033592362 7.366889750025212 -1 1 0
1966 1 11.940863076315608 3.8505414595084284 13.479300728225999 -1 0 1
594 1 1.3585237892330397 4.059627482634425 5.71083066684736 2 -2 1
1322 1 23.806455481604843 3.7242530523473127 6.0911884640768985 1 1 0
430 1 23.40477154327521 1.6293177531764003 6.421775592617939 -1 0 1
319 1 0.9576315957012991 4.548959541576158 9.443284637823751 3 2 -2
494 1 24.90049251932067 2.4258121602041647 8.022879171593711 0 -1 0
287 1 3.458815498941456 8.64391654694951 7.249588554975498 3 0 0
490 1 1.824201170903493 7.3628427201129725 6.53538800527897 -3 0 3
1404 1 3.7886751735564803 10.546429481923633 2.8900511035279304 1 1 -2
198 1 3.429664377462798 4.517724386825373 8.414288534704358 2 -1 1
98 1 0.8258133829710826 6.527134328889182 10.490258416879023 2 1 3
1470 1 3.0005188539073044 5.137775455041222 6.265666080007349 3 1 3
1506 1 27.00996782128616 7.532089738234776 8.432978942270793 -2 0 0
1850 1 3.6766610838023572 6.8064915241992745 7.6308020583937415 -1 1 1
109 1 1.6501703098808345 5.8646190005461145 7.908867187973824 0 0 0
1763 1 5.408024446712927 8.228884898995034 8.213114423123205 0 2 0
121 1 3.7658534843127183 10.092819302207271 9.480299020148275 1 0 0
1116 1 5.377419740892971 7.030162022418166 6.030311131796139 0 0 -1
1130 1 6.305696817743602 8.719214715584037 6.530505034277973 0 1 -1
1487 1 8.914302432565636 8.979041530743102 8.890567771534895 0 0 2
194 1 8.751180233375 9.028982609992164 6.692470552296034 1 0 2
1583 1 9.259850864898764 6.634635588059158 6.519204704824914 -1 0 -1
1822 1 5.502673387728304 9.473700965581017 10.450315779149976 2 1 2
1282 1 12.193500804480964 7.171504000743177 5.4284506074372 0 0 0
1088 1 7.826405933759232 7.1257258292979175 8.271994343404353 -1 1 -1
1842 1 8.013769730801005 8.688059256992732 4.763286916230708 0 0 1
664 1 10.761929487489748 8.231769191695157 6.475623064656156 0 1 0
444 1 10.593133673959153 8.420224920159244 4.105560729182301 1 -1 1
1310 1 11.228766251265304 8.381489320951054 10.744097254780492 -1 0 0
1211 1 13.68411514910899 9.3194431552158 5.141513664753825 2 1 1
1045 1 14.059423027209725 5.91825594490155 7.483670091224012 1 3 -1
1533 1 12.844005533321122 8.731979281635542 6.944405576926533 2 -1 0
336 1 17.62124659203421 6.367991104561456 7.775446422859848 1 -2 2
1859 1 15.351917898419803 8.76471039471893 4.336061686178153 -1 2 -1
726 1 11.013558619240321 9.680845613059791 8.878153128588693 1 -1 -1
1537 1 17.162353122553597 4.9583477865159 4.894608646762236 -1 -1 1
1611 1 16.12607539336988 7.5997018313314175 8.96102961525728 0 -1 -1
1473 1 16.05477583411173 4.6618626209803065 6.883072533044548 -1 0 1
1768 1 19.65758650435542 7.8270632531395785 4.469564127041171 1 0 -1
688 1 14.355911470683335 7.245790664779209 5.641670663458588 1 0 1
591 1 18.246457948048153 2.8989797366221692 5.459365211662295 0 0 1
1291 1 19.03025134818602 8.214198907534595 6.780272108299111 1 2 1
1918 1 18.43298792157986 8.206740962670928 9.256390782999826 2 0 1
1979 1 19.56268034638022 6.189392659366625 8.510824803142125 0 0 1
1847 1 17.785829465890316 6.905588930352502 5.033949990029918 0 0 3
994 1 23.03789511899248 8.054465100902874 5.185788971439369 -2 0 2
312 1 25.265455755011402 8.2464262568212 6.5385604798180434 1 0 0
888 1 18.920037864748302 5.317948562422571 6.310807675203432 -1 1 1
297 1 23.11075373015194 7.457304550651252 7.209996482016243 -2 0 -2
1047 1 21.827971644258568 5.03879612876401 11.073476892183342 1 0 0
2022 1 23.62806979761273 9.363243494068874 8.625641221303695 0 0 0
1477 1 20.090541469886112 6.375697645458236 10.71107037910493 1 0 0
741 1 21.015523985791255 6.234250314989777 6.870922928405323 -3 0 -1
1064 1 23.07268456650703 10.046860127686664 6.257653710483902 0 1 1
1596 1 25.47831179448196 5.539384088274334 5.045212348808369 1 1 -1
1170 1 26.938554396092677 4.793269296700764 6.9935371900335745 0 0 1
1104 1 24.708472363282844 7.523966198489239 8.868916151180269 -1 -1 -1
2038 1 2.356983538331905 8.968503022087472 4.218111353284231 -1 0 0
549 1 24.599558378110075 4.416066953725579 8.944274361125883 -1 0 -2
809 1 25.016644621860962 6.093281686094705 7.0992066905953575 -1 0 -1
1710 1 25.952931141983562 9.575957388063413 8.526963457053284 -1 -1 1
111 1 23.40726207631908 6.0196391088254355 10.044891793981382 -2 2 1
331 1 26.059918115360894 5.916374388668987 9.306736887782815 0 0 -1
1181 1 2.8631743927549542 11.202623567258309 8.031333108614298 1 0 1
1072 1 1.4729345859674399 6.312986732531795 4.827262445117395 2 0 1
1261 1 4.289571221564039 12.127621167796766 10.133456467274211 0 -2 -1
375 1 21.841421083061228 4.442037435786013 3.513668451691062 1 0 1
1993 1 3.85933220614062 12.328079009786615 6.016213421069347 2 2 2
84 1 1.218544694749649 12.821436547501204 7.645289592535908 0 -1 -2
1846 1 3.4646187451375448 13.097740421709025 8.15569761440829 -1 0 0
1264 1 1.7745428617562908 13.125330655055393 5.35496935857481 1 1 1
1 1 7.976198771077383 12.442330661918284 5.320601313057243 -1 -2 0
869 1 6.868787668825518 12.539889461113212 7.2784970962845135 0 0 1
2036 1 6.911035668012591 10.004743402357052 8.258529412150999 -1 4 -1
820 1 4.892661312080686 10.374034074294222 6.788714517624253 1 0 1
1346 1 5.221788300403983 13.781063256299404 7.2263706539169625 0 -2 0
1664 1 8.901575542746569 11.14833239500907 7.473939720940833 0 0 -2
568 1 9.74588029529733 10.632887006919166 5.160504550518505 0 -1 -1
412 1 4.874377207059181 9.880482488900132 1.198500654144262 0 -1 3
909 1 8.897250489678076 13.320516712071647 7.060517103183737 1 -1 0
1820 1 12.347337004216142 9.892003002349014 3.7808062104775457 1 2 0
1391 1 11.321350575817176 11.135705577733273 7.367819393954788 -1 1 -1
759 1 16.022690252681507 5.250745672981864 13.644136844973017 0 0 -1
939 1 9.3990670895177 11.547691766156664 9.786825128009012 0 1 -2
96 1 10.796049658437298 12.434133726298606 5.429003641312023 0 1 1
873 1 11.539869189458773 9.928161225152111 5.626868220063596 1 0 3
781 1 13.083059956446046 12.560080467540313 8.484393959082567 1 0 0
738 1 14.45921116950888 11.28689497933816 10.199023190150994 2 0 -1
1292 1 11.226443732981503 3.1697674318745617 1.124239744503519 -2 1 0
1890 1 14.753653230888093 12.556974440801811 7.393351663445474 -1 1 1
1405 1 16.133105934992468 7.371162639777548 11.295572003852797 1 -2 0
949 1 12.923224416848898 10.552356146511075 8.254608291373522 0 0 1
504 1 15.63343385831166 10.926015088851914 8.380563113642136 -2 -1 1
1527 1 16.202870243348166 11.689861272005144 11.367315535188803 0 -2 -2
1754 1 17.433840553630105 11.53697257033222 7.447408101579319 -1 1 -2
15 1 14.807665190100074 10.569057308727617 12.808476705455426 -3 -1 0
1852 1 27.289158501533244 13.411916693981752 12.686935515244288 -2 0 0
143 1 18.113315179201685 12.151271295897432 9.898265349771421 -1 -3 -2
647 1 17.36784191838435 12.838954451680719 3.7921122961703055 -1 -2 2
1188 1 17.075742076201294 9.083193904996 7.784691249279328 -1 0 1
348 1 20.89378492445882 8.551880404886695 6.233326351272608 2 1 1
1233 1 19.151947143812897 10.18434468748657 6.2845339377723715 0 0 1
1642 1 17.020509580296213 8.951889998854858 5.601038028465532 0 2 2
749 1 21.489097315624925 12.07389966041775 2.4484353407291275 2 1 -1
886 1 21.175913391597383 10.979149603764569 6.238655363725656 -2 0 1
1766 1 17.822620818958185 11.33962347001059 5.037881459452267 0 3 1
1266 1 21.61621866106058 9.190577954437389 8.288594647441457 0 -2 0
1060 1 20.93505146085333 11.709933142741393 12.299900227164292 1 0 0
790 1 24.910279461078858 12.626247506792975 4.347474205727759 0 -1 1
1096 1 21.798283078867257 11.51200112816896 8.366418348276614 1 -1 1
1510 1 20.21711992875489 11.488030819139166 4.4440435561719 0 -1 1
152 1 22.2580945502864 12.165428181370313 5.078392430014079 -2 -2 -2
1359 1 24.714643803297328 11.333606790163628 8.694101281657332 0 0 0
1278 1 25.071382809857774 10.528993909353355 6.263868068284056 3 0 -1
830 1 1.523365328628337 9.280639493899562 7.346418775928009 2 2 0
508 1 0.7297734261655933 12.832854198261732 3.3302289323443697 1 1 1
1755 1 25.127592715626747 10.081810893663675 10.610662854410947 -1 1 1
134 1 26.516374418952843 11.768215523307166 9.370507101400774 -1 -1 -1
1868 1 25.938327104794567 12.5315037933821 6.882058532631732 0 0 -1
1392 1 26.972098821804096 9.143441260820632 5.676253156945584 1 1 -1
1046 1 19.204516403119413 11.991144244039228 12.123266958633655 0 0 -1
1010 1 2.3534577113730215 7.9815737116676955 9.272224774007347 0 1 0
583 1 0.7976138252545183 9.915640670916677 9.614943772507813 0 1 0
11 1 20.894727151548068 13.316811389585313 6.333290979877235 -1 -1 1
120 1 21.646011510034775 13.956149119671489 3.9909492476471256 2 1 1
221 1 0.8052541546068399 11.679346606788572 11.270455132812192 -1 0 0
1097 1 2.7556039321671655 4.2422450453647516 10.96278925560306 0 0 0
460 1 16.02017479000203 13.82607479923526 11.825171249510742 0 1 0
880 1 23.814804350349533 1.4753014824420012 12.669127313585465 0 0 2
356 1 4.013483352418301 5.266057143916414 12.37689956231725 1 0 -1
1461 1 4.223858187698927 7.9531037707440175 14.162266471489215 0 0 0
74 1 7.367592174990104 2.861116101602138 9.854148250295598 -1 1 -2
1840 1 4.955778394035176 2.4307659376395048 10.317240634935496 -1 1 -1
1099 1 4.326611546466885 2.6631924113167713 12.581157951680094 -2 2 -1
425 1 5.177847569830169 4.697029543808927 10.330704693951212 -1 -1 0
1983 1 6.417734464807856 2.857915397767126 11.81454084386261 3 0 2
139 1 5.409046621174253 0.9069885564841444 6.643623221996522 -1 0 -2
798 1 10.627049354573712 2.6468550180667245 3.2534061198744544 1 -2 1
1682 1 12.89729080484585 12.762341413260485 10.649364835349974 -2 0 -1
1115 1 16.411449422142077 5.159381612218555 10.843284670504259 2 1 -1
115 1 12.999512322432981 1.1138495485313293 12.670103891910049 0 1 -1
948 1 11.059521891444419 1.6797289055336402 12.450473833505116 1 0 2
629 1 24.989285620538098 7.37480160884776 1.5167909662984171 -4 1 -1
204 1 8.743796416539965 1.9388797692617408 12.049234360850665 -1 1 -1
603 1 8.407361282420563 4.67196035738453 11.402361626217573 2 1 -1
625 1 13.165936000195735 2.5441779110527474 11.14711071797951 0 -1 0
1390 1 11.947538993371188 4.372916907284398 11.46524044302877 0 1 1
774 1 15.103221075170461 1.8584052867330005 11.968344844104536 -1 -1 0
248 1 10.104327205266097 3.1335009505417 10.743601773497767 0 2 0
1062 1 14.145879876377338 7.340131343035576 10.621612807637808 -1 0 0
1509 1 10.22896317062841 2.628470420119737 5.302621719130191 -2 0 1
731 1 14.2034568207993 1.345808848041701 5.1873570213127955 -1 1 1
2011 1 15.063327253490073 3.440381420519358 10.759872085867718 -2 2 1
1173 1 26.712488640523233 13.623368595106946 10.61306502440727 1 1 -1
582 1 20.235424824526866 10.714241170335283 1.101584170012155 0 0 0
1124 1 27.1245147471665 1.3771545830799052 7.315903110864294 -2 3 0
376 1 17.823287920657734 0.9846894178640585 10.69794388564896 -1 -1 -1
1621 1 3.0764981354232654 11.688558713532828 1.0774662971405622 0 0 3
1971 1 19.918368740534078 0.8419627083840062 11.05326783707119 -2 0 2
1796 1 15.939844680803152 3.4756260218102555 13.038869406584592 1 0 0
1604 1 15.846969725332311 6.074168554685581 0.8697120226653767 0 0 1
477 1 18.06988509504486 3.293867795120243 11.935047611526041 1 0 1
794 1 8.794635216124014 6.610013545335846 12.252262215182363 1 0 -2
1456 1 26.94665814174899 1.7219460598568777 1.0864517016420612 0 3 1
1228 1 22.196278237452 9.83694078398365 11.133403066947807 -1 -1 -1
300 1 12.450074770961855 9.832903213190242 13.7563458043209 -1 0 0
95 1 6.180814660176687 6.788526530387446 14.083455628225266 0 -1 -1
2001 1 21.070799471229222 2.7065984559248935 11.116796126866735 0 1 -1
1013 1 22.869041724210902 3.195184657387894 12.37029490041753 0 2 2
1340 1 24.848834977005687 3.5271305128218664 13.164286341023889 -1 1 0
864 1 2.3042784556998677 12.233583713171384 9.605021450232135 0 1 -1
56 1 10.906368944510502 13.222899538027761 9.2771024763975 -1 0 1
1373 1 1.0320595011764089 2.7759379980532253 11.214142335129027 3 0 -1
75 1 25.006526770987755 2.683146483120331 11.104343198068866 0 1 1
71 1 12.033212761280362 12.987541200727623 13.044870347791981 -2 -1 -2
1356 1 26.36637617544043 4.328283380504584 10.849968361501128 0 0 1
736 1 27.53260513781904 2.785823566167478 13.612654270415298 -1 1 1
73 1 20.909034788256875 13.783977015409796 12.371852706152595 0 -1 0
1136 1 25.623116875696752 6.415610945186334 11.757481239987454 1 1 0
1106 1 23.83085548890309 12.754679144086648 6.7310521667119 -2 -1 0
1815 1 2.348431920150895 7.119387470649833 12.42577157176015 0 2 2
1924 1 1.3110158530351192 10.856943156685714 12.845577118694328 1 1 -2
589 1 3.554694317787615 8.719449841619909 11.41675812144392 1 1 0
22 1 1.3319941979297298 8.54205685253589 11.187556412800994 1 0 -1
100 1 27.03925183391781 10.801663270710844 7.248227453282787 -2 -2 -2
299 1 5.641060095480192 4.7010259639508885 13.787527146571566 -1 1 2
648 1 2.4961892376984225 9.127085073518304 13.384363344481866 -2 1 1
70 1 7.307870298262269 5.861218962692073 10.04075580764087 0 1 0
2045 1 9.36149991292462 7.398877984119914 10.356825610963796 1 -1 -1
1620 1 6.521900840171042 5.854705030392773 12.25926013589333 -1 3 -3
434 1 9.053069275624171 3.423746863851322 1.4603669992351938 1 0 0
1727 1 11.494914701411565 1.702001403933511 8.685654757507788 0 2 -1
901 1 5.241670626504243 7.571360181443111 12.0526997960247 -2 0 -1
727 1 7.286848976564555 8.189446445055506 10.540161302728288 1 0 -1
1474 1 7.055808324890236 11.4969465887048 10.025314244160993 0 1 -1
1385 1 22.671361248658826 11.851657104606415 10.774406276323054 0 0 1
851 1 16.751258150818423 13.029203197925632 13.680337809307186 -1 0 0
1896 1 9.82200496846142 4.087841457011351 12.716418843184346 2 2 2
1733 1 9.252148204647755 8.621956346767284 12.915431815812166 1 2 -1
1978 1 12.18704319787316 5.819853136445734 9.461121963376577 0 2 0
783 1 10.4070875112714 5.679794059563819 10.70036562019263 0 1 1
1704 1 11.081748554890904 8.619596330993124 12.753043278333315 -1 0 -2
1229 1 10.357934543873515 10.13475196555085 11.168244460782834 -1 0 0
1695 1 12.618281446008675 6.985826947579054 11.809317754991826 0 2 0
1670 1 1.3129872221574497 0.9753836306635735 12.970179222478157 1 0 -1
145 1 15.033067685669765 9.24739584797371 10.01408645445599 -1 -1 -1
1131 1 16.27435594988585 9.526287317825659 11.794219252802957 -1 -2 -1
182 1 17.236709442496057 3.348299972954383 9.942251602113624 -1 0 -2
456 1 14.521891329359187 5.972349388120756 12.229276164799598 0 1 -1
1403 1 13.52553496284926 9.131313286889387 11.673390505625605 2 2 0
803 1 18.07378514175779 4.455933607715889 8.28109206153515 0 0 0
124 1 15.82019805613966 5.21056634666478 8.886532347847188 0 1 -1
113 1 15.675501743548448 7.919190430494414 13.102357697501594 0 0 0