LAMMPS data file via write_data, version 29 Oct 2020, timestep = 300000

2048 atoms
1 atom types

0.661910664057098 27.69008933594333 xlo xhi
0.661910664057098 27.69008933594333 ylo yhi
0.661910664057098 27.69008933594333 zlo zhi

Masses

1 58.933

Atoms # atomic

983 1 6.563214856887482 12.873857155531237 9.98656343058501 0 1 0
419 1 5.0625930552639 2.085239148724944 1.728253521813061 0 0 -1
1409 1 22.80757073649091 10.14195260126133 2.7164080647935775 -1 1 -2
840 1 26.063203085565547 1.1073481736914073 6.012017836457345 -1 0 1
580 1 3.1924278660384497 3.4878614337193947 1.979537818353427 1 1 -1
1489 1 2.1912123691224883 3.3724768128955334 4.128179495386496 0 0 0
1084 1 1.4718596382713196 4.924401180956852 2.561396354519424 -1 -1 0
652 1 5.351444180588586 5.370354442617595 4.3308724685162305 0 0 1
75 1 11.030422304531712 7.267394529984936 2.096703465167936 1 1 1
109 1 1.101857228836254 5.650961892735603 4.831159241863561 1 0 1
1861 1 4.198701256959941 2.863092835085328 3.796411781581076 0 1 1
1242 1 9.063422079258043 4.496483495700698 3.0523792276627844 0 2 0
1591 1 14.52442707265754 13.492661215048741 11.25202968033144 1 0 1
1745 1 7.042282945081686 4.674056026279729 1.4028588605077559 1 1 0
989 1 7.21707164510973 1.8350230222093982 6.388240762654984 0 0 1
1279 1 17.930376445945633 0.9486455855111771 4.1135468397549335 -1 1 1
776 1 9.189245839340959 1.7232650371149072 2.474468964942644 0 1 1
1922 1 8.108994098223278 1.8480612128885092 4.638378616531366 -2 1 2
1116 1 27.07113185588105 13.54758572656712 0.8534005101171577 -1 0 0
1196 1 19.129632381871133 1.7003821813530746 12.078279691391048 1 1 0
1132 1 5.20650362527439 10.740680548366472 2.150203682298627 1 0 -1
1330 1 9.865721227200986 3.2631817038073945 4.605763811128315 1 -1 1
718 1 22.50461105026764 13.704733675213099 11.49688837379671 -2 0 0
1741 1 7.132604701559767 2.1531457225321002 1.8593960691594669 -1 0 1
1992 1 11.049080088637238 5.641129960278689 4.799818385479201 0 1 -1
111 1 25.048050258983316 9.471215627854903 1.1979932039311163 0 1 0
736 1 10.898389894762273 5.314718534726365 2.656169067017723 0 0 1
1712 1 12.092598624174526 3.489728650672196 5.145454367410797 1 2 1
1919 1 20.31381255380431 11.595415020905076 2.1146347707349076 1 0 1
1134 1 14.836673444412533 3.778103931034556 2.240960533132786 -1 1 1
1457 1 16.602338229529348 1.491237355226319 6.255818704275758 -1 0 0
1543 1 11.764077921686933 1.8640145550150993 4.043269766752102 0 0 0
1559 1 13.945096470302419 3.1566190096285243 4.505464408011622 1 -1 1
248 1 9.553211335402537 2.1374492998052217 10.281805778284186 0 1 0
684 1 22.22320903353004 3.7218019636069823 1.9453136140050806 0 0 1
353 1 14.919773705542395 1.0922453275307562 12.726450645199057 0 0 0
1832 1 26.292294222885396 11.638184587019188 0.8783852319120709 0 0 1
763 1 12.801570790110203 4.195734989329976 2.939692631627634 -1 -1 1
812 1 17.05062196243177 4.391516551569728 3.1792517373636384 -1 0 1
836 1 19.825869808218656 4.161810639537565 3.7187456161349344 -1 1 1
242 1 20.433003811384133 2.879066018173827 2.104755428926363 1 1 0
1052 1 24.236936047382052 11.532638250507311 0.7804703318758018 0 0 -1
377 1 24.283574458269925 13.711754527201249 1.7130826723014236 -1 0 0
1739 1 12.488798948692422 14.147357739836968 5.430776575073602 0 1 0
916 1 23.61699476899686 1.5224033403076167 2.1313575947521946 0 0 1
103 1 22.06219945183787 4.212720034627446 4.118725350383972 0 0 0
1672 1 19.939588953910068 5.043479817048692 1.558067724012564 0 0 0
1379 1 26.94642448973739 2.4617287728124873 2.0338782779255054 -2 0 1
646 1 12.316864122402208 13.619852915401932 1.3409898532859126 -1 -1 1
1563 1 24.359122257549004 3.164422933078155 3.51605711594211 -1 1 1
873 1 19.954444948603026 9.582529254410451 1.2181485650902546 0 0 1
1175 1 25.582218358348257 1.4063206058491233 3.6659901056682163 -1 -1 0
266 1 24.62618814059138 2.9876795302188515 5.898011540634492 0 0 0
1050 1 1.8296173644594655 1.9008805307178502 2.1731126547383495 1 1 -1
1447 1 26.872752953542076 3.4022179500421705 4.098855278363324 0 -1 0
140 1 9.918374796258018 11.88817489949336 1.4930677488115989 1 1 0
655 1 20.433908862255187 13.74245074107365 6.526152569978281 -1 -1 0
1397 1 24.616742695495866 5.311277564451243 4.207651387847636 0 0 0
1096 1 22.230327717286634 3.2903711189536775 6.03117539692595 2 1 1
1666 1 12.64626920387785 13.391082767501242 9.965466197057424 0 -1 1
1014 1 3.232098025916047 5.495325406220582 4.233033991869979 0 0 2
1173 1 5.104047533591213 4.622066020719324 2.287521903752794 2 1 0
504 1 6.111893361325945 9.19806533201715 3.1649593806287544 0 0 0
665 1 3.5527118233597768 6.626744080959357 2.326809944214564 1 0 2
1227 1 1.7239644655766957 8.36236132682718 0.8967129378654989 1 0 0
952 1 14.506693813029424 11.708844369283524 0.8616034447807275 0 0 0
305 1 7.195268220928528 3.7071261710358 3.567028592874078 1 0 0
1137 1 6.745337245840166 6.090287242549974 2.8877547391480864 0 0 -1
1683 1 4.30746302800898 8.576866777211261 1.853324135287128 -1 0 2
1049 1 26.49381152107339 12.030396057403657 4.850654911575462 0 0 -1
970 1 4.9440292842502656 7.6138331542398925 4.065261389351648 1 1 1
1546 1 8.55147820096941 4.844425882996995 5.210601837290007 0 0 0
528 1 7.034676102975032 6.56823045353704 5.0648037509206 0 1 0
1532 1 5.3991426401892815 6.860828403083385 1.1662300879120862 1 2 1
161 1 7.574630376115933 7.99609728998038 2.5463646174103705 0 -1 1
1916 1 9.147181013317965 6.900521922583221 3.7743469404029653 1 1 2
972 1 6.998915902276156 9.270576734793549 0.6989430530148961 0 -1 1
988 1 9.349676117065965 6.184750948632449 1.2999849520029931 1 -1 0
1969 1 9.632688721545007 8.740757268532487 6.4260830911694935 -1 0 1
912 1 9.594117002918136 10.314177255805674 4.282041910118259 0 0 1
25 1 9.447890651423778 8.755099406282207 2.4006072045662474 2 1 0
966 1 7.3080559427241365 6.7293970501343505 0.8777639321217703 1 0 1
695 1 11.626363254423854 9.295787880795165 5.790173514359715 0 1 1
1135 1 12.711205141794066 5.83099748898082 1.4783007430217283 1 1 0
1538 1 12.738069138545136 7.472495248501113 5.938817237468727 1 1 0
1466 1 15.559656470884324 8.373262680650706 2.8463607248142253 1 0 1
1149 1 13.045932017332614 7.71718349861968 1.325606673271166 0 1 -1
1736 1 12.562310280405779 6.853805603524034 3.9223787864695834 0 1 2
1271 1 11.976157208468011 9.198381797346114 3.4997294926545055 1 1 0
1695 1 17.460422132762595 0.8639017387645257 11.20884608872496 0 2 0
193 1 3.91280787759027 13.998475105915787 8.706358588050124 -1 1 0
444 1 19.483697540947112 7.1122676279447505 4.089268973218131 0 0 1
1234 1 6.262232624952092 1.6250881686305831 9.35991035420415 2 1 0
1130 1 16.596936531399834 6.712658418021572 4.2002085520468375 -1 0 0
981 1 17.929520456033615 7.988264815384884 2.7123414853445125 -2 0 2
853 1 15.373464078096475 10.807711593961786 6.172604523760824 0 0 1
1442 1 14.553539494202768 6.749833320213966 4.4842694508839305 0 1 0
131 1 18.214091981393565 5.820394351753392 2.67063534210468 -2 0 0
1839 1 17.250956340005494 8.915995613617314 4.5882081939300186 0 -1 1
1157 1 18.255589194485978 5.471797079964452 4.861318806795584 -2 0 1
1030 1 2.0087375103818736 14.097490301764882 1.3667757014378092 -1 -1 0
686 1 20.20303876040832 5.356678141017204 5.406406454667533 0 -1 1
778 1 20.597921854695407 7.4689294144203355 1.9532231638327637 0 0 1
268 1 24.2586993352636 5.430878517360346 1.902260019601252 -1 1 0
1590 1 22.820452537579 5.707008802503919 5.6168032747485315 0 1 -1
1851 1 20.756920467707907 10.714770151932028 6.909701710563788 0 1 0
2036 1 21.032044383878898 5.948823280199882 3.437587604671559 -1 2 0
1516 1 17.967773674870585 13.673544585216776 9.921540017060385 -1 0 0
518 1 15.20484446765185 1.1491088261587246 4.687784100762551 -1 -2 0
524 1 25.1790105224132 6.868975581801509 2.7646196230906 -1 0 2
2026 1 25.37785385794939 6.92291272066706 6.16540324804472 -1 2 1
1669 1 26.444640198776007 6.888215496216931 4.328562188788492 -1 1 0
1664 1 26.373207847966626 8.546698721437576 2.4104648087021534 0 1 -1
954 1 0.6809800459910946 6.746347798546536 2.545963581048237 0 -1 1
1202 1 26.291833077666546 4.816733019512701 2.4344056983390505 0 0 1
1248 1 14.642940183367472 13.921438323690571 1.821782393193294 2 2 0
958 1 4.643223919742946 13.876171024179792 1.8844708433071087 0 0 0
1659 1 3.82486728356667 9.514365024703537 4.213816912928618 0 0 1
539 1 1.9031794880399517 10.871329413914943 4.176048828640306 2 -1 1
676 1 3.768045849936056 12.011165094905122 3.1264024015836087 1 1 1
585 1 3.661391431856489 12.264916014055807 5.394407395698513 -1 1 1
398 1 10.432495903097482 1.32619304666514 5.885293154750044 0 0 0
962 1 26.79074166347995 10.917404447937571 3.0868706943711217 -4 -2 1
28 1 9.48229957760585 6.37544923189523 13.70889218592892 0 0 0
189 1 6.066959930757918 8.805501436229223 5.299195175327648 0 1 -1
1596 1 5.313938774084205 11.05751554077314 4.6138914218715446 1 1 -1
1950 1 0.8805595355351437 1.006939141947965 13.851961506461285 1 1 1
44 1 8.200339466560482 10.383073667221721 2.242059045807236 -1 1 0
730 1 23.802989486158893 1.009901029620454 4.733504900360795 1 1 0
1012 1 6.388877276509253 12.456226272588973 2.8074415512262187 1 0 0
780 1 11.31812614568928 11.939026901626319 3.825634067905485 0 -2 2
1781 1 1.1904757277617364 11.843789953262167 2.1338143031064067 1 2 1
1718 1 11.18840267737756 11.846616060416514 5.9020315780996055 0 0 0
935 1 8.025539630119798 8.634705275297597 4.544472382620844 -1 0 1
1866 1 12.941653337312857 13.94448269196761 13.887081142893033 -1 1 0
905 1 9.185905193806596 12.50036619258034 3.3624807768132166 1 0 0
309 1 11.05756973517405 10.059865208063703 2.301916496560384 0 -2 -1
194 1 23.37860451341235 6.644899913953963 12.235402939359394 0 0 0
821 1 24.38775551102266 12.945602881749407 4.090662913926545 -1 1 0
535 1 3.4731020795696006 0.7077684246715272 2.9414250471752417 1 0 -1
723 1 13.641259737244436 9.774338662568024 2.444830712585598 1 1 1
1972 1 13.50401489932596 10.672558228204178 4.4825621568825795 -1 0 2
1414 1 15.538953832709977 12.301974357313423 4.330240462276789 -1 1 1
1073 1 15.654626777555679 10.165325042943092 3.768120370291214 0 0 0
98 1 14.178877917713896 8.783200110611865 4.93836206279911 0 1 2
1873 1 23.113343588430872 11.175655232966044 12.050221074576259 0 0 -1
1063 1 18.208141904858344 10.55045063746302 2.378665003356713 -1 0 0
1948 1 18.055479354562507 12.74005374191864 3.848329501123557 0 0 0
45 1 16.31635809548839 10.263185261450529 1.5254367714760382 0 0 1
692 1 19.503643529944235 9.36686337366135 3.4064787190373296 -1 1 -1
1474 1 20.617743481682915 11.085383778926879 4.237471433031638 0 1 -1
1882 1 13.696175149125487 12.424528979630706 3.233709772407833 -1 0 0
1006 1 18.06426819794919 13.251501780571015 1.5557234836344325 0 0 0
35 1 18.074682207075007 10.890485402941785 4.492310948622203 -1 -1 1
1418 1 19.834859662651283 13.889179278149117 2.155563600681008 1 0 0
605 1 16.115462714903664 12.204801859974909 2.4707194801892074 0 -1 0
1845 1 12.29270988352874 13.559541530012504 7.394438212983219 1 1 0
519 1 22.913169861330964 6.983588171442222 3.280771894977241 -2 0 1
1911 1 22.457921813165406 12.291281737375169 2.249095811642596 0 1 3
2023 1 21.679805618468997 8.84372187368017 3.8654753386939635 -2 1 1
787 1 21.02822816783174 7.443615288206739 5.277896302556161 1 1 0
866 1 10.837727733910787 3.19762834718886 2.4085975924947105 0 1 0
612 1 24.66302898852804 13.04672420660644 11.184952712276463 -1 0 -1
1367 1 22.401393025417356 9.847503443684646 5.569317669051497 0 -1 -1
1951 1 26.939151141742997 8.879862208163075 9.402637967388022 1 1 1
32 1 25.957865178198794 12.971583738996747 2.5906492577851488 0 0 -1
1776 1 27.384657539625152 1.2011989652226314 10.768940535471854 0 2 1
1203 1 22.891689739867182 11.171580076896744 4.260825965804423 0 1 2
1694 1 25.03663707293402 10.410801308394513 4.965731861851034 -1 0 0
206 1 2.982330040531448 10.307629082541965 2.3662107309831253 0 0 1
1210 1 24.861959754639585 10.981847007756835 2.877186603433824 0 0 0
1068 1 3.0204280586016408 1.3002380989533733 5.454922817605116 0 1 -1
1976 1 1.779888509533476 12.868361194243205 4.257093146351911 0 0 1
571 1 8.388599047693898 13.52232123754277 11.994522986217223 2 -1 0
1298 1 1.128596361316479 3.558735789381611 8.092237451086444 0 1 0
48 1 3.8539799823729544 3.7452557658249206 5.410846011098775 0 1 0
925 1 2.629673752474078 12.575613669726161 13.803995543628915 1 0 0
245 1 2.598975495774214 4.939504484071231 6.474563041085749 -1 0 1
441 1 3.4336499445002095 1.137836682714128 11.086852938911509 0 -1 0
431 1 3.447276088193355 2.9447741924606823 9.389692683206377 1 0 0
182 1 11.767311457805349 1.7124856423952812 7.7881791004621945 0 0 -1
500 1 0.7849427772879205 3.726786330713471 5.880616803845996 0 0 2
533 1 8.824582431125162 3.257092839567884 6.608149288500793 1 -1 1
1260 1 4.968381575174027 2.8931752939314284 7.5307158609009015 0 0 0
833 1 6.225052696966096 3.2878591635454453 5.327608183980382 0 0 1
1903 1 3.2089095913751633 11.953933770275386 0.9871101799975506 2 0 -1
1946 1 6.008376233974701 4.111039831277271 9.34893672534917 1 0 1
640 1 4.699849230795079 3.805764469600871 10.884776533456808 1 0 -1
1710 1 7.285247693955017 3.2050084795535274 7.938307364524045 0 0 1
1645 1 11.414244006354071 5.351742085228175 8.893697695764208 0 2 0
1996 1 9.644459873626873 6.825131859419802 6.270900154214707 -1 2 0
830 1 11.847869580539157 2.012523746899933 9.923523418715526 0 2 1
424 1 12.58416207349507 1.3566649946189506 6.174936927211368 1 0 1
1473 1 11.884256132384476 5.8457347338514225 7.156091092630185 -1 0 1
1119 1 10.229202008150097 3.375306351211693 8.604078864392797 1 1 1
321 1 17.622423650994875 10.372692720138161 13.163443368495237 0 0 0
1435 1 10.952694718089287 3.831402763852117 6.7519748677005715 1 1 0
296 1 15.340619973202077 3.5487297179451827 9.310100865891481 -2 0 -1
1802 1 13.730840757867655 2.437121751711294 10.21277207788057 -1 1 1
1533 1 13.984874857817847 2.7803681419157598 6.89590636245956 1 -1 1
842 1 13.970269308963514 4.896398539775103 7.468528120517521 0 -1 1
297 1 13.30734066783195 5.19170982716061 5.316817653016578 -2 -1 -1
132 1 12.462598826539095 3.6100470972400767 8.4979608547224 -1 -1 1
51 1 23.57058088762956 8.094620374044363 1.482357501360121 0 1 -1
1577 1 20.30794000892635 12.630946938330409 10.80375247955415 0 1 1
142 1 1.2540726197147347 1.420765791922411 6.919984009283819 1 -1 0
1115 1 17.06547118881327 4.69293505560059 8.580612703758696 1 1 0
1506 1 15.348043309984286 4.92968420580699 4.097752134312132 -2 0 0
265 1 16.04551098740362 3.5148114863707445 7.031672546505387 0 0 -1
487 1 22.327470184702555 5.731521981360693 1.4591330954097277 -1 0 0
1761 1 16.110673691661567 3.223857158527518 4.484060478409814 -1 -1 0
953 1 20.016261421604028 2.462768050247715 9.80355151412696 0 1 2
380 1 18.40741450897481 3.5203120888322568 1.8569514369706785 0 0 0
973 1 22.20822683125769 3.953794204231588 8.112814398649283 0 1 1
1266 1 22.270453551207183 11.503334073386846 9.791069740575207 0 -1 -1
1254 1 20.04663902710614 4.643056964592583 8.2773507620177 0 1 0
474 1 20.251898187986654 3.610765424036772 6.2927090751730015 0 -1 -1
421 1 20.554390843746596 1.923302341315061 4.190656629132588 -1 0 1
1605 1 21.97868415511263 1.6353647730408494 9.135234839082592 0 0 -1
428 1 21.67181402031497 6.045178413185218 7.186161974824449 -1 0 1
126 1 18.500401989733945 2.837067979995736 4.636603717387348 1 0 -1
447 1 21.589783151798898 6.120249615558394 13.64830028330125 1 0 1
1711 1 19.10001976843789 5.451804552839112 9.77119280310897 0 -1 1
1758 1 2.624394139471643 2.817459003365088 6.670054867473387 2 0 1
1536 1 18.352555497868316 13.944779500813125 5.328432051165012 -1 0 1
496 1 20.47603952609498 2.2436983930628833 7.640298384943097 -3 -1 0
1150 1 24.13912558290272 1.9471065926929765 7.7771102090958975 -1 1 0
453 1 5.174695010677058 13.669728294991717 4.419166426062507 1 -1 -1
556 1 25.89484279320847 4.873804609052764 6.1107644454281 -1 0 1
707 1 3.7233794622394845 8.624182109252114 6.003638476081741 0 0 0
559 1 2.5066232342602897 7.2185484731312455 4.886126575347255 2 0 0
603 1 4.661838814280413 4.717208341148359 7.353321612676979 2 0 0
1184 1 2.731381185439936 7.154531922917629 7.341350307345083 1 0 2
108 1 0.8929151135353297 5.427153869714424 9.74790333186295 0 0 0
1424 1 2.91950863182978 4.899023921630121 11.26517935665185 1 1 0
648 1 1.1895963175703117 7.264337851316399 8.567597965386536 -1 0 1
881 1 3.1446232299548176 5.409938950350643 9.190504497066582 -1 1 0
1124 1 4.519832252979908 6.638217890855821 5.978487451253476 0 2 -1
1287 1 6.891307661012697 5.103362994548728 6.4141628719408175 -1 -2 1
1381 1 3.638832287195641 7.561296351283925 9.535211319611346 1 0 1
490 1 5.354760101461724 6.13593163368493 8.823930510248209 -2 0 1
438 1 3.223038949202082 10.590700721127769 6.185852293310988 1 0 1
370 1 7.209854851018604 7.547877875559006 9.901900182045129 0 0 0
1104 1 5.771991344478523 7.667503298841178 7.345002846582084 0 0 0
1057 1 6.833508822866222 3.39022490815719 11.61557539879177 -2 1 0
53 1 9.038136426347624 6.191359526796867 9.448660368889072 0 1 0
911 1 7.519461317823327 6.067578881511736 7.804561648052824 1 -1 1
797 1 11.014773877911706 7.706995795815442 4.563080751492573 0 0 0
1263 1 9.411582286210251 5.044464394835854 7.605581180386473 1 1 -1
284 1 9.091441227113103 8.435066974741972 8.656127828622408 1 0 1
1385 1 7.68398152044185 8.117730975733622 6.554256869853666 0 1 1
660 1 11.346658313725833 8.869323788981774 7.759838864891567 0 1 -1
918 1 9.417271514242625 10.301149096238712 9.58077936259776 2 0 1
1936 1 11.998722894033532 8.328739365940386 12.018351482408434 0 -1 1
976 1 8.695796756247951 5.6478457435638365 11.710542162593551 2 0 0
352 1 6.843345386573318 5.321103601147426 10.579377754862511 1 0 -1
1246 1 14.525108856940257 4.909017183201929 10.925905926138347 1 1 -1
1101 1 11.291599870239581 7.794768657806885 9.742372399517876 1 0 -1
1867 1 16.258196316748993 8.144576890958863 6.352770551462699 2 1 1
1808 1 14.729907773161353 6.687292150200111 6.699898396504166 -1 1 1
739 1 13.565094741397624 7.502072634791021 8.276616759964707 0 0 1
959 1 13.606885341851637 7.14604918099726 13.005471415097702 0 -1 0
1182 1 14.98488883548014 5.925442598104226 8.99331953969317 0 0 -2
1053 1 15.464257894652418 8.04684768514769 8.507435068550642 1 -1 -1
951 1 17.789454920490286 3.763594502320768 6.2212059898172685 1 0 1
139 1 16.453717066454153 5.49886227879071 6.179450021355856 -1 1 -1
777 1 17.21060716918803 7.012988081299298 7.871557344369629 0 -1 0
409 1 19.28371434905109 6.3843226611037815 7.209685506411796 -1 0 1
1417 1 17.81335845335618 7.468585965146594 9.66270277964863 0 0 -1
1105 1 15.314732282053097 6.840684296536784 11.83115065587893 -1 1 0
513 1 18.301987633519808 7.621883749432652 5.645570896506682 0 1 0
1895 1 23.57515149082259 7.656690507766282 6.360021849416122 0 0 1
1345 1 22.53419441428658 7.537599044502675 8.866424036210864 -3 0 0
606 1 24.25009363399417 6.052220111623237 7.982013924731786 0 0 0
334 1 21.335407551893866 8.38248230959896 7.131649354717401 -1 -1 0
1029 1 21.504704132760722 6.883756867176943 10.474353853825411 -1 -1 0
1879 1 20.127467058643568 6.954459495828246 8.844535204205128 0 0 0
340 1 27.582091841621633 6.936599047402873 6.32070997287286 -1 -2 1
413 1 27.076391544208278 9.111884962506661 4.4397673678532925 0 0 0
1766 1 24.8576471078563 9.446052918485302 9.064939054682208 -1 2 0
99 1 25.52628206454323 7.312528491467737 8.565470227251264 -1 0 0
2033 1 26.421061887343704 2.9780498832255295 7.3152925087326395 -2 1 0
693 1 24.618823180518454 9.37332047001528 6.6617420237595075 -2 0 0
1580 1 22.96969497474592 5.441468213709001 9.638521691895011 0 0 0
89 1 24.436322593677453 3.837574911638001 8.468584190421485 0 -1 -1
136 1 27.096363303236032 5.408640323147025 7.742958738721845 -1 1 -1
1354 1 1.7523062110679455 8.972479247011233 6.488311232697865 1 0 0
1126 1 1.9613498866801042 12.807605154828945 6.188596558437608 1 1 1
207 1 3.3773874520283456 12.576590317889485 7.70324651144557 0 0 0
2008 1 1.850684753971508 9.217749549039585 8.473394603735358 0 0 0
33 1 4.137846035269696 8.996048294802565 8.114618078570341 1 1 0
47 1 1.4814942339596602 11.44491758859339 8.237995384928466 0 -2 0
726 1 26.588180325443375 12.676285252092299 9.8199815367226 0 0 0
306 1 23.782921635700923 13.615672136446157 9.504623384623098 0 -1 -2
1244 1 7.88002117679523 10.323965773662366 6.378039515449313 0 1 1
133 1 18.76772573848642 9.794567801524934 9.82417393233855 0 0 0
1066 1 5.437467590592904 11.96032371001784 8.57105027939235 -1 0 -1
845 1 5.643891670167666 10.172431042745295 7.12493659482478 1 -1 0
1573 1 7.10411773699335 9.066572736918348 8.290184439655464 0 0 0
1904 1 20.957877933609296 1.3370304746028052 0.6710424216548886 -1 1 0
170 1 7.7856693445876 11.701910157368687 7.959123179203279 0 -1 -2
114 1 7.394177084129458 10.934723246087822 4.333546566803427 0 0 0
403 1 9.66060612554572 10.655071724008605 7.2824751398917 -1 -1 -1
1884 1 9.005202882990643 12.126354912539075 5.5195676714907815 0 1 1
618 1 11.681557026619313 9.829017642291449 10.626562362584185 0 0 -1
1339 1 9.80725719379497 13.450660702629762 8.105381589798775 1 0 0
1280 1 7.84537981745574 13.445521738986477 6.712177384352627 2 1 1
1722 1 7.313657769962973 13.021859455375832 4.397663540893717 -1 0 0
308 1 25.042325048021034 11.035631424938282 10.700348692972266 -1 -1 1
1927 1 6.978232895705962 10.427301651389792 9.765949031752319 -1 0 -1
83 1 13.712434859339679 12.327474587493203 5.911156163818078 -1 0 0
752 1 12.567603164124748 10.723169231254097 7.208837558028174 -1 1 1
171 1 14.731705958919651 13.688622749162032 6.974655433835759 0 -2 -1
1514 1 10.977842447303258 11.59993644639367 8.592916992331254 -1 0 0
1847 1 13.95906543033154 12.400239936942944 8.3618550099604 0 0 1
920 1 14.013220006055072 9.122826844996238 7.018512027881834 0 -2 1
1681 1 16.216613114566822 12.059572883878948 8.11889316814122 -1 0 -1
1943 1 14.678237447808776 10.477174576039792 8.36304645407927 0 0 1
509 1 23.534912618608395 13.140107862413181 13.212825551745523 -1 0 -1
716 1 17.572359320330648 11.726907919384272 10.248151659828425 1 0 -1
1005 1 22.228870672901827 1.4529660076306778 6.558437006377968 0 -1 1
20 1 19.60695088555154 9.49025060626433 5.5742166364484795 0 -1 -1
1237 1 16.848983395388807 12.685034094132469 5.996878534268875 0 1 0
1225 1 17.642907540954162 10.042591009849655 6.411280593464638 -2 -1 0
294 1 4.942044145567035 1.0714898470190375 5.363388678872206 0 1 -1
1313 1 18.47571615528353 11.590976782453561 8.272369286360647 -1 1 1
1535 1 18.735326603036548 13.401750530456692 12.111527812540851 -1 0 1
1726 1 20.183259796636484 11.345542187457472 9.512086733223006 0 0 1
1040 1 19.144802070242115 8.594521175410419 7.5355949971758855 0 0 0
846 1 16.86454028675322 9.587990620814416 8.450990338620256 0 0 -1
619 1 21.402109150780937 12.217634744583865 7.959276227740053 1 2 1
802 1 19.469030822997546 12.050166140630344 5.840590622991739 -1 -1 0
1312 1 22.664438070678138 9.671169737354045 7.931481830564629 0 0 0
1320 1 21.788860044883236 12.755407485500275 4.901341832251659 -1 -1 0
1730 1 24.081433951229542 11.092223738325856 8.452075372158173 -2 0 0
1144 1 26.138118279693636 0.7530899720002524 12.682211065114041 -1 0 0
532 1 21.42783614707043 14.079679410577974 9.311735182599898 -1 0 0
957 1 24.06565398351856 13.96153057399318 5.750913315436601 -1 1 1
1603 1 27.575352579512455 10.621489294297104 6.344666844823287 0 0 1
1199 1 1.8656131396074025 8.761218124692387 3.1370571985615285 0 0 -1
1979 1 22.762573669262764 13.433622970074216 7.543872725541666 1 0 1
800 1 23.319771415151855 11.705775697377026 6.429320842628558 1 0 0
515 1 26.74846288354683 8.719544451183571 7.050239742265777 -1 -1 1
963 1 24.013352349438087 8.60905092110774 4.14579634568015 -1 1 1
1928 1 25.426482529242797 12.10127993716328 6.735635683223663 0 0 -1
1490 1 26.594361748248247 10.772863598712712 8.12159217724815 -2 1 -2
278 1 26.88711789160928 8.542227772005225 12.878273718300177 -1 1 0
203 1 20.805242957316402 10.124486118009566 11.730606158827458 0 -2 0
1830 1 2.533815773137148 4.709531326410746 13.263106377082456 0 0 1
1935 1 15.29375253103761 11.277096230889505 10.393116659860835 -1 -1 1
331 1 15.716620047558315 13.562696260958756 9.366140540624489 0 0 -1
1752 1 1.78842448904244 2.22973804840444 12.124368001617738 0 1 0
1423 1 18.811390582356445 11.365423198423732 11.712214739420974 0 0 -1
955 1 1.6251105646820676 3.422130392588261 10.29744602297247 1 -1 0
347 1 27.55584939956487 13.382556583910507 7.583846998658495 1 0 1
792 1 10.922147865463733 13.973808912360367 4.043119809465507 1 -2 0
302 1 0.7793784433340698 1.2757576123853172 4.5883744966718325 1 0 0
1253 1 21.33417880420322 1.017183524409302 2.7656904428344395 0 0 0
166 1 16.84441145946507 7.32065464595314 1.1707078302493605 1 -1 0
1617 1 7.69886125501482 4.487243571626234 13.603641844537817 0 2 0
1671 1 5.210905548863456 1.8138394302784815 11.571365950817972 0 0 0
540 1 17.273526437295224 12.365870140005752 13.562503303248114 1 -1 2
1999 1 4.119969611273431 2.9879676248133706 12.696781823523551 1 1 1
1097 1 6.59715165216037 1.8424051269700474 13.09286556963149 0 0 1
754 1 0.72288037034438 10.077232427055877 1.2993432431604406 0 -1 0
1568 1 10.411737051438553 0.727663502706116 11.74454349392581 1 1 0
1043 1 9.136714744178583 3.32679168079971 12.315207682753003 0 -1 -2
774 1 8.413449209509594 4.072680907128194 9.73150031349879 -1 0 1
1191 1 11.423512579728454 2.9996694907435812 12.092748194532119 -1 0 0
668 1 7.781286573383041 13.966005717769267 1.746543609608011 -1 -1 0
76 1 16.58769648451928 4.9620239411708065 1.319479050951803 -1 -1 1
1768 1 10.54691526113344 4.34763866923417 10.552323692008551 0 0 0
1908 1 10.49137365364401 4.601271288480632 13.248000680454368 0 0 1
232 1 14.07559364808893 1.283589365344197 8.206324212917352 1 -1 0
1503 1 13.641132177567622 2.6940360984091596 12.656635545679293 0 1 0
945 1 18.533011029298486 0.7885272852121228 1.793609506465395 -1 1 1
921 1 25.73741757079314 3.485899527491756 12.734466555089885 0 -1 -1
1499 1 12.88654911065593 0.9835783338145886 11.696117098004061 0 0 0
636 1 21.848256992554383 14.056629159316262 3.3424350036639146 2 0 2
616 1 15.512139065565023 2.2532766662943535 10.924149119406913 -1 1 1
408 1 6.148745554093169 1.9509379386293098 3.8142662950614943 0 0 1
1640 1 16.54745562212571 6.140087977530406 10.556391143441655 -1 0 1
319 1 18.553086662004603 3.1236212550282145 13.588299204658481 1 1 -2
29 1 16.0920707129888 1.679818258979516 8.924349494734276 1 1 1
317 1 17.966402352734228 3.0843443716014303 9.959178131042977 1 0 0
1360 1 17.659342173988428 5.4409259136579395 13.230946948554742 -1 -1 -1
1549 1 16.610257576099354 2.4807532690304814 12.832183466471639 0 1 2
1046 1 20.79195291855563 3.7001797504484557 13.29004092479296 0 1 -2
50 1 17.946731102602435 13.481302452874564 7.5269566227496645 0 0 -1
175 1 16.716535675875683 13.206170515217568 11.623165262576942 -1 0 -1
923 1 16.07152923162385 1.692230878372084 2.7692389731420954 1 0 1
865 1 21.89624068071239 2.9786705325953355 11.320771984280727 -3 1 1
741 1 18.14769600037988 2.3125094574532845 8.063293816568017 -3 1 0
529 1 23.27058498104261 2.673376444848947 13.354436077914553 0 -1 0
885 1 26.09884018811666 12.109600832563446 12.179072060600488 -1 1 0
1572 1 20.670022288155884 0.7303508661769664 10.649470449522417 1 1 0
1771 1 19.099549840721266 4.008360560318111 11.811855040441195 -1 1 0
789 1 7.910943193173564 1.633994577139335 11.418961901615113 -1 0 -1
2046 1 24.606931841378454 10.589094352979783 13.36736226342868 0 0 1
1859 1 26.2096208469463 2.5633447363210244 9.165451779161321 -1 2 0
1218 1 25.735155641002386 5.15950798476985 9.300321370166236 0 1 0
196 1 5.8488287553023355 12.432866361921157 6.577139661254387 -1 -1 -1
1931 1 24.0612547331625 5.224573869261515 13.719007812732329 -1 -1 1
1425 1 0.6732904823353766 3.467146796051549 13.3227833988836 2 1 0
1449 1 22.850133402040903 1.012310102788298 11.39289995913681 0 1 0
336 1 23.515670702096166 2.777779101433749 9.973406143147997 0 -1 1
1697 1 25.330919891997958 1.9202226723775442 10.965090620177516 -3 -1 0
1575 1 26.481636235896744 3.843093155395484 10.93847384025749 -1 1 0
991 1 2.3806217265959937 6.869887973509762 11.51184482009329 1 1 1
563 1 2.1337855515343915 1.3923586270627133 8.972208592886592 0 -1 0
1600 1 0.7449953610425334 5.75086692675614 12.766029170652219 2 2 0
1690 1 1.3054621709723895 8.905176359815549 10.873284522412183 0 0 1
1883 1 26.572628677055064 9.87475943669604 11.414983135289837 2 -1 0
1270 1 2.503410038004411 6.844498937014884 13.538468728997813 1 1 1
879 1 2.596270214465774 9.181985184266908 12.604292850987338 0 1 1
880 1 4.9467199133417985 6.202347328236896 10.914423747365445 0 0 1
1247 1 4.251633415039262 7.894950679779434 11.543667016348248 1 1 0
1343 1 5.553523161104252 4.63186038063817 13.085890935552518 1 2 -1
937 1 5.576669376118101 8.436345389251095 13.075368499202977 0 -1 2
832 1 4.577272684585028 6.831192668341935 14.070309877499932 2 0 0
1505 1 19.442909765805737 1.406508530073395 5.9420698430939485 1 1 -1
960 1 6.608012695209662 6.642211251563615 12.61770224556241 0 1 1
141 1 21.58015147105786 9.850101818656592 13.78106269758716 1 0 -1
852 1 5.069281871272034 10.494892442885927 12.478741886116774 1 -1 0
1657 1 8.69953602567866 1.568087737661497 8.131647401576327 1 0 1
928 1 11.786943732228877 6.392171592336152 13.770515853681111 1 0 1
678 1 9.438918532090913 9.709768969107937 11.580999567305577 0 0 1
1277 1 12.7514225456672 4.072765829771288 10.270393839083475 0 0 -1
1159 1 10.326659861469436 8.3698528593999 13.117163494492742 0 1 0
626 1 22.5444227284799 2.206186352569788 3.8537802952074673 2 0 0
375 1 10.901689218599268 6.104349825957648 11.577095753992387 1 0 0
1154 1 16.697462686445924 4.1382926716550354 11.000022328814755 -1 1 0
2009 1 12.396465273506111 11.494674772816179 1.5868826593801748 -1 0 2
1010 1 8.275023063963122 8.493230922338121 13.393208768607789 0 1 1
93 1 13.123311662089561 4.887667022299635 12.663594467469439 1 -2 0