LAMMPS data file via write_data, version 29 Oct 2020, timestep = 300000

2048 atoms
1 atom types

0.7932364944348027 27.55876350556599 xlo xhi
0.7932364944348027 27.55876350556599 ylo yhi
0.7932364944348027 27.55876350556599 zlo zhi

Masses

1 58.933

Atoms # atomic

35 1 2.4757571339206086 4.35616730098117 2.651496880364877 0 0 0
130 1 2.4009359199666997 2.4285064610710165 3.982031063027456 0 0 0
165 1 4.270618543938497 4.195657020447253 4.005808073149106 0 0 0
8 1 4.011018819947895 2.3295909441615095 2.0754126349497124 0 0 0
110 1 12.646587929281791 12.292022334016695 0.9336652363369367 0 0 0
1039 1 12.533020679570736 13.91929250480352 2.4300042207724113 0 0 0
133 1 4.347616566333496 1.048987899021713 3.9797461989816734 0 0 0
293 1 5.956940284312151 1.3402680035235617 9.104710466080254 0 0 0
12 1 7.306667399717918 2.443210486493386 2.312825170192222 0 0 0
39 1 5.829622688121002 4.0774008820852945 1.9350633322515571 0 0 0
134 1 5.876482954762174 2.5906001540561157 3.804640072970927 0 0 0
169 1 7.501885699407599 4.3082724268283075 3.956719279230765 0 0 0
1417 1 7.256965545990072 13.79033825415736 11.099787109922167 0 0 0
391 1 5.652219880787007 1.1641564397234823 12.291516000766702 0 0 0
137 1 7.631033013375985 1.1892608165432614 3.9114557707090323 0 0 0
43 1 9.13734544328101 3.8656320001672415 2.109205924393813 0 0 0
16 1 10.934438657407231 2.384539077621844 2.5421768900334967 0 0 0
138 1 8.992967973050959 2.6627872508972463 3.8658702850333677 0 0 0
173 1 10.553014028665686 3.9136184361455126 4.362875052944407 0 0 0
393 1 7.422362899169577 0.9323274171022653 10.827205170118157 0 0 0
1295 1 12.51680481177359 13.590320979382412 9.291666159009786 0 0 0
131 1 2.7156854888503403 0.8779681741547727 5.657679582696656 0 0 0
273 1 14.169706884206146 1.1392559702203948 7.6311123534652205 0 0 0
142 1 12.319395279058277 2.4197909018505386 4.253973525348987 0 0 0
47 1 12.078358822314874 4.154595855572474 2.2791144861292336 0 0 0
20 1 14.06860115977756 2.5535513819302507 2.8193833624374025 0 0 0
177 1 13.997163424424897 4.512220702054236 4.277640815595218 0 0 0
146 1 15.875257801041885 2.1693932176421473 4.539308646338944 0 0 0
51 1 15.73255657824695 4.046304599833698 2.924027766424824 0 0 0
512 1 24.367894666319742 12.295453444825702 12.725893576482608 0 0 0
18 1 15.401085237840654 2.5805686835666197 1.0390496715758706 0 0 0
114 1 16.006127314122672 12.861282966473423 1.1688499135962995 0 0 0
24 1 17.492180203527596 2.0976775026850443 2.8644783822382265 0 0 0
181 1 17.547351108394544 3.8321670581317147 4.303084831470209 0 0 0
150 1 18.99297685586889 2.0911442274572645 4.298332785498993 0 0 0
55 1 19.118257788415804 3.7426549264528366 2.8606062072106426 0 0 0
1437 1 24.480837416573117 13.73915884094754 11.05612605043787 0 0 0
405 1 17.445539552530846 0.8445001695633031 10.578475599372169 0 0 0
53 1 17.24063024002742 4.092898631193265 0.9796165769081439 0 0 0
28 1 20.738064973225455 2.258780532640073 2.7434284956256367 0 0 0
154 1 22.69953982461289 2.4653519529225942 4.165955067982768 0 0 0
185 1 21.23620979660302 4.318371811439189 4.013085517400625 0 0 0
186 1 22.68542211981456 3.8751391369620047 2.5395686361817704 0 0 0
1427 1 16.072259583415203 14.01582664157329 12.427936002267165 0 0 0
143 1 12.317504780291419 0.9244783343396791 6.102575163504771 0 0 0
960 1 22.658230378293673 5.645378013420731 1.0379832204580903 0 0 1
158 1 27.222290596921276 2.2436462706947222 2.12737713027757 0 0 0
22 1 19.03801069506512 2.5359107561997654 0.933470005941726 0 0 0
161 1 0.8928036273298048 3.7779349079432443 3.6862186707973645 0 0 0
189 1 24.65570055304766 3.9742394249638764 3.803891359193846 0 0 0
32 1 24.194414595840975 1.822695234734298 2.4410054305334405 0 0 0
63 1 25.824407705930653 4.038338640010204 2.166396775925952 0 0 0
30 1 26.351036886341255 1.9623125836397757 4.070817231992571 0 0 0
384 1 24.265368184337284 10.60744444714429 10.967819539972531 0 0 0
1423 1 12.750108950161458 14.059386334131545 12.304092244206712 0 0 0
162 1 2.5268504301239156 6.258740433572705 3.9575878579419594 0 0 0
67 1 2.6648614840039033 7.3683579973475695 1.857756953961894 0 0 0
194 1 2.26030504860459 8.979123121153737 4.3275016082710875 0 0 0
195 1 4.510097621526458 7.39433858768657 4.15187112336565 0 0 0
40 1 4.2727871355521065 5.9543765909174375 2.3623019639162384 0 0 0
72 1 4.313075658559729 8.62065203614932 2.3609042628671864 0 0 0
68 1 1.2693832252185833 9.08288062405515 1.9029693502169267 0 0 0
193 1 27.494449720397355 7.269375056377939 3.8617374656627357 -1 0 0
113 1 14.407683300574334 10.98546156396526 0.8844096603440879 0 0 0
1419 1 9.157842720679339 13.914136779295308 12.454465326339664 0 0 0
1169 1 14.261681413024116 14.098262566126317 4.296244986311908 0 0 0
197 1 5.841805353522777 5.711631936435434 4.073496897646167 0 0 0
71 1 6.141421842030173 7.589589678106118 2.456648578905803 0 0 0
76 1 7.706925258514613 9.226646180035285 2.4080757134995308 0 0 0
201 1 7.714580996213682 7.430353205359994 4.097339838113269 0 0 0
198 1 5.65230588972975 9.418169282959614 3.701642031145283 0 0 0
44 1 7.333816313304635 5.538169939252415 2.232995104720911 0 0 0
14 1 12.718661152676223 2.607570287515496 1.123961191538767 0 0 0
1435 1 22.69513926822421 13.936459146810645 12.776068736038964 0 0 0
170 1 9.228591380767924 5.823136541314679 3.666072656344115 0 0 0
48 1 10.508199433149745 5.476794173886534 2.123065442597534 0 0 0
75 1 9.083939901173395 7.680681606053176 2.031647987495702 0 0 0
333 1 10.468383447531833 7.293565049692126 3.981173226448202 0 0 0
202 1 9.295741246462986 8.883166455232148 3.7941345245137894 0 0 0
80 1 10.648778563198295 9.217416085618972 2.72315124879946 0 0 0
57 1 20.985565973137845 3.9461707008275777 1.1597489735717734 0 0 0
285 1 23.89670859654894 1.1736282641302807 7.523479224677352 0 0 0
174 1 12.292640517375407 5.841004017495888 4.254461523064787 0 0 0
206 1 12.36376700019804 8.851104591252163 4.252086503962467 0 0 0
205 1 12.359368182602157 7.408698967115158 2.7007320638742796 0 0 0
52 1 13.940014855609464 5.884966850320174 2.4680426130228166 0 0 0
209 1 14.147743031948085 7.56453341685093 4.163119293339417 0 0 0
84 1 14.306297105578478 9.096996873187262 2.6480389633493573 0 0 0
178 1 15.756439760398601 5.974451464868085 4.229907807177384 0 0 0
83 1 16.03963912684135 7.879656556705057 2.6831029385834433 0 0 0
210 1 16.06856545108549 9.304772667529718 4.195907980990269 0 0 0
135 1 6.148215123496673 1.1376781249310812 5.65718589029609 0 0 0
1309 1 24.41195594246114 13.92153058861727 7.0751613978945365 0 0 0
627 1 16.010837338056756 9.393008697418963 14.021355233953841 0 0 0
182 1 19.274353337731746 5.837170325497735 4.221759779449025 0 0 0
56 1 17.851781814582758 5.581227390069364 2.830658681366327 0 0 0
213 1 17.623444011071477 7.696417666293479 4.674095606258321 0 0 0
87 1 19.135363561949845 7.6979361563434585 2.9887488785273306 0 0 0
88 1 17.722454242296074 9.210571985715731 2.2486468711407874 0 0 0
216 1 19.37861978759596 9.565356738047274 4.392693077839709 0 0 0
21 1 17.33187982139495 1.1506572154159351 1.0181140367690897 0 0 0
82 1 15.890881566225572 9.443924382308035 0.9129913829447011 0 0 0
78 1 12.278071706892637 9.129144777386058 0.9945728493693047 0 0 0
60 1 20.905481825706083 5.765410491977141 2.7859098894486216 0 0 0
91 1 22.457720898302178 7.359667784003727 2.7255778370199564 0 0 0
217 1 20.621363558095787 7.752436436936267 4.42109702926334 0 0 0
192 1 22.796632135886746 5.933375116943754 4.165346206604292 0 0 0
92 1 20.98662085862034 9.147361130956755 2.5370152303829396 0 0 0
218 1 22.495007659293698 9.184538980408181 4.180948335855847 0 0 0
277 1 15.918558193492405 0.924026034872926 6.326901747511565 0 0 0
261 1 4.446221315996929 0.9529617979339193 7.32970593922647 0 0 0
522 1 9.139700685185314 2.3271062015064277 14.157969848362374 0 0 0
389 1 4.273121146964796 0.9130087980757987 10.811072272466696 0 0 0
36 1 27.265223085335272 5.84068741427754 2.212886029463925 -1 0 0
64 1 24.028477880395272 6.095959894011756 2.3171503022911004 0 0 0
96 1 24.18528147525374 9.03919627589997 2.313593440076589 0 0 0
221 1 24.283859979140033 7.59410396446381 4.104148815616007 0 0 0
190 1 25.747482306560592 6.0209269525943325 4.1388201269833385 0 0 0
95 1 25.953880245961194 7.586948114595583 2.3121227612339927 0 0 0
222 1 26.171278516807398 9.098793686975913 3.8372652971389947 0 0 0
139 1 10.32277753329572 1.0877533123704068 7.730966057442258 0 0 0
99 1 2.727708974940586 11.119267869717191 2.3247927349088062 0 0 0
226 1 2.6093193432945014 12.70521742802489 4.168898303854011 0 0 0
102 1 4.369128413077453 12.67907728799563 2.0481367946870175 0 0 0
104 1 3.9220572414964763 10.779701833511332 4.352663956122255 0 0 0
225 1 0.999021609318705 10.757326682239164 4.114920519272324 0 0 0
1031 1 5.828539501191483 14.131596824337146 2.78767480962651 0 0 0
275 1 15.706510278808414 1.510150173929342 9.42543861676716 0 0 0
510 1 26.312359054652248 12.479820678058708 10.81467277894361 0 0 0
118 1 19.422126205161284 12.6637540192278 0.9187397151149151 0 0 0
103 1 5.4926050228587675 10.839881912372975 2.0603262690900586 0 0 0
108 1 7.125816372509114 12.27717628146416 2.4447157941182396 0 0 0
230 1 5.733011667963923 12.455454523238812 4.280539289979822 0 0 0
233 1 7.502515800538484 10.899607175191655 4.100140699754819 0 0 0
271 1 12.387843753710115 0.9855290031056405 9.17174712653348 0 0 0
1306 1 22.79190365817638 13.960447401800861 5.374229937388992 0 0 0
49 1 14.213824528884498 4.204735188801573 0.8353125962033813 0 0 0
107 1 9.160085566528469 10.904713024817628 2.6283864282892964 0 0 0
112 1 11.08061841349801 12.699218627845735 2.994076055897246 0 0 0
234 1 9.202151087209153 12.490051313374197 4.259686194740505 0 0 0
237 1 10.865169216475834 10.807204184970416 4.357853404817398 0 0 0
117 1 17.499340510173397 11.11573495774065 1.1450000276274128 0 0 0
125 1 24.127497974788632 10.33899362615601 0.8457557631537617 0 0 0
85 1 18.13669498157764 7.10431574449646 1.1102558494483157 0 0 0
259 1 2.417292738822583 0.8133004794395688 9.287474432225181 0 0 0
238 1 12.241475338178004 12.529705287209925 4.606337577871326 0 0 0
111 1 12.731326792413148 10.739253241069381 2.7000686526207245 0 0 0
116 1 14.153410448903793 12.475900737334591 2.362058295998313 0 0 0
241 1 14.229770088649047 11.436217278487012 4.32311859886048 0 0 0
115 1 15.869354679620391 10.95415146624084 2.6988853847866023 0 0 0
15 1 10.73575059137906 0.9448350627577582 3.961405971308457 0 0 0
242 1 16.255475488308946 12.900657216712021 4.095594918556873 0 0 0
511 1 26.439107030190037 10.867390048617288 12.753712298307855 0 0 0
141 1 9.23007991480782 1.062936514027861 5.7123869568503025 0 0 0
119 1 19.276860717662196 11.090960068844137 2.6351522146642608 0 0 0
120 1 17.853524214065466 12.745954575966692 2.4573910953192297 0 0 0
245 1 17.682039659887742 10.931622808382606 4.243508253109471 0 0 0
246 1 19.59477935609823 12.79010422535094 3.984162537185576 0 0 0
1311 1 25.96319815837831 14.028625725518705 9.057176937753171 0 0 0
1421 1 10.868877985567103 13.915665889357006 10.721295455852438 0 0 0
530 1 15.586435058595752 2.2655354741096114 13.91703400407546 0 0 0
508 1 20.919385010358113 12.308973566775812 12.401328310634259 0 0 0
123 1 22.450461292177522 10.674667528416718 2.2962156626078443 0 0 0
124 1 21.5323166258404 12.480558437214928 2.692067494990129 0 0 0
249 1 20.968807998797566 10.83550190189739 4.4515154389859815 0 0 0
250 1 22.90219797293576 12.20445739422308 3.9778846195357893 0 0 0
17 1 14.286069725211922 0.8784480790884382 1.1261836021036384 0 0 0
513 1 0.8809082340960308 0.8030753254065135 13.840638168791218 0 0 0
50 1 16.369938241441776 6.041851216478004 1.359216326237785 0 0 0
100 1 27.443062237222193 12.620697046096947 3.099548954933329 -1 0 0
253 1 24.58432998081785 10.553450571366188 4.023669069435249 0 0 0
128 1 24.43530922053644 12.750329686538995 2.5453085258501535 0 0 0
127 1 25.884381323402934 10.961548009646226 2.54264718111991 0 0 0
1181 1 25.763344307609422 12.500575894661408 4.2921486660232535 0 0 0
11 1 9.02064106043424 1.130438141008195 2.491073808199225 0 0 0
507 1 22.501903502309005 10.73575988330061 12.544467672608512 0 0 0
1439 1 26.29797562856819 13.77447097019455 12.367225709677339 0 0 0
380 1 21.377227008052223 10.571443936183936 10.517221926112645 0 0 0
622 1 12.406554700143962 11.93351272045173 14.014214664123706 0 0 0
163 1 2.608686868975643 4.183578785783181 5.467888772359569 0 0 0
258 1 2.372639047563885 2.2902509624515552 7.785159406064375 0 0 0
295 1 3.782368503228051 4.06526445003055 7.180413943683584 0 0 0
264 1 4.212563380883438 2.8878917882232185 8.997439001461426 0 0 0
3 1 4.356702108613652 2.6779784495924943 5.7356184270942725 0 0 0
291 1 2.306345640486974 4.136320456996555 8.984130817713774 0 0 0
1378 1 0.8217405243973204 2.5534363763087935 8.9695157791413 0 1 0
257 1 0.9514711800003464 2.126320074931347 5.836570040657711 0 0 0
289 1 1.033978110431821 3.80980011600422 7.083968904754886 0 0 0
1167 1 12.335665581282369 14.095521083296536 6.008675419208492 0 0 0
621 1 10.70914055068721 10.68524876888973 14.009153556121714 0 0 0
1431 1 19.26600018154258 14.174097414777139 12.155866304116293 0 0 0
199 1 5.4389169059911335 4.707598633532306 5.742784042445241 0 0 0
167 1 5.6590744489566385 2.4057717041521043 7.328574232578449 0 0 0
140 1 7.038946280108247 2.9232353243240365 5.49458268675851 0 0 0
297 1 7.108547832779486 4.249093446131021 7.500584363623801 0 0 0
262 1 7.447778852434117 2.8634575280095667 9.134720947448798 0 0 0
300 1 7.419862041191896 5.762381628172272 9.21821923438141 0 0 0
144 1 10.822899785492115 2.601943937808719 5.9187931731032295 0 0 0
171 1 9.022148406688595 4.356176376632775 6.035805225875123 0 0 0
266 1 8.920345323489023 3.0092800951587537 7.542163947543573 0 0 0
301 1 10.768996514626952 4.4303986322782425 7.399080846159591 0 0 0
272 1 10.929532642682302 2.502211114127171 9.291532483318536 0 0 0
299 1 9.569201165309892 4.032183229101909 9.358730774717543 0 0 0
509 1 23.135039866398316 12.368374926590501 11.124720693710689 0 0 0
495 1 12.750425948408557 10.638344963916335 12.572835606082435 0 0 0
303 1 12.416510599562761 4.398893052940547 9.312579025518446 0 0 0
270 1 12.284974366780073 2.828476262563834 7.59653850908351 0 0 0
175 1 12.411396526489538 4.413233815276891 5.744417659283773 0 0 0
148 1 13.684772413036939 2.783025121180348 5.985304867493012 0 0 0
305 1 14.007446311225527 4.549301330945948 7.722919239212168 0 0 0
276 1 13.842692575276086 2.760845148768544 8.829603676475934 0 0 0
179 1 15.910091707562021 4.418912700873648 5.527422391490141 0 0 0
274 1 15.736867442339326 2.877936350231915 7.103820871170725 0 0 0
307 1 15.698104461041337 4.216273731884565 9.181757010667303 0 0 0
183 1 19.568576728683723 3.9797163560417643 5.3362129032342756 0 0 0
152 1 17.755243790173118 2.5927630457129567 5.742765954962071 0 0 0
278 1 19.273686664108816 2.2617801104954314 7.475720058018152 0 0 0
309 1 18.087291915065165 4.368366687002952 7.324030707083968 0 0 0
311 1 19.122289939663027 4.352982448107545 9.644610949041972 0 0 0
280 1 17.694353568846502 2.9999550687182244 8.67058210349893 0 0 0
287 1 26.055704144375795 1.0380595027584771 9.287121269064388 0 0 0
187 1 22.46459001217022 4.269184941567068 5.752772785504273 0 0 0
156 1 21.071647153939395 2.533776422847713 5.799895704853106 0 0 0
282 1 22.471464461849614 2.853641952085382 7.207769370070227 0 0 0
313 1 20.45202321059221 4.250955233603156 7.572443031676662 0 0 0
284 1 20.914588871259483 3.1407228598713837 9.282427611141907 0 0 0
315 1 22.44435879382833 4.585106975237018 9.070711473143778 0 0 0
188 1 21.078830042253962 5.718374802450924 5.692644767750593 0 0 0
267 1 7.540696434461935 1.221421872082787 7.336668507704366 0 0 0
288 1 23.846267419456865 2.5229284979180333 9.325114916488012 0 0 0
132 1 26.118224638624966 3.686218671162671 5.557023814442233 -1 0 0
160 1 24.28580508896252 2.445340584428224 5.933515533275909 0 0 0
317 1 24.23540674411681 4.0508993807460705 7.36684466689092 0 0 0
286 1 25.797932090329468 2.6768185396408954 7.542583005116677 0 0 0
319 1 25.5194407845635 3.8988159277739793 9.122205758546123 0 0 0
200 1 3.9958021341934673 8.825846526072894 5.788643070081987 0 0 0
296 1 4.028315063291101 5.573279197363702 8.738819726536047 0 0 0
290 1 2.2610682328284746 5.625346617495264 7.166559154668754 0 0 0
322 1 2.3875208464658897 7.413207782923787 5.690462250556686 0 0 0
323 1 2.555961908412175 7.208743724242189 9.244966472268207 0 0 0
357 1 2.147420208109648 8.84033957420133 7.252280966812686 0 0 0
168 1 4.072244816012383 5.9839408124557005 5.831781476892294 0 0 0
328 1 3.9167741484069913 9.03611973379413 9.247097040953443 0 0 0
321 1 27.479354029503497 7.312665677038243 7.334099286347288 -1 0 0
324 1 0.8930889926671794 8.955738659276973 8.957713707402863 0 0 0
325 1 4.098053694591092 7.522165164682128 7.0872761630399 0 0 0
204 1 7.2730827227487 9.501293929693194 5.942412991585948 0 0 0
172 1 7.480490451727371 5.7374520119617625 5.659468375059129 0 0 0
166 1 5.887292335047349 7.9514105935976955 5.983613968312462 0 0 0
294 1 5.758878556222871 5.860983800342656 7.216546302252829 0 0 0
329 1 7.246754654714759 7.638230118192132 7.795957155962034 0 0 0
326 1 5.655855189742554 9.15404593281544 7.923111175273021 0 0 0
332 1 7.24991652099215 9.297244276661745 9.362698941535458 0 0 0
176 1 10.4957141748572 5.929222475485984 5.665322331987767 0 0 0
298 1 8.895378268979586 5.680234552796918 7.572729341399169 0 0 0
208 1 10.720727182754763 9.146347298466777 5.708271554435632 0 0 0
203 1 9.12253809782546 7.7002614993157685 6.149196375696478 0 0 0
335 1 10.393251056533822 7.716984955981775 7.919162703097804 0 0 0
336 1 10.572229428772733 8.886718897957818 9.672359593136193 0 0 0
330 1 8.818012805088063 9.402884947485695 7.762825590002853 0 0 0
331 1 8.835116442099407 7.594689255184425 9.242276326775785 0 0 0
304 1 10.931472552810781 5.866505533224073 9.38718020008519 0 0 0
302 1 11.946727444726577 6.1313601004080835 7.426969860418578 0 0 0
334 1 12.356320030394071 9.130392615079762 7.467572764008753 0 0 0
306 1 16.114488925084988 5.793396807932268 7.292450243811522 0 0 0
207 1 12.193454589564679 7.305074517350905 5.734364893626636 0 0 0
465 1 12.305983183253035 7.582481830072279 9.310506123749555 0 0 0
180 1 13.82680430830268 6.121355244168739 5.958199850315352 0 0 0
337 1 13.953092134117368 7.698078978096038 7.6241371012930506 0 0 0
211 1 15.524759492288831 7.6419115815791905 5.8202169595124715 0 0 0
212 1 14.192167347504142 9.64910308713345 5.517131598743249 0 0 0
338 1 15.800338634805188 9.377177822688259 7.593246825864874 0 0 0
308 1 14.064047555552051 6.0496498425153655 9.10793228941048 0 0 0
340 1 14.342178788796058 9.27555646425293 9.447955037221853 0 0 0
339 1 15.896845411565703 7.773885531311596 9.122730501638484 0 0 0
342 1 18.00758124981973 9.439339941553985 6.0847112261172835 0 0 0
215 1 19.171243247947388 7.364376975188491 5.981693197145718 0 0 0
184 1 17.67765772171927 5.689495512640182 5.504619341183425 0 0 0
310 1 19.33930272322715 6.080915122226056 7.747036814226503 0 0 0
341 1 17.450118231843156 7.56805747076251 7.116074028639638 0 0 0
343 1 19.15565441537978 7.081680913598798 9.870912473014378 0 0 0
438 1 17.536818948519276 6.018451484715404 8.822634488794833 0 0 0
220 1 19.29708436899969 8.873735854964487 7.985619784718276 0 0 0
470 1 17.509970753918886 8.856998347969958 9.21557638586779 0 0 0
316 1 20.995525515886072 6.487069950307643 8.975456305033877 0 0 0
219 1 22.336285567709716 7.387823353909765 5.969292308649383 0 0 0
314 1 22.406016714807393 6.080674408251812 7.496905110513301 0 0 0
345 1 20.71206312771293 7.608171565038133 7.45895679010956 0 0 0
347 1 22.939466385708855 7.377448147157723 9.230728414316522 0 0 0
346 1 22.646743917836062 9.36538584671295 7.513031650232886 0 0 0
214 1 20.891170488989246 9.374486473283126 5.95001451853974 0 0 0
505 1 21.07210740324488 8.755574869192877 9.093331894535623 0 0 0
196 1 27.399069482329807 9.0674381346283 5.654255068951023 -1 0 0
292 1 0.9627776006740376 5.950612841051869 8.824616275005972 0 0 0
164 1 27.467975685869867 5.678157837364287 5.494007339690664 -1 0 0
191 1 24.305259915037922 5.527158745281816 8.762731064525937 0 0 0
224 1 24.458089961536444 9.159650503941174 5.526501370053474 0 0 0
223 1 25.787098572053367 7.413992213574616 5.8165015391166195 0 0 0
318 1 24.351966477804474 5.768598938836069 5.950657944378656 0 0 0
446 1 25.87583970309565 5.3335179452586985 7.390749582816906 0 0 0
352 1 24.207918335460967 9.149885417533222 8.869214985238248 0 0 0
349 1 23.971319318150684 7.698580236111887 7.30443565230777 0 0 0
350 1 25.815253816732827 9.414869223046855 7.296286491520253 0 0 0
269 1 8.765388854773462 1.308256411384735 9.154841757124782 0 0 0
227 1 2.4904492442758963 10.755927591066314 5.769589241917539 0 0 0
232 1 4.008433436540052 12.662191872153725 5.863804388815469 0 0 0
354 1 2.4997333927911587 12.279563847824463 7.41127152005159 0 0 0
355 1 2.42089015918917 10.602239123078856 9.02675993275631 0 0 0
360 1 3.8476125262498884 12.614047327159374 9.134955949485141 0 0 0
231 1 4.258662621168016 10.964049412984558 7.5272043877184185 0 0 0
356 1 1.1279838865310383 12.519422131135569 9.057211405200123 0 0 0
353 1 0.8458145285394838 10.886346352853357 7.682537084808016 0 0 0
236 1 7.153206202565262 12.560029121505384 6.164306977679173 0 0 0
229 1 5.676105858678301 10.948339907602339 5.744056940282083 0 0 0
358 1 5.584795150046562 12.759436828300634 7.380485018804203 0 0 0
361 1 7.0512868871920045 10.764271273929214 7.523916778842452 0 0 0
359 1 5.3697026569744954 10.91457713051977 9.208336423777723 0 0 0
364 1 7.031452026653129 12.567243306586699 9.16297059544286 0 0 0
240 1 10.536686729150418 12.151821799127235 5.982803103169511 0 0 0
235 1 9.085050363912591 10.583878511644004 5.4834756758328975 0 0 0
362 1 9.063212421703803 12.154739326743279 7.9246403192174055 0 0 0
365 1 10.9178284621791 10.473442816314737 7.80071638772435 0 0 0
368 1 10.73019880952204 11.836579494724052 9.599148565019785 0 0 0
1272 1 17.297071158156037 0.9950893054300781 7.774893795320051 0 1 0
476 1 19.593292146349512 9.187136736729856 10.988752189236742 0 0 0
239 1 12.42798678714814 10.763160612567583 5.9453259911485805 0 0 0
366 1 12.235830948150832 12.440323308680991 7.501429644098135 0 0 0
244 1 13.94100521827302 12.69995725852325 6.460701227689265 0 0 0
369 1 14.17817757330176 10.446167175836583 7.1829933011739024 0 0 0
243 1 16.002853137807023 11.052868335558873 5.616882099958115 0 0 0
372 1 14.176854258653501 11.958809639055822 8.866927511334616 0 0 0
367 1 12.643411582988065 10.517461279541235 8.676292795256916 0 0 0
370 1 15.801344033210292 12.676472697627837 7.283307839705824 0 0 0
498 1 16.098337669730626 12.583891835499358 10.621904442605477 0 0 0
371 1 16.070805896872955 10.787668024898027 9.140942668378264 0 0 0
248 1 17.48166887149187 12.746399854127255 5.6852869792325444 0 0 0
344 1 17.661348785643504 11.102889511423735 7.203036284456555 0 0 0
375 1 19.325072973126737 11.031030321214711 9.065357979100945 0 0 0
373 1 19.444432235227467 13.008571856210239 7.325904215911007 0 0 0
247 1 19.523038003887066 11.28821030593553 5.847503439395294 0 0 0
376 1 17.481720623772006 12.465495134471961 8.99511390970636 0 0 0
1411 1 2.532824978618864 14.120208469783515 12.877413446615018 0 0 0
374 1 21.04856443673569 12.734840375010359 9.27960473651331 0 0 0
251 1 22.5958840706286 10.799843820888624 5.657158456303739 0 0 0
252 1 21.03584842245958 12.775779930646806 5.676901109036961 0 0 0
377 1 20.945100793026434 10.88473807894596 7.50775098343118 0 0 0
378 1 22.548799619962637 12.944817036970532 7.620251970901395 0 0 0
379 1 22.75220225934728 11.064607203368457 9.212988078324223 0 0 0
254 1 26.217728821055005 10.69819732868725 5.7864734440514445 0 0 0
501 1 17.551325439743117 10.92844444058962 10.872796055554897 0 0 0
500 1 14.524875246039924 12.807068624963128 12.387574931099566 0 0 0
228 1 0.8371034594761856 12.571903566967665 5.66249337992624 0 0 0
383 1 26.24054874617221 10.357877464476106 9.522801467395722 0 0 0
1307 1 24.390658939339396 12.3224333328343 9.295720934577488 0 0 0
381 1 24.161270045927772 10.88761692250813 7.701803490688172 0 0 0
256 1 24.47441371801245 12.255530637409333 5.862317508236945 0 0 0
255 1 26.054271954105182 12.135101733601822 7.413530972290925 0 0 0
386 1 2.5060107940248666 2.308165970589309 10.613907777472464 0 0 0
419 1 2.321716107634798 4.200440694382567 12.731920926385563 0 0 0
421 1 3.911487260871491 4.3453855390288485 10.856307951763288 0 0 0
392 1 3.821124771603218 2.2342034239003965 12.485514714652211 0 0 0
388 1 0.9927414826034335 2.7518836565629745 12.372982475450321 0 0 0
417 1 1.1507687606218768 4.152042197716312 10.737753764639516 0 0 0
504 1 17.70110960514785 12.602441058926692 12.186572570122678 0 0 0
502 1 19.295214928808925 12.133045268596257 10.759068268642439 0 0 0
268 1 5.721954769403136 4.582212044583386 9.060753023053682 0 0 0
155 1 22.603568669234555 0.9085038442891367 5.700455888793213 0 0 0
390 1 5.557738767088822 2.7847458210186753 10.600891746655611 0 0 0
396 1 7.387586555312199 2.4703897246794138 12.53284711816614 0 0 0
423 1 5.495494448736316 3.9082922064541172 12.830854073380298 0 0 0
425 1 7.636621048716614 4.220337183718234 10.964457542999662 0 0 0
561 1 14.094815838825259 4.659908427960494 13.565457030446682 0 0 0
494 1 12.592137731169924 12.071787400213399 10.899686767748209 0 0 0
394 1 9.077915768663326 2.46805283807687 10.996335564948211 0 0 0
400 1 10.743385220550419 2.407086170544345 12.155763388968372 0 0 0
427 1 8.908470530221512 4.2889913793436705 12.606935376873935 0 0 0
429 1 10.60773485604409 4.183648919879607 11.094177984920833 0 0 0
1289 1 7.153696029168244 14.021335437709979 7.652960838679163 0 0 0
431 1 12.440920940015324 4.23754725999602 12.277613353145373 0 0 0
398 1 12.583162695335327 2.4916938364654966 10.51308324859773 0 0 0
404 1 13.699084716795257 2.3379342895467445 12.580433440176282 0 0 0
433 1 13.80101038106877 4.272028476145387 10.996594597312997 0 0 0
435 1 15.824701903304556 4.022763678227673 12.774033206359858 0 0 0
402 1 15.46929815224297 2.7474248038581672 11.197239379420058 0 0 0
1027 1 2.1766237664449464 14.054537314295997 2.08646986443845 0 0 0
406 1 18.862503514262414 2.6704116982463955 10.649209467570838 0 0 0
408 1 17.276624456248513 2.2885568886472925 12.14098938894802 0 0 0
437 1 17.19523749145027 4.456656035172712 11.01142114623206 0 0 0
439 1 18.791734499065313 4.12012168648989 12.55998088296413 0 0 0
499 1 15.896020237926018 11.019589547157809 12.582914910484932 0 0 0
410 1 22.544784699141466 2.9393541498117455 11.009237960742828 0 0 0
412 1 20.66982478238696 2.7307934941557876 12.325188462211932 0 0 0
441 1 20.752264639516135 4.760001153648503 11.017909624324565 0 0 0
443 1 22.396502307029245 4.157632681032361 12.76674392298598 0 0 0
1561 1 20.935243575918882 14.091511648758235 13.973838451303093 0 0 0
1297 1 14.020114593010426 14.088732692000987 7.877903623976848 0 0 0
413 1 24.00338358664348 0.9263821360260274 11.241096095278717 0 0 0
445 1 24.050049583403755 4.200781377422705 10.781055063642256 0 0 0
416 1 23.938264229551194 2.7038872511578877 12.767041850896783 0 0 0
414 1 25.514369623791225 2.415125770277064 10.830958428740319 0 0 0
447 1 25.76924357108141 4.114699009715958 12.075305228106242 0 0 0
81 1 14.128661838107186 7.572624646255457 0.9750058180527165 0 0 0
33 1 27.43806098748503 4.0171958541172685 1.1331806685153474 -1 0 0
976 1 9.37891147380532 9.409143613270624 0.833234464374157 0 0 1
424 1 4.151820102395725 5.5875842773819455 13.022221298832193 0 0 0
418 1 2.326084639241868 5.733063839961593 10.93156233513442 0 0 0
451 1 2.5180612260759387 7.133999297936244 12.54233084601225 0 0 0
453 1 4.043977182321217 7.278822976075959 10.893072202107701 0 0 0
450 1 2.3750039947630004 8.915379092494112 10.722667064526496 0 0 0
456 1 4.01893793192493 8.885305664238501 12.21597032411796 0 0 0
452 1 27.315338659068154 8.96539437964137 12.7111686698178 -1 0 0
449 1 0.9750500903246784 7.4002371619057365 10.942336319972082 0 0 0
106 1 9.249962378206163 12.582211681935526 0.9281952821081624 0 0 0
327 1 5.662470202281121 7.218615762819547 9.30738866952193 0 0 0
1303 1 19.26729742471325 13.997114351159171 9.402132792429407 0 0 0
428 1 7.2771447622076115 5.658468543517579 12.540239555502668 0 0 0
454 1 5.809059790051798 9.05649476084864 10.96471885925578 0 0 0
422 1 5.607705431526669 5.615407317640378 11.09702014211984 0 0 0
455 1 5.825036349687298 7.349459390710214 12.661048360732629 0 0 0
457 1 7.664038887296291 7.379182893564554 11.267840176316401 0 0 0
460 1 7.390838980330061 8.931304115292184 12.692959317896177 0 0 0
1299 1 15.829946560205142 14.049189632443346 9.192439631027531 0 0 0
426 1 9.146157432783776 5.802742265915343 10.642879570774705 0 0 0
432 1 10.714719596325821 5.546015838600761 12.569121526294266 0 0 0
459 1 9.08718771826861 7.102112293867389 12.812053621164814 0 0 0
461 1 10.707662915160652 7.430790009915503 10.90585762907594 0 0 0
464 1 10.39460136582295 8.969068363818902 12.602890168332312 0 0 0
458 1 8.71890939735676 9.201446413641134 10.928713994030181 0 0 0
94 1 26.14443362488666 9.502500428730258 0.8940628324662737 0 0 0
1159 1 5.913704228437743 14.121545896991679 5.4824909869990135 0 0 0
13 1 11.461582096535963 0.8032349736435336 1.127129253627675 0 0 0
462 1 12.659116151973471 9.581740187057152 10.677690415171975 0 0 0
463 1 12.18270431891246 7.791490423471489 12.725829188285921 0 0 0
430 1 12.683342116535838 6.099215255058853 10.789293062725157 0 0 0
436 1 13.970410900859592 6.290025276725476 12.55371343588327 0 0 0
312 1 13.930937707531942 7.600989895570985 10.77408176426083 0 0 0
468 1 14.515186741115562 9.241620563 12.3363744809644 0 0 0
382 1 0.9672995172007575 13.84056521844586 7.4007014455394895 1 0 0
407 1 19.09816139176023 1.465360405974994 12.504186084023134 0 0 0
466 1 15.986705974897292 9.216628344376776 10.701068721220542 0 0 0
467 1 15.770447654229137 7.353579763964488 12.539281100651683 0 0 0
434 1 15.359875568560604 5.8263320950042905 10.898655390880533 0 0 0