LAMMPS (29 Oct 2020)
OMP_NUM_THREADS environment is not set. Defaulting to 1 thread. (src/comm.cpp:94)
  using 1 OpenMP thread(s) per MPI task
package omp 0
using multi-threaded neighbor list subroutines
package omp 2
set 2 OpenMP thread(s) per MPI task
using multi-threaded neighbor list subroutines
units metal  #<----->
dimension 3
boundary p p p

lattice fcc 3.5440
Lattice spacing in x,y,z = 3.5440000 3.5440000 3.5440000
region box block 0 8 0 8 0 8 units lattice
create_box 1 box
Created orthogonal box = (0.0000000 0.0000000 0.0000000) to (28.352000 28.352000 28.352000)
  1 by 2 by 2 MPI processor grid
create_atoms 1 box
Created 2048 atoms
  create_atoms CPU = 0.002 seconds

# # read_restart after_heating_press_500000_4200.lmp  #<----->
# read_restart after_cooling_press_500000_2300.lmp

variable P equal 800000     #<----->
variable dt equal 0.001
variable loopVar loop 6
variable sys_press equal "press/10000"

variable sim string "heating"  #<----->
# variable sim string "cooling"



pair_style eam/alloy
pair_coeff * * Co_Zhou04.eam.alloy Co
Reading eam/alloy potential file Co_Zhou04.eam.alloy with DATE: 2018-03-30




neighbor 2 bin
neigh_modify every 10 check yes

thermo 1000
thermo_style custom step temp vol press ke pe density

timestep $(dt)
timestep 0.0010000000000000000208



velocity all create 4800 123123 #<----->

print """
yo aagadi
"""

yo aagadi

label ensemble

print """
Label pachadi solti, hos garam.
"""

Label pachadi solti, hos garam.

variable T equal 4700+${loopVar}*100  #<----->
variable T equal 4700+1*100  
# variable T equal 2250


reset_timestep 0
fix 1 all npt temp $T $T $(dt*100) iso $P $P $(dt*1000)
fix 1 all npt temp 4800 $T $(dt*100) iso $P $P $(dt*1000)
fix 1 all npt temp 4800 4800 $(dt*100) iso $P $P $(dt*1000)
fix 1 all npt temp 4800 4800 0.10000000000000000555 iso $P $P $(dt*1000)
fix 1 all npt temp 4800 4800 0.10000000000000000555 iso 800000 $P $(dt*1000)
fix 1 all npt temp 4800 4800 0.10000000000000000555 iso 800000 800000 $(dt*1000)
fix 1 all npt temp 4800 4800 0.10000000000000000555 iso 800000 800000 1
print """
<--------------------------------------------------------------------->
<------------------ Equilibrating at temperature $T ----------------->
<--------------------------------------------------------------------->
"""

<--------------------------------------------------------------------->
<------------------ Equilibrating at temperature 4800 ----------------->
<--------------------------------------------------------------------->

fix temp all print 1000 "$(step) $(temp) $(press) ${sys_press} $(vol) $(ke) $(pe) $(density)" file temp_${sim}.txt screen no title  "step temp press pressGiga vol ke pe density"
fix temp all print 1000 "$(step) $(temp) $(press) ${sys_press} $(vol) $(ke) $(pe) $(density)" file temp_heating.txt screen no title  "step temp press pressGiga vol ke pe density"
run 250000
Last active /omp style is pair_style eam/alloy/omp
Neighbor list info ...
  update every 10 steps, delay 10 steps, check yes
  max neighbors/atom: 2000, page size: 100000
  master list distance cutoff = 7.6035394
  ghost atom cutoff = 7.6035394
  binsize = 3.8017697, bins = 8 8 8
  1 neighbor lists, perpetual/occasional/extra = 1 0 0
  (1) pair eam/alloy/omp, perpetual
      attributes: half, newton on, omp
      pair build: half/bin/atomonly/newton/omp
      stencil: half/bin/3d/newton
      bin: standard
Per MPI rank memory allocation (min/avg/max) = 4.354 | 4.354 | 4.354 Mbytes
Step Temp Volume Press KinEng PotEng Density 
       0         4800    22790.356    67204.154    1270.0585    -9015.757        8.794 
    1000    4681.4338    19340.117    802105.19    1238.6864   -7162.5143    10.362832 
    2000    4835.6227    19532.832    799094.74    1279.4841   -7054.6842     10.26059 
    3000     4832.648     19760.52    796077.53     1278.697    -6903.485    10.142364 
    4000    4852.5661    19711.809    807129.26    1283.9672   -6882.3842    10.167427 
    5000    4779.1584    19746.241     800870.9    1264.5439   -6893.5042    10.149698 
    6000    4860.1124    19721.165    802283.17    1285.9639   -6898.6351    10.162604 
    7000    4769.8633     19727.84    794974.68    1262.0845   -6938.5962    10.159165 
    8000    4766.8488    19758.148    796919.43    1261.2868   -6901.3603    10.143582 
    9000    4956.6964    19731.579    808530.73    1311.5196   -6871.0635     10.15724 
   10000     4740.588    19838.958    774090.83    1254.3383   -6958.2412    10.102264 
   11000    4896.7212    19737.369    796045.44    1295.6505    -6929.317     10.15426 
   12000    4800.8158    19623.478    822915.87    1270.2743   -6860.0111    10.213194 
   13000    4909.9973    19734.913    800659.27    1299.1633   -6909.5225    10.155524 
   14000    4681.9823    19758.332    794593.29    1238.8315    -6906.362    10.143487 
   15000    4531.5912    19751.754    783215.05    1199.0387   -6958.8661    10.146865 
   16000    4856.5455    19725.257    800534.71    1285.0202   -6906.2375    10.160496 
   17000    4743.6074    19793.856    794622.53    1255.1372   -6883.1322    10.125283 
   18000    4776.9309    19717.404    805778.87    1263.9545   -6880.0007    10.164542 
   19000    4818.2488    19745.434    801255.49     1274.887    -6880.114    10.150113 
   20000    4830.9414    19801.404    779846.83    1278.2454   -6960.1798    10.121423 
   21000    4994.1566    19668.275    820894.38    1321.4314   -6858.4433    10.189932 
   22000    4819.5892     19701.44    806987.92    1275.2417   -6893.8665    10.172778 
   23000    4750.7878    19838.853    788616.51    1257.0372   -6892.6261    10.102317 
   24000    4804.2691    19710.908    805717.33    1271.1881   -6897.2089    10.167892 
   25000     4829.914    19794.068    795158.04    1277.9736   -6890.7896    10.125174 
   26000    4635.5153     19815.02    781635.42    1226.5366   -6928.6227    10.114468 
   27000    4760.4764    19789.522    787312.05    1259.6007   -6936.5928      10.1275 
   28000    4786.3169    19701.249    810561.67     1266.438   -6877.9517    10.172877 
   29000    4653.0695    19663.799    810274.95    1231.1813   -6895.4212    10.192252 
   30000    4695.2988    19782.605    789370.15     1242.355   -6915.9917    10.131041 
   31000    4888.3282    19774.913    792749.73    1293.4297   -6915.7249    10.134982 
   32000    4782.8415    19739.157    799150.04    1265.5184   -6906.5961    10.153341 
   33000     4637.388    19672.366    809211.97    1227.0321   -6889.9218    10.187813 
   34000    4802.8793    19779.449    788672.87    1270.8203   -6934.8248    10.132658 
   35000    4810.7598      19702.6    814660.99    1272.9055   -6857.5916     10.17218 
   36000    4777.2354    19755.292    806860.65    1264.0351   -6856.5434    10.145048 
   37000    4757.8255    19728.215    801254.53    1258.8993   -6910.7449    10.158972 
   38000    4653.9043    19777.096    781842.41    1231.4022   -6961.1562    10.133863 
   39000    4881.6469    19656.664     821038.1    1291.6619   -6857.2909    10.195951 
   40000    4666.0648    19713.268     804973.7    1234.6198   -6882.6998    10.166675 
   41000    4824.5794    19795.254    780682.88    1276.5621   -6965.7771    10.124567 
   42000    4844.6293    19722.739    802183.04    1281.8672   -6905.5219    10.161793 
   43000    4866.4275    19741.007    802154.67    1287.6349   -6896.0714    10.152389 
   44000    4613.1136    19755.867    789765.77    1220.6092   -6930.7585    10.144753 
   45000     4832.803    19743.878    801513.79     1278.738   -6894.9489    10.150913 
   46000    4830.6108    19772.648     793478.1     1278.158   -6912.5647    10.136143 
   47000    4665.0608    19775.814    793414.03    1234.3542   -6901.7887     10.13452 
   48000    4942.9949    19657.712    813885.06    1307.8943   -6892.3303    10.195408 
   49000    4849.5865    19710.495    811368.17    1283.1788   -6876.2589    10.168105 
   50000    4836.0667    19808.184    788585.97    1279.6016   -6917.4812    10.117959 
   51000    4741.2772    19743.087    798970.16    1254.5207   -6901.6082     10.15132 
   52000     4676.848    19673.479    807628.35     1237.473   -6891.4104    10.187237 
   53000    4757.9063     19628.76    824764.78    1258.9207   -6847.1787    10.210446 
   54000    4929.6296    19804.209    788404.95    1304.3579   -6928.7254     10.11999 
   55000     4746.435    19762.662    787068.27    1255.8854   -6937.0022    10.141265 
   56000    4912.0856    19824.812    782740.75    1299.7158   -6941.2461    10.109472 
   57000    4794.0261    19743.984    798912.46    1268.4778   -6906.3788    10.150858 
   58000    4810.5586    19754.613    794920.19    1272.8522   -6916.8148    10.145397 
   59000    4709.7703    19656.926    806781.66    1246.1841   -6913.9084    10.195815 
   60000    4775.9491    19661.911    812059.61    1263.6947   -6892.8203    10.193231 
   61000    4882.5584    19721.388    804049.35    1291.9031   -6904.8531    10.162489 
   62000    4582.7943    19887.296    770176.67    1212.5868   -6936.9219    10.077709 
   63000    4796.7429    19700.812    802012.71    1269.1967   -6920.5561    10.173103 
   64000    4936.2292    19655.429    817889.46    1306.1041    -6883.783    10.196592 
   65000    4848.5929    19736.459    797821.56    1282.9159   -6909.6167    10.154729 
   66000    4798.6502    19795.871    786572.22    1269.7013   -6928.3297    10.124252 
   67000    4885.3438    19705.862    814680.78    1292.6401   -6849.6829    10.170496 
   68000    4901.0597    19725.466    798975.44    1296.7984   -6921.5235    10.160388 
   69000    4718.3964    19758.933    789152.34    1248.4665   -6936.8407    10.143178 
   70000     4887.207    19763.776    797357.95    1293.1331   -6907.6224    10.140693 
   71000     4893.437    19718.682     799618.1    1294.7815   -6932.4826    10.163884 
   72000    4710.6404    19756.278    795656.59    1246.4143   -6905.8453    10.144542 
   73000    4782.9404    19749.161       800975    1265.5446   -6888.0518    10.148197 
   74000    4706.0128     19675.47    814183.98    1245.1899    -6858.517    10.186206 
   75000    4784.2387    19780.842    786330.07    1265.8881   -6944.6825    10.131944 
   76000    4697.0725    19729.573     802851.2    1242.8243   -6890.0034    10.158273 
   77000    4765.1028    19759.171    804625.65    1260.8248   -6862.5148    10.143057 
   78000    4735.0492    19707.463    803788.71    1252.8728   -6897.4647     10.16967 
   79000    4890.8384    19753.744    800451.07    1294.0939   -6894.0656    10.145843 
   80000    4785.7271    19686.153    799524.78    1266.2819   -6938.7189    10.180678 
   81000    4807.4818    19716.156    801921.77    1272.0381   -6903.0189    10.165186 
   82000    4837.7303     19846.77    791871.44    1280.0418    -6875.761    10.098288 
   83000    4631.6795    19720.355    806575.82    1225.5216   -6869.5315    10.163021 
   84000    4862.2854    19699.546    820267.94    1286.5389    -6829.847    10.173757 
   85000    4687.3155    19767.984    791101.36    1240.2427    -6913.971    10.138534 
   86000    4791.4641    19771.537    789453.33    1267.7999   -6932.5731    10.136712 
   87000    4626.9329    19722.327    797067.92    1224.2657   -6910.7097    10.162005 
   88000    4869.2604    19633.014    823448.37    1288.3845    -6870.401    10.208233 
   89000    4562.5012     19679.08    817337.97    1207.2174   -6833.0954    10.184337 
   90000     4758.007    19824.061    786920.43    1258.9473   -6908.1771    10.109855 
   91000    4835.1991     19711.46    809196.64     1279.372   -6871.7847    10.167607 
   92000    4980.7184     19675.27    810086.77    1317.8758   -6910.4801     10.18631 
   93000      4738.51    19755.577    797054.81    1253.7885   -6902.0857    10.144902 
   94000    4948.4879    19823.158    785801.25    1309.3477   -6933.6298    10.110316 
   95000    4778.5991    19676.793    816692.97    1264.3959   -6862.1942    10.185521 
   96000    4800.6359    19687.313    810460.35    1270.2267   -6891.8432    10.180078 
   97000    4711.4545    19806.379       785691    1246.6297   -6928.4014    10.118881 
   98000    4729.8282    19685.398    808270.31    1251.4913   -6885.2874    10.181069 
   99000    4968.2051    19683.655    813088.14    1314.5648   -6892.1379     10.18197 
  100000    4786.9293    19729.209    796262.18       1266.6   -6923.4302     10.15846 
  101000    4782.6814     19718.54    805245.18    1265.4761   -6891.5905    10.163957 
  102000     4890.033     19632.44    819536.16    1293.8808   -6884.9504    10.208532 
  103000    4752.7886    19769.508    791947.85    1257.5665   -6913.4731    10.137753 
  104000    4767.3797    19808.961    783760.71    1261.4273   -6935.0698    10.117562 
  105000    4772.2177    19783.413    791593.58    1262.7074   -6916.5089    10.130627 
  106000    4830.2739    19739.574    796783.75    1278.0688   -6919.8552    10.153126 
  107000    4828.7235    19724.664    801265.12    1277.6586   -6908.8591    10.160801 
  108000    4803.8249    19855.046    776518.77    1271.0705   -6942.7181    10.094078 
  109000    4887.3662     19735.48    797071.65    1293.1752   -6930.6736    10.155232 
  110000     4678.901    19685.167    822120.74    1238.0162   -6813.1028    10.181188 
  111000    4780.2411    19758.721    790882.69    1264.8304   -6926.2316    10.143287 
  112000    4917.6823    19803.059    785311.01    1301.1967   -6939.6448    10.120577 
  113000    4884.6994    19606.362    821975.36    1292.4696   -6877.0479     10.22211 
  114000     4755.632    19779.614     792658.5    1258.3189   -6909.7585    10.132573 
  115000    4802.3616     19735.66    793758.29    1270.6834   -6934.8239     10.15514 
  116000    4740.3472     19656.22     815938.2    1254.2746   -6869.2159    10.196182 
  117000    4792.1942    19742.579     803336.4    1267.9931   -6881.4389    10.151581 
  118000    4821.4147    19742.596    797982.88    1275.7247   -6912.7513    10.151572 
  119000    4882.9004    19690.864    802961.05    1291.9936   -6916.8755    10.178242 
  120000    4801.0994    19826.944    784449.36    1270.3494   -6918.1775    10.108385 
  121000    4927.3268    19790.427    791121.59    1303.7486   -6915.1187    10.127037 
  122000    4917.7665    19720.346    807693.52     1301.219   -6879.9069    10.163026 
  123000    4839.9281    19722.758    805472.14    1280.6233   -6886.1671    10.161783 
  124000    4996.3121    19716.384    802997.78    1322.0018   -6912.4681    10.165068 
  125000    4628.8874    19820.751    779977.36    1224.7828   -6941.1259    10.111543 
  126000    4719.0164    19720.115     806294.6    1248.6306   -6879.3673    10.163145 
  127000    4791.2664    19643.378    811372.46    1267.7476   -6915.5136    10.202847 
  128000    4844.5635    19686.514     810807.7    1281.8498   -6888.1272    10.180492 
  129000    4727.3047    19791.502    793226.31    1250.8236   -6897.7154    10.126487 
  130000    4839.8211    19801.397    779719.05     1280.595   -6965.6154    10.121427 
  131000    4767.9513    19706.498    811887.49    1261.5786   -6859.4511    10.170168 
  132000       4668.3    19722.693    803594.46    1235.2112    -6888.164    10.161816 
  133000     4620.628    19806.031    787374.26    1222.5975    -6909.231    10.119058 
  134000    4884.2401    19709.337    807409.66     1292.348   -6888.5949    10.168703 
  135000    4665.4245    19626.107    810699.85    1234.4504   -6914.5581    10.211826 
  136000    4832.8906    19783.895    788923.03    1278.7612   -6929.2157     10.13038 
  137000    4963.3611    19706.194     808823.1    1313.2831   -6894.2524    10.170324 
  138000    4677.9542    19678.919    802908.61    1237.7657    -6911.885    10.184421 
  139000     4815.057    19860.564    773980.44    1274.0425   -6951.9147    10.091274 
  140000    4750.9049    19761.776    792730.52    1257.0681   -6926.9984    10.141719 
  141000    4739.9997    19661.746    813428.41    1254.1827   -6877.2127    10.193316 
  142000    4880.5642    19744.588    794233.66    1291.3754   -6941.5607    10.150548 
  143000     4835.765    19763.629    792916.42    1279.5217   -6928.5249    10.140769 
  144000    4836.6079    19716.892    802038.87    1279.7448   -6906.8482    10.164806 
  145000    4796.1928    19814.373    791284.23    1269.0511   -6883.1483    10.114798 
  146000    4768.0685      19748.5     791361.9    1261.6095   -6929.7154    10.148537 
  147000    4805.8478    19701.732    804528.71    1271.6058   -6905.1845    10.172628 
  148000    4838.3755    19684.902    820636.84    1280.2125   -6836.9699    10.181325 
  149000    4632.3604    19772.424    782315.67    1225.7018   -6960.2968    10.136258 
  150000    4843.6325     19733.27    797357.09    1281.6034   -6920.9386     10.15637 
  151000    4803.1317    19606.983    827847.86    1270.8871   -6846.2948    10.221786 
  152000    4718.0623    19769.755    790240.74    1248.3781   -6932.4902    10.137626 
  153000    5054.2768    19825.339     790321.5     1337.339   -6914.5206    10.109203 
  154000    4801.1376    19676.024    816905.54    1270.3595   -6861.0802    10.185919 
  155000    4903.9391    19804.677     787241.2    1297.5603   -6930.1329    10.119751 
  156000    4760.2851    19725.623    793955.07    1259.5501   -6941.5571    10.160307 
  157000    4754.7777    19761.554    799947.67    1258.0929   -6877.9214    10.141833 
  158000     4787.057    19707.453    797627.35    1266.6338   -6932.0137    10.169675 
  159000    4891.8586    19679.932    814581.16    1294.3639   -6872.7476    10.183896 
  160000    4738.0103    19733.783    800522.11    1253.6563   -6899.0117    10.156106 
  161000    4708.7072    19796.847    787779.47    1245.9028   -6919.0094    10.123753 
  162000    4859.6957    19757.143    803622.82    1285.8537   -6876.3199    10.144097 
  163000    4750.9854    19687.563    797190.19    1257.0894   -6946.9093    10.179949 
  164000    4866.4988    19680.454    812940.35    1287.6538    -6886.342    10.183626 
  165000    4804.8413    19685.452    808600.75    1271.3395   -6895.5009     10.18104 
  166000    4908.8272     19895.11    775574.57    1298.8537   -6930.2404    10.073751 
  167000     4799.516    19797.511    783524.73    1269.9304   -6946.6863    10.123413 
  168000     4840.129    19638.214    821035.92    1280.6764   -6869.7901     10.20553 
  169000    4737.6543    19744.519    803330.17    1253.5621   -6871.7257    10.150583 
  170000    4965.4007    19767.393    791064.53    1313.8228   -6941.8357    10.138838 
  171000    4890.8647    19793.374    789801.12    1294.1009   -6931.6972    10.125529 
  172000    4853.7974    19709.956    803048.14     1284.293   -6910.6663    10.168383 
  173000      4690.34    19773.212    794897.69    1241.0429   -6892.8045    10.135854 
  174000    4954.2529    19780.258    798213.04    1310.8731    -6894.834    10.132243 
  175000    4967.3302    19681.461    819379.91    1314.3333   -6853.8373    10.183105 
  176000    4746.3856    19769.636    791268.44    1255.8724   -6925.8361    10.137687 
  177000     4896.933    19844.316    787456.05    1295.7065   -6902.6743    10.099536 
  178000    4684.6849    19691.386    815762.48    1239.5466   -6847.6379    10.177972 
  179000      4909.52    19706.946    813898.63     1299.037   -6862.2808    10.169936 
  180000    4726.6992      19710.2    800368.93    1250.6634   -6910.2798    10.168257 
  181000    4788.7248    19762.464    794082.74    1267.0751   -6915.0928    10.141366 
  182000    4796.6917    19674.069    824775.73    1269.1831   -6820.5526    10.186931 
  183000    4773.3033    19780.772    790785.14    1262.9946   -6914.3199     10.13198 
  184000    4612.4375    19719.004    798250.62    1220.4303   -6922.1038    10.163717 
  185000    4924.4198    19749.842    796598.22    1302.9794   -6922.3617    10.147847 
  186000    4901.1772    19712.519    798969.99    1296.8295   -6932.1663    10.167061 
  187000    4563.1403    19748.074    799160.91    1207.3865    -6882.809    10.148756 
  188000    4839.4546    19689.827    807959.36     1280.498   -6891.4803    10.178779 
  189000    4789.9564    19714.294    799550.88     1267.401   -6917.7835    10.166146 
  190000    4737.4879     19757.88    792976.26    1253.5181   -6923.6723    10.143719 
  191000    4783.1118    19809.954    787772.27    1265.5899   -6921.7581    10.117054 
  192000     4834.086    19702.979    817867.74    1279.0775   -6842.5477    10.171984 
  193000    4851.7292    19658.665    808054.61    1283.7458   -6913.5637    10.194913 
  194000    4767.3274    19833.154    786470.05    1261.4134   -6903.2823     10.10522 
  195000    4838.0815    19743.503    801263.65    1280.1347   -6895.7051    10.151106 
  196000    4686.9798    19632.509    825460.78    1240.1538   -6838.2682    10.208496 
  197000    4622.5795    19695.647    801119.65    1223.1138   -6911.5791     10.17577 
  198000    4802.1907    19675.242    811494.76    1270.6381   -6883.4637    10.186324 
  199000    4765.6662    19703.938    797927.77    1260.9739   -6930.2555    10.171489 
  200000    4739.4725    19711.102    805755.55    1254.0432    -6885.164    10.167792 
  201000     4875.624    19616.859    827592.27    1290.0683   -6849.2377     10.21664 
  202000    4765.9336    19665.335    810189.11    1261.0447   -6896.0333    10.191455 
  203000     4874.869    19746.193    797453.46    1289.8685   -6913.9917    10.149723 
  204000      4803.64    19738.543    792955.96    1271.0216     -6938.78    10.153657 
  205000    4953.3077    19760.734    795054.65     1310.623   -6921.5476    10.142254 
  206000    4771.0116    19728.601    808211.29    1262.3883   -6867.1192    10.158773 
  207000    4819.8134    19748.717    795561.29     1275.301   -6919.4684    10.148425 
  208000    4709.6995    19702.792    806812.38    1246.1654   -6888.3172     10.17208 
  209000    4766.3428    19776.115    800190.59    1261.1529   -6872.6645    10.134366 
  210000    4969.0425    19704.018    810763.21    1314.7864   -6884.9956    10.171448 
  211000    4694.6094    19713.228    807712.33    1242.1726   -6870.0613    10.166696 
  212000    4780.1044    19831.402    788241.37    1264.7942   -6895.3018    10.106113 
  213000     4822.264    19717.936    800105.93    1275.9494   -6918.1175    10.164268 
  214000    4786.7004    19785.561       794367    1266.5395   -6899.8513    10.129528 
  215000    4961.2776    19704.456    812514.47    1312.7318   -6874.1073    10.171221 
  216000    4714.1694     19638.69    819928.63    1247.3481   -6855.9067    10.205283 
  217000    4770.5983    19765.192    792678.46    1262.2789   -6918.9751    10.139966 
  218000     4768.875    19774.511     796756.2    1261.8229   -6892.3221    10.135188 
  219000    4882.3974    19799.739    791479.51    1291.8605   -6903.0873    10.122274 
  220000    4574.4835    19766.717     795059.5    1210.3878   -6890.2171    10.139184 
  221000    4833.0205    19625.664    828421.69    1278.7956   -6837.7611    10.212056 
  222000    4826.3407    19697.227    809953.33    1277.0281   -6881.7627    10.174954 
  223000    4706.8436    19882.876       773970    1245.4097   -6933.8867     10.07995 
  224000    4749.0631    19729.706    801621.28    1256.5808   -6894.4572    10.158204 
  225000    4807.7688    19790.158    796821.74    1272.1141   -6889.6288    10.127175 
  226000    4724.4552    19696.922     807484.8    1250.0697   -6891.4507    10.175112 
  227000    4724.3781    19776.375    793335.22    1250.0493   -6900.8425    10.134233 
  228000    4802.7297    19705.549    802392.85    1270.7807   -6919.4266    10.170657 
  229000    4782.5271    19750.193    789948.15    1265.4352   -6947.1955    10.147667 
  230000     4690.539    19756.485     800442.1    1241.0956   -6888.3175    10.144436 
  231000    4823.5055    19660.082    823454.83    1276.2779   -6833.6315    10.194178 
  232000    4778.0705    19792.878    788891.94     1264.256   -6918.3091    10.125783 
  233000    4777.3695    19680.174    805510.92    1264.0706   -6910.2086    10.183771 
  234000    4817.4631    19700.702    815240.49    1274.6791   -6847.6941     10.17316 
  235000    4804.3963    19721.385    795576.24    1271.2217    -6940.264     10.16249 
  236000    4728.0066     19892.09     770872.5    1251.0094   -6941.5425    10.075281 
  237000     4821.071    19734.702     803781.9    1275.6338   -6889.9534    10.155633 
  238000    4719.1365    19671.741    813358.47    1248.6624   -6874.6269    10.188137 
  239000    4896.0998    19811.865    791969.25     1295.486   -6904.4068    10.116079 
  240000    4653.7748    19862.872    777137.46    1231.3679    -6923.272    10.090101 
  241000     4786.509    19674.264    814415.44    1266.4888   -6867.4256     10.18683 
  242000     4733.852     19700.21     810071.3     1252.556   -6867.6713    10.173414 
  243000    4759.3346    19729.071    796442.96    1259.2986   -6927.0596    10.158531 
  244000    4768.9849    19675.998     807879.8     1261.852   -6898.4855    10.185932 
  245000    4818.2752    19732.609     807689.9     1274.894   -6860.3708     10.15671 
  246000    4747.4269    19744.684     798472.4    1256.1479      -6898.5    10.150498 
  247000    4930.5056    19773.599    789750.67    1304.5897   -6938.6109    10.135655 
  248000    4725.5407    19719.203    798195.27    1250.3569   -6926.7391    10.163615 
  249000    4989.0844    19641.167    827256.59    1320.0894   -6844.3812    10.203996 
  250000     4796.688    19730.824    796700.17    1269.1821   -6924.4723    10.157629 
Loop time of 517.764 on 8 procs for 250000 steps with 2048 atoms

Performance: 41.718 ns/day, 0.575 hours/ns, 482.846 timesteps/s
126.2% CPU use with 4 MPI tasks x 2 OpenMP threads

MPI task timing breakdown:
Section |  min time  |  avg time  |  max time  |%varavg| %total
---------------------------------------------------------------
Pair    | 314.23     | 318.07     | 322.7      |  17.4 | 61.43
Neigh   | 6.1354     | 6.3229     | 6.4144     |   4.4 |  1.22
Comm    | 21.047     | 26.058     | 30.374     |  66.5 |  5.03
Output  | 0.0059719  | 0.011237   | 0.012996   |   2.9 |  0.00
Modify  | 166        | 166.31     | 166.61     |   1.7 | 32.12
Other   |            | 0.9954     |            |       |  0.19

Nlocal:        512.000 ave         516 max         506 min
Histogram: 1 0 0 0 0 0 0 2 0 1
Nghost:        3083.00 ave        3089 max        3079 min
Histogram: 1 1 0 0 0 1 0 0 0 1
Neighs:        48400.8 ave       50355 max       47050 min
Histogram: 1 0 1 0 1 0 0 0 0 1

Total # of neighbors = 193603
Ave neighs/atom = 94.532715
Neighbor list builds = 6666
Dangerous builds = 0


# fix 132 all momentum 100 linear 1 1 1 angular
fix out_file_1 all print 1000 "$(step) $(temp) $(press) ${sys_press} $(vol) $(ke) $(pe) $(density)" file one_phase_${sim}_press_$P_$T_.txt screen no title  "step temp press pressGiga vol ke pe density"
fix out_file_1 all print 1000 "$(step) $(temp) $(press) ${sys_press} $(vol) $(ke) $(pe) $(density)" file one_phase_heating_press_$P_$T_.txt screen no title  "step temp press pressGiga vol ke pe density"
fix out_file_1 all print 1000 "$(step) $(temp) $(press) ${sys_press} $(vol) $(ke) $(pe) $(density)" file one_phase_heating_press_800000_$T_.txt screen no title  "step temp press pressGiga vol ke pe density"
fix out_file_1 all print 1000 "$(step) $(temp) $(press) ${sys_press} $(vol) $(ke) $(pe) $(density)" file one_phase_heating_press_800000_4800_.txt screen no title  "step temp press pressGiga vol ke pe density"

# dump 3 all custom 1000 traj_npt_new.lammpstrj id type x y z
run 50000
Last active /omp style is pair_style eam/alloy/omp
Per MPI rank memory allocation (min/avg/max) = 4.355 | 4.355 | 4.355 Mbytes
Step Temp Volume Press KinEng PotEng Density 
  250000     4796.688    19730.824    796700.17    1269.1821   -6924.4723    10.157629 
  251000    4773.2258    19840.075    787865.15    1262.9742    -6894.819    10.101695 
  252000    4859.7687    19742.745    793973.47     1285.873   -6938.8306    10.151495 
  253000    4945.5524    19825.899    785835.29     1308.571   -6924.1495    10.108918 
  254000     4883.802    19770.352    791874.38    1292.2321   -6934.3114     10.13732 
  255000    4887.5876    19662.175    821979.69    1293.2338    -6851.008    10.193093 
  256000    4722.3711    19761.406    799513.79    1249.5182   -6888.6378    10.141909 
  257000    4727.7507    19777.658    787625.34    1250.9417   -6930.8049    10.133575 
  258000    4628.1312    19664.588     808964.5    1224.5828    -6896.378    10.191842 
  259000    4909.4411    19758.828    797007.72    1299.0161   -6916.9854    10.143233 
  260000    4812.4066    19842.585    785527.47    1273.3412   -6910.6895    10.100417 
  261000     4771.732     19815.31    785667.87    1262.5789   -6916.1811     10.11432 
  262000    4873.1207    19756.045    793737.89    1289.4059   -6933.3008    10.144661 
  263000    4642.7984    19804.823     777460.1    1228.4637    -6954.945    10.119676 
  264000    4843.7612    19674.343    816234.35    1281.6375   -6868.8094    10.186789 
  265000    4838.5505    19732.047    806348.11    1280.2588   -6870.5701    10.156999 
  266000    4903.2525    19746.759    793675.51    1297.3786   -6934.5319    10.149432 
  267000    4516.2469    19692.307    801717.79    1194.9787   -6904.9994    10.177497 
  268000    4838.2886    19782.339    790027.66    1280.1895   -6920.5073    10.131178 
  269000    4838.9459    19694.414     816686.8    1280.3634   -6855.8609    10.176408 
  270000    4677.5898     19698.42     799622.5    1237.6693   -6923.9067    10.174338 
  271000    4836.7166    19814.517    785243.53    1279.7735   -6928.6332    10.114725 
  272000    4746.1204    19685.372    802373.19    1255.8022   -6921.2518    10.181082 
  273000     4756.628    19657.092    810655.72    1258.5824   -6900.6252    10.195729 
  274000    4790.0027    19766.963    793907.91    1267.4132    -6913.111    10.139058 
  275000    4988.5349    19761.127     799444.9     1319.944   -6901.5701    10.142053 
  276000    4933.2247    19674.728    813868.28    1305.3091   -6886.5536     10.18659 
  277000    4801.3501    19737.348    791385.83    1270.4157   -6941.9647    10.154271 
  278000    4708.3706    19761.619    793301.48    1245.8137   -6918.2998      10.1418 
  279000    4904.4507    19703.297    810949.55    1297.6957   -6878.5561     10.17182 
  280000     4746.488    19701.665    807793.41    1255.8995    -6873.409    10.172662 
  281000    4823.5748    19715.947    801784.69    1276.2963   -6913.6919    10.165294 
  282000    4775.6495     19806.54    793192.89    1263.6154   -6888.2462    10.118799 
  283000    4750.9532    19713.545    800520.43    1257.0809   -6909.8273    10.166532 
  284000    4781.5394      19767.3    794136.61    1265.1739   -6907.0122    10.138885 
  285000    4787.1281    19587.138    833306.72    1266.6526   -6841.8279    10.232142 
  286000    4772.4688    19763.788    794023.65    1262.7738   -6910.7302    10.140687 
  287000    4730.2286    19682.856    804429.16    1251.5973   -6910.7091    10.182384 
  288000    4740.7846    19715.056    813561.64    1254.3903   -6848.6589    10.165753 
  289000    4623.4013    19686.809    805841.77    1223.3312    -6901.758    10.180339 
  290000    4834.3915    19601.201    827637.95    1279.1583   -6856.0985    10.224802 
  291000    4864.6934    19722.574    801225.63    1287.1761   -6910.1097    10.161878 
  292000    4883.8822    19865.142    774110.44    1292.2533   -6953.2571    10.088948 
  293000    4780.5094    19705.986    807788.92    1264.9014   -6884.5637    10.170432 
  294000     4983.457    19670.504    807845.27    1318.6004   -6918.6675    10.188778 
  295000    4865.9018    19709.767    796722.84    1287.4958   -6940.5363    10.168481 
  296000    4954.2542    19731.385    805266.94    1310.8735   -6891.2128     10.15734 
  297000    4730.0704    19809.749    780949.09    1251.5554   -6941.3629    10.117159 
  298000    4862.7077    19703.428    804843.13    1286.6507   -6907.1333    10.171752 
  299000    4798.6008    19628.759    819589.93    1269.6883   -6883.7754    10.210446 
  300000    4785.1974    19744.691    790150.77    1266.1418   -6939.5038    10.150495 
Loop time of 109.766 on 8 procs for 50000 steps with 2048 atoms

Performance: 39.356 ns/day, 0.610 hours/ns, 455.513 timesteps/s
126.6% CPU use with 4 MPI tasks x 2 OpenMP threads

MPI task timing breakdown:
Section |  min time  |  avg time  |  max time  |%varavg| %total
---------------------------------------------------------------
Pair    | 66.961     | 67.688     | 68.5       |   6.7 | 61.67
Neigh   | 1.297      | 1.3289     | 1.3469     |   1.7 |  1.21
Comm    | 4.4886     | 5.3714     | 6.1865     |  26.3 |  4.89
Output  | 0.0013428  | 0.0023501  | 0.0026926  |   1.2 |  0.00
Modify  | 35.11      | 35.169     | 35.222     |   0.7 | 32.04
Other   |            | 0.2075     |            |       |  0.19

Nlocal:        512.000 ave         520 max         503 min
Histogram: 1 0 0 0 1 0 0 1 0 1
Nghost:        3109.75 ave        3125 max        3097 min
Histogram: 2 0 0 0 0 0 0 1 0 1
Neighs:        48311.5 ave       49957 max       46638 min
Histogram: 1 1 0 0 0 0 0 0 1 1

Total # of neighbors = 193246
Ave neighs/atom = 94.358398
Neighbor list builds = 1328
Dangerous builds = 0

unfix temp
unfix out_file_1


write_data after_${sim}_press_$P_$T.in
write_data after_heating_press_$P_$T.in
write_data after_heating_press_800000_$T.in
write_data after_heating_press_800000_4800.in
System init for write_data ...
Last active /omp style is pair_style eam/alloy/omp
write_restart after_${sim}_press_$P_$T.lmp
write_restart after_heating_press_$P_$T.lmp
write_restart after_heating_press_800000_$T.lmp
write_restart after_heating_press_800000_4800.lmp
System init for write_restart ...
Last active /omp style is pair_style eam/alloy/omp

next loopVar  #<----->
jump in.lmp ensemble

print """
Label pachadi solti, hos garam.
"""

Label pachadi solti, hos garam.

variable T equal 4700+${loopVar}*100  #<----->
variable T equal 4700+2*100  
# variable T equal 2250


reset_timestep 0
fix 1 all npt temp $T $T $(dt*100) iso $P $P $(dt*1000)
fix 1 all npt temp 4900 $T $(dt*100) iso $P $P $(dt*1000)
fix 1 all npt temp 4900 4900 $(dt*100) iso $P $P $(dt*1000)
fix 1 all npt temp 4900 4900 0.10000000000000000555 iso $P $P $(dt*1000)
fix 1 all npt temp 4900 4900 0.10000000000000000555 iso 800000 $P $(dt*1000)
fix 1 all npt temp 4900 4900 0.10000000000000000555 iso 800000 800000 $(dt*1000)
fix 1 all npt temp 4900 4900 0.10000000000000000555 iso 800000 800000 1
print """
<--------------------------------------------------------------------->
<------------------ Equilibrating at temperature $T ----------------->
<--------------------------------------------------------------------->
"""

<--------------------------------------------------------------------->
<------------------ Equilibrating at temperature 4900 ----------------->
<--------------------------------------------------------------------->

fix temp all print 1000 "$(step) $(temp) $(press) ${sys_press} $(vol) $(ke) $(pe) $(density)" file temp_${sim}.txt screen no title  "step temp press pressGiga vol ke pe density"
fix temp all print 1000 "$(step) $(temp) $(press) ${sys_press} $(vol) $(ke) $(pe) $(density)" file temp_heating.txt screen no title  "step temp press pressGiga vol ke pe density"
run 250000
Last active /omp style is pair_style eam/alloy/omp
Per MPI rank memory allocation (min/avg/max) = 4.355 | 4.355 | 4.355 Mbytes
Step Temp Volume Press KinEng PotEng Density 
       0    4785.1974    19744.691    790150.77    1266.1418   -6939.5038    10.150495 
    1000    4985.1584    19707.479    810542.28    1319.0506   -6881.0656    10.169661 
    2000    4814.9574    19847.406    787816.46    1274.0162   -6893.4986    10.097964 
    3000    4871.1812     19727.56    808573.66    1288.8927   -6879.2688     10.15931 
    4000    5040.2251    19658.488    827175.39     1333.621   -6843.4172    10.195005 
    5000    4998.1041     19790.09    802584.74    1322.4759   -6868.8518    10.127209 
    6000    4952.8433    19726.809    804219.65    1310.5001   -6902.4945    10.159696 
    7000    4789.6842    19820.301    789626.55     1267.329   -6895.9054    10.111773 
    8000    4883.5445    19777.189    794648.98     1292.164   -6910.4991    10.133816 
    9000    5035.4597    19745.885    802512.51    1332.3601   -6899.3577    10.149881 
   10000    5003.0214     19793.72    794556.86     1323.777   -6907.1365    10.125352 
   11000    4849.6494    19814.576    799073.95    1283.1955   -6864.7212    10.114695 
   12000    4785.7579    19752.926     802569.6    1266.2901   -6874.7013    10.146263 
   13000    4811.0205    19809.199    785199.35    1272.9745   -6928.7861     10.11744 
   14000    4978.9979    19826.172    795165.29    1317.4205   -6883.3696    10.108779 
   15000    5007.0613    19675.623    821957.26     1324.846   -6847.7492    10.186127 
   16000    4903.7632    19804.456    793183.83    1297.5138   -6901.4102    10.119863 
   17000    4722.0943    19809.269    792058.46     1249.445   -6887.2924    10.117404 
   18000    4795.7911    19764.787    804909.39    1268.9448   -6857.2059    10.140174 
   19000    4855.2506    19730.907    811748.27    1284.6775   -6855.5737    10.157586 
   20000    4702.4817    19803.926    790531.31    1244.2556   -6893.8607    10.120134 
   21000    5019.5496    19864.582    782013.31    1328.1503   -6925.1288    10.089232 
   22000    4927.9734     19682.68     820198.3    1303.9197   -6845.8346    10.182474 
   23000    4862.1191    19798.638    793368.76    1286.4949   -6893.8791    10.122837 
   24000    4884.9538     19846.34    788686.95    1292.5369    -6886.173    10.098506 
   25000    4983.9347    19705.638    810456.04    1318.7268   -6882.2647    10.170611 
   26000    4904.6099    19738.589    805724.14    1297.7378   -6884.2272    10.153633 
   27000    4810.0542      19810.1     804314.7    1272.7188    -6826.582     10.11698 
   28000    4889.4178    19746.983     806325.7     1293.718   -6876.9757    10.149317 
   29000    4789.9009    19711.702    809691.96    1267.3863   -6870.1041    10.167483 
   30000    4869.5028    19886.635     777517.3    1288.4486   -6916.3218    10.078044 
   31000    4926.4055    19791.266    796741.53    1303.5048   -6888.7376    10.126608 
   32000    4998.0466    19802.811    799112.53    1322.4607   -6874.2437    10.120704 
   33000     4892.175    19718.608    808111.39    1294.4476   -6881.3843    10.163922 
   34000    4884.8714    19815.903    797984.37    1292.5151   -6869.1568    10.114018 
   35000    4916.8896    19755.562    795378.36    1300.9869   -6918.1233    10.144909 
   36000    4717.4706    19832.416    790111.45    1248.2216   -6883.7145    10.105596 
   37000    4905.8183    19765.128    799629.41    1298.0575   -6889.9395    10.139999 
   38000     5055.206    19717.213    816622.26    1337.5849   -6853.5077    10.164641 
   39000    4801.7639    19790.129    793207.47    1270.5252   -6908.8962    10.127189 
   40000    4903.5573    19849.254    784799.57    1297.4593   -6920.1561    10.097024 
   41000    5063.8394    19774.981    806543.38    1339.8692   -6861.0586    10.134947 
   42000     4717.165    19714.172    810823.38    1248.1407   -6853.6873    10.166208 
   43000    4886.2201    19808.989     794576.1    1292.8719   -6882.5059    10.117547 
   44000    4849.6928    19735.897    803116.05     1283.207   -6896.3343    10.155018 
   45000    4738.9876    19748.041    799593.43    1253.9149   -6898.2434    10.148773 
   46000    4882.9658     19873.46    779316.58    1292.0109   -6921.5819    10.084725 
   47000    4969.0053    19706.382    814382.92    1314.7765    -6865.256    10.170228 
   48000    4905.4388    19688.034    816438.21    1297.9571   -6858.9145    10.179705 
   49000    5004.8602    19826.903    789401.39    1324.2636   -6903.0466    10.108406 
   50000    4761.4659    19795.706    797173.21    1259.8625   -6874.7158    10.124336 
   51000    4996.0262     19806.82    799555.82    1321.9261   -6873.2612    10.118656 
   52000    5029.5179    19709.633    814523.27    1330.7879   -6860.8289     10.16855 
   53000    4842.9881    19858.938    778386.61    1281.4329   -6926.4052      10.0921 
   54000    5016.8978    19932.206    767933.34    1327.4487   -6948.5997    10.055003 
   55000     4875.258    19742.047    806270.27    1289.9714   -6873.5683    10.151854 
   56000    4843.7865     19805.74    799456.64    1281.6442   -6860.7217    10.119207 
   57000    4988.0729    19906.257    776120.47    1319.8217    -6919.178     10.06811 
   58000    4686.7686    19744.383    808822.24     1240.098   -6852.1506    10.150653 
   59000    5022.4313    19726.527    821753.46    1328.9128   -6806.0542    10.159841 
   60000     4852.834    19751.393     803222.2    1284.0381   -6881.3539     10.14705 
   61000    5008.2325    19857.001    784006.88    1325.1559   -6919.4492    10.093084 
   62000     4977.644    19730.053    803131.13    1317.0623    -6909.005    10.158026 
   63000    4748.6046    19802.015    796662.11    1256.4595   -6876.4933    10.121111 
   64000    4998.8641     19870.21    776448.35     1322.677   -6955.3118    10.086375 
   65000    4998.0764    19788.192    806144.67    1322.4686    -6844.819    10.128181 
   66000    5046.3151    19758.947    803297.77    1335.2323   -6889.3283    10.143171 
   67000    4965.9747    19761.799    795831.88    1313.9747   -6917.2328    10.141707 
   68000    4895.6591    19839.154    783876.82    1295.3694   -6920.1753    10.102164 
   69000    4860.9906    19824.426    793407.11    1286.1963   -6886.9637    10.109669 
   70000    5014.2122    19705.209    801731.45    1326.7381   -6933.9402    10.170833 
   71000    5004.9973    19708.031    813319.64    1324.2999   -6867.7332    10.169377 
   72000    4783.2787    19780.493     794688.7    1265.6341   -6900.1472    10.132123 
   73000     4913.145    19791.517    793745.11    1299.9961    -6904.165    10.126479 
   74000    4968.8621    19724.718    811160.36    1314.7386   -6865.0557    10.160773 
   75000     4906.874    19773.658    801421.23    1298.3369   -6875.5107    10.135625 
   76000    4744.9822    19732.341    806109.65     1255.501    -6870.698    10.156848 
   77000    4872.8431    19741.106    809258.77    1289.3324   -6866.4326    10.152338 
   78000    5035.6131    19739.937    802278.83    1332.4007   -6899.3022    10.152939 
   79000    4925.6491    19813.435    789527.39    1303.3047   -6913.6132    10.115277 
   80000    4818.3994    19930.854    765836.41    1274.9269   -6942.8706    10.055685 
   81000    4862.7273    19806.487    796979.69    1286.6559   -6876.3356    10.118826 
   82000    4925.6856    19645.252    821516.99    1303.3143   -6868.0737    10.201874 
   83000    4908.3866    19823.486    793053.88    1298.7371   -6888.8888    10.110148 
   84000    4702.8145    19729.238    813237.15    1244.3436   -6831.2198    10.158445 
   85000    4804.1767    19725.064    803734.63    1271.1636   -6886.5967    10.160595 
   86000    4825.4961    19801.288     798818.9    1276.8046    -6872.487    10.121482 
   87000    4865.2362    19685.475     822602.3    1287.3197    -6822.936    10.181029 
   88000    4914.7573    19723.783    807278.69    1300.4228   -6882.6762    10.161255 
   89000    4765.4282    19754.957    799871.93     1260.911   -6891.4076     10.14522 
   90000    5062.2194    19769.561    804458.06    1339.4406   -6876.4216    10.137725 
   91000     4938.994     19749.02    800430.68    1306.8357   -6894.1336     10.14827 
   92000    4887.4107    19781.956    797526.22     1293.187   -6901.7993    10.131374 
   93000    4923.7905    19753.155    812878.31    1302.8129   -6842.7105    10.146146 
   94000    4984.7774    19819.109    791213.58    1318.9498   -6908.0549    10.112381 
   95000    4969.6348    19860.202    782749.29    1314.9431   -6926.0236    10.091458 
   96000     4821.414    19795.451    797925.04    1275.7245   -6880.3313    10.124467 
   97000     4930.017    19647.368    818142.95    1304.4604   -6890.3286    10.200775 
   98000    5121.1067    19721.595    808180.02    1355.0219    -6893.465    10.162382 
   99000    4928.2639    19836.046    784359.85    1303.9965   -6924.4838    10.103747 
  100000     4945.373     19712.36    807711.95    1308.5235   -6887.9513    10.167143 
  101000    4872.5337    19829.542    792828.31    1289.2506    -6883.425    10.107061 
  102000    4814.6814    19671.724    810694.29    1273.9431   -6900.2582    10.188146 
  103000    4883.7976    19751.769    810305.53    1292.2309   -6854.5444    10.146858 
  104000    4740.8115    19806.016    792557.37    1254.3975   -6882.4386    10.119066 
  105000    4890.3546    19883.676    776363.97    1293.9659   -6922.1696    10.079544 
  106000    5148.2283    19782.197    797808.23    1362.1981   -6901.2952     10.13125 
  107000    4992.2882     19716.54    807935.98    1320.9371   -6888.2411    10.164987 
  108000    5055.9875    19884.853    781568.57    1337.7916   -6914.8601    10.078947 
  109000    4833.1502    19762.668    799444.26    1278.8299   -6893.7155    10.141261 
  110000    5036.2175     19670.66     825331.4    1332.5606   -6836.1061    10.188697 
  111000    4887.8602    19804.861    795809.53    1293.3059   -6888.4197    10.119656 
  112000    4822.6235    19815.259    795113.06    1276.0446   -6872.2062    10.114346 
  113000     5181.419    19738.494    814364.68    1370.9802   -6851.0089    10.153682 
  114000    4788.4643    19773.394     798651.6    1267.0062   -6884.3857    10.135761 
  115000    4862.4598    19744.956    799298.14    1286.5851   -6900.6387    10.150359 
  116000    4917.0803    19740.479    802911.82    1301.0374   -6901.6332    10.152661 
  117000    4808.7429    19791.561    791181.13    1272.3718   -6917.7448    10.126457 
  118000    4895.7276    19707.741    812096.07    1295.3876   -6862.1627    10.169526 
  119000     4919.165     19729.85    808080.79     1301.589   -6877.7707     10.15813 
  120000    4961.9091    19853.057    789430.31    1312.8989   -6889.8029     10.09509 
  121000    4870.9165    19819.899    789043.37    1288.8227   -6908.4961    10.111978 
  122000    4823.9009    19642.057    818246.76    1276.3825   -6874.9621    10.203533 
  123000    4831.8993      19692.1    816830.02    1278.4989   -6853.2703    10.177603 
  124000    4795.1893    19819.709     792305.2    1268.7856   -6882.0465    10.112075 
  125000    4934.8268    19769.562    803924.54    1305.7331   -6872.5251    10.137725 
  126000    4907.7488    19689.016    811341.18    1298.5683   -6883.2968    10.179197 
  127000    4897.8534    19759.201    796655.34    1295.9501   -6907.2543    10.143041 
  128000    4889.4184    19837.058    783953.03    1293.7182   -6919.6185    10.103231 
  129000    4961.1377    19891.102    780085.43    1312.6948    -6910.512    10.075781 
  130000    4831.1161    19726.447     808660.2    1278.2917   -6877.8991    10.159883 
  131000    4844.6106    19695.402    817806.06    1281.8623   -6843.7827    10.175897 
  132000    4803.4127    19710.693     815538.8    1270.9615    -6837.944    10.168003 
  133000    4693.7057    19772.266    796272.64    1241.9335   -6892.5621    10.136339 
  134000    4860.6093    19835.782    786253.58    1286.0954   -6906.6493    10.103881 
  135000    4874.8085    19795.025    799629.37    1289.8525   -6871.1408    10.124685 
  136000    4826.8602    19814.857     793635.8    1277.1656   -6872.2861    10.114551 
  137000    4865.3784    19721.686    806688.72    1287.3573   -6885.0103    10.162336 
  138000    4892.4413    19686.608    818225.54     1294.518    -6845.081    10.180443 
  139000     4865.855    19790.157    794819.64    1287.4834   -6899.9305    10.127175 
  140000    5021.3919    19799.999    785193.63    1328.6378   -6947.8829    10.122141 
  141000     5015.653    19854.008    792378.89    1327.1193   -6877.7944    10.094606 
  142000    4756.7601    19730.003    813097.18    1258.6174   -6848.1478    10.158051 
  143000    4760.3947    19762.149     793974.1    1259.5791   -6914.1493    10.141528 
  144000    4981.3385    19787.287     797257.9    1318.0398   -6890.1372    10.128644 
  145000    4860.0236    19765.596    804403.14    1285.9405   -6863.8284    10.139759 
  146000    4857.9763    19861.467    779212.09    1285.3987   -6922.9669    10.090815 
  147000    5063.7017    19667.051    819354.59    1339.8328   -6867.0861    10.190566 
  148000    4867.9339    19743.949    809404.96    1288.0335   -6854.5151    10.150876 
  149000    4851.2038    19765.498     798906.4    1283.6068   -6891.8188     10.13981 
  150000    4905.9917    19743.019    803450.45    1298.1034   -6886.9305    10.151354 
  151000    5013.2963    19639.997    823662.78    1326.4957   -6868.0404    10.204604 
  152000     4944.656    19813.829    793395.27    1308.3338   -6896.1885    10.115076 
  153000    4780.0787    19768.439    793687.45    1264.7874   -6906.2347    10.138301 
  154000    4879.8279    19783.883    798330.17    1291.1806     -6888.54    10.130387 
  155000    5015.2122    19751.001     807552.6    1327.0027   -6875.3465    10.147252 
  156000    4784.0523    19786.177     787812.5    1265.8388    -6933.497    10.129212 
  157000    4992.0198     19830.42    785504.71    1320.8661   -6929.7273    10.106613 
  158000    4899.7158    19764.253    801609.58    1296.4428    -6878.681    10.140448 
  159000    4894.3162    19702.633    812177.85    1295.0141   -6864.2282    10.172162 
  160000    4823.3473    19821.812    792384.11    1276.2361   -6886.5591    10.111002 
  161000     4894.966    19804.774    791532.19    1295.1861   -6903.1812    10.119701 
  162000    4948.7814    19683.411    819229.81    1309.4254   -6849.0116    10.182096 
  163000    4801.3586    19741.033    805036.51     1270.418   -6873.0621    10.152376 
  164000    4788.2398    19869.075     781994.5    1266.9468   -6905.5706    10.086951 
  165000    4936.7844    19810.912    800886.85     1306.251   -6855.6447    10.116565 
  166000    4875.4462    19721.099    807632.53    1290.0212   -6885.1081    10.162638 
  167000    4836.1743    19799.319    792277.86      1279.63   -6909.5462    10.122489 
  168000    4829.2058    19841.335    785250.72    1277.7862   -6910.9468    10.101053 
  169000    4732.2607    19771.407     799767.1     1252.135   -6875.6639    10.136779 
  170000    5018.5762    19761.577    802871.65    1327.8928   -6893.4785    10.141821 
  171000    4872.8769    19750.684    794953.19    1289.3414   -6924.7279    10.147415 
  172000    4834.7686    19888.848    782256.16    1279.2581   -6896.2847    10.076923 
  173000    4844.9922    19718.354     815361.1    1281.9632   -6839.2564    10.164053 
  174000    5005.5317    19790.764    797834.56    1324.4412   -6890.4686    10.126865 
  175000    4778.4972    19878.046    774092.81    1264.3689   -6940.2959    10.082399 
  176000    4836.6424    19846.302    786675.21    1279.7539   -6902.4945    10.098525 
  177000    4937.6745    19720.952    813392.64    1306.4865   -6861.1448    10.162714 
  178000    4902.9214    19699.518     808283.3     1297.291   -6887.2319    10.173771 
  179000    4844.3212    19878.526     779293.8    1281.7857   -6909.5802    10.082156 
  180000    4949.6945    19858.195    786867.57     1309.667   -6895.9522    10.092478 
  181000    4997.9424    19709.109    813018.29    1322.4331   -6875.6686     10.16882 
  182000    5029.7627      19684.1    821999.26    1330.8527   -6840.0155     10.18174 
  183000    4915.0662    19852.233    779183.68    1300.5045   -6939.6856    10.095508 
  184000    5017.2089    19831.671    786307.54     1327.531   -6918.8353    10.105976 
  185000    5020.7809    19714.979    804164.29    1328.4761    -6909.322    10.165793 
  186000    4808.8353    19784.933    795309.82    1272.3963   -6897.6993    10.129849 
  187000     4799.608    19873.824    780586.98    1269.9548   -6912.4345    10.084541 
  188000    4999.1111    19813.617    799437.54    1322.7424   -6861.2142    10.115184 
  189000    4928.2356    19821.757    788795.82     1303.989    -6909.705     10.11103 
  190000    4741.7109    19762.031    797459.18    1254.6355   -6891.8586    10.141588 
  191000    5053.9727    19834.789    783447.31    1337.2585   -6938.9638    10.104387 
  192000    5100.1897    19858.025    789733.74    1349.4873   -6904.4277    10.092564 
  193000    4744.1474    19744.436    803539.24    1255.2801   -6878.9192    10.150626 
  194000    4811.7915    19715.633    819080.76    1273.1785   -6821.9048    10.165455 
  195000    4804.5579     19653.59     814991.6    1271.2645    -6878.607    10.197546 
  196000    4961.4948    19776.587    792986.45    1312.7893   -6919.3953    10.134124 
  197000    4655.7613    19875.005    781847.25    1231.8936   -6901.6822    10.083941 
  198000    4961.1306    19799.116    791306.91    1312.6929    -6908.573    10.122593 
  199000    4924.8404    19761.994    805844.91    1303.0907   -6876.5644    10.141607 
  200000     4807.904    19726.415    813282.35    1272.1498   -6848.5232    10.159899 
  201000    4841.6363    19836.374    784982.75    1281.0753   -6911.5969     10.10358 
  202000    4834.9419    19742.297    800135.31    1279.3039   -6909.2667    10.151726 
  203000     4962.241    19711.857    815650.17    1312.9867   -6851.4206    10.167403 
  204000    4942.2719    19810.631    794664.04     1307.703   -6891.7774    10.116709 
  205000    4998.1343    19824.256    791843.28    1322.4839   -6902.8963    10.109756 
  206000    4978.9265    19708.144    817261.69    1317.4016   -6853.8748    10.169318 
  207000    4927.3303    19755.511    800628.65    1303.7495   -6895.4946    10.144935 
  208000    4880.1219    19793.665    790416.47    1291.2584   -6921.9804     10.12538 
  209000    4906.7069    19764.701    799185.45    1298.2926   -6898.9686    10.140218 
  210000    4879.1142    19719.407    823527.33    1290.9917   -6802.8127     10.16351 
  211000    4888.0707    19764.577    803598.02    1293.3616   -6872.9517    10.140282 
  212000    4870.2983    19814.981    793316.49    1288.6591   -6888.9336    10.114488 
  213000    4927.6557    19711.426    831053.85    1303.8356   -6771.4205    10.167625 
  214000    5040.6259    19772.268    801651.18     1333.727    -6884.882    10.136338 
  215000     4761.753    19824.833    790479.67    1259.9385   -6886.0855    10.109461 
  216000    4913.5801    19862.302    788958.12    1300.1113   -6883.1455     10.09039 
  217000    4933.2962    19720.953    807619.17    1305.3281   -6882.5732    10.162713 
  218000    5018.1021    19850.933    784651.04    1327.7673   -6918.7671     10.09617 
  219000    4883.7912      19861.6    779305.66    1292.2293   -6932.4176    10.090747 
  220000    4966.2887    19728.977    804216.89    1314.0577   -6901.0195     10.15858 
  221000     4785.802    19706.368    810348.79    1266.3018   -6875.9911    10.170235 
  222000    4978.2524    19782.587    794656.79    1317.2233    -6919.366    10.131051 
  223000    4864.4607    19907.234    787933.43    1287.1145   -6858.4216    10.067616 
  224000    5051.4152    19825.591     791287.3    1336.5818   -6905.4093    10.109075 
  225000    4832.6658    19742.555    804695.27    1278.7017   -6876.5512    10.151593 
  226000    5031.5727    19819.954    791453.69    1331.3316   -6897.5319     10.11195 
  227000    4894.8282    19713.861    808314.64    1295.1496   -6884.5385    10.166369 
  228000    4965.2092    19742.228    811652.67    1313.7721   -6847.9228    10.151761 
  229000    4887.3975    19819.861    788849.46    1293.1835   -6906.0428    10.111998 
  230000    4939.6404    19871.174     776091.7    1307.0067   -6945.5707    10.085885 
  231000    4740.4519    19705.187    807133.24    1254.3023   -6888.2157    10.170844 
  232000    4934.4575    19685.843    817412.19    1305.6353   -6854.9153    10.180838 
  233000    4869.1441    19776.565    798210.32    1288.3537   -6885.9358    10.134135 
  234000    4864.1623    19748.957    811843.34    1287.0355   -6841.1411    10.148303 
  235000    5060.8962    19745.453    800872.26    1339.0904   -6910.8063    10.150103 
  236000    4908.6632    19883.493    775471.99    1298.8103     -6938.76    10.079637 
  237000    4846.0095    19698.461    812674.32    1282.2324   -6867.4652    10.174317 
  238000    4895.7332    19756.825    801458.51     1295.389    -6889.499    10.144261 
  239000    4766.9676    19726.312    798342.47    1261.3183    -6915.011    10.159952 
  240000    4891.8563    19748.705    810156.49    1294.3632   -6841.4639    10.148432 
  241000    4832.9621    19819.839    791949.53    1278.7801   -6890.0895    10.112009 
  242000    4866.8246    19816.155    781285.07      1287.74   -6951.1578    10.113889 
  243000    5060.8332    19713.566    808377.65    1339.0738   -6892.3969    10.166521 
  244000    4883.1072    19707.735    814021.23    1292.0483   -6851.4554    10.169529 
  245000    4799.7923    19806.361    793993.24    1270.0035   -6884.9342     10.11889 
  246000    4813.1921     19889.66    772919.02     1273.549   -6934.5641    10.076511 
  247000    4925.7861    19828.408    792385.58    1303.3409    -6891.295    10.107639 
  248000    4931.3477    19724.272    805605.41    1304.8125   -6889.7609    10.161003 
  249000    4776.4777    19829.298    789336.92    1263.8346   -6895.2719    10.107185 
  250000    4953.9967    19679.836    818598.32    1310.8053   -6855.2487    10.183946 
Loop time of 548.599 on 8 procs for 250000 steps with 2048 atoms

Performance: 39.373 ns/day, 0.610 hours/ns, 455.706 timesteps/s
126.2% CPU use with 4 MPI tasks x 2 OpenMP threads

MPI task timing breakdown:
Section |  min time  |  avg time  |  max time  |%varavg| %total
---------------------------------------------------------------
Pair    | 334.84     | 337.95     | 342.71     |  17.7 | 61.60
Neigh   | 6.5914     | 6.7639     | 6.856      |   4.0 |  1.23
Comm    | 23.88      | 29.001     | 32.552     |  64.9 |  5.29
Output  | 0.0060321  | 0.011376   | 0.013171   |   2.9 |  0.00
Modify  | 173.55     | 173.82     | 174.1      |   1.5 | 31.69
Other   |            | 1.046      |            |       |  0.19

Nlocal:        512.000 ave         518 max         506 min
Histogram: 1 1 0 0 0 0 0 0 1 1
Nghost:        3104.50 ave        3112 max        3094 min
Histogram: 1 0 0 0 1 0 0 0 1 1
Neighs:        48349.5 ave       48736 max       47761 min
Histogram: 1 0 0 0 1 0 0 0 0 2

Total # of neighbors = 193398
Ave neighs/atom = 94.432617
Neighbor list builds = 6748
Dangerous builds = 0


# fix 132 all momentum 100 linear 1 1 1 angular
fix out_file_1 all print 1000 "$(step) $(temp) $(press) ${sys_press} $(vol) $(ke) $(pe) $(density)" file one_phase_${sim}_press_$P_$T_.txt screen no title  "step temp press pressGiga vol ke pe density"
fix out_file_1 all print 1000 "$(step) $(temp) $(press) ${sys_press} $(vol) $(ke) $(pe) $(density)" file one_phase_heating_press_$P_$T_.txt screen no title  "step temp press pressGiga vol ke pe density"
fix out_file_1 all print 1000 "$(step) $(temp) $(press) ${sys_press} $(vol) $(ke) $(pe) $(density)" file one_phase_heating_press_800000_$T_.txt screen no title  "step temp press pressGiga vol ke pe density"
fix out_file_1 all print 1000 "$(step) $(temp) $(press) ${sys_press} $(vol) $(ke) $(pe) $(density)" file one_phase_heating_press_800000_4900_.txt screen no title  "step temp press pressGiga vol ke pe density"

# dump 3 all custom 1000 traj_npt_new.lammpstrj id type x y z
run 50000
Last active /omp style is pair_style eam/alloy/omp
Per MPI rank memory allocation (min/avg/max) = 4.355 | 4.355 | 4.355 Mbytes
Step Temp Volume Press KinEng PotEng Density 
  250000    4953.9967    19679.836    818598.32    1310.8053   -6855.2487    10.183946 
  251000    5044.7295    19663.816    818187.16    1334.8128   -6883.6212    10.192243 
  252000    5015.2897    19835.634    795004.41    1327.0232   -6874.4126    10.103956 
  253000    4893.9584    19742.113    797145.51    1294.9194   -6917.9772     10.15182 
  254000    4816.4185    19787.983    803920.57    1274.4027   -6846.6118    10.128288 
  255000    4948.5147    19735.053    811710.84    1309.3548   -6847.0894    10.155452 
  256000    4783.0158    19796.917    787500.13    1265.5645   -6924.7511    10.123717 
  257000    4795.9528    19846.183    777071.33    1268.9876   -6938.8211    10.098586 
  258000    4950.5562    19771.076    802539.54     1309.895   -6877.5712    10.136949 
  259000    4952.9208    19798.333    799554.81    1310.5206   -6875.2727    10.122993 
  260000    4860.5141    19719.256    812130.99    1286.0702   -6862.0905    10.163588 
  261000      4838.84    19808.524    792947.84    1280.3354   -6893.8863    10.117785 
  262000    5023.3867    19830.805     786949.9    1329.1656   -6922.8735    10.106417 
  263000    4765.4675     19727.84     805681.8    1260.9213   -6881.3175    10.159165 
  264000    4955.8057    19769.024    803533.73     1311.284   -6875.0882    10.138001 
  265000    4802.7572    19835.825    785189.54     1270.788   -6911.0856    10.103859 
  266000     4809.925    19720.981    806405.49    1272.6846   -6881.4402    10.162699 
  267000    4941.6716    19796.762    801591.66    1307.5441   -6861.5621    10.123796 
  268000    4837.5467    19809.003    791293.59    1279.9932   -6905.7778     10.11754 
  269000    4846.6601    19694.315    810200.28    1282.4045   -6882.2894    10.176459 
  270000    4932.9774    19755.871    810501.96    1305.2437   -6848.9177     10.14475 
  271000    4864.4494    19686.887    817429.55    1287.1115   -6853.8886    10.180298 
  272000    4799.6835    19820.916    791543.12    1269.9747   -6885.1445    10.111459 
  273000    4756.5812    19764.789    805132.27    1258.5701   -6855.5322    10.140173 
  274000    4830.0036    19621.428    826579.23    1277.9973   -6844.4362    10.214261 
  275000    4732.7225    19742.475    803523.53    1252.2572   -6876.5074    10.151635 
  276000    4870.0713    19840.249    786451.62     1288.599    -6910.534    10.101606 
  277000    4942.9124    19728.751    809857.42    1307.8725   -6875.4898    10.158696 
  278000    4953.7678    19684.481    809865.02    1310.7448   -6896.0496    10.181543 
  279000    4961.0815    19837.634    790071.81    1312.6799   -6892.9255    10.102938 
  280000     4814.327     19809.15    786808.67    1273.8494   -6918.1594    10.117465 
  281000    4857.2382    19742.609    804628.03    1285.2035   -6883.3937    10.151565 
  282000    4921.7061    19807.662    802900.04    1302.2614   -6854.5873    10.118225 
  283000     4875.481    19786.607     793646.1    1290.0304   -6905.3125    10.128992 
  284000    4811.7503    19845.304     786607.8    1273.1676   -6895.6315    10.099033 
  285000    4804.8545    19770.422    804486.77     1271.343   -6867.5254    10.137284 
  286000    5049.1948    19706.003    824580.78    1335.9943   -6820.1044    10.170423 
  287000     4755.556    19763.129    800308.27    1258.2988   -6875.4878    10.141025 
  288000    4824.5294    19806.822    796940.93    1276.5488   -6866.7987    10.118655 
  289000     4962.666    19708.323    812346.69    1313.0992   -6874.9705    10.169226 
  290000    4796.1108    19805.781    791400.94    1269.0294   -6901.0837    10.119186 
  291000    4870.6767    19792.808    792755.11    1288.7592   -6909.4272    10.125819 
  292000    4894.1655      19715.7    821866.58    1294.9742   -6809.1548    10.165421 
  293000    4849.2899    19724.942    812168.96    1283.1004   -6856.2866    10.160658 
  294000    4804.4022    19858.272    788945.58    1271.2233    -6878.207    10.092439 
  295000    4893.5369    19887.524    780237.08    1294.8079   -6916.0994    10.077594 
  296000    4838.4163      19719.5    804696.43    1280.2232   -6897.4105    10.163462 
  297000    4879.8334    19827.598    797239.61     1291.182   -6865.0806    10.108052 
  298000    4878.4891    19745.034    804943.01    1290.8264   -6865.4067    10.150319 
  299000    4972.8517    19814.232    788460.57    1315.7943   -6926.1995     10.11487 
  300000    4819.4256    19719.924    800626.99    1275.1984   -6910.5204    10.163243 
Loop time of 108.035 on 8 procs for 50000 steps with 2048 atoms

Performance: 39.987 ns/day, 0.600 hours/ns, 462.811 timesteps/s
126.0% CPU use with 4 MPI tasks x 2 OpenMP threads

MPI task timing breakdown:
Section |  min time  |  avg time  |  max time  |%varavg| %total
---------------------------------------------------------------
Pair    | 65.682     | 66.216     | 67.043     |   6.7 | 61.29
Neigh   | 1.3141     | 1.3469     | 1.3621     |   1.7 |  1.25
Comm    | 4.5318     | 5.4283     | 5.9566     |  25.2 |  5.02
Output  | 0.0011264  | 0.0019073  | 0.0021701  |   1.0 |  0.00
Modify  | 34.783     | 34.836     | 34.89      |   0.6 | 32.24
Other   |            | 0.2068     |            |       |  0.19

Nlocal:        512.000 ave         519 max         504 min
Histogram: 1 0 0 1 0 0 0 0 1 1
Nghost:        3102.25 ave        3113 max        3086 min
Histogram: 1 0 0 0 1 0 0 0 0 2
Neighs:        48388.0 ave       49317 max       47662 min
Histogram: 2 0 0 0 0 0 0 1 0 1

Total # of neighbors = 193552
Ave neighs/atom = 94.507812
Neighbor list builds = 1349
Dangerous builds = 0

unfix temp
unfix out_file_1


write_data after_${sim}_press_$P_$T.in
write_data after_heating_press_$P_$T.in
write_data after_heating_press_800000_$T.in
write_data after_heating_press_800000_4900.in
System init for write_data ...
Last active /omp style is pair_style eam/alloy/omp
write_restart after_${sim}_press_$P_$T.lmp
write_restart after_heating_press_$P_$T.lmp
write_restart after_heating_press_800000_$T.lmp
write_restart after_heating_press_800000_4900.lmp
System init for write_restart ...
Last active /omp style is pair_style eam/alloy/omp

next loopVar  #<----->
jump in.lmp ensemble

print """
Label pachadi solti, hos garam.
"""

Label pachadi solti, hos garam.

variable T equal 4700+${loopVar}*100  #<----->
variable T equal 4700+3*100  
# variable T equal 2250


reset_timestep 0
fix 1 all npt temp $T $T $(dt*100) iso $P $P $(dt*1000)
fix 1 all npt temp 5000 $T $(dt*100) iso $P $P $(dt*1000)
fix 1 all npt temp 5000 5000 $(dt*100) iso $P $P $(dt*1000)
fix 1 all npt temp 5000 5000 0.10000000000000000555 iso $P $P $(dt*1000)
fix 1 all npt temp 5000 5000 0.10000000000000000555 iso 800000 $P $(dt*1000)
fix 1 all npt temp 5000 5000 0.10000000000000000555 iso 800000 800000 $(dt*1000)
fix 1 all npt temp 5000 5000 0.10000000000000000555 iso 800000 800000 1
print """
<--------------------------------------------------------------------->
<------------------ Equilibrating at temperature $T ----------------->
<--------------------------------------------------------------------->
"""

<--------------------------------------------------------------------->
<------------------ Equilibrating at temperature 5000 ----------------->
<--------------------------------------------------------------------->

fix temp all print 1000 "$(step) $(temp) $(press) ${sys_press} $(vol) $(ke) $(pe) $(density)" file temp_${sim}.txt screen no title  "step temp press pressGiga vol ke pe density"
fix temp all print 1000 "$(step) $(temp) $(press) ${sys_press} $(vol) $(ke) $(pe) $(density)" file temp_heating.txt screen no title  "step temp press pressGiga vol ke pe density"
run 250000
Last active /omp style is pair_style eam/alloy/omp
Per MPI rank memory allocation (min/avg/max) = 4.355 | 4.355 | 4.355 Mbytes
Step Temp Volume Press KinEng PotEng Density 
       0    4819.4256    19719.924    800626.99    1275.1984   -6910.5204    10.163243 
    1000    4929.3107    19827.118    799991.41    1304.2735   -6848.3433    10.108296 
    2000    4905.5755    19700.667    819080.83    1297.9933   -6843.3376    10.173178 
    3000    4934.9725    19712.233    813499.71    1305.7716   -6863.4068    10.167209 
    4000    5008.2788    19805.335    799317.73    1325.1681   -6870.0023    10.119414 
    5000    5026.0962    19905.911    782483.24    1329.8825   -6891.1872    10.068285 
    6000    4834.5504    19819.858    796419.33    1279.2004   -6864.3962    10.111999 
    7000    5136.2745    19815.769    802505.94    1359.0352   -6863.0434    10.114086 
    8000    4946.1771    19720.656    823840.69    1308.7363    -6806.954    10.162866 
    9000    4875.5345    19810.665     795347.4    1290.0446    -6884.226    10.116691 
   10000    5087.2361    19857.865    799390.86    1346.0599   -6843.1714    10.092645 
   11000    4847.6941    19703.529    821624.08    1282.6781   -6824.5037      10.1717 
   12000    4992.8605    19881.236    789140.08    1321.0885   -6877.0256    10.080781 
   13000    5015.8363    19885.368     776888.4    1327.1678   -6932.3819    10.078686 
   14000    5132.9852    19787.722    804733.17    1358.1649    -6865.724    10.128421 
   15000    5162.2846    19861.165    797113.05    1365.9174   -6858.1979    10.090968 
   16000    5009.0862    19722.617     813805.1    1325.3818    -6858.081    10.161856 
   17000    4948.1014    19721.836       807540    1309.2454   -6888.3335    10.162258 
   18000     4969.046    19824.138    800482.98    1314.7873   -6850.5408    10.109816 
   19000    5087.0315    19908.189    773266.13    1346.0057   -6944.6816    10.067133 
   20000    5012.4944     19754.93    804687.47    1326.2836   -6878.6567    10.145234 
   21000    5195.4892    19816.634    802016.79    1374.7032   -6874.9447    10.113644 
   22000    5010.4106    19889.822    786669.43    1325.7322   -6882.8419    10.076429 
   23000    4967.7941     19849.47    783804.52     1314.456   -6922.3243    10.096914 
   24000     4963.439     19747.87    811939.85    1313.3037   -6844.7346    10.148861 
   25000    5074.2402    19769.248    801969.87    1342.6212   -6897.4738    10.137886 
   26000    4925.2639    19890.749     783178.5    1303.2027   -6887.6431     10.07596 
   27000    4863.0265    19861.637    792707.64     1286.735    -6863.528    10.090728 
   28000    5096.5426     19809.61    799674.91    1348.5223   -6869.0798    10.117231 
   29000    4940.3431    19805.014    794953.64    1307.1926   -6888.0894    10.119578 
   30000    5094.6365    19888.802    786668.36     1348.018   -6891.8487    10.076946 
   31000    5057.8746    19680.105     823235.2    1338.2909   -6831.6882    10.183807 
   32000     4985.314    19797.437    806296.45    1319.0917   -6838.8542    10.123451 
   33000    4968.7542    19790.041    796712.66    1314.7101   -6894.4369    10.127234 
   34000    5191.8642    19861.797    798532.81     1373.744   -6850.1344    10.090647 
   35000    5012.6628    19789.144    799402.87    1326.3281   -6888.9228    10.127694 
   36000    4967.3007    19759.403    799961.07    1314.3255   -6895.8748    10.142937 
   37000    5039.1994    19781.826    809799.28    1333.3496   -6842.9371     10.13144 
   38000    5037.9776    19788.485    808096.67    1333.0263   -6842.5576    10.128031 
   39000    5121.7716    19802.861    794534.89    1355.1978   -6907.5021    10.120678 
   40000    4984.2064    19868.858    787135.24    1318.7987   -6890.4114    10.087061 
   41000    4944.4487    19817.929    800032.19     1308.279   -6853.7629    10.112983 
   42000    5054.6947    19766.089    806702.71    1337.4496   -6863.6899    10.139507 
   43000    4932.6209     19810.25    782800.08    1305.1494   -6948.4183    10.116904 
   44000    4955.7442     19754.25    807844.16    1311.2677   -6855.3762    10.145583 
   45000    5159.4722    19817.949    792713.55    1365.1732    -6905.286    10.112973 
   46000    5040.5805    19812.103    791052.44     1333.715   -6918.9424    10.115957 
   47000    4978.2039    19825.474    794303.46    1317.2104   -6887.4714    10.109135 
   48000    5182.6761    19750.748    815334.24    1371.3129   -6840.1904    10.147382 
   49000    5087.4155    19829.224    801565.55    1346.1073    -6852.508    10.107223 
   50000    4912.1766     19769.47    810472.13    1299.7399   -6839.6579    10.137772 
   51000    4832.4617    19891.902    786159.05    1278.6477   -6869.0921    10.075376 
   52000    5128.7967    19793.629    793754.72    1357.0566   -6914.5014    10.125399 
   53000    5091.7797    19785.947    808848.05    1347.2621   -6844.2436     10.12933 
   54000    5037.1563    19734.484     810460.6     1332.809   -6868.0035    10.155745 
   55000     4898.775    19878.382    784451.06    1296.1939    -6900.086    10.082228 
   56000     4923.229    19804.619    799190.61    1302.6643   -6866.4911     10.11978 
   57000    5044.1898    19736.277    809611.78      1334.67   -6872.4126    10.154822 
   58000    4989.9743    19818.666    807030.19    1320.3248   -6821.7869    10.112607 
   59000    4984.0586    19851.489     790906.2    1318.7595   -6886.0998    10.095887 
   60000     5014.745    19849.006    796694.33     1326.879   -6853.5783     10.09715 
   61000    5077.4489    19844.803    797833.81    1343.4702   -6858.7123    10.099288 
   62000    5054.0133    19783.488    802748.37    1337.2693   -6879.9505    10.130589 
   63000    4997.3374    19789.745    797439.29    1322.2731   -6893.5822    10.127386 
   64000    5042.0867    19945.052    785637.93    1334.1135        -6854    10.048526 
   65000    4953.1636     19828.97    797805.05    1310.5849   -6862.6573    10.107352 
   66000    5022.2573    19766.442    809395.66    1328.8668   -6856.2079    10.139325 
   67000    5042.5194    19853.244       792311     1334.228   -6880.7357    10.094995 
   68000    4953.4629    19782.638    804459.68    1310.6641   -6864.2613    10.131024 
   69000    5031.7769    19784.379    793796.01    1331.3856   -6920.6705    10.130133 
   70000    5243.0272     19833.19    802457.38    1387.2815     -6856.84    10.105202 
   71000    4941.6897    19755.396    813943.59    1307.5489   -6823.7475    10.144995 
   72000    5049.2292     19822.84    787262.45    1336.0034   -6921.8604    10.110478 
   73000    5120.8658    19875.502    786017.67    1354.9581   -6904.6605    10.083689 
   74000    5073.7584    19757.406    811822.57    1342.4937    -6841.864    10.143962 
   75000    4902.2785    19833.617    796654.53    1297.1209   -6861.8858    10.104984 
   76000     5091.736    19912.515    775635.67    1347.2505   -6931.3101    10.064946 
   77000    4925.4804    19780.915     802240.9      1303.26   -6880.6761    10.131907 
   78000    5030.1802    19734.005    814495.63    1330.9631   -6846.9074    10.155992 
   79000    5041.8973    19659.683    823197.86    1334.0634   -6857.3721    10.194385 
   80000    4969.5359    19815.912    795642.63    1314.9169   -6888.4439    10.114013 
   81000    4855.6947    19757.814    803419.66     1284.795   -6871.6367    10.143753 
   82000    5046.4388    19711.608    815393.02    1335.2651   -6862.7484    10.167531 
   83000    4867.2075    19877.112    788521.32    1287.8413   -6871.3312    10.082873 
   84000    5005.6808    20005.199    765575.61    1324.4807   -6919.4569    10.018315 
   85000    4953.9232    19774.964    801342.23    1310.7859   -6879.5992    10.134956 
   86000    5023.9179    19711.473    817222.61    1329.3061   -6846.0401    10.167601 
   87000    5063.1582    19755.777    807993.73     1339.689   -6868.4517    10.144799 
   88000    4923.7065    19874.835    789427.18    1302.7907   -6872.3935    10.084028 
   89000    5002.3509    19811.197    795222.75    1323.5996   -6897.0213     10.11642 
   90000    5045.2221    19811.081    800943.23    1334.9432   -6863.2544    10.116479 
   91000    4854.1384    19818.679    789577.77    1284.3833   -6901.6726    10.112601 
   92000    4936.2221     19831.81    805892.83    1306.1022   -6818.2989    10.105905 
   93000    4990.8048    19834.144    792035.79    1320.5446   -6888.5339    10.104716 
   94000    4849.3544    19942.462    763117.28    1283.1174    -6958.971    10.049832 
   95000    4934.7924    19845.461    793464.52     1305.724   -6875.5932    10.098954 
   96000    4984.4625    19818.275    799327.84    1318.8664   -6868.3908    10.112807 
   97000    4886.2568    19797.816    807612.63    1292.8816   -6829.7853    10.123257 
   98000     4942.018    19802.022    794432.91    1307.6358   -6906.3553    10.121107 
   99000    4905.2251    19825.811    798080.23    1297.9006   -6863.1316    10.108963 
  100000    5005.8749    19867.154    787892.83     1324.532   -6884.7949    10.087927 
  101000    5055.7219    19771.166    813476.66    1337.7213   -6829.8098    10.136903 
  102000    5036.0389    19761.343    812054.99    1332.5133   -6847.4249    10.141941 
  103000    4915.4905    19794.089    795519.19    1300.6168   -6900.7508    10.125164 
  104000    5084.9591    19783.583     805723.2    1345.4574   -6860.1685    10.130541 
  105000    4961.2969    19784.961    812594.28    1312.7369   -6809.1956    10.129835 
  106000    4728.2301    19864.342    784929.12    1251.0685    -6890.307    10.089354 
  107000    4943.4042    19858.296    790899.82    1308.0026   -6886.4901    10.092426 
  108000     4931.495    19783.071    806857.06    1304.8515   -6841.1006    10.130802 
  109000    4864.4675    19716.104    812807.24    1287.1163   -6862.1154    10.165212 
  110000    4882.1567    19872.291    790774.79    1291.7968   -6864.2193    10.085318 
  111000    5067.9987    19726.086    803433.27    1340.9697   -6914.3761    10.160069 
  112000    4975.4125    19755.705    815321.06    1316.4718   -6828.6243    10.144836 
  113000    4895.1869    19765.091    803384.87    1295.2445   -6870.7763    10.140018 
  114000    4900.2924    19794.037    793326.02    1296.5954   -6901.5077     10.12519 
  115000    4899.0046    19796.755    808171.34    1296.2546   -6833.3198      10.1238 
  116000     4964.637    19734.288     805886.1    1313.6207   -6880.9473    10.155846 
  117000    5078.6205    19907.014    771625.15    1343.7802   -6951.5755    10.067727 
  118000    5000.5764    19864.043    792889.79    1323.1301   -6874.2868    10.089506 
  119000    4967.3213    19693.553     812770.7    1314.3309   -6876.6201    10.176853 
  120000    4916.7695    19809.957     805995.2    1300.9552   -6825.2534    10.117053 
  121000    4898.4612    19711.832    820838.83    1296.1109   -6817.7366    10.167416 
  122000    5040.0183    19856.894    790801.91    1333.5663   -6896.5451    10.093139 
  123000     5013.082    19879.602    780251.32     1326.439   -6920.7443     10.08161 
  124000    5062.5368    19824.927    790428.36    1339.5246   -6905.6843    10.109414 
  125000    5075.1948    19838.055    793907.68    1342.8738   -6883.8962    10.102724 
  126000    5055.2101    19852.442    787802.15    1337.5859     -6895.42    10.095402 
  127000    4951.0736    19743.112    818299.58    1310.0319   -6812.0269    10.151307 
  128000    5073.1535    19745.301    810810.77    1342.3337   -6860.0456    10.150181 
  129000    4859.7909    19946.618    773631.79    1285.8789   -6903.0127    10.047738 
  130000    4977.5104    19810.405    798484.13    1317.0269   -6875.9601    10.116825 
  131000    5149.9104    19790.283    801698.39    1362.6432   -6877.8214    10.127111 
  132000     5035.976    19756.686    808630.57    1332.4967   -6862.9232    10.144332 
  133000    4801.4523     19843.68    785305.98    1270.4428   -6910.8435     10.09986 
  134000    5058.7402    19816.462    799571.93      1338.52   -6870.0324    10.113732 
  135000    5088.7417    19761.064    815224.45    1346.4582   -6830.2573    10.142085 
  136000    4920.6355    19851.936     790681.8    1301.9781   -6878.6297     10.09566 
  137000      4837.98    19844.277     794414.3    1280.1078   -6871.0748    10.099556 
[...]
  207000    5240.5882    19905.275    784918.73    1386.6361   -6893.0855    10.068607 
  208000    4801.7926    19876.563    788321.09    1270.5328    -6867.077    10.083151 
  209000    5082.1174    19810.652    805966.31    1344.7055   -6844.6021    10.116698 
  210000    5216.0599    19793.606    807715.42    1380.1461   -6848.2182    10.125411 
  211000     5086.582    19857.079    792468.56    1345.8868   -6881.2611    10.093045 
  212000    5112.4356    19799.271    797120.42    1352.7275   -6894.6688    10.122513 
  213000    5155.7083    19856.916    796105.22    1364.1773   -6864.8668    10.093128 
  214000    5021.5112    19744.003    815629.94    1328.6694   -6836.6131    10.150848 
  215000    5223.3615    19775.454    818953.42     1382.078   -6813.0731    10.134705 
  216000    5064.8687    19849.822    792625.29    1340.1415   -6876.3557    10.096735 
  217000    5158.1556    19952.751    774923.42    1364.8248   -6911.2397    10.044649 
  218000     4941.842    19778.849    813413.61    1307.5892   -6818.0749    10.132965 
  219000    4930.5559    19765.169    818563.52     1304.603   -6801.9798    10.139978 
  220000    5148.2625    19801.755    809914.03    1362.2072   -6829.2549    10.121244 
  221000    5066.1968    19759.813    812100.55     1340.493   -6846.6649    10.142727 
  222000    5211.0133     19842.19    801312.85    1378.8108   -6845.6154    10.100618 
  223000     5042.491    19879.268    792878.76    1334.2205   -6858.5152    10.081779 
  224000    4981.2792    19788.119     813717.7    1318.0241   -6816.3291    10.128218 
  225000    5107.8317    19815.847    811033.46    1351.5094   -6815.8003    10.114046 
  226000    5095.3519     19804.74    806720.57    1348.2073    -6847.673    10.119718 
  227000    5093.2434    19920.515    784971.31    1347.6494   -6875.0223    10.060904 
  228000    4992.5548    19891.475    782549.67    1321.0076   -6896.3644    10.075592 
  229000    5065.3017    19800.774    807898.69    1340.2561   -6842.0489    10.121745 
  230000    5175.3998    19832.171    805181.09    1369.3876   -6841.9815    10.105721 
  231000    5178.9269    19834.616    802363.55    1370.3208   -6852.1734    10.104475 
  232000    5014.2071     19807.66    796934.74    1326.7367   -6889.3565    10.118226 
  233000     5110.045     19973.49    776210.55     1352.095   -6889.4146     10.03422 
  234000    5109.2654    19730.911    823015.77    1351.8887   -6805.3224    10.157584 
  235000    5157.8495    19765.981    818121.93    1364.7439   -6818.6912    10.139562 
  236000    5089.6982    19802.617    804920.34    1346.7113   -6848.2317    10.120803 
  237000    5115.8457    19912.486    783761.74    1353.6298    -6893.493     10.06496 
  238000    5039.6656    19853.353    802234.99    1333.4729   -6834.4705    10.094939 
  239000    5171.2391    19869.102    799290.58    1368.2867   -6849.3584    10.086937 
  240000      5223.94    19743.502    814084.68    1382.2311   -6857.4156    10.151106 
  241000    5205.6604    19898.625    797702.23    1377.3944     -6831.39    10.071972 
  242000    4918.1736    19880.605    791009.69    1301.3267   -6864.8533    10.081101 
  243000    5081.0829    19845.799    794516.02    1344.4318   -6868.5171    10.098781 
  244000    5259.2651    19777.646    819107.26     1391.578   -6808.2361    10.133582 
  245000     5150.487    19846.503    802088.45    1362.7958   -6850.3806    10.098423 
  246000     5059.538    19921.336    783299.93    1338.7311   -6885.4307    10.060489 
  247000    5047.9311    19900.257    781528.92    1335.6599   -6900.7257    10.071145 
  248000    5002.1251    19787.263    810081.78    1323.5399   -6826.0221    10.128656 
  249000    5153.4778    19829.127    805518.44    1363.5871   -6835.2325    10.107272 
  250000    5076.6179    19745.781    813004.07    1343.2503    -6856.722    10.149935 
Loop time of 688.573 on 8 procs for 250000 steps with 2048 atoms

Performance: 31.369 ns/day, 0.765 hours/ns, 363.070 timesteps/s
114.0% CPU use with 4 MPI tasks x 2 OpenMP threads

MPI task timing breakdown:
Section |  min time  |  avg time  |  max time  |%varavg| %total
---------------------------------------------------------------
Pair    | 421.8      | 426.17     | 431.42     |  20.2 | 61.89
Neigh   | 8.3178     | 8.3699     | 8.4316     |   1.5 |  1.22
Comm    | 65.922     | 71.49      | 76.138     |  50.5 | 10.38
Output  | 0.0092143  | 0.014136   | 0.016382   |   2.5 |  0.00
Modify  | 180.91     | 181.14     | 181.45     |   1.7 | 26.31
Other   |            | 1.383      |            |       |  0.20

Nlocal:        512.000 ave         523 max         507 min
Histogram: 2 0 1 0 0 0 0 0 0 1
Nghost:        3113.75 ave        3127 max        3095 min
Histogram: 1 0 0 0 1 0 0 0 0 2
Neighs:        48318.8 ave       49122 max       47091 min
Histogram: 1 0 0 0 0 0 1 1 0 1

Total # of neighbors = 193275
Ave neighs/atom = 94.372559
Neighbor list builds = 6942
Dangerous builds = 0


# fix 132 all momentum 100 linear 1 1 1 angular
fix out_file_1 all print 1000 "$(step) $(temp) $(press) ${sys_press} $(vol) $(ke) $(pe) $(density)" file one_phase_${sim}_press_$P_$T_.txt screen no title  "step temp press pressGiga vol ke pe density"
fix out_file_1 all print 1000 "$(step) $(temp) $(press) ${sys_press} $(vol) $(ke) $(pe) $(density)" file one_phase_heating_press_$P_$T_.txt screen no title  "step temp press pressGiga vol ke pe density"
fix out_file_1 all print 1000 "$(step) $(temp) $(press) ${sys_press} $(vol) $(ke) $(pe) $(density)" file one_phase_heating_press_800000_$T_.txt screen no title  "step temp press pressGiga vol ke pe density"
fix out_file_1 all print 1000 "$(step) $(temp) $(press) ${sys_press} $(vol) $(ke) $(pe) $(density)" file one_phase_heating_press_800000_5100_.txt screen no title  "step temp press pressGiga vol ke pe density"

# dump 3 all custom 1000 traj_npt_new.lammpstrj id type x y z
run 50000
Last active /omp style is pair_style eam/alloy/omp
Per MPI rank memory allocation (min/avg/max) = 4.355 | 4.355 | 4.355 Mbytes
Step Temp Volume Press KinEng PotEng Density 
  250000    5076.6179    19745.781    813004.07    1343.2503    -6856.722    10.149935 
  251000    5098.2532    19824.627     798279.7     1348.975   -6880.1717    10.109567 
  252000    4991.2188    19812.559    808806.11    1320.6541   -6819.2687    10.115724 
  253000    5128.4622    19719.876    825291.44    1356.9681   -6803.9931    10.163268 
  254000     5076.745    19830.278    799483.13     1343.284   -6855.8719    10.106685 
  255000    4953.8977    19863.326    787614.24    1310.7791   -6893.3106    10.089871 
  256000    5066.4338    19815.192    804493.43    1340.5557   -6845.3773     10.11438 
  257000    5026.5985    19820.648    803796.92    1330.0154   -6844.9772    10.111596 
  258000    5132.3558    19862.529    799539.06    1357.9983   -6840.9206    10.090276 
  259000     5016.235    19792.734    803240.62    1327.2733   -6865.4462    10.125857 
  260000    4992.3634    19860.163    793010.89     1320.957   -6862.8963    10.091477 
  261000    5107.9919    19869.416    800428.79    1351.5517   -6830.1628    10.086778 
  262000    5083.7363    19945.803    785944.07    1345.1338   -6858.7978    10.048148 
  263000    5056.2262    19830.128    800824.28    1337.8548   -6852.2896    10.106762 
  264000    5161.6004    19894.953    795344.97    1365.7363   -6844.9542     10.07383 
  265000     5079.866    19884.608    790339.09    1344.1098   -6872.4628    10.079071 
  266000    5055.0061    19839.298    793694.53    1337.5319   -6879.0973    10.102091 
  267000    5148.1184    19961.479    781042.53     1362.169   -6875.4738    10.040258 
  268000    5064.7575    19808.497    809547.97    1340.1121   -6821.3014    10.117799 
  269000    5103.8753    19799.464    816929.02    1350.4625   -6797.1835    10.122415 
  270000    5055.8963    19836.643    799037.66    1337.7675    -6866.395    10.103443 
  271000    5002.0569    19826.076    799497.58    1323.5218   -6861.4379    10.108828 
  272000    5111.5695    19794.282    810590.21    1352.4984   -6834.4508    10.125065 
  273000    5210.4484    19779.135    811568.89    1378.6613   -6842.4553    10.132818 
  274000    4929.9443    19898.955    795176.03    1304.4412   -6817.8499    10.071805 
  275000    4950.2162    19841.768    795052.93     1309.805   -6869.6379    10.100833 
  276000    5247.6699    19932.855    786295.58    1388.5099   -6877.2198    10.054675 
  277000    5141.3129    19828.752    804436.83    1360.3683   -6844.6551    10.107464 
  278000    5064.4806    19909.077    787156.55    1340.0389   -6873.7427    10.066684 
  279000    5053.1681    19827.654    802196.02    1337.0456   -6844.6189    10.108023 
  280000    5017.3012    19748.156     819426.6    1327.5554   -6812.3521    10.148714 
  281000    5219.3915    19758.591    819862.22    1381.0276   -6817.8731    10.143354 
  282000    4972.1917     19854.07    797513.18    1315.6196   -6854.0217    10.094574 
  283000     5214.573    19892.822    793147.05    1379.7526   -6867.4497     10.07491 
  284000    5112.3426    19880.679    788027.35    1352.7029   -6900.1281    10.081063 
  285000    5206.3354    19856.066    796642.82     1377.573   -6872.7502     10.09356 
  286000    4974.2436    19774.523    806641.84    1316.1626    -6850.422    10.135182 
  287000    5043.3314    19875.565    798999.17    1334.4429   -6834.1284    10.083657 
  288000    5157.9022    19975.436    773455.78    1364.7578   -6906.7727    10.033242 
  289000     5046.301    19862.163    787364.48    1335.2286   -6894.0161    10.090461 
  290000    5205.8111    19736.983    818818.75    1377.4343    -6833.743    10.154459 
  291000    5300.2171    19842.208    804524.36    1402.4137   -6845.9026    10.100609 
  292000    5012.3744    19808.568    805041.76    1326.2518   -6843.8026    10.117763 
  293000    5182.0883    19964.355    775098.39    1371.1573   -6904.2322    10.038811 
  294000    5158.0975    19751.879    807213.92    1364.8095   -6887.2758    10.146801 
  295000    5134.9569    19702.269    825393.13    1358.6866   -6822.9979    10.172351 
  296000    5136.1361    19879.648    792143.85    1358.9986   -6871.4704    10.081586 
  297000     5051.173    19886.032    786538.15    1336.5177   -6883.5868     10.07835 
  298000     5117.773    19922.176    787880.52    1354.1398   -6852.6597    10.060065 
  299000    5058.9692    19788.421    807091.33    1338.5806   -6848.5301    10.128064 
  300000    5227.0765    19810.255    802178.81     1383.061   -6864.2908    10.116901 
Loop time of 112.925 on 8 procs for 50000 steps with 2048 atoms

Performance: 38.255 ns/day, 0.627 hours/ns, 442.770 timesteps/s
126.5% CPU use with 4 MPI tasks x 2 OpenMP threads

MPI task timing breakdown:
Section |  min time  |  avg time  |  max time  |%varavg| %total
---------------------------------------------------------------
Pair    | 68.837     | 69.473     | 70.437     |   7.9 | 61.52
Neigh   | 1.403      | 1.4319     | 1.4477     |   1.4 |  1.27
Comm    | 5.0413     | 6.0752     | 6.7918     |  28.5 |  5.38
Output  | 0.0011962  | 0.0018726  | 0.0021001  |   0.9 |  0.00
Modify  | 35.673     | 35.728     | 35.784     |   0.7 | 31.64
Other   |            | 0.2161     |            |       |  0.19

Nlocal:        512.000 ave         519 max         509 min
Histogram: 1 2 0 0 0 0 0 0 0 1
Nghost:        3105.50 ave        3110 max        3095 min
Histogram: 1 0 0 0 0 0 0 0 1 2
Neighs:        48180.2 ave       49256 max       47302 min
Histogram: 1 1 0 0 0 0 1 0 0 1

Total # of neighbors = 192721
Ave neighs/atom = 94.102051
Neighbor list builds = 1386
Dangerous builds = 0

unfix temp
unfix out_file_1


write_data after_${sim}_press_$P_$T.in
write_data after_heating_press_$P_$T.in
write_data after_heating_press_800000_$T.in
write_data after_heating_press_800000_5100.in
System init for write_data ...
Last active /omp style is pair_style eam/alloy/omp
write_restart after_${sim}_press_$P_$T.lmp
write_restart after_heating_press_$P_$T.lmp
write_restart after_heating_press_800000_$T.lmp
write_restart after_heating_press_800000_5100.lmp
System init for write_restart ...
Last active /omp style is pair_style eam/alloy/omp

next loopVar  #<----->
jump in.lmp ensemble

print """
Label pachadi solti, hos garam.
"""

Label pachadi solti, hos garam.

variable T equal 4700+${loopVar}*100  #<----->
variable T equal 4700+5*100  
# variable T equal 2250


reset_timestep 0
fix 1 all npt temp $T $T $(dt*100) iso $P $P $(dt*1000)
fix 1 all npt temp 5200 $T $(dt*100) iso $P $P $(dt*1000)
fix 1 all npt temp 5200 5200 $(dt*100) iso $P $P $(dt*1000)
fix 1 all npt temp 5200 5200 0.10000000000000000555 iso $P $P $(dt*1000)
fix 1 all npt temp 5200 5200 0.10000000000000000555 iso 800000 $P $(dt*1000)
fix 1 all npt temp 5200 5200 0.10000000000000000555 iso 800000 800000 $(dt*1000)
fix 1 all npt temp 5200 5200 0.10000000000000000555 iso 800000 800000 1
print """
<--------------------------------------------------------------------->
<------------------ Equilibrating at temperature $T ----------------->
<--------------------------------------------------------------------->
"""

<--------------------------------------------------------------------->
<------------------ Equilibrating at temperature 5200 ----------------->
<--------------------------------------------------------------------->

fix temp all print 1000 "$(step) $(temp) $(press) ${sys_press} $(vol) $(ke) $(pe) $(density)" file temp_${sim}.txt screen no title  "step temp press pressGiga vol ke pe density"
fix temp all print 1000 "$(step) $(temp) $(press) ${sys_press} $(vol) $(ke) $(pe) $(density)" file temp_heating.txt screen no title  "step temp press pressGiga vol ke pe density"
run 250000
Last active /omp style is pair_style eam/alloy/omp
Per MPI rank memory allocation (min/avg/max) = 4.355 | 4.355 | 4.355 Mbytes
Step Temp Volume Press KinEng PotEng Density 
       0    5227.0765    19810.255    802178.81     1383.061   -6864.2908    10.116901 
    1000    5214.1923     19888.98    799299.55    1379.6519   -6829.9823    10.076856 
    2000    5274.3832    19805.764    814281.96    1395.5782   -6811.3158    10.119195 
    3000    4981.8201    19808.926    810732.85    1318.1673   -6808.4416     10.11758 
    4000    5173.8198    19942.306    789262.02    1368.9695   -6850.0459     10.04991 
    5000    5160.7559    19796.945    813549.94    1365.5129   -6815.4358    10.123703 
    6000    5330.7969    19855.587    808901.33     1410.505   -6809.8219    10.093803 
    7000     5089.936    19781.982    819917.89    1346.7742   -6788.3948     10.13136 
    8000    5131.8684    19880.897    795957.84    1357.8694   -6847.1649    10.080953 
    9000    5159.4834    19900.669    789154.19    1365.1762   -6872.9083    10.070937 
   10000    5298.2236    19852.519    815174.29    1401.8862   -6784.2028    10.095363 
   11000    5267.4526    19876.759    798906.83    1393.7443   -6848.7008    10.083052 
   12000    5239.7223    19926.009    780710.62     1386.407    -6900.673     10.05813 
   13000    5167.7795    20030.034    774457.89    1367.3713   -6853.8163    10.005894 
   14000    5200.9382    19827.125    804335.13    1376.1449   -6849.3211    10.108293 
   15000    5126.5634    19895.939    802574.99    1356.4657   -6807.9466    10.073332 
   16000    5098.4136    19800.174    811582.06    1349.0174    -6817.559    10.122052 
   17000    5144.2632    19926.761    794612.13     1361.149   -6827.3944     10.05775 
   18000     5342.051    19841.105    807698.19    1413.4827     -6830.79     10.10117 
   19000     5174.315    19845.321    808559.05    1369.1005   -6810.3627    10.099025 
   20000    5255.4129     19913.81    800863.58    1390.5587    -6806.746    10.064291 
   21000    5077.9291    19821.457     804622.9    1343.5973   -6839.1154    10.111183 
   22000    5265.1531    19815.676    810440.92    1393.1359   -6825.1637    10.114133 
   23000    5287.0079    19832.301    803363.37    1398.9186   -6843.8409    10.105655 
   24000    5133.6378    19992.882    776616.91    1358.3375   -6871.2371    10.024487 
   25000    5104.4579    19913.891    791149.24    1350.6167   -6853.4369    10.064251 
   26000    5204.9218    19901.013    799338.37     1377.199   -6821.4523    10.070763 
   27000    5279.6253    19857.137    804334.84    1396.9652   -6834.0155    10.093015 
   28000    5241.2311    19905.629    801671.07    1386.8062   -6807.6587    10.068428 
   29000    5269.1281    19855.735    794815.79    1394.1877   -6881.5358    10.093728 
   30000    5191.3353    19981.284     780163.2     1373.604   -6867.7929    10.030306 
   31000    5301.8712    19828.087    805006.71    1402.8513   -6844.4711    10.107802 
   32000     5325.984    19826.127    812873.11    1409.2315    -6812.815    10.108801 
   33000     5054.333    19849.443    795395.13    1337.3538   -6863.7006    10.096927 
   34000    5143.0501    19948.979    781104.04     1360.828   -6882.7997    10.046548 
   35000    5139.5497    19822.457    808649.83    1359.9018    -6825.148    10.110673 
   36000     5312.443    19764.541    828575.01    1405.6486   -6776.1555      10.1403 
   37000     5061.267    19824.822    808407.53    1339.1886   -6829.6323    10.109467 
   38000    5255.3306    19895.171    792389.18    1390.5369   -6858.9879     10.07372 
   39000    5046.1695     19750.08    821140.93    1335.1938   -6798.7105    10.147725 
   40000    5320.0423    19833.737    812850.75    1407.6593   -6808.8607    10.104923 
   41000    5191.7949    19880.812     792327.2    1373.7256   -6870.8796    10.080996 
   42000    5122.8765    20011.719    776409.28    1355.4902   -6863.1355    10.015051 
   43000    5224.0377    19825.237    801823.73     1382.257   -6859.6708    10.109255 
   44000     5338.074    19911.016    792153.68    1412.4305      -6863.1    10.065704 
   45000    5144.5202    19904.034    793150.54     1361.217   -6840.7589    10.069235 
   46000    5210.4157    19934.401    788685.31    1378.6526    -6850.188    10.053896 
   47000    5092.5232    19795.396    815578.88    1347.4588   -6812.6767    10.124495 
   48000    5283.2145     19889.82    801040.46    1397.9149   -6830.7947     10.07643 
   49000    5209.2959    19847.206    802458.67    1378.3563   -6851.1197    10.098065 
   50000    5212.6015    19798.864    815932.52     1379.231   -6804.5718    10.122721 
   51000    5250.2122    19859.163    805663.45    1389.1826   -6819.8399    10.091986 
   52000    5165.5059     19853.83    800826.82    1366.7697    -6846.621    10.094696 
   53000    5243.8013    19915.903    786357.53    1387.4863   -6869.6132    10.063234 
   54000     5130.753    19922.687    788140.88    1357.5742   -6867.0157    10.059807 
   55000    5117.7593    19910.298     791363.7    1354.1362   -6852.7141    10.066067 
   56000    5283.8345     19920.87    792764.76    1398.0789   -6850.1833    10.060725 
   57000    5100.5843    19761.656    820973.66    1349.5917   -6796.5042    10.141781 
   58000    5262.0819    19914.142    807298.96    1392.3233   -6774.5986    10.064123 
   59000     5216.996    19804.164    812212.16    1380.3938   -6820.7604    10.120012 
   60000    5133.4879    19825.723    806739.25    1358.2979   -6827.6249    10.109008 
   61000    5253.5325     19872.36    804022.54    1390.0611   -6829.1056    10.085284 
   62000    5243.3894    19835.013     808822.1    1387.3773   -6818.3554    10.104273 
   63000    5102.9843    19810.888    804922.91    1350.2268   -6848.1511    10.116578 
   64000    5132.8591    19894.533    801354.77    1358.1315   -6816.9918    10.074043 
   65000    5051.6055    19786.571    814126.65    1336.6322   -6815.0018    10.129011 
   66000    5188.0822    19876.624    806614.84    1372.7433   -6794.8675     10.08312 
   67000     5295.179    19789.284     813120.4    1401.0806   -6834.8614    10.127622 
