LAMMPS data file via write_data, version 29 Oct 2020, timestep = 150000

2744 atoms
1 atom types

-0.3266619445111303 25.134661944512306 xlo xhi
-0.3266619445111303 25.134661944512306 ylo yhi
3.2030279882733232 56.462868964458195 zlo zhi

Masses

1 58.933

Atoms # atomic

169 1 3.6271813275429783 2.833652448798555 5.136514484928615 0 0 0
144 1 1.3681786755931478 1.7165025841340023 4.8608439511681985 0 0 0
930 1 -0.1645515058874474 3.1527507784227913 6.386474845926672 0 1 0
884 1 3.0694518358038683 7.628524668656901 3.801734561756863 0 0 0
187 1 1.1568257973233358 4.117928138665203 4.543092553414442 0 0 0
1818 1 18.828837362926162 0.4949074079007154 4.215421088573857 1 -2 1
2540 1 5.900073836160489 2.8421494537021275 5.567949314049304 -1 0 2
779 1 23.8727939929799 17.736954143016906 3.5753127508423743 0 0 0
261 1 6.713408072862111 3.7927144649024696 7.876512837445212 0 0 0
687 1 7.641411859948406 2.1376371072649487 3.300398650435373 0 1 0
2493 1 16.150382877786885 9.829526060030533 3.2762182903254975 1 1 1
107 1 4.820658133707053 1.1619760520558438 7.645593151270909 0 0 0
751 1 10.196635314291688 3.8989765213738634 5.332335200165631 1 1 0
1788 1 6.813769155896428 0.5611852645339088 6.5857442723018265 2 0 1
2528 1 12.08098408664589 0.6781698373180354 6.911992387824621 -2 1 3
32 1 8.740640322992132 2.582979409873355 6.722049800311639 -1 0 0
2400 1 10.312215829265128 1.5346321211003349 4.364878654492957 -1 -1 2
1364 1 11.814450749191362 3.0991655981926898 7.092452188225328 0 1 0
2702 1 9.562975145853686 0.1271596810101137 6.115720379378918 0 0 1
1491 1 17.043552359686174 1.5826842156188323 7.934709519179977 -1 1 1
2002 1 14.417979264959458 1.8904668422007416 6.091110281657057 0 1 2
964 1 15.01102494579572 3.22012940358162 4.338056250301556 0 1 0
872 1 14.126905491921137 3.9861671579938225 6.176706764026717 1 1 0
2368 1 12.522222877249478 2.254701223579488 4.259356728923484 0 3 0
1667 1 14.337079026043087 5.8100995897213785 3.6236137373439883 -2 0 1
2397 1 15.971847555471093 0.17676137959836113 4.79227795762313 -1 2 1
2600 1 16.61755760969754 3.081687194929376 6.288176517517903 0 2 2
1160 1 18.11440043746596 1.260199980735375 6.122113351015216 0 1 0
926 1 10.00480880693272 17.359124902531047 3.926265551246912 0 1 0
178 1 17.410719980467576 24.686988359902024 7.158877918709161 0 -1 0
1595 1 18.874972395803432 2.800711941865616 8.733950036277523 -1 0 0
353 1 24.810785627681497 22.741981387818843 3.3439640898541296 0 -1 0
1016 1 21.77128929823677 19.154269062896944 3.8317966829551806 -1 0 0
455 1 23.355881100740834 2.0637064376269825 5.572941097800559 -1 0 0
2202 1 24.324119207362692 3.626447812297586 4.040207222121976 -1 0 1
923 1 21.5616529101898 3.081595403869404 4.805217537213423 0 1 0
2148 1 20.75193504553368 2.31574404604645 7.148369375477682 0 0 0
1774 1 19.28199934657492 2.688931267434972 4.4640749508153785 -1 -1 -1
461 1 20.870459878545468 0.660390219773504 5.38782112088707 -1 0 0
73 1 21.695426285026645 0.2000013938554236 7.934361200639521 -1 1 0
2707 1 3.5562091575992687 5.246157573708426 3.5763592311034618 1 1 2
1347 1 24.74893564246421 7.09710990477154 8.674204084359637 -1 1 0
917 1 2.8495406135951105 5.176549946755283 6.011090859091569 1 0 0
374 1 24.942194444258742 5.622078550886581 5.756857511996393 -1 0 0
1407 1 1.4399401156487384 7.03290958249706 5.913354534571775 0 -2 0
1617 1 3.2013308365312514 22.398946230898428 15.51608279731276 3 -3 -2
2149 1 21.98917218334282 23.976396869125153 14.703061315987576 0 0 0
118 1 6.051516825534479 6.180113511572114 7.309029506779312 0 0 0
19 1 7.748151172490942 4.26888658006591 5.210337792340919 0 0 0
1645 1 7.2617958945744485 6.722434585873477 5.023558480537199 0 1 0
1195 1 5.155369625545014 5.115387659546993 5.341576072108661 0 0 0
2129 1 4.049298782192872 7.583417848602523 5.917272694434329 -1 2 1
979 1 10.105777490675303 6.155327307827461 4.372396832546753 1 1 0
1545 1 9.758532582151775 7.911133877697296 5.903037827743024 -1 2 2
457 1 11.439084119840004 5.755321401961795 6.879680741137223 1 1 0
419 1 11.841807217968027 7.500451917648395 5.198343019390544 1 0 0
479 1 8.78085895221212 5.588973959957568 6.695378183277634 0 1 0
1377 1 24.31707729378228 20.23829586984795 4.690780118564784 0 0 0
1574 1 12.46681918588852 4.843581888732541 4.814297451128713 0 0 -1
253 1 13.493200062361696 5.859276777918667 7.988567124485145 -1 0 0
2303 1 17.22999839851259 5.2720416475798295 4.342299762094967 0 0 2
969 1 12.289155826162713 7.818604432061045 7.8097294747906805 0 1 0
1362 1 14.090380130576786 6.596723485839591 5.934147243518526 0 1 0
938 1 20.788553914511375 23.74848635126852 12.638894394868876 0 0 0
2211 1 19.190992968643968 6.618289294126147 4.399172158834335 -1 -1 0
350 1 20.521697592994773 24.225801920803676 3.693422193755567 0 -1 0
1966 1 16.245770486737054 5.500694172640583 6.534754889321803 -2 -1 -1
339 1 19.737090137940157 8.487186503257638 5.647499796936785 -1 0 0
1034 1 16.72670295329943 7.703728681257948 5.263780621133088 0 0 0
1792 1 14.630341217964414 8.071575471010055 3.417515997902953 1 -1 4
283 1 18.693676148135193 4.400529204924526 6.141366245913654 -1 0 0
2161 1 20.092208893292334 7.848277066491246 8.772361639615404 -1 -1 1
1913 1 22.394441354068825 6.045524763449137 7.895320078028298 0 0 1
2175 1 23.017626333297056 4.3162643319191965 6.659968395948996 1 2 2
302 1 11.51676589424772 15.534483677671966 16.231911502773023 1 0 0
114 1 20.961822536612214 6.117974594216571 6.173486385200711 0 0 0
2023 1 22.802999726560152 6.203819831116371 4.88034499000034 -1 1 3
102 1 20.902797404400122 7.788231502161679 3.7956031708987736 -1 -1 0
2638 1 0.13437293757217722 10.124211697517598 5.370150506430655 3 -1 1
1597 1 0.30839653166591785 9.050996192984888 7.936627475744304 -1 1 2
1848 1 22.51612916656869 10.035021605765758 5.591688650566274 0 2 2
2347 1 1.5757077495318634 11.95078829171044 6.923514306727911 0 -1 0
2517 1 -0.12437504391879342 12.484068935897396 4.570545419718447 1 -1 0
772 1 21.25789507597881 0.3943448069763468 13.796384962384932 0 1 0
1061 1 5.44729887561495 9.032623152263955 4.676048517378415 0 0 0
1446 1 2.04896509264373 9.282203366053198 6.628113267910001 3 1 2
278 1 7.647544423572278 9.348648091813672 5.6964025860862915 1 0 0
1762 1 3.0734905357321933 9.913531242258433 4.528514421949105 0 1 2
1765 1 6.0882740514197815 11.29798721526688 5.405314289780431 -2 -2 1
39 1 3.85444077862683 10.54761916455748 6.572138834463446 0 0 0
434 1 5.893394767515322 9.38363677058971 6.982072469805514 0 0 0
1642 1 8.197666157607827 12.301820741422365 4.73923953683576 4 -1 2
983 1 10.023789570253339 8.558406036782461 3.62854837973675 -1 0 0
60 1 10.095004714180734 11.659768386075225 7.763422371253306 -1 0 0
75 1 12.169670548534254 9.73995017840459 6.587552190046605 0 0 0
284 1 10.305859216891044 10.110173679707867 5.276770933137657 0 0 0
2197 1 0.9183827918534713 6.083540460701886 3.537395593246388 2 1 0
1054 1 -0.09527559060111854 4.139918633878103 16.02921171160964 0 0 0
1916 1 11.53231666546165 11.321531030283483 3.631494252861296 0 0 1
1815 1 7.710927737859393 8.620134340847393 3.6323072279308772 2 0 1
940 1 13.86916063315009 8.535665639135923 5.492477465313785 0 0 0
975 1 15.922282669688688 9.650088063571628 6.221856148113953 0 0 0
2414 1 12.640589172999645 11.978348398289105 6.2976496976943315 1 2 2
708 1 15.199585128222362 12.025911799574441 6.972564324684139 -1 0 0
2208 1 13.390097621170439 10.717563884956542 4.38405728360232 -2 -1 0
727 1 17.820127013164537 9.765337091948533 4.930814060075933 0 0 0
1548 1 17.83396006110634 11.299804864626633 6.718833035047194 1 0 1
362 1 17.88566488206994 9.053626766704792 7.623754380536664 -1 0 0
870 1 20.677046793138036 10.437559798241619 4.008921727894718 0 1 0
538 1 20.597782114452308 12.209032690558944 6.249477424917582 0 0 0
1419 1 21.647366904306928 8.287624584669434 7.15874474801198 1 -1 1
2677 1 23.205820054711648 8.396657161212845 3.907817707160008 0 -2 2
1859 1 22.398941824214628 12.157034207377857 4.707244917934364 0 -1 3
72 1 23.998531359146252 7.7561662496279755 6.50588721271036 -1 0 0
2312 1 22.22376904024526 12.013128590467858 7.665450588543601 0 0 1
1029 1 1.6586979586627546 14.126130527953306 4.464924198328774 1 0 0
1554 1 24.550129168048105 14.783083397884408 4.51540604948595 0 0 0
2719 1 2.310569931380994 16.600579364800165 4.924795526069298 -2 0 -1
232 1 2.9566859165635133 14.541433164395489 6.288444954161584 -1 0 0
1386 1 1.8012404400256936 11.437001893583822 3.3114637924930683 0 -2 0
990 1 0.6755068022628843 15.14551259120065 6.548023849110952 0 0 0
998 1 4.4335747207481235 12.450028976671886 7.907519518603372 1 0 0
1119 1 12.10301007374296 22.21833595855218 14.031188562384655 0 0 0
737 1 5.584164300902951 13.20599112626025 3.7789890907240182 0 0 0
705 1 3.278712082594501 12.486582686346031 5.058667903722364 -1 0 0
956 1 4.289420177507067 16.395574235317355 6.331252292847854 0 1 0
1469 1 6.620242360974691 15.457191896230057 5.148227650041672 2 0 0
1547 1 5.320398842329223 13.610126161310339 6.3542583127573025 -2 -3 0
1149 1 10.528386090755674 12.925763383779428 5.424286847058136 -1 0 0
105 1 7.872065578220695 14.335885391575598 3.350389747187447 0 -1 0
1946 1 10.753148812768119 15.009921328988636 4.140579769875627 2 0 1
1498 1 12.667961948905983 13.078822801088451 3.962531700729329 0 -1 1
27 1 11.804690515041646 14.147975272453829 7.089779673793764 0 -1 0
277 1 10.488268075907909 15.855495056297848 6.18205277625298 1 0 0
1760 1 8.467863686819916 14.344790027598846 5.772017067221189 1 -1 1
747 1 15.783751913787622 16.313913836824845 5.1088871483985905 0 1 0
711 1 14.47698977009669 13.618725698761256 5.336138804367357 0 0 0
1800 1 13.286882691857931 15.438077996890785 5.358821677973079 -2 0 1
1893 1 15.433331278897288 15.420399489177875 7.186917236049501 0 3 1
9 1 17.065084304219955 13.873986205080852 5.89321039603057 0 -1 0
250 1 14.533347372900177 17.53844240518997 6.882703550425827 0 -1 0
2339 1 18.965372651807403 14.124945337870953 7.823698370316977 0 1 2
928 1 17.70016061290243 15.781087004995054 6.224123548539748 0 0 0
1714 1 19.179309541278524 14.135286800292313 5.374948784483615 -1 1 0
2041 1 18.137824071993432 15.67936134986974 3.746078212390677 1 0 1
225 1 20.12871936669344 15.937094495848555 9.02796794445126 -1 -1 0
408 1 1.5955741600551736 2.207963135071673 15.832839647125542 0 0 0
2173 1 17.006768895102823 21.049082589975253 13.368009734167083 -3 -1 -1
2122 1 23.732836277742795 13.103191862662085 6.24091127086052 1 1 0
2090 1 5.470663158181302 6.9916331406355 3.3391157331543155 0 0 1
1853 1 20.120082279416362 15.871391408023886 6.4080045504153365 0 -1 1
830 1 21.638945347817963 14.425583217147436 4.820313715708104 -1 1 0
752 1 23.279288206690165 15.60440534975772 6.2162216245443895 0 0 0
2635 1 0.37464254227125826 8.287394301897251 3.5979342173760203 2 1 -1
1884 1 18.341746783808752 11.909533086287071 4.634841620071077 -3 -1 0
1152 1 23.117238891084707 24.39533057138395 12.926587699017826 -1 0 0
2147 1 2.988604007540546 18.839407518361543 4.476468821754086 2 -1 0
2625 1 14.20016201209343 23.438443618992128 15.219986204331354 1 1 0
765 1 0.9799085465227722 19.51330648660369 5.3913146545456 0 1 0
356 1 2.973408980484725 21.044159298366388 5.942035204657923 1 -1 0
2152 1 3.9614137995143333 19.016139903271785 6.72978362900408 -1 0 0
164 1 4.198573780066597 15.315038618074743 4.421808857397149 0 0 0
1876 1 1.9277306271110062 18.991263475454616 7.333072465426721 2 -1 1
614 1 15.636042714878974 -0.27960217091762196 14.405466864395326 0 0 0
2185 1 5.014153257711239 17.77532216300627 4.7108346493625435 0 1 -1
1577 1 5.7168547010661 20.099620336719358 7.598616868012413 0 0 3
319 1 7.383465508329904 19.562842631398496 6.115018174028513 0 -1 0
1776 1 8.104473789474156 21.55440481309966 4.6522025815758195 2 -1 1
2383 1 6.927097326705756 19.273518169534388 3.6822421916963526 0 0 0
2387 1 9.577499643096491 19.426513136834384 5.036611175408723 1 0 0
1837 1 8.406533301071619 17.265857373358383 5.681620019702793 -1 -1 2
86 1 10.540857199098197 18.346614134255837 6.863410109399689 -1 0 0
2188 1 12.250909573033944 17.730828793984774 5.819422971223612 0 0 0
157 1 13.73503861753207 19.88529899179625 5.093074708093575 0 0 0
2416 1 11.708293548127966 20.420464382824697 6.583829811630624 0 0 1
1404 1 17.24364315392756 2.2625955106473 3.8213818934380113 -2 -1 0
683 1 14.440746144712623 21.574025587936447 3.278283103724844 0 -1 0
94 1 16.463841972049092 22.119202187699404 16.238101707703485 0 0 0
2169 1 13.837624919588007 17.39293546648735 4.189443060698854 1 -1 0
168 1 14.735618364226605 19.736008800796807 8.421019405536322 -1 0 0
2504 1 15.84685448231619 20.519383176563114 6.550065502479944 -2 0 1
1189 1 4.365958525849316 20.225724625721423 3.362252118139077 1 0 0
11 1 25.063636587786274 0.07108173562297337 11.578787897051905 -1 0 0
2209 1 18.792165774280985 19.773989890658736 4.3818025910066165 0 -1 1
2636 1 17.78988628176647 17.753954650349577 5.201336428196726 1 0 -1
1912 1 18.565583718602092 19.61578336314096 6.726840774433251 0 -2 -1
145 1 15.606074439970882 18.65217310340217 5.115478129891457 0 -1 0
1878 1 20.52349292487231 18.063636000577212 5.797934439101988 -1 -2 3
422 1 20.35603074315204 19.764610584521364 15.614952329307297 -1 -1 0
2404 1 24.741836604417344 0.8868754664505671 3.720657776619026 -1 1 0
838 1 -0.14437692506326452 17.332651698654086 7.76136082612893 0 0 0
2394 1 22.050553799423042 16.60508711410591 4.483233929532917 -1 2 2
931 1 -0.0981497096712875 17.177850013905694 5.21464424897168 0 0 0
1161 1 23.346262753799323 17.98041521476895 6.308662289768138 0 0 0
1432 1 24.778546998208192 20.112863684591513 6.868942484419781 -2 0 -1
602 1 19.935566717337707 11.194133472319812 16.217952228495108 -1 0 0
346 1 15.161834714636987 9.71434925119667 15.267747983973052 0 0 0
2513 1 2.4327550158004807 21.758058181692203 3.7866093869045687 1 0 2
2089 1 0.8117340737766421 18.05628423063466 3.3738569725659975 1 -1 1
796 1 2.138420652604741 23.340071090114183 6.610058500519941 1 0 0
2729 1 3.2553664571172205 24.437651828796124 4.261537711586213 2 -2 0
1449 1 0.10494155199133909 24.521838655210182 5.202571859225407 1 0 -1
2690 1 5.141014142536958 22.853417647969366 3.4827247533990486 -3 1 2
818 1 6.706058097636517 24.25411671949874 7.955483912780919 0 0 0
1159 1 5.289745969244509 21.031817587529055 5.358523232106335 0 0 0
2205 1 4.859510678082788 0.7480789204327698 5.281994464856325 2 0 -1
1331 1 5.519128553690017 23.53736416843252 5.879859089428395 1 0 0
426 1 11.622421091114091 19.228516125191305 4.291349061450529 0 0 0
120 1 6.956570724802514 -0.1419964292163325 4.623424871807764 0 0 0
194 1 11.216954176424085 24.237599533559646 5.365339645060329 0 0 0
1156 1 10.25661620256894 22.149901161434034 4.886469442458933 0 0 0
1414 1 11.041121569731565 22.729818032898816 7.522851489734114 -1 -3 1
371 1 10.349528449074146 25.049706315169008 8.217548829826452 1 -1 0
311 1 20.51710962310826 4.900354789334035 3.5868462959224203 -1 0 0
401 1 13.507574003037998 -0.10350440329558788 5.162771949788217 0 0 0
104 1 13.116311948452674 23.6899214915289 7.363887681923705 0 -1 0
179 1 13.888094026673791 21.421957812526 6.807091560424407 0 0 0
1535 1 15.419859894504592 23.154301297025604 5.388281329549454 0 1 1
867 1 12.941057323167605 22.615545724657277 5.097053795960325 0 0 0
351 1 15.155060898283669 25.03654789220721 6.7535227947027465 0 -1 0
330 1 17.033534831155976 20.866884249492777 8.44993500863437 0 0 0
167 1 18.033868081175896 22.517647207320106 7.018619846578078 -1 -1 0
84 1 23.83949200912944 22.69334799660353 14.32452996284797 0 -1 0
2251 1 16.74448033994963 21.103910614548656 4.406479861891006 0 -1 0
512 1 19.16872272408316 0.522177484538682 8.248768124976884 0 0 0
56 1 20.395405370154393 23.731958707373686 8.032624931875452 0 -1 0
276 1 19.43508077173195 24.591774790217304 6.106401727013825 0 0 0
358 1 20.196377625840952 21.474587448690862 6.458924770783104 -1 -1 0
2014 1 22.563241044512406 21.445115296703104 7.557762730297965 -1 -3 2
1775 1 0.5271973026341676 21.989039589878143 5.187014298588629 -1 1 1
801 1 20.451637959966373 21.475538112058718 4.102051472002163 -1 0 0
275 1 21.482875705669677 23.453702219274614 5.9351820106010535 0 -1 0
1106 1 23.196045294183243 24.37203222135186 4.19266769353735 0 0 0
117 1 22.135222467386534 20.156582441863474 5.806760777990513 0 -1 0
704 1 23.3679043997388 -0.2911487465727974 6.2455186751154095 -1 1 0
224 1 1.9450169610296548 3.12335903654652 6.856929297699706 1 0 0
354 1 0.262093059325641 2.395545570799534 8.860867517781788 1 0 0
2410 1 2.2239058300340977 1.2357030342555 8.323712102115596 -1 2 0
259 1 2.2541158548339966 3.9944199347166514 9.20393444933692 0 1 0
423 1 1.78118053760852 1.584421048723948 11.305894674546524 0 0 0
2271 1 4.019403305243529 2.6590197269070885 10.020580714914342 1 2 1
1514 1 2.5229584932240914 0.13267342597810805 6.027518489463186 0 -1 -2
329 1 4.258940070408023 1.1320373678284819 11.50928373074213 0 0 0
1023 1 6.411814074974408 2.0310489090129673 9.505600844648669 0 1 0
5 1 5.394693968592132 3.2523079918752216 11.702314047882457 -1 0 0
204 1 6.8128203909692315 0.8375077343955539 11.673320601115217 0 0 0
35 1 8.22977379503228 0.855196848828687 8.706429705076076 0 0 0
817 1 5.461384720341019 -0.29989916361266405 9.627092834359786 0 0 0
723 1 10.119423340671577 2.0071058255342598 8.747554064153618 0 1 0
694 1 8.181704491039417 2.4048756564844767 10.620152384492814 0 1 0
959 1 9.308256604241938 4.101154675994623 8.8017102023273 0 1 0
793 1 10.443431680522567 2.866839235210667 10.889063010852906 0 0 0
2678 1 12.038312754076829 0.43709562797466495 10.018723276187657 0 -1 2
731 1 7.022881732039637 4.294687496461506 10.12763273085717 0 1 0
2170 1 11.161880637249988 1.024231495466986 12.350071102689007 -1 0 1
799 1 12.950564536155111 2.7779603731009748 9.289103691309412 -1 1 0
57 1 14.11536733976034 0.6855337827242638 8.449617290935633 -1 0 0
180 1 16.386778623898664 25.05881799949141 9.760158680225535 0 -1 0
896 1 14.152455718804235 0.48904649936570055 11.206549538091124 1 1 0
972 1 15.364934909279041 2.48103227454855 10.59838852197473 -1 0 0
860 1 13.330954919359082 2.864803415660335 12.031372823153582 0 1 0
974 1 17.75772744681977 1.3228326558602808 10.664441091009166 0 1 0
885 1 17.066981356898864 3.2696173481826216 12.292421171650371 0 1 0
1409 1 19.302528568302733 4.379140879808078 10.507386218019988 -1 1 2
965 1 19.94528856401024 1.5344021945179496 11.850557000134813 0 1 0
64 1 16.528834945659373 -0.3002362766655099 12.16597426780813 -1 1 0
2442 1 21.795139809003878 3.6021612546049506 8.755767757982486 0 1 2
1621 1 23.76237294895375 1.8224066835610433 7.96715699225498 -1 0 1
327 1 24.929220157479254 2.160163468571948 12.482094033513052 -1 0 0
153 1 23.004545070152503 0.1306980558288428 9.773398147652742 0 0 0
462 1 24.055477340488316 2.510021984727508 10.170936602683879 -1 0 0
2200 1 20.909300302320467 1.48360515866755 9.810637795330525 -1 0 -2
2691 1 0.3886666428849471 0.8898801772239082 6.734157088154165 0 1 -2
2665 1 22.64995491689838 1.3448407837060636 11.730916087698544 -1 2 2
387 1 4.613942396171171 3.3197007971287835 7.352706775683299 0 0 0
510 1 0.4424055478904625 3.5735293712402267 11.21056924130041 1 0 0
842 1 0.8372656115843271 5.113017787780447 7.626613844247289 0 0 0
2499 1 1.9948254523742555 7.212348782085953 7.991881281821991 -1 0 0
1047 1 1.0050570219085375 5.998166029303762 10.130536308961968 0 0 0
2744 1 24.486603875110738 9.237730829487308 10.233219416897427 0 0 0
1011 1 2.224535533551024 7.760672157865326 12.10345522684443 0 1 0
856 1 3.8433830480649904 5.324264164299606 8.407277517248449 0 1 0
1881 1 3.202532264825388 7.061219824207027 10.285982921632318 2 0 0
100 1 4.8690429042907475 5.059117452158796 10.589084505588016 -1 0 0
269 1 5.237312846305298 6.8791449858699805 9.614743148799839 0 0 0
642 1 7.109666049074978 7.152902374897668 11.127407455638508 0 0 0
1526 1 7.900812309097077 7.878498302815133 7.197936756660512 0 0 2
1013 1 4.217367094944147 8.18677680476727 8.1452010591615 1 0 0
1488 1 7.830727658096254 6.14850379910591 9.115107682725332 0 0 3
190 1 10.389864266261002 6.9704094976318425 8.564128808859982 0 1 0
2606 1 9.34671908986024 4.876866396656804 10.915075378862497 1 1 2
893 1 12.923259409279115 6.965103141046433 10.175426636742847 0 1 0
1088 1 10.918047732588539 7.151343332042762 10.939723999244396 0 1 0
221 1 8.95924331011529 8.15685879920833 9.947337928126847 0 -1 0
2302 1 11.660248366233791 5.179215966241645 9.377609247674476 2 2 0
883 1 15.172157586842696 6.254900101980297 9.353411561020174 -1 0 0
321 1 13.942947445342728 4.5205790985539585 10.52084844942353 0 0 0
2260 1 15.258293854394154 3.3624554475234665 8.401430952178874 -1 -1 3
789 1 16.727676940369122 4.70947783668132 10.555910734852231 -1 1 0
76 1 18.436515586206696 6.648475421021267 6.7963133032157765 0 0 0
2412 1 17.27642247192015 5.063835114986613 8.5371240823596 -1 -1 -1
827 1 17.69656435881324 5.700867404857583 12.83943390528218 -1 1 0
980 1 18.894080299130263 6.997145040762555 10.960383742230436 0 0 0
2454 1 15.78937222469807 7.617018638530368 7.520192488072035 -2 2 1
326 1 20.02804066635641 4.974269507575447 8.098264604989964 -1 0 0
787 1 17.682453750444008 7.223971919416758 9.20163259923978 0 1 0
800 1 22.457832161456235 8.039380875468828 9.504274664559809 0 0 0
992 1 23.890981967911024 6.6047935607744215 10.917813818015178 -1 1 0
1098 1 24.14355764246451 4.932136767531363 8.880352653929904 -1 1 0
595 1 21.479298322967626 5.812568061506511 10.095838082429756 -1 0 0
205 1 22.181386582887576 7.0699941046872965 11.942992536435083 0 -1 0
238 1 1.3992670327236487 8.96697196804017 10.103022534254405 0 0 0
1167 1 24.74990679841632 11.302132450344207 7.264878926751691 -1 1 0
1126 1 0.7148789299304381 11.348400057341403 9.151702533851207 1 0 0
960 1 1.6818621961692704 12.303443951626932 11.079979921381282 0 0 0
1889 1 25.094845373594108 8.101147449047621 12.152202225917476 1 1 1
297 1 2.807255712484785 10.341512939160356 8.852802556306779 0 0 0
38 1 0.37711233284894996 10.322701123141503 11.610301116535423 0 0 0
450 1 4.895209573718483 11.78517754303543 11.02528650473172 0 0 0
237 1 5.59970351413453 10.572240362518384 8.858804662199642 0 0 0
40 1 4.314806092000296 9.05785068047552 10.385340161090504 0 0 0
265 1 7.292554770186479 12.19158606272975 7.133461854534756 0 0 0
2289 1 6.892425831190653 8.616551278445389 9.30731830881804 1 1 -2
406 1 6.0351377375455 13.00558961499975 9.029352757897104 0 -1 0
716 1 6.191968338461099 9.624696230643504 11.66875498858378 0 1 0
213 1 8.285974782782558 10.286266267655733 8.26501023515794 0 -1 0
365 1 10.482371967001068 9.180025876418833 8.060692092417865 0 0 0
701 1 10.815739039972595 9.162732930906504 12.278506674359853 -1 0 0
948 1 10.403669003742372 9.952683999541643 10.330327602000306 0 0 0
1761 1 7.911686932689541 10.592566063867102 10.388020521256838 1 1 0
984 1 12.868273347561074 11.548543810833975 11.90129555139718 0 0 0
2140 1 14.145092785342063 9.884498367672636 7.832843325486798 0 0 -1
2396 1 12.611344372565759 9.242726370037364 10.97123067816647 1 2 0
1983 1 12.280114764565177 10.62525045832868 8.871231315607492 1 -1 1
847 1 14.65637393470548 8.336169986665567 9.572879085419828 0 0 0
1819 1 14.564507802543739 10.590510880886328 10.317971192453909 0 0 1
850 1 18.756323859262327 9.75711273993805 9.772285328132288 0 0 0
715 1 16.372424386741017 7.399646965262048 11.203952621605604 0 1 0
347 1 16.822694335085373 10.525488439115616 11.365869572416564 -1 0 0
125 1 16.42764809964696 10.633918564766635 8.895064475137243 0 0 0
1085 1 18.788898738872025 11.671801390002189 10.946576451918727 -1 0 0
840 1 18.585957610095054 8.90473269126495 12.395304836974145 -1 1 0
2287 1 19.098610665281218 12.028257043073223 8.594288223771043 0 1 2
578 1 20.537384515848277 8.724075414154328 10.91431484090193 -1 0 0
724 1 21.130175850901626 10.211587657197393 9.490004501137644 0 0 0
788 1 19.953627747827763 10.373698538731125 7.508294217257172 -1 0 0
1267 1 23.467209058911056 11.232331010903744 10.469692531934857 0 0 0
993 1 23.589571903018516 9.532771119144542 7.826289463836145 0 0 0
1032 1 23.056859353632557 13.270601553555101 9.355351988637366 -1 0 0
137 1 19.644140980742236 13.34436908203978 12.200820430792795 0 -1 0
381 1 21.740116975445194 14.392910135999838 7.694906898615456 0 0 0
324 1 24.960169109522813 13.23617489225611 10.171755891923091 -1 0 0
2242 1 2.347673339223724 16.252390969467704 7.887866727586916 2 1 1
1241 1 2.179520584411676 13.81442414033012 9.223065357104506 1 0 0
732 1 4.194599062133528 14.126168276462415 10.477703211777133 0 0 0
182 1 0.03223528583936647 13.555487983472378 7.718053462546303 1 -1 0
294 1 3.2030817342079114 16.178441251051265 10.037564514372061 1 0 0
844 1 1.7065241074940642 14.540179702776687 11.576179022612504 1 -1 0
976 1 6.363720220367293 17.684147099794462 6.830750033313645 1 0 0
29 1 4.456169732276923 14.897274802503755 8.021665871293472 0 -1 0
742 1 6.919727747203019 15.062747115239183 7.878135099504078 0 0 0
2093 1 5.525719635261489 16.286729993767658 11.546840229938436 0 0 -2
1130 1 7.607213670368037 12.720887395564208 11.651000560467606 0 1 0
2555 1 6.882209310873419 14.778891396332416 10.37015619843712 0 0 0
420 1 10.498915615303968 15.550689560789564 9.310858973494273 0 0 0
1286 1 8.688827411155202 13.001692159229568 9.512581566189874 0 0 0
447 1 9.456491421560905 14.204341476727983 7.639406916731715 0 -1 0
68 1 11.248278188002518 12.919932869212392 9.267671931842534 -1 0 0
335 1 9.070769294234141 14.561385718034115 11.441796510936813 0 0 0
887 1 8.703842555503535 16.562005833518818 8.29687852309874 0 0 0
2375 1 12.831503830971505 14.613340906367846 9.204550416381998 -1 0 1
1109 1 13.742690706938289 12.896608665455584 8.078945749153533 0 0 0
174 1 14.208074679236548 12.80451552972862 10.650557514975274 0 0 0
612 1 17.338849510937035 15.837819460671707 8.506634558292744 0 -1 0
1467 1 16.44072014462676 12.709864903700561 10.661298458183799 1 1 -1
1880 1 14.414856645182313 15.407021496788518 11.252916815957898 0 0 1
599 1 15.4193482590799 14.525449647104809 9.345814906576003 -1 -1 0
138 1 16.765397329320546 13.09827131123226 8.552479758847763 0 0 0
273 1 18.344913251398033 14.443077165899318 10.387144206298508 0 -1 0
128 1 20.799039124379444 13.564534720865442 10.037044239544537 -1 -1 0
837 1 20.63981554106807 18.24094014939979 9.808473345992187 0 0 0
1127 1 18.497353381483677 16.743629026626653 10.355551839812565 -1 0 0
385 1 20.25501976799104 15.47319550136856 11.503869841704752 0 0 0
171 1 15.169777562298272 17.01343305745407 9.29693744357277 0 0 0
2231 1 24.14693583729179 15.529783369429234 8.35635516676759 -1 1 1
1810 1 22.16387100395247 17.134604187908504 8.016236871008967 -3 -2 1
126 1 22.346755145205872 15.98475256239006 10.102158643076788 0 0 0
2557 1 0.7600740357806872 16.269290988435962 9.779901130103946 0 1 2
345 1 21.989439497134573 18.40126733638645 13.668916774002815 -1 0 0
1355 1 24.440893788315762 15.479636304935688 11.20925689621111 0 1 0
1287 1 2.148937703240608 18.231643746989654 9.799971229921677 1 0 0
124 1 1.2526284093789 21.180216389577303 7.6679106350617054 1 -1 0
2150 1 3.5428117373773147 20.108479963249756 8.816113531789224 0 2 2
758 1 0.12249584264923458 18.99132035692376 11.873804766782634 0 0 0
186 1 2.280595985845341 19.277066918786932 12.579288055472194 0 0 0
547 1 1.628343586207836 20.679751291141372 10.356492957044907 0 -1 0
55 1 8.318521779824236 18.912447050870902 8.662843710594077 1 -1 0
900 1 4.7993672980513 18.09551369242388 8.622828347085994 0 0 0
177 1 6.085876207636287 19.78987378120697 9.786603085054606 0 0 0
808 1 6.6496553398322495 16.85421254258985 9.562280652045478 0 0 0
2575 1 4.020115445202245 20.83909460022984 10.892853637346033 -1 0 2
1103 1 4.170605591194956 18.04450999901281 11.520265791218298 0 0 0
2679 1 12.853616727855721 18.98102242486917 7.913353904070593 -2 0 1
961 1 9.169091951209241 20.694058298641913 6.890630619136952 0 0 0
1116 1 8.279153141171305 21.69060197405608 10.131235685623746 0 0 0
2194 1 11.436095570503342 16.03106301611431 11.725126242422538 1 2 1
1423 1 9.464503326371107 16.996586437311105 11.029368860974463 0 -2 -1
172 1 10.471965502843501 20.43750626606049 8.716596568680647 0 0 0
821 1 10.853628435189362 18.05037311498169 9.13262692941936 0 0 0
2737 1 13.587866145238792 18.079582776831774 12.193486963211711 1 0 1
2372 1 13.51358773850021 19.471482606998343 10.3959737023768 1 1 1
2293 1 12.81215935797248 16.46388281715404 7.856467827178579 0 0 0
1077 1 14.8827931846408 21.617067833322654 9.825505781891103 0 0 0
721 1 12.835480276722093 16.75959780963845 10.047503396265583 0 0 0
954 1 15.889844806144016 17.481808469948735 11.783663470131106 -1 1 0
1401 1 16.515678192596717 18.177592136317596 7.616015898227505 1 -1 0
2406 1 15.247706902966778 19.85320446809935 12.175018089308793 0 -2 1
1640 1 16.569459631082502 18.783317930181838 9.779611721793966 0 0 -2
92 1 18.95076241517255 17.429356279108486 7.729053375607167 -1 -1 0
272 1 18.711977957202432 19.059604386786088 9.39023446485566 0 -1 0
1660 1 20.71388902271533 19.57240797152451 7.8127011875094805 1 -1 2
456 1 20.622090336367794 20.26538909039708 11.371159228089644 0 -1 0
769 1 19.258937665701 21.13510888906081 8.859700183533558 0 0 0
1929 1 24.521635955388984 21.6681770224398 8.940041426816993 -1 -1 1
2536 1 0.14929044445128659 19.32254787837902 8.883864175466979 2 -1 1
2522 1 24.417930056437704 17.622244239696442 9.810785756218568 0 0 1
874 1 23.086879406402723 19.361417431377358 8.712361539463046 0 0 0
96 1 24.402624406299623 21.12974303626461 11.289169892089024 0 -1 0
2464 1 22.576124645907935 18.448635450541623 11.20241191257751 -1 1 1
1787 1 23.64975193014858 19.78408971244036 13.29622384753461 0 -1 1
1615 1 1.918159467409685 24.068758770691694 9.04126043685466 -1 -2 1
1202 1 2.131766075847397 24.71517149744704 11.409188774833627 0 0 0
2270 1 3.104761153910405 22.381556524023786 9.456009040826384 0 1 0
1063 1 3.972803954850069 24.451671769066515 7.965772443746059 1 0 0
1173 1 -0.1497827872373538 -0.2718153816781897 9.15461063505165 1 1 0