LAMMPS data file via write_data, version 29 Oct 2020, timestep = 300000

2048 atoms
1 atom types

-0.11617358588646809 28.46817358588519 xlo xhi
-0.11617358588646809 28.46817358588519 ylo yhi
-0.11617358588646809 28.46817358588519 zlo zhi

Masses

1 58.933

Atoms # atomic

8 1 3.632836173710279 1.8304052585289852 1.7342115953495716 0 0 0
35 1 1.5768173228469498 3.4384790985564737 1.6504281627311006 0 0 0
130 1 1.6106965472299013 1.7367589275157147 3.461709385806546 0 0 0
165 1 3.411849547655118 3.4855054295201855 3.4771988565257286 0 0 0
4 1 28.424884369099445 1.6413530663415055 1.613805967178613 -1 0 0
133 1 3.367716476330517 -0.07673410298935159 3.3197017374411315 0 0 0
399 1 12.449531570931919 -0.08179112992710103 12.395390698071122 0 0 0
3 1 1.616090549454777 -0.07954045604367643 1.641589395031772 0 0 0
12 1 7.276585758623661 1.8134920114722 1.8085928016830932 0 0 0
39 1 5.248741265522634 3.592425372084358 1.595457974107004 0 0 0
134 1 5.29454385805589 1.642284095033399 3.4205522724778765 0 0 0
169 1 7.0309230811085826 3.6446928311706506 3.3325602313835083 0 0 0
403 1 15.865151800085865 -0.09604056009190032 12.375916836646415 0 0 0
6 1 5.319772868299828 1.8634737228036333 0.01398050269314649 0 0 0
41 1 7.199224189106323 3.5087898894875647 -0.08231888684504005 0 0 0
16 1 10.644339294868479 1.6024318754731235 1.5506685130548368 0 0 0
43 1 8.867378257311413 3.585267538699708 1.7359785314368383 0 0 0
138 1 9.122534887394623 1.6915412465413682 3.378676262990887 0 0 0
173 1 10.650592412234648 3.4585443349130545 3.40093122905824 0 0 0
509 1 24.8875515997247 10.691813206102807 10.481265930694478 0 0 0
510 1 26.65540053315456 12.368133176135116 10.726546193514196 0 0 0
511 1 26.76755627804083 10.569041911059001 12.348923227852062 0 0 0
397 1 10.545522097034798 -0.05354524075963596 10.378165099695023 0 0 0
20 1 14.19484629219898 1.5898823467003405 1.7301062912420295 0 0 0
47 1 12.471932558420505 3.490886355886053 1.8169776745912036 0 0 0
51 1 15.98729647342708 3.5689782327242914 1.5244132626416198 0 0 0
142 1 12.326003833115367 1.62986556899265 3.3884027405301085 0 0 0
146 1 15.999116861923785 1.7142649758121127 3.4162868009104925 0 0 0
177 1 14.251514295949764 3.545108282196037 3.335646966357068 0 0 0
512 1 24.864607701025 12.461972370234015 12.352486507160151 0 0 0
389 1 3.3398149125191376 0.12179612251992822 10.421511548224407 0 0 0
1433 1 21.113221169403577 14.159404365931609 10.64090124153484 0 0 0
1427 1 15.851961448385236 14.129743948607928 12.434215317252178 0 0 0
24 1 17.6929352177392 1.7075738309623745 1.525833528319042 0 0 0
55 1 19.61520363495647 3.5267608102165746 1.7320673655672933 0 0 0
150 1 19.445109611985377 1.669655546620393 3.4700736139694612 0 0 0
181 1 17.92549082401154 3.4262080204930356 3.426636799044544 0 0 0
23 1 19.49435660886108 0.0278187245903338 1.6415858223071382 0 0 0
1425 1 14.028831269711983 14.034892224897217 10.731250106578898 0 0 0
1437 1 24.996264062206446 14.17005860058643 10.613194654609345 0 0 0
28 1 21.18094992775854 1.7129859868654989 1.7194529366296862 0 0 0
59 1 22.822987587806058 3.5161188081429335 1.7396854667916948 0 0 0
154 1 23.03325260620855 1.6541849116516332 3.4013549084484476 0 0 0
185 1 21.278033960116563 3.4162834339598898 3.509784336112445 0 0 0
1549 1 10.475129591913426 14.038600955717344 13.937255284511297 0 0 0
161 1 28.42069915946899 3.4779702403806367 3.603224500872826 -1 0 0
32 1 24.7455557429033 1.652276854833006 1.5813163402708008 0 0 0
63 1 26.518909816268042 3.450995411560165 1.836757622964118 0 0 0
158 1 26.520454386786078 1.6270424404029742 3.393617338837286 0 0 0
189 1 24.74086507774778 3.3358557864142733 3.4254920332958507 0 0 0
633 1 21.227522863324698 10.67354658057995 14.082174419637061 0 0 0
157 1 24.79520214875073 -0.06580478780404675 3.3194952536275357 0 0 0
129 1 28.338231397799873 -0.06724812726769866 3.4631246527587334 -1 0 0
40 1 3.374624251246986 5.284160050051589 1.6608635356406218 0 0 0
67 1 1.7632751573285497 7.0031926004934775 1.5671608466419602 0 0 0
72 1 3.507836484975214 8.86754286741523 1.5464634959535128 0 0 0
162 1 1.626277957738301 5.136628640656852 3.465281428047003 0 0 0
194 1 1.6940082983772806 8.83481659339242 3.243281705223154 0 0 0
197 1 3.4764979727929894 7.131725856987038 3.428289603108858 0 0 0
1419 1 8.957491090755699 14.013306287136974 12.281558741490645 0 0 0
285 1 24.859682795183375 -0.04060563758543978 7.192550013958409 0 0 0
66 1 1.736606127845045 8.90081643344382 -0.11031440449990444 0 0 0
44 1 7.0988627991907265 5.330690310010633 1.572298052522734 0 0 0
71 1 5.280551780902533 7.028586253293009 1.5897515709732575 0 0 0
76 1 7.122632007844907 8.900217006368756 1.6804270862796775 0 0 0
166 1 5.10286364938557 5.3648922046209835 3.441438854099478 0 0 0
198 1 5.397908139779701 8.860583900009125 3.46370906798788 0 0 0
201 1 7.047743638418892 6.9377854642914585 3.331664967262109 0 0 0
533 1 17.703629157335662 -0.0003436763409006005 14.102115934688092 0 0 0
48 1 10.724507175276393 5.201171866523898 1.7058654149963766 0 0 0
75 1 8.823178592515799 7.206812058084064 1.7794224918835546 0 0 0
80 1 10.59248388821926 8.889451445545877 1.715921771797077 0 0 0
170 1 8.91642703173219 5.441569202530304 3.408584405952451 0 0 0
202 1 8.79662617783347 8.846917946498127 3.4553985114508827 0 0 0
205 1 10.718627001683192 7.058958873283667 3.5301526540598416 0 0 0
74 1 8.834007586678318 8.955394102176069 -0.0144539641071917 0 0 0
42 1 8.923179712951022 5.283997100693794 -0.07665082073352611 0 0 0
52 1 14.155418515547728 5.069104211288942 1.516064291002165 0 0 0
79 1 12.168117854792856 7.087134877374056 1.8569532355417282 0 0 0
83 1 16.025008859551725 6.964730010309897 1.6683053320707022 0 0 0
84 1 14.12101865117367 8.71247360501187 1.731547499287912 0 0 0
174 1 12.3512740736668 5.27348449043931 3.355220936900334 0 0 0
178 1 16.12424964983398 5.250549769027203 3.3761692774366225 0 0 0
206 1 12.488447521023465 8.883252296189259 3.6354171160613515 0 0 0
209 1 14.245578765716516 6.848416075665797 3.4490869022762345 0 0 0
210 1 15.976612127637853 8.722974095216216 3.3813831367684073 0 0 0
155 1 23.172703796365187 -0.057980225354128834 5.118469572738267 0 0 0
56 1 17.910227596935542 5.269062763891907 1.6251335080294809 0 0 0
87 1 19.468928939795376 7.0058482277979115 1.5570979066280592 0 0 0
88 1 17.70113384615964 8.94700683720345 1.6011868984381588 0 0 0
182 1 19.478945189084037 5.289705338883434 3.6125479490112533 0 0 0
213 1 17.693817755452418 7.03513235709441 3.4381885691635583 0 0 0
214 1 19.48591380545857 8.923161453401242 3.3715122713408623 0 0 0
151 1 19.43957031414841 -0.06542977472317446 5.173701964666466 0 0 0
85 1 17.72141156523023 6.944230665259739 0.0026805147126070517 0 0 0
60 1 21.19015336930521 5.283678926351728 1.6658858208707537 0 0 0
91 1 22.954544943916392 7.133016128764017 1.7365304324855297 0 0 0
92 1 21.14867838465627 8.795817050486793 1.6537258863704736 0 0 0
186 1 23.01502535760151 5.36968236526968 3.510098110982042 0 0 0
217 1 21.16981926692878 7.064319292595381 3.647573632662491 0 0 0
218 1 22.95955368488693 8.74978280722528 3.7014094701472744 0 0 0
263 1 5.334102804187661 0.06656927267767543 8.936860300638894 0 0 0
135 1 5.247459943981952 -0.10819751204393313 5.100080975031626 0 0 0
68 1 28.38414115882906 8.914493925948525 1.6486109482980658 -1 0 0
65 1 28.328913750826057 6.963549847515933 0.02130650556892502 -1 0 0
193 1 -0.09584838560694209 7.100580828977376 3.3490896349678083 0 0 0
36 1 28.436363273062764 5.195115808724291 1.595627497641647 -1 0 0
64 1 24.61807642002496 5.459312485783497 1.7232069780015185 0 0 0
93 1 24.726900333339813 6.970950860658282 -0.051314631731742194 0 0 0
95 1 26.538376555637885 7.164825335856701 1.6860331383896225 0 0 0
96 1 24.87172902258144 8.939860699302752 1.6956574935916908 0 0 0
190 1 26.615617877284908 5.357578954768168 3.375418622220264 0 0 0
221 1 24.850350178502723 7.190222688717089 3.523232657740197 0 0 0
222 1 26.728807705948192 8.809156098133993 3.5245801896254343 0 0 0
99 1 1.7298117494794558 10.83895938462666 1.68139089487548 0 0 0
104 1 3.491201641862245 12.407716016609928 1.8602013174313234 0 0 0
226 1 1.6483816691898456 12.530581435047125 3.5704833533050935 0 0 0
229 1 3.531354661176199 10.530392478919726 3.5651182860998576 0 0 0
1167 1 12.528305293813458 14.137449985323004 5.49603201717277 0 0 0
100 1 28.410780236789144 12.292288607013246 1.7536471391937298 -1 0 0
225 1 28.464373009417184 10.464124836466148 3.6598122704542058 -1 0 0
145 1 14.300310287645708 -0.05598951636940441 3.635473673835509 0 0 0
103 1 5.323498207454323 10.537804286112786 1.7210663380960611 0 0 0
108 1 6.973136744969449 12.49069736262028 1.6502017893693777 0 0 0
230 1 5.131006990341279 12.302362860000635 3.5171053286270575 0 0 0
233 1 7.142478109207592 10.622944330763932 3.5859683097421415 0 0 0
505 1 21.316560681873714 10.58352508790026 10.613827157729657 0 0 0
107 1 8.809865474588618 10.646009145283584 1.6702030673005541 0 0 0
112 1 10.54206905432099 12.364652915385856 1.7512632333239864 0 0 0
234 1 8.750166729901705 12.600295290219748 3.5875155097450104 0 0 0
237 1 10.545154435260514 10.567787738446562 3.467477196466018 0 0 0
506 1 23.055092394720692 12.468742474674618 10.785958078707248 0 0 0
111 1 12.332171505735335 10.795105497868732 1.7922691563875142 0 0 0
114 1 15.863931154437607 12.505998178117185 -0.09625213992398342 0 0 0
115 1 15.928263000267755 10.654309722763324 1.5852374699022127 0 0 0
116 1 14.240999454776059 12.27212458157049 1.6876857247159587 0 0 0
238 1 12.380298765817804 12.388095000890823 3.6970932965366887 0 0 0
241 1 14.280941170883553 10.573333503857404 3.4657374656167854 0 0 0
242 1 15.884400974615392 12.525675797079819 3.5224504684084197 0 0 0
113 1 14.148498389688504 10.355008342898063 -0.04962020151255417 0 0 0
119 1 19.426004652759797 10.672548533846584 1.5688415410849985 0 0 0
120 1 17.639906561864095 12.448325599329845 1.8578537091193033 0 0 0
245 1 17.559227818430802 10.672701331361894 3.537871596616919 0 0 0
246 1 19.491119231525854 12.45419956387277 3.2946511382193964 0 0 0
19 1 15.990002006375427 -0.09940043835511148 1.7480098002276268 0 0 0
117 1 17.714973086215075 10.586727596078296 -0.08173237881922582 0 0 0
123 1 23.040990980644413 10.43538853022522 1.7506529408580551 0 0 0
124 1 21.324131719382887 12.318643798704128 1.7158497631642788 0 0 0
249 1 21.22723451573518 10.60278287010276 3.4298263500797064 0 0 0
250 1 23.141462908622135 12.420814037574514 3.293960717433773 0 0 0
1177 1 21.405461281676356 14.162010921555163 3.4586544035280924 0 0 0
507 1 23.180855446982317 10.523587000830974 12.429082681315236 0 0 0
508 1 21.269628972788627 12.39606323330089 12.357612967988244 0 0 0
127 1 26.56179308924651 10.592024280590936 1.8830566460972062 0 0 0
128 1 24.991473827984404 12.444172525216063 1.8321223046975983 0 0 0
253 1 24.787641245948844 10.452068670067646 3.4708248623484814 0 0 0
254 1 26.628731037695626 12.4045998664642 3.55530145509655 0 0 0
125 1 24.9137133965209 10.613271148190535 -0.0665540814288733 0 0 0
630 1 19.45866098055367 12.51456137131529 14.15071823422894 0 0 0
501 1 17.681320528080555 10.691854340517354 10.679247612087508 0 0 0
136 1 3.3113650738857943 1.5200937942859136 5.224692586054054 0 0 0
163 1 1.6278256557869502 3.3518485262429203 5.2543193993704405 0 0 0
258 1 1.6283693363650094 1.6814837892102248 7.012532772754088 0 0 0
260 1 -0.10853166426827074 1.7275315342760684 8.899717790461903 0 0 0
264 1 3.3275698252521164 1.6971039399150252 8.606652664301377 0 0 0
291 1 1.5153757436904998 3.4721036538724825 8.822805019493828 0 0 0
293 1 3.465458181681037 3.3802851274885817 6.966462463666459 0 0 0
502 1 19.320902065985337 12.53748303128521 10.7017072007589 0 0 0
503 1 19.503572676359255 10.671659190140996 12.319928341135126 0 0 0
261 1 3.4893858761591563 -0.09333086313882318 7.108843411773999 0 0 0
265 1 6.958022787177326 0.02151076575875399 6.928462541724797 0 0 0
140 1 7.116622033625476 1.6898792245140715 5.071450934398882 0 0 0
167 1 5.15212975042525 3.452987076436511 5.155306315012034 0 0 0
262 1 5.196846781759267 1.6747992971514267 6.856246317680334 0 0 0
268 1 7.079733109347805 1.802096208190855 8.691175387145144 0 0 0
295 1 5.269855938569664 3.360181344021338 8.763815077278402 0 0 0
297 1 7.028754742258935 3.4553451734120277 6.9644069355372356 0 0 0
269 1 10.470288242085333 -0.0654266511807493 7.0756732622401115 0 0 0
267 1 8.773059425169231 -0.03334721230351706 8.784570186380934 0 0 0
144 1 10.714374056527115 1.7360693403855014 5.254812158087845 0 0 0
171 1 8.877589350717946 3.522717285007995 5.048805041288743 0 0 0
266 1 8.762841622071463 1.8395068490155249 6.847182020882821 0 0 0
272 1 10.534864045050153 1.861939774623476 8.735387045249887 0 0 0
299 1 8.741588507931978 3.623497986237457 8.769590975932866 0 0 0
301 1 10.551754424648504 3.4486491808739057 6.914350693823993 0 0 0
143 1 12.417866485616697 0.10919578733222252 5.197929963877313 0 0 0
273 1 14.279876434369402 -0.06946415195465422 7.119953009140592 0 0 0
271 1 12.370087837691733 -0.0794345712980439 8.69970152150233 0 0 0
504 1 17.603847805305406 12.371966214568104 12.480535296923906 0 0 0
148 1 14.15219670533597 1.8166385879650397 5.3121252376385515 0 0 0
175 1 12.479225290771597 3.494962898013343 5.03817909184274 0 0 0
179 1 15.858989473636955 3.4437357741376684 5.134905785731287 0 0 0
270 1 12.46824841792182 1.6042292008831207 7.084394156884099 0 0 0
274 1 15.951428114932153 1.7992649826974274 6.892339183891746 0 0 0
276 1 14.290538687296344 1.6709218924865021 8.800208730293638 0 0 0
303 1 12.474038235919885 3.501915830819732 8.81283919171509 0 0 0
305 1 14.240051007829374 3.4812729653278973 7.137690930633791 0 0 0
307 1 16.07510715122373 3.378636371936978 8.697026992022979 0 0 0
1039 1 12.512930912289761 14.092832994918034 1.740451552375004 0 0 0
152 1 17.606686572975832 1.566996653689286 5.235836448590548 0 0 0
183 1 19.532106015426507 3.432065961720264 5.32336941664924 0 0 0
278 1 19.429949877362265 1.628444373160051 6.962839975757303 0 0 0
280 1 17.670434331502413 1.565605594260404 8.947968555428016 0 0 0
309 1 17.825324567626232 3.4871620367974434 6.963914209446579 0 0 0
311 1 19.544099171532245 3.3957429874585405 8.822963962383582 0 0 0
281 1 21.337733745284915 -0.060421978213702474 6.849231339737659 0 0 0
156 1 21.303007818980248 1.6151674426398388 5.2414282796575655 0 0 0
187 1 23.00656934633405 3.3562364507332023 5.215952127012236 0 0 0
282 1 23.076669768988992 1.6284881088781558 7.177405121475176 0 0 0
284 1 21.140446236163235 1.542851292289635 8.813102953848645 0 0 0
313 1 21.261463926408837 3.4517668819935077 7.004739725305547 0 0 0
315 1 23.138254682837488 3.534336604653323 8.752667456028417 0 0 0
159 1 26.51228782763302 -0.1038955850639335 5.164671740519313 0 0 0
289 1 28.302127564073043 3.3113675720245843 6.909682253844902 -1 0 0
1169 1 14.09092592615644 14.156795335989536 3.567628571556158 0 0 0
132 1 28.46524967560799 1.5194184800864485 5.310113322133361 -1 0 0
160 1 24.832042714249983 1.7651528833221934 5.494881001137722 0 0 0
191 1 26.590824442761388 3.228702267086255 5.157899389297837 0 0 0
286 1 26.697320412700368 1.5333402124946127 7.080357789675939 0 0 0
288 1 24.87791857320543 1.7099707744953851 8.78386679912422 0 0 0
317 1 24.838392144821917 3.427901795978617 7.073024818173813 0 0 0
319 1 26.656424682994114 3.492292678014601 8.792954274182263 0 0 0
168 1 3.454037612383113 5.419453781794658 5.185336716474801 0 0 0
195 1 1.7552135708334673 7.037338603002334 5.103179753818287 0 0 0
200 1 3.362794302385699 8.724602039344191 5.149779885115523 0 0 0
290 1 1.6669956470921883 5.087877302823031 6.9452640266492836 0 0 0
296 1 3.4468543420028515 5.260995503442289 8.679221983572297 0 0 0
322 1 1.5955113364926237 8.83813262699227 6.9487244587395365 0 0 0
323 1 1.7015195215958754 6.9467531781646175 8.727843194108138 0 0 0
325 1 3.39509626275951 7.0491010307321496 7.003940677117206 0 0 0
328 1 3.338121499787764 8.662972909999482 8.753296717512372 0 0 0
292 1 28.464148521058906 5.266382140416629 8.826001425397866 -1 0 0
164 1 28.38469756844396 5.151048297309751 5.190053463463173 -1 0 0
321 1 -0.11333818491060065 7.041905346374264 6.95273963387824 0 0 0
196 1 -0.003992863356338416 8.75247444624139 5.278669124632027 0 0 0
172 1 7.17987455629948 5.2222979366371165 5.086125280648716 0 0 0
199 1 5.193481257154389 7.060350342683705 5.027443605831399 0 0 0
204 1 7.075143417106186 8.806352365858501 5.270519233446519 0 0 0
294 1 5.340610980527568 5.2005831136541385 6.788418092545999 0 0 0
300 1 6.869732673091061 5.30414791114537 8.733425748617368 0 0 0
326 1 5.110982672736811 8.781444241638994 6.989997307057553 0 0 0
327 1 5.0944958437472705 6.959804025032923 8.822054131398941 0 0 0
329 1 6.909989563694804 6.9078177426170315 6.875647965651537 0 0 0
332 1 6.993813409085698 8.70893431459333 8.712669596407581 0 0 0
176 1 10.71382174741192 5.227655823897115 5.258206180968889 0 0 0
203 1 8.747510387624876 6.996511622468617 5.412409325860447 0 0 0
208 1 10.777649474861937 8.94974603496934 5.182281430722337 0 0 0
298 1 8.875877933699234 5.182007532191954 6.930260425803122 0 0 0
304 1 10.631367078977442 5.242546607764682 8.7664194709787 0 0 0
330 1 8.831530510015561 8.859244744125641 7.087523748666396 0 0 0
331 1 8.838836431471158 6.815869037975643 8.84723580444708 0 0 0
333 1 10.442091062299365 7.03850909876628 7.0708358340873945 0 0 0
336 1 10.57822018924954 8.68319421508293 8.839017177022722 0 0 0
180 1 14.249601740260411 5.30867330286924 5.299131047835567 0 0 0
207 1 12.540442313783519 6.991145568881595 5.228112124358347 0 0 0
211 1 16.017378141868004 7.178663671199735 5.385808431892486 0 0 0
212 1 14.066387098006398 8.880204385978036 5.529146227435218 0 0 0
302 1 12.343298260087392 5.168621647131317 6.89136519446828 0 0 0
306 1 16.043099176991383 5.265506401721739 6.904689926727606 0 0 0
308 1 14.237364044982474 5.213166773740539 8.809635525769172 0 0 0
334 1 12.534641577794659 8.711227864471853 7.145473834368685 0 0 0
335 1 12.197747992817488 6.926873098908047 8.797765891215093 0 0 0
337 1 14.214760701040023 6.944075516779148 7.036907993585866 0 0 0
338 1 15.979510365170867 8.880755337917211 7.181655044258605 0 0 0
339 1 15.775458612711125 6.972446043722133 8.847230274127332 0 0 0
340 1 14.20336544580885 8.74256631160961 8.826055317678035 0 0 0
184 1 17.67260794504544 5.222813602867163 5.166001273006947 0 0 0
215 1 19.322972902399282 7.038593327523279 5.274065065731753 0 0 0
216 1 17.706790529607893 8.882531275548196 5.164520965966231 0 0 0
310 1 19.597688213327064 5.260068345657316 7.089332027181901 0 0 0
312 1 17.66940436956756 5.252649962387935 8.935138425961112 0 0 0
341 1 17.722032483157673 7.0881448180998 7.061296464598618 0 0 0
342 1 19.39219034989 8.986894911107624 7.025763706264263 0 0 0
343 1 19.57625769596236 7.147183018230169 8.834299983249586 0 0 0
344 1 17.73220184911097 8.883416560178475 8.859967726074126 0 0 0
188 1 21.26774558028936 5.365770502985297 5.298036031657281 0 0 0
219 1 23.112287859958034 7.1759369718881025 5.332115116619264 0 0 0
220 1 21.16043634721208 9.03167405448638 5.285782020794077 0 0 0
314 1 23.052587728082166 5.2286533659392465 6.929358478622937 0 0 0
316 1 21.504615248737323 5.416058334262421 8.94480771302732 0 0 0
345 1 21.135650614178672 7.176669858450385 7.062845378360714 0 0 0
346 1 23.20127985697403 8.884098631101914 7.020978114720511 0 0 0
347 1 23.070522378424748 7.203558147165306 8.714348745878311 0 0 0
348 1 21.416149286335052 8.916572123237522 8.815700092669351 0 0 0
324 1 0.08752699461504676 8.791565311876608 8.767541250654626 0 0 0
192 1 24.786342870669763 5.205925395078394 5.15870110944509 0 0 0
223 1 26.760562822046534 6.831281223182114 5.2789559495130485 0 0 0
224 1 24.85852908449672 8.769442925637746 5.285829083066128 0 0 0
318 1 26.68899947330328 5.074558407266341 6.992248925893331 0 0 0
320 1 24.87571626182449 5.196537333822244 8.760961639622275 0 0 0
349 1 24.976433570269716 6.881464557426488 7.0102072772896955 0 0 0
350 1 26.686792287352965 8.868347534240133 6.8742128510758205 0 0 0
351 1 26.7396081493032 7.045352145435596 8.712046127792155 0 0 0
352 1 25.026007438600708 8.793804829907696 8.770898693719 0 0 0
1423 1 12.345014428648806 14.008806213976786 12.479178474986567 0 0 0
227 1 1.7152905764438526 10.657735799872997 5.112435533065372 0 0 0
232 1 3.6176950645217376 12.368034654445315 5.410829669993426 0 0 0
354 1 1.6853549263354284 12.458285649767204 7.040929844828391 0 0 0
355 1 1.5314602871551684 10.63793830202647 8.768620321395137 0 0 0
357 1 3.362125013185752 10.562970095505554 7.056104873237015 0 0 0
360 1 3.4623506503719588 12.356737847391667 8.793570522085078 0 0 0
494 1 12.165440863413508 12.335834511798804 10.728324625124758 0 0 0
495 1 12.484690331421524 10.484086752337882 12.37442142585153 0 0 0
356 1 28.405279518324786 12.361628794619001 8.849898862472978 -1 0 0
353 1 28.379266240272273 10.669022606156425 6.98599372992175 -1 0 0
497 1 14.087059814329331 10.607460346039595 10.717738847742126 0 0 0
498 1 15.93238382723353 12.477627633760138 10.730434645430847 0 0 0
1287 1 5.2116419293588505 14.068425460304443 8.809967416829338 0 0 0
231 1 5.36711338568486 10.516890874908007 5.2775268723035 0 0 0
236 1 6.934806976710336 12.52641946954804 5.30635856141061 0 0 0
358 1 5.261427732898158 12.343025296877151 7.111016876882766 0 0 0
359 1 5.11781073139817 10.44671085056673 8.704656581306043 0 0 0
361 1 6.958382753803998 10.604128569847731 7.084396800878321 0 0 0
364 1 7.133751624997624 12.479875435314197 8.820500985158004 0 0 0
1291 1 8.940712764398814 14.099043180040528 9.060566246393863 0 0 0
235 1 8.932001171794207 10.676238366181506 5.320105000131633 0 0 0
240 1 10.608103095306477 12.355998756276575 5.2041933255302775 0 0 0
362 1 8.934444684867403 12.384628734366725 7.081857543016197 0 0 0
363 1 8.820889347936724 10.54409596954642 8.875328534711604 0 0 0
365 1 10.698332899872621 10.483084444114787 7.10640527268004 0 0 0
368 1 10.631486335519877 12.339868440254234 8.782824350199242 0 0 0
239 1 12.501960106797386 10.620930546439157 5.325966454018604 0 0 0
243 1 15.935898102664826 10.51798113068954 5.350721176784474 0 0 0
244 1 14.197009541191518 12.332132211909244 5.374902104300884 0 0 0
366 1 12.40530730911225 12.396181871526657 7.186679461414278 0 0 0
367 1 12.445508018440105 10.485980745775612 8.715974105276967 0 0 0
369 1 14.17059005030962 10.615189547569232 7.074092913676357 0 0 0
370 1 15.964198846454039 12.381181481107015 7.179671452115145 0 0 0
372 1 14.176637635681443 12.49248150906231 8.955070122583288 0 0 0
371 1 15.910829916771597 10.61587336024121 8.987301217573656 0 0 0
499 1 15.882310688120867 10.508179884135176 12.443984368347289 0 0 0
247 1 19.491941231300036 10.686990092771444 5.2415460005552355 0 0 0
248 1 17.57191002230479 12.603744519474866 5.201831609483419 0 0 0
373 1 17.628935390937734 10.775385788179456 6.833170097149284 0 0 0
374 1 19.385317987647856 12.452422135437574 6.882704979701216 0 0 0
375 1 19.52396386883645 10.724724666295039 8.823372663046172 0 0 0
376 1 17.647832363187366 12.462760814587188 8.894538192190494 0 0 0
500 1 14.098372802456511 12.223754202761155 12.510283767043479 0 0 0
251 1 23.207053531817838 10.705257421850646 5.305751593865029 0 0 0
252 1 21.179010968641602 12.323921512647665 5.247809549507553 0 0 0
377 1 21.27713450275478 10.651822583457031 7.160015943137399 0 0 0
378 1 23.044631599971495 12.408597323090369 7.134878066221957 0 0 0
379 1 23.134669364115826 10.684547490634104 8.948341871850053 0 0 0
380 1 21.203088199886047 12.660885814459839 8.873776071417293 0 0 0
1179 1 23.109439396472172 14.099121850679486 5.267284794282619 0 0 0
228 1 -0.10161688605727193 12.604636041774768 5.421764255573336 0 0 0
255 1 26.6147586135106 10.693024685945938 5.214501294194232 0 0 0
256 1 24.892926046470055 12.449689873621285 5.2191454751798165 0 0 0
381 1 24.904247046524286 10.743905804809721 7.030980994748189 0 0 0
382 1 26.71358578917856 12.425288405595646 6.867851033286965 0 0 0
383 1 26.710850003576088 10.57252809749624 8.798702267237786 0 0 0
384 1 24.88972420429869 12.55728021576893 8.739575592840481 0 0 0
1311 1 26.740549120260905 14.171906090707465 8.887883416232647 0 0 0
385 1 28.450347210096048 -0.07274841108414923 10.53001793248588 -1 0 0
386 1 1.6248337469850251 1.6571998233928078 10.586885621146838 0 0 0
392 1 3.3711406727041067 1.6006087033566114 12.396341150958602 0 0 0
419 1 1.6557049540769753 3.4970443417826425 12.32654050976201 0 0 0
421 1 3.240758847064311 3.373587646797114 10.491872941624056 0 0 0
417 1 -0.05187391312057878 3.4352676539544267 10.567589860138124 0 0 0
388 1 28.448293169590492 1.7737028168992583 12.343133736339801 -1 0 0
393 1 7.049620021071167 -0.07234136962919288 10.598483107218502 0 0 0
390 1 5.265826603236731 1.639174167812113 10.601540912387238 0 0 0
396 1 6.9483477602577475 1.7084171266892387 12.342187581081626 0 0 0
423 1 5.022050139317048 3.380850611439045 12.347956479571934 0 0 0
425 1 7.0410206640216675 3.401713228501397 10.626503299883318 0 0 0
394 1 8.801101307237253 1.6551418717667548 10.586075340202274 0 0 0
395 1 8.696046495413265 -0.10773717534133524 12.375715095958812 0 0 0
400 1 10.534577685141315 1.5741577701416651 12.386135958781503 0 0 0
427 1 8.815646584249775 3.425971057540409 12.367054421422626 0 0 0
429 1 10.693489843120945 3.4578363591659165 10.559642610148863 0 0 0
557 1 10.515372611775335 3.3796635972199023 14.091221671724723 0 0 0
398 1 12.216163235002478 1.6898508905654481 10.604985966641006 0 0 0
402 1 15.999601789246963 1.7769156957562113 10.581541901692267 0 0 0
404 1 14.054502450407078 1.7730036701579301 12.318445741507897 0 0 0
431 1 12.301295010500537 3.467117756275613 12.373116956285644 0 0 0
433 1 14.120521099677472 3.5035949109294657 10.532329774518441 0 0 0
435 1 16.08540737064619 3.499027353629181 12.258522341610604 0 0 0
526 1 12.296770084581514 1.7312178013617674 13.933285434746198 0 0 0
618 1 8.751014888287136 12.301825758718334 14.044575421952029 0 0 0
407 1 19.528909224115772 -0.1133107911448128 12.343552302058304 0 0 0
406 1 19.457007627970867 1.6865915420333535 10.632384763796106 0 0 0
408 1 17.774444602531748 1.7004787188322916 12.311601100523069 0 0 0
437 1 17.853782046941905 3.453844708119803 10.66022901474078 0 0 0
439 1 19.6298971839381 3.402580665300743 12.338177782401699 0 0 0
534 1 19.477556697799905 1.7587283446799324 14.146761268781392 0 0 0
1027 1 1.7944359412996265 14.127220931896968 1.6993486843779537 0 0 0
410 1 23.18247561238531 1.7448493728098062 10.47919231534207 0 0 0
412 1 21.368387909677224 1.6243567769954268 12.28593801254259 0 0 0
441 1 21.371518152634934 3.4557233057195864 10.48729242226032 0 0 0
443 1 23.107734672043144 3.447051546567713 12.343959048683201 0 0 0
491 1 8.761420933875451 10.409811895630959 12.378159999728275 0 0 0
414 1 26.773715861420293 1.7663420218235086 10.645884018665615 0 0 0
416 1 24.898163253528292 1.5635677045890146 12.348247113602914 0 0 0
445 1 24.951056439934344 3.4067133968449586 10.53992248047603 0 0 0
447 1 26.59970399353536 3.4320110848468803 12.437617552831904 0 0 0
418 1 1.708540992869051 5.11116794515089 10.407212360010194 0 0 0
424 1 3.3049308261183343 5.186006978834353 12.363230904251362 0 0 0
450 1 1.64868113737905 8.74136421307156 10.525866284768103 0 0 0
451 1 1.622878781995565 6.850399821400179 12.464777401077598 0 0 0
453 1 3.277573904473961 7.046355604700529 10.64409681534867 0 0 0
456 1 3.40619301147428 8.769392238446393 12.426357023810056 0 0 0
420 1 -0.0556671450915425 5.125442013234641 12.423945892629725 0 0 0
422 1 5.038406106473729 5.122910187433634 10.568564562319038 0 0 0
428 1 6.905603410314304 5.057868332659554 12.270428028272589 0 0 0
454 1 4.961591210821869 8.800130043912604 10.562892417044342 0 0 0
455 1 5.187472662292374 6.863152636398713 12.26902160984275 0 0 0
457 1 6.848858170669158 6.934887143018146 10.485584428162998 0 0 0
460 1 6.908142772197619 8.792588320598076 12.123752646444396 0 0 0
582 1 5.108345924542787 8.83628421059123 14.146207361881226 0 0 0
426 1 8.941032929490598 5.188932223963172 10.581212231169383 0 0 0
432 1 10.547065221057313 5.205469841929727 12.44522853500274 0 0 0
458 1 8.74057546920056 8.680308515958956 10.532424278171238 0 0 0
459 1 8.828395192185742 7.072278549276042 12.345159295281531 0 0 0
461 1 10.543989095539043 6.872803062050521 10.691992066670752 0 0 0
464 1 10.589864141956939 8.655703180693918 12.199109530888963 0 0 0
586 1 8.787692440913704 8.658765891113488 14.095855182693322 0 0 0
430 1 12.425422073144862 5.308925621974624 10.551678077703807 0 0 0
434 1 15.930927165148603 5.194161872349129 10.668437192375992 0 0 0
436 1 14.235176366903653 5.165846248505716 12.5573194020415 0 0 0
462 1 12.462513224109047 8.652013673093084 10.610963617746583 0 0 0
463 1 12.384782573941953 7.060784992018328 12.421503806221963 0 0 0
465 1 14.383886562320065 6.999344700499217 10.832778466022138 0 0 0
466 1 15.940246019128352 8.87991770962339 10.667850829165456 0 0 0
467 1 16.146857203647787 6.973316680810326 12.505671581264263 0 0 0
468 1 14.102357038941404 8.761391774396223 12.438227180095641 0 0 0
493 1 10.660385651413513 10.389988634087915 10.533003188713543 0 0 0
496 1 10.69836894084314 12.160157868945909 12.517849485965135 0 0 0
617 1 7.026062635126954 10.495543972176227 14.13123557822909 0 0 0
490 1 8.974999935265544 12.318174762444498 10.662889705407531 0 0 0
438 1 19.713175392211205 5.153511760260303 10.536240334262333 0 0 0
440 1 17.920376777409587 5.340916179292616 12.33190869034678 0 0 0
469 1 17.73369224877821 7.109032005203081 10.572418167457597 0 0 0
470 1 19.52035392026041 8.965552636966356 10.543919904144483 0 0 0
471 1 19.650430008436672 7.124035063734088 12.32268244218617 0 0 0
472 1 17.844650430838175 8.933938846489598 12.3387474976838 0 0 0
442 1 23.244752789304396 5.2875980734337675 10.608502556183222 0 0 0
444 1 21.38733473717785 5.306515638776562 12.27793471893777 0 0 0
473 1 21.412397030910036 7.143976602509597 10.540952448594817 0 0 0
474 1 23.31188250187582 8.860945351454406 10.57061263232563 0 0 0
475 1 23.156434931724135 7.0378694129046835 12.30571706602454 0 0 0