LAMMPS data file via write_data, version 29 Oct 2020, timestep = 300000

2048 atoms
1 atom types

-0.32577949529719774 28.677779495295468 xlo xhi
-0.32577949529719774 28.677779495295468 ylo yhi
-0.32577949529719774 28.677779495295468 zlo zhi

Masses

1 58.933

Atoms # atomic

8 1 3.0177998203559118 1.5410130729115643 1.6068190184996802 0 0 0
35 1 1.2387222002778635 3.162806697155138 1.0896512916273968 0 0 0
130 1 1.18815342361613 1.3508569169023759 3.4068250377412674 0 0 0
165 1 3.303696532326099 3.2294866460177785 3.208177002579222 0 0 0
11 1 8.390519991446029 -0.22878201341929685 1.6025040530000885 0 0 0
12 1 6.720744142988846 1.5824572905882626 1.26126993605921 0 0 0
39 1 4.969963876451629 3.489965617230595 1.0903087243999425 0 0 0
134 1 5.052548879658289 1.6340561663697528 2.935939714995576 0 0 0
169 1 6.86661935057896 3.345300221882457 3.0638977985544007 0 0 0
1417 1 7.059195510478465 14.031655697385295 10.60045087568288 0 0 0
630 1 19.94677135909308 12.470256658157902 13.83806540289151 0 0 0
16 1 10.50963435217018 1.406370877449416 1.4574365433221026 0 0 0
43 1 8.691627841070796 3.1418694384398282 1.479665200960432 0 0 0
138 1 8.50301413702229 1.4435081467668958 3.1164287033720743 0 0 0
173 1 10.393555670373056 3.2500899310953693 3.197852962120797 0 0 0
484 1 28.588345668210177 12.153197139779119 12.269793324037353 -1 0 0
1053 1 25.22254190322491 14.016094576950579 -0.2440306583533044 0 0 0
1565 1 25.06796011502452 14.089994713567346 14.11781547564053 0 0 0
142 1 12.445374909244544 1.483905980718163 3.408748056160979 0 0 0
47 1 12.480364485182374 3.3775755339357727 1.4609070696665134 0 0 0
20 1 13.95191883159397 1.2785560935858233 1.4744573009093151 0 0 0
177 1 14.209696721453092 2.968367347800373 3.0724145938365615 0 0 0
146 1 15.785339259025399 1.266349480466441 3.560559475967405 0 0 0
51 1 15.820060045565135 3.7039134306808688 1.53838611890532 0 0 0
509 1 24.91567868375288 10.245988769355606 10.734168402436799 0 0 0
137 1 6.580433024436275 -0.1971237833934687 3.124625312997416 0 0 0
57 1 21.307525798077595 2.965553896457219 -0.0444173251037977 0 0 0
24 1 17.84385003393331 1.4347074759670202 1.1778509976527094 0 0 0
55 1 19.466384070854847 3.2929086735523287 1.3969464443867605 0 0 0
150 1 19.32549869358259 1.492730947637849 3.1404088034646387 0 0 0
181 1 17.69558537744425 3.214529902136806 3.0599769291906878 0 0 0
403 1 16.277900900696327 -0.17470989844842552 12.23062650556523 0 0 0
28 1 21.255091508981838 1.3661085389731218 1.5437250864935526 0 0 0
59 1 23.25409988191093 3.2819738142474124 1.526834649193181 0 0 0
154 1 23.376591570120798 1.3742707755449353 3.4074041924530407 0 0 0
185 1 21.583411377919408 3.2660447134024513 3.310716315762133 0 0 0
283 1 23.031541523384647 -0.3044953611394483 8.662857443336026 0 0 0
4 1 -0.3146374875339044 1.3638726967466435 1.5769555962277888 0 0 0
161 1 28.554020903473578 3.4976543783206915 3.2309794571960753 -1 0 0
189 1 24.97924313213961 3.5583973421702226 3.177408104862552 0 0 0
32 1 25.213199323562204 1.3303743321667758 1.392787286671259 0 0 0
63 1 26.865429201964716 3.35245369076493 1.3914554002116453 0 0 0
158 1 26.821365943656275 1.6343153118555087 3.3598122845100824 0 0 0
606 1 26.983593377400894 8.847797446325183 14.12727858025156 0 0 0
31 1 26.861742604777934 -0.2003145889056661 1.3953522723001641 0 0 0
281 1 21.311180438970478 -0.1496202250648011 6.755453663429255 0 0 0
162 1 1.344963026691537 5.195639569900885 3.2630226532708315 0 0 0
67 1 1.6337624284253627 6.645011643003996 1.4021060519925543 0 0 0
194 1 1.4697857813313817 8.68945385048061 3.2065143865367323 0 0 0
72 1 3.145816075367794 8.86653000361277 1.4411121951066779 0 0 0
197 1 3.267830517800252 6.975868601936098 2.9134921377364535 0 0 0
40 1 3.1784146733902867 4.851089484712549 1.5201264933422787 0 0 0
193 1 28.543430616071845 6.722319139659104 3.434577410428386 -1 0 0
1175 1 19.657866781425685 14.027730462189615 5.13004024472343 0 0 0
44 1 6.966604077885566 5.006625369682223 1.2184172822642296 0 0 0
71 1 5.0307292728606114 7.053129556260046 1.318278453484058 0 0 0
166 1 4.922716755969953 5.074049877132325 3.010313116698759 0 0 0
201 1 6.757514820237542 6.82295440010485 2.970154430469963 0 0 0
76 1 7.12061602857978 8.710274222324195 1.3924638073755344 0 0 0
198 1 4.9055509311763315 8.746058638852123 3.101170102136516 0 0 0
581 1 3.2374292676439858 7.0333396589770585 14.133764398973337 0 0 0
565 1 17.488412121921893 3.4715117463522938 13.888297361524792 0 0 0
48 1 10.50341111495512 5.141025888710503 1.4744403966705613 0 0 0
75 1 8.885847319598287 6.878012985677539 1.4271844006256476 0 0 0
170 1 8.68242456031707 4.933085108542296 3.1451586748636813 0 0 0
202 1 8.719614320758268 8.777960258679887 3.3967303514907266 0 0 0
205 1 10.813008971099178 6.894755952798212 3.299746711905085 0 0 0
80 1 10.45122589838089 8.675036695089766 1.3271480266237212 0 0 0
1297 1 14.330928581657627 13.96985256172915 6.827909814011574 0 0 0
79 1 12.630317919921065 7.188474258048627 1.47643964518512 0 0 0
206 1 12.435743822810572 8.821120517960457 3.228051947429449 0 0 0
174 1 12.269920740675929 5.180909048662319 3.2585447049295815 0 0 0
52 1 13.932971736802703 5.347539297044041 1.481946770634638 0 0 0
209 1 14.242870539810514 6.928606010710179 3.2089008572408897 0 0 0
84 1 14.316576672355183 8.735377003868319 1.6021335433403052 0 0 0
83 1 15.942935842061914 6.669663387328208 1.5265276633314886 0 0 0
178 1 16.047428996369007 4.923440887331453 3.623017357435712 0 0 0
210 1 16.18098095744914 8.780908584523452 3.409008756255732 0 0 0
637 1 24.95866543821356 10.54042666106902 13.89240810493891 0 0 0
399 1 12.270658875477608 -0.04749532864810896 12.406591973764895 0 0 0
182 1 19.526508819185107 5.058849279184718 3.2059385175515125 0 0 0
56 1 17.892893863418703 5.258303449674545 1.517268653462964 0 0 0
87 1 19.38085618701534 7.090064894553256 1.2476351286881298 0 0 0
213 1 17.980754937102017 6.932264280263437 3.347637932620975 0 0 0
214 1 19.61476706043719 8.612725956341027 3.1541087895154956 0 0 0
88 1 17.61257071053913 8.605435948894549 1.684146923698853 0 0 0
1409 1 -0.3010910660887096 14.116238169058873 10.546882719779736 0 0 0
60 1 21.38428742676561 5.14202916391405 1.623104741099316 0 0 0
91 1 23.432653599755728 6.740952160324311 1.2446909525237164 0 0 0
92 1 21.387177563667116 8.677113272131319 1.3450765878277966 0 0 0
186 1 23.345282955820675 5.413222555900653 3.073300645145646 0 0 0
217 1 21.40168780803892 6.96618164403844 3.2069773040415783 0 0 0
218 1 23.384436866865222 8.325681760515733 2.975884895272526 0 0 0
157 1 25.111666052686164 -0.24840812760178865 3.318301055112927 0 0 0
609 1 28.61988200455829 10.248529951951955 13.645667937949286 -1 0 0
36 1 28.568877210974406 5.06680733853501 1.3186833865086454 -1 0 0
68 1 28.624218921663935 8.29725263705825 1.7190212709618193 -1 0 0
190 1 26.73161391385527 5.045030305464537 3.4398544586889725 0 0 0
64 1 25.036644154655843 4.85806210451965 1.1679754552378752 0 0 0
96 1 25.20965931072581 8.564397289078043 1.503795625481303 0 0 0
221 1 25.217884691035763 6.696419992244994 2.954495714252032 0 0 0
95 1 27.03670238998915 6.866741994864488 1.21515105857416 0 0 0
222 1 26.917760998648724 8.659743538094522 3.4778605693661024 0 0 0
590 1 12.142990444002884 8.339716376661416 14.006329174884032 0 0 0
1157 1 3.1027586720401032 14.047595533727604 2.9617806134375764 0 0 0
277 1 17.892781071466644 -0.23476361263321266 7.133764983946476 0 0 0
257 1 -0.19354215888122112 -0.17978819800885404 6.824544182708631 0 0 0
99 1 1.2803754792008886 10.346537456758742 1.220432493129154 0 0 0
226 1 1.2581356629129763 12.267768911060875 3.0933005038993358 0 0 0
104 1 3.08876802257365 12.137613823744399 1.335599875988022 0 0 0
229 1 3.207651188679056 10.521480537666516 3.1916788177104243 0 0 0
100 1 28.318558460249452 12.240850159286895 1.3071678231270296 -1 0 0
89 1 21.09596858133502 6.929330020902327 -0.2874373462056553 0 0 0
510 1 26.571194618064748 12.52733191575327 10.65001281642618 0 0 0
103 1 5.0826570496471275 10.678004425376512 1.2025189875860147 0 0 0
108 1 6.962895645680938 12.380918847891447 1.5493984251773327 0 0 0
230 1 5.103444381691762 12.004090911811002 3.52257761225929 0 0 0
233 1 6.8665178134476506 10.421308538050628 3.185027079171474 0 0 0
393 1 6.887330364993772 -0.2615015068071157 10.609939616566534 0 0 0
107 1 8.861747853071783 10.881144210896617 1.8069663200068145 0 0 0
112 1 10.621656682411055 12.528928373015967 1.4907406434571069 0 0 0
234 1 8.577559800410052 12.295049709040102 3.461785228624667 0 0 0
237 1 10.552305835486123 10.397269606439666 3.313022946899104 0 0 0
238 1 12.407516235784412 12.857019634237869 3.4133678894658046 0 0 0
561 1 14.009647376367042 2.98474439529386 13.896469688806116 0 0 0
111 1 12.252064938904565 10.54434609410269 1.47117180746522 0 0 0
116 1 14.023247940209952 12.439120118113635 1.4768903507206146 0 0 0
241 1 14.254463639034764 10.64324009845759 3.4449286573849007 0 0 0
242 1 16.053579921561486 12.439114261021935 3.3263731630618194 0 0 0
115 1 15.771853625014693 10.72553929601853 1.364425968783375 0 0 0
1169 1 14.248396158380634 14.047209053248379 3.5064110011298744 0 0 0
1439 1 26.925147429941035 14.1203903134186 12.31559606014206 0 0 0
557 1 10.286649394247757 3.1890728854109205 14.143867990636727 0 0 0
1433 1 21.489761293677557 13.977180516680885 10.066223180187844 0 0 0
119 1 19.615160350115943 10.520556793687907 1.5301023822618791 0 0 0
120 1 17.525942442441877 12.174737645904985 1.5799225762524303 0 0 0
245 1 17.72321918968073 10.525022865412152 3.415287882622277 0 0 0
246 1 19.56376154610512 12.241718659544102 3.3342199525757126 0 0 0
123 1 23.36010421106485 10.338904270985088 1.595395682764662 0 0 0
124 1 21.23685285706741 12.284164606183428 1.6145923878592292 0 0 0
249 1 21.37873852980772 10.373035641284334 3.304824643978535 0 0 0
250 1 23.055927670342598 12.062462778281208 3.290457436277227 0 0 0
118 1 19.4573278713723 12.421979764291388 -0.22256108679041886 0 0 0
269 1 10.248464675040138 0.020693605116881564 6.766688767979988 0 0 0
225 1 28.654766931026547 10.532617687478837 3.098011417713901 -1 0 0
128 1 25.226910986212566 12.492079760415718 1.5475112311365333 0 0 0
253 1 25.02846831466635 10.637168829498508 3.507149243554018 0 0 0
127 1 26.979473764545805 10.27416934297385 1.4993606671993118 0 0 0
254 1 26.797072675895055 12.480517338978867 3.5548470918533246 0 0 0
514 1 1.3651986322573668 1.462075353053736 13.935770039966012 0 0 0
90 1 23.4115970841641 8.5631849263441 -0.07999520670549023 0 0 0
263 1 4.893522192316023 -0.24987898114253115 8.5695616124287 0 0 0
511 1 26.655792103625142 10.863713075032322 12.25622135421844 0 0 0
512 1 24.572918822544732 12.64264392203948 12.200276527367881 0 0 0
163 1 1.6232597014327934 3.2004433804146584 4.90865782202742 0 0 0
258 1 1.5894037134031052 1.6172902494073353 6.9425079104886676 0 0 0
293 1 3.4517634175622134 3.35334423765565 6.781204209599465 0 0 0
291 1 1.5873795269408915 3.3142156807308614 8.966558317960327 0 0 0
136 1 3.2880434004050674 1.4474212094436172 5.291426766439212 0 0 0
264 1 3.1637013988556895 1.4252005644485117 8.515607707596393 0 0 0
289 1 28.584373716263848 3.265759236899982 6.86653990396137 -1 0 0
140 1 6.57004788391237 1.8894460228633774 4.861732983183225 0 0 0
167 1 4.761572145003396 3.6251341616701818 5.169942568569065 0 0 0
262 1 5.14569966349504 1.783983423971828 6.7137786270461834 0 0 0
268 1 6.644621518414757 1.3868483484309115 8.658236753200704 0 0 0
297 1 6.867169974862741 3.6244375238189224 6.928302975737865 0 0 0
295 1 4.922535787767085 3.6836984276107456 8.640765034036336 0 0 0
61 1 24.958368622914534 2.960073181218725 -0.2677602591659962 0 0 0
1295 1 12.38451940312419 14.112484612834901 8.805598902111717 0 0 0
1161 1 6.561278173578109 13.861548750646728 3.2243065625183296 0 0 0
171 1 8.593510888195079 3.5182626913747503 5.123517759975746 0 0 0
144 1 10.12899277777161 1.7992334647689114 5.087799088527038 0 0 0
266 1 8.30365180257747 1.5141549738954228 7.009443543304334 0 0 0
272 1 10.42049185258127 1.258552681992147 8.786606079000304 0 0 0
299 1 8.731499442382816 3.1687871418410354 8.656763601102686 0 0 0
301 1 10.454954638245598 3.4629452121898745 6.779335756439698 0 0 0
481 1 28.468210252772685 10.418317362509955 10.443436128037076 -1 0 0
270 1 12.347876300533786 1.5631729232545466 6.985993021417769 0 0 0
175 1 12.166536747710621 3.4637060517091762 4.92329778251533 0 0 0
303 1 12.37027328179209 3.5149082676545533 8.641855205373579 0 0 0
148 1 14.012427802683765 1.2862210021524696 5.176001510347908 0 0 0
305 1 13.843208593499098 3.0758073056481354 6.593799663734751 0 0 0
276 1 14.23586829388705 1.4100032360833679 8.6037273784366 0 0 0
179 1 15.642316837183213 3.1331761160873826 5.280643562984915 0 0 0
307 1 16.315117501185842 3.421631896026942 8.459276871987155 0 0 0
274 1 16.033251812102574 1.1445392716889566 6.853194376388809 0 0 0
131 1 1.55927144209796 -0.164480219986608 5.150731120862255 0 0 0
1171 1 16.257367812482627 14.134979225328463 5.400682020496971 0 0 0
1283 1 1.4464986232507118 14.044322431588451 8.759653290080855 0 0 0
86 1 19.404086856225316 8.871555599698102 -0.14997007057413822 0 0 0
58 1 23.105249385920583 4.835200284729782 -0.1720771464321723 0 0 0
129 1 28.531268303001752 -0.09068238937453543 3.555599988169091 -1 0 0
152 1 17.880090932297648 1.2724477742438198 4.9727783838347355 0 0 0
183 1 19.638266232043748 3.429516535687128 5.051593095960507 0 0 0
278 1 19.506436137044915 1.1422605279049893 6.77395699960712 0 0 0
309 1 17.84666817095982 3.170258044686808 6.716009199788905 0 0 0
280 1 18.20328762868128 1.3708577226471692 9.134763910119851 0 0 0
311 1 19.45609094313412 3.1622682464108856 8.501146201117598 0 0 0
505 1 21.263388856197917 10.194043117157499 10.630635255520117 0 0 0
506 1 23.14722930761186 12.012202942231673 10.537294105935004 0 0 0
187 1 22.922326573104872 3.0918997416621443 4.9576983318260845 0 0 0
156 1 21.19028204217801 1.5674602102048094 5.009747593459121 0 0 0
282 1 23.028105139422227 1.2503691529042453 6.923771341481105 0 0 0
284 1 21.462694991807044 1.4012821170008305 8.676002731847905 0 0 0
313 1 21.332608483902813 3.1940413452881664 6.87807785939369 0 0 0
315 1 23.076340950070833 3.264859109136015 8.700248768036326 0 0 0
407 1 19.742159694585588 -0.13175824219489032 12.669127519656472 0 0 0
132 1 28.437833858433468 1.6992259635577232 4.984665900345168 -1 0 0
260 1 -0.31250462346952546 1.5763621752608958 8.852515077905734 0 0 0
415 1 26.699374198219854 -0.26734459701347174 12.10323398044429 0 0 0
288 1 25.1579008575072 1.6987412995983213 8.456048569358934 0 0 0
317 1 24.596116999515644 3.322951781880116 6.629434186439518 0 0 0
160 1 24.91799443588741 1.2114116512442032 5.2156432747189605 0 0 0
191 1 26.312176130464835 3.192566334411698 5.054780296513753 0 0 0
286 1 27.012196567395577 1.5676589946923976 6.708345571428284 0 0 0
319 1 26.750550753969637 3.5819593828789373 8.807007381968317 0 0 0
14 1 12.234383690295418 1.5720806047847473 -0.30277269531779644 0 0 0
1437 1 24.85163444030777 14.124683902936146 10.413075913725397 0 0 0
290 1 1.306890857304968 4.6951620509289445 6.942120725599877 0 0 0
168 1 2.903305876065161 5.3618294078217215 5.122914786745696 0 0 0
195 1 1.3030841264666773 7.126796117744249 4.971982908100015 0 0 0
322 1 1.4568405130058741 9.202928407442007 6.898003809888158 0 0 0
323 1 1.190723325406248 7.08818680012334 8.327185846807794 0 0 0
325 1 3.0187708203802166 7.000704503516052 6.591511104475501 0 0 0
328 1 3.222909179394832 8.465143059409884 8.94085962730086 0 0 0
296 1 3.3332790974540716 5.503815546132477 8.562354920132632 0 0 0
200 1 3.0801777473854037 8.692784704793164 4.979080056911458 0 0 0
172 1 6.818484379605994 5.276381973030532 5.12547956547352 0 0 0
199 1 4.840593744359636 6.886147275297297 4.841058306379895 0 0 0
204 1 6.628318462778232 8.684128471034079 5.0998723312925 0 0 0
294 1 5.167034613415159 5.54316440247154 6.826535752689742 0 0 0
300 1 7.1254167798541195 5.290437490402064 8.785589034451588 0 0 0
329 1 6.944004798675608 7.23640491719419 6.977971886826722 0 0 0
326 1 4.926745828821171 8.727411800546605 6.702260599369856 0 0 0
327 1 5.3232742714449905 6.952755781286895 8.827967968508911 0 0 0
332 1 7.126076958878233 8.862855242450761 8.630732409152845 0 0 0
298 1 8.982062719039977 5.637136906360229 7.201649585841395 0 0 0
176 1 10.625291753391751 5.347461238166817 5.334809109242243 0 0 0
304 1 10.84150048187138 5.358666386256587 8.905701405929248 0 0 0
203 1 8.655502843690094 6.688407663085458 5.006563378657738 0 0 0
333 1 10.604569921742893 6.906099607367656 7.008862823457982 0 0 0
336 1 10.447707678446449 8.833302491013704 8.479784478187453 0 0 0
331 1 8.627252731472366 7.228241225590956 8.557228773977657 0 0 0
208 1 10.523960974414036 8.71884296595257 4.996248974167388 0 0 0
330 1 8.691808217393296 8.97200649846801 6.713465124256797 0 0 0
302 1 12.418596553552257 5.318992415656822 6.9513707580154644 0 0 0
207 1 12.202721697073486 7.060548719592322 5.041433288833769 0 0 0
335 1 12.487804731689813 7.108111089765497 8.83156815569883 0 0 0
334 1 12.579554767625002 8.71507654652299 6.983547818910676 0 0 0
180 1 14.041846666639938 5.27429893235069 4.999599442576394 0 0 0
308 1 14.23265728612791 5.128436894794298 8.679253954691022 0 0 0
337 1 14.25028728237051 6.915740194363182 6.992041076472121 0 0 0
340 1 14.105947944434643 8.85959333816432 8.69747326611176 0 0 0
338 1 15.810225456456973 8.733596168570887 6.858209796730632 0 0 0
212 1 14.24058901943095 8.684874918114254 5.106476945345191 0 0 0
306 1 15.646325966153276 4.983500467388416 6.737613588320956 0 0 0
339 1 15.787943931950199 7.068479864903551 8.895656126836137 0 0 0
211 1 16.18812311970576 6.981122128822895 4.959015184329881 0 0 0
184 1 17.736993244858365 5.071382884849324 5.152708034745561 0 0 0
216 1 17.96052721141499 8.754846314714895 5.0176082416482375 0 0 0
310 1 19.499070258464286 5.292447593633263 6.6332220394806605 0 0 0
215 1 19.63364407937963 7.122037279034919 4.935820384454428 0 0 0
312 1 17.838541328362876 5.5453360832740035 8.435931796229783 0 0 0
341 1 17.552255257206944 7.284895777517343 6.846205403392084 0 0 0
344 1 17.84460281135818 8.526661983531255 8.735929798177056 0 0 0
342 1 19.46153010211761 8.654973048729023 6.7392503795822325 0 0 0
343 1 19.541649780756885 6.8536438863544085 8.821598766530649 0 0 0
188 1 21.274369993069694 5.179783470339219 4.985268254338397 0 0 0
314 1 23.125577305500858 5.010918419909303 6.702382585883493 0 0 0
219 1 23.475321780147127 7.04503234734367 4.9923813091429645 0 0 0
345 1 21.8047023605882 6.7994367259152115 6.678807527718528 0 0 0
347 1 23.13697207410207 6.638294342425967 8.732587735482994 0 0 0
346 1 23.37396101312386 8.493227047873317 6.9290760152710185 0 0 0
348 1 21.34019838618975 8.409787956995874 8.339673165521354 0 0 0
316 1 21.240085264962698 5.0140593870540435 8.602661651626057 0 0 0
220 1 21.426549189557498 8.750147651959017 4.815829360703913 0 0 0
224 1 25.198961053406258 8.71996351045268 5.135809319652434 0 0 0
164 1 -0.13241286113258227 5.0412624545641265 5.052060591309297 0 0 0
292 1 28.52167685408349 5.068560962913363 8.387820069344503 -1 0 0
196 1 28.67501069627112 8.823009747405042 5.116446864001449 -1 0 0
324 1 28.446273473810464 8.911565195514479 8.687705971838673 -1 0 0
321 1 -0.15059803923760692 6.639006629944257 6.6311935161750855 0 0 0
352 1 25.45251139149117 8.892749705195694 8.763939864089249 0 0 0
349 1 25.241334862706324 6.88674334719107 6.797824158420551 0 0 0
192 1 24.863113575289148 5.141602593117537 4.922902955986255 0 0 0
320 1 24.997714198305207 5.138255729994886 8.587633750556568 0 0 0
223 1 26.97832249204988 6.60800753775804 5.024267212627278 0 0 0
318 1 26.768930830486088 4.842956722722284 6.748498534037714 0 0 0
350 1 27.042260027099257 8.492623981496367 6.723125483721253 0 0 0
351 1 27.071180809161902 6.757089821251368 8.395980546560343 0 0 0
227 1 1.4332042037688653 10.665699081456157 4.7852735127122505 0 0 0
354 1 1.411855097469926 11.929488633413788 7.079519728911757 0 0 0
357 1 3.4235341542457145 10.265409238568788 7.253581407973315 0 0 0
355 1 1.2854504460589498 10.238209433372484 8.962638990467033 0 0 0
360 1 3.240098249989501 12.351676869289145 8.520323062847343 0 0 0
232 1 3.1808287494876275 11.939883919231269 5.268618305508049 0 0 0
228 1 28.47149285063952 12.480284521510235 5.082749797588848 -1 0 0
1287 1 5.001376633788608 14.125730004490762 8.819701590144962 0 0 0
1177 1 21.289504361325136 14.050067256792431 3.447778218526782 0 0 0
1285 1 3.147296618392173 13.969708309694996 6.812805967370435 0 0 0
507 1 23.24996072895131 10.225530555967117 12.291742766174893 0 0 0
508 1 21.925814211324788 12.02209132061542 12.433848720433454 0 0 0
231 1 4.915088700280012 10.405305258302052 4.932873610554652 0 0 0
236 1 6.854213173924616 12.540131742758044 5.315590139247864 0 0 0
358 1 5.020428182182661 12.29353777013168 7.109361718428452 0 0 0
361 1 6.66009314419324 10.595379172353894 6.842583535647829 0 0 0
359 1 5.182257990611306 10.551070499058062 8.631352489873226 0 0 0
364 1 7.021736202761386 12.348080223696467 8.867419037791297 0 0 0
240 1 10.728440913783967 12.279529323879029 5.144563790242922 0 0 0
235 1 8.728702673241823 10.664958266965824 5.116003094433481 0 0 0
362 1 9.171812650301582 12.45452110092718 7.072064608704642 0 0 0
363 1 8.704360604435696 10.511580478062646 8.748024124530936 0 0 0
365 1 10.512017368267879 10.567633670753228 6.69234590734898 0 0 0
368 1 10.622919868170188 12.249896717273858 8.912660345511433 0 0 0
538 1 23.36598554024806 1.8890089892538726 13.9169696086013 0 0 0
550 1 5.053802126283851 5.45603199418618 13.90492309107766 0 0 0
367 1 12.184961851152192 10.530297684565612 8.617595039179163 0 0 0
239 1 12.271029451266026 10.345633421839747 5.1543255508068615 0 0 0
366 1 12.123155031876882 12.495733532333066 6.996871133219339 0 0 0
244 1 14.044641853568757 12.244824133321668 5.391713109994319 0 0 0
369 1 14.179920104940509 10.62733308267126 7.04607714686701 0 0 0
372 1 14.270736965909842 12.424515637539475 8.779011319862848 0 0 0
243 1 15.91176209837057 10.657997767365343 5.300347666162127 0 0 0
370 1 16.301800560739036 12.288135764482272 7.31127887165034 0 0 0
371 1 15.79429561427499 10.39479772907507 9.009820513346854 0 0 0
375 1 19.94488675534176 10.426812825915752 8.58354952155706 0 0 0
247 1 19.52235991028946 10.506649011724207 5.331289962897525 0 0 0
248 1 17.84974275871053 12.30218086686851 4.967901555017356 0 0 0
373 1 17.700428475572448 10.346665994258968 6.9322684109806625 0 0 0
374 1 19.58680863440788 12.271777610322246 7.1052696225877465 0 0 0
376 1 17.980775688739257 12.207194973999139 9.193913077021403 0 0 0
1159 1 5.08366828324076 14.06947984302247 4.881654424391464 0 0 0
503 1 19.83840106139338 10.645552910967073 12.275810361056001 0 0 0
379 1 22.908896213347713 10.115646305773536 8.85460341197027 0 0 0
380 1 21.27361946986168 12.240091179806464 8.698220919936864 0 0 0
251 1 23.31824107373227 10.274813147426341 4.889065033337664 0 0 0
252 1 21.254026439301633 12.477042582796674 5.224628650728996 0 0 0
377 1 21.506496165984004 10.638098389584828 6.628842023782887 0 0 0
378 1 22.912364378146297 12.424981197072034 7.083225235279031 0 0 0
501 1 17.82002501921555 10.344271644944147 10.493001827068479 0 0 0
504 1 17.940282818233964 12.266471128922037 12.497928584749818 0 0 0
530 1 15.990510712112552 1.2651441143180615 13.774863617090713 0 0 0
356 1 -0.1369707050113919 12.40001421711004 8.97387852552761 0 0 0
353 1 28.449144386536577 10.495633806939555 6.952112551465713 -1 0 0
256 1 24.68842266243577 12.159296159501427 5.2628087013561275 0 0 0
384 1 25.221254711686058 12.319519576020296 8.661710462239773 0 0 0
381 1 24.81920141276826 10.647119112333261 6.972909827246251 0 0 0
255 1 26.835767978136154 10.517170386367 5.183645034656334 0 0 0
382 1 26.78592538778709 12.53890854293282 7.040827936901544 0 0 0
383 1 26.521631452321987 10.640840881877455 8.567578765127584 0 0 0
395 1 8.483859017579542 -0.04340172956484489 12.542344526711116 0 0 0
502 1 19.93519965027338 12.362006941062942 10.72118699291957 0 0 0
593 1 14.090676750566246 6.836814628766142 14.126479175955307 0 0 0
401 1 14.371658992937974 -0.17430030919655692 10.439576299148968 0 0 0
386 1 1.3740055522985553 1.1188312901858146 10.428820305378355 0 0 0
419 1 1.2743451273786135 3.365998076233283 11.614680716788621 0 0 0
421 1 3.3499393680535223 3.5875122436477738 10.490846901025222 0 0 0
392 1 2.950864738756109 1.5641195592603248 12.250719367376723 0 0 0
388 1 28.57866540175243 1.3744263448539908 12.131154179016162 -1 0 0
1419 1 8.781112324876577 14.144159241565054 12.602742718493232 0 0 0
149 1 17.700927870234366 -0.3050594053138873 3.1077969154833527 0 0 0
155 1 23.17047564842054 -0.2828190882792292 5.149620919755333 0 0 0
495 1 12.515325915380581 10.503291146806884 12.694995337016554 0 0 0
390 1 4.8601264949197995 1.7292106622658876 10.230854532493273 0 0 0
396 1 6.336060690795625 1.6972005589475079 12.307240828447915 0 0 0
423 1 4.935333500940259 3.476838912070598 12.339872609711723 0 0 0
425 1 6.5688813615384785 3.4027511134824127 10.548239497874953 0 0 0
1155 1 1.6299748865546693 14.143103873776141 5.059546530270146 0 0 0
553 1 6.468680333447335 3.4628032761094585 13.97349631543797 0 0 0
497 1 14.141708085543108 10.6706277473612 10.535575005797563 0 0 0
494 1 12.290135248892273 12.089112333463508 10.446750841237481 0 0 0
394 1 8.54628703617493 1.6040234013058978 10.55751467162157 0 0 0
400 1 10.433760762541015 1.6330178777993385 12.056379380458905 0 0 0
427 1 8.742547968172897 3.385571073156186 12.226641763444578 0 0 0
429 1 10.69100329736979 3.164661413110756 10.333765649362288 0 0 0
7 1 4.754021566727406 -0.163372919636367 1.4366627023564014 0 0 0
398 1 12.407479613743954 1.5991808866302268 10.326446592900885 0 0 0
431 1 12.115676592960149 3.4963974662935753 12.05254223612125 0 0 0
404 1 14.18750985197594 1.443219522807871 11.82483692302838 0 0 0
433 1 14.417809743533478 3.2870960881067672 10.18606262716631 0 0 0
435 1 15.991999093285695 3.115122083827387 12.014476783663751 0 0 0
402 1 16.118535081199 1.4630711463438724 10.298037308257 0 0 0
541 1 25.287249783722192 -0.13941173518009364 13.970868133909947 0 0 0
513 1 -0.27216066660616534 -0.05814505958646843 13.892439311446774 0 0 0
406 1 19.750314671561608 1.4075171410565597 10.660411291755292 0 0 0
408 1 18.02455135343941 1.291741019685369 12.357907993536807 0 0 0
437 1 17.842643381948452 3.5801329091022485 10.376516446481137 0 0 0
439 1 19.31653368549891 3.4787699815307898 12.28125796650515 0 0 0
82 1 15.89593864170471 8.614046594663693 0.03986416371043944 0 0 0
1413 1 3.31352393651565 14.116927981576172 10.151944923509715 0 0 0
500 1 14.157658983145534 12.40629706240535 12.238222776645951 0 0 0
410 1 23.618140780092425 1.6047438070158373 10.102874383980735 0 0 0
412 1 21.66314611023431 1.4892081297799633 12.23859360371591 0 0 0
441 1 21.215011009536344 3.260995615523481 10.484655806368608 0 0 0
443 1 23.56706278061927 3.0739736613250033 12.006064758110654 0 0 0
139 1 8.348081543826277 -0.275546967471616 5.166836557504734 0 0 0
417 1 28.414104273418996 3.1879482519534665 10.484340633951323 -1 0 0
445 1 24.900513393640267 3.9172318803376207 10.438010964490434 0 0 0
416 1 25.278738287074408 1.6706279971037272 12.377873066913454 0 0 0
414 1 26.833490924770146 1.600704106686517 10.24324051587947 0 0 0
447 1 27.117720779722216 3.7338728342608265 12.417750938346328 0 0 0
1027 1 1.4077977639097272 13.97022712058487 1.403465096162178 0 0 0
418 1 1.4731641817222139 5.377559328131211 10.187230605761991 0 0 0
451 1 1.8351963809292813 6.9633990419101695 12.342461373751414 0 0 0
456 1 3.3101464453453833 8.914139622024106 12.413698201574773 0 0 0
424 1 3.5117608958649087 5.403771813179493 12.101480149198531 0 0 0
453 1 3.4498899389022406 7.105799159515631 10.447627574236304 0 0 0
450 1 1.2416458619786055 8.52615169190901 10.558380030453021 0 0 0
626 1 15.980288367230632 12.346236622263 13.742999740030275 0 0 0
487 1 4.954254872996844 10.614212348453083 12.426564747293579 0 0 0
15 1 11.989050940593678 -0.23550876757692385 1.6366661861618845 0 0 0
428 1 6.995582403084452 5.171282474478628 12.160114665201805 0 0 0
422 1 5.078934762242431 5.334242353586972 10.418155805522632 0 0 0
454 1 5.222288972649709 8.620212396875203 10.426369740511959 0 0 0
455 1 5.20415606842624 7.147535717723719 12.336135631513265 0 0 0
457 1 7.200409559592669 7.009990376019424 10.540606159111173 0 0 0
460 1 6.9516375061337 8.652340735702303 12.32072463934574 0 0 0
458 1 8.83553005339428 8.881289776122992 10.519873106771154 0 0 0
426 1 8.834419751716284 5.052173431921554 10.27859004770391 0 0 0
464 1 10.380387267046988 8.906376421890535 12.30222653153951 0 0 0
432 1 10.521385278921445 5.180006968200507 12.040315548280867 0 0 0
459 1 8.892360149126578 6.550156386000431 12.48152163833772 0 0 0
461 1 10.840827770989154 7.238049035010658 10.675582049759395 0 0 0
498 1 16.12926606187525 12.537749880345675 10.990330599231374 0 0 0
430 1 12.681869213053737 5.179539130245964 10.468143077949302 0 0 0
463 1 12.557320288109366 6.861830107041768 12.473430723177868 0 0 0
462 1 12.357479237247441 8.800183239608398 10.68728782328667 0 0 0
436 1 13.98070846122157 4.810608389986075 12.274474583077156 0 0 0
468 1 13.995162219080559 8.805412841728838 12.607840188505621 0 0 0
465 1 14.221668188637103 6.974858162585399 10.240341641805713 0 0 0
467 1 15.779030660734296 6.97353113093278 12.22938734928087 0 0 0
434 1 15.980823169143108 5.09344470579482 10.322260895550828 0 0 0
466 1 15.790187394786766 8.80500858845499 10.626010252326825 0 0 0
499 1 15.853527400074732 10.51927696118588 12.373738807599594 0 0 0
486 1 5.364105871221641 12.285025158113793 10.528632127121432 0 0 0
496 1 10.710335739051509 12.226424417943113 12.661282114937698 0 0 0
491 1 8.683945602316507 10.374632655399116 12.402591773375152 0 0 0
440 1 17.628165272934258 5.304174161349156 12.32563769720919 0 0 0
471 1 19.15166802054749 6.792567568300133 12.457020527960442 0 0 0
438 1 19.543741954224227 5.3395037387717466 10.487462452280784 0 0 0