LAMMPS data file via write_data, version 29 Oct 2020, timestep = 300000

2048 atoms
1 atom types

-0.3577558956713176 28.709755895670583 xlo xhi
-0.3577558956713176 28.709755895670583 ylo yhi
-0.3577558956713176 28.709755895670583 zlo zhi

Masses

1 58.933

Atoms # atomic

8 1 3.5390091452951657 1.6444436002361829 1.3439371828024715 0 0 0
35 1 1.4716865485047936 3.221579016671871 1.440419344803538 0 0 0
130 1 1.4228321439360945 1.540173508221413 3.238989511556853 0 0 0
165 1 3.0966915100689767 3.284340655112217 3.345224402445353 0 0 0
4 1 -0.25767959650586064 1.3442178463680263 1.6732688202475687 0 0 0
161 1 28.566591974436523 3.2922574308523704 3.277067420627352 -1 0 0
1045 1 17.83649822485645 14.140911792862138 -0.1254734212998111 0 0 0
102 1 5.215731222387928 12.274972008880424 0.03620077114038622 0 0 0
1029 1 3.357744870685593 14.012749876701276 -0.24630598183539026 0 0 0
12 1 7.195694562038512 1.5628511526193603 1.4507547348881566 0 0 0
39 1 5.111529772230985 3.2934362529871533 1.6636276561589187 0 0 0
134 1 5.281151326971146 1.6854906264816978 3.4661846361081157 0 0 0
169 1 7.159085729505159 3.3530884882475154 3.2240279261735805 0 0 0
1051 1 23.4793806224251 13.934896538148044 1.1972469610770486 0 0 0
101 1 3.621367070357401 10.538122341266808 0.011166414864897667 0 0 0
1413 1 3.7097369547069112 13.904295431924329 10.624037411107803 0 0 0
16 1 10.53119182073778 1.3717989911234798 1.15658900964213 0 0 0
43 1 8.683608023017547 3.389063529376187 1.3842269863242906 0 0 0
138 1 9.08653333847459 1.3867062987293282 3.4745889367741927 0 0 0
173 1 10.829035980615629 3.1568332964989585 2.9316371900679337 0 0 0
1043 1 15.866867462681334 14.10693010167723 1.7658516197502436 0 0 0
629 1 17.89553616480815 10.666226921075245 14.047036997959617 0 0 0
1287 1 5.288512184138581 14.021300612059761 8.898452114521403 0 0 0
1031 1 5.144442934868276 14.012603410975961 1.3107720712690476 0 0 0
142 1 12.367562640712915 1.4196929644885992 2.963963876431697 0 0 0
47 1 12.724148452146183 3.1769392580912466 1.3467961432314333 0 0 0
20 1 14.378484153362235 1.4289151076829816 1.4478817821411032 0 0 0
177 1 14.717899638313229 3.7233643636987237 3.1372808378589925 0 0 0
51 1 16.155400777912867 3.324221841794845 1.2659091852982691 0 0 0
411 1 23.483399949526326 -0.296328648838091 12.192710150247873 0 0 0
481 1 -0.24468205449958447 10.929202777911033 10.302477306965578 0 0 0
512 1 24.96777426900291 12.392850815637294 12.42524526419803 0 0 0
146 1 15.967788807568525 1.5937965067993747 3.000139637959985 0 0 0
24 1 18.151946200791205 1.5285693758643468 1.5672556954778787 0 0 0
55 1 19.811195412547452 3.4703892818339326 1.2717344035265712 0 0 0
150 1 19.490781600739385 1.6489972675601674 3.5933248281098913 0 0 0
181 1 17.891726810470715 3.313835740561388 3.556620862017796 0 0 0
510 1 26.750635498856496 12.810590988232963 10.550753372829348 0 0 0
28 1 21.388142824015446 1.4940647072375302 1.2465996360089444 0 0 0
59 1 23.44858985317011 3.23327401358745 1.6567809268262121 0 0 0
154 1 23.371644831114565 1.2075456809368172 3.2734170297223777 0 0 0
185 1 21.488780820658647 3.2181067429042702 3.1902767147236255 0 0 0
511 1 27.028052961677158 10.80367126456558 12.227100413498972 0 0 0
32 1 25.241997519727356 1.4048058539387491 1.0322808075899779 0 0 0
189 1 25.15282298391536 3.180529316404523 3.340796491757117 0 0 0
63 1 26.49081195465832 3.293868304110913 1.2989364737473483 0 0 0
158 1 26.793801851145496 1.4156805072817957 2.792988177548618 0 0 0
397 1 10.751633021775904 -0.31815152698513405 10.441671223518926 0 0 0
401 1 14.318273599441484 -0.23371380427344157 10.510022500608454 0 0 0
1305 1 21.331515316349506 13.922679629626378 6.936543247481288 0 0 0
162 1 1.2110093648992892 5.214188951618965 3.2022128433118167 0 0 0
67 1 1.33676990267757 7.076521062372394 1.3279162994971478 0 0 0
194 1 1.261502563553509 9.136907023192379 3.4996895743274177 0 0 0
72 1 2.727420249230705 8.707794384287206 1.8160461636543737 0 0 0
197 1 2.8954174127239156 7.203713139719521 3.4347574853235066 0 0 0
40 1 3.317981524517473 5.195075771621642 1.2225673619476534 0 0 0
68 1 -0.0758063882080498 8.867764181629422 1.4689522803124841 0 0 0
36 1 -0.10085329995293102 5.226104057839591 1.0816069891072948 0 0 0
23 1 19.74733346289048 -0.3066608023471616 1.5236685617407042 0 0 0
387 1 0.9664306337497206 -0.23652544317239083 12.420666637223276 0 0 0
1167 1 12.213653411477566 14.106425194764311 5.344640029501308 0 0 0
271 1 12.32187412830962 -0.204441897249243 8.767583983336777 0 0 0
166 1 4.9970217653860916 5.124820627474124 3.3249761947417533 0 0 0
44 1 6.78632110174828 5.147156749637051 1.5140510374744156 0 0 0
71 1 4.926045317682677 6.917487976094122 1.5947599902262715 0 0 0
201 1 6.84469380414236 6.894661141484721 3.5358352715763384 0 0 0
198 1 4.7811226504325 8.281772347782868 3.824641475151961 0 0 0
76 1 6.75710728118434 8.757428749672172 1.43207048599702 0 0 0
62 1 27.09854461857838 5.044608037144331 -0.27276807777458567 0 0 0
1541 1 3.3283101158085695 14.16782165290446 14.101548910008615 0 0 0
49 1 14.331638027775067 3.1853384840296544 -0.05203856602528667 0 0 0
48 1 10.563364946168782 5.168611031203195 1.2173954617783882 0 0 0
75 1 8.532037948397642 6.894203210124471 1.5948288232226233 0 0 0
170 1 8.660881230230848 5.207970547625905 3.135720735963767 0 0 0
202 1 8.585289639063351 8.491426882151446 3.323052106724975 0 0 0
205 1 10.674016246247156 6.824764664815983 3.4611637753231914 0 0 0
80 1 10.268967807211437 8.464792292727072 1.231016722174995 0 0 0
53 1 17.773551441128067 3.0257999215590585 -0.3035458846086338 0 0 0
89 1 21.530426061295326 7.280237730986106 -0.26773521928848376 0 0 0
174 1 12.546730772094753 5.108263836677535 3.118080757386078 0 0 0
206 1 12.196475283118678 8.564101352435536 3.113972660457624 0 0 0
79 1 12.354508701865573 7.344988761597688 1.2721864056124337 0 0 0
52 1 14.298238778851578 5.604192940646919 1.3075428816277874 0 0 0
209 1 14.106896994248851 7.2231974225627775 3.1098069202420655 0 0 0
84 1 14.423173341852149 9.043136560791154 1.1273953639388798 0 0 0
210 1 16.023368241139057 9.005157746674186 3.0113818034305693 0 0 0
83 1 15.977669817002063 7.401026210447057 1.5277053443566475 0 0 0
178 1 16.452210995970624 5.288750249224885 3.2822654107617013 0 0 0
267 1 8.678005283037702 -0.31806298513058806 8.482437649328658 0 0 0
182 1 19.72119599931081 4.962634815444489 3.255891415186531 0 0 0
56 1 17.78674312288047 5.119944376525589 1.5098950594372498 0 0 0
87 1 19.731996029310572 6.920208107635875 1.537517508316419 0 0 0
213 1 17.90330369869986 7.06136071824729 2.929178504253903 0 0 0
214 1 19.74588793005955 8.713938110152231 3.093926555658878 0 0 0
88 1 17.955093124761085 8.908795438507804 1.3526010370723662 0 0 0
3 1 1.5324076544887824 -0.3409464568991645 1.4065011695413934 0 0 0
1169 1 13.831252688191055 14.078291710981317 3.633300100323195 0 0 0
60 1 21.654886285559428 5.185600755494631 1.555909744462173 0 0 0
91 1 23.37431328656975 7.067396326312504 1.1808598281744194 0 0 0
92 1 21.651989059864825 8.670566228576934 1.5693760027503958 0 0 0
186 1 23.619443945960846 5.065899089997946 3.33431367469511 0 0 0
217 1 21.749459827147348 7.029510894556273 3.1556086867931517 0 0 0
218 1 23.60286468681285 9.161463912290936 3.365607032437067 0 0 0
193 1 -0.32267768860703505 6.98061093440542 3.2386812208707796 0 0 0
609 1 -0.31304502242446824 10.83995346916852 14.167946309870391 0 0 0
221 1 25.042668986120663 6.960626566638896 3.3151884899330626 0 0 0
64 1 24.905351923831837 4.882865342825916 1.4440047764352137 0 0 0
96 1 25.20657060483983 8.774698641109119 1.261305321654502 0 0 0
190 1 26.61796945619818 4.839096923157219 3.2282246642377075 0 0 0
95 1 26.710088873623754 6.959724431127136 1.7749844307771419 0 0 0
222 1 27.40400651371902 8.680911260318915 3.2009557434953217 0 0 0
275 1 15.858411500841072 -0.27518013039272804 8.762471521391308 0 0 0
99 1 1.5522079408537053 10.852195250532077 1.6181571058809445 0 0 0
226 1 1.8483984857735085 12.228141793840706 3.7013496865484115 0 0 0
104 1 3.336333014820451 12.278205058759832 1.693582515736606 0 0 0
229 1 3.1919278345405475 10.358125828896563 3.6989362507814194 0 0 0
225 1 -0.24349340678027104 10.943000415982599 3.303254597143029 0 0 0
1283 1 1.6825017296732905 14.01427632591256 8.98858287453645 0 0 0
509 1 25.0676251433159 10.592873866648592 10.486611643654577 0 0 0
484 1 -0.2905310273849615 12.768923050558177 12.21766880108684 0 0 0
622 1 12.483267184509192 12.403789555991406 13.94178709376138 0 0 0
1163 1 8.412440337057772 13.872650202191565 4.961964229981667 0 0 0
633 1 21.50127334784603 10.935556834459687 14.0487514529401 0 0 0
602 1 23.29714481354115 8.706813500035336 14.069726677325722 0 0 0
103 1 4.939323740394924 10.200743983449103 1.7109484602964864 0 0 0
108 1 6.848851196430764 12.118779880518156 1.5423050734292647 0 0 0
230 1 5.372389370958459 11.894245116746687 3.383587578973869 0 0 0
233 1 6.953352194775512 10.290121777005824 3.390679858863998 0 0 0
277 1 17.741518534629506 -0.28864963493116136 6.747420578106264 0 0 0
1171 1 16.007383214807863 13.966768462903287 5.055585593279703 0 0 0
506 1 23.13931525169497 12.490037932524313 10.392554059035062 0 0 0
261 1 3.326118884409015 -0.022378695625123346 6.89716452709933 0 0 0
107 1 8.649095665483406 10.463319419758717 1.4343436228347923 0 0 0
112 1 10.380584434031194 12.18303512954979 0.8131776123598737 0 0 0
234 1 8.534161690701112 12.110338715485748 3.417691286420196 0 0 0
237 1 10.417298805484128 10.19529430472941 2.8901471238069476 0 0 0
7 1 4.957490956473035 -0.22903102363215738 1.7761543960055879 0 0 0
1297 1 14.16658140415772 13.753174103512011 6.841112385886646 0 0 0
18 1 16.09174977690568 1.2000643385137333 -0.08552345030466713 0 0 0
111 1 12.458665609817892 10.497348459391462 1.025544255338622 0 0 0
238 1 12.286915906785739 12.308339855071399 2.8131388880731465 0 0 0
116 1 14.311692160382217 12.537350753740771 1.6755225589487441 0 0 0
241 1 13.973201877819953 10.333767299911317 3.051204191200919 0 0 0
242 1 16.044823460729283 12.050333273208265 3.3432814072136274 0 0 0
115 1 16.172571041471073 10.566387501169524 1.512508900979975 0 0 0
1159 1 5.062737803308612 14.007076041637264 5.0998950878850335 0 0 0
147 1 16.03139678868519 -0.21611959471019906 4.803072150731686 0 0 0
546 1 1.7165149150564591 4.823241307094644 14.07358624222549 0 0 0
1035 1 8.522757211647134 13.63484140071204 1.619894894592692 0 0 0
119 1 19.81907898551076 10.631260689944172 1.429670590399535 0 0 0
120 1 18.143029947548087 12.30941010464888 1.5202467442979368 0 0 0
245 1 17.872459812732103 10.391285792457529 2.997093203940837 0 0 0
246 1 19.828611855375623 12.671049494597632 3.327734001884018 0 0 0
285 1 24.937598557028725 -0.2006160405096047 6.973673622910658 0 0 0
574 1 26.923473462142 5.5372627468630755 14.013075379623588 0 0 0
123 1 23.070799506622322 10.565868358779822 1.2373779441877548 0 0 0
124 1 21.719568369176926 12.718384031464085 1.3626914597605386 0 0 0
249 1 21.697195081853007 10.948818532117539 3.0459120582116914 0 0 0
250 1 23.59921396557121 12.48500687938078 3.4993816922001146 0 0 0
507 1 23.077343818689837 10.586845365292538 12.592053768513187 0 0 0
638 1 26.903930203490102 12.375374607026393 13.994004791575254 0 0 0
100 1 -0.09514532991832103 12.519067646754 1.2436000965365888 0 0 0
508 1 21.01572549201904 12.636874024449426 12.444021203561457 0 0 0
128 1 24.786629747136683 12.171749258149182 1.497708044342895 0 0 0
253 1 25.489806173344785 10.375728182987777 3.056428971323748 0 0 0
127 1 27.037580172521217 10.47647565012726 1.4422974712501409 0 0 0
254 1 27.029384465622613 12.413413765135465 2.9846624314747796 0 0 0
45 1 10.265371991289163 3.1283010108418248 -0.2960114110835756 0 0 0
163 1 1.4219697006617087 3.361443265988175 4.785298187504823 0 0 0
258 1 1.2046529325301447 1.413158068581375 6.880025252070423 0 0 0
291 1 1.1814953879448067 3.3616448669974064 8.695021857822683 0 0 0
293 1 2.829767961326266 3.1792152664315534 6.744037579593099 0 0 0
264 1 3.3664600396261464 1.535014244052107 8.697570357692943 0 0 0
136 1 3.037915699598976 1.2459912146812566 5.0281434924713055 0 0 0
132 1 28.439391643374414 1.571200985485399 4.663817389915795 -1 0 0
260 1 28.34778408808538 0.9664147144270216 8.748019374488305 -1 0 0
505 1 21.250290677504385 10.96206443278106 10.671352256993163 0 0 0
140 1 7.134518589659917 1.6942754341899318 4.935553911195513 0 0 0
167 1 4.960248431514095 3.6189303530227193 5.259538576973714 0 0 0
262 1 4.964369587530835 1.4830632564814457 6.771788081461547 0 0 0
297 1 6.820426479021856 3.3493759378959442 6.740335742415231 0 0 0
295 1 4.6185449013747375 3.5603126122119964 8.497397972753792 0 0 0
268 1 6.704518777661399 1.2071269600900707 8.899358258900095 0 0 0
1157 1 3.748529549925835 13.943608015122923 3.3953230381074198 0 0 0
144 1 10.90083930402095 1.398516816723735 4.944016580983924 0 0 0
266 1 8.903648011113784 1.2990687005763069 6.804929161484581 0 0 0
171 1 9.204012423296394 3.4265537920397806 4.827563292810885 0 0 0
272 1 10.395218289656079 1.3513725872373379 8.848250904830753 0 0 0
299 1 8.447366756211785 2.769033555401004 8.617605699826639 0 0 0
301 1 10.56669572012692 3.236955101144015 7.38279010475806 0 0 0
618 1 8.69193137190054 12.395075699596722 13.99096510447891 0 0 0
501 1 17.973566563422676 10.426464049505638 10.851795455477289 0 0 0
175 1 12.395734913715517 3.6714612130402653 5.275416525859685 0 0 0
270 1 12.289285344737461 1.4581830680574597 7.115117459330053 0 0 0
303 1 12.69454009922128 3.3927758123139347 8.854532905658067 0 0 0
148 1 13.99712668225025 1.4440747336087805 4.9945707492883455 0 0 0
305 1 14.18836870169564 3.1743396411750275 6.924865620486555 0 0 0
276 1 14.435585994697178 1.5355104978897607 8.79121550589278 0 0 0
307 1 15.881563994360476 3.543450600263378 8.771188305886692 0 0 0
179 1 16.16589801123904 3.3865471394656823 5.109137551762546 0 0 0
274 1 15.844034693725288 1.3275838143437746 6.892426432911966 0 0 0
1293 1 10.243396397077069 14.082522713768489 6.631580468190538 0 0 0
502 1 19.475436223594635 12.390537012019145 10.558430094662274 0 0 0
152 1 17.651504649169652 1.5175206821244402 5.117724570275943 0 0 0
183 1 19.729397235327404 3.452591860506375 5.337793724216161 0 0 0
278 1 19.58170338839444 1.5095506124604516 7.007684874839725 0 0 0
309 1 17.774978145431948 3.4847945790815267 7.043149106193227 0 0 0
311 1 19.589676297322285 3.6916102509913165 8.918988759247267 0 0 0
280 1 17.672720925575828 1.6922371533230574 8.757001220849348 0 0 0
21 1 18.075626208196994 -0.23122070542619236 -0.12853577217819195 0 0 0
503 1 19.465959587587644 10.501118901637945 12.465713716010615 0 0 0
187 1 23.384361346647893 3.462992710769594 5.167799634547637 0 0 0
156 1 21.43829449360129 1.8255780144319074 5.226126438021421 0 0 0
282 1 23.48762406237193 1.4179706631385431 6.7907254544284354 0 0 0
313 1 21.18620313935896 3.4800513038673087 7.1150747829292555 0 0 0
315 1 23.31593258373608 3.1934910279760333 8.584066668643796 0 0 0
284 1 21.57176015477832 1.373429646758005 8.57996279516312 0 0 0
289 1 28.30807433898857 3.076130213423639 7.1233906399586395 -1 0 0
160 1 25.23562649120006 1.4842256935868525 4.844364570182194 0 0 0
288 1 24.88468510748474 1.2996396199225408 8.53149138445241 0 0 0
317 1 25.097588668107957 2.979315315669226 6.845719226245144 0 0 0
191 1 26.878019539932815 3.284913359001266 5.151894899444866 0 0 0
286 1 27.02879043139963 1.0423578918864362 6.701702218549819 0 0 0
319 1 26.589796053872185 3.1212216358873937 8.660105984188291 0 0 0
1173 1 17.987222474296797 14.17234298712368 3.184695550559603 0 0 0
195 1 1.2658568559063932 7.202665056877335 5.086482440977771 0 0 0
168 1 3.0444596511102953 5.136398797145722 5.190479537667811 0 0 0
290 1 1.011994563359914 4.741108780817691 6.579589662395028 0 0 0
323 1 0.8374501050777261 7.136491106739626 9.277799496781007 0 0 0
325 1 3.310321560880005 6.933353649652405 7.199207781912772 0 0 0
328 1 3.4830500387990515 8.776293297370392 9.233030137079997 0 0 0
200 1 3.1684849092452088 8.565346057357688 5.651621119273067 0 0 0
322 1 1.6073366691290851 8.68945960981936 7.420770886279663 0 0 0
296 1 2.336374230448596 5.400675625429804 8.601744837814579 0 0 0
321 1 28.696036517985647 7.12082149259577 6.892718476196681 -1 0 0
164 1 28.434379936049353 5.382297788530154 5.032376460651469 -1 0 0
172 1 7.0703205078505125 5.140364155506706 5.443661186083794 0 0 0
300 1 6.8377175606873655 4.899278808333175 8.92601684039546 0 0 0
294 1 4.919786803536728 5.020305790629032 7.135731937449742 0 0 0
199 1 4.77577114932807 6.641736903362793 5.355955884167529 0 0 0
204 1 6.872886380440349 8.445124748348597 5.218565716536479 0 0 0
329 1 7.069765939551628 7.151310799234673 7.012736824509741 0 0 0
327 1 5.156678591011726 6.725003283353766 9.10137192790519 0 0 0
332 1 6.76821539518119 8.608850191612598 9.058196969695038 0 0 0
326 1 5.009663445508578 8.39858910711749 7.447634680797989 0 0 0
298 1 8.540787358467075 5.019655166920335 7.307036100299834 0 0 0
208 1 10.457430512074254 8.604450094539517 4.986754064683975 0 0 0
176 1 10.586579960521378 5.2178070805803864 5.155668345742699 0 0 0
203 1 8.888189986176398 7.074089456392672 5.341231138606927 0 0 0
333 1 10.773527292317771 6.836640623129478 7.02725449494881 0 0 0
330 1 8.728746124554336 8.664701376041442 7.032238807078493 0 0 0
331 1 8.627409769877632 6.824949201147628 8.692053599652212 0 0 0
336 1 10.476023485236755 8.824632705305557 8.560471828534727 0 0 0
304 1 10.261777215204814 5.091046495495071 8.943963878238527 0 0 0
334 1 12.427857610661485 8.444112468341638 6.936271424044439 0 0 0
302 1 12.147032658950614 5.167036240584672 7.2391918903559755 0 0 0
207 1 12.570376707794592 6.851797603052781 5.082909446068293 0 0 0
335 1 12.351752939033709 6.87074789683126 8.89932877735863 0 0 0
180 1 14.525835544107004 5.065375458574973 4.970584722782931 0 0 0
308 1 14.09795778515473 5.306866360927569 8.596499013388131 0 0 0
337 1 14.33165750025382 6.522933811828304 6.674029658605967 0 0 0
340 1 13.959453540626939 8.795193223930381 8.821199611466831 0 0 0
212 1 14.153618557047816 8.619595824168254 5.016223316355709 0 0 0
339 1 15.577249856038577 7.213466907643744 8.558637932571958 0 0 0
306 1 16.04305926720076 5.14736463653322 6.790609383333891 0 0 0
211 1 15.957018619703081 7.317844971753786 4.720906721233768 0 0 0
338 1 15.826850600149882 8.801743874051686 6.768748156953852 0 0 0
216 1 17.93529125203038 8.869082563014524 4.73716599840948 0 0 0
184 1 17.963894916572126 5.551565460269989 5.166517574375953 0 0 0
310 1 19.697794674854634 5.160295315811425 6.983489810505734 0 0 0
215 1 20.15713246775803 7.040735082932542 4.953802447276266 0 0 0
341 1 17.808703723452805 7.271329631418969 6.716826029874084 0 0 0
312 1 17.48637860405368 5.716031155243929 8.61198264527401 0 0 0
342 1 19.964905309361036 8.798692827645377 6.613451048320133 0 0 0
343 1 19.677222726083464 7.256065726094328 8.72225376906086 0 0 0
344 1 17.7386631578131 8.51252189924443 8.766774295994734 0 0 0
188 1 21.655897167131414 5.060299067797051 5.068523624957683 0 0 0
220 1 21.817040187891863 9.028385502684387 5.029467391610082 0 0 0
314 1 23.01876525207712 5.33176929073337 6.921663192564926 0 0 0
219 1 23.25909048492141 7.179210796099607 5.221653091663323 0 0 0
345 1 21.580002000667573 6.976108488158068 6.890347928396351 0 0 0
347 1 23.427552658166817 7.015949027033929 9.027948692377143 0 0 0
346 1 23.164247213002767 8.854675172583377 7.320511629623165 0 0 0
316 1 21.45022409354537 5.306634123106982 8.6654562148702 0 0 0
348 1 21.358778549189722 9.163953465985538 8.80187347472102 0 0 0
324 1 28.56976165756079 8.928388655571174 8.668389936916135 -1 0 0
196 1 -0.29127946709744634 8.761968352833655 5.402181243888706 0 0 0
292 1 28.271901805604678 4.809760967005534 8.609447463810264 -1 0 0
192 1 25.35901927984871 5.097991969464727 5.054163912586538 0 0 0
352 1 25.442493131774153 8.59464695354539 8.89999664934835 0 0 0
349 1 25.00724592552538 7.011382223840979 6.761317958781313 0 0 0
224 1 25.3167683998823 8.930271664099983 4.98910861646328 0 0 0
223 1 26.905245138583183 7.175363245590695 4.998510138871425 0 0 0
318 1 26.912952469037126 4.969413785530069 6.90134411517406 0 0 0
350 1 26.826820998426264 8.7492279284525 6.823080996301622 0 0 0
351 1 27.027129373434835 6.854201219694253 8.619076004231264 0 0 0
320 1 24.980074644952136 4.934773756428476 8.485600939309428 0 0 0
227 1 1.4501360910112993 10.37608614028016 5.518524146472119 0 0 0
354 1 1.562438839528666 12.444219134995254 7.045916013547015 0 0 0
357 1 3.76944730948673 10.323867039380945 7.207456380959625 0 0 0
355 1 1.570569959163467 10.57368202178902 8.810330324091996 0 0 0
232 1 3.5910055999151185 12.039097433997116 5.310165443226661 0 0 0
360 1 3.6178110226453346 12.0433919362316 9.049121111635452 0 0 0
353 1 -0.2802002867069433 10.569642555085295 7.026847540660438 0 0 0
135 1 5.001433321528309 -0.323690608139732 4.918216095113706 0 0 0
231 1 5.273835432231018 10.00812621152028 5.274483370015345 0 0 0
236 1 6.940405381704518 11.914366303909219 5.553836698181376 0 0 0
358 1 5.304266269700031 12.19472491376288 7.105779887637183 0 0 0
361 1 6.837557713859567 10.137386458304066 7.036024392092763 0 0 0
364 1 6.967070908579773 12.053118204911978 8.972342831869094 0 0 0
359 1 5.089064747106891 10.396872835808818 9.138631709915876 0 0 0
504 1 17.333221933920182 12.296223530262798 12.320455767867534 0 0 0
235 1 8.726913815374104 10.301782030175007 5.281490468117128 0 0 0
240 1 10.17782443743607 12.271271247210192 4.738461419925166 0 0 0
362 1 8.676911540164673 12.39308125428987 6.929218797821412 0 0 0
365 1 10.520485649535098 10.388071843549325 6.915751585631005 0 0 0
368 1 10.4544871777528 12.453465631206825 8.677420664563945 0 0 0
363 1 8.64185817018316 10.059303665040732 9.019245603728532 0 0 0
279 1 19.405778866545997 -0.2185679723040497 8.622326098705901 0 0 0
153 1 21.250468374112337 -0.2569394116988839 3.432746373793861 0 0 0
73 1 6.8587157329110795 6.8970153016399856 -0.290681327789881 0 0 0
239 1 12.228700129743501 10.320036333821427 4.797245887780693 0 0 0
367 1 12.256883993722582 10.399763677273457 8.665342046941458 0 0 0
366 1 12.052337601904402 12.14977351244074 7.014730569353394 0 0 0
244 1 14.152246805715325 12.026988245724981 5.086499890559631 0 0 0
369 1 14.377556224152936 10.319490519257663 7.119250781440402 0 0 0
372 1 14.311498126141222 12.306776216307776 8.687333879286507 0 0 0
243 1 15.954241759385084 10.189030968886446 4.945767568964396 0 0 0
370 1 16.224198150909015 11.966262559444292 6.597688487088489 0 0 0
371 1 16.018512965819152 10.342868052567693 8.601528748971727 0 0 0
375 1 19.808973154370175 10.63576283037204 8.750217135535411 0 0 0
247 1 19.942464974912884 10.528742030506084 4.705788858882481 0 0 0
248 1 18.00457095892899 12.014904952261409 4.594490436539001 0 0 0
373 1 18.07414425143604 10.415342397705587 7.014044967321529 0 0 0
374 1 19.581537560209018 12.053318429675185 6.683732505959789 0 0 0
376 1 17.77759145841089 12.312648979682896 8.396860238396405 0 0 0
577 1 0.040190800817485384 7.072291665473633 14.032375595403856 0 0 0
380 1 21.344754332080278 12.406613307544049 8.67504734913845 0 0 0
251 1 23.585386140298922 10.516852856756797 5.3902176581534835 0 0 0
379 1 23.51386823408895 10.763954017220536 8.476100031697014 0 0 0
252 1 21.673284900667035 12.464057918197843 5.027143522804578 0 0 0
377 1 21.335766623133217 10.600785593995722 6.780537155763115 0 0 0
378 1 23.568083049231973 12.548160200626954 6.6791496910958745 0 0 0
228 1 -0.2059241121953971 12.314161628891759 5.095911551597256 0 0 0
356 1 28.4653088897033 12.407483039311755 8.762070018298633 -1 0 0
381 1 25.446773396471805 10.478129042795517 6.91837921599174 0 0 0
256 1 25.38956906021615 12.167613909335172 4.987769225909085 0 0 0
384 1 25.296281642300467 12.675831698360033 8.700688210085938 0 0 0
255 1 27.02813336379194 10.490822679659395 4.8376162778389675 0 0 0
382 1 27.062340074631557 12.633945995186174 6.699623519900536 0 0 0
383 1 26.698236283590248 10.69469105399689 8.666542117058125 0 0 0
538 1 23.097015328673383 1.5721337631789767 14.011056004669967 0 0 0
151 1 19.336149445950806 -0.14428246090255853 5.349374494281533 0 0 0
409 1 21.548606115610784 -0.17344799922264542 10.467669317004798 0 0 0
386 1 1.0110032249968866 1.4195956773337712 10.644022578805238 0 0 0
419 1 1.0712481233426066 3.089138052382577 12.495033198028208 0 0 0
421 1 3.1602330524571003 2.9755163454632383 10.516934750855821 0 0 0
392 1 3.3416733469217346 1.3455962345535097 12.352530604554259 0 0 0
133 1 3.0539674917377297 -0.3267042444910549 3.1680538079582807 0 0 0
417 1 -0.31149888866855896 3.6941200253687656 10.826297852649512 0 0 0
1291 1 8.379950121855309 14.103869772997442 8.783501990461925 0 0 0
390 1 5.114474991564068 1.1943555038335993 10.589653582697979 0 0 0
396 1 6.686737462437113 1.656560485755568 12.624748869942543 0 0 0
423 1 5.241478237011203 3.1881315082013217 12.190145952699064 0 0 0
425 1 6.786376000410076 3.0051170383880845 10.327252244629923 0 0 0
1425 1 14.272721321911948 14.128221927177918 10.178191976386042 0 0 0
394 1 8.600154215174788 1.1745049045154523 10.468164568813034 0 0 0
400 1 10.7601303066404 1.3724374596161484 12.402459923452168 0 0 0
427 1 8.762535456159945 2.9752066195127815 12.293689596811566 0 0 0
429 1 10.701568651177745 2.9867796820656007 10.428342483544881 0 0 0
405 1 17.58678110643212 -0.1345219111540796 10.629625478847485 0 0 0
85 1 17.92381009025344 6.941861095655587 -0.33363325251771847 0 0 0
137 1 6.88419064636941 -0.1681211278027912 3.3290521591922806 0 0 0
398 1 12.42017692330437 1.6337409046633 10.781379957802274 0 0 0
431 1 12.553934588251733 3.4786788828644757 12.1876964563569 0 0 0
404 1 14.193772076696927 1.5225920565895528 12.487342077594496 0 0 0
433 1 14.413085698367798 3.202445552416794 10.521352529229528 0 0 0
435 1 16.291344248371285 3.572428598791979 12.616591564299858 0 0 0
402 1 15.956905384584154 1.4898989162460055 10.84466508286699 0 0 0
406 1 19.546164520046645 1.570150466386196 10.459415515018467 0 0 0
408 1 17.681688931897263 1.5685677777368063 12.488946080891253 0 0 0
437 1 17.720078266265705 3.3576038622655076 10.378713846277963 0 0 0
439 1 19.742096953158363 3.5185454578637256 12.110397148087527 0 0 0
494 1 12.329190241138097 12.462293065901656 10.33477873125759 0 0 0
495 1 12.30360818164874 10.693287111924867 12.257849370536976 0 0 0
410 1 23.272120122569497 1.2701191437329287 10.332638832801129 0 0 0
412 1 21.4477552025223 1.505351395539954 12.23138673033957 0 0 0
441 1 21.60739394092905 3.124733800700526 10.22870560972835 0 0 0
443 1 23.33938330934915 2.9269524682550685 11.817645664101823 0 0 0
500 1 14.301403677676788 12.496586200929404 12.093944691815366 0 0 0
1153 1 -0.06242432610243853 13.921043975245066 3.3389937817228454 0 0 0
497 1 14.378622991400235 10.64373233617107 10.520276445280153 0 0 0
388 1 28.379917852257268 1.4485681364571343 12.354389346477248 -1 0 0
416 1 25.20286416147064 1.5677186652065707 11.966289919693287 0 0 0
445 1 24.91998348387449 3.4484997291957815 10.573008149976944 0 0 0
414 1 27.15781973683294 1.8126059333238658 10.59965197256546 0 0 0
447 1 26.625323749048498 3.260574563093828 12.62883578888727 0 0 0
399 1 12.442459992525759 -0.22334817425488396 12.268962463490656 0 0 0
66 1 1.9114809754634048 8.661333037265118 -0.13885612309487086 0 0 0
19 1 16.204164545548725 -0.2870247731599692 1.6683080697847408 0 0 0
1155 1 1.7098510047135957 14.051062286741809 5.491573623644975 0 0 0
418 1 1.383060608632222 5.05872754148358 10.919639999277692 0 0 0
451 1 1.2967108097294056 7.192044610721953 12.113311813086762 0 0 0
456 1 3.4193354023710105 8.62713666901133 12.025342623933584 0 0 0
450 1 1.477615532588196 9.150873761998545 10.428412938077448 0 0 0
424 1 3.7368313294869173 4.905494925542986 12.269208891997241 0 0 0
453 1 3.236022470950589 6.795630010199738 10.69512818122221 0 0 0
449 1 28.31373091817035 6.820225690503839 10.920459623117981 -1 0 0
422 1 5.313194270991246 4.760164485317048 10.44729309349791 0 0 0
428 1 6.92278872323723 4.890055371040783 12.304948241732298 0 0 0
455 1 5.0931826946031995 6.686220364565569 12.451494099419241 0 0 0
457 1 6.76162701698202 6.825023296431827 10.616604563091911 0 0 0
460 1 7.174022183237801 8.685281265588024 12.863105612194097 0 0 0
454 1 5.518520405288192 8.778580020775264 11.001889904444454 0 0 0
464 1 10.948593525152825 8.821353439484906 12.449733537357737 0 0 0
426 1 8.847621593203646 4.623234685713855 10.763673635983563 0 0 0
432 1 10.974928878195529 5.124521503043182 12.673963090238093 0 0 0
459 1 8.816723072381976 6.822271077975983 12.309765524053956 0 0 0
461 1 10.572700025375413 6.547658760147059 10.525826414818841 0 0 0
458 1 8.60627016213907 8.543358987585757 10.772539638342018 0 0 0
109 1 10.317796866409171 10.252334624696887 -0.3415743323831205 0 0 0
496 1 10.6123887063151 12.123114052793023 12.29748936159958 0 0 0
430 1 12.292032036626138 5.1187846476026655 10.69772275933201 0 0 0
463 1 12.730394154379479 6.808906234242397 12.492728037975015 0 0 0
462 1 12.133585128493351 8.420625672671692 10.471507072845748 0 0 0
436 1 14.156836788509352 4.938943666538541 12.18072370938126 0 0 0
465 1 14.122308573932274 6.744700936836961 10.561430714200549 0 0 0
468 1 14.193543030780976 8.64095484161908 12.583486517389446 0 0 0
434 1 16.09145042104499 5.2481665054000874 10.463028876298146 0 0 0
466 1 15.94550416741296 8.352865260782776 10.80615751497571 0 0 0
273 1 13.98749254922899 -0.16119035541347543 6.9356063033569475 0 0 0
467 1 15.718665681274253 6.761344172234182 12.667941794018223 0 0 0
470 1 19.679741925447257 8.81718589785932 10.350778052214793 0 0 0
469 1 18.007824894855833 6.9887077273396745 10.575683803139928 0 0 0
472 1 17.46209172249152 8.583501081392713 12.329646098871349 0 0 0
471 1 19.680770613896946 6.961014804027081 12.538966688510085 0 0 0
440 1 18.021045793821337 5.206246266174863 12.669292256915409 0 0 0
438 1 19.433904661162426 5.3314111714051595 10.808463671931245 0 0 0
1027 1 1.7614532116699473 13.997576475622402 1.83493406774704 0 0 0
493 1 10.343891561983133 10.347620845209873 10.516231946260229 0 0 0