LAMMPS data file via write_data, version 29 Oct 2020, timestep = 300000

2048 atoms
1 atom types

-0.48818202178258296 28.840182021780773 xlo xhi
-0.48818202178258296 28.840182021780773 ylo yhi
-0.48818202178258296 28.840182021780773 zlo zhi

Masses

1 58.933

Atoms # atomic

35 1 1.376626008523747 3.332580765666102 1.446488558514772 0 0 0
130 1 1.7836111770923586 1.550815813166353 3.0869371094306364 0 0 0
8 1 3.553102958073209 1.5891574076733521 1.2440726156610316 0 0 0
168 1 3.269436999747363 3.5752603486851315 3.0829207568588433 0 0 0
4 1 -0.09719457283863031 1.3571533360017918 1.8619967097698034 0 0 0
37 1 3.3402072803650866 3.622288718412764 0.016606424698991096 0 0 0
1 1 -0.2747449309348369 -0.11999252510797898 -0.31879092338967563 0 0 0
3 1 1.2383906130453115 -0.21779413963594862 1.635262792167877 0 0 0
2 1 1.302750611056107 1.625604451542999 -0.17217246131946162 0 0 0
12 1 7.3372751509104654 1.797347954220783 1.24954690103274 0 0 0
39 1 5.176346326105701 3.406740909761421 1.808741645834964 0 0 0
134 1 5.282554899932233 1.3189771621239967 2.9202739644638975 0 0 0
169 1 7.113750865905191 3.395196510314778 3.2774239444123108 0 0 0
6 1 5.1796870941427455 1.9476779849862607 -0.35814413260213374 0 0 0
7 1 5.723342886036659 0.12561916882437363 1.2136354890602477 0 0 0
137 1 7.106800827800708 -0.265010485016396 3.2279632510627168 0 0 0
138 1 8.700070350066962 1.5910352372920569 3.8119650098071034 0 0 0
43 1 8.957818642553462 3.027503322616942 1.5932711880476056 0 0 0
16 1 10.764758001814313 1.6707314725877556 1.44009601157371 0 0 0
173 1 10.388353155595853 3.1834280360246825 3.6927479109230674 0 0 0
141 1 10.607275209667725 0.022006821083429884 3.130191483226369 0 0 0
13 1 10.365730008463366 -0.0015832663948578407 -0.05776833809730658 0 0 0
11 1 8.934021744015235 0.253896948174001 1.5751862674171062 0 0 0
10 1 8.39123135144091 1.9154445172657515 -0.4788641848154569 0 0 0
47 1 12.411716195911277 3.3008136649048647 1.435129186625811 0 0 0
142 1 12.401281790649513 1.5146681197106022 3.4994713632589862 0 0 0
20 1 13.877034519301851 1.3036693869943143 1.6257949091769497 0 0 0
177 1 14.267225924133312 3.307241028619593 3.3057483064390447 0 0 0
52 1 16.234274240197074 3.2633200167659204 1.498397893600496 0 0 0
146 1 15.932838560933524 1.2943480811541106 3.1977010765252003 0 0 0
14 1 12.311704019275169 1.3521892749621287 -0.3811531626432806 0 0 0
24 1 15.68443980398312 -0.32628450113991647 1.6067002036008189 0 0 0
15 1 12.157602012747606 -0.40218660985646437 1.1248684770786412 0 0 0
18 1 16.071457645388854 1.6383998810801166 -0.17989566364697956 0 0 0
145 1 14.120955947822637 -0.40763814658370146 3.5152412425704895 0 0 0
49 1 14.057462356296613 2.9449881325515674 -0.3927440683700638 0 0 0
51 1 17.901766388689765 1.3387175137689031 1.3792806270943767 0 0 0
55 1 19.45570191770893 3.1845707908407266 1.3175225808913589 0 0 0
181 1 17.959014685461632 3.392600277804339 3.233110348354582 0 0 0
150 1 19.83478295763743 1.1724167615057781 3.087292391707907 0 0 0
149 1 17.973282589041766 -0.4425450156693777 3.37102863688158 0 0 0
23 1 19.914032696857895 -0.37437298324287815 1.4857098121322223 0 0 0
21 1 17.931922676856807 -0.15115898044211246 -0.3086286967324341 0 0 0
59 1 23.10916320606585 3.323921135332891 1.6162478523667736 0 0 0
154 1 23.228229345134032 1.6167717579156533 3.4998659512099155 0 0 0
185 1 21.166028362797647 3.345218239719677 3.204485936950206 0 0 0
22 1 21.49121610592119 1.4136968140374204 1.632058121061283 0 0 0
1148 1 23.11657857560973 -0.18234397403221286 1.1574421670666308 0 1 0
153 1 21.75404706157036 -0.4221950916115347 3.51395301454383 0 0 0
57 1 21.25117699912648 3.227065501511965 -0.3480296789882331 0 0 0
161 1 28.785484193605345 3.475449788583268 3.329390770947146 -1 0 0
32 1 25.21365346121175 -0.1829689190489745 3.5920580214975297 0 0 0
189 1 24.823938102878024 3.4746432316765317 3.1396246268836503 0 0 0
27 1 25.1763355552415 1.5003324757073626 1.7762953869124924 0 0 0
63 1 27.25317581482461 3.0173000817586426 1.517365149472138 0 0 0
158 1 27.08450820661723 1.3483542638844632 3.232628087692528 0 0 0
29 1 25.00478216975371 0.21569518519262731 -0.46467705841306284 0 0 0
30 1 27.072183608035907 1.4488206224471887 -0.03603468320163106 0 0 0
31 1 27.21679271939076 -0.3382631989382179 1.4472943338260038 0 0 0
61 1 25.312016484572382 3.084514219826017 -0.12013794216787943 0 0 0
65 1 -0.46154861113454615 7.186138985758947 -0.28959497129549266 0 0 0
162 1 1.5536711128184488 5.007923296073861 2.890820890695921 0 0 0
193 1 3.1996568937555954 7.061690710295292 3.192132306392262 0 0 0
72 1 1.7039389078588512 7.372703513607623 1.7085010766372428 0 0 0
40 1 3.4027313250117155 5.342084611387134 1.152592420169703 0 0 0
222 1 1.1701392462715434 8.868782372770042 3.450607578366436 1 0 0
69 1 3.204065160325854 7.168187222562245 -0.3245063314998117 0 0 0
68 1 -0.3733943011507338 9.06115378751845 1.4199895361835573 0 0 0
95 1 -0.29386106932966527 6.597620988516816 2.669476556646624 1 0 0
66 1 1.6087331911771248 8.968628486947766 -0.12517825078897094 0 0 0
70 1 4.800517292488009 8.841620381894414 -0.2885732457909166 0 0 0
166 1 4.840916571604801 5.398416184420192 3.355807775667949 0 0 0
44 1 6.961969833008867 4.941542204074875 1.3884256926568217 0 0 0
71 1 5.19573161141624 7.104969114211644 1.551241831832284 0 0 0
201 1 6.931583807686437 7.015810279589005 3.079705433229681 0 0 0
76 1 6.472552369438023 9.114643663134476 1.503213558251794 0 0 0
197 1 4.625186582331262 9.080403591016891 3.48474885836367 0 0 0
170 1 8.823193112391575 5.0382414425528275 2.8917546878197906 0 0 0
75 1 8.539513064537688 6.858263180532831 0.9092501565547786 0 0 0
205 1 10.48045055171013 7.028907759424433 3.2494431380017628 0 0 0
202 1 8.669264587799372 8.665053969128191 3.0213105843843175 0 0 0
77 1 10.671378159341256 5.007729297571686 1.37676513480091 0 0 0
206 1 10.82114787608375 9.029487681190195 1.4152883024543552 0 0 0
48 1 12.078192279013916 4.90921123549194 3.1306228097952733 0 0 0
74 1 8.75807194716578 8.84039876822862 -0.0519392797702628 0 0 0
980 1 10.58217587522864 7.033997794543303 -0.08475806442040912 0 0 1
42 1 9.046541298445106 4.752954214342607 -0.39922761837078724 0 0 0
46 1 12.40475089251003 5.0495818276904485 -0.3779473849337601 0 0 0
174 1 12.245147046616541 8.704164050911258 3.4478808375137957 0 0 0
80 1 12.589554424411295 6.920472481720825 1.344001463604188 0 0 0
79 1 14.417362550934408 5.057780932482734 1.196421583964219 0 0 0
209 1 14.449942368772659 7.035995297562907 3.2053969904055197 0 0 0
84 1 14.959293224500179 8.775484322807072 1.18125654343041 0 0 0
178 1 16.121101787265445 4.9351747853481704 2.938331656778333 0 0 0
83 1 15.957734922684265 6.78743178573119 1.4008419455760461 0 0 0
78 1 12.495468020055801 8.616401054427826 -0.4324913208870575 0 0 0
81 1 14.269773751159454 6.740688732608515 -0.4235626515016975 0 0 0
210 1 16.29549748842883 8.787264403643633 2.905611074492409 0 0 0
56 1 17.939524572355985 5.092816666306844 1.32632973503462 0 0 0
87 1 19.648630848794248 6.7313444802649265 1.174891956267076 0 0 0
213 1 17.794121252125343 6.704427297320267 2.9671339933416903 0 0 0
182 1 19.58207469661052 4.942717046886315 2.8249966145648764 0 0 0
88 1 17.75837379337984 8.295801181510438 1.355031837870491 0 0 0
214 1 19.681998589959456 8.876715986263536 3.0564453347209968 0 0 0
86 1 19.539435288505175 8.324259051201736 -0.43312319229950447 0 0 0
54 1 19.84520827037843 4.722954403335615 -0.4398472664603048 0 0 0
82 1 16.472857650247747 8.251043736179733 -0.44491713010618383 0 0 0
60 1 21.617757746146168 5.068525061061581 1.4321498630420595 0 0 0
186 1 23.382006333263334 5.350151856756752 3.268050366877739 0 0 0
91 1 23.304336914298283 7.332954058309115 1.4228096130489125 0 0 0
217 1 21.552898906854324 7.032477530730842 2.938596818277658 0 0 0
123 1 23.586349729825123 8.608163601133068 3.5348669620446787 0 0 0
92 1 21.17421267594763 8.723098724488805 1.3713602303368868 0 0 0
58 1 22.89495289660602 4.626201819426258 -0.30593600183655667 0 0 0
36 1 28.788761305520755 4.93819997247278 1.056651352770529 -1 0 0
221 1 25.34800321280496 6.815367054571559 3.1049361530351103 0 0 0
64 1 25.06937262300147 5.064919722153213 1.35740674614182 0 0 0
190 1 26.820606106261472 5.222491445539891 2.9795111637944656 0 0 0
96 1 27.054981141117395 6.696239182312829 1.3264716861773704 0 0 0
350 1 27.01190302361944 8.618588013543977 2.6757432061321103 0 0 0
90 1 25.104134619555893 8.816770995211835 1.3855707406880764 0 0 0
62 1 26.802072900026232 5.039382521248476 -0.24022142409481959 0 0 0
94 1 27.12426677778746 8.855622916898529 -0.2739395328214953 0 0 0
93 1 24.80512966368468 6.9178770466048265 -0.16785486425959562 0 0 0
194 1 3.3402732328915383 9.315207691951965 1.5622822754644363 0 0 0
99 1 1.2364040744775864 10.850983836089643 1.4841615353524333 0 0 0
226 1 1.2184403588894968 12.40715662646633 3.5289668676406665 0 0 0
229 1 2.860360185418967 10.91767227646593 3.6173655740355066 0 0 0
104 1 2.997856446287896 12.765240765202297 1.3559463801122644 0 0 0
100 1 -0.45653352124866586 12.764677134928084 1.1811565962135353 0 0 0
97 1 -0.1709514703612811 10.695996025793667 -0.27923665873649045 0 0 0
1157 1 3.203238924966253 14.120849347516355 3.4213157732497743 0 0 0
103 1 4.952787561752784 10.847294080438374 1.7089476250652482 0 0 0
108 1 6.6129659374737235 12.395885858034125 1.3780445798539978 0 0 0
230 1 4.864444871410312 12.46116771463658 3.4195589580382624 0 0 0
233 1 6.821396037113762 10.762646913961197 3.469475493530507 0 0 0
1033 1 7.1041251985674485 14.136385859353746 -0.34569774914117346 0 0 0
1165 1 10.643935848598844 14.008358461899352 3.2619714829479367 0 0 0
1035 1 8.898502129583747 13.878786714565589 1.5989935333170404 0 0 0
234 1 8.598985109149773 12.342439508408802 3.3036049737870536 0 0 0
107 1 8.760768066231075 10.384386731855914 1.6071457979098906 0 0 0
112 1 10.917622335511348 11.856118531206752 1.4762887464617382 0 0 0
237 1 10.572785310002645 10.48906945202563 3.194830323120743 0 0 0
1008 1 10.580793530033302 14.075044147131836 -0.39278604561064656 0 0 1
106 1 8.74897033218885 11.970449911470311 -0.3079403449496425 0 0 0
238 1 12.412061965682957 12.227975118355186 3.2654811102876455 0 0 0
111 1 13.01606280522022 10.759405188105312 1.3070864298348621 0 0 0
116 1 14.38851867262267 12.436431839997953 0.9944061383823433 0 0 0
241 1 14.309055464591651 10.213549200215372 3.160281123342333 0 0 0
242 1 16.049955221839326 12.02911147238289 2.9970609253989884 0 0 0
115 1 16.193125652839917 10.507691912608541 1.133721224638322 0 0 0
1039 1 12.490651473774962 13.958238700130911 1.1274392813262832 0 0 0
1169 1 14.48250140419913 14.146230785301105 2.601250953084383 0 0 0
119 1 19.486194294887717 10.774746458644588 1.3499957123228392 0 0 0
120 1 17.85387135816599 12.493000971676329 1.0022685711897268 0 0 0
245 1 18.293706024280162 10.723181436225998 3.303391941856304 0 0 0
246 1 20.028858889960425 12.685250315944714 3.246638097565746 0 0 0
1173 1 18.160632584019318 13.907970564364225 3.318161846635342 0 0 0
124 1 23.069302509455063 10.29643756537961 1.0938030454015926 0 0 0
249 1 21.019638299742198 12.349088931578885 1.0110102285305662 0 0 0
250 1 22.61559216078637 12.539201669134965 2.7373608340767452 0 0 0
252 1 21.659165458501818 10.142592827797758 3.1747263975027495 0 0 0
228 1 28.69588505393569 10.745723618493331 3.5002813190014033 -1 0 0
128 1 24.833761087730885 12.198077220983565 1.2339812538493011 0 0 0
253 1 24.767819163452856 10.52793579812208 3.2944769940126135 0 0 0
127 1 27.280458521311914 11.097948954795564 1.1679951233134367 0 0 0
254 1 26.68282469236582 12.293861515217243 3.258563182089653 0 0 0
1181 1 25.014965172064734 13.909778608784805 2.776900496591506 0 0 0
1055 1 26.58741390207709 14.130386149239142 1.1218683910584706 0 0 0
1153 1 28.458051889620705 14.162337751530321 3.1036856016428853 -1 0 0
257 1 -0.22735283974869247 -0.39678056392622313 6.299238211375375 0 0 0
136 1 1.5873909457702409 3.3742260351214237 4.7010020369412455 0 0 0
165 1 3.4183031021050296 1.5994188452844451 4.810546143029649 0 0 0
258 1 1.2110881974940668 1.4533327712503465 6.295340128333639 0 0 0
291 1 1.1704722445812572 3.215479031216606 8.331593680888014 0 0 0
264 1 2.722710361343984 1.5377606919890927 8.372146039932394 0 0 0
293 1 3.4211235960520248 3.2864009129032405 6.6232733717112255 0 0 0
260 1 0.01161677022476576 1.08662883960147 8.799950621323863 0 0 0
132 1 -0.35552692269452035 1.5268165684426194 4.532319383443918 0 0 0
289 1 -0.3219091340118041 3.2656469642802413 6.238637709058046 0 0 0
261 1 2.8565613670803973 -0.21057826281591147 6.664081524992202 0 0 0
135 1 4.958202579693239 -0.1533085055417161 5.061532365020914 0 0 0
263 1 4.636760809741828 -0.15896824087489442 8.394961938187752 0 0 0
140 1 6.6804578815846964 1.5705132473049894 5.261909107476495 0 0 0
167 1 5.509738059963559 3.5803706436955567 4.826094177007629 0 0 0
262 1 4.974709691749313 1.7163883104005362 6.660823120605838 0 0 0
297 1 6.70998228653793 3.733058111897382 6.9414256334797235 0 0 0
268 1 6.335390109699853 1.889279735894425 8.656138348221377 0 0 0
295 1 4.571570753424074 3.353215219451655 8.537059666226593 0 0 0
265 1 6.6147651892270805 -0.22972046841966637 7.086442132758265 0 0 0
267 1 8.826520966979412 -0.2142844694261079 8.617817965746148 0 0 0
299 1 8.310327636576158 3.089636497700192 8.853119986079841 0 0 0
171 1 8.656657628518879 3.4928490813991537 5.3004755184616 0 0 0
144 1 10.716492240539653 1.3054460822662746 5.044437667727697 0 0 0
266 1 8.098141456221533 1.4436854711249707 7.053217194954109 0 0 0
301 1 10.528890841572013 3.2438474610249393 7.003911051713559 0 0 0
272 1 10.655345129261516 1.891541177504331 8.693298963804967 0 0 0
139 1 8.606945965844966 -0.39539317420962616 5.1822247441527685 0 0 0
269 1 10.591404502798406 -0.3843588777288756 6.942504474100982 0 0 0
397 1 12.45859899000071 -0.42915099271024815 8.693315596175571 0 0 0
175 1 12.180873312393109 3.5375865491925396 5.203734579644039 0 0 0
303 1 12.766746859364256 3.0853304779704125 8.820993879253884 0 0 0
270 1 12.338205533905953 1.486705312714737 6.922657527672217 0 0 0
148 1 13.975670446478231 1.0301720122314377 4.9130822969547845 0 0 0
305 1 13.78102568527047 3.2613423073989685 6.883652902192304 0 0 0
276 1 14.478390313183798 1.3167661777215158 8.536304618600619 0 0 0
179 1 15.558943613775766 3.4753365958338436 5.020549504286167 0 0 0
274 1 15.391915612515058 1.6506679099690702 6.290805236903098 0 0 0
307 1 15.86232337955641 3.0923082891593916 8.031168653106883 0 0 0
279 1 19.82425864102256 -0.2792445650307967 8.740614064058194 0 0 0
183 1 19.450280146639933 3.3432787032935534 5.038233879166194 0 0 0
152 1 17.454601120462954 1.2958792994725006 4.756106255308569 0 0 0
309 1 17.648307024839042 3.0937419018262773 6.439792628116369 0 0 0
280 1 18.051112018057232 1.2188442950716565 8.771390815199062 0 0 0
278 1 19.68916997098436 1.4492905966628888 7.088231613957117 0 0 0
311 1 19.889618263857407 3.1918206142902585 8.598180344484746 0 0 0
151 1 19.136814335174833 -0.42636801563325694 5.366557807486921 0 0 0
277 1 17.272504683806325 0.008176188981340093 6.479164717792567 0 0 0
315 1 23.47429563398412 -0.3727117759735066 8.255090565448322 0 0 0
187 1 23.100142136159683 3.190511971036857 4.948351512050624 0 0 0
156 1 21.236433732728543 1.588318775443796 4.895350843260881 0 0 0
282 1 23.310251424296304 1.351163727674118 6.527315184735503 0 0 0
313 1 21.31118398708408 3.3633684667756074 6.712145096251267 0 0 0
284 1 21.686526209888264 1.5260921420719051 8.267065604626355 0 0 0
314 1 23.478083625647734 3.1172197187058392 8.535427189632895 0 0 0
281 1 21.296645353995885 -0.41257085277090666 6.571661348029407 0 0 0
285 1 25.36020465026438 -0.2644104840652678 6.5803929548735764 0 0 0
160 1 25.020282418298805 1.5019932962263869 4.819366851011538 0 0 0
317 1 25.303042098691506 3.3177320422627874 6.787773660033026 0 0 0
288 1 25.286345595161016 1.3931424029645783 8.04621586861642 0 0 0
191 1 26.884990656934818 3.1697100361745654 4.914221602222616 0 0 0
286 1 27.331232346540688 1.539963187797059 6.6640666977170815 0 0 0
292 1 27.450311259954056 3.2430813040417084 8.413131017905686 -1 0 0
287 1 27.342406375621835 -0.10022345999409765 8.183958454132847 0 0 0
195 1 1.336323859512471 7.122386462621256 5.024692866245539 0 0 0
163 1 1.2290349142148675 5.061784097071277 6.800215667449855 0 0 0
325 1 1.0773039419067871 7.10862884826575 8.906917351159478 0 0 0
322 1 1.0811394849684648 8.645038279372063 6.886024133975711 0 0 0
296 1 2.9758590461753935 5.467498611620295 8.659242434239625 0 0 0
326 1 2.914459164504852 7.156897674163495 6.90593913891806 0 0 0
67 1 3.197225835348914 5.244671349195726 5.227738613971137 0 0 0
200 1 2.9047057955086233 8.662216667421239 5.098390799233719 0 0 0
327 1 3.316336692252047 8.801410834404521 8.742419433536158 0 0 0
290 1 -0.3797512953565153 4.857985207938015 8.689127551811698 0 0 0
164 1 -0.14798773655094472 5.08127738351476 4.697936746717401 0 0 0
172 1 6.862315513711248 5.336654394047634 4.762004817923281 0 0 0
198 1 4.74293445864912 6.936710995586499 5.015447072023039 0 0 0
204 1 6.951922363957198 8.730712549731592 5.03286661257305 0 0 0
294 1 6.708653870825562 6.309988404994162 6.8408302452110785 0 0 0
199 1 4.685921396183598 5.096575418241379 7.049308172666749 0 0 0
300 1 6.626675713976143 4.808263183107628 8.806797869002152 0 0 0
328 1 5.181852913709513 8.303855097903353 7.0147549622049175 0 0 0
329 1 5.217097279298363 6.955778987016972 9.013974373416591 0 0 0
332 1 7.155093704233098 8.574627646234179 8.452643111698022 0 0 0
304 1 10.936218603536974 4.699686114994039 8.805218820411945 0 0 0
176 1 10.362316153254818 5.223816600822615 5.189398646985547 0 0 0
203 1 8.704620964174762 6.992322706255451 5.007013739093813 0 0 0
298 1 8.736169883635581 5.249754813463094 7.066477598584506 0 0 0
333 1 10.073532321760426 6.922016614415798 6.784619269534621 0 0 0
331 1 8.706112653543999 6.384466651543803 8.95007538626669 0 0 0
208 1 10.566912926130744 8.790640445715455 5.103959145592077 0 0 0
330 1 8.690666202743488 8.857494320842799 6.933264248372319 0 0 0
207 1 11.96664822609547 7.104014677074641 5.101988247816828 0 0 0
334 1 11.5383358468361 8.471362508041352 7.379958831143952 0 0 0
180 1 13.753091719993305 5.305713002449657 4.778116955879432 0 0 0
302 1 12.410625373958778 5.551903154513976 6.943416910965396 0 0 0
335 1 12.276056300159107 6.851352435342624 9.124117907711476 0 0 0
212 1 13.916073808066287 8.882019145487517 4.907906603804915 0 0 0
337 1 13.940263440041011 7.291480345371029 7.211151525413247 0 0 0
340 1 14.119593914166018 8.70504828704285 9.146988019403521 0 0 0
308 1 14.027544345706406 5.216074063936505 8.883583267058507 0 0 0
339 1 16.15907689736874 6.850715617061913 8.433910697240629 0 0 0
306 1 15.656261700999368 5.232385510439329 6.821484089588384 0 0 0
338 1 16.080868031493274 8.670425653640772 6.89724279931095 0 0 0
211 1 16.035441362135735 7.222317641700059 4.915250312524184 0 0 0
215 1 19.463294058625976 6.4874011192967656 4.522498470225309 0 0 0
184 1 17.81589931953635 5.097894357619219 5.142706462203107 0 0 0
341 1 17.93455478028838 6.830633533819056 6.462762921483201 0 0 0
312 1 17.771201690905457 4.738020380737149 8.433910098964022 0 0 0
310 1 19.482515013090655 4.667065252711674 6.7476923234875725 0 0 0
216 1 18.175142289687187 8.512876145024551 4.631970957518126 0 0 0
343 1 19.462276962386106 6.333600332994724 8.399459097601634 0 0 0
342 1 20.024773700667204 8.215217246186906 6.746588819392 0 0 0
344 1 18.191356667820287 8.437912301105829 8.112087362271593 0 0 0
218 1 23.425749984577386 6.593423156522272 5.231919529123363 0 0 0
220 1 21.792650091254572 8.46548018280491 4.995200295099369 0 0 0
316 1 21.58350976891029 5.035754651419736 8.517630990790323 0 0 0
188 1 21.689279595680496 5.106528720061637 4.832099748532321 0 0 0
219 1 23.594866714161874 4.895061150574799 6.583666380997741 0 0 0
345 1 21.511903544841253 6.379491074298018 6.666475260369299 0 0 0
348 1 21.93100429380638 8.364900623742434 8.957815945102658 0 0 0
347 1 23.35550931124726 6.458718515479845 8.656298103920948 0 0 0
346 1 23.525546502223712 8.48675819637101 7.053624558874953 0 0 0
323 1 28.71080349909117 8.90680070091253 8.697419607360885 -1 0 0
223 1 28.245152136209683 8.365058615784566 4.895168957139758 0 0 0
321 1 28.71011926141798 6.70774785007466 6.684241183943869 -1 0 0
196 1 27.013210103672357 6.5042421497905165 4.6439993217860485 -1 0 0
480 1 25.125118605515247 8.366962188185243 8.576137284905094 0 0 0
320 1 25.03277963843729 4.739207535656696 8.778134633699295 0 0 0
192 1 25.118711857933725 4.936536978638715 5.0909101250369915 0 0 0
349 1 25.56764408282052 6.737236053755878 6.9612498258392845 0 0 0
318 1 27.46450022214391 5.041479278014524 6.872365335936911 0 0 0
351 1 27.249584410850773 6.952313664491879 8.727159184909612 0 0 0
255 1 27.23860861364613 8.81175453966251 6.902893145922429 0 0 0
224 1 25.440570154582133 8.731187459824447 4.773106680943158 0 0 0
227 1 1.1467119202487892 10.479632534037801 5.2940585737808235 0 0 0
354 1 1.1130923655095273 12.19615122077434 6.801860491409219 0 0 0
360 1 3.1174185764365165 12.65110048862206 8.683777816212535 0 0 0
232 1 3.119585958594951 12.53701931770809 5.612825269056621 0 0 0
355 1 1.3333753536414235 10.37317081827872 8.54404185331657 0 0 0
357 1 3.202590120032069 10.570357360283012 6.969654533292009 0 0 0
1289 1 6.879424020906127 14.133087016971894 6.9399482659317355 0 0 0
1159 1 4.692939771118889 14.029714192892 5.1720647839339815 0 0 0
236 1 6.5949748121936524 12.243251969161806 5.3455038841428895 0 0 0
231 1 4.974221908033591 10.52420560925138 5.4411360962055175 0 0 0
358 1 4.771347207434649 12.557457206939988 7.236186945351232 0 0 0
361 1 6.934276018858482 10.413828992987366 6.956972803855242 0 0 0
359 1 4.925943260423314 10.324337880960057 8.647682255906311 0 0 0
364 1 6.993983458361408 12.405280914233536 8.486954465685052 0 0 0
1291 1 8.940733394904461 13.655776743431714 8.440131158867592 0 0 0
1163 1 8.87150313623652 13.96832732205144 5.066136671351214 0 0 0
240 1 10.687578481424119 12.295687120365915 4.880950825657337 0 0 0
235 1 8.52254457245361 10.594586781190877 5.035761327799136 0 0 0
362 1 8.94343682229079 11.903986308562297 6.6900638552925615 0 0 0
365 1 10.608343493718047 10.600094397254907 6.562849968886392 0 0 0
368 1 10.606285855018497 12.09400401971915 8.59250002579386 0 0 0
363 1 8.818409660686866 10.586064180660621 8.613497117404869 0 0 0
1293 1 10.825028087845986 13.77062224621136 6.652306114772078 0 0 0
1295 1 12.390157335400563 13.837603611929444 8.583597014975254 0 0 0
1299 1 15.942539821869874 13.88116209956815 8.95341405212584 0 0 0
366 1 13.031528109466823 12.651160614041975 6.473553197018553 0 0 0
244 1 14.53969381544341 12.846603120389528 4.573290580762643 0 0 0
239 1 12.55021559636185 10.79370609877273 5.052990546444077 0 0 0
367 1 12.08695009962581 10.16788509628053 8.922354168617384 0 0 0
369 1 13.846285363953388 9.995696030751327 6.976988635658951 0 0 0
371 1 16.04818674403056 10.305511476802769 8.508306639579361 0 0 0
372 1 14.24779467467884 11.62286422105173 8.804823977620538 0 0 0
370 1 15.334045085521627 11.904471368735434 6.405391471163799 0 0 0
243 1 16.172807104285532 10.269674240736926 4.991814384537747 0 0 0
1171 1 16.453863931100017 14.144407453174187 4.804156832534594 0 0 0
376 1 18.016039239908643 12.097130066260982 8.37476664755178 0 0 0
248 1 18.41157260441505 12.551188225695325 5.2233911448455554 0 0 0
247 1 19.988778936457706 10.019851339105214 5.072446225737539 0 0 0
373 1 17.936189500819886 10.393394378157062 6.681586697530614 0 0 0
375 1 19.72054294018153 10.157014810363176 8.502719234950076 0 0 0
374 1 19.86528407122931 11.842307754336918 6.798334582653549 0 0 0
1301 1 17.777650568096796 14.0649245699208 6.841005709174515 0 0 0
1304 1 19.60054964982232 13.984426719159744 8.324450828953841 0 0 0
1175 1 20.168051532255973 14.046757680717116 5.178911414490167 0 0 0
1307 1 23.659598465565175 14.026880846790512 8.159391522963539 0 0 0
251 1 23.477927052879217 10.266637793967641 5.454888643637764 0 0 0
377 1 21.744262057856098 9.95849243908323 7.016862832150292 0 0 0
378 1 21.45430845754806 11.800581035610222 4.947733896399461 0 0 0
380 1 21.489531398041237 12.0624068411055 8.724967798627244 0 0 0
379 1 23.597808250376275 10.239536279414239 8.677931985893581 0 0 0
1303 1 23.586823345879772 12.33044697910389 6.766504805960956 0 0 0
1179 1 21.513811961111095 13.920633331962037 7.123834997245303 0 0 0
256 1 22.691964173391426 13.811322596398334 4.8336071316102185 0 0 0
1281 1 28.776248613787217 14.057246640168515 6.384537412180841 -1 0 0
1155 1 28.803668781814274 12.457522639615908 5.11249001284046 -1 0 0
356 1 28.722425631558153 12.691413731324658 8.370058548927126 -1 0 0
353 1 28.735510361483627 10.727406087738945 6.791916012866691 -1 0 0
384 1 25.23048458646523 12.475015595104063 9.027044657522945 0 0 0
381 1 24.89874096411151 12.401323434970788 4.776292607300791 0 0 0
324 1 25.159749532245243 10.31048477212572 6.855601988539416 -1 0 0
225 1 27.230865993816558 10.38421968199428 5.242568606108395 -1 0 0
383 1 27.10335178944684 10.890796637439497 8.332396078668639 0 0 0
382 1 26.515199435562664 12.62755544698085 6.783745776407693 0 0 0
387 1 1.367087102420442 -0.3458792787957776 12.290674123324024 0 0 0
386 1 1.6092710503901015 1.0812527554813096 10.338296946519325 0 0 0
419 1 1.4766823053847178 3.152127796792579 12.504020099778995 0 0 0
392 1 2.9017916118501987 1.2612593712671158 12.410558231819635 0 0 0
421 1 2.9720239514996667 3.41429790821637 10.10826237128733 0 0 0
417 1 -0.4117628721367818 3.0684949643321304 10.701043238153625 0 0 0
391 1 4.41231141902029 -0.42626220692464756 11.937952867851187 0 0 0
390 1 4.221276067711717 1.4481282223506546 10.209307845118323 0 0 0
396 1 6.166427714392613 1.193980499129026 12.039464582042857 0 0 0
423 1 4.585722089219229 3.070008292193049 12.09500844068927 0 0 0
425 1 6.2945812160266135 3.10408988852386 10.700515072946002 0 0 0
393 1 6.454384270065739 -0.04235467120205527 9.900010891851073 0 0 0
553 1 6.470496539229058 2.8780948339550445 14.01064919775009 0 0 0
395 1 8.3962598223201 -0.3853548599714721 12.175541306554784 0 0 0
1520 1 10.588633481022386 -0.2914549165048991 10.016410641872051 0 1 0
394 1 8.222351548203703 1.14770070188511 10.346650488543487 0 0 0
400 1 10.331808350597349 1.2943985382031324 11.967411908871961 0 0 0
427 1 8.294891650971646 3.066489294373385 12.238052377239752 0 0 0
429 1 10.272320587800145 3.133697505293021 10.576976295147471 0 0 0
522 1 7.914056600631099 1.1162818459875379 14.073333721440664 0 0 0
557 1 9.97663361035887 2.707629302361612 13.802192205772402 0 0 0
530 1 15.622317657721345 1.351051830523708 14.1289977969798 0 0 0
561 1 13.935705297753996 3.205615162569055 13.989390247743874 0 0 0
431 1 12.311679065458994 2.9683030463388147 11.980909918078302 0 0 0
398 1 12.714038447125567 1.3662536937332435 10.314390104110478 0 0 0
404 1 14.235119621832586 1.446539754995354 12.118058167077296 0 0 0
433 1 14.766898532570155 3.1516120277707858 10.034976572190663 0 0 0
402 1 15.985462475440029 1.4640651814785257 10.255251282072786 0 0 0
435 1 15.981966187615031 3.0942231386023704 11.94029775757052 0 0 0
526 1 12.130852428871375 1.3674099009006726 13.82848254018038 0 0 0
403 1 16.090022964484902 -0.33321093804907775 12.177624789743213 0 0 0
399 1 12.108584960996172 -0.42006642572193725 12.199699096730669 0 0 0
566 1 19.833543631439753 4.3044052145983684 13.679072006269335 0 0 0
565 1 17.62628849097557 2.756191006964138 13.831296738093787 0 0 0
534 1 20.09332941057513 1.8761399140030925 13.984658976799702 0 0 0
405 1 17.986025761762846 -0.45434279969876457 10.762705142705096 0 0 0
408 1 17.83759596551119 1.405746273338224 12.134009438683846 0 0 0
437 1 17.78341656813734 3.0654055956018724 10.228259809666355 0 0 0
439 1 20.134061618788877 3.2586832851623893 11.82174448540636 0 0 0
406 1 19.877779410998933 1.3537681083630886 10.155600278716795 0 0 0
407 1 19.85868152713963 0.2504017428507527 12.42869560805487 0 0 0
409 1 21.858296390428897 -0.3863183259829522 10.19892656365469 0 0 0
410 1 23.542013535245573 1.3475033913824028 10.136231017549775 0 0 0
412 1 21.854418194858766 1.843477721312837 12.116092261428399 0 0 0
441 1 21.894437233017356 3.526604491438687 10.11509050714342 0 0 0
443 1 23.49650998207126 3.3060866389790853 12.51500252910281 0 0 0
411 1 23.990969979060942 -0.1666530779647427 11.796632983536842 0 0 0
537 1 21.685875045931674 -0.48559727442867956 13.67016832294126 0 0 0
538 1 23.902838589158577 1.2257628664880644 13.93181816507426 0 0 0
513 1 28.827270129748584 -0.40150651280349337 13.97246851523458 -1 0 0
388 1 28.818881070647667 1.3698250312425617 12.325123913015336 -1 0 0
416 1 25.874420661049278 1.5676152814898816 12.300540316949373 0 0 0
445 1 25.37554023463973 3.10353314538425 10.661717245609205 0 0 0
414 1 27.163256306606534 1.65519688353612 10.377102973463943 0 0 0
447 1 27.322732023659917 3.3447824294008175 12.71750766476885 0 0 0
413 1 25.557085462140023 -0.19897477338384945 10.029617157752408 0 0 0
573 1 25.344506473699518 3.0537538533681077 13.906920453654275 0 0 0
546 1 1.119911597116037 5.122855798528565 14.093241450050664 0 0 0
581 1 3.19651097477763 6.917066464036395 13.721427720835917 0 0 0
418 1 1.4618207191297008 4.975202632279699 10.247594531205978 0 0 0
451 1 1.4360878160538961 6.825616122261913 12.02028421253604 0 0 0
450 1 1.0037332115503295 8.6651685915531 10.572345236202793 0 0 0
453 1 3.301919789347832 7.030764966684812 10.43438291580882 0 0 0
424 1 3.2249388151852685 5.011323736025734 12.406531711808764 0 0 0
456 1 3.1315471155514545 9.181520393378971 11.905439467632272 0 0 0
478 1 -0.33099508284019663 8.662892982056903 12.201572460627158 1 0 0
449 1 -0.35010578992514496 6.731303293119342 10.5639551828761 0 0 0
420 1 -0.19333906913079346 5.023023913768119 12.157432500928309 0 0 0
428 1 6.405390822107011 4.77023744779899 12.27088662624992 0 0 0
422 1 4.784331495952889 5.370542304933388 10.508846595149718 0 0 0
455 1 5.236282968855432 6.748923782260549 12.179149535821896 0 0 0