LAMMPS data file via write_data, version 29 Oct 2020, timestep = 300000

2048 atoms
1 atom types

-0.26302529088874493 28.615025290887793 xlo xhi
-0.26302529088874493 28.615025290887793 ylo yhi
-0.26302529088874493 28.615025290887793 zlo zhi

Masses

1 58.933

Atoms # atomic

8 1 3.1316212585964087 1.7329218288032364 1.3927492242750257 0 0 0
35 1 1.450397059872813 3.595977753771944 1.2176394325075106 0 0 0
130 1 1.6397893897959173 1.4919705283360636 3.2027016840182316 0 0 0
165 1 3.33565433495592 3.4318716597359336 3.170717929241745 0 0 0
1037 1 10.415297504865313 14.115597167549984 -0.17600608930713607 0 0 0
637 1 25.094149941056166 10.550221809066619 14.060346336283004 0 0 0
606 1 26.866393633020163 8.506090320464505 14.134531274581153 0 0 0
1047 1 20.04119081710326 13.848055147730683 1.7286709221385004 0 0 0
141 1 10.597438744793585 -0.20370241489174473 3.2990108416832498 0 0 0
1025 1 -0.22371815064613731 14.06169060429624 0.17221295512060758 0 0 0
12 1 6.890036421475721 1.625963837993129 1.6391923016784666 0 0 0
39 1 5.197045537530397 3.500108913069201 1.4947846146798909 0 0 0
134 1 5.171104793039811 1.5802677909443035 3.24112764846576 0 0 0
169 1 7.1602751755033 3.41810166105448 3.22325683466717 0 0 0
401 1 14.242827735900267 -0.22699001318408085 10.872954904685693 0 0 0
513 1 28.49368949678933 -0.1926695710191808 14.014900570667907 -1 0 0
16 1 10.815449949845519 1.410893350498481 1.375914125438148 0 0 0
43 1 8.797490779465088 3.363118022270891 1.5877461578586258 0 0 0
138 1 8.811149959384066 1.5546739743438327 3.292766138711602 0 0 0
173 1 10.671760576110945 3.4336983402042938 3.124670830485474 0 0 0
484 1 -0.12308214427342179 12.238689135210043 12.376790263798792 0 0 0
3 1 1.6038520662634626 -0.1869078379500948 1.5310184664089428 0 0 0
47 1 12.15169115050184 3.521873798785342 1.3026105209868513 0 0 0
142 1 12.426017528704909 1.850150417631009 3.2446185449039793 0 0 0
20 1 14.017766456294774 1.737140387508156 1.3952272890477582 0 0 0
177 1 14.019688080857488 3.605916234093452 3.323729883656545 0 0 0
51 1 15.948532828780838 3.638864894631972 1.5771582350428954 0 0 0
146 1 16.074741479605756 1.6668902832545678 3.152900938927195 0 0 0
1031 1 5.0444060772086905 14.123883689286785 1.646588254853984 0 0 0
118 1 19.5228924491739 12.335273988149012 -0.20326077253441016 0 0 0
287 1 26.725973395499928 -0.04766588692138651 8.71002877423366 0 0 0
24 1 17.64123197402992 1.6975143717291523 1.621023336320295 0 0 0
55 1 19.518543282511587 3.5570689456698985 1.5787154177060818 0 0 0
150 1 19.36397964676959 1.7005877375758998 3.414308118063973 0 0 0
181 1 17.762702318484543 3.4282019725108412 3.5103548836821528 0 0 0
28 1 21.115987166613092 1.4403711480642916 1.7628892688211395 0 0 0
59 1 22.99271733249563 2.9208225155662904 1.5402404921394488 0 0 0
154 1 23.014134744907217 1.3483954216463307 3.3648184011704907 0 0 0
185 1 21.474591857704986 3.4562174383075 3.3477860018641388 0 0 0
509 1 25.124896998446804 10.641708453025812 10.471531736049684 0 0 0
161 1 -0.16449791060502506 3.234811147363776 3.0872027364627552 0 0 0
4 1 28.416688876084258 1.4120753175546696 1.4877325074983072 -1 0 0
32 1 24.757008785062162 1.3346342979415344 1.5665573885495714 0 0 0
189 1 24.990315036436414 3.190383706107586 3.0595541793530554 0 0 0
63 1 26.725326216123754 3.1000702846621486 1.3709253640959942 0 0 0
158 1 26.81798562881547 1.474293331570422 3.2898586261257887 0 0 0
66 1 1.731592191377525 8.762484606742097 0.040512008287334034 0 0 0
263 1 4.732319449576254 0.04284935560598058 8.737637505505747 0 0 0
1423 1 12.21604814697621 14.016068617833293 12.204768646951281 0 0 0
40 1 3.3453628566594187 5.187288473053516 1.5710544395376052 0 0 0
67 1 1.7093570199805366 6.875951686053652 1.6914517099223447 0 0 0
162 1 1.4989427396486388 5.020418285914598 3.4141741532526466 0 0 0
194 1 1.4149693215560435 8.66173109400169 3.393335353332018 0 0 0
197 1 3.3191792927304804 6.967141595905715 3.4485216372700447 0 0 0
72 1 3.4025770525035908 8.782991318433977 1.8040002675115767 0 0 0
193 1 28.47807173095525 7.030005437550605 3.308538546967728 -1 0 0
1153 1 28.572925945650663 14.173814647538517 3.293394685648807 -1 0 0
15 1 12.45831878646265 -0.21017529778709232 1.5455224597457229 0 0 0
44 1 6.837949645315782 5.307853656495083 1.399715862376908 0 0 0
71 1 4.8479656022364415 6.681514903721356 1.5384434746091888 0 0 0
76 1 6.774334659773969 8.682338441513433 1.6620404191241787 0 0 0
166 1 5.244144214223666 4.999141710618305 3.5718088482550865 0 0 0
198 1 5.136533319783096 8.528510220172281 3.23506345061594 0 0 0
201 1 6.945592335028349 7.023894331023133 3.470704920340744 0 0 0
129 1 28.497847688048417 -0.12950636868510657 3.356748864169728 -1 0 0
126 1 26.779533276569452 12.500561682607382 -0.16159406598981785 0 0 0
48 1 10.580814750032477 5.418230533378857 1.4697400906990472 0 0 0
75 1 8.62352740360873 6.917238182168244 1.701807656187247 0 0 0
80 1 10.525808076484951 8.665450348599228 1.3711340879414882 0 0 0
170 1 8.976788362370824 5.174715963479978 3.2710130441823386 0 0 0
202 1 8.840293695201426 8.617477310636708 3.321444335271329 0 0 0
205 1 10.677226447041566 7.055885024356094 3.0075146931848487 0 0 0
86 1 19.62158563312003 9.074733157163813 0.02846709106810852 0 0 0
174 1 12.398726294757203 5.310819199202433 3.132918695678312 0 0 0
79 1 12.500029836426348 7.186927680437778 1.5136144203855182 0 0 0
206 1 12.290661814608201 8.661538065694735 3.26084693160378 0 0 0
52 1 14.221794951126764 5.545076038561192 1.484573546936817 0 0 0
84 1 14.487188677368016 8.88548431998036 1.5417847508236613 0 0 0
209 1 14.197715656750916 7.196199944994285 3.3481972440266845 0 0 0
83 1 15.959973511881877 7.125960449111484 1.4694746945717578 0 0 0
178 1 16.051170616493195 5.264876423988034 3.582743379338644 0 0 0
210 1 16.063039570433045 8.721818480029341 3.3097515004273057 0 0 0
56 1 17.826362524299505 5.5838111065907166 1.6896349818133447 0 0 0
87 1 19.81615985138355 7.127928564439716 1.5983454980925464 0 0 0
182 1 19.668336723179745 5.62855202831269 3.4507242094784094 0 0 0
213 1 17.935032345607723 6.921138354042585 3.503769715846297 0 0 0
214 1 19.839625070127816 8.687669283901855 3.4064038250674624 0 0 0
88 1 17.9365170955618 8.999990290521273 1.6484896741682111 0 0 0
65 1 28.572403458956686 6.845672490405846 0.0028750205828083075 -1 0 0
1165 1 10.520392532291972 14.161967520081578 3.379554632517424 0 0 0
60 1 21.638779996874014 4.807936532002713 1.3384269885237357 0 0 0
91 1 22.97045950794422 7.020880788670703 1.3036928024794336 0 0 0
92 1 21.279954268683667 9.08299263873327 1.5153349523255004 0 0 0
186 1 23.183470491318158 5.066407224235742 3.16528611955988 0 0 0
217 1 21.54068011487249 7.009795970237633 3.03621433649848 0 0 0
218 1 23.085013128463935 8.96850050769247 3.3316976946355426 0 0 0
1027 1 1.8542117063164123 13.957078672743139 1.648314002030373 0 0 0
36 1 28.543665394079294 5.14683395444224 1.4457145261662445 -1 0 0
68 1 -0.2491037762663808 8.626807737471225 1.6093776283423025 0 0 0
96 1 24.701418546927048 8.709528285484923 1.3445257713746088 0 0 0
221 1 24.742267594466508 7.089550958215842 3.2863114151112645 0 0 0
64 1 24.788301876006177 4.724108998030073 1.15310685163295 0 0 0
95 1 26.566456412706273 6.90241053550799 1.4928441445765062 0 0 0
190 1 26.446867887299113 5.072406171166292 3.0595862530330713 0 0 0
222 1 26.653493792577034 8.520920942696762 3.324235675961365 0 0 0
283 1 23.10840187097249 -0.14416801746617705 8.363471388219613 0 0 0
99 1 1.579137561170518 10.515302558216446 1.7106470350680352 0 0 0
226 1 1.5801479303467032 12.283792512502377 3.3955272276744792 0 0 0
229 1 3.3640982761009126 10.443192075687866 3.3862188352314484 0 0 0
104 1 3.4446476239442405 12.158460968765786 1.6972923289538786 0 0 0
100 1 -0.24324558536173058 12.269536277225052 1.7745186595071645 0 0 0
510 1 27.051892437178182 12.196249974470279 10.522499042355449 0 0 0
110 1 12.689592316379745 12.275335603454954 -0.13191260284212197 0 0 0
511 1 26.75923730348801 10.52681750133033 12.481026982664241 0 0 0
225 1 28.591031935973238 10.492896249817434 3.2508205464666373 -1 0 0
1439 1 26.755022038141625 14.16010866335575 12.505877947861643 0 0 0
74 1 8.518606980850498 8.645536312484381 -0.10473842235291467 0 0 0
1029 1 3.3485163769125985 13.978320229271066 -0.052564331339311904 0 0 0
2 1 1.3956858983212073 1.4268343228362161 -0.2369932733784608 0 0 0
103 1 5.174293351547761 10.551081946353413 1.4990285987044318 0 0 0
108 1 7.11604451301223 12.612564153046392 1.4301378588096063 0 0 0
230 1 5.509020717172192 12.225962762090754 3.3269954452096697 0 0 0
233 1 7.199914733843191 10.293232120722227 3.504578013446824 0 0 0
98 1 1.2586662698042679 12.067741298169539 0.13898263284279072 0 0 0
107 1 8.775545453211334 10.513528854976515 1.4394220779188862 0 0 0
112 1 10.435157239787657 12.391708414918423 1.55947449481365 0 0 0
234 1 8.897774948326429 12.302434602992081 3.2980187437273423 0 0 0
237 1 10.406730685608578 10.41647712198842 3.181873635523551 0 0 0
512 1 24.862916463966393 12.33410616190448 12.499473745672404 0 0 0
407 1 19.430819745113354 -0.14589112326791565 12.442871463136532 0 0 0
605 1 24.924245840197802 6.9483031831482185 14.06480237270369 0 0 0
238 1 12.243148479992078 12.173996359656199 3.121358466507055 0 0 0
111 1 12.558046471472965 10.377718325951268 1.547351787157421 0 0 0
116 1 14.243540851152465 12.226550656649977 1.6155978719342519 0 0 0
241 1 14.243237382026567 10.28427587802708 3.2869086981080806 0 0 0
115 1 16.17936290438778 10.537117320635222 1.5720190804060068 0 0 0
1537 1 28.546769294485333 13.986553915944382 14.145916411296964 -1 0 0
399 1 12.379049338084934 -0.12214161025037568 12.40760081707805 0 0 0
42 1 8.787060863103369 5.056203039433553 -0.17996149975327758 0 0 0
409 1 21.359848475524508 0.07696689159219261 10.424805461567937 0 0 0
285 1 25.094880790183648 -0.039122425982043574 6.954448038269888 0 0 0
242 1 16.01067899358509 12.15327035438394 3.2295353765136254 0 0 0
119 1 19.720673942894734 10.86237914579566 1.5266809289127992 0 0 0
120 1 17.939384641606022 12.316501091884144 1.6988693789197733 0 0 0
245 1 17.91092438759166 10.294601768933305 3.6134306686452127 0 0 0
246 1 19.40732726311698 12.521631002137774 3.489731928938525 0 0 0
1173 1 17.648915188167845 14.033516819655738 3.2381940470177946 0 0 0
54 1 19.814187993154107 5.0924677832195 -0.018341067343859818 0 0 0
537 1 21.36033672701534 -0.2047233730545095 14.043262525072066 0 0 0
1431 1 19.734912056970813 14.041803098946703 12.439559586095333 0 0 0
123 1 23.220241540079446 10.849196230988474 1.3485657594848377 0 0 0
124 1 21.610766807194917 12.235307226020813 1.4880084049554831 0 0 0
249 1 21.229060642252726 10.455184409290661 3.5021843202413385 0 0 0
250 1 23.249374579236232 12.645888253243672 3.1246021556287515 0 0 0
601 1 21.35014394590198 6.660025737536475 14.148561410892938 0 0 0
505 1 21.28201585642947 10.503976553498218 10.669485288438993 0 0 0
1429 1 17.892470869724278 14.150312965549116 10.719504698088565 0 0 0
1309 1 25.07069378597593 14.101985106530188 6.841117178051961 0 0 0
128 1 24.86079383080451 12.558276657991312 1.3693250930327376 0 0 0
253 1 24.91584691589253 10.483639324725585 3.0931416980432327 0 0 0
127 1 26.93640782044432 10.474708786587724 1.4729818592335673 0 0 0
254 1 26.39932181655531 12.528681766632001 3.348859626999798 0 0 0
1299 1 16.030828067429276 14.072188793954146 9.151061903028978 0 0 0
135 1 5.012460674567772 -0.16031594070479827 4.901655702476255 0 0 0
590 1 12.39141326754333 8.618896066746569 13.946682670050984 0 0 0
506 1 23.243060245199093 12.254722192094661 10.589842231852526 0 0 0
136 1 3.3168797716415774 1.7664008176596098 4.913612862079016 0 0 0
163 1 1.4336115336610786 3.173687869988497 5.089625997043394 0 0 0
258 1 1.6325215013637675 1.6791319341774587 6.948955388142604 0 0 0
264 1 3.140452945712448 1.7029820370336952 8.877971777889277 0 0 0
291 1 1.422276625485646 3.345080728509403 8.7891022316457 0 0 0
293 1 3.190952194502524 3.3910598057515027 6.691114429225169 0 0 0
289 1 28.396581655463784 3.2175663617091255 6.931104523264465 -1 0 0
507 1 23.15518944064661 10.601066823715977 12.191220316100436 0 0 0
102 1 5.233683481078764 12.372538116673761 -0.16005458907120734 0 0 0
140 1 6.871878317802292 1.474855822020038 5.185738857521635 0 0 0
167 1 5.181850590261918 3.3097854659523325 5.023863840780289 0 0 0
262 1 5.374058317603155 1.5438243958027038 7.052643302837973 0 0 0
268 1 6.739368995618821 1.8093242846669222 8.94611413324799 0 0 0
295 1 5.006447384168186 3.408909261246436 8.524780812360268 0 0 0
297 1 7.168188800141866 3.399424883613954 6.997913148105553 0 0 0
1183 1 26.862716517590513 14.065218856816783 5.139010128564634 0 0 0
508 1 21.43214776029668 12.420654595974938 12.131598908600727 0 0 0
1433 1 21.664202728998106 14.106669108668942 10.569234505393874 0 0 0
1035 1 8.827063309772834 14.174169354189681 1.5075114505870353 0 0 0
171 1 8.807733377973303 3.4753528082051575 5.177911688689345 0 0 0
144 1 10.454853543078874 1.5761435874482048 4.996968247250687 0 0 0
266 1 8.844128537150683 1.647349904741868 7.152323533849918 0 0 0
272 1 10.677992871056151 1.098435388173466 9.05169970380695 0 0 0
299 1 8.835606795616743 3.104441649976614 8.809306406118184 0 0 0
301 1 10.38603472834447 3.40350464768595 6.900563283074297 0 0 0
1157 1 3.404595575386615 13.989336782160331 3.4750339559958343 0 0 0
303 1 12.219480020142939 3.4131440127658967 8.55116036990139 0 0 0
175 1 12.344674436870525 3.414957752076346 5.118413145362389 0 0 0
270 1 12.293597403608873 1.5432876982987525 7.028169027243215 0 0 0
148 1 14.22083280002201 1.5957201961209717 4.87077161074211 0 0 0
276 1 13.982018753040343 1.821969635997279 8.659068824130491 0 0 0
305 1 14.297740333343025 3.654212797655139 6.717308090760616 0 0 0
274 1 15.98443134574703 1.2487718035190196 7.180537541054291 0 0 0
307 1 15.91429037172869 3.2759682576945433 8.680584758008346 0 0 0
179 1 15.78273570608092 3.3982621394994803 5.037626927021973 0 0 0
625 1 14.1349712077222 10.864759701805715 13.949543037098808 0 0 0
1301 1 17.563217435554495 13.951539998413095 7.141261663535486 0 0 0
152 1 17.77982475045141 1.449162033843551 5.158733036083604 0 0 0
183 1 19.660304753306054 3.42862525674817 5.012916584020183 0 0 0
278 1 19.576130033633813 1.4440611620903951 6.95602087615945 0 0 0
309 1 17.45444976596449 3.1003876984585834 6.746240117828141 0 0 0
280 1 17.70245526110858 1.5268973550608171 8.387055217295076 0 0 0
311 1 19.506548542897022 3.469227179179564 8.561040558856437 0 0 0
1159 1 5.233117768181974 14.153867129638858 5.191468183472916 0 0 0
57 1 21.48373425403511 2.866840428336598 -0.1419623038526648 0 0 0
156 1 21.150577601301613 1.4963259499110992 5.019805674489345 0 0 0
187 1 23.216378256090138 3.496469917011254 4.965329336752494 0 0 0
282 1 23.14446896666292 1.51933316392065 6.387426771574285 0 0 0
284 1 21.461372862511283 1.5643829018259057 8.5670980897349 0 0 0
313 1 21.39994029344995 3.37342347098224 6.757623981635032 0 0 0
315 1 23.173214313016523 3.1645016221434834 8.446022455465888 0 0 0
260 1 28.609165246334072 1.2441267919575523 8.554200521361212 -1 0 0
132 1 -0.11130245368229816 1.3252679937727654 5.068516572261069 0 0 0
191 1 26.671917710272783 3.500138070241411 4.9419767923121976 0 0 0
160 1 24.88405294539099 1.6814612766641317 4.943145306780502 0 0 0
286 1 26.887362265138087 1.4790130274458673 6.485939314729648 0 0 0
288 1 25.007721429436803 1.5905965857673032 8.425310019897504 0 0 0
317 1 24.905084383205562 3.4591911552148664 6.7127103582474446 0 0 0
319 1 26.74168172152048 3.117210632747442 8.801160566542618 0 0 0
1411 1 1.7027432791405899 13.910125199470547 12.324703247825969 0 0 0
296 1 3.2431673200802567 5.245766924762614 8.77790299161226 0 0 0
195 1 1.350069821509811 6.932893123855422 5.249696012909492 0 0 0
290 1 1.63038215145109 4.970392547849172 6.942093107735766 0 0 0
322 1 1.4699092212167695 8.622526611379667 7.143675579281921 0 0 0
325 1 3.3367852586812634 6.67190491060695 6.603309393053268 0 0 0
323 1 1.5171781455135194 7.067560164880604 8.758076800463535 0 0 0
200 1 3.4058455561892846 8.701280224386057 5.220560457479811 0 0 0
328 1 3.4380579018695245 8.670348348400292 8.824731748459527 0 0 0
168 1 3.418007014163153 5.066245511760918 5.040056419471839 0 0 0
292 1 28.55241681435621 5.130094763749412 8.826880613226985 -1 0 0
164 1 -0.12440408351304555 5.046090279320988 5.299966018840602 0 0 0
324 1 28.583007346892597 8.949561356532369 8.838783306036529 -1 0 0
321 1 28.434750718479787 7.003240450139914 6.821670358961267 -1 0 0
196 1 28.2199716686702 8.898823464624982 5.127356260393492 -1 0 0
172 1 7.131487028531034 5.234076507346786 5.048691269680512 0 0 0
199 1 4.99500664428808 6.841205602579875 5.13405419777266 0 0 0
204 1 6.800809551242201 8.666983077917711 5.094826983065732 0 0 0
294 1 5.108732072896311 5.014680804529223 6.810485468936145 0 0 0
300 1 6.865540470309511 5.011271172126175 8.909022093914569 0 0 0
327 1 5.045329954858279 6.858819770023437 8.605256011735877 0 0 0
329 1 6.834130038462644 6.8816348192496415 6.761244440412524 0 0 0
332 1 6.740220617076397 8.592403140853598 8.801432377688595 0 0 0
326 1 5.294753706131792 8.659428312829958 7.125191435253798 0 0 0
304 1 10.58688248560086 5.101786384900187 8.741388700417547 0 0 0
176 1 10.757370814521876 5.249354755802933 4.868726318253574 0 0 0
203 1 8.777086115957998 6.781672502429884 4.963265180963411 0 0 0
208 1 10.660653695281505 8.82296005060368 5.034627251375874 0 0 0
298 1 8.825868780715647 5.334635002127366 7.0156471632837 0 0 0
331 1 8.849753832035864 6.842973467543967 9.043218158927724 0 0 0
333 1 10.4870912220504 7.152866834462486 6.782571454241319 0 0 0
336 1 10.400903172370054 8.689730823954685 8.759013466764808 0 0 0
330 1 8.63763806241228 8.690501331389664 6.72686816421469 0 0 0
207 1 12.443020372746265 6.957108031125178 4.936549738077784 0 0 0
334 1 12.336331929613124 8.670714431366923 6.669651712887531 0 0 0
335 1 12.003719185800946 6.767196463148121 8.730452947474092 0 0 0
302 1 12.228706218262275 5.092134702617814 6.794508902690154 0 0 0
180 1 14.421639701461176 5.4482290983349655 5.00913200976693 0 0 0
212 1 14.094494471738733 8.683856381535568 5.214811900752109 0 0 0
308 1 14.075264941651296 5.154291022324974 8.455113019987007 0 0 0
337 1 14.034527428752845 6.976116954218489 7.020570711528187 0 0 0
340 1 14.117112251728512 8.545707947344047 8.531721466955121 0 0 0
338 1 15.964280413105698 8.706002709711262 7.000057315664314 0 0 0
306 1 16.25097812302691 5.214892603994041 6.905930735158605 0 0 0
211 1 16.238793087349435 7.114405770824898 5.257988371157217 0 0 0
339 1 15.99009016507734 7.01589617188716 8.685953411423373 0 0 0
184 1 17.886333163629917 5.376884080391147 5.01808214335358 0 0 0
216 1 17.875462703000313 8.726863841076348 5.27627103452554 0 0 0
310 1 19.343293265207492 5.087386749463026 6.739179811013224 0 0 0
215 1 19.719433223649872 7.149495381952307 5.173795396225169 0 0 0
312 1 17.680236092468007 5.090518505220868 8.915354576429413 0 0 0
341 1 17.987293349872672 6.944542406322318 7.042895635266043 0 0 0
343 1 19.539300936177387 6.730446068475379 8.886700237808453 0 0 0
344 1 17.94515801733178 8.523579768085503 8.819104235168439 0 0 0
342 1 19.681959249227653 8.933654015973003 7.018557061629179 0 0 0
188 1 21.564746323090684 5.094618075559983 5.129483184420863 0 0 0
219 1 23.10220221882441 6.859598213485434 5.197885222471029 0 0 0
314 1 23.131003055663232 5.322893708277891 6.914418360964986 0 0 0
316 1 21.60843486610546 4.810885353787502 8.702232257429952 0 0 0
345 1 21.241558066482522 6.917992054948672 6.88026975627637 0 0 0
347 1 23.053672840965 6.962449457933079 8.753562008531658 0 0 0
348 1 21.03710932621915 8.715244582248799 9.01044130688228 0 0 0
220 1 21.440262445429585 9.02548236371474 5.466831558771567 0 0 0
346 1 22.700136286192745 9.204349345034617 7.346195259342899 0 0 0
320 1 24.728862155041455 5.191298268721449 8.720291766737473 0 0 0
192 1 25.019684177466612 5.17735507857603 5.045455743965849 0 0 0
224 1 25.037220406471175 8.78639881075933 5.280131285755916 0 0 0
349 1 25.19540518623887 6.870445214605742 6.972378959582971 0 0 0
223 1 26.51224773931326 6.973790920090375 4.93678612951049 0 0 0
318 1 26.84614576652567 5.123741027465854 7.223563798037069 0 0 0
350 1 26.799020377441707 8.662502307693815 6.895894434981476 0 0 0
351 1 26.648054407178197 6.841518679443678 8.968546890637864 0 0 0
352 1 25.13166035260241 8.873572458093994 8.735271456553868 0 0 0
232 1 3.5098331583100157 12.253613455698728 5.041937451128717 0 0 0
227 1 1.7633163027278695 10.548285353780962 5.018174749657193 0 0 0
354 1 1.766302752138139 12.369727043613066 6.466236008827253 0 0 0
355 1 1.757838607838146 10.667505914155575 8.891567532405338 0 0 0
357 1 3.3222155509196694 10.543254572712279 6.922846980145016 0 0 0
360 1 3.459527523988916 12.340027020966977 8.591895452155669 0 0 0
228 1 28.50573472935011 12.354243998961943 5.071774020642936 -1 0 0
353 1 -0.09662758752179806 10.919986930240592 6.808460430642499 0 0 0
231 1 5.2814413952947765 10.303315672436112 5.084147264157242 0 0 0
236 1 7.0160272495379665 12.106797722229887 5.52381425901202 0 0 0
358 1 5.161153653795061 12.185500727033675 6.948126155387845 0 0 0
359 1 5.1018411883277155 10.436129791786847 8.809797877083678 0 0 0
361 1 6.941562649156807 10.14649765886391 6.998495328897573 0 0 0
364 1 6.963755829747213 12.395343024878624 8.803115270904536 0 0 0
235 1 8.814569904472801 10.398304559333388 5.174160940570897 0 0 0
240 1 10.444152895861796 11.993333864442679 5.141130797407434 0 0 0
362 1 8.598202906994116 12.598333387691289 6.875581180064432 0 0 0
363 1 8.578615344723536 10.52109588629192 8.555934942707715 0 0 0
365 1 10.557630162564458 10.498780973279885 6.9808074162960905 0 0 0
368 1 10.1263828825591 12.569588593810174 8.857215232792925 0 0 0
53 1 17.67145529211318 3.634295791373482 -0.19864522832656817 0 0 0
503 1 19.52333622457604 10.447432477352235 12.354256440499512 0 0 0
487 1 5.076191797488482 10.315404020801985 12.4248177691323 0 0 0
239 1 12.27547014011843 10.389035119640752 5.135059171732138 0 0 0
366 1 12.337227702324029 12.26284620860923 6.858031990098884 0 0 0
367 1 12.240546362636962 10.572845319219963 8.820068726735203 0 0 0
244 1 13.948306837616876 12.111383980723975 4.871378915799386 0 0 0
369 1 14.160263957602337 10.543314048718486 6.792907661770774 0 0 0
372 1 14.199730089646684 12.016999889431005 8.860281483066153 0 0 0
370 1 15.889445420314377 12.000588815335282 6.709840023612485 0 0 0
371 1 15.727047132016864 10.31498783115955 8.69393226563111 0 0 0
243 1 16.002101467403712 10.37803680054197 4.957813404425639 0 0 0
489 1 6.801804784232061 10.459099804177487 10.473362641392885 0 0 0
504 1 17.99010438426716 12.238471834399705 12.406216406110746 0 0 0
247 1 19.679918083982418 10.540994983791663 5.443106020298399 0 0 0
248 1 17.89717229035115 12.20832168641755 5.141177817438685 0 0 0
373 1 17.667458722254164 10.551646906588987 6.985381211970045 0 0 0
374 1 19.42188144951048 12.51202439573936 7.192314126401589 0 0 0
375 1 19.548340972665148 10.645470792340621 8.706350769400968 0 0 0
376 1 17.496433138155467 12.232637570061952 8.924376388690082 0 0 0
502 1 19.60157288717191 12.671506944409476 10.267288724156858 0 0 0
501 1 17.882620574291987 10.463276014319618 10.469312315461536 0 0 0
251 1 23.176869821907832 10.665283085759455 4.8976007237968675 0 0 0
252 1 21.219960143859886 12.318509675769382 5.143604160229863 0 0 0
377 1 21.376555643003776 11.065307141116675 7.09353865611126 0 0 0
378 1 23.161216314760235 12.54885352592028 7.0650582621346825 0 0 0
379 1 23.04497277830217 10.610389884940112 9.024612760343691 0 0 0
380 1 21.432471195198943 12.55163358269676 8.856969782888358 0 0 0
1421 1 10.460418305838791 14.126983549845376 10.56009392371143 0 0 0
486 1 5.085233246898275 12.331691193510974 10.493426372298028 0 0 0
492 1 6.778924927319264 12.243770410018728 12.423476469452469 0 0 0
411 1 23.166476649894037 -0.05947916468835146 12.155346633242065 0 0 0
356 1 -0.12088137882085542 12.523218818211687 8.595135376951548 0 0 0
256 1 24.849718867411227 12.201552180649156 5.299319702228587 0 0 0
255 1 26.561822351678 10.56897858692175 4.800727677932979 0 0 0
381 1 24.90065404074355 10.491456873583818 6.950943218716234 0 0 0
382 1 26.820075358425708 12.274695621833136 7.062137648130919 0 0 0
383 1 27.046686163887202 10.615025658594943 8.637809139316806 0 0 0
384 1 25.178315880008483 12.183965579177453 8.757549611800307 0 0 0
1415 1 5.3009012839071925 13.85937208694627 12.611750574025631 0 0 0
143 1 12.244647370051277 -0.14173688946758295 5.1868647211345404 0 0 0
493 1 10.443699982206933 10.371249740603785 10.571230502824138 0 0 0
386 1 1.4808352745031077 1.2567640264815596 10.465541639916301 0 0 0
419 1 1.4455977325311782 3.6930666969341264 12.247524786244444 0 0 0
392 1 3.1973644359810556 1.7343774997603725 12.2077325052557 0 0 0
421 1 3.2066053845205973 3.4464452028396915 10.542571487877213 0 0 0
500 1 14.197889549863854 12.079588045767059 12.147193758811955 0 0 0
1155 1 1.563649378683072 14.083767580678673 4.986293042019401 0 0 0
390 1 5.070991235186698 1.6405489970459934 10.578580863918946 0 0 0
396 1 6.727040764511068 1.8064603131482198 12.426859752238904 0 0 0
423 1 5.0991683005571025 3.4259577463786566 12.37199399158078 0 0 0
425 1 6.877140777002538 3.404384627322055 10.508946650518295 0 0 0
1295 1 12.303252218162015 13.940339646944182 8.77209361991337 0 0 0
394 1 8.646287061750506 1.678177452431033 10.835946430677541 0 0 0
400 1 10.59651960881487 1.637483017688729 12.025761617921887 0 0 0
427 1 8.69428661800819 3.3364609108370633 12.458925268616776 0 0 0
429 1 10.652784181507197 3.2194609908915677 10.435644259267377 0 0 0
499 1 15.979740879437998 10.334536430416932 12.143106495843972 0 0 0
431 1 12.423367997923519 3.3882703492985984 12.520019007836007 0 0 0
398 1 12.641841462497457 1.5847524832960878 10.53834304907085 0 0 0
404 1 14.19091344709568 1.5955688519083782 12.344020515783736 0 0 0
433 1 14.059244740760517 3.3645164318026826 10.561566028483105 0 0 0
402 1 15.97681822293773 1.5568325638645968 10.489960580405342 0 0 0
435 1 15.922542267721244 3.264598787464986 12.377068754055077 0 0 0
7 1 4.843820846884316 -0.1084889433258325 1.4678159232132002 0 0 0
494 1 12.333972452098779 12.420294682175095 10.50049916920984 0 0 0
406 1 19.18656821637234 1.6631938994301303 10.400485803928184 0 0 0
408 1 17.409710177036175 1.3679331842839366 12.235920512027322 0 0 0
437 1 17.65777287686947 3.1948795307794318 10.538130241447305 0 0 0
439 1 19.61301877626345 3.2951187810988314 12.219507505425664 0 0 0
391 1 5.099026621963724 0.11108263918803019 12.174230598955825 0 0 0
133 1 3.299002333887292 -0.1858093529849641 3.2400703352538875 0 0 0
410 1 23.470086446908695 1.42444764731336 10.197029427296872 0 0 0
412 1 21.292811935235413 1.622780960436161 12.320964998388147 0 0 0
441 1 21.312064953116717 3.1040778620239218 10.372117909970157 0 0 0
443 1 23.053728144878754 3.351196011539401 12.151275592417235 0 0 0
496 1 10.317465703310734 12.347958342190491 12.412128038372439 0 0 0
593 1 14.171547015638579 6.918537970413295 14.1471045464847 0 0 0
497 1 13.882383806867264 10.289993727789096 10.692317638708206 0 0 0
388 1 -0.2449865410720733 1.6862062886015985 12.16574145032848 0 0 0
417 1 -0.18015949086701966 3.369991027293157 10.382441922596332 0 0 0
416 1 24.941349926109503 1.467617829855085 12.270964371951687 0 0 0
445 1 24.86598657634143 3.1478445313641648 10.693357650040223 0 0 0
414 1 26.99055756555729 1.40750748222277 10.563257007757596 0 0 0
447 1 26.738092825144044 3.4265711557345804 12.163625952102581 0 0 0
495 1 12.061242083645714 10.7794744267361 12.66770593993527 0 0 0
1167 1 12.348597450992878 14.037140623140441 4.909780385681492 0 0 0
488 1 3.361559554636376 12.051299987841467 12.563117693905602 0 0 0
424 1 3.4685130994252416 5.195353175804399 12.425685187900292 0 0 0
418 1 1.3435112891372778 5.290721150236951 10.545691981426664 0 0 0
450 1 1.6090459855206187 8.627609532416367 10.448926610411258 0 0 0
451 1 1.617509966532051 6.832916551119411 12.220852971068325 0 0 0
453 1 3.238440571032363 6.947722925572957 10.695191003618596 0 0 0
456 1 3.1971705848100664 8.836294683529008 12.36579046452955 0 0 0
420 1 28.362989637659872 5.580065051727166 12.21553949127986 -1 0 0
449 1 28.562393148535097 7.0180219003576765 10.33234029365574 -1 0 0
149 1 17.577591077722694 -0.09234305245827912 3.5270255396644794 0 0 0
265 1 7.249000778389394 -0.1439841919060739 7.162794463308093 0 0 0
422 1 4.994219388996043 5.195301407429331 10.58700488446297 0 0 0
428 1 6.662129169883421 5.394880083039681 12.443497229766697 0 0 0
454 1 5.089930731801517 8.472782946502567 10.549659534454554 0 0 0
455 1 5.016474754265847 7.078896829926587 12.417742413878832 0 0 0
457 1 7.018480473055379 6.846443371025161 10.458178872662483 0 0 0
460 1 6.908008778696156 8.854429658536219 12.417076121874533 0 0 0
393 1 6.880250162271303 -0.08085213520797652 10.681549775288314 0 0 0
426 1 8.627698883103289 5.071377304803302 10.779525059864497 0 0 0
432 1 10.497517705274761 4.956605893914557 12.408973892995968 0 0 0
459 1 8.574180398496399 7.031940738261699 12.34090701186664 0 0 0
461 1 10.553797157638288 6.796539928846347 10.74564271506851 0 0 0
464 1 10.662467999036666 8.620241786460399 12.277864008903347 0 0 0
458 1 8.7001279258983 8.748024196257262 10.48775483937099 0 0 0
538 1 23.020092611358745 1.7225485635411588 13.766614324614043 0 0 0
558 1 12.381378517805006 4.870803912307574 14.171014997474158 0 0 0
483 1 1.4087666535661505 10.517277861037043 12.372287030899873 0 0 0
430 1 12.255015280932051 5.01889468917663 10.439214202961374 0 0 0
463 1 12.573985272856843 6.704591749573463 12.394453198394967 0 0 0
462 1 12.129887450231314 8.781025550534075 10.637707811586159 0 0 0
468 1 14.182303148304406 8.640784858219734 12.36884920106249 0 0 0
436 1 14.264305254935541 5.026567956448032 12.241949306588735 0 0 0
465 1 14.002637555500337 6.961996728076873 10.336860401741921 0 0 0
466 1 16.0954604643981 8.6257326707732 10.597749267412278 0 0 0
434 1 15.824702480992325 5.075272841880708 10.400909306383548 0 0 0