LAMMPS data file via write_data, version 29 Oct 2020, timestep = 300000

2048 atoms
1 atom types

-0.7767444178159462 29.128744417810957 xlo xhi
-0.7767444178159462 29.128744417810957 ylo yhi
-0.7767444178159462 29.128744417810957 zlo zhi

Masses

1 58.933

Atoms # atomic

369 1 1.7674231548272568 2.895016213458848 1.4123280895117727 1 1 1
662 1 0.19883345176241218 1.28517176964408 2.753976936046012 1 0 0
1966 1 2.230564914417005 1.964281974652458 3.373944166313053 -1 1 -1
1767 1 2.6624421837205077 -0.3371448357543864 2.591665330037015 -1 2 0
1315 1 1.2586259550645238 0.04629623454592513 0.8541715375520724 0 1 1
829 1 0.19830943427270198 3.580748882520667 3.5574772312215135 1 1 -1
969 1 2.6283516006954097 -0.5760954676822934 -0.5712571856137707 0 1 0
1117 1 0.21975872534902896 1.375151122649978 -0.7015025174275493 1 1 0
927 1 3.732922112959171 3.804185655879861 0.2487108042486037 1 0 2
1663 1 4.013985920878011 3.7184772638010495 2.5884018769860977 2 0 -1
151 1 7.40805379176409 2.1532809710144476 2.895630361850425 0 -1 -1
1446 1 6.07954377383968 2.354591274476427 0.41066158290695887 0 3 0
888 1 6.517235216172423 0.11577300438531024 2.9540952986719775 1 1 2
1720 1 7.042349115810444 -0.09116743570724584 0.45119748950573846 -1 1 2
1954 1 4.812590054593324 1.4451299476229575 1.8110770214433902 -1 1 1
1861 1 4.734027329826124 0.3063929300749175 -0.026653679062498825 0 1 2
659 1 8.635542630414351 -0.1177748624347762 2.4721321998579677 0 0 3
982 1 8.411171893004717 1.9677957079612733 0.7425208564295582 1 -1 0
813 1 9.774226470440706 2.2591211033535927 3.5864997797435825 -1 0 3
79 1 10.370654260993772 0.6209226147387708 0.9838460163772293 -1 1 1
1130 1 11.588542733407184 0.727720868748277 2.6762876134447366 1 1 0
48 1 10.790101123969608 3.1176799138130527 1.3376825231908018 0 0 -2
1441 1 11.482439213743147 -0.45903254407108196 -0.504417531790168 0 2 0
1656 1 11.892492228115913 2.839302877680151 3.844045162548176 -1 0 0
907 1 13.80923861885205 1.577074036610946 2.54781421465076 -1 1 1
1599 1 15.040794951438855 1.9724501935667251 0.5161626086558908 0 0 -1
1851 1 16.223797257213825 3.792653234788041 1.4113232562256504 0 2 0
705 1 12.405783687211068 1.849664224428175 0.41989801217640665 1 0 0
1652 1 16.258105530038186 2.4983044783007418 3.643452772435883 1 2 1
1405 1 13.106764242078997 4.188177286767183 0.7373317708372404 -1 0 -1
2048 1 13.131143291242763 -0.7282152062229486 1.4251406570313496 2 2 0
1100 1 14.025979060699905 0.08280484795546272 -0.5742159606329125 -1 1 1
996 1 17.218686158661292 -0.19565046539848918 1.0970980185837875 -2 1 -1
1987 1 18.544582935084193 2.785047575854196 4.1198789910404345 0 1 1
1604 1 17.970977690784558 0.5212754812771361 3.5637517172746476 -1 1 1
1950 1 19.78958878419909 -0.005959925082870687 1.638559232484584 1 2 -1
1906 1 19.50080775152972 3.172527594411071 1.4210467240704978 0 1 0
515 1 18.644523350023505 1.2951492131180808 -0.10164162676539101 -1 -1 0
428 1 23.54499814853292 -0.3377454981475694 3.7469913133475643 0 1 1
1769 1 20.989630769389912 3.1653599631287452 3.588483724013776 -1 1 0
2042 1 21.62948958390512 0.7540009995228447 2.6949384660232227 0 2 0
1316 1 24.740667080631823 0.746162717783218 1.4833638284321164 -1 0 0
249 1 23.460669547246653 2.5229828293180496 2.550661034566523 1 1 1
140 1 20.94632125676239 1.8930977345989244 0.21964062150866193 -1 0 1
1020 1 23.200431095572533 2.9346016872681124 0.3039457936466532 0 0 2
152 1 22.699299720963843 -0.059914968488195885 0.634198553137922 1 1 1
1299 1 28.866312844095596 2.6718161759644032 0.9649265057651153 -1 -1 0
1123 1 27.777348303614197 2.4305967282929717 3.3020795651206507 -2 1 -1
1225 1 28.462208171192096 0.4163370724006381 0.7426752380643944 -2 -1 -1
1775 1 26.21273728166635 2.716937564571763 1.2710444741971352 -1 1 0
1624 1 26.076409416949367 4.048936686958235 3.828931342686582 0 1 2
999 1 25.35553161037656 1.9401842283769364 3.4919779830089714 -1 0 1
226 1 26.35752024389776 -0.6841612606221205 0.834475240955413 -1 0 0
1756 1 25.826647845354053 -0.5346403411689933 3.18142671323289 -1 -1 2
660 1 28.034352325063274 -0.15221541522650694 3.0151436345983402 -2 1 1
1084 1 1.517309890516295 5.233003978407007 1.696172606976618 -2 1 1
1992 1 2.0252847778193415 7.085610932137623 2.9040366228671473 1 1 -1
1915 1 0.7986730823912509 8.675477352740558 -0.012191656349885172 1 2 0
941 1 0.18399010447866504 4.534981831199032 -0.06387900027525706 1 -1 1
1426 1 1.593477432351281 6.302324876334147 -0.4052036195736958 1 1 0
2017 1 3.457687506768841 8.243188706148848 1.2655948090069882 2 2 1
806 1 -0.26936964204288705 6.844879521750999 3.2843487513702065 -1 0 1
693 1 2.3907992453118156 4.369770903942379 4.0835503852265145 0 -2 1
1958 1 -0.13115422457756787 6.75946776561835 1.1528526686639513 1 3 -1
656 1 5.041712355952067 5.88146552604501 3.947621868283534 2 0 1
358 1 3.974555729333453 5.819669388065608 1.550912583370339 0 0 2
96 1 5.926327720699475 4.8878040043369575 0.6759825857896202 0 0 1
368 1 5.958227048160382 8.81527137708853 3.1631175145318453 1 -2 0
490 1 3.8640911821722765 8.1532031507788 3.6432141122341317 0 1 3
1745 1 6.98517336080939 6.329314573011801 2.628440142602852 0 0 0
99 1 7.627515587643078 6.433537325759415 -0.2645957631807061 -1 0 1
581 1 5.762650580409988 7.578212144614078 0.7712379493801984 0 -1 -2
1079 1 8.313626090014974 4.310230368455744 1.4375956140670652 1 -1 1
1795 1 9.593373823529591 5.840050542786835 1.831539902375308 1 0 0
805 1 9.639535706319657 4.415163490865739 3.85779075631046 0 0 1
1668 1 8.80827628016211 6.9191310658704355 3.4868086134936 0 2 2
1574 1 8.123684442370337 8.227214373229854 1.103411390329473 1 1 1
762 1 10.00086700783162 8.834969366997138 2.0024309999978054 1 0 1
1710 1 10.527167640649678 5.191186610347657 -0.3128669884902461 -1 0 1
784 1 11.873191995577715 5.182625441325275 2.3933468270162224 1 0 2
196 1 11.727641535238254 6.933338287272045 0.544228576413528 -1 0 0
1610 1 8.256677198625603 8.914424239577286 3.4161836770306175 0 1 1
2013 1 9.654151941231564 7.766286359295528 -0.18175512901667745 0 1 1
191 1 16.24875131174737 6.62557811888469 1.8400398627279366 1 0 2
1473 1 12.232923043232033 7.931328888206577 2.954214773553544 0 1 1
37 1 14.524431204283509 4.460565638293682 2.991534954117409 -2 2 1
727 1 14.950677396973465 8.174392358791156 3.3096518280499634 1 0 2
494 1 13.917905925338214 6.503160538663054 2.058911154883904 -1 0 0
1085 1 14.160401817466886 8.126915457214148 -0.6504803204592224 0 -1 1
1778 1 15.943161455722658 5.998405288145356 4.092224308718183 -2 1 1
285 1 14.672479432011938 5.507739173219024 0.020613834108583973 1 1 0
738 1 17.608837302292635 4.573536083193285 3.0185897774169206 0 -2 1
863 1 18.106653541477584 4.404005210055769 -0.1909356427969352 -1 1 1
200 1 20.507654881660095 6.758090110689563 0.16333921896698378 -1 1 1
1310 1 18.09370099498917 7.1228605319210665 3.78869725353546 0 1 0
115 1 18.50161483347182 6.469365160991703 1.259654893359862 -1 1 -1
381 1 19.72750573302031 5.194321021887391 2.6193422289101758 0 -1 3
1789 1 20.25410042690656 7.5680190057889725 2.4680093443349818 1 2 1
1511 1 17.16794390942036 8.916405218530654 2.534481543145492 0 1 0
1116 1 16.726705796491935 8.607858008451284 0.24284944931482477 1 1 0
976 1 18.932842170660834 9.029498389646479 1.2321177436311186 -1 0 0
1867 1 16.869707874430034 6.413746671045412 -0.29902217564040257 -1 0 0
353 1 22.706367948686527 7.7157263636665245 -0.494995241757857 0 2 1
1087 1 21.796387573786298 4.438159591552864 1.3389207262795204 0 2 -1
930 1 22.917344977739575 4.483773247937849 3.933239089828361 -3 0 -1
1843 1 22.62226320062421 6.722837207117383 1.8917325197631745 -1 1 1
219 1 24.091688196908656 4.759103362641755 1.7477605777497782 1 0 2
707 1 23.889786301989666 9.044547868185838 1.5533497667894394 -1 0 1
1073 1 22.36704306138843 8.775142713924831 3.5727712859818315 -2 1 0
271 1 21.504580343346603 5.928970568420882 3.9115848672662876 -1 0 0
582 1 24.179484548323217 6.579753225305285 3.5398971306549187 1 2 1
135 1 25.768838917489404 4.585453258718809 -0.432289371491198 0 0 1
1460 1 27.575041145841404 4.779960943643162 1.8730505851556285 0 1 0
632 1 27.329152609579992 7.143609188668649 1.1432229771507958 1 0 0
815 1 26.873110391610837 6.683834342557019 3.7495331596728 -1 1 -1
1860 1 27.793113647806145 8.626101362686777 2.8799438704217257 -2 1 2
2027 1 26.239618068815055 8.784947253710413 0.6515411085213976 0 0 0
20 1 24.90388821303285 6.7176317656907045 0.16639834045309465 0 -1 0
1376 1 28.194502092574318 5.778732042323408 -0.7510988164803507 -1 0 1
943 1 1.0285255878504092 9.212264646574225 2.4155630331193914 2 1 2
530 1 1.1227242652692502 13.504712755837676 0.653275273921875 1 1 -1
1864 1 3.164548022837759 10.276241125918286 2.376462580496417 0 -2 0
1655 1 -0.3545241486180632 12.419152710315613 1.958107036742779 -1 0 0
378 1 1.8254280758326655 11.212514872574406 1.0756361462041402 1 1 -1
1300 1 3.0415432080101095 12.918371408219818 2.791297450859346 2 1 -1
552 1 1.056834162712518 11.354984443566432 3.583178639078003 -1 0 0
1609 1 -0.23827927305767005 11.918248509774681 -0.42192429148589683 1 1 3
323 1 6.892332490351862 10.4578868706019 0.3296815258931003 1 0 -3
1487 1 4.968719931115306 10.049559600584274 0.9694677671914909 0 0 0
1824 1 7.362438471532906 11.148556751906698 2.364879274551178 0 1 2
1491 1 5.835012607847947 12.713071632703738 0.8615825995340738 -1 0 0
567 1 4.870578675163788 11.602078022478493 3.2685639501275405 1 0 -1
1243 1 5.10231131859558 13.767855505232427 3.6561458617428952 1 1 -1
2033 1 8.176226555767112 13.080284700937886 0.05538183699317134 0 1 1
1989 1 7.775232450833881 13.58466298693707 2.986422509375182 -2 0 1
1330 1 8.712925967233389 11.536079065129268 3.9873289436719155 0 0 0
992 1 10.079781595692992 10.605651822866395 0.612521584680344 2 -1 1
644 1 11.185700411969874 12.614681497558735 3.956794100868481 -1 0 0
1163 1 10.143990422081213 13.459171254721358 1.9177157209157558 -1 -1 -2
419 1 10.507669694751034 9.840859809084616 4.087163984914169 0 1 -1
989 1 13.706116980819088 12.517586111378707 3.0643349236127286 -1 -2 1
833 1 12.228167102789127 9.866750003423169 0.5399068639057059 -1 -1 0
1742 1 15.721737655101277 10.62374866175219 2.807707080147365 0 0 0
1421 1 14.427009850760363 9.640875173060236 1.221047191231678 0 -1 0
209 1 12.683638964216314 12.50925240534859 0.8387150101932017 1 0 0
1642 1 15.799223290998663 13.322204904482918 2.6320078193682317 -2 -1 1
1374 1 12.046501967281577 10.768712960965576 2.672685164647691 1 0 -1
1028 1 16.889753413573224 13.127739958289693 0.5753777650885936 -1 1 0
1921 1 19.412054228511344 13.789056543916711 -0.32847342200777974 -1 0 0
1640 1 16.56558077923298 10.850694337784878 0.6972231724172686 -1 1 0
1562 1 20.57875608878519 9.270918257909502 -0.4991360355624612 1 2 -1
2004 1 20.002596087312256 11.877963166970599 1.02152990397983 2 0 2
1292 1 20.036287712328892 9.583345885983528 3.7876245372628485 -1 2 0
621 1 18.170966374678827 11.03830751821021 2.4998672783178773 -1 -1 0
799 1 19.643023828014144 12.963148048156993 2.7770290468208683 1 -1 1
462 1 18.53363998623739 10.61057919998915 -0.6300483904211873 1 0 1
893 1 22.025571273497235 13.504755294728273 1.7921085068516809 0 2 -1
1091 1 21.386167203277402 9.765486347115505 1.8468682382535557 0 1 -1
1057 1 23.62703390274153 11.21190057467317 2.750430020123123 0 0 1
1738 1 24.82038374040824 13.432594471328443 1.9214322444362892 2 1 0
798 1 23.086179958285804 13.996245617393441 3.9026791243414953 0 1 -1
691 1 21.926088100003632 13.468814859419451 -0.5461924388306316 -2 0 0
1680 1 22.702876932429902 11.32375071863325 0.39755060738818404 0 1 2
1365 1 27.806492669397464 12.842835464416842 3.3795202550301005 -1 0 0
147 1 28.79265491829031 10.05508958945685 1.0317547144500376 0 1 0
1859 1 28.753772549793133 10.484816875407889 3.471009361057 -1 1 1
629 1 24.985165937886208 11.39888515507428 0.9108830331988507 -1 2 1
205 1 27.444390801830785 12.775378334915034 0.24080690913294323 -1 -1 0
1312 1 26.79262761222399 10.45994248495349 2.2672946226897346 0 -1 2
1234 1 25.566878831644715 11.799918830247151 3.699741759006793 -1 0 -1
1914 1 0.9536803149100233 2.59871830320584 5.348692100769543 3 0 2
1182 1 1.5222148271896319 0.20157328277839914 5.109255473010419 0 0 1
364 1 1.9877755094677978 0.06514980340013965 8.70427538434724 2 1 -1
1418 1 1.4271516634822397 2.0408104718015077 7.629151891623529 0 1 -1
309 1 3.369480444412953 2.390409730539132 5.500495899195677 0 -1 -1
1413 1 2.312800611743479 4.1495606436094326 6.458729234082393 1 -1 -1
2007 1 5.5980314919504215 3.0137626711132426 4.37567045488485 -1 0 -1
1804 1 4.690276108350674 0.7172218353378701 4.700788305087673 2 1 1
669 1 6.914295358710212 -0.2605738931889997 5.275431642015523 1 2 0
1869 1 3.5708809516688085 0.033635586858835165 6.5895397646686185 1 1 1
1911 1 7.6792044318125985 2.543160351939172 5.031014246966433 0 -2 1
1979 1 4.108593079085298 2.9198591492211947 8.49142627087134 -2 -1 1
568 1 5.3773814523677315 1.8468218138489738 6.971951726703431 0 1 -1
523 1 7.629848038895172 0.7347456578096929 7.282049581311883 0 1 1
1844 1 7.651105801545528 3.3167113558387786 7.2087868480765245 -1 1 0
484 1 9.996338280004924 3.0944015182684503 5.905767814684911 0 -1 0
321 1 11.277975195000614 2.7635825235606912 7.502614676855078 1 0 0
1631 1 11.502455355928356 1.1470770067663896 5.037004212939348 2 1 0
858 1 11.6972887793625 0.03160423264208401 7.279523384926444 0 0 0
517 1 9.28959959196516 0.467524263996264 5.156038348700312 -1 0 1
1563 1 9.431932418061406 3.219675609200598 8.73065730762691 1 0 0
1905 1 11.945184439710783 1.1856923158567267 9.141115043991208 -1 1 -1
129 1 9.724505529189408 1.0711318908594591 8.011562782399992 -1 1 0
426 1 14.01767954073853 -0.2041807619980779 7.2705624515980904 -2 1 0
33 1 13.82907735404541 0.26987503315308037 4.862793144760188 -1 0 0
1442 1 14.959203375385075 2.1265820961396593 8.27703623747177 -2 -1 1
1417 1 14.148767804373769 3.0453080798723873 4.693280650505812 0 0 -1
57 1 16.103501330615778 0.6512643786995933 6.8586619464350935 0 1 0
1880 1 13.65861092528937 1.7430336880858324 6.498175990281818 0 0 0
1171 1 13.162766059934288 3.965752557825857 8.152474318418072 0 0 1
1791 1 20.345660024831844 1.1924393926592016 4.613177982891786 -1 1 0
2020 1 17.5247666650854 2.065205327755516 8.644952384480296 0 0 1
308 1 16.65513708259399 3.039819767157537 6.231431378510558 0 1 -1
199 1 18.951710605325033 1.0573768537701786 6.409798479685665 0 0 1
589 1 19.447898474609296 0.6886675873286376 9.043869050643615 0 -1 -2
1047 1 17.59887757482823 -0.552727913737854 8.217823580071746 -1 0 -1
269 1 20.07848252404375 3.7018541644664147 8.715357042784111 -1 -1 1
565 1 18.910259740672785 3.4555835232165766 6.6105166798440695 0 0 0
1625 1 17.34522038006711 -0.634731222827937 5.76564146151097 0 0 1
1059 1 21.763898098265976 -0.0022154283794924012 8.305680632415887 -1 0 1
43 1 22.839469869069347 2.1651793466907368 4.452460081068617 0 2 -1
162 1 22.0718991630443 0.3912931568721423 5.922034054605879 -2 1 -1
802 1 24.164780714751295 -0.2357218448709656 8.14766302128371 -2 0 0
1726 1 23.12756394897913 3.5229267542903475 6.720683450040118 1 1 0
1820 1 23.249789855919566 2.2787185298237596 8.75119956373717 -1 0 0
1595 1 20.986065477759816 1.854233684365365 7.402769124958825 -1 -1 -1
1986 1 24.352785878127598 1.3892366960821034 6.521842629374127 -1 1 1
993 1 25.26661121006191 -0.6224712548088558 5.342930869067793 -2 1 1
104 1 27.09078482696429 0.8216034851294871 5.649595530193872 1 1 -1
733 1 28.468012357532388 2.5290389789217502 5.590965973071584 1 0 1
697 1 29.072827832812774 1.1791197631679304 8.354266810777345 0 0 0
1634 1 25.90698644463113 2.711974576048023 5.782058686579828 -1 1 1
1717 1 25.833627360043558 2.885966677790893 8.154403585204472 1 -1 0
1075 1 28.024810640432797 3.4597736695398336 8.12048347050745 0 -1 -2
73 1 26.459810222094447 0.3677750853364279 8.871923928985144 0 0 -1
1842 1 0.934097748697815 8.67259502269175 4.5380882973814165 1 1 3
990 1 -0.19288567153300418 4.656186126783213 7.259791790082071 1 -1 0
957 1 0.7466706285817373 6.366652028324778 5.29313621777969 0 -1 0
1517 1 1.1888378031005593 9.072480601878185 6.591633217834558 -1 1 -2
265 1 2.385595501304044 7.134171917323508 7.1845777625423874 -1 1 1
1404 1 -0.351545640283485 7.670529823627627 7.859718231132453 0 0 0
1833 1 3.016363748677034 6.472626329701739 5.2065603842734625 0 0 0
1690 1 3.8248591861428016 5.089942278126241 8.2204251246213 1 0 -1
773 1 4.770501632334242 4.5774589642683035 6.110639256091212 1 -1 0
1297 1 4.472608673679334 7.432068500039895 8.690538201345113 0 0 -2
1477 1 5.077671934209363 7.0556983684210355 6.301347444887285 -1 1 0
1960 1 6.264717992337038 5.369942861384007 8.024532773935809 0 0 1
356 1 6.255285244108473 9.086272330791788 7.835924562110948 -1 2 0
485 1 3.6870827724520456 9.052887495008466 7.040901824981616 1 -1 0
1559 1 7.006911632686513 4.863775445223907 4.687761518473268 -1 1 -1
1682 1 7.244088872678409 7.534254567206721 5.548831875163757 -1 -1 0
1545 1 10.578805149920225 5.0192284637042555 7.551531024340683 2 1 1
1083 1 8.966867689993189 5.520889211112906 6.159424045499106 0 1 0
443 1 7.769502227424267 7.022808185798227 7.706329762173384 1 0 1
836 1 9.580864357649437 8.052835856934038 5.620083716689708 0 1 0
1347 1 10.964894896055277 6.181526179370443 5.228970027541221 2 0 1
1285 1 11.114491771183776 6.718713076122644 9.043747142581868 -2 3 1
165 1 11.170151168444896 8.211363579010973 7.1293853565544 -2 1 0
709 1 12.118964756077302 4.3430868128938105 5.558080668984916 0 1 1
1703 1 14.692354026273918 4.30134837277009 6.520005581439158 2 0 -1
189 1 12.776118913948334 6.088128448152584 7.010570019331976 1 -1 -1
2025 1 13.631414111336998 6.4301623348330565 4.747513894412045 0 0 1
536 1 15.440308444240928 4.4208106368495645 9.00160447252318 0 1 1
1581 1 15.479155197104726 8.466441890573215 5.45935571648764 0 1 1
1849 1 13.747962160993744 8.844632250502888 6.769019660937538 0 0 1
775 1 15.21932047726145 6.272740817731481 6.620384573470049 1 -1 1
207 1 12.785174946485347 8.720491277903346 4.986437291927533 -2 -1 -2
1792 1 16.046027885830327 8.429561519574975 7.8707751786639015 2 0 1
109 1 14.265467556194004 7.261514089743592 8.664482683183769 1 -1 -2
1591 1 12.6781423305933 8.790679956651546 9.056453640101081 -1 1 0
413 1 17.760024137296618 4.877395583290128 8.183871863333112 2 -2 0
41 1 19.817300477144684 6.043161959258379 7.739447041609399 0 -2 -1
950 1 18.744793925055156 5.4558109196731275 4.868748670528614 -1 0 2
749 1 17.846623789552503 6.813140765600281 6.810659513690808 0 0 1
1636 1 19.994119060928362 7.609194846660468 5.508793532587817 -2 0 -1
1611 1 20.29038974584973 8.541856441293183 7.714240993630446 -2 -1 2
1997 1 21.167930779437853 4.325090129549391 5.7423825116680485 0 2 1
746 1 24.49454089237507 4.837740922470848 8.053120189385178 0 0 2
1415 1 24.61328675775954 4.795402076269743 5.431995357570435 -1 0 1
21 1 21.82757914237302 5.201640046392913 8.99325023317556 -1 1 0
267 1 22.883742447339102 5.91459003880162 6.180169972729487 0 1 1
1904 1 22.581364904036867 7.40455403201851 8.420366604998833 0 1 2
648 1 24.715318417551416 6.88087369139838 7.575801965945937 -1 0 0
1407 1 23.664847556529516 8.251414370575661 5.7158368426845065 1 0 0
282 1 26.942210510887946 7.368664473082639 8.176870505401496 -1 0 1
7 1 28.346621581174062 7.845612230309337 5.403161283549307 -1 1 0
1500 1 28.189946091629437 5.255315970714304 5.01775283081199 -2 0 0
370 1 25.96900399766782 8.227913043257033 6.225731591732321 0 1 -1
277 1 26.564103923091565 5.8033811927732675 6.354213123377693 1 0 1
1452 1 0.37031317730536983 13.554308966964149 4.495769306016573 -1 0 0
1535 1 0.7081820658019446 11.602796564053419 6.194953725165438 0 1 1
98 1 -0.5904826742723324 9.748509152577627 8.294624208453635 0 0 -2
635 1 0.8731619381554092 13.232305985262606 8.05942054612914 -1 1 0
62 1 3.161378278956612 10.27349668165014 5.079448833415542 0 -1 -1
983 1 2.707435503837943 12.833657904494032 5.0869731176896344 0 1 1
182 1 2.1815763123582075 10.70672220429969 8.52322259907378 1 1 0
609 1 3.9749936367212175 11.774007881089753 6.7433072974859645 0 0 0
1633 1 3.502271009447096 13.106676738545517 8.727944943929776 -2 -1 0
661 1 6.04208689354081 10.23676785257947 5.393879183904213 -1 0 0
717 1 4.9015343420901445 13.74504621917895 5.995617356476381 0 -1 -1
1637 1 7.344568724735781 12.342814855798212 5.627628164994074 -1 1 0
1816 1 7.396706741779106 14.131189027831713 7.879952575363395 1 -1 0
1677 1 4.850300357055068 9.94227634865634 9.150789624161774 0 1 1
1584 1 6.2858583962963195 11.862718626040861 7.97996468499605 1 -1 0
1435 1 10.258821616130605 11.429597461250207 5.959995501443002 0 1 2
259 1 8.49200138037191 11.567203985800269 7.5573559578499 1 0 -1
81 1 8.234084482666171 9.90688191953862 5.652610024547869 1 0 0
1533 1 10.965331638878153 10.594589563775111 7.755402490632873 0 1 -1
216 1 9.298282067924129 9.462924572779533 7.779205832723473 1 0 1
503 1 11.927739623287087 13.54480183443205 6.421866557594454 1 -2 0
761 1 10.193399517030663 12.963444353395595 7.8328871692857085 0 0 0
1564 1 16.11993932880788 12.153619891485807 4.815602948740037 2 0 -1
138 1 12.587145811021921 11.480048538148598 5.814991434147977 0 0 0
444 1 14.190399071358224 10.43138639191034 4.414980706057545 1 -2 0
929 1 14.631252040612113 13.47863859101594 5.074265319886603 0 -2 1
504 1 15.061080613323794 12.347556282138727 7.238735376857845 1 -1 0
2030 1 15.885872112838284 10.2551567810794 6.361003931022388 0 1 1
359 1 13.18015590378758 11.763637191697997 7.692925738311937 0 0 -2
3 1 14.693434171924117 10.165087917056562 8.766897705210347 -1 2 -1
1037 1 17.631538741204963 11.814408725311932 6.731381765732147 1 0 0
1102 1 17.527673269837024 9.91790169191544 4.586208868339788 1 0 1
492 1 18.167781742007215 9.295591469194813 6.743895663083419 -2 1 1
133 1 19.383673013381006 10.786191308063914 8.132416257869808 -2 0 -1
652 1 19.415575667724177 11.87671011765622 4.815894657296235 -1 -1 1
1186 1 17.018019603631195 10.476428197513505 8.760072844198978 -1 1 -1
926 1 19.06999494437477 13.106977924435332 8.665964828113072 0 0 0
1217 1 21.653514465956547 14.0477999489498 8.263008710477008 -1 0 -1
1556 1 20.999987191976196 14.059716955392801 5.615325803077271 0 -1 2
663 1 22.188993884465866 11.848370050019046 4.2167729201944715 -1 -1 2
542 1 23.511278591591235 12.714365101107992 5.876381245897136 0 0 -1
878 1 24.509698400208407 9.851989902806077 7.650154784162778 -2 2 2
441 1 21.206600994631188 12.115519781779676 6.709467396467718 1 -1 -3
22 1 21.303925120479036 9.702655617768631 5.685258352817083 0 -1 0
1879 1 22.39827375499 10.065500917797662 8.307563672879253 0 0 0
1739 1 23.944055844762154 10.421945014839986 5.3190869915526235 -1 -1 0
1325 1 23.564315595565105 12.379414344251282 8.717055633716022 0 -1 0
1661 1 25.91772152675609 11.870290639121976 8.60016928069182 -1 1 1
731 1 26.951097690098322 9.746478820527313 8.285955735182426 -1 -2 1
1620 1 28.238478335337945 10.285501186475981 6.276128424507979 -2 -1 0
1964 1 27.992277979809522 12.543452080954175 5.366906544886027 -1 0 1
1627 1 25.532116570517523 13.474190270126046 7.105089751873719 -1 0 1
159 1 25.73886063772619 11.122902920253004 6.172324100304316 1 0 0
435 1 26.273012437665777 9.518494618500183 4.365566552240461 -1 -1 0
395 1 28.12811553668387 12.124205254173662 7.80951760343005 -2 -1 1
68 1 0.4889458916373999 0.034560813239432386 12.366662826724646 -1 -1 0
872 1 -0.11558457783904585 2.805035030325395 13.221457563353193 -1 0 -1
139 1 0.2982995517528042 -0.5446055062193833 10.001257017154744 -1 1 0
1949 1 2.7446724024647353 0.7688553742463575 10.819668641396204 1 0 2
306 1 0.041436297863123084 3.6820998736959742 9.365484493180155 0 -2 -2
960 1 2.3439696952248403 3.4114663863726014 9.765231524298619 2 -1 0
642 1 0.45852680934405976 1.6225562719565594 10.590931393184833 1 0 0
771 1 1.003509572181847 4.132132782424517 11.79683690043416 -1 0 1
1832 1 2.096543464792626 1.9522330708482087 12.761882866316133 1 0 1
319 1 7.346556922959284 0.550481648603188 10.26330297798783 0 0 -1
1013 1 6.684039727284081 2.5488021420634452 9.200217470482835 2 1 1
1450 1 4.572260412009524 0.05146259340140169 9.200445937456482 2 1 -1
1238 1 4.191425876649772 0.28571030334471015 12.404967719212676 0 0 -1
35 1 4.467648676583146 2.5183885104901744 13.234465233536467 0 1 2
463 1 5.274411925503749 1.8730742618140548 11.030488546458011 0 1 0
379 1 5.706610377406032 4.188433926953473 10.020492954960892 1 0 0
1304 1 7.224789046959463 2.702769962298328 11.719884298885706 0 -2 1
1072 1 7.867381474355279 1.1819922112676395 13.46411572045972 0 1 -1
2043 1 9.499556312888291 0.8223386012584468 10.747851974752038 0 1 2
724 1 11.70508075197167 3.494203250823025 10.090966296962417 0 0 0
1191 1 10.12517446072027 2.888843785566375 12.81729197217654 -3 1 0
1871 1 9.027400306190623 4.0107603801756095 11.234297214399515 1 0 1
541 1 10.553524388883073 0.3636093573386092 13.219897809405118 1 1 1
859 1 13.583139892768092 -0.0950031363963636 9.39369437629927 0 -1 2
682 1 14.006992964231058 2.5008811534192024 10.551015716815892 -1 -1 2
1852 1 14.899614800646084 0.6231290270607781 12.044036076196951 0 0 2
1424 1 14.69964710620451 2.7434234347183026 12.837203819523374 -1 1 -1
804 1 12.850805463866251 1.4964501131641317 12.383456273688548 0 1 0
1605 1 12.052910049899316 -0.5564069160205192 11.25339344234957 -2 0 0
63 1 12.894906532474991 3.9362963463556797 11.911707061620028 0 0 0
668 1 17.06907013443181 -0.2464969014403423 13.25419765026973 0 0 -1
376 1 19.215271105544524 1.3401790028409888 11.364773586652971 1 0 0
496 1 16.390438980620388 1.7089298900414582 10.653651379255345 0 -1 0
1031 1 18.29789199102745 3.3508696664191993 10.569111172899282 -1 1 1
1735 1 19.808410330161834 0.8661231640783491 13.299705219673152 -1 1 0
1319 1 17.75332514299707 1.9134829317475566 13.07421289427082 -1 1 1
521 1 19.475124671090278 3.86249232954784 12.791933699596223 0 -2 0
1757 1 24.226417990965288 -0.54524594769809 12.643096886266909 0 1 2
1698 1 21.83245737164856 3.434158298938912 10.423718685981767 -1 1 0
1552 1 21.508612041681637 1.0861958637987144 10.71466762292283 0 0 0
997 1 23.116540574698185 -0.5496237553317951 10.678761868826037 -1 2 2
811 1 21.744064736651843 2.9950402503178326 12.84549014174305 0 0 1
1963 1 22.31004738737594 1.0727501501126846 13.818297749317594 -1 2 1
185 1 24.444905650327286 3.6293109281566913 10.38667602229108 0 0 0
1101 1 24.10850662105036 2.978873401165516 12.486637145539316 0 0 2
141 1 25.08304199278691 1.029360445231627 10.666006304640696 -2 0 0
224 1 28.389251165991112 4.198607775739668 11.473901158511937 -1 -2 1
1590 1 27.384360224386263 3.373366398819436 13.464026918330617 0 0 0
397 1 28.334272769283565 0.9421980449976668 12.785689381389252 -1 1 0
223 1 26.133816145312352 1.3343638271045704 12.830570755654847 0 0 -1
1512 1 28.252155551595834 0.7288780742031835 10.66350904590978 0 1 2
315 1 26.83823310241172 2.9710516319681175 10.225633295623442 -1 -1 0
1749 1 2.9067819068817844 4.466658422557183 12.880880659053675 2 0 0
1711 1 0.7251881884419398 8.515125915523274 12.31118671910311 0 0 0
1443 1 2.7399239925424554 8.911060269600114 9.93650690590807 1 1 0
380 1 0.9335267100813962 6.314138488226372 13.478593030811965 1 -1 -1
416 1 -0.4651797643854963 6.6116916821030225 11.423293462196138 2 -1 0
161 1 0.35399530315871774 8.602916180641126 9.920387932296604 0 -1 1
834 1 2.5331954445287055 7.0465944444930795 11.558579249589286 1 -1 0
512 1 1.8781909625681652 5.579377000038033 9.616317238182383 1 -1 -1
280 1 5.320240740085288 4.723941229423662 13.675140668024325 0 0 0
934 1 3.705876195813884 7.656971922676258 13.471371271056023 0 -1 1
1381 1 3.683541302325099 5.027446772195109 10.739034182761214 0 0 0
1035 1 6.898183479471244 5.088632429444087 11.790377761422306 -1 -1 0
1928 1 5.266927019471945 6.597519647030053 12.12736596151744 -2 0 0
819 1 7.208218554705048 6.456950054156184 13.582097408762055 0 0 0
890 1 6.423686110116481 8.778458599506722 10.481065883999053 0 3 0
1353 1 6.336954543813767 6.757570112210183 10.045013703177116 1 0 1
299 1 6.094377684766605 8.970075751572038 13.258574055036334 1 -1 -1
251 1 8.567026498266369 5.471653380691484 9.4612447647867 1 1 0
1302 1 8.54887770007931 7.841702330634282 9.513374832467406 1 1 0
1110 1 9.372747783161136 6.879204978991692 11.585150430516608 0 1 -2
1734 1 10.726953753441013 5.441640539697296 10.906782989000012 2 0 0
894 1 8.712607501277676 4.289407092989159 13.50614826707662 0 0 0
2019 1 11.01810901254399 4.637712662144761 13.336287322386275 -1 0 -1
1425 1 8.229716576909468 8.544223311719133 12.0218738737915 0 1 -1
202 1 10.563372727838816 9.057820119419288 10.05853019087261 0 2 -1
1244 1 10.835951588626841 8.333310952147471 12.573943580952976 2 0 -2
1801 1 12.427781239473445 8.818961905393065 13.858495889172456 0 0 0
1888 1 12.1381877036326 6.641794994821972 13.904986609572497 1 1 0
1210 1 12.415091882029234 7.223957669245074 11.40976803551367 2 1 0
686 1 13.454315158290088 5.534974273333301 9.957644641231559 0 2 0
360 1 15.30949656566923 4.627925589598797 11.545675297059752 -1 1 1
377 1 13.533377413405614 4.615949643730324 14.143857883776235 2 1 -1
1321 1 14.401596401071501 7.527935629422146 12.963518562146604 -1 0 0
1371 1 15.413194978785624 8.323300410414586 10.22789289708273 2 0 -2
121 1 15.635180504226431 5.8117642162252325 14.145932698135404 1 0 0
851 1 17.978072966948396 8.35677326635559 9.281122322424705 -1 1 0
36 1 19.559547820224985 5.476269204611569 10.189963317220291 0 -1 1
97 1 20.538024291017557 7.582497420975196 9.746845672783113 -1 0 -1
1528 1 17.35443904095277 4.911369896119452 12.892304574575963 1 1 -1
725 1 16.4655951540621 7.087845983369854 12.196974338076874 -1 2 0
1462 1 16.675878238073103 6.234890221131788 10.140147078941254 0 -1 0
1632 1 19.94359777231856 6.908716572487686 13.942255077134698 -2 1 1
329 1 18.645355929988717 6.890839938753363 11.84197563957462 -2 -1 0
190 1 19.03458844669997 9.03340076854121 12.637477217350684 0 -1 -1
1770 1 24.38182573523465 7.000792061344842 9.699964716186424 -1 -1 1