LAMMPS data file via write_data, version 29 Oct 2020, timestep = 300000

2048 atoms
1 atom types

-0.7304827278741008 29.08248272786896 xlo xhi
-0.7304827278741008 29.08248272786896 ylo yhi
-0.7304827278741008 29.08248272786896 zlo zhi

Masses

1 58.933

Atoms # atomic

1763 1 2.4410922384875584 1.6643751901805528 2.1213261081634127 1 1 0
1857 1 2.040795117023426 -0.2934901342480458 4.541903346285 -2 0 1
1825 1 3.44344720326227 3.5397080273617814 0.6115064978854114 0 1 1
1448 1 1.5035776794727411 3.527290056904187 3.0379140734767676 0 0 2
1122 1 8.550377931701005 -0.7026794403344496 4.751825653202981 -1 2 1
886 1 0.6028750963690479 2.0266964957379052 4.490302017592234 0 -1 1
1648 1 0.13876411922671017 3.1656354703589167 1.252801072412571 0 1 1
439 1 22.37348132917284 -0.5882330125632478 6.3099208804344595 0 0 1
411 1 1.2628078046910405 8.911524784232498 0.7767995237645096 2 -1 -1
961 1 28.161828517304574 -0.2547402879809646 -0.40830241707124715 -1 0 2
768 1 24.38180630267783 3.038962206693132 -0.5258777681246213 1 1 2
1143 1 4.286946807014413 2.9636115597138795 2.6949595794711385 0 1 1
1799 1 5.629703007842767 5.008795891715422 1.6613554498800278 0 2 0
136 1 6.186733164195203 0.19312662119170065 2.0504174506045487 -1 0 0
708 1 5.926284950300357 2.5678779217580328 0.9901554487336477 -1 -1 2
290 1 6.9890335693348815 6.672107791208836 -0.027492141013526372 -1 0 2
386 1 6.557608297486436 0.397175756750501 4.5719554272308285 1 0 0
1739 1 8.458455992675102 1.103246199605999 1.0326657415988039 0 0 -1
893 1 15.364644360782954 10.214109354777246 13.931110209691928 1 0 1
1000 1 24.23682237995467 13.775710375463953 6.8184524864227285 -1 -1 1
1835 1 8.168356014606383 3.3795721784898447 1.9001930994403513 0 2 1
786 1 10.621870310175035 1.8426460495714165 1.5099097186062078 1 0 2
931 1 10.953210756641367 -0.3205528795268698 0.8333499402909956 -1 -1 2
1806 1 7.6254362551192205 -0.6919449491351964 9.717211253491525 -1 -2 1
538 1 0.6493554205701313 13.62836966273512 4.252706201349955 0 0 0
1795 1 22.53644608226295 0.8467596955744023 11.090711882530702 -1 1 0
172 1 26.315144790562343 9.118623997752959 12.38075464046878 -1 1 -1
806 1 12.646175931619876 -0.3744849403160418 10.660986165705355 0 1 0
690 1 3.215578164647009 13.894492809677095 8.750472726040302 -1 1 1
421 1 14.669944915006248 2.3225213444136292 1.3380114012170479 -1 0 0
642 1 4.375973718788212 0.2566607830202209 3.4454039680157402 1 1 -1
536 1 12.894404244106818 1.0299924194395274 1.833418327660088 0 0 1
97 1 13.370171339676764 5.642573284636413 5.089089463189971 -1 0 0
817 1 12.890038431494181 3.226620130633578 0.5810770862587933 0 1 3
1608 1 27.762451996131297 11.650205207266119 12.514115540818844 -1 -1 0
1288 1 14.585029807936817 1.412462237500086 3.978272610444237 0 1 1
1935 1 19.82792398132316 4.218456618444652 3.974964341162833 0 0 1
1136 1 20.36318652877702 3.143424616791799 1.8971954747423934 -1 0 0
1262 1 18.033487635736336 1.6903082070366446 1.5019213185677502 -1 1 1
1898 1 11.303977397899347 4.683345090964134 0.10119868115692998 -1 0 1
1266 1 22.1424916325679 4.328232590803223 1.8067241578335098 0 2 1
1147 1 2.4763475168326083 13.245778460257691 11.643111332878833 0 0 -1
1619 1 20.078279637615804 4.517830820675697 0.2187547664470001 0 0 1
1492 1 24.373990639723342 3.5703912941082265 3.2153477559811194 0 1 0
1791 1 24.538575454888868 1.1393212426444794 1.2256843569666425 0 1 0
1866 1 22.866781591003317 4.919974515553882 -0.27020701177760514 -1 1 1
1832 1 20.450753149091216 0.6772545605568503 2.2256067092368466 -1 -1 2
541 1 17.48568930698646 2.511842363027432 -0.6550225840092507 1 -1 -1
1979 1 19.756592065023717 1.962943842683739 -0.595677554676332 1 0 1
301 1 25.88820437514118 2.9970002606970283 1.3440555251539266 -1 0 -1
1441 1 22.573751138839054 2.065388412061348 2.3089407552781482 0 0 1
1203 1 8.071584751813722 13.147552004552745 3.5093340269914863 1 0 0
1666 1 25.66388624815995 1.423067897495331 3.6408177285539933 -1 0 1
481 1 -0.12461296898503138 0.1594784500806966 2.7762501165696194 0 1 0
1824 1 21.746833820213975 13.64400918425652 9.79732576066132 -2 0 2
1628 1 9.180302719233897 2.8013377935374604 -0.2724101967290727 0 -2 1
1990 1 26.49499184533914 1.2346340278485008 -0.045885088822046005 0 0 2
1976 1 27.93088325651247 1.7022650948958113 1.9037869433608168 -1 0 -1
853 1 23.56992675010805 14.105608105410676 4.646368659602186 0 0 1
464 1 -0.5062847596611517 7.268213864214219 0.4760541169569581 0 -1 1
272 1 3.3153600296435775 5.290176148571103 2.4940316154217967 1 -1 -2
124 1 2.3578395642401513 7.177434971581011 1.527499376680657 1 -1 0
1823 1 0.5095791531143292 5.764441010930506 2.7991569042562108 1 1 1
37 1 0.7789505437583069 7.980257753373195 2.9785705314653885 -1 -1 0
39 1 3.9153889664979795 8.528177513423516 3.7136273669577182 1 0 0
270 1 1.3630402321297486 5.229140342398022 0.6524906812645457 1 0 1
494 1 2.491400022290346 6.536517018245381 4.450908392177119 0 -2 0
631 1 4.86833328655947 7.359674359928482 2.006478318400018 1 -1 0
1612 1 15.207938179320417 14.071206766750581 12.735502318601842 1 -1 0
705 1 5.3873482201511065 5.540918296756925 4.206667876340824 -2 0 1
1342 1 7.5546782076101735 2.2606482936338277 5.344364745998744 1 1 1
1460 1 6.68805223405147 7.161243582432339 3.743788158962505 -1 1 0
1046 1 6.944963235849203 4.412038302497917 -0.10977973430604582 -1 -2 1
1175 1 17.591735248633125 5.181016934155149 -0.23890396760622618 2 1 1
883 1 27.460836929386065 13.672703010901577 10.789247348792843 0 -1 1
1803 1 24.398760717592626 10.55933300796905 14.156053223366413 0 -1 -1
366 1 7.752009038045356 5.64325293099723 2.3757877041387254 0 1 2
1703 1 8.271889190460845 8.228295282003756 1.6504037083794127 0 0 0
1346 1 10.156538423355126 7.2887704335936565 0.12360679772939076 2 -1 0
1903 1 6.491731278586586 9.525524954105103 0.3192807928775323 1 0 2
295 1 9.001434983793082 6.752628855202561 4.041162056222574 0 1 0
1932 1 11.16126654311309 6.594829653883047 2.5271008850959955 0 1 2
1210 1 8.920821784358008 4.152714027677035 4.173748373816143 0 1 1
1785 1 15.617430206529551 9.421187645371589 -0.1741023624558683 -1 -1 1
1335 1 16.23342083046181 13.463612662064145 0.937485609272382 0 1 1
159 1 21.440793246853993 0.5838754825927763 0.06521268066685504 -1 0 0
1408 1 15.16704742095077 5.884952165433996 1.9242985490108295 0 1 0
1531 1 12.925202636742256 5.027489574451207 2.8699541452770734 1 2 -1
1442 1 14.276385693330019 5.246277778351595 -0.15666683474409215 1 1 0
45 1 13.824467104549733 7.446813594190731 3.7793182013037 0 0 0
1218 1 15.046779825819216 8.621496781885039 2.222170629432198 -1 -1 1
1498 1 13.531546386240194 7.536042473624759 0.8999375193822277 0 1 0
303 1 16.292343923652112 3.697830269722024 1.1396734327532054 -1 0 0
924 1 10.022961819975713 13.15218372682264 13.868850910395924 1 0 2
247 1 14.462350800203632 10.078022066742616 4.724535500735093 0 2 0
730 1 17.746437914344277 5.491245824267723 3.4211282867399726 0 2 1
1968 1 15.974576878224163 7.34707490516918 3.6132133642278106 -1 3 1
296 1 19.385372724095085 10.063154397037264 3.0958745221439923 2 0 -2
485 1 19.521990126130795 8.11618135194736 1.359026769596666 -1 -1 1
1664 1 20.412952801965513 6.2350077412918905 2.8696782200536264 2 2 0
915 1 17.289377336630487 7.216524320748299 1.6188632523085467 2 0 2
1370 1 1.1098911633075306 -0.536810095513619 11.313045602292142 0 0 0
1784 1 21.628046935714522 8.833094855176943 1.9510646498535658 0 0 0
755 1 22.876286226341747 8.980705119946235 -0.177566245932691 -1 -1 1
403 1 22.402928566236216 11.01175256571732 13.182345171114823 -2 -1 0
412 1 20.42100855248484 0.4851558842502737 7.128655692647781 0 1 1
456 1 21.424333095404524 6.587918625651925 0.45378821529824687 1 -1 0
1781 1 22.95731053914452 6.663683595824331 2.338913586947783 0 0 1
1616 1 28.264524598710647 4.924702214252623 1.0759598322396449 1 0 1
637 1 0.28914449294954747 0.997727926989562 0.31602119681775087 0 0 -1
451 1 24.445297965202794 9.04504662676409 1.3904779103346385 -1 -1 1
770 1 26.64537379388239 6.25514402911171 0.567278664620489 -2 0 1
1473 1 26.489401365482177 4.914634218383107 2.741970784604078 -1 2 -2
1789 1 22.63453772886552 0.3732695396609129 14.076135399128033 1 2 0
28 1 27.261775546118876 8.814888133350687 2.142210775670012 0 0 -1
530 1 25.33272594000424 7.112501440327583 2.7900284856754545 -2 0 -1
1774 1 28.32491270977567 7.002423360444589 2.7178494063622956 -1 1 1
1507 1 25.089253606808892 0.9831821362212467 7.961173302191863 1 2 1
330 1 0.3534705167579737 12.068635399082288 1.8098199010248082 0 0 0
813 1 2.0919526236829595 10.220272082200458 2.6804900230533986 0 -1 0
1750 1 2.54576337217883 11.001020744276879 0.19786522461220102 -1 1 1
1017 1 3.0456491516445974 13.009004933123382 1.0854990821698232 -1 -1 0
1192 1 3.4778285187751488 11.04219101464319 4.659520873691155 0 1 1
845 1 13.095878688893059 9.38056892603578 13.68712545382318 0 -2 0
1324 1 1.7787782397590055 9.27436536902928 4.844005885671999 1 0 -1
1174 1 2.6195203306901655 12.549432943404659 3.291101121842086 0 0 -1
130 1 12.65686710936425 13.608009605414235 13.06426630549895 0 1 0
445 1 7.280355138016073 11.024399414114164 2.2883359160644354 1 0 0
1502 1 5.144450816553193 11.088524926879852 6.176369931305226 2 -1 0
1691 1 4.5830963166511856 11.40408347156008 1.8789278402721732 -1 -1 1
697 1 24.215261418945218 11.160659095863048 11.706667960118828 -1 -2 0
1490 1 4.215304978073753 9.249130151557157 1.2437057829122506 1 0 0
27 1 5.922981320954551 12.852756535695663 3.685188001251115 0 3 0
220 1 5.484786889571914 10.415213958377125 4.016185166392759 0 -1 0
1962 1 25.654359619594675 13.056038005971718 12.484093579057173 0 1 0
46 1 12.165435293683986 11.907996206264382 4.578260186144145 1 -1 1
251 1 4.455613792055146 0.9602822907155808 0.9669164748201344 1 0 1
1747 1 7.613739360388614 9.130725346996678 3.9297492382207224 -1 0 3
810 1 10.492898870126353 9.391850373268102 1.0842006454371307 1 -1 1
713 1 10.35373000111318 13.485448125147038 1.7295294827652397 -1 -1 0
489 1 11.618044273785424 11.531869384921265 0.064894941843188 -1 0 0
1181 1 9.174728113088284 11.287679548996753 0.4202519710911732 1 0 -1
1701 1 6.858998159738341 12.43322134773948 0.503976759729039 -1 0 2
1561 1 11.48599108740569 11.376618739738712 2.2434432730032805 0 1 0
689 1 12.316654130769908 9.007244880534206 3.0832986359972474 -1 -1 1
866 1 13.427421970478903 9.957979477353431 0.9755987968914654 -2 0 1
1600 1 13.86869289467574 11.650460006175749 2.9542539602063123 0 0 0
1294 1 15.676333398908724 11.189075915764857 1.532158448739148 1 0 0
152 1 16.148039966844216 12.348272342139783 5.491450050698832 -2 -1 -2
1895 1 -0.43995727284266173 14.011350390148152 2.106793765957129 0 1 0
1709 1 13.980569506645224 13.302088097390648 0.8755823000835465 -1 0 0
1964 1 17.48461330867305 9.619419255257638 1.4715128322832638 0 2 1
257 1 15.06865943298964 13.619832946953982 3.3455867741030616 -1 0 0
999 1 19.723196223480596 10.639684012234078 0.9341001917894125 -2 0 2
846 1 19.99749318058197 12.304438928498458 2.600224384094856 0 0 1
776 1 17.263685759601934 12.021666039397806 3.299684493366489 1 0 0
2035 1 0.8392312059457692 7.495887348106205 13.002587745447382 1 2 1
1436 1 20.85880578397211 11.224991916622407 5.539525645618625 1 0 -2
284 1 18.362813668131686 13.585460698959453 1.4524551037279068 0 -1 -1
858 1 19.067931103009727 1.4056799284308132 3.809419215982089 -1 1 0
2013 1 21.667717402964854 11.049976957738425 1.827486157500815 0 1 1
181 1 0.6872547224068684 13.7933356758295 0.23177785928146832 2 -1 1
455 1 20.92156870615122 13.699395004681666 0.9450160408426831 -1 0 0
834 1 24.98810086747647 11.824093478629095 4.006249156299204 0 -1 3
200 1 22.579047212828502 13.013720866233374 2.4139906381712346 0 0 -1
1633 1 3.5271393335495285 7.479231646417702 13.539048652550457 1 0 0
2010 1 24.068831283920694 11.491602066564914 1.193681355036987 -2 0 -1
657 1 23.02214925483664 13.539871680430153 0.21700717182512053 -1 0 0
1815 1 26.268607168539546 11.094317064225255 1.9688596800406466 -1 -1 0
1437 1 27.13479843754745 13.000537999205728 2.9100684991099945 0 1 1
882 1 25.037075452549406 10.420710303332365 -0.47174168476992906 0 0 2
1915 1 28.266016748604233 11.081485180595768 1.5168797598773764 0 0 2
653 1 -0.4452357695054963 9.8835822737612 3.0310131550072423 2 1 0
1817 1 25.638829779832157 9.105226359293765 3.5812069776249507 0 0 -1
112 1 26.07175420279919 12.546935948092417 0.2681936408415788 -1 0 0
943 1 2.979252872208542 2.0155879627612707 4.960437629125394 1 0 1
1646 1 4.050069981800067 -0.33597749410450717 5.936060814051438 0 1 0
1366 1 -0.2317176092217122 -0.37660757631792235 5.185094347812346 0 1 0
1786 1 0.396907285324414 4.354142616128763 7.79231259744947 1 1 1
1028 1 5.808864686504115 1.6259892006730046 6.830698533158944 1 0 -1
745 1 3.40940661153913 1.265499967983438 7.659570093352949 -1 1 0
727 1 1.6452362055630148 0.05863111188229253 7.121949585549939 0 -1 0
1402 1 0.13000609335458813 1.9795790023146451 7.1679314086055745 1 1 0
285 1 2.6892286752145944 1.5839541194767328 13.285855420837514 1 0 0
1116 1 0.020461459072997235 13.21121361523135 11.569989941144481 0 1 0
1416 1 5.310677764709389 2.353419346874392 4.505854643889588 0 1 1
1129 1 26.474293749519664 8.1105451271271 -0.6300680866425593 0 1 0
1261 1 9.179250788894928 2.651044659487462 6.942082835934498 1 1 0
972 1 8.016668471824499 12.802871470440332 12.189469839874782 -1 0 0
1717 1 5.7118207942183865 3.9092877867325138 6.129019448366708 0 0 0
143 1 7.665274972387715 -0.11351835807910904 7.0887900469411464 2 0 -1
1091 1 8.901886508010461 1.8789251855416031 3.3605582131753966 -1 1 2
258 1 10.559437373843894 0.3915188531154672 3.1800575302343277 0 0 1
1439 1 9.933606915655716 0.44472437282038046 6.49429786074511 1 0 1
1456 1 8.13138638632845 1.6387897780859246 8.73552096719301 0 0 -1
989 1 10.480205052743967 2.6345303721490603 4.779320330571356 1 1 1
1099 1 11.909064616786239 2.3841445180243124 7.359097479565113 -1 3 0
234 1 10.647250879498948 1.1998266007426999 9.488629940747755 1 -1 1
660 1 20.506101089605966 -0.5206560044628677 13.021907301665031 0 0 1
763 1 12.381574505633363 -0.12045546808405339 7.857272577959595 1 0 2
1831 1 2.3741358627069626 1.9947211693124034 -0.539216543854935 1 0 2
239 1 12.453635148513447 2.6627646063239534 3.2844204260425904 0 0 2
1621 1 12.341352735068053 0.7518580875308465 4.8591552339702595 1 0 0
811 1 17.532675131224256 3.220113401119944 3.998016435401804 -1 0 0
1864 1 16.546010023912675 2.594852292404839 5.902696717313643 0 1 -1
741 1 14.60239424986831 4.008125770060353 3.5714056316959724 0 -1 -1
1238 1 13.696441424534587 3.1220291037987113 5.710316451602216 0 1 0
1347 1 14.144366662319952 1.1742067052148764 6.682974414625086 -2 1 0
756 1 15.736149709683431 1.149997093469508 8.900941956336629 0 0 2
183 1 -0.49166808601258116 5.410307233167718 13.93202785528443 2 0 -1
831 1 18.994169437820034 2.2066167553577833 6.177435358898032 1 -1 0
1843 1 18.762907806907823 7.062434444120524 6.910351611307122 1 -1 1
1264 1 17.28031076346289 0.043032893348956214 6.971346505323559 -1 1 1
759 1 18.374464416392254 4.422954502470091 5.9213621787166035 0 1 0
602 1 17.931703341509618 1.3061536330456103 8.897379107081864 -1 1 -1
581 1 5.536743845824106 13.83274608906033 8.622117015454183 0 -1 0
475 1 21.43894656499147 1.163713267733628 9.157589076247481 0 0 0
129 1 21.212832540721454 4.150570460409743 6.7705554441073845 1 0 -1
5 1 23.417516955576623 -0.38376169234365615 8.617120101268656 -2 2 0
535 1 23.112144894655728 1.7269148684789446 6.760984013194554 -1 0 0
867 1 21.29906889318454 2.1593090572101046 4.881663264241368 -1 1 1
1567 1 25.208958886782774 1.5682823305100166 5.873398602659068 0 0 2
1782 1 22.912319399028036 5.636340289455497 6.673338087330182 -1 0 0
1332 1 23.895014605332513 3.417176162815256 5.333076557872659 0 0 1
1995 1 21.962410453403166 4.317363663194658 4.2226649751982555 0 1 1
1668 1 23.554917590048724 2.0668195376742355 9.337570107841643 -1 1 1
1321 1 23.535547726825648 1.2182182601176823 4.426489303517563 1 2 0
215 1 21.97942016490575 4.623121320587481 9.696040952524587 -2 -1 0
1871 1 27.092756755125066 0.5168701650276941 6.603602550072658 -1 2 0
1560 1 28.528722229801556 3.7216286742055313 6.08899897406012 0 0 -1
1775 1 28.419543714393296 2.6476104000289897 8.281501597373774 0 1 1
652 1 27.936998199789667 1.2786016760117613 4.478522753781414 0 -1 1
1655 1 26.559093250489504 3.4669667111457816 4.8313117590496875 -2 1 0
1723 1 4.489506161330168 5.773974592704034 -0.3306211746614932 2 2 0
1610 1 28.894524984070053 -0.09730590263668859 7.910079807715935 0 0 1
1649 1 1.172852043833599 4.572746501139436 4.953397570048181 0 0 0
604 1 29.024854191466595 5.8655962361222205 5.117656762325527 1 -1 0
729 1 0.8992529396171864 9.333640603738111 7.233902781387972 2 0 0
515 1 1.2229407616436165 6.94347967443073 6.273731722610111 -1 0 1
338 1 3.0115048042300776 4.984856900077761 7.548197568899145 1 0 1
1098 1 2.136824495941378 7.246045070897795 8.929524357055461 -1 0 0
583 1 1.7709269762922064 4.601986136872081 9.895475521591907 1 1 1
1389 1 -0.14224109454418554 8.69587243747824 9.441267375468975 -1 2 1
1662 1 3.3101231234872595 8.714177946005506 7.057435555437082 1 1 1
1566 1 6.835329317677772 3.965711066609966 3.487630570694731 0 2 1
1433 1 5.276489733931579 6.328099409969764 8.262700803616944 0 0 1
544 1 8.684119419114971 4.927183079369355 6.729717040586201 1 0 0
1746 1 4.125780248297852 6.38911224567931 6.005492673039394 1 1 1
1054 1 3.5115840137578944 4.425198708302246 4.567663913531509 1 0 -1
1364 1 7.381761000186021 9.272089611831994 6.319385150532615 0 2 0
1157 1 6.589793331408183 6.392349472591116 5.984501239412284 0 1 1
389 1 7.794375175755427 6.797946311870589 8.161753065447952 0 -1 -1
2021 1 9.689867745864998 7.4414240884158644 6.007686528262427 1 1 1
837 1 10.455910122258102 3.8683143146567547 2.72230547168842 -1 1 1
1249 1 11.029515661720556 5.932188443883744 4.73484702538934 2 2 0
392 1 12.04532601100569 8.100518052223268 4.979342376769506 -1 -1 0
728 1 11.661050588398266 4.512576883298948 6.498301430345586 0 0 -1
1882 1 10.656368186047468 6.139556903068536 8.232126456674608 0 0 0
302 1 10.025228236661597 8.639824280586236 3.2908548323985425 0 0 0
1314 1 12.134440119590241 7.212339458127237 7.296827738663129 1 0 -1
1551 1 14.575538072331318 4.387541453203081 10.354405146075665 0 -1 2
2036 1 9.357513699092236 5.34866317133946 1.0929985564480227 -1 1 1
751 1 14.198475597055564 5.732700265945238 7.535014215535153 1 0 0
587 1 11.807433295431391 7.855681320053806 9.622749477072492 -1 0 1
986 1 15.857107350778303 4.332848455428569 5.324614934318008 3 0 0
1562 1 15.513067647667956 7.290431478367086 8.498545971761933 -1 2 1
353 1 12.614139543990168 4.51934354416941 9.189904246027487 -1 0 -1
1454 1 16.379550336892624 5.523780117594064 7.4746244957181585 -1 0 0
105 1 14.369622905349646 8.1829131220268 6.028605814837412 0 0 -1
1124 1 18.678894906369514 5.155517171394882 8.062884109057622 -1 2 -1
1692 1 19.359768362308508 7.869159986652898 4.486652204372202 1 -1 1
1714 1 17.343204814072436 9.264698292560837 3.914141495308601 0 0 0
1269 1 16.725250885287938 6.7785674964797735 5.656590197237565 0 1 -1
1257 1 17.56046553452522 9.057045381709429 8.35549139757692 0 0 -1
104 1 19.919850222767547 8.4692722957713 8.805684873007301 0 -1 -1
1685 1 21.642558838368675 6.751822700320937 4.804277696516935 1 0 0
1381 1 24.69367593254106 5.09845034804835 1.4238337688460283 -1 1 1
859 1 24.84988103381345 5.351559695467945 4.477193626299919 0 0 1
1861 1 21.39750557848764 8.191318861420946 6.4844562033990645 1 1 1
1532 1 17.709504580918335 6.67642071097954 9.42008122945348 0 1 -1
654 1 24.066850353781163 7.497134067314233 4.8646245651685645 0 1 2
1406 1 23.83723115213125 7.748672039389712 7.407505919351415 -1 0 -1
1911 1 22.37395133426664 9.505509059003582 9.070203177619026 0 2 1
394 1 23.77905872851452 3.912198102377963 7.884530110670324 0 0 -1
736 1 26.007378022178045 5.066111504306033 6.827683940584519 -1 1 0
2005 1 27.805318522477602 5.006305408392857 9.43158792631905 -1 1 1
589 1 28.372579157779118 3.84832406420744 3.5559830047831635 -3 0 -1
1158 1 28.19791758366742 5.973256077971196 7.209108654751558 -1 1 0
1065 1 28.754488811977026 8.316144385749498 4.733012435462792 1 1 1
84 1 26.638186761116547 6.661371105441011 4.663092091450301 1 0 0
1144 1 28.41100034307981 9.211137294739457 7.3157453914538255 -1 2 0
699 1 24.491512728161098 8.95379882508652 9.92057216045808 1 0 0
677 1 0.11320749623601167 6.455769672140705 8.581502584678391 -1 -1 -1
1094 1 26.425830307077938 7.824370620903599 7.1124167335020125 -1 1 1
645 1 27.255677646434734 10.76213815719481 4.788772590712658 -1 0 1
1237 1 1.2840113302595282 12.201367612763613 9.392240269576284 0 1 0
1023 1 2.3305482410668743 10.965979577507815 6.894829330871118 1 1 2
1801 1 28.723140885390222 12.240822154992765 4.391729245880754 0 0 2
722 1 3.5202184099922844 11.478308418386213 8.779681811281469 0 -1 0
16 1 27.320452740136947 12.236383725591313 6.72939320862326 0 0 -2
1615 1 -0.35906865678499944 10.983064328213532 6.2852304054560495 1 1 0
1325 1 0.9356083397549981 13.632007956411854 6.983660787932036 0 2 -1
862 1 5.4158092408018925 8.579126234377652 5.685005755866878 0 0 0
281 1 5.864864751595922 8.469149684083934 7.86998868564854 0 0 0
308 1 1.0150234573218826 11.417299616476498 4.544226330393259 0 0 0
568 1 8.198301103201329 9.457290996266076 8.851660025914923 0 1 -1
975 1 5.732771113304769 13.336979950260444 6.116159750341056 0 0 1
431 1 7.560975147422489 6.2753720036316 13.520376913420042 -1 1 1
433 1 6.175888384886792 10.965054422644592 9.318475046524272 0 0 1
1057 1 7.837681560667303 12.932501145708326 7.211766670763025 -2 0 0
1922 1 2.6747966307274442 13.10264510458785 5.501081164877919 1 -1 0
1026 1 7.487384962778453 11.783204848586328 5.257736101462746 0 0 0
1869 1 9.353000708871644 11.063996461260754 2.912903650995076 -1 1 0
1005 1 10.4698392115523 10.5134970500612 4.995279453017816 1 1 0
1946 1 9.320636898728086 12.751223655611291 5.3686491911681475 -1 0 1
1830 1 9.359505697111656 11.051162220706448 6.8717287027852905 0 0 1
1392 1 11.326091832289823 11.868201277662031 6.88505799863332 1 0 0
691 1 10.55184139539881 9.304611188839019 7.510631222086587 1 -1 2
818 1 25.711055374686673 11.933008187084273 10.3234994537216 1 0 1
1969 1 -0.051812910650745 10.863847198787747 -0.39295077365424863 0 0 0
1818 1 14.249859361762798 11.718538953219635 8.646379868847514 1 1 1
863 1 18.310889775868407 -0.5630511151675011 13.1667470495532 -1 1 0
1033 1 13.897421523056494 12.36346574818394 6.041142388331741 0 1 -1
547 1 12.621591696960609 10.162006389496552 6.1763180890765605 -1 0 1
1377 1 13.4398117124199 9.046433896587553 8.16041941314887 0 0 1
371 1 21.74360364803597 0.14908005427481696 4.110913956984455 1 1 -1
1205 1 18.677106904909138 12.0334289996005 5.079263211221124 -1 0 1
902 1 16.755869983543853 8.883559246433192 6.189031409190708 1 0 0
1643 1 17.929345402428066 11.154898397836947 7.534216240530663 1 2 2
1939 1 17.930543992071094 13.735450466311155 6.598207391376984 0 1 -1
518 1 18.957005827215752 9.48910677953131 5.97902484736103 0 -1 0
937 1 19.833425711905672 13.110069858512938 8.103184641341542 0 -1 0
991 1 20.48323584098664 13.638778872105911 4.923672717230582 0 0 1
749 1 20.975110198797477 10.448141358576146 7.711234022748165 -1 -1 1
897 1 21.247401900395264 9.009571387235095 4.328474280945663 -2 0 0
2000 1 23.402927226840685 9.903730128510524 3.5600680123711737 0 0 2
169 1 23.364860922710182 10.129582676325686 6.098434255839408 0 1 -1
1906 1 5.411908083774307 -0.41711224569471445 7.755619762971749 0 0 2
1248 1 22.47617298130516 12.179952951636164 4.45934219458246 0 0 -1
1954 1 22.15948868992685 12.23462214141407 7.379060937124736 -1 0 1
1327 1 6.778819481225233 11.2997091177602 14.154487146010826 0 0 -1
432 1 26.284043723192525 14.120505554492246 8.805411015276533 0 -1 1
1386 1 25.869723305675127 13.650165488857407 5.258123647140375 0 0 0
516 1 25.50930810086036 9.911329918443347 5.999716145444876 0 0 1
396 1 -0.17663906355891223 10.729062401176378 8.535560876764816 1 0 -1
678 1 25.064961358555585 11.887626890404404 6.852738614773886 -2 0 1
357 1 26.625440164239144 11.06017732758417 8.517341945164898 -1 0 0
1697 1 24.387151945528355 10.234541931983616 8.093215951452375 0 0 0
1607 1 24.146813063430965 13.15226037811556 9.195436607198197 -1 0 1
700 1 0.5196908328133205 0.45284693517043895 13.374060051928806 0 2 0
1453 1 1.8634350443802896 2.733225165239788 8.683837165460162 1 0 1
1500 1 26.542695117824103 3.073397975668945 9.964293158867688 0 0 0
1897 1 4.426438732449293 11.461578516578967 12.47366014729861 0 1 1
760 1 0.5328934755486756 0.9018243806292685 9.501262640915689 1 1 1
1118 1 28.521631639053044 1.0385064007087559 11.215287212942384 0 1 -1
70 1 15.465213769350107 0.8196987306415573 0.07619820933040122 0 1 0
328 1 1.2041704972426863 1.854147528116453 11.402276975458463 0 1 -2
1565 1 5.300604338480886 0.5585526685141111 11.921071112888749 0 1 1
176 1 5.836291806229346 3.1776881750468364 10.663203917423129 1 0 0
1010 1 3.294556565298244 3.053417103920818 11.29516995662826 1 0 -1
12 1 4.3953177759553705 3.1259673680805333 8.594518059152618 0 0 0
212 1 3.3311270018444885 1.280893916849016 9.98631991113029 0 1 0
89 1 5.8825828680287735 1.1825502004919715 9.241359758439673 -2 1 1
1544 1 4.925539200666239 2.397448182245529 13.380969883163637 -1 1 1
881 1 3.2453677797491425 -0.2571289864139086 11.935087043714294 1 1 1
407 1 7.460711807446115 3.6106015813073613 13.037722580274272 1 1 -1
1349 1 9.80068827087859 -0.05900692806953667 11.146936035784108 1 2 0
900 1 11.001106508038092 0.34321114810514564 13.81346044829635 0 -1 0
528 1 6.801404535740557 3.8223580676462614 8.191945020318746 0 -1 0
1670 1 15.46952096917149 -0.45243291301104466 5.594592440893142 0 0 0
1989 1 20.032318023671372 11.16564333945289 9.723760596937069 -1 1 1
1894 1 7.610197821448601 1.3078479774737772 11.421420952808752 -1 2 0
80 1 9.651334834030521 2.098690178411803 12.684260183132022 0 0 -2
669 1 9.570984390197337 4.12727185613019 9.022383815148174 1 0 1
938 1 17.648331466269408 11.163867673766545 10.23014294943965 0 -1 1
1273 1 15.935581454030313 -0.3913505153134077 12.298733274933506 0 2 -2
306 1 12.94001123141485 1.7343111224950336 9.79210913108986 1 -2 -1
1191 1 20.86917579027261 12.405934263527282 11.815023494120368 0 0 1
1496 1 14.479922359637385 3.6631189486807587 7.952822277409469 1 0 1
1950 1 14.541279794900683 1.0964478196478138 13.733399092730101 0 1 0
1839 1 8.61452961868315 8.742876653736218 -0.7214390685990174 0 1 1
1202 1 14.884453933353846 1.929604731027089 11.086552381537139 -2 1 -1
607 1 17.489193027828676 3.2802681880847073 13.021736611731107 0 1 1
1934 1 12.340889682905186 1.6198332892944318 12.17505436759298 0 0 1
527 1 18.88809733076235 5.154979460916329 13.607162274130461 1 0 0
1981 1 19.65620570509876 1.5800153092313476 13.16456809321238 1 0 1
693 1 3.1973619045973174 5.048465431752357 13.566476026987946 1 0 -2
137 1 17.455845103238513 3.364995020249885 8.40036818919302 -1 0 -1
1412 1 19.722615095257677 3.004774809503506 9.136311602284753 -1 2 -1
452 1 17.207179359607505 1.9954474667473536 11.079989304396813 -2 -1 0
575 1 19.63773730623604 0.5964849624812183 11.07152689159306 0 -1 0
1178 1 19.242279615167597 3.2874416302058913 11.460173524434012 0 1 -3
783 1 25.134744418436195 0.7561751884284122 13.620346297609858 0 1 0
1953 1 24.12956221961431 2.3974391599873095 11.829602922306684 -1 0 0
695 1 20.93314917568921 4.320221547243045 13.025257534774545 0 -2 -1
316 1 21.347737958988116 2.798555797746296 10.979264371790721 0 1 -2
1527 1 22.298139123721455 2.4445699363976354 13.37552680636038 -1 1 1
1253 1 24.416656921249515 4.037152013879386 10.259624365223818 -1 1 0
1166 1 25.032316899313184 0.6313671043308413 10.492418320113558 -1 1 1
987 1 24.33049365240892 7.162134708302914 0.27861811513902346 1 0 1
1291 1 26.083216227270473 2.753469576542954 7.796289167047972 0 0 0
1113 1 28.770908459091814 3.1853320891146835 12.534675418545673 0 1 0
1049 1 27.15804771734083 0.6036986038564969 9.22604910536817 1 0 0
1687 1 26.60535350809633 1.798180924491998 12.336635605578625 -1 0 -1
710 1 28.34373978993162 8.301674809623968 11.775473134724459 -1 -1 0
967 1 8.660487030533146 0.044288005067743996 13.180107560342137 1 -1 -1
1313 1 1.6764369380823623 8.658139060386423 10.92213166547103 0 -1 1
1704 1 0.22300817810502005 6.471132814919515 10.816512010202057 0 0 0
1188 1 1.2907702601827995 9.921923283863016 13.726944827527944 1 0 0
1827 1 1.1887853115025078 4.952649941196658 12.244703088871047 1 0 0
440 1 -0.21477876618475245 3.573848886418003 10.21774084423006 1 0 1
1693 1 15.865384743045741 0.2830662009023941 2.602872486669374 2 1 2
839 1 23.539680042805248 8.269428782981986 12.081373020007728 -1 0 2
752 1 2.7312590527879688 6.591580018546476 11.564558229480772 0 0 1
82 1 5.6088052957460155 4.775677953332088 13.381871240760745 3 0 0
1088 1 6.948395764976035 4.964726237989083 10.72933012552374 2 1 0
1058 1 4.484630979368447 5.183211845447744 10.016327004980461 0 2 -1
1755 1 8.627643818266371 3.275871514982157 10.97385038505622 2 0 0
1711 1 3.992187933341495 8.164876245228724 10.318059055944646 0 1 1
1387 1 6.671507243912748 0.9619287179925349 13.98391222375257 0 1 0
1914 1 8.009567717570661 6.907214503701695 10.31950577033753 2 0 2
1754 1 11.33617526328706 6.09120805480055 10.981400474085502 0 0 0
1159 1 9.2314591018808 5.41567946376039 12.097788602785718 -1 0 0
1464 1 9.755624982196572 7.728062448627952 12.230635353965502 2 1 0
555 1 11.232620347256788 4.456582669856934 12.853911838631488 -1 0 -1
113 1 11.235735630243719 3.355099250486113 10.6128493393755 0 0 -1
359 1 8.483897082649827 10.269615287284351 11.457991355054862 1 -1 1
1007 1 14.488121902998346 7.657807128925963 12.972990382088712 0 0 -1
415 1 15.700868225666191 9.526997936764483 9.250980612434033 0 1 -1
630 1 13.880880424389185 6.6290992727063145 10.31558684613902 -1 2 0
157 1 12.22879711490874 7.68058560854141 12.249204471161956 0 0 2
1597 1 13.842458293538453 3.2214838690218763 13.049396879456525 0 1 1