LAMMPS data file via write_data, version 29 Oct 2020, timestep = 300000

2048 atoms
1 atom types

-0.10045909770841277 28.452459097706765 xlo xhi
-0.10045909770841277 28.452459097706765 ylo yhi
-0.10045909770841277 28.452459097706765 zlo zhi

Masses

1 58.933

Atoms # atomic

637 1 24.90067484346798 10.546259643117422 14.142009789684378 0 0 0
8 1 3.6391764610699173 1.5519566370723061 1.6941723835076752 0 0 0
35 1 1.7067770472336492 3.414548486724646 1.8262906299701118 0 0 0
130 1 1.7356667938544217 1.595682991034143 3.477113629649186 0 0 0
165 1 3.532808169339543 3.2989280074615843 3.41939574993625 0 0 0
4 1 0.017272728399364917 1.7398612532780093 1.6530877703157585 0 0 0
2 1 1.7981111879874798 1.701362489849611 -0.06582578507411918 0 0 0
481 1 -0.06271549222308792 10.673587785594044 10.649575807459925 0 0 0
12 1 6.916377151764919 1.760147408949331 1.7526619011214941 0 0 0
39 1 5.170148705092808 3.4433555844167696 1.806620143153368 0 0 0
134 1 5.311361618388622 1.6978951818758585 3.473338091936686 0 0 0
169 1 7.101172515969014 3.425144956259258 3.4157376424347965 0 0 0
16 1 10.497407853037297 1.7795059969970344 1.8675897188790442 0 0 0
43 1 8.936431364320317 3.492557998834772 1.797740776319584 0 0 0
138 1 8.732683917704717 1.5528988803692911 3.5064233520122383 0 0 0
173 1 10.601118394372051 3.610756707414711 3.5164737395663774 0 0 0
393 1 7.1107316917041965 -0.027232465114988003 10.562610824804898 0 0 0
20 1 14.27675253444175 1.6846542419029142 1.700878499372543 0 0 0
47 1 12.426652971216958 3.320968623243112 1.566388795482631 0 0 0
51 1 15.887989539644813 3.5251878969949577 1.6384986636267331 0 0 0
142 1 12.338684501284321 1.7199734832341083 3.526359760058558 0 0 0
145 1 14.041147445791113 -0.0796684878788881 3.418356405786332 0 0 0
146 1 15.955808785626331 1.5298943944662515 3.45690773107837 0 0 0
177 1 14.268771221117216 3.3810278683877066 3.5681278645203736 0 0 0
484 1 28.374431404459315 12.417970794510426 12.37236182275599 -1 0 0
17 1 14.229834396710961 0.013182174229088323 -0.03039751659194516 0 0 0
24 1 17.678555736417977 1.7566883704512832 1.5617917907714651 0 0 0
55 1 19.31773572483025 3.446617389476323 1.685097622109373 0 0 0
150 1 19.39587100056902 1.6948556293519128 3.554546823024696 0 0 0
181 1 17.64333931009466 3.4304770733566676 3.452485882484661 0 0 0
1435 1 23.131046855690368 14.118343456377273 12.395327311205556 0 0 0
23 1 19.503569043511977 -0.057045294494138914 1.7332147585663473 0 0 0
509 1 24.78400439755249 10.63178609501253 10.660937084500741 0 0 0
1433 1 21.28187834331405 14.16604468406549 10.607112684586525 0 0 0
28 1 21.28283472161165 1.6390993375849179 1.7190720847399321 0 0 0
57 1 21.31517937520808 3.5058574601481687 -0.03795816514972382 0 0 0
59 1 23.057071198125843 3.3751017076431586 1.7406992446676988 0 0 0
154 1 23.18230353222622 1.5517626556023452 3.533676247273741 0 0 0
185 1 21.12066945124308 3.4059441538545845 3.472363943834022 0 0 0
153 1 21.390006399821697 -0.08563601580660579 3.452822435461997 0 0 0
161 1 28.44708972085558 3.4303984601706743 3.601072731855019 -1 0 0
32 1 25.027696231180617 1.627380416289501 1.6658233073338953 0 0 0
63 1 26.747231387502765 3.4563992731761406 1.4863850382065562 0 0 0
158 1 26.900264778514895 1.682451152338234 3.500449299047588 0 0 0
189 1 24.967710984213472 3.18448788449805 3.4370478233419623 0 0 0
1423 1 12.409934331956626 14.167102840351042 12.399377180610237 0 0 0
1409 1 -0.07549921932470573 14.055386581033707 10.588332941995231 0 0 0
277 1 17.75144885881803 0.03519307087089629 6.970897747727398 0 0 0
61 1 24.695924733633287 3.518316988148797 -0.027087676789184625 0 0 0
40 1 3.5867237549739888 5.312349706279664 1.7279625488810884 0 0 0
67 1 1.6706507807173738 6.91549032138373 1.7895047785448366 0 0 0
68 1 -0.07625808659611533 8.731484281468019 1.5499769861407342 0 0 0
72 1 3.2713856909893213 8.845358178291761 1.674386227481788 0 0 0
162 1 1.6887445972784547 5.163344907511683 3.600115265440835 0 0 0
193 1 28.366149705941673 6.914626351871407 3.4886882780629365 -1 0 0
194 1 1.6393907185558119 8.775101228134272 3.5327840613871 0 0 0
197 1 3.4578344859737125 7.02466453855559 3.5761659092635094 0 0 0
34 1 1.7389092661751437 5.072785574208218 -0.016601385318074882 0 0 0
36 1 28.452322447696012 5.080639992688071 1.6484092698983852 -1 0 0
69 1 3.374669806339452 6.9993478809471394 -0.09481627530340227 0 0 0
44 1 7.005357254183409 5.294359079407687 1.6462073475416605 0 0 0
71 1 5.171694281540358 7.089072527893301 1.5494748552822004 0 0 0
76 1 7.042278243965639 8.683153783017003 1.6378763579211855 0 0 0
166 1 5.377389488739219 5.211165542183885 3.560022076796464 0 0 0
198 1 5.229800520552295 8.847129793316038 3.429344877467406 0 0 0
201 1 7.0405261720935 7.027651548631351 3.403660363436854 0 0 0
38 1 5.2816194882091 5.144488586430386 0.014094578011015366 0 0 0
273 1 14.182317021079033 -0.061079526148681396 6.993838667408017 0 0 0
48 1 10.758572181438765 5.219551480079084 1.5805918753216113 0 0 0
75 1 8.900525164326924 7.046416745596237 1.6681681421775199 0 0 0
80 1 10.656546358389356 8.709958489135843 1.649358989607976 0 0 0
170 1 8.75011782716952 5.406785436311035 3.350074782478897 0 0 0
202 1 8.858964784406199 8.839067708416643 3.406179401350382 0 0 0
205 1 10.654661055083928 7.049977327480959 3.4142911268354945 0 0 0
271 1 12.427472717026403 -0.05200726480072149 8.841359995837141 0 0 0
52 1 14.206247731233105 5.1586513539437115 1.566852828561637 0 0 0
267 1 8.777655388449874 -0.06484214424490276 8.732019675965514 0 0 0
79 1 12.360796975612926 7.095440824602223 1.5674469726543516 0 0 0
83 1 15.9043694846258 6.965243975943926 1.6522233772152617 0 0 0
84 1 14.179318171013684 8.715748104221053 1.5662770214252693 0 0 0
174 1 12.428166922402351 5.177355305490585 3.45265660823949 0 0 0
178 1 15.872456714388496 5.234878379595518 3.5925957363313334 0 0 0
206 1 12.351904505823454 8.819336379614256 3.448357236955912 0 0 0
209 1 14.133504897286063 7.047243826425211 3.498799469612426 0 0 0
210 1 16.165449523285176 8.762751672170264 3.6032428763374362 0 0 0
139 1 8.856075246657833 -0.07596673350753136 5.247385278149774 0 0 0
135 1 5.363439092267169 -0.0501589068452617 5.209534896193547 0 0 0
1309 1 24.881567633449855 14.094984412766523 7.02817442548065 0 0 0
56 1 17.775260172627732 5.251048992139513 1.7534746139394948 0 0 0
87 1 19.575054783984534 7.045675417800789 1.6533784414093828 0 0 0
88 1 17.62349224634873 8.778920784697787 1.6275720338054462 0 0 0
182 1 19.486825639324366 5.245642549164436 3.4617700057204273 0 0 0
213 1 17.653641673296395 6.999402469695457 3.511140308394114 0 0 0
214 1 19.368941825269633 8.743778353320968 3.572358940086723 0 0 0
1307 1 23.010421864729235 14.075631297893732 8.84042037559423 0 0 0
1303 1 19.42775456152346 14.15005763353903 8.805546218880233 0 0 0
60 1 21.309527248756186 5.179025420442942 1.7191389429443558 0 0 0
91 1 23.04672968209791 7.133480761804984 1.7542782243293384 0 0 0
92 1 21.31163180901214 8.842764225715786 1.7797952147682221 0 0 0
186 1 23.20916344787491 5.093391108953047 3.5129655439657164 0 0 0
217 1 21.20179111243657 7.044509038754134 3.4091620009276538 0 0 0
218 1 23.102575315179372 8.744818157112409 3.5437414952546984 0 0 0
89 1 21.32353635549197 7.167172484013691 -0.033024839366336045 0 0 0
64 1 24.882905340458404 5.112507534998462 1.6909495925002038 0 0 0
93 1 24.89458856241793 7.118141219741414 -0.005785945998658074 0 0 0
95 1 26.724690059873524 7.002028349621421 1.7145671553303663 0 0 0
96 1 24.906296731730865 8.707014399720837 1.8534028339747288 0 0 0
190 1 26.636811576287183 5.079800417266224 3.4693532812894485 0 0 0
221 1 24.97210940615257 6.948549186818316 3.3650211595730335 0 0 0
222 1 26.71200437002151 8.769599830801221 3.407638401205325 0 0 0
1299 1 15.969860500215585 14.162383017494776 8.879554904067106 0 0 0
98 1 1.6927734564484835 12.249134200469936 -0.04228662347301638 0 0 0
99 1 1.5362558745797485 10.525797750043179 1.606654737304596 0 0 0
104 1 3.535277727668019 12.345922967332093 1.584640871964437 0 0 0
225 1 28.363051920737323 10.505024479305398 3.407625408128854 -1 0 0
226 1 1.684167571970259 12.394782474124217 3.3523722867350276 0 0 0
229 1 3.359850840593399 10.615496253388631 3.517750990869518 0 0 0
1157 1 3.373473948408302 14.16229356016887 3.5443943665005433 0 0 0
1153 1 28.38180509450224 14.134407755428906 3.4647884584416406 -1 0 0
1293 1 10.490381611648107 14.056456935742819 6.987735010600309 0 0 0
103 1 5.137809881273324 10.47230803505518 1.6712871127273223 0 0 0
108 1 6.992811721198222 12.299490731543424 1.6162796617181354 0 0 0
230 1 5.324295654885959 12.417279022982415 3.379007020128653 0 0 0
233 1 7.015347588997513 10.563198185053531 3.3834796447867346 0 0 0
1291 1 8.991014658614784 14.147313010775626 8.746540089513601 0 0 0
107 1 8.767168591598024 10.553333235876444 1.5646832679552627 0 0 0
112 1 10.554626552468331 12.388703956786296 1.6684240150864968 0 0 0
234 1 8.815988495917576 12.313254565602655 3.3576762505418394 0 0 0
237 1 10.63719879417511 10.526471236931512 3.514979899389353 0 0 0
510 1 26.610115678459103 12.39171760785392 10.500561069322897 0 0 0
511 1 26.65172372977232 10.648856699825288 12.311508690789063 0 0 0
111 1 12.351632347668087 10.53481795700469 1.694511291774224 0 0 0
114 1 15.939494167875985 12.364218622902175 -0.08761025155890134 0 0 0
115 1 16.01307357427842 10.633209016702223 1.6377586208103136 0 0 0
116 1 14.087925175153295 12.271641390692245 1.7584602454724907 0 0 0
238 1 12.39285174511309 12.25684015527274 3.575966574349031 0 0 0
241 1 14.213300938973033 10.585263929775978 3.458735595262555 0 0 0
242 1 15.898570513502404 12.331844568488696 3.4547572792136507 0 0 0
1043 1 15.905714053427193 14.100628277341084 1.6208009211935437 0 0 0
1039 1 12.434123379438676 14.102219813163925 1.6633094765209062 0 0 0
1159 1 5.253378780321239 14.153572615716222 5.312938634317054 0 0 0
1289 1 7.080940271375447 14.066470431425348 7.091335192275923 0 0 0
1287 1 5.270298412290708 14.118921049925058 8.904022978600523 0 0 0
119 1 19.374450548342505 10.670320862897329 1.632567456840419 0 0 0
120 1 17.7506876932756 12.313451207724553 1.6264014435494336 0 0 0
245 1 17.66476642113494 10.694177444259138 3.4509793210292776 0 0 0
246 1 19.57951640584996 12.578144656784206 3.489930122145263 0 0 0
1173 1 17.76041783978078 14.145220885170389 3.2946306461307233 0 0 0
118 1 19.42622249183891 12.402292065762952 -0.08875358919018993 0 0 0
123 1 22.970110540012985 10.574769927220602 1.7195619444673649 0 0 0
124 1 21.271956384445502 12.405610905251569 1.8322718657108827 0 0 0
249 1 21.088006726951715 10.55856806890898 3.4790955088060813 0 0 0
250 1 23.023942563652298 12.193391879920648 3.557441507556941 0 0 0
1285 1 3.5320267539743972 14.075870105597627 6.9869688442541005 0 0 0
100 1 -0.074823601087747 12.34147198827885 1.7293052091336214 0 0 0
127 1 26.715209294932766 10.811285766994175 1.5930043389092603 0 0 0
128 1 24.987805066803325 12.54517022452913 1.638542066545764 0 0 0
253 1 24.938915042392832 10.534216444005715 3.3623623402278087 0 0 0
254 1 26.499938174602537 12.37116887461314 3.482099916159906 0 0 0
512 1 24.824323902489493 12.379021178033645 12.449984344232107 0 0 0
31 1 26.70306301268594 -0.09776264211099317 1.6301007166718577 0 0 0
136 1 3.6808975746445367 1.7495742838213775 5.326599781380594 0 0 0
163 1 1.815072050355065 3.2676028344035517 5.147624679668543 0 0 0
258 1 1.7741052657034189 1.737771122725315 6.964672685708635 0 0 0
634 1 23.109863569634342 12.466430636436801 14.168271412643909 0 0 0
260 1 -0.021345031494729272 1.7519110492684342 8.827728982234916 0 0 0
264 1 3.5199380189871126 1.7376368661984947 8.70452822543769 0 0 0
291 1 1.6086032280115523 3.465520767790105 8.797517190115878 0 0 0
293 1 3.43355935217189 3.6376744333905906 7.022776097609997 0 0 0
289 1 -0.09401212196419668 3.431435180204862 7.008460721458723 0 0 0
257 1 0.00585299667419556 -0.0961953910695035 6.986499374656738 0 0 0
505 1 21.442003730952298 10.51068078800612 10.67692146176864 0 0 0
140 1 6.992090307236746 1.73110614701157 5.265014176334003 0 0 0
167 1 5.327657261348055 3.5802784833776844 5.297498932362527 0 0 0
262 1 5.21461943420912 1.5428865976925306 7.060702595703928 0 0 0
268 1 7.100863411770231 1.771909015734841 8.78425995532156 0 0 0
295 1 5.28390107665643 3.4114514463217738 8.8781679506216 0 0 0
297 1 7.11609288364166 3.5010432025200204 7.085249556818063 0 0 0
144 1 10.551566322257512 1.698686401170086 5.202543212566083 0 0 0
171 1 8.836377530782046 3.6197048066794824 5.2312721530442845 0 0 0
266 1 8.773506665344868 1.6024151864536458 6.972244459011676 0 0 0
272 1 10.565667872431378 1.6273266282937922 8.905003512973828 0 0 0
299 1 8.851896019465993 3.559985341642485 8.85113611278137 0 0 0
301 1 10.585768192167075 3.5070934058672747 7.114530067151253 0 0 0
275 1 15.972552646111314 0.06129506069643578 8.865948637975205 0 0 0
148 1 13.948410697588681 1.6908749902339228 5.254410656215702 0 0 0
175 1 12.32751634599473 3.4915312348524057 5.291953487603506 0 0 0
179 1 15.92322176772311 3.3862343558441013 5.408377166621507 0 0 0
270 1 12.19698302786612 1.7064636880179307 7.089814938330836 0 0 0
274 1 15.911021547847948 1.645408708323617 7.062601328456566 0 0 0
276 1 14.12246522916157 1.7260623580220245 8.881829024377879 0 0 0
303 1 12.321978103863874 3.631574981648795 8.843214101843625 0 0 0
305 1 14.110136196814427 3.5345588276117863 7.02420690604659 0 0 0
307 1 15.952417220281824 3.503672351256976 8.819514090229122 0 0 0
506 1 23.155549998103133 12.35792915455868 10.635227019329639 0 0 0
279 1 19.478407498295 -0.041871760082090814 8.814639593707883 0 0 0
152 1 17.68437937219665 1.6779690218845285 5.2605517012656975 0 0 0
183 1 19.442120971087448 3.575793083686421 5.201436041150231 0 0 0
278 1 19.474361511131693 1.7035755568137136 6.977629833660855 0 0 0
280 1 17.661973905353662 1.744978824006873 8.923470485893883 0 0 0
309 1 17.665590634568783 3.413516224553687 7.094872729879247 0 0 0
311 1 19.453216718907612 3.3794667990391565 8.787388889323758 0 0 0
507 1 23.120893777575944 10.574492275180791 12.57080572055694 0 0 0
156 1 21.266169490322127 1.6655522643219483 5.262385805537472 0 0 0
187 1 23.009694693290363 3.2666119086786938 5.158978942299214 0 0 0
282 1 22.955735325179706 1.6650193332487484 7.02340726715593 0 0 0
508 1 21.39993306740712 12.39880200804043 12.405769562616527 0 0 0
284 1 21.253097723669487 1.75476841673365 8.874640320558367 0 0 0
313 1 21.247864913097995 3.4366901611719776 7.047675048177979 0 0 0
315 1 23.0965689977062 3.505927828905786 8.853131113370592 0 0 0
501 1 17.836234055405477 10.446261081611768 10.717126222783111 0 0 0
502 1 19.508998210814013 12.398913268802684 10.56610684440434 0 0 0
503 1 19.74082489873642 10.552490386029387 12.472854624339663 0 0 0
132 1 0.02955596413845285 1.5653338091276086 5.219868283955392 0 0 0
160 1 25.008361235729073 1.530922280711664 5.271889913528463 0 0 0
191 1 26.768833154372025 3.3796279970388867 5.318850208720552 0 0 0
286 1 26.715998144009827 1.6741433620125177 7.076344506704428 0 0 0
288 1 24.842345936663374 1.7439171214629825 8.738526156079486 0 0 0
317 1 24.854124041841295 3.4535547458434537 6.88572279823377 0 0 0
319 1 26.656943045626736 3.481785631351336 8.87327852925704 0 0 0
164 1 28.450481111305304 5.198526547074614 5.197787578972584 -1 0 0
168 1 3.451563552035922 5.285963076509367 5.231448436252363 0 0 0
195 1 1.7389619186645342 7.037577726123666 5.385189378630037 0 0 0
200 1 3.3812732500510356 8.869353205195324 5.360571821937834 0 0 0
290 1 1.5937357051936596 5.318208201333781 7.032040233765326 0 0 0
296 1 3.338720525828416 5.176978683095028 8.844463635214368 0 0 0
321 1 28.435840162492543 7.035433987827077 6.858096528491247 -1 0 0
322 1 1.6410611143959142 8.871528292446897 7.023488216780521 0 0 0
323 1 1.5580939052664895 7.07819871871953 8.883024027721008 0 0 0
324 1 28.43559418315737 8.723446824585091 8.726514994709158 -1 0 0
325 1 3.5247623361227904 6.876338851790034 7.060576720527477 0 0 0
328 1 3.383198855981483 8.879023064872786 8.81144025459377 0 0 0
292 1 -0.0803293155711331 5.25681295517187 8.742384387939838 0 0 0
172 1 7.003100539105916 5.414070807971298 5.289259045563563 0 0 0
199 1 5.219062398096235 6.9712310447572525 5.360447525616963 0 0 0
204 1 6.933980557776283 8.667365145526974 5.327338915796202 0 0 0
294 1 5.2778486420083714 5.2039357322333695 7.119756510925875 0 0 0
300 1 6.99735972940533 5.2446795832636255 8.911528629574088 0 0 0
326 1 5.14195103269055 8.79204308570324 7.171479326357695 0 0 0
327 1 5.299853128713204 6.966826922536497 8.863422081051517 0 0 0
329 1 6.881745864047462 7.074352666496941 7.239464035536943 0 0 0
332 1 7.040788656912426 8.965231410704606 8.865284420235211 0 0 0
176 1 10.573905719750641 5.280237320224724 5.265404455368754 0 0 0
203 1 8.71929478068978 7.1191794911662925 5.216095866335949 0 0 0
208 1 10.64923209812969 8.840073436095384 5.280779851140423 0 0 0
298 1 8.795633962825171 5.359468848466508 7.027038689582817 0 0 0
304 1 10.612363508550184 5.4308656724411275 8.874613426393081 0 0 0
330 1 8.776853630606926 8.675427224232008 7.119663306251005 0 0 0
331 1 8.70264990935056 7.059125045941295 8.838296805400539 0 0 0
333 1 10.555461963353778 6.947826645630241 6.969068099506757 0 0 0
336 1 10.609670581445215 8.755920298293617 8.810004770958443 0 0 0
180 1 14.165578053996319 5.290199400883785 5.325867855385798 0 0 0
207 1 12.421999907921528 7.010632940699242 5.258106126971363 0 0 0
211 1 16.074835400974578 7.147141562140164 5.409911927972693 0 0 0
212 1 14.32613455888588 8.877000351408826 5.313958680212977 0 0 0
302 1 12.317985420741696 5.3238797985322766 7.0389016289996045 0 0 0
306 1 15.962326170337256 5.1723473803543625 7.108214468943815 0 0 0
308 1 14.153496978515943 5.181927408980609 9.02025346177358 0 0 0
334 1 12.393165374992643 8.813579467256721 7.040197258476426 0 0 0
335 1 12.408104382038552 7.093686677837266 8.8685166128624 0 0 0
337 1 14.172903231053018 6.883887692941419 7.044312311430331 0 0 0
338 1 16.078526129811586 8.942715813343822 7.089392752699891 0 0 0
339 1 16.002140062707337 7.057296843156841 8.830444100565082 0 0 0
340 1 14.311659337112998 8.651713621067115 8.858484357485683 0 0 0
184 1 17.751352617282908 5.133972470148811 5.314221702615711 0 0 0
215 1 19.54483533235541 6.919856638645401 5.3087654719309585 0 0 0
216 1 17.826624661206587 8.984100783191513 5.2962903679479805 0 0 0
310 1 19.479724294569017 5.252449378306281 6.967063077860048 0 0 0
312 1 17.70429901000815 5.298711891197451 8.7975155423885 0 0 0
341 1 17.70294553596614 7.164100875247813 7.02636557762664 0 0 0
342 1 19.535634328581928 8.992016858215187 7.091451437699917 0 0 0
343 1 19.489387632278905 7.0934862983900215 8.723115741990426 0 0 0
344 1 17.793945986669733 8.970108316379255 8.939944532196712 0 0 0
188 1 21.30798358463558 5.172724606153087 5.118033888325578 0 0 0
219 1 23.229571974419894 6.956464807029745 5.250730078877616 0 0 0
220 1 21.089191844829873 8.897088489515387 5.181241838216311 0 0 0
314 1 23.001447026995447 5.25306200817814 7.029744914622213 0 0 0
316 1 21.245513093268816 5.243167077058142 8.7121939695094 0 0 0
345 1 21.286508832918756 7.0864419562300665 6.910291715310153 0 0 0
346 1 23.078775158620573 8.695575220522832 7.128274279584636 0 0 0
347 1 23.08174228743243 6.976680867232124 8.830327780023616 0 0 0
348 1 21.370900600589604 8.780106159113696 8.847325597472564 0 0 0
196 1 28.39757228525792 8.874323473341537 5.168142538364179 -1 0 0
192 1 24.89682429002025 5.172326422286253 5.196675775905597 0 0 0
223 1 26.573451059888825 6.85488094495357 5.228950108301697 0 0 0
224 1 24.794773478509807 8.77861533834183 5.167062197881316 0 0 0
318 1 26.60684810283187 5.193114702058983 6.809542020501385 0 0 0
320 1 24.739611070918187 5.14514276218339 8.883238981640796 0 0 0
349 1 24.921847039477242 6.954791943784325 7.111267835727679 0 0 0
350 1 26.57072346905436 8.702855478647095 7.022857885447631 0 0 0
351 1 26.698843775091156 7.017784134187008 8.814063403960699 0 0 0
352 1 24.95554606459988 8.660368010407488 8.749469132540598 0 0 0
227 1 1.6706617327913158 10.633430291229809 5.357960814556117 0 0 0
228 1 28.375040618734264 12.195644103362836 5.095374653999951 -1 0 0
232 1 3.5510596699632675 12.325024535863722 5.211251627601208 0 0 0
354 1 1.658006056753713 12.369373540125462 6.995247099640085 0 0 0
355 1 1.6342563419350282 10.631420800338562 8.778029162396942 0 0 0
357 1 3.5067154755834475 10.681095991360708 7.018480847102421 0 0 0
360 1 3.3944858854316586 12.435207212687468 8.790423025256766 0 0 0
1281 1 28.33232490961251 14.173517789175708 6.941729857962064 -1 0 0
1155 1 1.690475413384706 14.007870575275945 5.265343406352675 0 0 0
231 1 5.205485212904392 10.607954353437945 5.282487683629559 0 0 0
236 1 7.0810459655025015 12.390718558976227 5.337732070472035 0 0 0
358 1 5.360309643972548 12.446107610077473 7.229372226766261 0 0 0
359 1 5.223483758028906 10.692041900149066 9.036035006942871 0 0 0
361 1 7.0339740677796305 10.54539952151852 7.156584420115085 0 0 0
364 1 7.111636541609705 12.340946597184127 8.823739872325634 0 0 0
1163 1 8.859636618718374 14.166691324647699 5.203353293680998 0 0 0
235 1 8.617754504170744 10.525448381465804 5.351001961847775 0 0 0
240 1 10.615983729312102 12.257124650172907 5.347922711909583 0 0 0
362 1 8.802787605250554 12.401304183802067 7.063100189354656 0 0 0
363 1 8.932826249220012 10.673130789392546 8.800438503717691 0 0 0
365 1 10.636400479922811 10.70990772555247 7.030992338450387 0 0 0
368 1 10.719750666053521 12.393623179045889 8.853841997458103 0 0 0
1297 1 14.12822839181606 14.112134942809329 7.1990074149771415 0 0 0
1295 1 12.315966032320336 14.138332805659704 8.82923953920877 0 0 0
504 1 17.711238840389257 12.41741373962414 12.434148674981031 0 0 0
239 1 12.531563951293878 10.453734786698483 5.369217700812673 0 0 0
243 1 16.180130007269877 10.683117903771072 5.172938467266562 0 0 0
244 1 14.144171895298687 12.340040485476402 5.259800013228605 0 0 0
366 1 12.47942841566036 12.296189062958172 7.037143493499291 0 0 0
367 1 12.434727723267857 10.593151772749952 8.913826072843882 0 0 0
369 1 14.348055862374267 10.519034368322398 7.164302671937234 0 0 0
370 1 15.833775099707713 12.397689050791419 7.013740423278414 0 0 0
372 1 14.29095423023104 12.41336262153145 8.94499990218333 0 0 0
371 1 15.906951995571315 10.50281356042574 8.961726376436328 0 0 0
247 1 19.48732410311068 10.685760403031965 5.20943820027266 0 0 0
248 1 17.66652390087018 12.477637339218196 5.333300165024364 0 0 0
373 1 17.684370544568374 10.800324810317806 7.101805242751274 0 0 0
374 1 19.458234351551837 12.523923487561325 6.99746581384066 0 0 0
375 1 19.55845083918908 10.653102692887726 8.916278294913441 0 0 0
376 1 17.561599296010037 12.381878234135847 8.979104010295138 0 0 0
251 1 23.00323840141945 10.447518670924886 5.298898867515022 0 0 0
252 1 21.249436254417326 12.475670040357935 5.279836834311727 0 0 0
377 1 21.314231392577003 10.576708544576347 7.0306965875708896 0 0 0
378 1 23.043419145212543 12.341064484264418 7.037429249415261 0 0 0
379 1 23.031052316413778 10.626567797366208 8.803980651507109 0 0 0
380 1 21.28574613407812 12.280131637317181 8.8115584884481 0 0 0
1183 1 26.55409438885742 14.115385993330063 5.184051865643131 0 0 0
356 1 28.275889314796597 12.365036987535534 8.916909336095543 -1 0 0
353 1 28.24150191712014 10.67092416314194 6.969143733372422 -1 0 0
629 1 17.70058544669355 10.602190621066994 14.14735677546861 0 0 0
255 1 26.52434589052838 10.567359926860817 5.302068629093385 0 0 0
256 1 24.75932708911966 12.432120889782087 5.145380883083702 0 0 0
381 1 24.847089506935642 10.607476406241947 7.096864545217306 0 0 0
382 1 26.60202061696591 12.462987210248164 7.009217245398244 0 0 0
383 1 26.637873764695353 10.507213130358235 8.890651893407195 0 0 0
384 1 24.76786244897445 12.287245001811854 8.69352020283434 0 0 0
387 1 1.7433797325791214 -0.04934682992279429 12.50082023920872 0 0 0
386 1 1.702579877392399 1.5817009319026818 10.516568448448725 0 0 0
27 1 23.072167689760125 -0.05849422872121224 1.6476884983251503 0 0 0
392 1 3.5942096009386275 1.6771668411496055 12.275381156120085 0 0 0
419 1 1.7079627697366822 3.3855046145979557 12.34912409772901 0 0 0
421 1 3.3249255465113725 3.5156629273423405 10.585392863297887 0 0 0
417 1 -0.00955955084627226 3.434618369984252 10.52538654745992 0 0 0
15 1 12.483170248372218 -0.05405880402032892 1.6274425196563171 0 0 0
545 1 -0.031571865170283264 3.406564918386928 14.108802366105026 0 0 0
413 1 24.816587839500777 0.08873851243361486 10.50735779380505 0 0 0
494 1 12.337374900925898 12.36978455532808 10.767992572137214 0 0 0
390 1 5.195658424559043 1.6965679037691699 10.625068546346494 0 0 0
396 1 7.121035657148438 1.7848805666914833 12.356949789832322 0 0 0
423 1 5.245604839622577 3.385257957091625 12.390911396725894 0 0 0
425 1 7.004970123076888 3.4893967564295534 10.592356965646868 0 0 0
141 1 10.564949088761717 -0.035043437300949165 3.4366925438857727 0 0 0
495 1 12.176810885693829 10.457640488269327 12.291298247515009 0 0 0
394 1 8.887675285010786 1.7290936830175432 10.555622130808468 0 0 0
395 1 8.753298632080702 -0.027476815355400114 12.316729405144907 0 0 0
400 1 10.565822959263725 1.8212484951772694 12.331248480547405 0 0 0
427 1 8.67014023295437 3.5865122119259576 12.411321758256314 0 0 0
429 1 10.51274840529107 3.682811722365954 10.615449488555736 0 0 0
399 1 12.373189874340623 -0.06820957545044118 12.277446929707502 0 0 0
401 1 14.19398210710413 -0.008505466755132904 10.588570721532463 0 0 0
403 1 16.03729811857406 -0.060833049450228896 12.510726214643341 0 0 0
398 1 12.294628724720988 1.8045523850605032 10.655845578415697 0 0 0
402 1 15.886624908174738 1.8254588723784622 10.648077839692121 0 0 0
404 1 14.156067504709855 1.7948421399429588 12.44758173452557 0 0 0
431 1 12.366636722725763 3.5465933874891227 12.400577253647082 0 0 0
433 1 14.130920035579773 3.4243854717706737 10.682985860658821 0 0 0
435 1 15.88326510901015 3.4362940456661826 12.459916658839987 0 0 0
11 1 8.819013163840745 -0.09741299803280867 1.6800680234105578 0 0 0
530 1 15.940904400663538 1.5965078509965263 14.15915580437094 0 0 0
407 1 19.40418282251486 -0.01278565443368139 12.468447747222612 0 0 0
406 1 19.491506983060432 1.5873914714798651 10.622656486777181 0 0 0
408 1 17.755156042323232 1.755940412395832 12.33822526037413 0 0 0
437 1 17.794537090174654 3.5312456702494983 10.580607061161432 0 0 0
439 1 19.535685383345417 3.4497665702799183 12.435502832940132 0 0 0
565 1 17.687722321375716 3.514346829455685 14.08698369445381 0 0 0
137 1 6.995571786758784 -0.04489917835057966 3.470214308931752 0 0 0
410 1 22.97596288900042 1.706434102036157 10.72210587207678 0 0 0
497 1 14.153209942927967 10.579647458630152 10.758477737908196 0 0 0
412 1 21.29246732440855 1.6139521093236164 12.28888998016087 0 0 0
441 1 21.200470735716035 3.528074515214862 10.618114951203008 0 0 0
443 1 23.136111870937558 3.4923358874548325 12.422358726316343 0 0 0
388 1 28.39434807578922 1.6102887480473966 12.252747890199005 -1 0 0
414 1 26.725687297451618 1.646473764456039 10.576708118798027 0 0 0
498 1 16.015634481252288 12.398522453607796 10.764268501169107 0 0 0
416 1 24.86917591477822 1.6365559787270283 12.334718163782153 0 0 0
445 1 24.8610301656787 3.2439034926345527 10.5910301187889 0 0 0
447 1 26.653930671970425 3.534096876693032 12.397419593714236 0 0 0
541 1 25.017053961061364 -0.09466402432987348 14.0603749583081 0 0 0
573 1 24.83206393232846 3.4527786934404823 14.164968760509604 0 0 0
418 1 1.6588833400232874 5.356374779202491 10.627674946423385 0 0 0
424 1 3.550594383901633 5.137667224608251 12.467764506962082 0 0 0
450 1 1.6539372512393669 8.870194671016396 10.595626875985532 0 0 0
451 1 1.6773193930418533 7.054244710655845 12.453777489702405 0 0 0
453 1 3.4824779616859494 7.006663115773499 10.717870757256097 0 0 0
456 1 3.390676648544971 8.767726616685271 12.4627457818751 0 0 0
133 1 3.570678667197552 -0.023424442074624352 3.6030984120080882 0 0 0
420 1 -0.07239500237449298 5.269491910877915 12.393537535690308 0 0 0
546 1 1.7792308176975016 5.168063424371721 14.126109153134141 0 0 0
422 1 5.222801913286153 5.159241710657327 10.643229976905138 0 0 0
428 1 6.884362967214955 5.184427769437232 12.38184944132766 0 0 0
454 1 5.157947764083697 8.948933046122624 10.705592789739258 0 0 0
455 1 5.184946907517823 7.155405107652518 12.308400283807888 0 0 0
457 1 6.911639889244169 7.056098845929664 10.712321216713837 0 0 0
460 1 6.7701054128795235 8.938446539492716 12.489330490214277 0 0 0
1165 1 10.644008928903466 13.960914583210004 3.3991958549043875 0 0 0
582 1 5.1853732068084115 8.916541426288951 14.16768811212403 0 0 0
1031 1 5.255683957641583 14.14424455332335 1.7218784466526542 0 0 0
426 1 8.691993599701048 5.394855697056297 10.69352137938908 0 0 0
432 1 10.638302915386413 5.329585068302826 12.414159638533949 0 0 0
458 1 8.874037887551745 8.741918316627077 10.734219793685568 0 0 0
459 1 8.653621582127704 7.174090616965483 12.522101023555672 0 0 0
461 1 10.647189336670998 7.043117227362688 10.753106807178307 0 0 0
464 1 10.633250939776888 8.843274479916433 12.356902799629058 0 0 0
430 1 12.442932843113713 5.215579037426511 10.701383976397626 0 0 0
434 1 15.984832395363458 5.164527708908672 10.867231408050129 0 0 0
436 1 14.177879578025738 5.3346973035838925 12.24780549882347 0 0 0
462 1 12.474968855694668 8.748832993817858 10.553422861394973 0 0 0
463 1 12.440205138936518 7.015779298976294 12.453610957390605 0 0 0
465 1 14.383006664531347 6.985929480950326 10.684582543482703 0 0 0
466 1 15.90528275981574 8.797357881397485 10.678628638977829 0 0 0
467 1 16.02781012849111 7.152772558940449 12.469696347428439 0 0 0
468 1 14.007318665477438 8.856621278921182 12.407755372400278 0 0 0
1161 1 7.0032829122640425 14.167620398976698 3.40828795496599 0 0 0
1027 1 1.6605329450778805 14.120642822743905 1.6926356793233306 0 0 0
490 1 8.814872740554476 12.5264966512168 10.695608589104154 0 0 0
491 1 8.906541242745611 10.662047088986847 12.400197352791045 0 0 0
438 1 19.605432606110547 5.383009454098024 10.728141457002662 0 0 0