LAMMPS data file via write_data, version 29 Oct 2020, timestep = 300000

2048 atoms
1 atom types

-0.40665751654133153 28.758657516539614 xlo xhi
-0.40665751654133153 28.758657516539614 ylo yhi
-0.40665751654133153 28.758657516539614 zlo zhi

Masses

1 58.933

Atoms # atomic

35 1 0.8025303508383628 3.261233855342527 1.236447409954318 0 0 0
130 1 1.4122388515129176 1.1619782738154085 2.8095441947927244 0 0 0
165 1 2.9694750437578823 2.8528978088458388 2.949710260958108 0 0 0
8 1 3.254879704771115 1.157758005964879 1.2297170320491786 0 0 0
4 1 28.291573926723444 1.323612571815458 1.050309787444187 -1 0 0
161 1 28.434674069030642 2.657040714934589 3.207100809176169 -1 0 0
1437 1 25.003614418135 14.161512057904341 10.382067547062796 0 0 0
512 1 24.76840012353849 12.428833144237913 12.550352342243736 0 0 0
630 1 19.625944354180426 12.725396687265363 13.92442170154178 0 0 0
12 1 6.70886989916343 1.3389169485750299 1.6386669961253078 0 0 0
39 1 4.849061984454446 3.127482425942729 1.5092132192132321 0 0 0
134 1 4.921024467997053 1.2969845897880694 3.1554637349790187 0 0 0
169 1 6.8426372215172515 3.3078622405564673 3.216913312860759 0 0 0
1169 1 14.60065444174535 14.108259626081544 3.4292817476822637 0 0 0
138 1 9.064250073186447 1.7148202837410271 3.1661219896118222 0 0 0
43 1 9.188237854326898 3.4129011825478863 1.4645514701341131 0 0 0
16 1 10.997604662531865 1.1657101295123917 1.5449361376129125 0 0 0
173 1 11.059780761554041 3.0711986064088412 3.196547033377978 0 0 0
509 1 25.32377284594879 10.93181141290954 10.543313624091235 0 0 0
521 1 7.063455314372029 -0.26912501023645397 14.008863643907834 0 0 0
27 1 23.173546828715786 -0.3305158889156428 1.146985415415302 0 0 0
47 1 12.223795468882875 3.530643574401847 0.9822622678585424 0 0 0
142 1 12.465524750541515 1.1749336629220566 3.4779173138756665 0 0 0
20 1 13.840914522908353 1.2955593992971763 1.3784939839285517 0 0 0
177 1 14.09662554642009 3.210692539792714 3.0139316576871193 0 0 0
51 1 15.891947554588329 3.0114031642849834 1.2790728462081744 0 0 0
146 1 15.63185136754222 1.3207142365930062 3.1310579554330498 0 0 0
510 1 26.849698633063127 12.319225768713029 10.561594797546977 0 0 0
24 1 18.074176452088416 1.034299110391161 1.626924128903759 0 0 0
55 1 19.550125461541306 2.9801470394901397 1.6071851807026918 0 0 0
181 1 17.717273077990477 2.78234880056089 3.2212000787449453 0 0 0
150 1 19.596341211159803 1.2595080526629567 3.417220623645345 0 0 0
277 1 17.57135221430491 -0.3786450044391055 7.433389547381051 0 0 0
74 1 8.577476803974479 8.71987009021632 -0.04613312166981315 0 0 0
37 1 3.2827881664407035 3.2617550802006785 -0.2447594956194754 0 0 0
28 1 21.317876255278946 1.6460099657847858 1.3420110651009745 0 0 0
59 1 23.335923463574247 3.0037243313753317 1.572797201053291 0 0 0
154 1 23.595911925026954 1.2072178205147692 3.3057645617225413 0 0 0
185 1 21.12513246751943 3.1840003103775105 3.4373233190741517 0 0 0
42 1 8.910820315199704 4.967878495107689 -0.2797072423124136 0 0 0
1411 1 1.8065875265389737 14.050954123602944 12.78365240323519 0 0 0
117 1 17.756987080726567 10.596053626010375 -0.2986638360738078 0 0 0
189 1 24.849329956825066 3.1848348737832746 3.0718011013956112 0 0 0
32 1 25.682088665791333 1.165372911140669 1.17441203104549 0 0 0
63 1 26.866275608040816 3.1734231203577496 1.4284625865866347 0 0 0
158 1 26.729972422801268 1.0761939356245955 3.310353247760786 0 0 0
1045 1 17.95830824417758 14.068614462840756 -0.10940281736458413 0 0 0
511 1 27.066392892410718 10.727244654919485 12.367165417496341 0 0 0
1029 1 2.863743770671324 14.058086549602608 -0.2683292975803694 0 0 0
70 1 5.386165471262678 8.747499479207589 -0.15938057774488604 0 0 0
40 1 2.7044311741842693 5.035252114043069 1.6387354851353106 0 0 0
162 1 1.1203220995193217 4.642913173087615 3.063360288189324 0 0 0
67 1 1.0801671205566274 6.55229439236409 1.462401393441288 0 0 0
197 1 2.976463054621192 6.948498994914228 3.194754656623856 0 0 0
36 1 28.450633529861207 4.957431910974303 1.1817788809542238 -1 0 0
72 1 3.2493706892641057 8.475065329708688 1.403802981333022 0 0 0
194 1 1.1174620698393747 8.708916889022646 3.0726410990621718 0 0 0
166 1 4.689749895002217 4.977555762411386 3.0902841246707187 0 0 0
44 1 7.235351244278878 4.761753277066391 1.6822121983767722 0 0 0
71 1 5.184628337679048 6.607775820079656 1.7565628316476007 0 0 0
201 1 7.053098201777226 6.916358043564141 2.9360796294035887 0 0 0
198 1 5.2350294550304515 8.93241308448366 3.083036371356622 0 0 0
76 1 6.913149761959466 8.644890452691762 1.5624798298003442 0 0 0
199 1 5.000257413633757 6.965661727258649 4.6219843289547144 0 0 0
170 1 8.75260526959003 5.085475211959469 3.138076238798123 0 0 0
48 1 10.78977614023581 5.318828824354399 1.8151267851832786 0 0 0
75 1 8.886504433234979 6.750658486599771 1.491404110626937 0 0 0
205 1 10.821262855908353 7.05318786645245 3.4851330513799805 0 0 0
80 1 10.65389248885956 8.626381731410898 1.7888723474316928 0 0 0
202 1 8.666815986231933 8.783707002265444 3.238270920337087 0 0 0
38 1 4.8080640459812125 5.156484043984197 -0.17307607287389745 0 0 0
53 1 17.884311834805168 2.8570045393485968 -0.3804194391200031 0 0 0
174 1 12.55277652710744 4.958614355889052 3.5536021309773536 0 0 0
206 1 12.825536382076212 8.353645480686042 3.2405916982944407 0 0 0
79 1 12.495493023845844 7.2043082293662195 1.2791453553536365 0 0 0
52 1 14.021880942291308 4.847585861373894 1.2805651049659799 0 0 0
209 1 14.582217350192112 6.654086375046751 2.989367856914945 0 0 0
84 1 14.454741520672654 8.563145401788034 1.4742892090199566 0 0 0
83 1 16.638538277923885 6.671409017662811 1.2487722341470624 0 0 0
210 1 16.123109695239748 9.011966873972632 3.2200804431473573 0 0 0
178 1 16.204426356886927 4.919519640998497 3.1274005715523345 0 0 0
85 1 18.24076933423504 6.853007869490572 -0.3644849207280759 0 0 0
554 1 9.068279313772306 4.890072292905055 14.04050458062203 0 0 0
267 1 9.052368003018112 -0.018756263001290185 8.186056494924884 0 0 0
393 1 7.037640866632517 0.35811853034242747 10.312130441893288 0 0 0
182 1 19.843828531026695 5.45264685207127 3.4259636625720185 0 0 0
56 1 18.082101550541296 4.918159796625682 1.5317246542462908 0 0 0
87 1 20.028989467113313 7.304008817813608 1.3756248820223078 0 0 0
213 1 17.891721987519595 7.047269447736334 3.261738988062392 0 0 0
214 1 19.96344112278949 8.733313353594264 3.238248065513399 0 0 0
88 1 17.836873135149354 8.70004764087966 1.5297224492175332 0 0 0
153 1 21.929784959553047 -0.23173443508440905 3.198382245982845 0 0 0
82 1 16.147416392777856 8.430496006021013 -0.002120751688510558 0 0 0
73 1 7.069593855028329 6.878751947250392 -0.21542049070702962 0 0 0
186 1 22.813493965238784 5.109672181014515 2.8740742452313754 0 0 0
60 1 21.13481118430998 4.8222564782466995 1.2466051950073067 0 0 0
91 1 23.276919368326816 6.867032191078715 1.1196652513301573 0 0 0
217 1 21.6932779356637 7.179820167311412 3.3986357597583243 0 0 0
92 1 21.74330261416526 8.874321858302451 1.6380500519176477 0 0 0
218 1 23.84855927482492 8.886003128018238 3.294751762511861 0 0 0
54 1 19.41949782700152 4.809839973720503 -0.3014688920222644 0 0 0
68 1 28.523934792022224 8.415412724174242 1.3661724701158913 -1 0 0
193 1 28.405969938703485 6.623401034014176 3.167589614321467 -1 0 0
221 1 25.030597329357633 6.677295519615981 3.2528523879759743 0 0 0
64 1 24.950239757496817 4.984854075034773 1.607434837673157 0 0 0
190 1 26.795420579303943 4.813068934149662 3.0912841095566606 0 0 0
96 1 25.082493524099853 8.975099426440497 1.34858187850908 0 0 0
95 1 26.89957793287209 6.6860192408158055 1.3183079361091807 0 0 0
222 1 26.719055528138483 8.228473257778136 2.8986548576012856 0 0 0
279 1 19.645739675024565 0.20077779040655497 8.5874361121401 0 0 0
99 1 0.8640618488536846 10.312626544884196 1.4123215073165203 0 0 0
226 1 1.1617405119495228 12.335343513966025 2.734284579361894 0 0 0
229 1 2.916734518643539 10.236884739410455 3.074756541627525 0 0 0
104 1 2.9553068943715246 11.91415751332131 1.5323987643752184 0 0 0
225 1 28.634901479992728 10.588445332030389 3.1930495193672574 -1 0 0
1419 1 8.790720373147378 13.856727658045072 12.244938012131437 0 0 0
135 1 4.956520538126373 -0.20409224944790103 4.885407367895908 0 0 0
265 1 7.066362315330589 -0.1413550434617702 6.949499408085059 0 0 0
395 1 8.657436319466768 -0.1152675829201178 12.166949908550116 0 0 0
518 1 4.974302319486767 1.5887300362780659 13.886098999642797 0 0 0
407 1 19.679377244470665 -0.1713560719851224 12.485168351381937 0 0 0
1175 1 19.760968150758195 14.129707754850651 4.939445791374442 0 0 0
103 1 4.910329873844254 10.696682460097643 1.230294183758626 0 0 0
108 1 7.006481957281542 12.552393996901626 1.5428210470882617 0 0 0
230 1 5.172634395948749 12.31584184353194 3.1418091455016306 0 0 0
233 1 6.82074432177552 10.68038244580153 2.787744415621093 0 0 0
147 1 15.82201120668166 -0.33492259271991714 5.088077010262827 0 0 0
1041 1 13.851160651126584 13.891161299584596 -0.21602534527424683 0 0 0
107 1 8.995581308655948 10.476275608000897 1.3749269331878617 0 0 0
234 1 8.48557143354427 12.62075112995537 3.2909036191732683 0 0 0
112 1 10.99678168406104 12.262965188878459 1.3430852458820037 0 0 0
237 1 10.656229334373904 10.914848501307938 3.439843553724433 0 0 0
238 1 12.494754345900263 12.776883679215855 3.418854707423431 0 0 0
111 1 12.738289223628191 10.540722836422933 1.7638923904972361 0 0 0
116 1 14.065537585805107 12.379724555593395 1.5528732176073385 0 0 0
241 1 14.442071853308468 10.588248262443326 3.2254310028565762 0 0 0
242 1 16.176024438608856 12.292295264573744 3.1401154284771318 0 0 0
115 1 16.213017153856505 10.559177921323075 1.4676083109007303 0 0 0
41 1 7.071161500813557 3.0047297605697616 0.005552305010765146 0 0 0
1043 1 15.844444177431024 14.130236421057225 1.3639324461502305 0 0 0
1299 1 16.031624159973582 14.08479359041306 8.86206720546842 0 0 0
1157 1 3.1723458996786364 13.827784489302534 2.91389986470747 0 0 0
131 1 1.152111882297229 -0.2626883563035341 4.902022064280632 0 0 0
119 1 19.989027038217095 10.742557283042355 1.5780155266743954 0 0 0
120 1 17.779274703836485 12.264018734775021 1.3060465498441203 0 0 0
245 1 17.966229755291927 10.458969194807015 3.159190464718456 0 0 0
246 1 19.813659030376414 12.561705666126462 2.970281898232152 0 0 0
11 1 9.113941528790242 -0.3030963768553907 1.8658247308253122 0 0 0
105 1 7.147544199472785 10.687437133795235 -0.1972580240359755 0 0 0
1435 1 22.931874671805907 14.152948925541592 12.283299381918345 0 0 0
538 1 23.266746184581706 1.4259755157175493 13.535286427075103 0 0 0
123 1 23.30797197813962 10.874746963029883 1.4505831928994315 0 0 0
124 1 21.58849975714991 12.636297456340502 1.4939830926156954 0 0 0
249 1 21.726741982965258 10.298746873744863 3.4386341447872564 0 0 0
250 1 23.503961043259068 12.471403704834312 3.1402191306740312 0 0 0
573 1 25.83570567735478 3.474390568955248 13.907107670265152 0 0 0
530 1 16.380832959658846 1.2885675806526817 13.794591121828859 0 0 0
100 1 28.41624756463544 12.325900105203695 1.3613891702823906 -1 0 0
253 1 25.821689016000136 10.69457949000873 2.888292967596655 0 0 0
128 1 25.08775748562212 12.289918474388593 1.203902082463606 0 0 0
127 1 26.922720453704244 10.507790176431289 0.779903167800297 0 0 0
254 1 27.26017332112867 12.344907085905875 3.4114727939031035 0 0 0
261 1 3.35014657068087 -0.30803426752483504 6.625187622816904 0 0 0
1165 1 10.599839455941877 13.989266605587476 3.5563160627250645 0 0 0
1409 1 28.58160359977432 13.885719995557935 10.446806257086715 -1 0 0
590 1 12.55489275095928 8.862782665527746 14.072607487506575 0 0 0
263 1 4.738912759873453 0.001282917773560377 8.6959775082946 0 0 0
163 1 1.2293523285057353 3.2213972974651295 5.023669174460183 0 0 0
258 1 0.9124209410266313 1.446414299961559 6.659007300828978 0 0 0
293 1 3.1255425987385093 2.909019960604549 6.529187024040629 0 0 0
136 1 2.942909808408189 1.167718922517808 4.8400274989863 0 0 0
291 1 1.1792554321079545 3.1231693623809598 8.714651654987195 0 0 0
264 1 3.1725518563231665 1.432756477154496 8.704882905870905 0 0 0
289 1 28.27546703464838 2.8667484028708246 6.665546812784993 -1 0 0
260 1 28.68909527091916 1.2127096693614736 8.589654761726544 -1 0 0
550 1 4.859574837817847 5.816308434438322 13.978681334558136 0 0 0
389 1 3.275605701161218 -0.22833833748956983 10.348991372001585 0 0 0
140 1 6.941382231192984 1.2126243647040273 4.627140890346224 0 0 0
167 1 4.585751812124964 3.4132278952913526 4.810071463509114 0 0 0
262 1 5.091605657995957 1.5254079236743783 6.580683407620958 0 0 0
297 1 6.307860717096883 3.5814283660046313 6.252378151517703 0 0 0
268 1 6.437632841654731 2.112343779396474 8.439366878888654 0 0 0
295 1 4.839291237563438 3.9499466173779094 8.359857087569221 0 0 0
285 1 24.824373751540136 -0.3250840708590783 7.164934701103164 0 0 0
1423 1 12.016673253637748 14.151862396052014 12.185189978595549 0 0 0
534 1 19.552327765963433 1.423991047359849 13.940145158302787 0 0 0
171 1 8.702358434206 3.5676101154506514 5.116857919117576 0 0 0
144 1 10.549401275525172 1.5147790744875844 5.10348210447524 0 0 0
266 1 8.736756586921281 2.0011906932603454 6.843044284900183 0 0 0
301 1 10.691790089718365 3.3640524695055865 6.654136650963381 0 0 0
272 1 10.818970081278376 1.930266014061321 8.39681658879643 0 0 0
299 1 9.012414811534617 3.525704505915781 8.693306088596824 0 0 0
1413 1 3.116784670750304 13.955709862086604 10.640252339544368 0 0 0
175 1 12.467329661551428 3.072741890010381 5.040861012996757 0 0 0
270 1 12.6865928477818 1.511049242946688 6.940305672615371 0 0 0
303 1 12.778775592656764 3.1665195780936273 8.975967287552546 0 0 0
148 1 14.386979246191416 1.6411477382491761 5.193288176041664 0 0 0
305 1 14.182769113666554 3.2720031039331943 7.205647907560144 0 0 0
276 1 14.40425445707735 1.6008701659504725 8.898778669359773 0 0 0
274 1 16.289940613062996 1.5864934580908006 6.997916906772128 0 0 0
307 1 16.106248522563774 3.6214506466988015 8.891781986532344 0 0 0
179 1 16.112655199725253 3.210369855689543 5.287300918697571 0 0 0
1425 1 14.199883129421949 13.982542739929928 10.55824506712353 0 0 0
1301 1 18.08357242628081 14.15171259374973 6.854308981775447 0 0 0
1031 1 4.9442474882011265 13.932358255874835 1.511207316508289 0 0 0
152 1 17.758692625485082 0.9655209774548088 4.964860493384046 0 0 0
183 1 19.46661908192634 3.4985068324997908 5.200568952020283 0 0 0
278 1 19.947431540320878 1.5486103850078297 6.55630978435886 0 0 0
309 1 17.936853359138205 3.1396871121284535 6.8973210230058095 0 0 0
280 1 17.861727561899848 1.638769433087016 8.675936445758582 0 0 0
311 1 19.72145005029126 3.201356477517757 8.515836311965396 0 0 0
187 1 23.70084258505198 2.9053230333453937 5.13425878499587 0 0 0
156 1 21.522353148664067 1.4576696582302033 5.120287713614576 0 0 0
282 1 23.2893783396849 1.6102877381038083 7.150677687975039 0 0 0
313 1 21.422168129725783 3.265559952403947 6.715565284425251 0 0 0
284 1 21.58636964152354 1.6725153021629025 8.706756838827717 0 0 0
315 1 23.3970593680338 3.63839777941792 9.43144418729359 0 0 0
553 1 6.639398077270069 3.4645568993386218 13.967815305391678 0 0 0
626 1 16.299469233561723 12.399307486271118 13.72276633068962 0 0 0
132 1 28.5667251606044 1.1279141346590025 4.772520014476104 -1 0 0
317 1 25.427057843447955 3.231088152198779 7.107524383655859 0 0 0
160 1 25.03766629591373 0.9961574163343734 5.1163340631588525 0 0 0
191 1 26.39480479370509 2.8779096780463016 4.862226341709276 0 0 0
286 1 26.67040555554064 1.3039114900525657 6.868427114333257 0 0 0
319 1 27.055866643353554 3.1471630539092352 8.865649159507875 0 0 0
288 1 24.87591705426952 1.6813486657348884 8.900807781880882 0 0 0
3 1 0.9271257314826906 -0.37357923187263253 0.8402988061080823 0 0 0
200 1 3.304479844090787 8.420140563537592 4.830799156287344 0 0 0
168 1 2.7996766318317348 4.70543079795041 4.557516397961837 0 0 0
290 1 1.0582230396826928 4.739673235466349 6.6942048698952155 0 0 0
195 1 1.1564070788485636 6.3957983943832435 4.841952724135175 0 0 0
322 1 1.2696068241096552 8.383964780157404 6.6257973190954385 0 0 0
328 1 3.447476598865592 8.704607246571888 8.688663061940321 0 0 0
296 1 2.8721597971134076 5.191405693867348 8.294348674850305 0 0 0
323 1 1.6231945183148406 7.115678050394163 8.848282898356365 0 0 0
325 1 3.4492526211065537 7.147873339149956 6.900279869026417 0 0 0
324 1 -0.2183147908674252 8.546877096110977 8.816819292764023 0 0 0
164 1 28.310439551280687 4.698813362756674 4.772559135170492 -1 0 0
292 1 -0.3821990373702838 5.299184863263195 8.801665516657044 0 0 0
294 1 4.60767175593557 5.267467086021001 6.494569831314349 0 0 0
172 1 6.6133865741191755 5.177496156179281 4.5074452016220805 0 0 0
329 1 6.751815606241886 7.323866276409719 6.67416454683531 0 0 0
326 1 4.9945428826093705 9.058351908314458 6.869553877152748 0 0 0
204 1 6.855863318243159 9.198030513241047 4.883642888411816 0 0 0
327 1 5.39352267064441 6.7052796889835715 8.690965340379094 0 0 0
332 1 7.269646063707708 8.76843792220128 8.679022906140101 0 0 0
300 1 7.246966417453738 5.1189901253908126 8.93981389432724 0 0 0
203 1 8.77992611589701 6.838427587618164 4.605131953760166 0 0 0
208 1 10.607737927215148 8.889480683111278 4.861612590698002 0 0 0
176 1 10.587319204306752 5.132079281478646 4.9254873081089645 0 0 0
298 1 7.733454096183825 5.240577904028235 6.555721323876891 0 0 0
333 1 10.355321425157962 6.724232352583995 6.643292745305778 0 0 0
331 1 8.541382879897775 6.879606488416926 8.527477922518617 0 0 0
336 1 10.468613312391387 8.644178681717706 8.466822359537787 0 0 0
330 1 8.909005860131968 8.744155115767489 6.629503398843321 0 0 0
304 1 10.871362572799313 5.091557950742423 8.679756403293847 0 0 0
207 1 12.406580183405719 7.429273995343151 5.435213785176696 0 0 0
302 1 12.709410978654589 5.156466213791812 6.860936964425917 0 0 0
335 1 12.429245108869114 7.1762642791749185 8.48387020570857 0 0 0
308 1 14.216650125842678 5.308781594319977 8.97958052851037 0 0 0
334 1 12.637144165934782 8.98369205953916 6.747642331653671 0 0 0
212 1 14.562451758897867 8.715207679760882 4.884483844061992 0 0 0
180 1 14.299725729414856 5.035400078901011 4.886530294584961 0 0 0
337 1 14.416576123142619 7.084184573701274 6.955777949834034 0 0 0
340 1 14.28937828660318 8.601376831340609 9.19185573462084 0 0 0
306 1 16.02685968044716 4.831316339984151 6.791568750605237 0 0 0
338 1 16.140871882449638 8.969436776248418 7.166537598935149 0 0 0
211 1 16.144690788523057 7.020726717511201 5.083901135305494 0 0 0
339 1 16.110649349652846 6.731922822864869 8.845601190966901 0 0 0
184 1 17.657596837940268 5.017440135495047 5.047907957579551 0 0 0
310 1 19.548941725117977 5.19971617512603 6.728495106932943 0 0 0
215 1 20.04470544833498 6.914334552704403 5.232797182134705 0 0 0
341 1 17.60960096013276 6.758377790346295 6.823442321947059 0 0 0
342 1 20.245534251016238 8.752544885241688 6.727764111151783 0 0 0
312 1 18.361460874435764 5.1200636168544165 8.848620251690791 0 0 0
344 1 18.106571178335734 8.385525282691974 8.764070108521663 0 0 0
216 1 18.05537390508075 8.559797376991868 5.22731485597142 0 0 0
343 1 20.046870160711386 6.665291158765451 8.690397958835089 0 0 0
314 1 23.67468310372258 5.109903160164166 7.144524379608605 0 0 0
316 1 21.445650704850046 4.8051647033285505 8.782805298728231 0 0 0
220 1 22.162599936594475 8.967129426060707 5.247772054499191 0 0 0
188 1 21.570039334628177 4.954371368411718 5.281900495581385 0 0 0
219 1 23.157444514186537 6.8713018320206665 5.184807493579516 0 0 0
345 1 21.74291046773783 6.874614739473338 7.056624204523156 0 0 0
347 1 23.654170471470366 7.108934164227179 8.696984109727703 0 0 0
346 1 23.973237046992594 9.040833284118692 6.82754079893828 0 0 0
348 1 21.855870756124034 8.92868797126269 8.282435609161958 0 0 0
321 1 28.691587898387212 6.906064945800427 6.85104569359331 -1 0 0
196 1 28.502999927480204 8.620421284484198 4.449116652810824 -1 0 0
352 1 25.2207157270364 8.628645167704633 8.952480983615441 0 0 0
192 1 25.39027752372194 4.929665913350541 5.016311131766549 0 0 0
223 1 27.128552595322134 6.904272192638959 5.030713057809637 0 0 0
320 1 25.33710219663265 5.01718620864738 9.143543562017578 0 0 0
318 1 27.08798063584461 5.103474166139537 6.863045486683232 0 0 0
349 1 25.29832089375558 6.904754289177556 7.072747243896379 0 0 0
350 1 27.24322697597745 8.835388848427614 6.723714675457105 0 0 0
351 1 27.016783303899906 7.3414738594700815 9.015011197055538 0 0 0
224 1 25.366092988565192 8.396403342960191 4.868691523300646 0 0 0
232 1 2.902544832912647 12.173532936616965 5.116228188888757 0 0 0
227 1 1.2139895303306576 10.239004250313299 4.9831104801281425 0 0 0
354 1 1.4460288475310519 11.957687326108896 7.008479014179116 0 0 0
357 1 2.8986535061283423 10.057370288252647 6.942923537991324 0 0 0
355 1 1.5613745844394809 10.312772081489177 8.707364627255874 0 0 0
360 1 3.458856308666244 12.329788396399206 8.528966031136822 0 0 0
228 1 -0.3986677459092024 12.179500661855133 5.288173707982106 0 0 0
356 1 28.74461978297321 12.345305909784258 8.545291533332186 -1 0 0
353 1 -0.2743124535378468 10.38863362117335 7.270588522029981 0 0 0
1181 1 24.94796455596137 14.159016495579388 3.4877686905541183 0 0 0
585 1 7.3182791797415145 6.735158257935208 14.040067109746069 0 0 0
231 1 4.719045892871488 10.317724608897608 5.107106883287936 0 0 0
236 1 6.696759287247697 12.046371979687937 5.01027379299981 0 0 0
358 1 5.048696016699997 12.228448708474897 6.8639547720925 0 0 0
361 1 7.068728340285748 10.522216835362709 6.675621276437532 0 0 0
359 1 5.546767068187802 10.612237678410054 8.671863465666469 0 0 0
364 1 7.419364889840286 12.399956763470902 8.53125942255795 0 0 0
507 1 23.174958213210786 10.694888229176303 12.006219369135067 0 0 0
506 1 23.157691552570533 12.39668600724742 10.246224944117143 0 0 0
240 1 10.861788281172956 12.523531387535769 5.248984689058556 0 0 0
235 1 8.826245986216456 10.521850821525867 4.712563408730385 0 0 0
363 1 8.882952760614321 10.434088456594031 8.407675338710654 0 0 0
362 1 8.634523396533215 12.370806859633053 6.6168365148745005 0 0 0
365 1 10.716739621988264 10.870228751370146 7.034424187900804 0 0 0
368 1 10.572549782232414 12.493492177554467 8.808265731407014 0 0 0
617 1 6.900178847423096 10.49031408390611 14.133546325102841 0 0 0
366 1 12.690310091913263 12.506097870409311 6.803628084433968 0 0 0
239 1 12.799228217680279 10.641678107382196 5.003270780133136 0 0 0
367 1 12.606286724915323 10.544416507563101 8.47096594354113 0 0 0
244 1 14.426698836471575 12.481042010013562 5.0733558095047195 0 0 0
369 1 14.41474276465819 10.67577794191202 6.697249552441331 0 0 0
372 1 14.306301322785588 12.640287013918927 8.593437338864002 0 0 0
243 1 16.473673174397135 10.24436226608645 5.252434962705597 0 0 0
371 1 16.12119346009503 10.428028101961326 9.001648184548438 0 0 0
370 1 16.102561582989424 12.360351687559195 6.499773248902603 0 0 0
505 1 21.54785885868396 10.3090488481472 10.28002342519107 0 0 0
10 1 9.178534703251007 1.174827370534243 -0.2088394053206351 0 0 0
490 1 8.380916837776276 12.219710479378243 10.555431226758868 0 0 0
50 1 16.209922155351478 4.691856578907369 -0.3035854603332784 0 0 0
625 1 14.24931605839941 10.498486825736661 13.713049859336673 0 0 0
247 1 19.686600342512847 10.653277675394511 5.041796798317138 0 0 0
248 1 17.941506091367373 12.586049335459698 4.954798561019999 0 0 0
373 1 18.13976538566297 10.36640556578644 6.871397202623251 0 0 0
374 1 19.496913905146286 12.24712770345472 6.720205597944904 0 0 0
376 1 17.82731320211304 12.106035759300534 8.686569204730219 0 0 0
375 1 19.838089576538344 10.31734670074069 8.67789457141291 0 0 0
379 1 23.371258922869046 10.629399316179718 8.85276422589196 0 0 0
380 1 21.48913699339608 12.686196868045942 8.628836151459177 0 0 0
252 1 21.705023275410262 12.286417118710869 4.756344687986588 0 0 0
251 1 23.652195289438907 10.86612774343331 5.021485253715597 0 0 0
377 1 21.561811487490104 10.76399173557728 6.714792796779023 0 0 0
378 1 23.25702642317495 12.453302018255632 6.900656627569432 0 0 0
508 1 21.38308879311925 12.508192413704968 12.505574466950833 0 0 0
397 1 10.392991307975917 -0.28597240927131784 10.34933569161744 0 0 0
256 1 25.188091205747526 12.577681001777172 5.067320470552836 0 0 0
381 1 25.515332246133546 10.893157460458076 6.500431654949064 0 0 0
383 1 26.92955238837586 10.29984357159553 8.622332534088933 0 0 0
255 1 27.204435636920515 10.510922602629572 4.996168320953754 0 0 0
384 1 24.963788947578756 12.219943875198998 8.309607576484195 0 0 0
382 1 27.27212186007793 12.565970895501865 6.926966881869266 0 0 0
593 1 14.091458049472479 6.469341644172827 14.157841234305256 0 0 0
1311 1 26.65683852207369 14.154870592910072 8.779148573786019 0 0 0
386 1 1.3449138274454793 1.1463650279078585 10.81059853140988 0 0 0
419 1 1.013630734963053 3.67104260519252 12.034081436788496 0 0 0
421 1 2.7669359110657226 3.234281772988824 10.638819906673833 0 0 0
392 1 3.183852416896998 1.921698549980849 12.576787020506062 0 0 0
597 1 17.79526401199137 7.177075656457567 14.175369301795566 0 0 0
19 1 15.566142669088444 -0.2772075850434893 1.1665936148959453 0 0 0
503 1 19.791566556071487 10.49639066475956 12.442917002391082 0 0 0
390 1 4.845733656873945 1.6893991537973272 10.650780395243194 0 0 0
396 1 6.667202732976708 1.6289806043364603 12.20690710643015 0 0 0
423 1 5.11578454512059 3.513964235636048 12.222458111748907 0 0 0
425 1 6.709300633428315 3.562486953569207 10.39587147700177 0 0 0
606 1 27.30364037190777 8.975159365598357 14.133587748320817 0 0 0
394 1 8.935880854904253 1.5595907731503864 10.45234652862319 0 0 0
400 1 10.373413796519047 1.5096163108408551 12.366808114006538 0 0 0
427 1 8.543256362274096 3.151152646428876 12.021176784976191 0 0 0
429 1 10.666966635672836 3.2272399157102276 10.577857538338307 0 0 0
502 1 19.920707363305297 12.303392328529785 10.273751852736776 0 0 0
493 1 10.597504096652 10.517810121859249 10.020160838483395 0 0 0
259 1 1.7584531988945495 -0.19900590132637724 8.663726127682038 0 0 0
1159 1 4.879486602501983 13.936905025106737 5.129960670816741 0 0 0
501 1 18.239519873691414 10.168603434084492 10.508643625231647 0 0 0
486 1 5.098651727708026 12.312846932901499 10.172199644599761 0 0 0
431 1 12.206307814140434 2.852489701932446 12.298735157471794 0 0 0
398 1 12.201943200974098 1.3122996780168281 10.5515353347479 0 0 0
404 1 14.308877221682014 1.1652800928835887 12.172786680979614 0 0 0
433 1 14.35625258108571 2.907942842197462 10.847657195545874 0 0 0
402 1 16.357343475383765 1.6309447085487356 10.69714163685813 0 0 0
435 1 16.62260872670943 3.2173154907514285 12.301296634052678 0 0 0
491 1 8.635420520195206 10.744229445672277 12.373662721111877 0 0 0
408 1 17.903840249132593 1.430035606869636 12.22183756729612 0 0 0
437 1 18.243446790387814 3.3344880390206724 10.371249922798544 0 0 0
439 1 19.79881299401748 3.208847431505756 12.495876121847155 0 0 0
406 1 19.77590208133776 1.4309808187243251 10.670986986351398 0 0 0
121 1 21.359432072230476 10.955483317168236 -0.38366763158497896 0 0 0
500 1 13.883040347546084 12.517486597831445 12.425386762498043 0 0 0
410 1 23.4708408371038 1.3438236376646875 10.95700760332873 0 0 0
412 1 21.38042033359863 1.2289830777950133 12.478268101662911 0 0 0
441 1 21.637161744274046 2.9774555461268433 10.99083860654254 0 0 0
443 1 23.78023058181128 3.335229798903106 12.60901214722868 0 0 0
489 1 6.8040714002169365 10.480143539779569 10.581342428037095 0 0 0
388 1 28.428915556140062 1.303021430789657 12.321963452935515 -1 0 0
417 1 28.657161072947524 2.8475522025579396 10.406290478494538 -1 0 0
416 1 25.24879202802053 1.5364428153548881 12.632046512519103 0 0 0
445 1 25.178032737002205 3.2274461735515656 10.758184125077781 0 0 0
414 1 26.425727012269235 1.3897589282623724 10.291654630814378 0 0 0
447 1 27.473292514143942 3.2643340662226654 12.171907969579198 0 0 0
492 1 6.452317204094328 12.369872307088539 12.120400992812936 0 0 0
621 1 10.605934950240885 10.290121612372962 14.000719961565647 0 0 0
424 1 3.218975506798122 5.1447033570997105 12.065001573700773 0 0 0
418 1 1.4415132105882231 5.0596663070302075 10.302634447726035 0 0 0
451 1 1.6305523446228531 7.1094392093113505 12.28917879111082 0 0 0
456 1 3.4671949865052722 8.635248139211926 11.973940548153822 0 0 0
453 1 3.389265188359071 6.991689237916837 10.433855270934547 0 0 0
450 1 1.7707217931693888 8.764907975552086 10.464684592862712 0 0 0
449 1 28.557661260446466 7.189216569251317 10.717293740155746 -1 0 0
428 1 6.831632084426765 4.81508395608093 12.38750775353066 0 0 0
422 1 4.610585218395094 5.041809257842152 10.263457197156855 0 0 0
455 1 5.137078721627589 6.906535159775477 12.069709676675119 0 0 0
457 1 7.219976401129422 6.959229918160234 10.883506340296718 0 0 0
454 1 5.354213262618189 8.685160639784296 9.998426341984732 0 0 0
460 1 7.039753131658813 8.913173917341764 12.578192868728813 0 0 0
496 1 10.329560529131273 12.060544612935981 11.837638104748535 0 0 0
432 1 10.738106563760933 4.9200455865512245 12.588855612273957 0 0 0
464 1 10.464876773095385 8.8610441495411 12.17299149290068 0 0 0
426 1 9.126329622601723 5.176426873290883 10.419971850653845 0 0 0
459 1 9.03998846995792 6.706668255372955 12.299788013864703 0 0 0
461 1 10.7755942805342 6.708740962330937 10.416516186416668 0 0 0
458 1 8.957344575125624 8.630517147230773 10.307338846427808 0 0 0
498 1 15.979158439822386 12.211705302344429 10.791684317512265 0 0 0
514 1 1.1439882361353781 1.2245006471655133 13.929905845053344 0 0 0
497 1 13.947480615471159 10.795691474400817 10.363605178732092 0 0 0
430 1 12.526224445736958 4.619419913127375 10.808528534997478 0 0 0
462 1 11.978486062200568 8.801405704592005 10.358312022093484 0 0 0
463 1 12.226382975080764 6.760658557224253 12.413220930536076 0 0 0
436 1 14.398247839092067 4.730836325490359 12.245379762219477 0 0 0
465 1 13.670260826171177 6.8032531069575635 10.527398885089717 0 0 0
468 1 13.935886141993732 8.768426027901148 11.940555595897663 0 0 0
466 1 16.282604312290424 8.678034531777149 10.40850083965653 0 0 0
434 1 16.0695339959058 5.2157774829776145 10.65131937516661 0 0 0
467 1 15.735447061395528 6.873168509341062 12.26476832252891 0 0 0