LAMMPS data file via write_data, version 29 Oct 2020, timestep = 300000

2048 atoms
1 atom types

-0.4018473867990835 28.753847386797155 xlo xhi
-0.4018473867990835 28.753847386797155 ylo yhi
-0.4018473867990835 28.753847386797155 zlo zhi

Masses

1 58.933

Atoms # atomic

35 1 1.4669965541088772 3.129272487807402 1.5597528700393797 0 0 0
130 1 0.9815340381959934 1.6756242376284196 3.5844776297326764 0 0 0
165 1 3.1067019906587516 3.26524810981656 3.3917017395275675 0 0 0
8 1 3.364272276636976 1.6076316874105543 1.676666190798934 0 0 0
46 1 12.21150151764509 4.978818487912176 -0.1941962513967368 0 0 0
484 1 -0.2164397511810563 12.45463220677914 12.259609717318279 0 0 0
509 1 25.44801252615837 10.445221073779635 10.785627369724487 0 0 0
12 1 6.804062713790018 1.3702131672391225 1.4553462037301061 0 0 0
39 1 5.174018290326883 3.0146690744364886 1.5671288100334642 0 0 0
134 1 5.118872310578776 1.6226675448641128 3.3795630215546386 0 0 0
169 1 7.3392786525938565 2.871177320494138 3.3783698259389965 0 0 0
512 1 25.105385001706317 12.40589416320327 12.672411309653375 0 0 0
105 1 6.7317713879571714 10.52726724355092 -0.2593964290518026 0 0 0
16 1 10.986985499414487 0.93937180607949 1.8069284301172042 0 0 0
43 1 8.882837355692239 2.7672586872336424 1.5735326112580303 0 0 0
138 1 9.031435859313515 1.3183420612226626 3.3553322856235885 0 0 0
173 1 10.54998784025462 3.112493797749345 3.199967710611031 0 0 0
142 1 12.670019889584383 1.449944641957126 3.6314245045694395 0 0 0
66 1 1.5578312683901798 8.585415600812775 -0.3477025648226029 0 0 0
47 1 12.440037054870075 2.8928820117778953 1.8002740934637709 0 0 0
20 1 14.468828294502591 1.148086008052003 1.4133214286625355 0 0 0
177 1 14.321050173265602 3.173435616922776 3.21762696800095 0 0 0
51 1 15.984030594672682 3.1510704841590322 1.5343315991117585 0 0 0
510 1 26.890804197968134 12.674459977963362 10.829931875573022 0 0 0
389 1 2.8802213808833748 -0.30379560840561126 10.488597777262576 0 0 0
31 1 27.111191314538132 -0.20986511853029555 0.7077026366217265 0 0 0
146 1 16.08432189632999 1.3600716316075188 3.1273787557386346 0 0 0
24 1 17.416028527985 1.3384805236837065 1.32188992411902 0 0 0
55 1 19.256476790726463 3.213241518789923 1.4622811830063458 0 0 0
150 1 19.794560122759325 1.564267824797474 3.3566348847379754 0 0 0
181 1 17.693817957680817 2.9341871014018364 3.239640509491606 0 0 0
511 1 27.054746427588658 10.412954244952177 12.475599884895724 0 0 0
62 1 26.76214062254904 4.977518634693374 -0.2401998941712535 0 0 0
28 1 21.310859237524 1.3829689085796544 1.6118143000250438 0 0 0
59 1 23.2398314314647 3.191917585675504 1.2518595907071668 0 0 0
154 1 23.183808118431877 1.3284133418983421 3.2045934682889343 0 0 0
185 1 21.29671170748682 3.5187717366424143 2.923360354942222 0 0 0
6 1 5.197380954512682 1.1817606638331213 -0.17133707262911949 0 0 0
161 1 -0.23151630088160843 3.389225774412893 3.174275584853752 0 0 0
4 1 -0.14292887353486705 1.4157899032119767 1.3154738356645135 0 0 0
32 1 25.126339498633374 1.3159675138844804 1.4665266139272883 0 0 0
189 1 24.681959191982976 3.2273927526062325 3.3641237196429166 0 0 0
63 1 26.674807907402258 3.1024653780821816 1.732432285297806 0 0 0
158 1 27.267501386991377 1.3074392764986869 2.9425018860296905 0 0 0
85 1 17.62740083988946 6.881315502704129 -0.017965027810207645 0 0 0
106 1 8.645328635719043 12.671972792722418 -0.21371765065260992 0 0 0
162 1 1.5591814813624363 5.0167176835026766 3.171307987333531 0 0 0
67 1 1.3614928117661242 6.603091402562028 1.273973282392854 0 0 0
197 1 3.350473941826135 6.853808123002046 3.060050456447015 0 0 0
40 1 3.371317864482935 4.875782629321495 1.6445377362547187 0 0 0
194 1 1.6122537186231183 8.671409434389702 3.16177264947774 0 0 0
72 1 3.752792376327437 8.49755958267381 1.3117554679839356 0 0 0
68 1 -0.11473830064404489 8.721338108577745 1.2908405430333028 0 0 0
36 1 28.488258027313645 5.141939769958455 1.4746184719830315 -1 0 0
11 1 8.931753307087003 -0.29877050887846546 1.539319448432717 0 0 0
73 1 7.122649935518319 6.465069895998002 0.037142369596378344 0 0 0
166 1 5.311813620434897 4.641111882150903 2.87124030745631 0 0 0
44 1 7.221963247515631 4.516132059207858 1.3118043337155336 0 0 0
71 1 5.308664842158636 6.698738462911834 1.2305253536899927 0 0 0
201 1 6.919782283930743 6.445507395713014 2.930599003487245 0 0 0
76 1 6.781949737794302 8.595416215723102 1.528531848882674 0 0 0
198 1 5.228587501406008 8.651834320257318 3.225846373209373 0 0 0
1033 1 6.867370762299349 14.115929717063407 -0.27432786360682687 0 0 0
65 1 -0.3453854086236312 6.486097166943025 -0.17599923190366246 0 0 0
48 1 10.570459641242042 5.229653127106428 1.3751817331739602 0 0 0
75 1 9.036314110939484 6.931234616879211 1.5230747008663812 0 0 0
170 1 8.926309794204926 5.00102625839568 3.1873352141062714 0 0 0
202 1 8.795313619673276 8.587208668881726 3.053214451835338 0 0 0
205 1 10.748542502967734 7.071082059053457 3.5012712666141836 0 0 0
80 1 10.674851970242397 8.786407124600366 1.5096533906366907 0 0 0
174 1 12.318303661677632 5.097263735017284 3.4394343876655213 0 0 0
206 1 12.619045073852625 8.695372050422998 3.270098159479909 0 0 0
79 1 12.49224815637024 6.856413979048977 1.3533160861822555 0 0 0
52 1 14.39542149672078 5.085621725723706 1.3283101227381637 0 0 0
209 1 14.22261281264569 7.042453828222173 3.4383252746579736 0 0 0
84 1 14.276666718599424 8.340961930868797 1.4237795262986306 0 0 0
178 1 16.128079203607392 4.847414508328155 3.4166656099363486 0 0 0
210 1 15.968414244280346 8.695068991732164 3.3079680319724063 0 0 0
83 1 15.87188152076698 6.6840257782208266 1.7449324311499783 0 0 0
614 1 5.086597281302489 12.198495857855763 14.132651322544625 0 0 0
98 1 1.7044314345316218 12.49681152849393 -0.3552977582028401 0 0 0
182 1 19.410613467365625 4.596853702672674 3.2648414014675766 0 0 0
56 1 17.47141070777316 4.969586354661892 1.4077457069661328 0 0 0
87 1 19.697875096883337 6.681456726978793 1.2873888786987178 0 0 0
213 1 18.16778834342517 6.545464288674011 3.348958335957158 0 0 0
88 1 18.160358500120783 8.883140456521954 1.618126095075875 0 0 0
214 1 19.59435522164906 8.714729243385207 3.562564616779538 0 0 0
265 1 6.984414360422377 -0.28016485001896396 6.459232682026869 0 0 0
74 1 8.515246113565372 8.548723406446955 -0.2261307246227881 0 0 0
1177 1 21.355877301752315 14.06470444200957 2.9091907704616107 0 0 0
60 1 21.139170088546695 5.018669587126485 1.2280952277094894 0 0 0
186 1 23.053637239763308 5.293665834368446 3.0607386317064322 0 0 0
91 1 23.123290459758625 7.221265538410091 1.616035010983746 0 0 0
217 1 21.248296211409937 6.7037217091722034 3.0543065583090376 0 0 0
218 1 23.22154830587722 8.954434576619478 3.2026243325761357 0 0 0
92 1 21.328409814682676 8.548165768820914 1.1437775900809122 0 0 0
69 1 3.076981091325838 6.860830930226453 -0.03368483894865165 0 0 0
285 1 25.067977291171275 -0.18862236321010784 6.658524490773123 0 0 0
221 1 24.94799493315667 7.0819136544581935 2.8944915747409707 0 0 0
193 1 -0.3758775971490119 6.830016982647753 2.9659493199065676 0 0 0
96 1 24.884407077790975 8.825340917951364 1.3056425704322376 0 0 0
64 1 24.998744970109687 5.070852245730836 1.590037683573317 0 0 0
190 1 26.47548993573287 5.4003599657220205 3.004419105894764 0 0 0
95 1 26.860571110857048 7.033583824784148 1.464742130473331 0 0 0
222 1 26.915931947264763 8.551055793043382 3.596283109286529 0 0 0
1311 1 26.760773804294796 14.168974217384683 8.65052507634219 0 0 0
27 1 23.541933264540756 -0.30713231124919105 1.5030514578605931 0 0 0
99 1 1.758713459650786 10.367431949562375 1.0367327245728573 0 0 0
226 1 1.6058432977993755 12.44179764656729 3.3140921625378823 0 0 0
104 1 3.530011664103787 12.512728941961605 1.644448706320638 0 0 0
229 1 3.107899648248679 10.490461206673636 3.122799871038912 0 0 0
10 1 8.403503673656601 0.9640380123554573 -0.34520552775707103 0 0 0
505 1 21.358085318579146 10.752919086143612 10.68600200989651 0 0 0
1035 1 8.670504009607255 14.156731296752382 1.2928784323217493 0 0 0
508 1 21.76678549131567 12.279814128938916 12.347711292989676 0 0 0
103 1 5.159023546094621 10.387037319889492 1.5566484799983038 0 0 0
108 1 6.59032172827246 12.44079643877855 1.2625686346234133 0 0 0
230 1 5.235208139594293 12.40681391519418 3.2621754931099973 0 0 0
233 1 6.98250472997305 10.489730371534742 2.984055969459739 0 0 0
1433 1 21.39607307712428 14.166586926605016 10.35861527672214 0 0 0
3 1 1.5180011150256332 -0.10504656138441942 1.038303797079865 0 0 0
1159 1 4.880851042097214 14.100730112064399 4.954200214971082 0 0 0
1283 1 1.4261459433792918 13.93525947833621 8.69294525993044 0 0 0
507 1 23.529681004892208 10.481194417054361 12.432430984848043 0 0 0
107 1 8.899380260952054 10.452735904993558 1.246896617445543 0 0 0
112 1 10.614179037905513 12.19795608630736 1.3215923528071258 0 0 0
234 1 8.746122586170591 12.333014873831319 3.1849916978580417 0 0 0
237 1 10.869543024516412 10.601968727427144 3.0457614072797474 0 0 0
97 1 -0.12600943563285277 10.702348920838046 -0.21958443580909032 0 0 0
506 1 23.615233729432443 12.310868849372232 10.473588884563002 0 0 0
23 1 19.534345973376006 -0.074528884221021 1.41945499591964 0 0 0
238 1 12.694490489266729 12.5021597778659 3.120172856634372 0 0 0
111 1 12.586726206812347 10.511694478238136 1.566460334949464 0 0 0
116 1 14.128757526997147 12.429038310366497 1.358892976725124 0 0 0
241 1 14.477664862592137 10.451869819255089 3.487473316955855 0 0 0
115 1 16.070374960631593 10.432171100695136 1.354475711151713 0 0 0
1293 1 10.553386082349203 13.96714051155239 7.140127389321935 0 0 0
513 1 28.403508765508104 -0.01148548478840905 13.70675788876039 -1 0 0
397 1 10.782925148048612 -0.13302875467338898 10.09747916726738 0 0 0
157 1 25.223038292638783 -0.3637928752022795 3.247773955286698 0 0 0
242 1 15.80034220464372 12.557179589880464 3.18652005756039 0 0 0
1415 1 5.010024372618722 13.648470500865065 12.287517586204032 0 0 0
119 1 19.826812497625053 10.623493940603986 1.4620511646684615 0 0 0
120 1 18.03497215441914 12.118227821847055 1.142423884186689 0 0 0
245 1 17.761827844117327 10.44152039362716 3.380253877064278 0 0 0
246 1 19.6169443374161 12.33613383980926 3.4846210065706096 0 0 0
42 1 8.84052418745387 4.912726544281447 -0.28661874220800043 0 0 0
1163 1 8.644470417271112 13.924786170523168 5.100021533886179 0 0 0
593 1 14.437564889089003 6.935294073045141 14.074676497921367 0 0 0
33 1 28.66885339215254 3.5598657533512035 -0.31368948830186216 -1 0 0
123 1 23.299732945279313 10.677122234715673 1.314431251064906 0 0 0
124 1 21.424090766504595 12.219005531648492 1.0655875723024668 0 0 0
249 1 21.76237282012388 11.063300297743178 3.272870300964114 0 0 0
250 1 23.26059351002473 12.479961515085826 3.112550805060539 0 0 0
257 1 28.68396374903219 -0.1698586800777796 6.673287076001456 -1 0 0
558 1 12.392701224351063 5.082684875834784 14.002642119223006 0 0 0
225 1 -0.37460945135374146 10.433377184296573 3.423000586556207 0 0 0
401 1 14.366686156300103 -0.039478915734212305 10.5489045994636 0 0 0
100 1 28.5397604695183 12.295701946835539 1.5563237037138073 -1 0 0
128 1 25.02654897239863 12.22172139631545 1.293904831863929 0 0 0
253 1 25.366382186325964 10.296874307506 3.1748734944197268 0 0 0
127 1 27.0376584544021 10.240991086137162 1.4903122421869248 0 0 0
254 1 26.52562258276993 12.224385819984395 3.497051842798464 0 0 0
1165 1 10.632831553644044 14.003797406707646 2.9982894636079576 0 0 0
1285 1 3.3007334279085248 14.140660983919565 6.988734338617125 0 0 0
521 1 6.672444865768371 -0.187426884818727 13.731056156382921 0 0 0
1175 1 19.903772318306356 14.046651950977619 4.96861863021202 0 0 0
163 1 1.445088044291767 3.402698436091746 5.229801915036836 0 0 0
258 1 1.5453769623857003 1.5488994092530528 6.487645045767852 0 0 0
136 1 3.3588963269914487 1.16206234347661 5.010620341347845 0 0 0
291 1 1.7665337405027173 3.625493570776986 8.68137895074672 0 0 0
293 1 3.3771476315877282 3.388089858573815 6.481398661641719 0 0 0
132 1 28.535961660392218 1.7788041456668378 5.214152842790735 -1 0 0
289 1 28.73735304095919 3.3998432076245733 7.03857463001309 -1 0 0
1413 1 3.384677455497487 13.818795081778381 10.602145861145578 0 0 0
264 1 3.07805579322107 1.344527157019273 8.326320149901235 0 0 0
1039 1 12.52516641699798 14.135369719098305 0.9412405798533645 0 0 0
140 1 7.278764055985359 1.4095126679139616 5.1923515638121795 0 0 0
167 1 5.3122106658814 3.1267220469428856 4.9482604369271845 0 0 0
262 1 5.044025825366534 1.1765478695991805 6.790380234361614 0 0 0
297 1 6.646980980593013 3.6236849143560823 6.754749969289823 0 0 0
268 1 6.661971171715457 1.4043926705508787 8.202837356470907 0 0 0
295 1 5.229566088806971 3.2906487630702346 8.447312531617948 0 0 0
266 1 8.842267683630238 1.6986872558213881 6.949613512885989 0 0 0
171 1 8.618923750963136 3.570286552038002 5.364820886181083 0 0 0
144 1 10.793799253377614 1.676471725195963 5.32274644657237 0 0 0
272 1 10.711791845599265 1.603528239512297 8.475240719070234 0 0 0
301 1 10.579289402144841 3.7274009864109505 7.247245192413915 0 0 0
299 1 8.428244669062174 3.3194444193205657 8.779030395286524 0 0 0
501 1 18.04682326691239 10.588487977664812 10.890692121219221 0 0 0
502 1 19.262322070476657 12.38846566281351 10.42260474140694 0 0 0
503 1 19.67689218008497 10.430130088954689 12.58529949258454 0 0 0
303 1 12.333174622252107 3.630449020454302 8.511356024510295 0 0 0
175 1 12.369251950850064 3.3735422081068704 5.229311742386437 0 0 0
270 1 12.601969224910436 1.3528977005570495 6.750910816876532 0 0 0
148 1 14.46337540192105 1.4318931170750848 5.204821262634031 0 0 0
305 1 14.192854710846657 3.5237993837011445 7.058776534657805 0 0 0
276 1 14.405157409604884 1.384466215809105 8.48276233125239 0 0 0
179 1 16.082710071639962 3.101445505604104 5.1669903790015335 0 0 0
307 1 16.112133560251987 3.5276645192542704 8.654369418298916 0 0 0
274 1 16.323536710817685 1.5236901252480652 6.804046055119103 0 0 0
152 1 18.021952651003495 1.5223217516453165 5.135371681769547 0 0 0
183 1 19.906839239732932 3.1788970664060074 5.184148401794742 0 0 0
278 1 19.725793928980902 1.278367728529697 6.798155810763194 0 0 0
309 1 18.012435917800428 3.451421883953988 6.95064307748873 0 0 0
311 1 19.775408895699645 3.457518094561516 8.459499587994154 0 0 0
280 1 17.931557843556792 1.5915403304016285 8.485797583316923 0 0 0
49 1 13.884498968298741 3.1523962388593647 -0.013775518354579297 0 0 0
504 1 17.8420639072307 12.54004387587997 12.646369560315065 0 0 0
187 1 23.107011946278313 3.3093217513782 4.923550152459861 0 0 0
156 1 21.65707247413346 0.912661002223123 5.075731550604472 0 0 0
282 1 23.509518854655145 1.2983384478766686 6.8251570848965875 0 0 0
313 1 21.68186332412674 3.187449463718776 6.673074552796702 0 0 0
284 1 21.57595010499551 1.6075846185115337 8.468298070109812 0 0 0
315 1 23.44794068531213 3.287108155366844 8.954311330524517 0 0 0
399 1 12.458739907054355 -0.23162441527910618 11.982870039845816 0 0 0
260 1 -0.0025411381847125214 1.2850862174118012 8.573651129565437 0 0 0
160 1 25.034653234293742 1.3994516957873744 4.856345449175413 0 0 0
317 1 24.790413692953344 3.0585412112780612 6.605824686309274 0 0 0
288 1 25.277222683002947 1.5704512012961287 8.6184863063187 0 0 0
191 1 26.660078189253586 3.4804552188424145 4.684473162579944 0 0 0
286 1 26.670842432128776 1.746308932963518 6.70552727611155 0 0 0
319 1 26.85707858411519 3.2989043668401483 8.465271725765106 0 0 0
200 1 2.9468277488014505 8.578274565188444 4.993235504120475 0 0 0
195 1 1.447082919379098 6.903793671196739 4.957814686673833 0 0 0
290 1 1.4460902902385415 5.133958281613115 6.972661653025721 0 0 0
323 1 1.5391083774305272 7.120776937418573 8.455804732643246 0 0 0
296 1 3.356752062117671 5.110860790665551 8.279980843046465 0 0 0
322 1 1.3202296966737885 9.017534102344708 6.673434334450628 0 0 0
325 1 3.1824058728527493 7.214323243968856 6.774248097649509 0 0 0
168 1 3.3319517842151507 5.198840505650606 4.639523901601665 0 0 0
196 1 -0.15075700558707084 8.201078178761101 5.066634119193824 0 0 0
324 1 28.605027538876936 8.880748610969288 8.334131338123491 -1 0 0
328 1 3.1462410880801417 8.984890391444136 8.630534638682432 0 0 0
294 1 4.903393711373106 5.360941332621591 6.601144781358634 0 0 0
172 1 7.145720577435686 5.278760721490747 4.882057793611416 0 0 0
300 1 6.859858163520095 5.686728176463261 8.896535440107897 0 0 0
199 1 5.22914007293169 6.560654434125176 4.493477907077079 0 0 0
329 1 6.842523270172293 6.854495702358646 6.958264082427265 0 0 0
327 1 4.914086466739226 7.104512772632719 8.830361772371171 0 0 0
332 1 6.777798899938585 8.966814920839367 8.498308947962464 0 0 0
326 1 4.981678173193996 8.471337047660224 6.717640131183494 0 0 0
204 1 6.884790682663504 8.535594190239008 4.9312280438244525 0 0 0
304 1 10.407900511091674 5.536284863831292 8.757995466816936 0 0 0
176 1 10.8084892018584 5.231340827962737 5.152421062477217 0 0 0
298 1 8.696801661788092 5.212133739169289 7.144219471206301 0 0 0
208 1 10.20934463772301 9.130219695414565 4.989007659494181 0 0 0
203 1 8.85895686558836 6.900667066869326 5.279414512926995 0 0 0
333 1 10.44855170259359 7.098666722051975 6.713822811324718 0 0 0
330 1 8.929775483241098 9.037704774906155 6.913616217459541 0 0 0
331 1 8.559755052532715 7.390217414797279 8.682508520483518 0 0 0
336 1 10.512407489506558 8.784970271992412 9.161747340987995 0 0 0
302 1 12.59983418015425 5.545874841375696 6.918329970709651 0 0 0
334 1 12.294969597960192 8.727685013420167 6.77329880581061 0 0 0
335 1 12.69615752955083 6.989554166819412 8.895391997960362 0 0 0
207 1 12.526648013527767 7.073576433284164 5.175250161668639 0 0 0
180 1 14.243231615055613 4.835646886075877 4.987931874831551 0 0 0
337 1 14.575957484281313 6.927831161047779 6.81906383184933 0 0 0
212 1 14.12655692583082 8.760901192567603 5.0396651586687895 0 0 0
340 1 14.177896916930978 8.93574913128456 8.989538727403135 0 0 0
308 1 14.595734626767348 5.237479979208872 8.73156513022972 0 0 0
339 1 16.143199101623406 7.254511223451398 8.82097802666874 0 0 0
306 1 16.11989309748702 5.0505382902806595 6.642614134304131 0 0 0
211 1 16.39307212973298 6.82501394240709 4.830767247384851 0 0 0
338 1 16.0766322793411 8.55956523015053 6.73114683929959 0 0 0
310 1 19.567284046600115 5.421313151436751 7.1695995314711 0 0 0
184 1 18.111316144951704 5.056222668451619 4.931460046530931 0 0 0
216 1 17.770538241434068 8.66960059477574 5.092652371658526 0 0 0
215 1 19.65480983031584 6.914451392490654 5.222738829612028 0 0 0
341 1 18.008471707953383 6.9893235183099165 6.966876904679694 0 0 0
343 1 19.778018424381106 7.285177371223425 8.683251564240763 0 0 0
342 1 19.863747126640302 8.42804549081065 6.735174453560919 0 0 0
344 1 17.987245351081228 8.885008421343269 8.90161916139646 0 0 0
312 1 17.659027335652766 5.295690431408479 8.778114638958133 0 0 0
188 1 21.580991841204167 5.006950866896626 5.243093683795349 0 0 0
220 1 21.35068395486376 8.741938719583526 4.80197134409968 0 0 0
314 1 23.714357075012234 5.04594526496765 7.040760993036612 0 0 0
219 1 23.037249364936663 6.8638369919574735 5.06602660898085 0 0 0
345 1 21.884190443798843 7.1845649415268 7.146523130612278 0 0 0
347 1 23.41445398493627 7.062519297008937 8.97563527479812 0 0 0
348 1 21.442877631209527 8.965314393601021 8.774382948054065 0 0 0
346 1 23.46919842905599 8.8203470839896 6.840312182884938 0 0 0
316 1 21.65604905510297 5.077803807247414 8.625146639226077 0 0 0
292 1 -0.3802110782328376 5.159520246929492 8.591585147350331 0 0 0
164 1 28.742008774202084 5.168558956339663 4.822517212328789 -1 0 0
321 1 28.508502945314163 6.706564728628962 6.573109121985898 -1 0 0
318 1 26.781992196824756 4.994559135758525 6.520035934996513 0 0 0
320 1 25.38890038117424 5.262187350502492 9.06238393047095 0 0 0
192 1 24.78040997761515 4.945166796551996 4.702745303175464 0 0 0
224 1 25.08496674748844 8.732888114306531 4.750630994049499 0 0 0
349 1 25.106205438260012 6.804686388003472 6.539674844841449 0 0 0
223 1 26.62726451499177 6.725632498674503 5.084264650328747 0 0 0
350 1 26.808420510334695 8.658142390628228 6.631631376947461 0 0 0
351 1 27.197494813709437 6.798307734575022 9.00685867402083 0 0 0
352 1 25.36739433117879 8.492983497124374 8.794566000784988 0 0 0
227 1 1.7294400202752533 10.91310259272603 4.823392340432148 0 0 0
354 1 1.1474466137844248 12.516526648193784 6.961599056673324 0 0 0
355 1 1.19855994090291 10.633019641855938 8.432904925234984 0 0 0
357 1 3.262548203388722 10.579710534382581 6.559804436643797 0 0 0
360 1 3.345899541389539 12.202534501786987 8.392378217396649 0 0 0
232 1 3.4162999160416403 12.496111635734913 4.994532116220666 0 0 0
356 1 28.646937158635144 12.204092028299335 8.74836953434952 -1 0 0
353 1 -0.27240534578968223 10.363197943184037 5.948726761198276 0 0 0
1561 1 21.357438223957114 13.941766635980633 13.952400684723422 0 0 0
231 1 5.167500970372801 10.449852965348256 5.113351221134936 0 0 0
236 1 6.6926309216165745 12.424144402196019 4.864024450163002 0 0 0
358 1 5.054158860205307 12.387672575093502 6.8281463856102675 0 0 0
361 1 7.08606159770441 10.283936870986134 6.698528270579317 0 0 0
364 1 6.847336825995607 12.169433421155277 8.23551703345998 0 0 0
359 1 4.744284947146401 10.463722934770042 8.440474521348762 0 0 0
573 1 24.837169202921793 3.6184252336205978 13.627654748525837 0 0 0
362 1 8.879614030933057 12.8038367016781 6.760281677008159 0 0 0
235 1 8.578847012688403 10.9695885491144 4.998374079600601 0 0 0
240 1 10.598706432290799 12.398943087773358 5.142293106202491 0 0 0
365 1 10.658247366155129 10.833310575381999 6.697135237779791 0 0 0
363 1 8.887757551061002 10.69887390838705 8.669694519871847 0 0 0
368 1 10.560691382818575 12.44686439119563 8.90178298082038 0 0 0
45 1 10.69181516732351 2.962815214963566 -0.274661233469948 0 0 0
498 1 16.243400068816623 12.493571829437096 10.56507868829506 0 0 0
500 1 14.233526602988135 12.284628575239111 12.835302461223645 0 0 0
239 1 12.362899583798105 10.876811166416033 4.823606919102858 0 0 0
367 1 12.42293003271462 10.768229364322 8.996082569528973 0 0 0
366 1 12.75245800911807 12.389261035256581 6.944418916065951 0 0 0
244 1 14.181059622927128 12.372800763868524 4.825511938253626 0 0 0
369 1 14.265788008064398 10.34198974657677 7.093724657142821 0 0 0
372 1 14.349707068186179 12.256568077887557 8.77512412001947 0 0 0
371 1 16.0141680002347 10.868893291710357 9.066732779829481 0 0 0
370 1 16.22440940285694 12.842316461757616 7.118440930257915 0 0 0
93 1 25.011252471802603 7.131010466666638 -0.24642087522837258 0 0 0
403 1 16.03406122660472 -0.3607204695422901 12.06630846547704 0 0 0
243 1 15.812740915631526 10.97404225885463 5.3829845339779485 0 0 0
247 1 19.91655019916401 10.669915730008462 4.980062316212092 0 0 0
248 1 17.89505215279246 12.390285168411745 5.0584363549205 0 0 0
375 1 19.791114722856047 10.514369334981867 8.637894963130302 0 0 0
373 1 17.71395768804374 10.520838191594716 6.930927161609641 0 0 0
374 1 19.63034117726553 12.371963254707461 6.897035263679716 0 0 0
376 1 17.93020157295035 12.509634466394623 8.547194832906367 0 0 0
1417 1 6.874451400691899 13.914331219330736 10.54403764747731 0 0 0
252 1 21.610702741460997 12.33459574846442 5.261502866318473 0 0 0
251 1 23.05165725713836 10.467993846786902 5.121500881563571 0 0 0
380 1 21.264231942532053 12.507089925856313 8.784376736330005 0 0 0
379 1 23.528775273371817 10.62790250002413 8.858067332608133 0 0 0
377 1 21.600204303623695 10.474154074015017 6.728557238536487 0 0 0
378 1 23.290574904904965 12.372725233992366 7.372241835185399 0 0 0
494 1 12.415835507156972 12.56428356001829 10.714024776989403 0 0 0
228 1 28.584542106905324 12.334852823477306 4.75824076009481 -1 0 0
384 1 25.319359836302574 12.234995854776358 8.531236779445383 0 0 0
255 1 26.791231823141874 10.446961898938278 5.2047677971268245 0 0 0
256 1 24.61501746027388 12.183078265839546 5.110064388488541 0 0 0
381 1 25.209758520228394 10.408373103984697 6.965671397850819 0 0 0
382 1 26.904046724343456 11.982771385323101 6.895718021575177 0 0 0
383 1 26.87781973110885 10.218465293147878 9.044504680493986 0 0 0
1155 1 1.304400174869363 14.086404391922839 5.104594520462934 0 0 0
386 1 1.4147156798087754 1.403260582124406 10.763069479022255 0 0 0
419 1 1.3881585442511897 2.9878334562932958 12.31602759338332 0 0 0
392 1 3.1868878462510457 1.16450395809336 12.618194721929916 0 0 0
421 1 3.173195174165944 3.4017932854652293 10.513238651418723 0 0 0
388 1 28.731700501672197 1.7944044058065347 12.043461257923735 -1 0 0
499 1 16.160947041943473 10.937988839104127 12.685299438486844 0 0 0
390 1 4.8521131750137245 1.7106040115197896 10.078875304985717 0 0 0
396 1 6.979688708482779 1.6445162734905048 12.20569678317657 0 0 0
423 1 5.06709789663558 3.2205757021730896 12.37394479466943 0 0 0
425 1 6.793369809538543 3.453369317700742 10.313513132362093 0 0 0
38 1 5.248447269427697 5.066564671984185 -0.17889091241732574 0 0 0
1281 1 28.715547604213846 13.860950568593934 6.831517140665447 -1 0 0
1303 1 19.711440782557684 14.081142277499856 8.790147525443805 0 0 0
497 1 14.28072297427101 10.695603401738746 10.926982724912483 0 0 0
394 1 8.695885475672185 1.3999670543298424 10.02994783009483 0 0 0
400 1 10.494815967327582 1.5012969373936973 12.46502827068231 0 0 0
427 1 8.63712480831295 3.4672291836622597 11.862462233181503 0 0 0
429 1 10.540263568243423 3.435441531707326 10.48074071941653 0 0 0
495 1 12.284271990206145 10.50751561004345 12.429934624827279 0 0 0
159 1 26.99142339135372 -0.05100948224069762 4.865486235364117 0 0 0
78 1 12.637265928646876 8.947929595706487 0.009851749854370817 0 0 0
526 1 12.405785460192336 1.390663362870053 13.66146018820879 0 0 0
34 1 1.4998419503607607 4.979562168983444 -0.33460576199358755 0 0 0
541 1 25.176293148347007 -0.10719728832977576 14.056229774702324 0 0 0
409 1 21.601662213995066 -0.3104955299014094 10.503903039375595 0 0 0
582 1 4.7698505626787 8.83426426395386 13.774063030182967 0 0 0
287 1 26.85096679481531 0.07207300773719971 8.586504155894769 0 0 0
398 1 12.47864392695444 1.7606638408075268 10.19285428167854 0 0 0
431 1 12.095643514887723 3.1315766037142 12.482162902504188 0 0 0
404 1 14.253714910849268 1.611826653771538 12.433552418911917 0 0 0
433 1 14.411898570279455 3.4447839634568282 10.447759026979623 0 0 0
435 1 16.10236477974404 3.1821746521549437 12.208743385386033 0 0 0
402 1 16.30616312402095 1.486206208857027 10.818222520653132 0 0 0
7 1 5.062847582358556 -0.33667263579435086 1.8687922967201533 0 0 0
137 1 7.076253134255532 -0.2916453683441532 3.457346824291521 0 0 0
406 1 19.826396209773637 1.5339689150938263 10.058692028367975 0 0 0
408 1 18.61539525294413 1.3565801520854324 12.184829834654709 0 0 0
437 1 17.85689511142199 3.137979196157258 10.19781092289106 0 0 0
439 1 19.602935070750767 3.5869177229077676 11.942858200400165 0 0 0
413 1 25.222067262787665 -0.07081329191797425 10.207253763986866 0 0 0
565 1 17.781620832860348 3.114926241038332 13.98362724763113 0 0 0
1291 1 8.580628856234414 13.970982405399402 9.034100693395406 0 0 0
530 1 15.92429289632895 1.5753133721818464 14.05431358112254 0 0 0
410 1 23.088080341747485 1.37877394026883 10.412104642345684 0 0 0
412 1 21.58843009729574 1.5391936531932628 12.283247470512336 0 0 0
441 1 21.6266814091865 3.379454110623714 10.478384305339388 0 0 0
443 1 23.295750141642102 3.444971863840057 12.044542386669125 0 0 0
618 1 8.713580019549322 12.503622529373747 13.64181173051968 0 0 0
594 1 15.84811371860819 9.14973192478824 13.978513816205028 0 0 0
417 1 -0.21519717745025296 3.3853668287374434 10.141330902430697 0 0 0
445 1 25.29477737983033 3.343431659310912 10.341968821528527 0 0 0
416 1 25.03848463820472 1.7826601968999638 11.949720618479743 0 0 0
414 1 27.062309873499867 1.7029997814627627 10.277796703539181 0 0 0
447 1 26.81900326507963 3.2107183709602753 12.433980854530079 0 0 0
1287 1 5.177003958548928 14.106537871809852 8.614975014709739 0 0 0
418 1 1.3343847195628207 5.219440152251188 10.389777373800833 0 0 0
451 1 1.039029266306055 6.608990248315706 12.665524321836088 0 0 0
450 1 1.3120323258830213 8.988749714869853 10.425377011702984 0 0 0
456 1 2.905766186965193 8.569269190544325 12.368881210817094 0 0 0
424 1 3.4254024196712987 5.1539678053650695 12.411755051233015 0 0 0
453 1 3.209169006529911 6.915979952705812 10.288379587673278 0 0 0
420 1 -0.3105475849076562 4.874751819354245 12.175487470286223 0 0 0
449 1 0.014994303802404352 7.349277812537136 10.480080479011772 0 0 0
452 1 -0.29942819034295776 8.618694105940737 12.409799234384858 0 0 0
491 1 8.724704549836883 10.529266262785326 12.315703461325816 0 0 0
405 1 17.77464672329824 -0.395060133104568 10.493142212974712 0 0 0
428 1 7.129158717910818 5.178439572859497 12.640750673058951 0 0 0
422 1 5.171784187903789 5.225952637666604 10.924390673653397 0 0 0
455 1 5.022893608591276 7.031734483442193 12.571720829252754 0 0 0
457 1 6.550964532360996 7.023257932934223 10.981314035493725 0 0 0
460 1 7.04194536906285 8.696406438373383 12.403740331734257 0 0 0
454 1 4.6719735396152355 8.799586864634616 10.520782016904063 0 0 0
546 1 1.5932938096751892 4.963237789465303 13.903336755126421 0 0 0
432 1 10.267281893101723 5.037601060850958 12.560839258458204 0 0 0
426 1 8.661602169812381 5.595492485423172 10.718483874709229 0 0 0
464 1 10.46367012163003 8.656376796653635 12.848419779582919 0 0 0
459 1 8.63128641611503 6.933306188542711 12.693308724700161 0 0 0
461 1 10.623129677786473 6.855551677807028 10.821449715482325 0 0 0
458 1 8.766792807109896 8.754471660250003 10.706951321133058 0 0 0
490 1 8.768094923453836 12.19612703422223 10.60797234006996 0 0 0
557 1 10.255008899979659 3.3700187992132737 13.920657009070965 0 0 0
139 1 9.074336665793963 -0.13964749248263553 5.243719218920794 0 0 0
430 1 12.457757839400543 4.88861297313148 10.78167091539358 0 0 0
462 1 12.477845674939214 8.766191874664695 10.663620622995616 0 0 0
463 1 12.616476285136617 6.911575347518369 12.100413198817629 0 0 0
468 1 14.263504959433519 8.584422375570098 12.287492730751008 0 0 0
436 1 14.354423432530382 4.883092911965945 12.463500079419784 0 0 0
465 1 14.286107239189912 6.831440075486084 10.720072783183827 0 0 0