LAMMPS data file via write_data, version 29 Oct 2020, timestep = 300000

2048 atoms
1 atom types

-0.18187669074856672 28.53387669074799 xlo xhi
-0.18187669074856672 28.53387669074799 ylo yhi
-0.18187669074856672 28.53387669074799 zlo zhi

Masses

1 58.933

Atoms # atomic

8 1 3.543360756963655 1.5117118845996678 1.6002839393723842 0 0 0
35 1 1.6919262184384916 3.415357005163361 1.6653396544400538 0 0 0
130 1 1.6070153218012357 1.608752075050162 3.23854768810064 0 0 0
165 1 3.4495327177791437 3.213479400659848 3.3449413029030506 0 0 0
2 1 1.571766421702899 1.6945738410074427 -0.06111549298598204 0 0 0
33 1 -0.11462041455993344 3.439410743294431 -0.052111493004906057 0 0 0
149 1 17.804821449006596 -0.1450188348927135 3.4562847104995162 0 0 0
509 1 24.991089295464057 10.50473933366335 10.308243116725944 0 0 0
133 1 3.258694394049059 -0.1047557317133716 3.314642712173772 0 0 0
521 1 6.758870910707624 -0.019725864129846116 14.086686976083184 0 0 0
1437 1 24.863676167027133 13.981614441704073 10.450681174669908 0 0 0
12 1 7.078883796473798 1.558815086664043 1.708849910952347 0 0 0
39 1 5.404865843114882 3.377535491467281 1.5627714359671776 0 0 0
134 1 5.338989140794225 1.5956395324912147 3.4441503322523177 0 0 0
169 1 7.119605553282495 3.210917852190294 3.4379739383382963 0 0 0
102 1 5.416455111424054 12.276567443476752 -0.1673466787646007 0 0 0
137 1 7.0891298142226065 -0.06914503181490862 3.437545967286843 0 0 0
7 1 5.283709475019011 -0.11704071865542431 1.887523324439627 0 0 0
1423 1 12.354120132858801 14.054064413546865 12.317871849974322 0 0 0
93 1 25.012640537613336 7.023620545504897 0.17029405968264905 0 0 0
16 1 10.908794782801433 1.5059636982416391 1.4796553521793359 0 0 0
43 1 8.792091953735069 3.1980998596008194 1.6349882746708295 0 0 0
138 1 8.945568549504614 1.590661366909309 3.438549273600196 0 0 0
173 1 10.534593227400789 3.3858385563446616 3.543734170935265 0 0 0
57 1 21.541309627093256 3.489274390592255 -0.13405106794798322 0 0 0
66 1 1.5188113424241074 8.67987736823371 -0.09707121083808426 0 0 0
1165 1 10.34497242928239 13.84335857210192 3.3994441484216447 0 0 0
142 1 12.261745758372202 1.7899498248797765 3.6016708402151725 0 0 0
47 1 12.547329134182418 3.3899041650570854 1.606447171003992 0 0 0
20 1 14.252247193532682 1.3775394099768739 1.6887692959291611 0 0 0
177 1 14.2374365101896 3.34004544526998 3.506222811559307 0 0 0
51 1 15.977027695115165 3.413254620693174 1.558834917280194 0 0 0
146 1 16.0348956203043 1.463685377392918 3.393646604003901 0 0 0
510 1 26.88241888005614 12.156381270778688 10.392500727787263 0 0 0
1425 1 14.010412188890568 14.030882073250552 10.667491340714411 0 0 0
24 1 17.668388265477684 1.4815069343284377 1.5452386292689368 0 0 0
55 1 19.723340334704282 3.261044385234359 1.5043092225665173 0 0 0
150 1 19.452910282173317 1.6360414549130424 3.363918985295764 0 0 0
181 1 17.645129297250662 3.545181792582679 3.4187744203638495 0 0 0
131 1 1.5095128449939939 -0.06691580629625382 4.905145253864498 0 0 0
90 1 23.23766297641276 8.784358882717097 -0.13963666180942624 0 0 0
511 1 26.76861000345538 10.494412098346004 12.297189508842857 0 0 0
28 1 21.227977653398337 1.5614796369938126 1.582516560224077 0 0 0
59 1 23.1571535330557 3.483572694350281 1.69550239396698 0 0 0
154 1 23.024568724094312 1.670509658632523 3.291003794051137 0 0 0
185 1 21.26254079951794 3.32224215147126 3.528126661481462 0 0 0
512 1 25.136518199710533 12.168369249439936 12.211268610049727 0 0 0
484 1 -0.10253517629131738 12.501003772200496 12.386439784125178 0 0 0
399 1 12.582364017428484 0.11480776537964843 12.247818715509219 0 0 0
481 1 -0.07670265604928161 10.60567137507477 10.755384764943663 0 0 0
4 1 28.414887180302085 1.6773885059288738 1.6086477573313949 -1 0 0
161 1 -0.033567635786330374 3.2274489740046515 3.5956077810584905 0 0 0
32 1 24.98271338600485 1.7039143215856585 1.658663874271319 0 0 0
63 1 26.84387330929111 3.4774038695441702 1.7447195050856004 0 0 0
158 1 26.571829934740435 1.5877371877058755 3.608713185285023 0 0 0
189 1 24.949150649940822 3.5649094264672003 3.570626467241129 0 0 0
505 1 21.389731206068124 10.393358479711251 10.59131603037432 0 0 0
61 1 24.967045680478957 3.340520233636013 -0.1721355748565505 0 0 0
151 1 19.48778293893195 -0.04538534386674087 5.030153987519972 0 0 0
40 1 3.5616160608617724 4.937518257595615 1.755412786972087 0 0 0
67 1 1.7085724080138422 6.84446417945109 1.6016353825034735 0 0 0
72 1 3.296531759549495 8.910894879421205 1.4599364867091864 0 0 0
162 1 1.7883518309310735 5.147137161551016 3.4797139342281533 0 0 0
194 1 1.8255731150124221 8.936963921231099 3.3033604590954417 0 0 0
197 1 3.3988233976507174 6.94504437723491 3.42590244930395 0 0 0
36 1 -0.009983332929156319 5.1994975715832235 1.9099387719922705 0 0 0
193 1 0.05977804610636284 7.087937893564711 3.6024474083455447 0 0 0
69 1 3.489795364868886 6.833942815958406 -0.10366444884590997 0 0 0
1419 1 8.703033661877704 14.035846678562903 12.349614814041308 0 0 0
1287 1 5.279212649066764 13.916237202661865 8.791691200156142 0 0 0
44 1 7.018735147222208 5.009786409664974 1.71020797424928 0 0 0
71 1 5.2399417742815135 6.847610519312613 1.6697953520168924 0 0 0
76 1 6.896455015549435 8.92201774228662 1.6831284851882802 0 0 0
166 1 5.402418884836871 4.931172988245747 3.367740396193061 0 0 0
198 1 4.91257698735756 8.88096088190544 3.2913924440254974 0 0 0
201 1 7.043118886556295 7.052389502259054 3.238892961928686 0 0 0
411 1 23.05366675137096 -0.12848657222579263 12.455773870520401 0 0 0
38 1 5.391607244840874 5.183942040058683 -0.17121803799010427 0 0 0
42 1 8.75217921099265 5.2510408386111145 -0.09593350315254495 0 0 0
48 1 10.723402374842765 5.0802679574602125 1.3968929855284975 0 0 0
75 1 8.771993547071965 6.899022715645236 1.6484763703468353 0 0 0
80 1 10.72721459099822 8.609958910952928 1.7748774475192417 0 0 0
170 1 8.809901389925946 5.118092845576313 3.418317610277026 0 0 0
202 1 8.751487096461535 8.809755979164008 3.4080986863551437 0 0 0
205 1 10.586169300108944 6.794108062325032 3.3676643381415503 0 0 0
174 1 12.513320012289 5.130604077596597 3.180423450905727 0 0 0
79 1 12.279699003418488 6.866923830391653 1.2969616377347597 0 0 0
206 1 12.302224026629705 8.716267329087374 3.5994199229685524 0 0 0
52 1 14.08620187689834 5.147421474620361 1.3931591130486565 0 0 0
84 1 14.064207635590998 8.68870705501677 1.6082933576283809 0 0 0
209 1 14.124157670287584 6.950494443632012 3.258832480473074 0 0 0
178 1 15.963639419515133 5.182475236580118 3.3370177231665923 0 0 0
83 1 15.988679291883155 7.138218980338939 1.7324503810145804 0 0 0
210 1 15.871102588817255 9.01754841844545 3.580046407853163 0 0 0
89 1 21.31643839054284 6.879906714642382 -0.16870938981891576 0 0 0
78 1 12.384969552344844 9.032367772569824 -0.07584939452580139 0 0 0
56 1 17.76794737207181 5.169427967234746 1.543466046982071 0 0 0
87 1 19.581976444641985 6.853025121086919 1.6929588795286354 0 0 0
88 1 17.786910501629645 8.929644457355788 1.8200069690507727 0 0 0
182 1 19.4366589179384 5.032200693149968 3.3559134057016284 0 0 0
213 1 17.833739438706605 7.171561757984075 3.4763909721752486 0 0 0
214 1 19.778459754797655 8.966090727857452 3.446245495726488 0 0 0
60 1 21.35719288330934 5.117209776811674 1.5711645638772116 0 0 0
91 1 23.062263436080265 7.078826405763403 1.5311736168484065 0 0 0
92 1 21.534372813416315 8.90333807324492 1.5596290860537103 0 0 0
186 1 23.05280582031126 5.16900518222176 3.452541255369288 0 0 0
217 1 21.547424775843687 7.041696339452495 3.3268923178715126 0 0 0
218 1 23.030891002053586 8.923933454050458 3.409578522497945 0 0 0
85 1 17.710418794984466 6.84773807115211 -0.09918626845814042 0 0 0
68 1 0.06511366332509283 8.862007192506177 1.6603073160325128 0 0 0
64 1 24.960638002858186 5.175717134099404 1.6929773153836785 0 0 0
95 1 26.99087879724561 7.046138940872098 1.9586831796044 0 0 0
96 1 24.687800975554055 8.69861845102354 1.7390461251820797 0 0 0
190 1 26.72830446661738 5.263003875492192 3.6469494579679878 0 0 0
221 1 24.805958015459186 6.937890719229258 3.3907153103219203 0 0 0
222 1 26.867042291676235 8.906068813208753 3.2722654871562984 0 0 0
261 1 3.247990421695913 -0.1629046040626534 6.692181367619972 0 0 0
506 1 23.035127649724345 12.43134282533184 10.499173664439258 0 0 0
99 1 1.6907947351290213 10.606147444203009 1.7024994444401793 0 0 0
104 1 3.300585374328231 12.392370265378851 1.4584999808034969 0 0 0
226 1 1.800637659822178 12.413265131404247 3.190558432185872 0 0 0
229 1 3.4643320888882836 10.791805710479085 3.342896985575735 0 0 0
94 1 26.629455929154854 8.822732730047562 0.05637754906922829 0 0 0
1173 1 17.66169245275101 14.14023214419752 3.1874551209219115 0 0 0
103 1 5.123642018339643 10.684670772030486 1.573704307042581 0 0 0
108 1 6.817915532507391 12.628506505711234 1.633711706721793 0 0 0
230 1 5.159678165409129 12.569116710810409 3.2773688280531825 0 0 0
233 1 6.683044588869752 10.627213945704215 3.366284600181729 0 0 0
31 1 26.650171181443234 -0.09698465763223335 1.611757397585123 0 0 0
114 1 15.732219349438076 12.381304091410533 -0.12275262917918203 0 0 0
1161 1 6.872701314840184 14.116988210835405 3.381151787404703 0 0 0
107 1 8.633528945724319 10.543827855353625 1.5804464052558727 0 0 0
112 1 10.42254179716077 12.113098461819895 1.5115750902440492 0 0 0
234 1 8.677557427966418 12.041174143662948 3.3161384401825713 0 0 0
237 1 10.483070010128966 10.368725841372598 3.4193251252262438 0 0 0
507 1 23.187505163634665 10.916134256605067 12.362030027954152 0 0 0
111 1 12.568676203306532 10.461012534093914 1.683674119950989 0 0 0
238 1 12.317189909387427 12.37684464358606 3.5816661753175505 0 0 0
116 1 14.00048016131576 12.468660888877451 1.8341135924744623 0 0 0
241 1 14.175393706390954 10.641259900066979 3.35241191097577 0 0 0
242 1 15.947871182036486 12.478848799227272 3.5274316809012634 0 0 0
115 1 15.940511805272362 10.791785195708062 1.7095103470000432 0 0 0
508 1 21.327809412932567 12.411036378821246 12.411666002520317 0 0 0
54 1 19.53007552136638 5.058629165868598 -0.1677631877708683 0 0 0
153 1 21.382888471906497 -0.1359747101842959 3.2725627952263427 0 0 0
119 1 19.688035750163213 10.732785569966214 1.8032497440344208 0 0 0
120 1 17.601093969807 12.419685534445973 1.5610917728908662 0 0 0
245 1 17.838215786903845 10.642114780778181 3.2263119355362684 0 0 0
246 1 19.428350677630178 12.455471754543703 3.471332554208674 0 0 0
263 1 5.2991704819201715 -0.06310729594340359 8.77757624931709 0 0 0
504 1 18.097776360192505 12.335379090767798 12.48942838629733 0 0 0
123 1 23.334620637298123 10.618195307982026 1.4652538995236561 0 0 0
124 1 21.570930714633683 12.492546908689194 1.6656085131558354 0 0 0
249 1 21.311393240419115 10.755440873613365 3.3659961113424313 0 0 0
250 1 23.147717828289288 12.452808289077357 3.307461702541887 0 0 0
3 1 1.5844219614020392 -0.1746735736859367 1.5709640911464884 0 0 0
100 1 0.013564387903281544 12.464038696859408 1.689543209130052 0 0 0
225 1 -0.1593635224674089 10.8055491577106 3.3791697779144916 0 0 0
253 1 25.03733016759249 10.67131309232633 3.2203163409765962 0 0 0
127 1 26.818845624722044 10.753679061287334 1.6015084975863747 0 0 0
128 1 24.805254161237794 12.554810001448752 1.70029139469924 0 0 0
254 1 26.78682944160038 12.522600109736983 3.316539175550604 0 0 0
26 1 23.115440750288144 1.5426334436984133 -0.06411341251062361 0 0 0
502 1 19.632574814263712 12.26678651827031 10.651324016761995 0 0 0
387 1 1.5892103673803364 -0.11394241336120634 12.29149297855778 0 0 0
1285 1 3.3706254501476085 14.105884013271973 7.0987776533465965 0 0 0
501 1 17.62798075707381 10.635937563209739 10.72524816940729 0 0 0
136 1 3.3578864057133875 1.5543554613242174 5.119990572835923 0 0 0
163 1 1.7167001472501116 3.374002709675675 5.240821901348333 0 0 0
258 1 1.5833807032442113 1.4692487724286936 6.860277714151462 0 0 0
264 1 3.429561816922901 1.531644829480275 8.564392229660202 0 0 0
291 1 1.562170332580491 3.367586239553535 8.609503927124818 0 0 0
293 1 3.4548322576729857 3.2295006012027256 7.000306937575453 0 0 0
132 1 28.421458020028037 1.440317167095093 5.048518222427971 -1 0 0
395 1 8.512962873944623 -0.05703155243599717 12.44107101073627 0 0 0
503 1 19.669238414160485 10.525630349556087 12.395870423812992 0 0 0
140 1 7.197663192103632 1.4646143045436661 5.1411453758742605 0 0 0
167 1 5.1799612235556465 3.392895903912727 5.1918254294171 0 0 0
262 1 5.3475533246832985 1.5724127080045482 7.056107037122338 0 0 0
268 1 6.857242146596918 1.7230332982462302 8.781963490964785 0 0 0
295 1 5.063218660280069 3.469631643140424 8.901051272757226 0 0 0
297 1 6.876734053449688 3.2679718242407647 7.082451503804787 0 0 0
1291 1 8.748466007733251 14.049159227475183 8.825166508572849 0 0 0
267 1 8.724051689182062 -0.14255342935979987 8.690349489053517 0 0 0
125 1 25.058028691778784 10.708096124649229 -0.011285851185263845 0 0 0
144 1 10.586596503674881 1.3264818474700577 5.240075281154605 0 0 0
171 1 8.558545812710438 3.5478749677863552 5.185695517705937 0 0 0
266 1 8.80813899444174 1.4898154780185695 6.899682547185834 0 0 0
272 1 10.375881544050193 1.8500014017808555 8.819665556586605 0 0 0
299 1 8.56714576406315 3.3508328621759476 8.691946131479506 0 0 0
301 1 10.339042995934147 3.422211085552987 6.843581929477533 0 0 0
1163 1 8.571053736967476 13.932258445434044 5.076753359396159 0 0 0
495 1 12.083072872818834 10.494343872680219 12.35552112309333 0 0 0
494 1 12.335281105675103 12.025127588954085 10.412568551140321 0 0 0
270 1 12.197747991746752 1.6290763766649539 7.078412181162251 0 0 0
175 1 12.261745927228638 3.4012459165856277 5.463999040774911 0 0 0
303 1 12.128699413822641 3.5871426818035492 8.858975549489987 0 0 0
148 1 14.15921469061192 1.6212404575589205 5.315839021578955 0 0 0
276 1 13.986857473113 1.5767631882225566 8.983766876249597 0 0 0
305 1 14.155033933673637 3.2013478209978885 7.148815641066035 0 0 0
307 1 15.782267694759117 3.524583019867506 9.073324088196527 0 0 0
274 1 15.811774727306224 1.4226828457401575 7.1935128488812135 0 0 0
179 1 15.740184085909402 3.480084640386239 5.4275264454953644 0 0 0
1311 1 26.653361699714292 14.172661466958342 8.909982599975551 0 0 0
152 1 17.57251585408295 1.6463220201838686 5.228083263502576 0 0 0
183 1 19.41672841406933 3.2769886912030897 5.250262680835713 0 0 0
278 1 19.5262650672037 1.5765032031735868 6.850729685172001 0 0 0
280 1 17.818945480771212 1.5417878944348473 8.713391982077225 0 0 0
309 1 17.51703907489592 3.3741196028503273 7.111293881119227 0 0 0
311 1 19.504477964236532 3.5603618846433625 8.561299556426295 0 0 0
497 1 14.181513835261972 10.31380623971374 10.529698768779397 0 0 0
574 1 26.637302441808934 5.296857167486675 13.9269495716355 0 0 0
156 1 21.323029206279575 1.544426440272545 5.300088212053651 0 0 0
187 1 23.174267415187064 3.3344815645011723 5.437714518786209 0 0 0
282 1 23.19366348502988 1.6382405214437263 7.337237924687227 0 0 0
284 1 21.26197281331134 1.566219782740928 8.758465216775775 0 0 0
313 1 21.22678424899617 3.562800370787354 6.949587779479699 0 0 0
315 1 22.982142082832876 3.4526036356185337 8.628151560475558 0 0 0
1281 1 -0.029327124071359595 14.175283031210084 7.040751132977357 0 0 0
260 1 -0.07871707983310117 1.6233326136508917 8.686470690240322 0 0 0
289 1 28.511455863834964 3.465916811978096 6.794767218867103 -1 0 0
160 1 24.587625384199335 1.3812266732945175 4.977251432468681 0 0 0
191 1 26.658621444720648 3.3549147984506633 5.192115175804212 0 0 0
286 1 26.750681969937443 1.4736858250677187 7.001297544102174 0 0 0
288 1 25.02394625288086 1.3003633096483562 8.89762623197961 0 0 0
317 1 25.062387158854698 3.404839376380863 7.32096040911949 0 0 0
319 1 26.87272784582707 3.447401372496754 8.60819524297158 0 0 0
498 1 16.084159847392943 12.552902938138718 10.710416881611799 0 0 0
168 1 3.5791885888819746 5.070808067696541 5.231483512217955 0 0 0
195 1 1.8039984710032209 7.044357309122866 5.235524814796374 0 0 0
200 1 3.445661446751 8.887265455803886 5.229466631224824 0 0 0
290 1 1.6658351657230925 5.155526359668019 6.740195084545848 0 0 0
296 1 3.360253333117238 5.149614227057618 8.707687970609042 0 0 0
322 1 1.5333024488473195 8.782144963359118 6.880589014663551 0 0 0
323 1 1.767967600212092 6.89859832693069 8.583698640819552 0 0 0
325 1 3.6323069926889926 7.094326049889523 6.974083864029974 0 0 0
328 1 3.3423693352603676 8.83514812445822 8.790504234202187 0 0 0
292 1 -0.02460019591143947 5.109637455390635 8.664405325717176 0 0 0
321 1 -0.12196187067347242 6.966894528838232 6.885626024661116 0 0 0
164 1 0.06180823149373893 5.174924044186169 5.089194140672741 0 0 0
172 1 6.7679220126096595 5.211603979133501 5.5527434193818355 0 0 0
199 1 5.462889801740545 6.949654817257401 5.0460261836895395 0 0 0
204 1 6.997893879900157 8.863783805414812 5.215857310163905 0 0 0
294 1 5.104064332642366 5.262155511653796 7.031241793028592 0 0 0
300 1 6.785241094781015 5.28708429509122 8.580341262969533 0 0 0
326 1 5.429262920917099 8.837801634771226 6.901378172177127 0 0 0
327 1 5.142731966390024 7.017183977346603 8.751825798044583 0 0 0
329 1 7.177644773526493 7.16942301629192 7.004818970922177 0 0 0
332 1 7.155239634618002 8.629512181867865 9.074500406768074 0 0 0
176 1 10.620809117483567 5.264161723903223 5.249157618511711 0 0 0
203 1 8.76313909295049 6.90488879388191 5.244276274729081 0 0 0
208 1 10.347111039021565 8.611371852888801 5.19981714383047 0 0 0
298 1 8.658265742292487 5.10104828385873 7.051469992231899 0 0 0
304 1 10.529971785065817 5.135038625646365 8.681896630857091 0 0 0
330 1 8.796638913672938 8.75341031171349 7.041366622517941 0 0 0
331 1 8.738869037288335 6.900860285873598 8.800842153554377 0 0 0
333 1 10.57008249114991 6.975164523263843 6.996768628345831 0 0 0
336 1 10.73037956507597 8.448373153361945 8.793363143275984 0 0 0
335 1 12.402317763447869 6.976349092308768 8.943012792633033 0 0 0
302 1 12.299618949941829 5.141579317851088 6.979889998786553 0 0 0
207 1 12.3380541988842 6.922532549641073 5.178674481276528 0 0 0
334 1 12.594749773899991 8.608144578745886 6.89952551932287 0 0 0
180 1 13.889715645313363 5.084031503330462 5.137468805067352 0 0 0
212 1 14.199368860023837 8.877372815948505 5.186640788398294 0 0 0
308 1 13.972884634083936 5.254233241007184 8.99646204617124 0 0 0
337 1 14.099033038789171 6.8399605371066174 6.990603004226256 0 0 0
340 1 14.324731860646098 8.71204311969796 8.834215833344315 0 0 0
339 1 16.05016747159518 7.069885699986774 8.887004327404089 0 0 0
338 1 16.13285873271984 8.818354418941825 7.157855283631643 0 0 0
211 1 15.812443008168163 7.098557762334434 5.064314852667337 0 0 0
306 1 15.707130698208388 5.266550718783843 7.139124845011982 0 0 0
184 1 17.431663790996172 5.149105712422747 5.376852456689562 0 0 0
215 1 19.58283575683228 6.939113321009306 4.939302662273635 0 0 0
216 1 17.717314630399407 8.886727760106359 5.155538612140782 0 0 0
310 1 19.521538398350746 5.472591412373766 6.891754399953069 0 0 0
312 1 17.772900544615556 5.326620784498219 8.76513975027174 0 0 0
341 1 17.88645385405163 7.04087637383414 6.828122670759946 0 0 0
342 1 19.562036705365188 8.668803312305934 7.0698502575609705 0 0 0
343 1 19.550609124248304 6.941854462230417 8.910952927990015 0 0 0
344 1 17.93034756890801 8.651513589771234 8.921691719706258 0 0 0
188 1 21.33029072674565 5.294086316925512 5.203246984588263 0 0 0
219 1 23.13533049192442 7.194314916145451 5.192764335016341 0 0 0
220 1 21.4965809141019 8.689382950561264 5.201231589630765 0 0 0
314 1 23.284929112475837 5.124906374433122 6.971734348311813 0 0 0
316 1 21.503718753991947 5.274860955584559 8.779472593139042 0 0 0
345 1 21.348251201092506 6.9963927380738555 6.981741254247386 0 0 0
346 1 23.20314280164705 8.875270465270475 7.074280321598471 0 0 0
347 1 23.374790349627027 7.096329970116769 8.7519988141884 0 0 0
348 1 21.251650586910802 8.699068134190764 8.749361583114064 0 0 0
324 1 0.00047043865563192733 8.568869617273728 8.802295342635789 0 0 0
196 1 28.50378518397869 9.039497549647118 4.954756234466929 -1 0 0
192 1 24.89883956533208 5.224351391830771 5.314342745026215 0 0 0
223 1 26.805878508765186 7.334231986656449 5.125692108919277 0 0 0
224 1 24.956509178037802 9.061780403857394 5.142830839756295 0 0 0
318 1 26.722037900773856 5.482979863488252 6.798625360887727 0 0 0
320 1 24.843068857207083 5.252798476798724 8.818373580461792 0 0 0
349 1 24.986219098462374 7.101884139781353 6.95865057727895 0 0 0
350 1 26.887098752775866 8.997278664930917 7.000471483196767 0 0 0
351 1 26.61167021644335 6.867806383030472 8.616441627635067 0 0 0
352 1 25.13117425501015 8.789165158234667 8.601079069354475 0 0 0
500 1 13.909356338642354 12.094472083975955 12.215363009400344 0 0 0
227 1 1.6432965466908835 10.549826664981076 5.283960977002009 0 0 0
232 1 3.215875734079679 12.391325335666078 5.267598660919288 0 0 0
354 1 1.5889251174117036 12.45761241966981 6.96457603893775 0 0 0
355 1 1.3581214129071777 10.618296402529257 8.804249922873568 0 0 0
357 1 3.383672558717721 10.31103974264904 7.046562007243526 0 0 0
360 1 3.505674827447623 12.324187439465275 8.854806189951521 0 0 0
356 1 -0.14219928516006064 12.53113232574057 8.859371440824024 0 0 0
499 1 16.123995445581198 10.672871894238932 12.397839339896642 0 0 0
231 1 5.3314374767166015 10.422085010746436 5.1746071946563035 0 0 0
236 1 7.030057844962423 12.20846211712077 5.179549795320259 0 0 0
358 1 5.412798967629441 12.29611703745523 6.794381264616458 0 0 0
359 1 5.115975250354985 10.582322982822584 8.933730024499562 0 0 0
361 1 7.000004810508438 10.450360524746097 7.201692431192805 0 0 0
364 1 6.942249407406888 12.199281432360001 8.611947444916215 0 0 0
493 1 10.468438891226295 10.507178875967014 10.542304578879929 0 0 0
1307 1 22.957736280637867 14.106113385913655 8.759322698397142 0 0 0
235 1 8.918162295897327 10.358414503979843 5.135454828903341 0 0 0
240 1 10.43789992906682 12.254365021343611 5.134460269379808 0 0 0
362 1 8.829826969554029 12.13866959346075 6.9662289691334935 0 0 0
363 1 8.720745777723959 10.561195073659386 8.817611865519657 0 0 0
365 1 10.628965992981701 10.483163369669596 6.958288880404295 0 0 0
368 1 10.674337212618344 12.340049780058354 8.668141822957146 0 0 0
526 1 12.46562069019917 1.8688552281970638 13.88707406611723 0 0 0
496 1 10.584672447594912 12.233870574292663 12.333637377153368 0 0 0
366 1 12.239140039587172 12.322710414794997 7.020651236359313 0 0 0
367 1 12.315165655532518 10.174353453378448 8.677808431396322 0 0 0
239 1 12.295296382998748 10.434670353183925 5.361317131589213 0 0 0
244 1 14.14882025474982 12.577027065757914 5.294540615526816 0 0 0
369 1 14.151152870096004 10.565986111808638 6.868483081986093 0 0 0
372 1 14.176759881445316 12.396460310359895 9.02495161767071 0 0 0
371 1 16.14388438608827 10.676529179787206 8.902099094123765 0 0 0
243 1 15.898136038330502 10.655289721178292 5.3082210351325125 0 0 0
490 1 8.657454958947104 12.36151944154148 10.39245662397599 0 0 0
370 1 16.02668367936922 12.557754491230297 7.1099046016042955 0 0 0
247 1 19.549981425807783 10.532899547151127 5.268458763520062 0 0 0
248 1 17.752812024970957 12.460968184223855 4.996102053108692 0 0 0
373 1 17.68064606108856 10.890038982636831 6.921563029972462 0 0 0
374 1 19.51169605466781 12.377065005038036 6.768185598529977 0 0 0
375 1 19.360960709109005 10.588778297146959 8.806921390563037 0 0 0
376 1 17.827533865923986 12.495345249863425 8.922635598920374 0 0 0
491 1 8.792189347940822 10.574293718422583 12.176105639330157 0 0 0
251 1 23.217638388026206 10.82923348134074 5.0963958978770565 0 0 0
252 1 21.320212226392666 12.437770872666393 5.155224430231306 0 0 0
377 1 21.31245039910282 10.644277615901375 7.0106644609130955 0 0 0
378 1 23.196356956998198 12.391068971570851 6.953307199458408 0 0 0
379 1 23.104802151841813 10.600713482896259 8.666083986131177 0 0 0
380 1 21.26022568027521 12.320106820424915 8.82832538513464 0 0 0
486 1 5.265640587876759 12.195851450555956 10.657458152490575 0 0 0
489 1 6.9844779490656155 10.57841725789406 10.608452509182385 0 0 0
1305 1 21.381813190983493 14.0697011505469 7.0098317145128215 0 0 0
228 1 -0.04049312789988946 12.455675793571064 5.361456433883581 0 0 0
353 1 -0.07293925293183925 10.578164242646098 6.935934845945613 0 0 0
256 1 24.90648082725223 12.650391744727424 5.215720843270383 0 0 0
255 1 26.687191026589936 10.737847798165248 5.03739094844122 0 0 0
381 1 25.123233235338464 10.702294180581573 6.909795142382708 0 0 0
382 1 26.852691813497948 12.532722564130674 7.089045262560085 0 0 0
383 1 26.965597224684092 10.598999023133649 8.790708380160966 0 0 0
384 1 24.84902593607122 12.277822247136973 8.77715425351043 0 0 0
391 1 5.118273892290227 0.06056785472075532 12.475536154467944 0 0 0
492 1 6.939045897277561 12.350814604280613 12.371925219623042 0 0 0
561 1 14.243354076241678 3.665747417307044 14.113961636296397 0 0 0
386 1 1.663951261494622 1.6211525267450309 10.704830282794292 0 0 0
419 1 1.5907504534610724 3.419653561663078 12.443856605752138 0 0 0
421 1 3.372196346262714 3.4449665560002267 10.554181700988153 0 0 0
392 1 3.4169081083994945 1.6529999649292757 12.369849936469075 0 0 0
388 1 -0.06767523848099567 1.631671029933193 12.339014261339067 0 0 0
417 1 -0.15844530421022895 3.4685606893036587 10.591914685696995 0 0 0
397 1 10.507332444379944 -0.08963368553850515 10.702641018424508 0 0 0
487 1 5.239735490204849 10.474666076847573 12.295763218574436 0 0 0
390 1 5.1783498698159525 1.7131605071268259 10.51083492301985 0 0 0
396 1 6.917198240693952 1.6447769361090427 12.377994382281475 0 0 0
423 1 5.116113313159824 3.382956329990309 12.422689761416263 0 0 0
425 1 7.109347464829183 3.3922064986868348 10.444908625931754 0 0 0
1041 1 14.101822571855294 13.87685314129488 -0.1441551726353771 0 0 0
569 1 21.231836803967273 3.4355858735008677 13.980556386157108 0 0 0
394 1 8.833709780733766 1.4750846263129762 10.738273862138914 0 0 0
400 1 10.461415961262997 1.6995588489981885 12.618084803121386 0 0 0
427 1 8.704594608695464 3.536713325377123 12.408950377053545 0 0 0
429 1 10.41600616991474 3.3955846903851605 10.499834411035708 0 0 0
1301 1 17.61780683889807 14.128357247494396 6.92248435080843 0 0 0
398 1 12.082884423978783 1.6778473490463712 10.595735295065646 0 0 0
431 1 12.306329621323675 3.46736519452321 12.370783211584252 0 0 0
404 1 14.293387439948631 1.5936955392159282 12.3104002236512 0 0 0
433 1 14.193891405083807 3.596416339249347 10.615391841314713 0 0 0
402 1 16.1276453441251 1.4180036040296995 10.540504301195968 0 0 0
435 1 15.883948761345522 3.2814038769765004 12.275784309977542 0 0 0
538 1 23.080717748915934 1.5239995082146014 14.01347507251189 0 0 0
1295 1 12.254041957446297 14.143251465197297 8.78176511764228 0 0 0
541 1 25.14894945730005 0.015195499205956975 14.01063331784706 0 0 0
406 1 19.61707348096553 1.585883164557304 10.543297873655854 0 0 0
408 1 17.95473605045342 1.5786285731286565 12.373542093636726 0 0 0
437 1 17.724539558907352 3.5391490133061523 10.43329454715286 0 0 0
439 1 19.56733688913147 3.577954315196418 12.173562116466066 0 0 0
1167 1 12.024720805959792 14.169274137182068 5.202493062620508 0 0 0
1289 1 7.010321884959675 14.147692633855401 6.820365652836957 0 0 0
410 1 23.094127646671662 1.3252107379183242 10.550246930657373 0 0 0
412 1 21.389745760386592 1.6492282730664685 12.114549307510249 0 0 0
441 1 21.379995574866008 3.4212666447976 10.50423097701269 0 0 0
443 1 23.19071467839577 3.4315952360956357 12.15910771395387 0 0 0
485 1 3.330311421024549 10.555925495833415 10.656922996750554 0 0 0
622 1 12.453307005695729 12.380274378922808 14.093401293839928 0 0 0
414 1 26.841441848840446 1.6742487901664689 10.387340057567712 0 0 0
416 1 24.90053738316531 1.654428433033027 12.335766194452122 0 0 0
445 1 24.92902407827793 3.337117768472231 10.329133762062238 0 0 0
447 1 26.839982481102872 3.3842825575751014 12.359039596442015 0 0 0
1043 1 15.844780319706881 14.11850263559895 1.4699730937445334 0 0 0
542 1 26.79338082185072 1.5255517864538903 14.026604823015218 0 0 0
418 1 1.5783904062970968 5.2370416549507 10.374349470170968 0 0 0
424 1 3.290165643374879 5.127497442719256 12.400807379509178 0 0 0
450 1 1.820424167141856 8.642990433865316 10.638532139657542 0 0 0
451 1 1.65217957791298 6.857907733978125 12.25354456104264 0 0 0
453 1 3.7127775949128536 6.89873447127833 10.604173379552464 0 0 0
456 1 3.5107941679273074 8.823497253348624 12.62502406594484 0 0 0
452 1 -0.14565225030592543 8.649081456082666 12.190754961307498 0 0 0
420 1 -0.16990509338472748 5.296990213264253 12.339433392004812 0 0 0
449 1 -0.15626364158795542 6.779470144060713 10.376829561489181 0 0 0
385 1 -0.053533450491251244 -0.05394250320900085 10.343133073387296 0 0 0
413 1 25.00169747454972 -0.06022873919415671 10.715200780249502 0 0 0
422 1 5.207261704522837 5.091142820278061 10.397755107368361 0 0 0
428 1 6.781318626634562 4.913845049373765 12.250641898146469 0 0 0
454 1 4.982207376575423 8.64919591411378 10.566758673090739 0 0 0
455 1 5.192692294321402 6.8055165212398885 12.44876873585382 0 0 0
457 1 6.669950556225283 6.920751499613792 10.500307340318388 0 0 0
460 1 6.962313370311919 8.605270803424434 12.275947499560514 0 0 0
513 1 0.07938604078873368 -0.00560974516564311 14.018259493667308 0 0 0
1421 1 10.566871037540409 14.075816033533444 10.653150433498563 0 0 0
426 1 8.643076738772374 5.175648075397476 10.340389586906532 0 0 0
432 1 10.429202711301176 5.219088165575993 12.464827487786787 0 0 0
458 1 8.883893320402889 8.542142449258442 10.653034210936772 0 0 0
459 1 8.588023524210136 6.836147669786555 12.233506299848527 0 0 0
461 1 10.727872593780308 6.6817063241385775 10.61425359695387 0 0 0
464 1 10.463444316821514 8.759642289511628 12.431783897465545 0 0 0
122 1 23.15094027121768 12.559765960462792 0.05166011485877686 0 0 0
1035 1 8.813571753615205 14.165436662467357 1.4173346236235667 0 0 0
463 1 12.313934332675668 6.899533569320294 12.48038519176594 0 0 0
430 1 12.08418452104743 5.004833872221835 10.67708632726548 0 0 0
462 1 12.403920608359615 8.638038672965386 10.825619969977888 0 0 0
436 1 14.315068397271997 5.169726035506283 12.386942418648331 0 0 0
465 1 14.239586392922902 7.12545364728158 10.61827496007862 0 0 0