LAMMPS data file via write_data, version 29 Oct 2020, timestep = 300000

2048 atoms
1 atom types

-0.5001673950658354 28.852167395063653 xlo xhi
-0.5001673950658354 28.852167395063653 ylo yhi
-0.5001673950658354 28.852167395063653 zlo zhi

Masses

1 58.933

Atoms # atomic

35 1 1.4777519662477283 3.081245439622432 1.2156926514597641 0 0 0
130 1 1.2232984700509768 1.1161913687110487 2.771557697585036 0 0 0
8 1 3.189459854912531 1.495111709644791 1.5434225626636557 0 0 0
136 1 3.295891512341062 3.2618523651604465 3.489515408432837 0 0 0
907 1 8.977926969286544 1.5328681904250119 -0.3784014525228806 0 0 1
134 1 4.985547257425182 1.685683159687553 3.2550007284723383 0 0 0
169 1 6.787331648096592 3.227793121855837 3.101761815434825 0 0 0
37 1 5.2842347562572645 3.116256055728827 1.2600393237088667 0 0 0
10 1 7.193264795222742 1.3402132218824394 1.149716703389798 0 0 0
30 1 26.964665179724022 1.2160409507973948 -0.3846170485805499 0 0 0
135 1 3.2989058425009556 -0.4966366236239963 6.287480118438148 0 0 0
484 1 28.83134992468031 12.352913958109292 12.181220240421526 -1 0 0
12 1 9.16347628229358 3.3705428609638277 1.2991703631860854 0 0 0
138 1 9.170184748228753 1.7378356502477565 3.1630599984430012 0 0 0
173 1 10.790111607185136 3.4100239984205456 3.9150088834445835 0 0 0
11 1 10.423858451884653 1.0667012322613862 1.3267603099468717 0 0 0
259 1 1.7840259328412276 -0.39770045706684287 8.367124318709044 0 0 0
47 1 12.058025129157866 2.971236696149879 1.4461465873114812 0 0 0
287 1 27.05297909616627 -0.3698499743251049 8.641101187097734 0 0 0
399 1 12.615041668606594 -0.4343910067254043 12.566254811148848 0 0 0
142 1 11.964128539315544 1.2617805591017837 3.344139665993396 0 0 0
20 1 13.868203837754304 1.1364103470688596 1.6113054225674142 0 0 0
177 1 14.381439514172405 2.857249728145418 3.30286544722155 0 0 0
137 1 7.135181293917922 0.07451301444843617 2.9330631786232484 0 0 0
510 1 25.741536425126206 12.638007889819777 12.331005737267821 0 0 0
1154 1 1.3072654691107999 13.77277317404604 4.93792716878771 0 0 0
391 1 5.281406319940103 -0.344070841461443 12.266925262229702 0 0 0
146 1 16.275442576073218 1.1350960259297564 3.591938257842817 0 0 0
52 1 16.260365835731605 2.718260802638346 1.5559469390820264 0 0 0
51 1 17.839961575927823 1.2119641731275945 1.5380710295906206 0 0 0
181 1 17.6200031307376 3.1544836157275107 3.289184085412918 0 0 0
55 1 19.466631089766132 3.3002348763862286 1.3950325416154845 0 0 0
23 1 20.05859881335101 -0.2567432135344158 1.4110476010109334 0 0 0
509 1 25.476867500665037 10.776377247478536 10.659487187982212 0 0 0
355 1 27.17216572731658 12.732550061642375 10.324939061682668 -1 0 0
150 1 19.55629437344161 1.3258926690434658 3.4672256684749687 0 0 0
59 1 23.237333738538887 3.2736972327089098 1.4135112837349801 0 0 0
154 1 23.194829682471635 1.400879432465267 3.3369176567859067 0 0 0
185 1 20.993537707952818 3.3006471313644936 3.3897341365591327 0 0 0
22 1 21.368237344076704 1.607191463661851 1.7774879698195964 0 0 0
31 1 26.944687874498065 -0.48671906495632555 1.2069623244452574 0 0 0
511 1 27.002322960880463 10.370148313642627 12.672867782449426 0 0 0
4 1 28.5595475862633 1.6205991221834206 1.392397488463887 -1 0 0
161 1 -0.26737611657878724 3.183277609470162 2.9837183145702135 0 0 0
78 1 12.254770752422417 8.46156715935162 -0.2409255067795058 0 0 0
27 1 24.64084769422208 1.4302816042980047 1.4278468913056697 0 0 0
189 1 24.898683095687296 3.0321370419083293 2.828740851887429 0 0 0
63 1 26.85883060553234 3.9166180619334305 0.6369962123213735 0 0 0
158 1 27.015939093335227 1.4707801392930402 3.401613485576844 0 0 0
15 1 12.42410641777355 1.0430729932004972 -0.36981420261208353 0 0 0
162 1 1.470823418532079 5.131947941018873 3.1695616381889375 0 0 0
72 1 1.5160804938726864 6.990948694394668 1.6882836677906283 0 0 0
193 1 3.596229396962065 8.353500613195946 1.3108620041254964 0 0 0
38 1 3.4055321152659443 4.982352852937014 1.2850914481629965 0 0 0
40 1 3.1842495708574967 6.941455565769137 3.783394833978428 0 0 0
222 1 1.317770373004091 8.755096285856258 2.865472682592058 1 0 0
68 1 -0.12352286549283759 8.928970096444747 0.8285363271106374 0 0 0
95 1 28.827137922382573 6.978863367884824 2.901851129497073 0 0 0
977 1 13.967403211264857 6.832138700865127 -0.23165661310120478 0 0 1
14 1 14.184790308534277 3.238984608177195 -0.1781169028222654 0 0 0
43 1 7.0697532047164975 4.450597314564178 1.3120774191708304 0 0 0
44 1 6.990246417286579 6.199502324123719 3.042577943592996 0 0 0
166 1 5.116584380229805 4.85827993518387 3.2564919888228228 0 0 0
71 1 5.356620524487812 6.629680362047115 1.2619874780707332 0 0 0
197 1 5.847297045171932 8.32077484525555 2.9051773425521774 0 0 0
201 1 6.971360387027356 8.683774663262373 0.9917058970345654 0 0 0
924 1 19.707332922303138 1.3056812733928096 -0.35779767045990774 0 0 1
1051 1 22.738295044781836 8.613010132399884 -0.40650050894330764 0 0 0
1159 1 5.091499549175628 14.139496004101174 1.5470870317723633 0 0 0
77 1 10.272045805836933 5.153469563357204 1.3173933938759625 0 0 0
170 1 8.882870072008242 4.537728210998453 3.2528051732956733 0 0 0
75 1 8.534653919457138 6.689800393111181 1.1744169286550405 0 0 0
205 1 10.700540759323143 6.989019239772711 3.3421268676996356 0 0 0
206 1 10.187087660961687 8.275714708086893 1.550022247086881 0 0 0
202 1 8.483896695744448 8.460026100069602 3.322405939178291 0 0 0
452 1 1.2937210140791118 7.923839346203362 14.113817148709536 0 0 0
85 1 17.566339292219666 6.790574143324403 -0.1786169329227842 0 0 0
113 1 13.659877645282481 10.14743563489153 -0.35960926547668737 0 0 0
1304 1 19.919044787899814 13.837473524561135 8.614177799860125 0 0 0
1309 1 25.942161413755983 14.11919432638809 6.84319339496675 0 0 0
48 1 11.946369986823198 5.049778667559816 3.2383893382722406 0 0 0
80 1 12.196771407946613 7.120605093840081 1.7394040927693122 0 0 0
174 1 11.76642582357673 8.974053459808387 3.5199362810311516 0 0 0
79 1 14.05171895947613 4.926330746821993 1.6872769119147089 0 0 0
209 1 14.247638134800129 6.783684616144797 3.220945367136201 0 0 0
84 1 14.138122101651922 8.671597725078332 1.414387136306248 0 0 0
56 1 16.135043212862612 6.286222855101788 1.6485055820936996 0 0 0
83 1 15.705842069518608 4.859553698822604 3.3840164832694293 0 0 0
210 1 16.23428370276173 8.610554641671737 2.496909588430034 0 0 0
951 1 17.98222862943836 2.945528246034499 -0.24607664591156853 0 0 1
53 1 17.933616738136564 4.850121421912095 1.5596986772711872 0 0 0
182 1 19.511810043861324 5.372794593402903 3.417591527463534 0 0 0
213 1 17.643671351795078 7.126862461594378 3.9677317380344066 0 0 0
214 1 19.543694958249304 6.996771455013667 1.1371738562739053 0 0 0
378 1 19.875236032615042 9.09890324489642 3.185276638536968 0 0 0
88 1 17.86353947500853 8.847491605831362 1.0130836173491002 0 0 0
1153 1 -0.41702259889952165 13.787001938359644 2.8302093930293033 0 0 0
1183 1 27.38876784323562 14.149426040774438 4.828555474573656 0 0 0
610 1 1.4218861044079731 12.482445791704562 13.87305912827192 0 0 0
60 1 23.29199261867604 4.994633953844351 3.1487330074746094 0 0 0
87 1 21.134571703952105 5.186168645135353 1.296374035779946 0 0 0
91 1 22.49494118815712 6.81052470936938 1.220666067141687 0 0 0
217 1 21.19981711028626 6.95720180955305 3.498572651804289 0 0 0
92 1 21.19874992343832 8.625245999257922 1.1593403802787454 0 0 0
123 1 23.195609544205197 8.81257605591964 2.8443007295652594 0 0 0
392 1 2.9695800935726577 -0.43030512230333623 14.088865382487365 0 0 0
36 1 -0.2755335603755923 5.168368748018006 0.9495084904615052 0 0 0
90 1 25.23922940170206 8.563036901619705 0.9894953682690877 0 0 0
64 1 24.98512402304626 5.2271804426541895 1.0473326208762916 0 0 0
221 1 24.87279632002739 6.958027610117301 3.32361808463195 0 0 0
190 1 26.83207612356984 4.750449010546611 2.848722604037337 0 0 0
96 1 27.280564053373617 6.665783855594317 0.9501559700210553 0 0 0
350 1 26.84814542001301 8.794331180352184 2.6116857328552627 0 0 0
358 1 5.039046480655839 14.091440186009361 5.062490967423421 0 0 0
99 1 1.8065236875432187 10.286173327722812 1.2259440810719995 0 0 0
226 1 1.9370954536273253 12.427464512497812 2.655813128851524 0 0 0
230 1 3.4855152195760093 12.17304750530121 0.7959142320488239 0 0 0
104 1 3.2156055068916185 10.564824487026936 2.8885730902395466 0 0 0
100 1 -0.2548481527771459 12.028842367164687 1.2825899611345606 0 0 0
228 1 28.84626761989964 10.412618129540418 3.0393356850460957 -1 0 0
1181 1 25.55447884115361 13.833449348907235 3.148312572207373 0 0 0
18 1 15.984228897183732 1.2397716519908828 0.13012165741415394 0 0 0
1558 1 19.63261668111499 12.154064698686865 14.005878937206237 0 0 0
194 1 5.177792025217539 10.1093832276572 1.3986156949473094 0 0 0
103 1 4.938884614529858 11.92246539430723 3.0326934124828893 0 0 0
108 1 6.606824114800447 12.132593015581065 1.2962594375450152 0 0 0
233 1 7.224777854478507 10.49475458525 2.686536208299082 0 0 0
28 1 22.872064932910853 1.4043075376451393 -0.195157153416609 0 0 0
106 1 10.788057932381149 12.31163320601223 0.9416972168210316 0 0 0
1004 1 8.56121954717487 12.386498327573928 2.9650466247286857 0 0 1
107 1 8.952767747922977 10.372556280707096 1.2163075472033529 0 0 0
237 1 10.065636415104851 10.617375922974182 3.4279618666073337 0 0 0
155 1 23.168304995686192 -0.23449985802215817 5.1145090500572845 0 0 0
111 1 11.925710405045098 10.26218752633335 1.6011975866603785 0 0 0
239 1 11.970875805008301 11.933364048406842 3.114053553736033 0 0 0
116 1 13.91246743053927 12.2129137513952 1.1805794330719108 0 0 0
241 1 13.908630589057587 10.364181894491606 3.281564932409835 0 0 0
242 1 15.61878240129372 12.345619617875721 3.0027435584858018 0 0 0
115 1 15.655185120920661 10.627698828922902 1.426779388326904 0 0 0
1289 1 7.221139356604737 13.98037288938728 6.825073249168588 0 0 0
245 1 17.551442807170368 11.293856125942487 3.2611656795435606 0 0 0
120 1 17.871652864365025 12.331771498009651 1.3594634210743828 0 0 0
246 1 19.721487257270283 12.243325239452371 3.1426032571780644 0 0 0
117 1 19.54458588305146 10.309114111415829 1.000318125194874 0 0 0
1508 1 27.04069455933702 1.0791196996087447 14.07393466235395 -1 1 0
257 1 0.07268538294700377 -0.15663057078096715 6.630755526002096 0 0 0
121 1 22.945658941927157 10.718043967490567 1.2632984732662966 0 0 0
124 1 23.316448532324316 12.649276845456308 3.110594972741272 0 0 0
249 1 21.42771828169267 12.511080937588424 1.1597384492212623 0 0 0
252 1 21.433174548510003 10.817113106032355 3.3692392952106496 0 0 0
82 1 15.80975204261174 8.442551498363867 -0.10980821000502966 0 0 0
506 1 23.60455250504996 12.514792953378784 10.420944072486979 0 0 0
50 1 16.204768743738484 4.4734479511549194 -0.43139417653821444 0 0 0
128 1 24.95642264663382 10.695696457418869 2.718801517911524 0 0 0
1053 1 25.205871804624508 12.24263819915717 1.1096067819788304 0 0 0
253 1 27.348341229492284 10.214624864226865 0.5996112490507932 0 0 0
254 1 27.103176206526847 11.675134079831933 2.485552446637556 0 0 0
54 1 19.416031655819864 5.04502156202646 -0.2596110635360216 0 0 0
105 1 8.775423702385504 12.247955645266064 -0.41939515232743263 0 0 0
293 1 1.13044765353256 3.473173059282303 4.792439037804457 0 0 0
1378 1 1.4596415128147404 1.592542899202924 6.93994034856629 0 1 0
165 1 3.0155668826592 1.9647366381992084 5.2425814379968525 0 0 0
291 1 1.2954802300724653 3.337099266457561 8.900775782786303 0 0 0
258 1 3.0826618455553345 3.396702093648275 7.259299121724024 0 0 0
264 1 3.169020936416484 1.7426280023325944 8.745761744308046 0 0 0
289 1 28.710299759965793 3.2726530657659745 6.457619736660444 -1 0 0
260 1 -0.35316751120480205 1.3873406914607598 8.8851499859762 0 0 0
573 1 25.049658608110057 3.179703114124611 13.88381832774317 0 0 0
168 1 4.932940967698671 3.406567866785023 5.345408137903794 0 0 0
140 1 6.399659265602854 1.6808714024597933 5.048025712781427 0 0 0
297 1 6.4763655785376475 3.4582702685568614 7.157110082451632 0 0 0
167 1 4.784319633959432 1.4386425092378317 7.07495556799048 0 0 0
268 1 6.148614705234929 1.1443212277621098 8.896141088600567 0 0 0
295 1 4.959644203377863 3.5822403332075057 8.820849237371352 0 0 0
298 1 6.636688081322912 4.941625823305659 5.075527466702087 0 0 0
265 1 6.553577601016732 -0.126097843573803 6.64469768714011 0 0 0
1179 1 21.862284431635764 14.092400218986034 7.204574320089523 0 0 0
144 1 10.391564654091942 1.2105424415667296 5.542372352251046 0 0 0
171 1 8.319998223509229 3.0641365140999586 5.027443596931396 0 0 0
266 1 8.2361896219792 1.6126471053497524 7.116150075985005 0 0 0
301 1 10.517455134085422 3.0834549721493443 7.447542327026469 0 0 0
270 1 10.105022665433289 1.1033005169885184 8.963011613073096 0 0 0
299 1 8.81530795346597 3.176192058036066 8.732612149661827 0 0 0
304 1 10.308268920605226 5.0252900417122355 8.893885129499878 0 0 0
175 1 12.316293118691492 2.728451156088083 5.344501524074788 0 0 0
273 1 12.35053519797281 1.1653090935634725 7.098968525292788 0 0 0
303 1 12.065061534066299 3.110898262573863 9.142543028546216 0 0 0
148 1 14.144396257365063 1.2953652782229126 4.8907217335665525 0 0 0
305 1 14.059920026786914 3.094141576767901 7.2480332667938985 0 0 0
276 1 14.196859440859606 1.1696762833370313 8.886468131953338 0 0 0
307 1 15.768301954915016 2.8957226787252277 8.948967650835854 0 0 0
178 1 15.712294670359286 3.231793487388834 5.312575317890998 0 0 0
274 1 16.2661099920874 1.2229915864477152 7.023637636663983 0 0 0
152 1 17.86100969339352 1.1024184834304378 5.329781367243762 0 0 0
278 1 19.64361302958578 1.067319158097138 7.163597457037142 0 0 0
311 1 19.83226877376221 3.7024809057647454 8.594087705186828 0 0 0
312 1 17.98326440725608 2.812999653395054 7.14894632299928 0 0 0
309 1 17.547622881288113 1.5327798619619433 9.000119502137206 0 0 0
505 1 21.407664567325618 10.190747396065907 10.285069026508088 0 0 0
183 1 19.520014325937616 3.0062286794749546 5.368487566295795 0 0 0
187 1 23.623750204100936 3.21573961286373 4.93294769553154 0 0 0
156 1 21.206459649099777 1.2415418876642121 5.456948636902462 0 0 0
282 1 23.06841699866856 1.1955511828809289 6.779431771533783 0 0 0
313 1 21.622446237438467 3.2608394730891788 6.4997135891038935 0 0 0
317 1 22.77563622433118 3.3157330669670135 8.447216198453335 0 0 0
284 1 21.367631252229764 1.3568076787470582 8.765349434463907 0 0 0
159 1 27.073611615784152 -0.4722195018895776 4.952482150517022 0 0 0
605 1 25.13579507923155 6.9790344968975155 13.767759444699033 0 0 0
256 1 23.476111459380974 13.670879547555469 5.573049997264932 0 0 0
132 1 -0.47644452373905466 0.985077722854804 4.890378211718417 0 0 0
288 1 25.174108189363302 0.8300476034706978 8.329522621815038 0 0 0
192 1 25.0132336207865 3.014468092973028 7.248704361582967 0 0 0
191 1 26.868121298097947 3.1861590649587157 4.9643924398274875 0 0 0
160 1 25.275144646651206 1.507901903400616 4.957533887595264 0 0 0
286 1 27.421483296946676 1.3660867482324512 6.922340981849905 0 0 0
292 1 27.371320607503414 3.0654034591012667 8.504532293130856 -1 0 0
296 1 3.17081727114417 5.169389753410801 8.729551738540005 0 0 0
195 1 0.7797641153840009 7.151952875148225 5.083907128337318 0 0 0
163 1 1.2520418470254493 4.814015688755701 6.674837105593408 0 0 0
325 1 1.3738087941505044 6.682871845504433 8.514572352521794 0 0 0
322 1 0.950412447083274 8.508092593732115 6.707870760733645 0 0 0
327 1 3.0607486587368045 8.554958917773138 8.67618459882304 0 0 0
326 1 2.931195548580578 7.077383940873152 6.329196502349406 0 0 0
67 1 3.044214155807134 5.198716379087863 5.108309397894296 0 0 0
164 1 28.744728919790226 4.835243724912477 4.82741592766969 -1 0 0
223 1 28.57607790115562 8.904937067471737 5.030070635221937 0 0 0
200 1 3.143332332203815 9.12703010692568 4.548815263734911 0 0 0
290 1 -0.41231066307701525 4.950744763738275 8.46979363899393 0 0 0
198 1 5.199916228009403 6.861771340871119 4.941406702568427 0 0 0
204 1 6.523191891687764 8.895184467652351 4.9524980661869975 0 0 0
199 1 4.484013395345965 5.689686417972554 6.847736764615579 0 0 0
294 1 6.787832177279258 4.9177339456570985 8.79960939626194 0 0 0
172 1 6.737445165260065 6.463873920605325 7.153335720131067 0 0 0
328 1 4.850121324654874 8.650224378810217 7.061263624432023 0 0 0
331 1 6.74036268484944 8.860563139463 8.657344171090282 0 0 0
329 1 5.0606655122749125 6.828691230371128 9.072781737326519 0 0 0
176 1 10.192132481394037 5.238055963015611 5.013692745527694 0 0 0
300 1 8.598651446925135 4.795246436116017 6.889499943094605 0 0 0
203 1 8.28440411114092 6.779323057441827 4.907343067985934 0 0 0
333 1 10.241981426992808 6.634700333288752 6.936454657879849 0 0 0
336 1 10.460302391034851 8.847477193919467 9.070539468240499 0 0 0
332 1 8.66198646441584 8.431348041260824 7.182809092675454 0 0 0
330 1 10.1522584602965 8.377739052028776 5.399287546371534 0 0 0
426 1 8.580727582364405 6.509068661345062 8.707527764662279 0 0 0
302 1 12.06201789832794 4.597217387437311 6.755294623636505 0 0 0
207 1 12.360755401784076 6.699498665908009 5.295225960020443 0 0 0
306 1 15.694010743484307 5.158920948679585 6.847354821144996 0 0 0
335 1 11.961407666253844 6.691705235627581 8.49791154881588 0 0 0
308 1 13.522711604088212 5.0110861707236705 8.879868223349959 0 0 0
212 1 13.96031093588075 8.700157251651895 5.286242240875347 0 0 0
180 1 14.144786362728151 4.874332419823339 5.100825508302765 0 0 0
337 1 13.974862883803194 6.820389847258147 6.8827030410057235 0 0 0
211 1 15.952757128159542 8.97521132616671 7.168326976735936 0 0 0
334 1 12.002905707156469 8.745716987105352 6.996631832857135 0 0 0
340 1 13.644295393439513 8.62254167165656 8.656254271841751 0 0 0
184 1 15.660196070311668 7.284099524083726 5.2472896384776195 0 0 0
339 1 15.728369049165105 6.505541613347888 8.698323747886363 0 0 0
216 1 18.003841508216695 9.050687042662569 5.58968553528628 0 0 0
179 1 17.35697151462491 4.911711554461438 5.200192942874907 0 0 0
469 1 17.423619271964576 5.002275213574996 8.256038492573973 0 0 0
310 1 19.381429816366634 5.184745368343855 6.48223379728497 0 0 0
341 1 17.580957840077303 7.057809074504339 6.441675120880409 0 0 0
343 1 19.27272216210841 6.837754184218304 8.256523862693488 0 0 0
215 1 19.66357616378624 7.215390817329337 5.318458131760824 0 0 0
338 1 17.75394172311345 8.770310047467849 8.721293939910304 0 0 0
342 1 19.800103821759294 8.944980616036865 7.116523770003074 0 0 0
188 1 21.67221153651913 4.854670940964179 4.624733414884653 0 0 0
220 1 21.52919857273139 8.864665279373476 4.849747790924152 0 0 0
219 1 22.960741145152575 5.0036464444835325 6.6958782489769915 0 0 0
224 1 22.975279886760617 6.965780836385231 5.245113230391189 0 0 0
316 1 21.43024119634869 5.414649347129363 8.41303848933032 0 0 0
345 1 21.46404413353683 7.077857234717828 7.053993898201565 0 0 0
347 1 23.255831914133445 7.316598227448153 8.479911388328425 0 0 0
346 1 23.334207186460063 8.875228090888584 6.409418594067538 0 0 0
348 1 21.115633136767492 8.562415325084968 8.86586420416485 0 0 0
323 1 -0.49663893568637385 8.804421548915686 9.025750118921666 0 0 0
321 1 28.81096525899813 6.577855602988817 6.64113155502525 -1 0 0
186 1 24.867390962037014 5.1147785457400285 4.709294245847119 0 0 0
324 1 25.07474957619513 8.654232173508584 4.594307765025498 -1 0 0
196 1 27.168577028293186 6.827500526233909 4.892961100963579 -1 0 0
318 1 26.518735643875956 5.093142120302574 6.423720472478997 0 0 0
218 1 25.162294681515192 7.245473474376402 6.70477206843444 0 0 0
351 1 27.171739460312175 7.052961623824711 8.824843155877124 0 0 0
349 1 25.508337543616996 8.81061158703579 8.652292128786561 0 0 0
320 1 25.38751665020917 5.454960516763212 8.574640663509735 0 0 0
255 1 26.977374375466198 8.7072608304999 6.883019348781509 0 0 0
267 1 8.600105205799165 -0.45285202068572655 8.385094513800421 0 0 0
231 1 3.2848017640629674 12.54766046899029 5.045257956318968 0 0 0
227 1 1.8781565073368474 10.984197177775501 4.809369937545185 0 0 0
354 1 1.4646270569243836 12.37848968287774 6.8947037124496715 0 0 0
360 1 3.3234900633297704 12.671534212576399 8.812552472028138 0 0 0
357 1 3.217664053791825 10.56961734484574 7.215964916069632 0 0 0
383 1 -0.2788184855598261 10.478170508195976 6.8216748582605415 1 0 0
448 1 26.694608547547702 4.872845995519026 14.152624748090838 0 0 0
1155 1 -0.3563031824171749 12.259031406215879 4.676839213600269 0 0 0
118 1 19.51053148973991 12.46597066549173 -0.23142482481123106 0 0 0
236 1 6.879818729984244 12.466720466785231 4.68764664469753 0 0 0
229 1 4.871867077147187 10.414511179050908 4.8406571912797345 0 0 0
361 1 6.486151914696836 10.764110560037507 6.748015488209786 0 0 0
359 1 4.826376583715904 12.078936411857384 6.704701317853748 0 0 0
364 1 6.950222564790574 12.387743509681444 8.300669860903351 0 0 0
486 1 5.222337361572743 10.613411051702736 8.963742872992123 0 0 0
470 1 19.62652635932833 8.780887191386748 10.548059828046469 0 0 0
411 1 23.43271408168028 -0.05085188305108573 12.309734338700787 0 0 0
2 1 1.150730895459189 1.4927103594714772 -0.47819303589840445 0 0 0
366 1 10.770658257634535 12.525698441688748 4.83953845385044 0 0 0
235 1 8.721837615440528 10.307722737286115 5.2432027034502395 0 0 0
363 1 8.9226512917913 10.391823766737128 8.473588703996224 0 0 0
240 1 10.934244762212355 11.946406837598305 8.47102120227432 0 0 0
362 1 8.485412286338036 12.26077011306419 6.275905785755254 0 0 0
365 1 10.477772195713225 10.760555929686642 6.3775548352417495 0 0 0
1167 1 12.34630113683891 12.463775416152503 6.85167945474748 0 0 0
208 1 12.455930276335835 10.573596983047928 5.085039284258635 0 0 0
153 1 21.650431871283864 -0.3433616756312118 3.3045167407211156 0 0 0
367 1 12.414176041402703 10.514059352164608 9.098114952174264 0 0 0
244 1 14.114078640093116 12.399681614516776 5.186323250512656 0 0 0
369 1 13.907149160800172 10.407218371567115 7.11253071669062 0 0 0
372 1 13.944897936644027 12.365808067538715 8.96792376633642 0 0 0
371 1 16.26344290428937 10.590877683609754 8.347930186277539 0 0 0
370 1 15.906577239583603 12.308089626431986 6.861286828257421 0 0 0
243 1 15.975083036989849 10.40426686493528 5.149266978389465 0 0 0
507 1 23.495506511532255 10.540423919809447 12.188111438306109 0 0 0
1415 1 4.974036060281508 13.887334102286554 12.457069236824314 0 0 0
248 1 17.885614408671373 12.747068639711655 5.4527269785583385 0 0 0
373 1 18.079171322981104 10.862719745386915 7.28757601269834 0 0 0
376 1 17.722148859042363 12.543608774255988 8.84133001248471 0 0 0
375 1 19.546847036160443 10.612343415730644 8.854997197168863 0 0 0
247 1 19.51067395120552 10.969828826003596 4.934706619241369 0 0 0
374 1 20.050662314842214 12.24845948701644 6.971371595343443 0 0 0
1653 1 16.18389292485771 -0.17557251785615402 12.353416166912131 0 1 0
1264 1 8.305124033537826 0.10724321945716109 5.096102547878794 0 1 0
379 1 23.182265000962126 9.712970322204132 8.63156071749349 0 0 0
251 1 23.87452923720202 10.903903244166127 4.814070588069681 0 0 0
1177 1 21.659817826608055 12.649893211982938 5.066707834474511 0 0 0
380 1 21.64057651032715 12.210110581903521 8.786500637267842 0 0 0
377 1 21.64571635978998 10.632208343583072 6.6077153064132315 0 0 0
1303 1 23.454059126334762 12.045434695096114 7.252416113458874 0 0 0
1281 1 28.7142238894506 13.707504634312059 6.72817876832585 -1 0 0
356 1 28.799051750435027 12.330676616671877 8.505385369550066 -1 0 0
381 1 25.668830781353066 12.390180384959276 4.9223705149568655 0 0 0
480 1 25.270069092797726 12.548202718309684 8.730250370897515 0 0 0
384 1 25.31977700204503 10.528340119391972 6.998310011245047 0 0 0
225 1 26.78701069474028 10.278971633188585 4.93980843633642 -1 0 0
477 1 27.20220319404217 10.644911929336585 8.914270058138499 0 0 0
382 1 27.09574540883768 11.918952329858346 6.688630157475017 0 0 0
606 1 27.11516957793524 8.561570974012572 14.115815221520192 0 0 0
636 1 21.798102510208537 12.197024689312913 12.481474785116314 0 0 0
570 1 23.324035503470853 5.205659062029347 13.955841874016032 0 0 0
386 1 1.3058855009470238 1.5045668281510953 10.596831899817603 0 0 0
514 1 1.3419684446594145 3.6910017179932257 12.422314086837796 0 0 0
389 1 3.0880672232303117 1.6491900925169207 12.554185416203271 0 0 0
546 1 3.197686602986763 3.275659333653677 10.526303209345588 0 0 0
417 1 28.614474460604427 3.1301939515279416 10.726963347061018 -1 0 0
497 1 14.209824802201691 12.22860418215936 12.165936255154584 0 0 0
285 1 25.18926835098724 -0.3146707291779584 6.60753075669914 0 0 0
390 1 4.50465535383996 1.2536224488943077 10.570979194204968 0 0 0
423 1 4.964033140217784 3.4507536893499355 12.63523495392896 0 0 0
422 1 6.579953410037394 2.8550618795584968 10.50425332285189 0 0 0
394 1 6.494638199601475 1.728780654577978 12.92421783631056 0 0 0
626 1 15.838244732214966 12.817214717563779 13.864954723657451 0 0 0
590 1 13.001281110668172 9.149815869377113 14.01187025146309 0 0 0
280 1 18.194722059326715 -0.26686963486921655 10.516686220362997 0 0 0
602 1 23.445299965661967 8.81293592267492 14.047707895132 0 0 0
1528 1 17.76860961361011 -0.38497887868488306 14.152061301392585 0 1 0
395 1 8.43133945327958 1.4033004848450041 10.613180915357662 0 0 0
427 1 8.633734976761305 3.0660959575719766 12.513453077910567 0 0 0
425 1 10.575930855644685 0.8510258594339553 11.685237635962652 0 0 0
429 1 10.505549078807018 3.3253408338549675 10.595846841292715 0 0 0
407 1 21.238933194526 0.04927167770608254 10.662995849654006 0 0 0
1435 1 20.06399690056655 14.000299197978267 12.399216048639566 0 0 0
581 1 1.314360584945833 5.56245876103591 13.882980500160347 0 0 0
133 1 3.364396699812889 -0.35701735915133526 2.7110397109447892 0 0 0
398 1 12.356434299121497 1.0025132017858829 10.487494937465414 0 0 0
431 1 12.380930159434277 3.0107560512343627 12.143606082396847 0 0 0
404 1 14.586878452596343 1.4752962713498237 12.513744295797501 0 0 0
433 1 14.147398246938089 3.2542286283198774 10.836873605295755 0 0 0
435 1 16.682862094630032 3.142731089853271 12.445439149284681 0 0 0
61 1 25.193822311444215 2.9244931189957635 -0.4508434927887496 0 0 0
613 1 2.8128048481320964 10.145266486919905 14.162191006040148 0 0 0
5 1 3.2441437009852714 -0.3815482570904962 -0.2547430626960775 0 0 0
562 1 15.848273191874684 4.608936112547942 14.108763678090762 0 0 0
402 1 15.850351031530193 1.2372721771617077 10.48805969190623 0 0 0
408 1 19.73508441665387 1.6027190488454837 10.620225660188808 0 0 0
437 1 18.292876308354842 3.7365717558052483 10.247920319026603 0 0 0
439 1 19.285579431997192 3.3551721203448284 12.43072454372117 0 0 0
403 1 18.060015505564458 1.305450979552171 12.24485168062396 0 0 0
502 1 20.03153916602288 12.37611210216364 10.476890940495545 0 0 0
491 1 8.679811339767387 10.713608966151995 12.238784330328 0 0 0
504 1 17.615523521976 12.536542802445894 12.089841228147007 0 0 0
441 1 21.461216622631042 3.191618414554932 10.551297185345565 0 0 0
410 1 23.52096648973118 1.3037944955541143 10.169578168726812 0 0 0
412 1 21.779580162301393 1.6094599732105022 12.808028544803118 0 0 0
443 1 23.283725786258806 3.754994634734272 11.821476775931423 0 0 0
1197 1 8.8920212200152 13.961951477517468 4.795569130273194 0 0 0
503 1 19.642432098881585 10.805269051978833 12.474062414694309 0 0 0
388 1 28.637890736679545 1.0755754619614797 12.119721154141848 -1 0 0
416 1 25.65402081152513 1.147590722977241 12.139736757150995 0 0 0
314 1 24.700156431252545 3.3000278068298736 9.692885617400863 0 0 0
414 1 26.77676485095489 1.538707030369721 10.166837558479768 0 0 0
447 1 27.171608039863706 2.8869838269685304 12.531356864373716 0 0 0
500 1 15.967788095398229 10.63332913469341 12.376543715871835 0 0 0
21 1 18.250431587455964 -0.304237066655034 -0.2571722280285933 0 0 0
625 1 12.358797130646106 10.747760199283425 12.408291423084753 0 0 0
418 1 1.0034794296879843 4.866650234730579 10.352172418674765 0 0 0
451 1 1.3581988532005023 6.876581215618875 11.927438250186649 0 0 0
450 1 1.6099049902971703 8.782465216746125 10.591164644999038 0 0 0
424 1 3.3769165684274576 5.127623112270395 11.81811437942934 0 0 0
456 1 3.4022978738231076 9.043867229420592 12.324403262926696 0 0 0
453 1 3.085782297486757 6.853292717236484 10.334252984117407 0 0 0
449 1 -0.4544296203637497 6.954018141621755 10.48763965647308 0 0 0
478 1 -0.3011363277168826 8.617874694821207 12.397488200024856 1 0 0
568 1 19.541535710844485 5.567542690634297 13.930117871807672 0 0 0
462 1 14.652672464893524 10.306837360709483 10.248575067846243 0 0 0
549 1 1.190266591387106 1.4634177889009305 13.8962762496287 0 0 0
428 1 7.097668346870488 4.908950580979629 12.63428611176515 0 0 0
421 1 5.417892421182673 5.12417116908212 10.955329023457535 0 0 0
457 1 7.025491615057861 7.014997261166977 10.494958488605352 0 0 0
550 1 5.366938899827008 7.043150914450963 12.355502640011641 0 0 0
454 1 4.825316400772449 8.90051708573294 10.481488226317204 0 0 0
1549 1 7.313634913054928 8.521802853161233 12.624522886572546 0 0 0
32 1 24.956605888447882 -0.37728383014667344 3.3312551617050543 0 0 0
525 1 8.134098603261583 -0.11925647099546355 12.315246223625989 0 0 0
1301 1 17.646578601098014 14.062247263546558 7.0788546553968015 0 0 0
461 1 8.610345437287044 5.1442083065301984 10.597725648240552 0 0 0
432 1 10.826157736636702 4.727951673845661 12.53206091926925 0 0 0
459 1 8.678022503597532 6.373479552918029 12.449123375685765 0 0 0
463 1 10.209472117159057 6.784306535526073 10.448975841860761 0 0 0
458 1 8.76553395213518 8.793955531251212 10.48942987321433 0 0 0
385 1 -0.24302535068492997 -0.36163346483284187 10.141422122380188 0 0 0
464 1 10.746470302164802 8.106887982164675 12.373117187403668 0 0 0
1055 1 26.966094452497295 14.026046294036442 0.9650587023361183 0 0 0
496 1 10.648469073129261 12.258903404099788 12.652512530776153 0 0 0
558 1 12.041506908544989 6.6074839381632104 12.12768550607369 0 0 0
493 1 12.115178940999277 8.581926568269326 10.66480275099943 0 0 0
430 1 12.337272881333929 4.794381102705535 10.748459748762285 0 0 0
468 1 14.590414401825997 8.909917489776012 12.114113646258422 0 0 0
436 1 14.371296038035629 5.202936554957329 12.41603369469925 0 0 0
465 1 14.095686701338392 6.688346743931019 10.575975164583248 0 0 0
434 1 16.16761469105807 4.702245287688333 10.592533113819425 0 0 0
467 1 16.39387266360182 7.0245008984684825 12.127615435711647 0 0 0