LAMMPS data file via write_data, version 29 Oct 2020, timestep = 300000

2048 atoms
1 atom types

-0.26324648192907496 28.6152464819292 xlo xhi
-0.26324648192907496 28.6152464819292 ylo yhi
-0.26324648192907496 28.6152464819292 zlo zhi

Masses

1 58.933

Atoms # atomic

8 1 3.528168786917154 1.423880621011121 1.8168034423137622 0 0 0
35 1 1.4469984352750846 3.2575291304613874 1.4083628816144662 0 0 0
130 1 1.5766466997191004 1.5905502295674032 3.5108649583319043 0 0 0
165 1 3.246378539547223 3.374267221186372 3.2948543951947573 0 0 0
4 1 -0.11452267439373287 1.4155809801663266 1.8061048662914794 0 0 0
161 1 28.478992378480847 3.236404831756323 3.3745219066855365 -1 0 0
1411 1 1.5040877670607562 14.123371593074603 12.593031104564956 0 0 0
1435 1 23.34900205571269 14.090180825378857 12.497456727701922 0 0 0
12 1 7.194862123904755 1.482113413388367 1.419203964390105 0 0 0
39 1 4.917219143780804 3.425246727845063 1.6575634767277199 0 0 0
134 1 5.0698777491249105 2.020767035134547 3.6658874051617834 0 0 0
169 1 7.132364858562589 3.1034253328654886 3.3000926072093715 0 0 0
151 1 19.598279813429635 -0.13394997014382426 5.073174956700605 0 0 0
509 1 24.984423547341635 10.549037671741422 10.429345393121885 0 0 0
16 1 10.38989910421577 1.3286881070395256 1.6998758362353275 0 0 0
43 1 9.050095295387605 3.2585329364403766 1.5844121789048706 0 0 0
138 1 8.702613558462891 1.5656222076448314 3.3225682235216993 0 0 0
173 1 10.747652209735522 3.209754539432433 3.1250919174123104 0 0 0
1159 1 4.97795988321196 14.082126876119315 5.266198851466771 0 0 0
142 1 12.352836796451557 1.4943671456203946 3.1449605247982535 0 0 0
47 1 12.372244141202883 3.662066208771591 1.5427615097164074 0 0 0
20 1 14.166690492552366 1.5087712944270966 1.6262100695682016 0 0 0
177 1 13.938439577565328 3.5502383334364955 3.4127416954082834 0 0 0
51 1 15.916866392877685 3.378321546864172 1.4541936668721611 0 0 0
146 1 16.075193277236338 1.7436620166748154 3.1186674270738735 0 0 0
510 1 26.37435970535966 12.57424506331204 10.40251686807062 0 0 0
511 1 26.500238703741644 10.694828114701698 12.32255824485952 0 0 0
570 1 23.16434853391688 5.358607098764024 13.924410254179893 0 0 0
24 1 17.77513078710919 1.4292192984402503 1.3914132312452165 0 0 0
55 1 19.494793979559034 3.4597516743256094 1.4344116143305898 0 0 0
150 1 19.53691420144976 1.593044163321583 3.0902688994151752 0 0 0
181 1 17.801153466368213 3.487998620603437 3.331517179247459 0 0 0
137 1 6.635640536138381 -0.1367177364984866 3.512958792876153 0 0 0
102 1 5.384591635831201 12.241928664337895 -0.13749687173815048 0 0 0
28 1 21.53381471937442 1.7895874599206611 1.6366775897057813 0 0 0
59 1 23.54586296212303 3.311276155385489 1.4902890367609616 0 0 0
154 1 23.296030996759868 1.330787606059238 3.0953252911534817 0 0 0
185 1 21.558862641731977 3.2997375459648306 3.5575628732339597 0 0 0
1285 1 3.1883464079301977 14.160592181081993 6.89577446487191 0 0 0
401 1 14.071235329233806 -0.25824454974620015 10.681638307612216 0 0 0
189 1 25.032181572401242 3.336285631500241 3.2968107627027385 0 0 0
32 1 24.961332865608995 1.5889677714684305 1.3446992435863274 0 0 0
63 1 26.709689819797823 3.376573244372294 1.7578959343563048 0 0 0
158 1 26.74883776939423 1.3921382282548174 3.3032657257476257 0 0 0
1169 1 14.340500757059585 13.798256082582553 3.038705490817207 0 0 0
277 1 17.677042137155937 -0.20903599281640783 6.951265504433495 0 0 0
46 1 12.60823176832345 5.3038679566827724 -0.17450873159773173 0 0 0
40 1 3.3294243493150386 5.179971113684534 1.5166820496761504 0 0 0
67 1 1.6014171950859495 6.7753928841667275 1.5354730428253913 0 0 0
72 1 3.0226275550307617 8.551854796616757 1.6864964300445502 0 0 0
162 1 1.4809548725398636 4.979723247778378 3.3151869102389617 0 0 0
194 1 1.5017485974755989 8.65847051217639 3.549766642756938 0 0 0
197 1 3.4265493396373663 6.8119697341610195 3.3750824581857164 0 0 0
68 1 28.582466696798015 8.382778291813885 1.3774604966904798 -1 0 0
261 1 3.0801369290316774 -0.162841472935427 6.963693427658737 0 0 0
1055 1 27.012907097404195 13.950399887177378 1.3495055746034448 0 0 0
74 1 8.63440368392359 8.638318308937473 -0.09902254478205935 0 0 0
42 1 8.682746521678041 5.393351577832725 -0.11860729808738538 0 0 0
44 1 7.050175590490189 4.983302964020507 1.6803043422522885 0 0 0
71 1 5.420711739794746 6.729626182225496 1.7081496611577616 0 0 0
76 1 6.973541905751081 8.786458991134282 1.6629430980961182 0 0 0
166 1 5.1366731593481125 4.939627879479244 3.429762185700719 0 0 0
198 1 5.118364562942724 8.792752929125287 3.5109019267204085 0 0 0
201 1 6.880256471129673 6.993952839656069 3.557911515030821 0 0 0
14 1 12.00221619815237 1.6275848110374826 -0.19715211583542946 0 0 0
1039 1 12.502230595143946 13.842344329012628 1.5298230340746086 0 0 0
269 1 10.416398275653133 -0.18281791751478965 6.906590026780694 0 0 0
48 1 10.812326026254246 5.451551626308728 1.4829231734958135 0 0 0
75 1 8.569179123875827 6.918948231805514 1.6410952394855445 0 0 0
80 1 10.241491152650127 8.763430983887105 1.586859980442877 0 0 0
170 1 9.097191582958345 5.492709294154141 3.5058082531235337 0 0 0
202 1 8.729979239320803 8.569379457935593 3.814189597133268 0 0 0
205 1 10.695610542660484 7.070564607036354 3.466160795913625 0 0 0
574 1 26.64076710071007 5.096740022185866 14.173349865093092 0 0 0
1311 1 26.587879535742665 13.943606297795837 8.423359352749578 0 0 0
79 1 12.325876204303873 7.0608076740839145 1.5086746617382023 0 0 0
206 1 12.164590028642534 8.727245008634906 3.5197455425117035 0 0 0
174 1 12.4374995415929 5.4184758382339915 3.4519132207936485 0 0 0
52 1 14.184128924998056 5.5647245988916465 1.4374480007629968 0 0 0
84 1 14.484272698305832 8.863708169782628 1.3685232851013387 0 0 0
209 1 14.406653718882401 6.969928545860339 3.2474292356093253 0 0 0
178 1 15.878100628528893 4.967793474184628 3.134106118859344 0 0 0
210 1 16.13879542847544 8.834553401245625 3.121259953656234 0 0 0
83 1 16.190995376827864 7.09869355247532 1.3149600011581906 0 0 0
1431 1 19.761572252474274 14.072349344712935 12.35478718968876 0 0 0
403 1 16.286340738038547 -0.21330798646030047 12.06718553242792 0 0 0
56 1 17.591677743954882 5.137639264216738 1.6771344687200727 0 0 0
87 1 19.52087943578914 6.552711210424081 1.326200128044987 0 0 0
88 1 17.85846719056888 8.643135309395756 1.2809691861461074 0 0 0
182 1 19.821250164199796 5.091598720347421 3.1048525306956867 0 0 0
213 1 17.834699974742207 6.891022762958576 3.1602774220009935 0 0 0
214 1 19.616460456130973 8.373851533248757 3.1195414325625674 0 0 0
98 1 1.420702436087414 12.21170048037855 -0.13118631847975373 0 0 0
60 1 21.74887401910633 5.0494019985741305 1.4635454808657993 0 0 0
91 1 23.28846623413972 6.838648871557769 1.53108291884463 0 0 0
92 1 21.410579381433408 8.42063925821944 1.6548696992132974 0 0 0
186 1 23.49656259705369 5.202504014198543 3.195790860647352 0 0 0
217 1 21.55430364998223 6.661229041790638 3.695704668653094 0 0 0
218 1 23.378079610864816 8.825971121542365 3.439171745243486 0 0 0
1301 1 17.980386515262367 14.02868147801662 6.948392174640139 0 0 0
385 1 28.557144395929488 -0.09645791962526107 10.741452174592146 -1 0 0
395 1 8.911230799209672 -0.15990178009730016 12.528071515775466 0 0 0
36 1 28.51005032067546 5.013578550049299 1.2609338328223547 -1 0 0
193 1 28.39949299856736 6.895469021794452 3.3467070298053305 -1 0 0
96 1 24.960423081429298 8.486404257487658 1.3652714215358475 0 0 0
221 1 25.134401628500285 6.697221700763034 3.268410744865154 0 0 0
64 1 25.130380357993175 5.2751544429283195 1.4874190950628536 0 0 0
95 1 26.86780624170909 6.866873864547722 1.454956718802617 0 0 0
190 1 26.86516182401133 5.185693189589831 3.4539534566157144 0 0 0
222 1 26.737326884988207 8.839496643343766 3.285982697516068 0 0 0
1157 1 3.22783488471786 14.053032868549883 3.2791824373181426 0 0 0
621 1 10.549892028887701 10.710605127150325 14.088463943977455 0 0 0
512 1 24.80277664850199 12.348325435929583 12.321694663780054 0 0 0
561 1 14.243251001881251 3.41821465217515 14.090829511596432 0 0 0
566 1 19.887246447159967 5.2289918009491165 14.10372484711514 0 0 0
99 1 1.2642785078420973 10.43310260715241 1.58784268223051 0 0 0
226 1 1.495633937685785 12.236898636555171 3.305099718011983 0 0 0
229 1 3.2672968041249573 10.496728038753973 3.2386322212014593 0 0 0
104 1 3.3512175261769577 12.561876492447258 1.5173865792112788 0 0 0
100 1 -0.22077528806937646 12.235887811535784 1.5928235935910269 0 0 0
562 1 16.17924200487831 5.006464065756177 14.167687525264927 0 0 0
413 1 25.168598055436718 -0.11547785380343356 10.436293221911257 0 0 0
263 1 4.9585382081363 -0.21753979913612467 8.585071095815223 0 0 0
103 1 5.130026268922792 10.209806812625544 1.6679666403434776 0 0 0
108 1 6.902420810152698 12.076046077486835 1.764304012020705 0 0 0
230 1 5.067812159632999 12.03108189666714 3.2513825507350274 0 0 0
233 1 7.014673658726497 10.445561732411168 3.6018081689047223 0 0 0
1183 1 26.993454648872813 13.984952833185128 4.869870008417619 0 0 0
107 1 8.640649474897945 10.455075620791899 1.6950187337186582 0 0 0
112 1 10.400635560314374 12.053853274705128 1.9116075017558387 0 0 0
234 1 8.669988582824905 12.220863213649785 3.7200416565959644 0 0 0
237 1 10.287712419950621 10.377928569777572 3.5750896087190385 0 0 0
111 1 12.295331255137379 10.259201706634999 1.6893048271154185 0 0 0
26 1 23.035405711054374 1.603277823017604 -0.1630284658929375 0 0 0
593 1 14.313041384970928 7.003642935395561 14.124835222117234 0 0 0
238 1 12.360388959760858 11.9935842229295 3.5893215601260136 0 0 0
116 1 14.113484805154888 12.203917799332439 1.4196850175257292 0 0 0
241 1 14.144957493199882 10.473484368234816 3.3650826236407605 0 0 0
242 1 16.196386388505765 12.203643545216497 3.2261903184970997 0 0 0
115 1 16.232516499286767 10.399686031314188 1.447732029848467 0 0 0
484 1 -0.24909530419000703 12.455158127047776 12.3387579913716 0 0 0
505 1 21.61609350281111 10.685336010086552 10.469172577497234 0 0 0
1181 1 24.950932929963294 14.136103069251433 3.2674734397070564 0 0 0
387 1 1.7219719177601869 -0.2562115134496749 12.476779228602915 0 0 0
139 1 8.71183956456178 -0.05040441614616806 5.037773688668266 0 0 0
119 1 19.832710065004633 10.51497093110141 1.379438580376427 0 0 0
120 1 17.972899964501302 12.432468850885574 1.346102213724161 0 0 0
245 1 18.040142295231462 10.4529796051276 3.0724859614949254 0 0 0
246 1 19.923511234275026 12.2252086623614 3.003781973796746 0 0 0
405 1 17.984501861568795 -0.08332188357479708 10.323692083319104 0 0 0
123 1 23.369772781060796 10.46626593280514 1.6340087037866897 0 0 0
124 1 21.565424177683617 12.340339800791597 1.3878767856284022 0 0 0
249 1 21.338824241806975 10.416237148182491 3.456379677837395 0 0 0
250 1 23.210176440633077 12.36595652183322 3.3454988783629815 0 0 0
506 1 23.070880176898548 12.624381698817214 10.686821855405713 0 0 0
225 1 28.58535051233093 10.355202421985851 3.2412610437817153 -1 0 0
1309 1 25.01949855325318 14.173291475598518 6.691535898271733 0 0 0
147 1 16.110281796152897 0.1172997991826108 4.984793284317378 0 0 0
253 1 25.11670958254188 10.8110443147723 3.2793495334837153 0 0 0
127 1 26.809455574165305 10.34343374615447 1.406214729395681 0 0 0
128 1 25.08930187052853 12.31342721747678 1.5163237389490374 0 0 0
254 1 26.995205532732143 12.262027185993398 3.2616803154332183 0 0 0
1175 1 19.6616003148945 14.046770583330272 5.122317056717316 0 0 0
265 1 6.844066681822259 -0.2554609356951146 6.8892704565685605 0 0 0
136 1 3.3131224274536213 1.8303157665161591 5.297539880952567 0 0 0
163 1 1.355013778880309 3.3875121280386686 5.1558636078354425 0 0 0
258 1 1.605338930942848 1.6527415298623482 6.8160904282731805 0 0 0
264 1 3.0989975847456086 1.4661103344517215 8.986692456853703 0 0 0
291 1 1.100531103999067 3.397316321070405 8.794383056506728 0 0 0
293 1 3.143568113029012 3.280729255257192 7.401423816941136 0 0 0
289 1 28.3311160890308 3.294008206787584 6.956293025854109 -1 0 0
260 1 -0.24363461656945873 1.4062297926712328 8.580282131391824 0 0 0
140 1 7.00604524532726 1.6360788705371674 5.279994649316862 0 0 0
167 1 5.16221991366994 3.5443572291864642 5.512174653717919 0 0 0
262 1 5.145739997284735 1.6364774896870016 7.045000969496218 0 0 0
268 1 6.986528499040039 1.4090840073259456 8.840484815315804 0 0 0
295 1 5.1140910645025395 3.5012659557687464 8.674620002331555 0 0 0
297 1 6.805339549562771 3.6598571129998927 7.258488300803608 0 0 0
507 1 23.314585868103336 10.462805295815848 12.147856544690312 0 0 0
144 1 10.486263698914192 1.6877271309874955 5.296311178099416 0 0 0
171 1 8.832725793011615 3.508654187528108 5.248738149787719 0 0 0
266 1 8.681613573814754 1.5166481966864835 6.94396530630684 0 0 0
272 1 10.519135208288349 1.5876213407375315 8.782861532696977 0 0 0
299 1 8.624985754678171 3.264337529268797 8.710209268050018 0 0 0
301 1 10.516711476833951 3.415359981336853 7.021503866065486 0 0 0
508 1 21.390277293327834 12.493012246794889 12.27327565063707 0 0 0
1051 1 23.366814032294215 14.075746758860701 1.3543717385539802 0 0 0
397 1 10.429189917041905 -0.1859131607428553 10.531926963472497 0 0 0
303 1 12.438545669194966 3.4241965019227916 8.89971070332023 0 0 0
175 1 12.301788479307891 3.293475505611887 5.016715532804737 0 0 0
270 1 12.292262515834164 1.847976752505598 6.990570551123283 0 0 0
148 1 14.25909507395338 1.5454880888467875 4.850462267878656 0 0 0
276 1 14.068085396001871 1.5736860451166739 8.708758478721602 0 0 0
305 1 14.081899732466628 3.3303612594432135 6.830501232671938 0 0 0
179 1 16.050142440813268 3.495302460049909 5.077828468093539 0 0 0
307 1 15.724400784168505 3.248687706157923 8.663274706333093 0 0 0
274 1 16.098882383172608 1.6687389386283904 6.825772105593815 0 0 0
129 1 28.306429167750025 -0.2519450888524304 3.704450476737609 -1 0 0
152 1 17.955384078717053 1.869191097203709 5.114065782722059 0 0 0
183 1 19.65732362558007 3.3442533454536396 5.082933504796073 0 0 0
278 1 19.455496637639975 1.5845390783469797 6.923797237412947 0 0 0
280 1 17.775901677167255 1.8798860634576946 8.623787348679645 0 0 0
309 1 17.915395376430965 3.566982426135549 6.937897731631335 0 0 0
311 1 19.69024731671316 3.4301863788256353 8.575832560055867 0 0 0
501 1 18.007489610343285 10.744377696408495 10.531302600424523 0 0 0
502 1 19.620764491279687 12.311816610115073 10.551158649652852 0 0 0
1171 1 16.237721600684793 13.858331852790602 5.102496178963292 0 0 0
273 1 14.187034357887152 -0.14574803631220817 7.080856349547124 0 0 0
156 1 21.457705797734867 1.5552703393388836 5.265477046930887 0 0 0
187 1 23.375781852804074 3.3433422945179725 5.072608617012528 0 0 0
282 1 23.19779887078043 1.5956620462003088 6.8722623198170325 0 0 0
284 1 21.531815165801305 1.535177608739243 8.766248651941881 0 0 0
313 1 21.389502994704486 3.519388308996229 6.933982760488254 0 0 0
315 1 23.29923349830824 3.2827662405811364 8.812979194637844 0 0 0
1035 1 8.880318785443588 13.997195961374954 1.6066420406796462 0 0 0
504 1 18.022939168360033 12.125516701776842 12.311815161319222 0 0 0
132 1 28.504650135290497 1.3178943610270812 5.491175685049614 -1 0 0
191 1 26.71148608544511 3.461093484031674 4.982655608397506 0 0 0
160 1 24.817531874435836 1.3917842834100842 5.190134869206686 0 0 0
286 1 26.695596364997883 1.3910981340626754 6.947085071799708 0 0 0
288 1 24.901035512207677 1.515498019790451 8.453396217764238 0 0 0
317 1 25.370644679947866 3.1532695193975346 6.736918190159949 0 0 0
319 1 26.88782161767005 3.742948893944871 8.80728860893359 0 0 0
1031 1 5.554851449488359 14.015014917572625 1.3597882705016853 0 0 0
168 1 3.149527706334104 4.955126548879811 5.371743121570786 0 0 0
195 1 1.5168130321567646 6.8150908185193115 4.804516545460067 0 0 0
290 1 1.3282095613442246 5.333614886662521 6.940536117801882 0 0 0
322 1 1.6710831556757617 8.732473858926044 7.097366065388791 0 0 0
325 1 3.05743564221874 7.00555747225417 6.862220754656798 0 0 0
323 1 1.631605155949859 6.746225707144361 8.82704982573605 0 0 0
200 1 3.1171627631490177 8.812946230264519 5.066800676257034 0 0 0
328 1 3.45638011745918 8.663755340988466 8.833133340117852 0 0 0
296 1 3.213858061888247 5.235711149487442 8.969190746146136 0 0 0
164 1 28.509972414024254 5.245811794731874 5.197638754319397 -1 0 0
321 1 -0.1648953731866385 7.071137458327018 7.080151430092646 0 0 0
292 1 28.40633789494788 5.383114020311886 8.584462561074655 -1 0 0
172 1 7.167523709545149 5.071493362153589 5.487733063789919 0 0 0
199 1 5.021915077169374 6.899795098431688 4.995867171523569 0 0 0
204 1 6.573801716083365 8.483357793090475 5.405572231132211 0 0 0
294 1 4.765064312699609 5.3341275459369415 6.979003588789576 0 0 0
300 1 6.870888204033229 5.238669136151055 9.174629778994207 0 0 0
326 1 5.020476587763975 8.518185289778708 7.007990012383006 0 0 0
327 1 5.20747448451016 6.997481642193905 8.991967857780157 0 0 0
329 1 7.078199234977358 6.83750416798386 7.40262166252918 0 0 0
332 1 6.697083732629087 8.814095936764271 8.985844552440984 0 0 0
176 1 10.401701598637423 5.185331057872673 5.390756689065161 0 0 0
203 1 8.759926328009586 7.015249363607998 5.431279884239192 0 0 0
208 1 10.581596722738409 8.895047118036715 5.346331155632865 0 0 0
298 1 8.804903583512823 5.099564441372485 7.267724377440381 0 0 0
304 1 10.405932001816339 5.306610361349481 8.886548004196422 0 0 0
330 1 8.751141975687762 8.596527220264266 7.295885639007311 0 0 0
331 1 8.710483401586714 6.962035897293134 9.116658383368742 0 0 0
333 1 10.647975047367819 7.048259979317595 6.968805210664936 0 0 0
336 1 10.441250949862358 8.512083786564961 8.928323905717235 0 0 0
302 1 12.385026439495467 4.973126303202221 7.029786055779847 0 0 0
334 1 12.304114667996158 8.929903756262068 7.120595324742406 0 0 0
207 1 12.513172164155941 6.990585008147674 5.328667616910183 0 0 0
335 1 12.606344353176283 6.9470455133332925 8.757790247029721 0 0 0
180 1 14.074520309690062 5.135697354746921 5.139828111833245 0 0 0
212 1 14.13491364787861 8.997361809122488 5.255842427204371 0 0 0
308 1 14.075588220493842 5.040980354782901 8.912147656360702 0 0 0
337 1 14.14821500726581 6.944407924100446 7.065518380469159 0 0 0
340 1 14.06018460832911 8.74544720192651 8.81895764259226 0 0 0
338 1 15.801932337470218 8.812658548615053 7.0719944608445084 0 0 0
306 1 15.918383577647154 5.150047154920068 6.901438083993756 0 0 0
339 1 16.003046164423324 7.189214331591658 8.735919637278892 0 0 0
211 1 15.993944845375188 7.160600531637137 4.932224191409998 0 0 0
216 1 18.0183671551778 9.005992574166001 4.953870197051678 0 0 0
310 1 19.65834739573299 5.271507511773247 7.00887337785631 0 0 0
184 1 17.891265380495902 5.397868014597903 5.16308445365033 0 0 0
215 1 19.545011729484536 6.922966012448477 5.106502855058557 0 0 0
312 1 17.79319201621439 5.062911059436513 8.834482982483099 0 0 0
341 1 17.774368639524518 7.0294429311112925 7.023707972189683 0 0 0
342 1 19.52304434051929 8.95741562083968 6.993500030123263 0 0 0
343 1 19.376426811464086 6.854877702166391 8.823824635013366 0 0 0
344 1 17.606331199244615 9.02256989789447 8.848895952938202 0 0 0
188 1 21.58423826623327 5.201639264078749 5.26930507628176 0 0 0
219 1 23.327649004212553 6.953127460235925 4.961816014328395 0 0 0
220 1 21.513805646937023 8.781328828879682 5.04614951040311 0 0 0
314 1 23.453678974467557 5.084922539715511 6.685218580795742 0 0 0
316 1 21.327571586925636 5.209955843550515 8.489062800675775 0 0 0
345 1 21.606872756116786 7.1364694587705 6.905893871504853 0 0 0
346 1 23.3350358160302 8.721358972112778 6.882046708284849 0 0 0
347 1 23.460016196201174 6.925989058543489 8.521820514884134 0 0 0
348 1 21.526859871801975 8.791257691325676 8.874816675342517 0 0 0
324 1 28.520743388403822 8.88028693477072 9.042407401547408 -1 0 0
196 1 -0.06583259822663479 8.651727406502632 5.243481252590928 0 0 0
320 1 24.88263087327502 5.2499177439413796 8.705539912289185 0 0 0
192 1 25.157365838299057 5.20346792629144 5.053612470035896 0 0 0
224 1 24.858395710940265 8.779460942569584 5.152283513231949 0 0 0
349 1 25.029977300385838 7.138531495021067 6.8383810264483715 0 0 0
223 1 27.033375705979438 7.101975951329874 5.108565778315926 0 0 0
318 1 26.733433894256997 5.378638530573566 6.72146057105885 0 0 0
350 1 26.960037123554564 8.83948721727247 6.780883818933377 0 0 0
351 1 26.464987721654815 7.0029004404464 8.649870845050966 0 0 0
352 1 25.029735176569865 9.027934001028795 8.727010177475234 0 0 0
503 1 19.69628945450382 10.61567497720697 12.528011580429313 0 0 0
227 1 1.436092811675542 10.40745337780737 4.90393951942065 0 0 0
232 1 3.4261201585864747 12.09786871885859 4.938824813699757 0 0 0
354 1 1.6279278586595556 12.140297648770584 6.765608171235929 0 0 0
355 1 1.4994738549748912 10.409081883573426 8.878153399678762 0 0 0
360 1 3.276475762426765 12.294708563281556 8.884126594772406 0 0 0
357 1 3.295053488182419 10.623260326951115 6.961918830620393 0 0 0
228 1 28.611106951482434 12.14071877342493 5.127077684120496 -1 0 0
389 1 3.175252412840747 -0.2067701421663503 10.561184347216082 0 0 0
231 1 5.326755560220164 10.416054488616233 5.314325283415545 0 0 0
236 1 6.934726217026122 12.65399381541624 5.298811795912827 0 0 0
358 1 5.000318587837974 12.432034865403121 7.24535961991669 0 0 0
359 1 4.998403738765653 10.645465829446634 8.919393528552492 0 0 0
361 1 6.744553907429844 10.782867120042706 7.204963602663343 0 0 0
364 1 6.858358376482128 12.746959427390808 9.241892841105093 0 0 0
235 1 8.367824232852886 10.57805794172891 5.547403513134521 0 0 0
240 1 10.475185312149021 12.494979104290346 5.1430117999750244 0 0 0
362 1 8.525681711559189 12.706707028741327 7.145093214710494 0 0 0
363 1 8.719467359370594 10.523535600387495 8.700174267013159 0 0 0
365 1 10.280566099832667 10.849038741969988 7.086561589584571 0 0 0
368 1 10.538610363171745 12.512175955729075 8.73381641275625 0 0 0
239 1 12.08422681861371 10.452986319310927 5.389625666565826 0 0 0
287 1 26.575488657560236 -0.2538427057736712 8.812507489818836 0 0 0
497 1 14.207934537152711 10.355223313516198 10.537568943623635 0 0 0
367 1 12.277213267161914 10.5881246261463 8.739732962482407 0 0 0
366 1 12.607458646913484 12.510761938686255 6.860497729590513 0 0 0
244 1 14.174210906454414 12.212150083328217 5.314439350052468 0 0 0
369 1 14.314631434199164 10.792102147781678 7.0619556421977325 0 0 0
372 1 13.992974786599028 12.53678746221318 8.683949055659347 0 0 0
243 1 15.985207349372912 10.589656927750275 5.053973231980656 0 0 0
371 1 15.937968489066956 10.67622134939865 8.718349442103493 0 0 0
370 1 16.079617077766244 12.459430140247202 6.901606713634206 0 0 0
1047 1 19.64639517479374 14.095291765942068 1.1570874067723738 0 0 0
135 1 4.886669970076627 -0.20370377436488046 5.241173808123423 0 0 0
247 1 19.741697490473463 10.609613177969102 4.970037488020919 0 0 0
248 1 17.748156668635332 12.166854465590559 5.092079139074166 0 0 0
373 1 17.793601427699976 10.850617405693706 7.022922338670927 0 0 0
374 1 19.648712279506064 12.379859616269984 6.957798327431906 0 0 0
375 1 19.74730305671443 10.80039519218977 8.733722265259205 0 0 0
376 1 17.98027493536914 12.49119680009076 8.75620899649101 0 0 0
251 1 23.507293840131574 10.60133554347102 5.207822344001997 0 0 0
252 1 21.476658257826976 12.319506278771126 5.126144779790373 0 0 0
377 1 21.548026933053578 10.585800942364255 6.832678428634353 0 0 0
378 1 23.10397848825729 12.549876007917964 6.718346763018615 0 0 0
379 1 23.13015845943002 10.77273774179605 8.72930328722133 0 0 0
380 1 21.43221385641435 12.51205022515756 8.64982952080731 0 0 0
499 1 16.325330927851688 10.657875272419595 12.434077886649611 0 0 0
353 1 -0.09495172806072899 10.338838129448012 6.992192224714112 0 0 0
356 1 28.614619299119433 12.33561738716719 8.242237880106446 -1 0 0
256 1 25.06800723472034 12.404623395327926 5.127428619773749 0 0 0
255 1 26.720834927067486 10.6594517138526 4.894391010964379 0 0 0
381 1 25.328542115167714 10.645864508525195 6.871118287231938 0 0 0
382 1 26.842827907849262 12.263441798572945 6.847461212016153 0 0 0
383 1 26.768239871898196 10.811254462556281 8.961156270485652 0 0 0
384 1 24.631565628219867 12.522422293970411 8.620719597047424 0 0 0
500 1 14.307016601065271 12.46846583076843 12.352937031168404 0 0 0
498 1 16.22242032507912 12.476662081868762 10.38859769645561 0 0 0
386 1 1.3313370926604426 1.592097452564198 10.839236019601184 0 0 0
419 1 1.5478003841332677 3.457656005145551 12.56422890808777 0 0 0
392 1 3.254232595393574 1.7011417925733334 12.659253944789826 0 0 0
421 1 3.2062901654742597 3.3522239168260883 10.5965076453756 0 0 0
388 1 -0.1756890501902171 1.6152359717672602 12.646945987371012 0 0 0
417 1 28.610516848532363 3.662163326859553 10.601736813363345 -1 0 0
23 1 19.790174592958238 -0.010472562190902202 1.370765113709149 0 0 0
618 1 8.961695211875858 12.31892728057591 13.912769073356337 0 0 0
131 1 1.2435036640652786 -0.24059442796889954 5.462683618506639 0 0 0
390 1 5.191955130765265 1.6056010161834682 10.478735999226492 0 0 0
396 1 6.9084060034173636 1.6834287189187676 12.485489277904653 0 0 0
423 1 5.162532453766319 3.476907242153988 12.248928319747536 0 0 0
425 1 6.9687123365188794 3.4401808215440894 10.859293969145625 0 0 0
77 1 10.505604325526436 7.081094429012749 -0.10057037723801363 0 0 0
494 1 12.446635137142312 12.3812109735368 10.748982002239645 0 0 0
143 1 12.324345323561662 -0.15630717259934174 5.422612509195924 0 0 0
394 1 8.558328742627602 1.6326048429648912 10.63969468550358 0 0 0
400 1 10.763316799357499 1.542721060888119 12.461645667219177 0 0 0
427 1 8.654634665050665 3.290337011854491 12.42342529675324 0 0 0
429 1 10.418124873549676 3.3832666656856563 10.622313225296539 0 0 0
398 1 12.210442157791283 1.5446861306328061 10.512965583592866 0 0 0
495 1 12.582423476720459 10.713039164805169 12.649401629343352 0 0 0
431 1 12.353300028020996 3.418871401608027 12.42604410537799 0 0 0
404 1 14.268849866826862 1.5603257157075219 12.256220325347138 0 0 0
433 1 14.12571278290725 2.879146870044731 10.575930531293457 0 0 0
402 1 16.16622765805908 1.4233014151226893 10.467717187414625 0 0 0
435 1 16.108010547278063 3.2119552621697802 12.363636853781703 0 0 0
1155 1 1.490058035839626 13.970983224665526 5.230259652624103 0 0 0
141 1 10.712669486811318 -0.1011596345129675 3.6163583240103043 0 0 0
491 1 8.779934958246438 10.531649516013404 12.108358990214038 0 0 0
489 1 6.817310279679246 10.917383923767881 10.688637934991913 0 0 0
406 1 19.639518574725713 1.6132983256853473 10.402447555294891 0 0 0
408 1 17.91003480216755 1.4615833856571572 12.31607326279996 0 0 0
437 1 17.934633899473084 3.3070499289124613 10.452044731838013 0 0 0
439 1 19.5253203579393 3.2574393970749416 12.335901999105442 0 0 0
492 1 7.133470064916365 12.43734260981694 12.32041191524068 0 0 0
1041 1 14.215647630542302 13.921357812852511 -0.05524326743509045 0 0 0
407 1 19.75525690664565 -0.10610022362070376 12.35423559228854 0 0 0
481 1 28.423070703750355 10.765527380973898 10.72194293844821 -1 0 0
410 1 23.274479350736286 1.561823173394889 10.411057612558006 0 0 0
412 1 21.306707766556364 1.5965231020129476 12.306541961611126 0 0 0
441 1 21.762520719815768 3.572124702575283 10.594742940402888 0 0 0
443 1 23.40626904004256 3.355439760335676 12.309245684864706 0 0 0
488 1 3.248586082807377 12.618692200995298 12.419867754912604 0 0 0
416 1 24.888647957885304 1.4898312431268959 12.43239326437273 0 0 0
445 1 25.138770056440855 3.2228244571825972 10.583232462291836 0 0 0
414 1 27.07096876115441 1.7256070687712197 10.59389978968297 0 0 0
447 1 26.850214012893034 3.4769862466162658 12.245825779102232 0 0 0
448 1 25.038680929351912 5.213164252176879 12.285328078849926 0 0 0
17 1 13.901276064021985 -0.15877801694593785 -0.07257803374615285 0 0 0
449 1 -0.2292917316703722 6.7965083117889815 10.555531855432427 0 0 0
446 1 26.67971500207115 5.1521176503343105 10.608086700842435 0 0 0
452 1 28.56146125470608 8.97066207975821 12.462639683106097 -1 0 0
418 1 1.5421535219486335 5.320078170150055 10.805005573848975 0 0 0
450 1 1.3332656538201726 8.839534283688641 10.755934148294706 0 0 0
451 1 1.5778212478571876 6.9718935544034375 12.687270365878158 0 0 0
453 1 3.4439846027346044 7.100531827859746 10.517713396019568 0 0 0
456 1 3.358084340788255 8.921416751711796 12.475739902337013 0 0 0
424 1 3.2637407115634867 5.237359810437441 12.604499306320346 0 0 0
420 1 28.55655853514345 5.287893575760619 12.570950958772173 -1 0 0
480 1 25.07578725217195 8.846496490996657 12.506544827228497 0 0 0
490 1 8.780013658266151 12.260466418476083 10.707752192905428 0 0 0
422 1 4.891066309738673 5.301683795877868 10.771660588454472 0 0 0
428 1 6.89148573216432 5.396214531031664 12.521334530769746 0 0 0
454 1 5.152505740961958 8.733528769343868 10.807042197464021 0 0 0
455 1 4.986459384287108 6.879243471731132 12.461491049439392 0 0 0
457 1 6.680289956191303 6.939036318349241 10.735497942187486 0 0 0
460 1 6.908342619525313 8.90252094894803 12.398953683464132 0 0 0
482 1 1.6400584636706677 12.52914295424875 10.589149118451399 0 0 0
565 1 17.882706691255912 3.2137660826005736 13.851539474593656 0 0 0
493 1 10.397910813577449 10.68984371901281 10.377378295123831 0 0 0
426 1 8.691396606994726 4.994543923399855 10.61866461956369 0 0 0
432 1 10.273905176367858 5.156475746077944 12.397768851148973 0 0 0
458 1 8.561276488184369 8.954089893561385 10.508978274303148 0 0 0
459 1 8.71292521512684 7.083821732815839 12.303697705530515 0 0 0
461 1 10.424778010326849 6.926124138363774 10.764202170817097 0 0 0
464 1 10.735340921841363 9.071448961877646 12.47426751351387 0 0 0
485 1 3.307508967463143 10.515954645930954 10.689616975908173 0 0 0
483 1 1.298869512616136 10.451698032280245 12.374143156371563 0 0 0
430 1 12.329729526817017 5.0770672923040845 10.533793070244178 0 0 0
463 1 12.464187541350762 6.700889354478456 12.356599688586318 0 0 0
462 1 12.286783232678468 8.815149051088488 10.579725591328284 0 0 0
468 1 13.847303889607499 8.782152660476184 12.373497589343557 0 0 0
436 1 14.3617186201734 5.0062740431223505 12.173520901351045 0 0 0
465 1 14.270457916917445 7.017992068955893 10.52581000242566 0 0 0
434 1 15.96567190056294 5.0003137066916254 10.399454759924465 0 0 0
466 1 15.96962437609192 8.892147614369932 10.89356918880002 0 0 0