LAMMPS data file via write_data, version 29 Oct 2020, timestep = 300000

2048 atoms
1 atom types

-0.2345315071521643 28.58653150715029 xlo xhi
-0.2345315071521643 28.58653150715029 ylo yhi
-0.2345315071521643 28.58653150715029 zlo zhi

Masses

1 58.933

Atoms # atomic

8 1 3.239658145078337 1.4943955792487358 1.6183999869015735 0 0 0
35 1 1.4384822664784902 3.5226514476708433 1.542131838482042 0 0 0
130 1 1.6434567914454488 1.7906441832407043 3.5170358404161113 0 0 0
165 1 3.282661697099614 3.424350655421086 3.350843680637328 0 0 0
137 1 6.616367247244324 0.07951360912501643 3.389509650635211 0 0 0
1303 1 19.40557516011137 14.092140536368596 8.796978766607857 0 0 0
1311 1 26.8742310460022 14.174368632641597 8.87831385333329 0 0 0
638 1 26.797614315115645 12.390078830904171 13.952817252492872 0 0 0
12 1 6.748522427878091 1.530570499287906 1.5176994752142297 0 0 0
39 1 4.997609119194462 3.3931761423979547 1.7776240115578332 0 0 0
134 1 5.097097052588615 1.6610384626372041 3.4327235035104247 0 0 0
169 1 7.1214446609072075 3.3850474740998844 3.5809816565883708 0 0 0
93 1 24.97538100659488 6.912210110855376 -0.10675779128779742 0 0 0
481 1 0.24488633642931035 10.378500152828623 10.491200446624523 0 0 0
509 1 25.16508231371175 10.596616134498639 10.255278024328582 0 0 0
16 1 10.48435096696779 1.830030971573143 1.2814078373410844 0 0 0
43 1 8.650906336839176 3.2343570804489152 1.448788180564613 0 0 0
138 1 8.808958010662245 1.5009495892938585 3.403451372261933 0 0 0
173 1 10.808223372525328 3.0942164497077385 3.6045290186079457 0 0 0
629 1 17.655184875883677 10.199312703746363 13.868902633231302 0 0 0
510 1 26.81761409784629 12.183604290072148 10.613301450203961 0 0 0
142 1 12.50894937516028 1.4127798338704949 3.146068322527551 0 0 0
47 1 12.289655638127101 3.6377339599112073 1.3912726832168274 0 0 0
20 1 14.132890085024714 1.2713437837886743 1.5896257602719683 0 0 0
177 1 14.093144703658675 3.437342765723817 2.816620296102909 0 0 0
146 1 15.907321435143375 1.4537917626631287 3.3098874703521184 0 0 0
51 1 15.859198267654717 3.50913204622679 1.3425752933167854 0 0 0
26 1 23.141751812570597 1.6687983326234221 -0.08504086876817066 0 0 0
1415 1 5.186303008273474 14.13462152490713 12.405306554887115 0 0 0
24 1 17.587823368273156 1.2600229159008463 1.5687027476812594 0 0 0
55 1 19.361829299334396 3.4672443886986377 1.5952389151052253 0 0 0
150 1 19.234639024616634 1.4751392451219394 3.449176453518316 0 0 0
181 1 17.487696712337133 3.265366987863878 3.1446560371619308 0 0 0
511 1 26.837150252536688 10.329550402232071 12.566635445582206 0 0 0
28 1 21.186721420678047 1.6368441936018285 1.8788022904576764 0 0 0
59 1 23.244506579418776 3.4411801559758355 1.600133725625275 0 0 0
154 1 23.37462727290957 1.5599568301656617 3.422107669353708 0 0 0
185 1 21.161532290101903 3.1853426741270834 3.5522626133246518 0 0 0
1413 1 3.4914264201435627 14.109443822121236 10.637567777556944 0 0 0
512 1 25.006504238164077 12.641880132979516 11.94310461870289 0 0 0
161 1 -0.21216534005927135 3.3508266621969627 3.5544720550605122 0 0 0
4 1 -0.1735460827940945 1.7175918188984354 1.518916422004714 0 0 0
189 1 25.206379750307647 3.2575539754581317 3.45439718902909 0 0 0
32 1 25.117371971967657 1.82638511782655 1.397173047173269 0 0 0
63 1 26.856568068413175 3.5853997455317748 1.4505308101097767 0 0 0
158 1 26.83142476356869 1.9129035165122494 3.3317714378854313 0 0 0
65 1 -0.2327996488857309 6.893996324603548 0.10123687134957648 0 0 0
40 1 3.3971364873963656 5.239687093078518 1.487466684557168 0 0 0
67 1 1.5272154605161383 6.988135535060225 1.7134842272277013 0 0 0
72 1 3.3129705828922607 8.848745289624183 1.752737304109197 0 0 0
162 1 1.7648992399881376 5.117985813126593 3.4993237244674718 0 0 0
194 1 1.4223538389395167 8.642988008425847 3.3680029795164694 0 0 0
197 1 3.529116942773138 6.949493828329609 3.3206999424623773 0 0 0
193 1 -0.15941543481381615 6.805464830547468 3.5306482699158797 0 0 0
36 1 28.532388017362145 5.096006395117708 1.6024829644738245 -1 0 0
68 1 28.493211127495712 8.795056454708504 1.5509833151236567 -1 0 0
25 1 21.338492248563057 -0.05447559727571202 0.06567327681984142 0 0 0
44 1 6.796997521739689 4.963446635374785 1.7158530561465146 0 0 0
71 1 5.159392513506605 7.037852448326977 1.4870018215443956 0 0 0
76 1 6.992481879116077 8.831758791056679 1.5134606374316242 0 0 0
166 1 5.080652849405267 5.105503887129279 3.5281580651248428 0 0 0
198 1 5.236804683831397 8.842916126714218 3.411330339612225 0 0 0
201 1 6.88875293740753 6.958474215298601 3.4508924890083787 0 0 0
1155 1 1.4193859090677463 14.054731319662809 5.3039374291566235 0 0 0
34 1 1.5723385032084845 5.262371309346279 -0.19880887810202544 0 0 0
48 1 10.571303362486045 5.162617991106274 1.4337606820063227 0 0 0
75 1 8.294652357666623 6.888541445335167 1.5728087882002417 0 0 0
80 1 10.4432177698274 8.638533121284738 1.617004347528904 0 0 0
170 1 8.738558541130441 5.005069748768674 3.36524699648804 0 0 0
202 1 8.896472983637652 8.516185508828436 3.2438071377360327 0 0 0
205 1 10.340910413038191 6.6767230715544175 3.497262822406454 0 0 0
574 1 26.852057594327874 4.958172940090303 14.091645893620424 0 0 0
630 1 19.503375762507353 12.345282586595417 14.071921633183864 0 0 0
1045 1 17.498123456318915 13.971314147003179 0.018893293375824183 0 0 0
174 1 12.45760417535245 4.994756982737843 3.3139429541462073 0 0 0
79 1 12.202343223474895 6.926775983003748 1.6046778792789131 0 0 0
206 1 12.321774591322034 8.52516867645914 3.3492438020318462 0 0 0
52 1 14.10335309596784 5.419646086403512 1.619438686315986 0 0 0
84 1 14.528654378372407 8.894321390106406 1.703793972463098 0 0 0
209 1 14.262238383348976 7.191859687362943 3.3094425719697793 0 0 0
83 1 15.88051608164177 7.061076375097948 1.51621290029363 0 0 0
210 1 16.07458721667168 9.104816857450562 3.631402073076282 0 0 0
1035 1 8.668480105050397 14.076659099331529 1.8011980326138652 0 0 0
22 1 19.696719926359485 1.4197587837990482 0.05982822548205041 0 0 0
1281 1 -0.13307589101270878 14.143545678838509 7.150079656548038 0 0 0
178 1 15.926773047753512 5.171062685838567 3.2395901918896404 0 0 0
56 1 17.553458647821003 5.220657192864846 1.4387216744584732 0 0 0
87 1 19.460832729257504 7.074983556490682 1.545778862234502 0 0 0
88 1 17.59242880676723 9.029881559710388 1.6848099659262454 0 0 0
182 1 19.24476054953923 5.137701950675057 3.232318013068757 0 0 0
213 1 17.55294963107415 7.182955664518698 3.367703475688442 0 0 0
214 1 19.387063101313828 8.83798434808278 3.4410828907749917 0 0 0
1031 1 5.173031807441798 14.037908015763335 1.8226885423935224 0 0 0
66 1 1.543582965516712 9.040476333101148 -0.20598462694288777 0 0 0
60 1 21.42664922622337 5.1628057915667105 1.5226530434819463 0 0 0
91 1 23.258957513217354 6.808665127119152 1.6705150176338008 0 0 0
92 1 21.332637446981046 8.716525040935936 1.7472503143955855 0 0 0
186 1 22.99353534343352 5.295612398200427 3.4839879982613033 0 0 0
217 1 20.926260952136452 6.92637944391105 3.3373447457945313 0 0 0
218 1 23.166757110409847 8.67961725081113 3.2609861580298274 0 0 0
1429 1 17.780681804790618 14.094393101809027 10.833248014055613 0 0 0
133 1 3.218133640630891 -0.011956882742255398 3.273542353524997 0 0 0
221 1 24.878535718121306 7.034892214405852 3.307610594026434 0 0 0
64 1 25.092410870298714 5.259685105854091 1.615760470877074 0 0 0
95 1 26.61752968388798 7.22098229322507 1.6218260934123996 0 0 0
96 1 24.635272230046226 8.923086482554865 1.2726301878399893 0 0 0
190 1 26.79689093097941 5.197883141362905 3.358551834311984 0 0 0
222 1 26.93772428007223 8.898836932330834 3.859552414447589 0 0 0
135 1 5.291508492547607 -0.10605129781873324 5.097044484729197 0 0 0
9 1 7.107016053060083 -0.16768030897660874 -0.16234690082680692 0 0 0
99 1 1.3808832097256323 10.603925573909663 1.708643567591031 0 0 0
104 1 3.3534020335354886 12.170723494841843 1.7889028823078896 0 0 0
226 1 1.4616877176859364 12.413827405452416 3.47027228689377 0 0 0
229 1 3.1541631498087415 10.487982656238753 3.767669064549894 0 0 0
225 1 28.45527630744141 10.50049591946632 3.317827241343481 -1 0 0
100 1 28.430457171219018 12.47768244893792 1.6360702964089633 -1 0 0
389 1 3.6780288098226626 -0.21054138868675665 10.529262352559575 0 0 0
1299 1 15.986534194721548 14.165774232422235 8.93175942139931 0 0 0
1037 1 10.548574251450871 14.095971327355494 -0.19062293676017028 0 0 0
103 1 5.3581246537458505 10.50724847501388 1.5019349905776849 0 0 0
108 1 6.8398579188573025 12.39703996071109 1.67368770864863 0 0 0
230 1 5.048348484618616 12.226750663816047 3.526823010699495 0 0 0
233 1 7.104925293914484 10.696025315233028 3.353072153571433 0 0 0
283 1 23.42415961945911 -0.22364743595533554 8.658114907370319 0 0 0
1167 1 12.332747181852529 14.054373457396567 5.239861121628678 0 0 0
107 1 8.690642038559888 10.45167272953119 1.7553787605255544 0 0 0
112 1 10.424646391717806 12.24332453491194 1.871631077162562 0 0 0
234 1 8.64363163347267 12.440477573281202 3.6578590316639277 0 0 0
237 1 10.707512594987863 10.342391455190636 3.344182428766249 0 0 0
238 1 12.299241279725539 12.222273421349648 3.2947102594367834 0 0 0
618 1 8.711119714522534 12.491747653902872 14.112376947847839 0 0 0
391 1 5.163641282208821 -0.15737238622315886 12.577011415778301 0 0 0
111 1 12.159431545333268 10.430970145561647 1.4607476149203775 0 0 0
116 1 13.983542699770416 12.037381748355024 1.6292501258514862 0 0 0
241 1 14.1394661708179 10.678033733767137 3.509030017854037 0 0 0
115 1 16.056067288793933 10.856074634652312 1.625585219184861 0 0 0
242 1 16.02685162919571 12.384539300703725 3.58119755966312 0 0 0
1161 1 6.858166431864863 14.0751737951231 3.7496486722141222 0 0 0
1423 1 12.286125652426433 14.09739337908334 12.409984770780413 0 0 0
119 1 19.483035198797097 10.716311119637519 1.6945539298958818 0 0 0
120 1 18.0020615925524 12.37351030867876 1.7408242917180108 0 0 0
245 1 17.6980983304825 10.730903818775403 3.6472187071248743 0 0 0
246 1 19.432008534090606 12.347752812223744 3.556398085363806 0 0 0
1043 1 15.917597444669406 14.052646885122048 1.5668510719132962 0 0 0
53 1 17.862137074607283 3.054871216068609 -0.14749956245653484 0 0 0
123 1 22.76272575019467 10.56518357483547 1.586302172667708 0 0 0
124 1 21.24966390996049 12.33505774177765 1.6960205415354905 0 0 0
249 1 21.328622516885687 10.436198935289791 3.4973732167887763 0 0 0
250 1 23.093780251997295 12.530885410475062 3.616517949683032 0 0 0
1179 1 23.067620102687904 14.12621899455156 5.436145950998835 0 0 0
1283 1 1.6077187209034671 14.175972861145798 8.878547623312183 0 0 0
253 1 24.859205176546467 10.580295231140731 3.550302296106144 0 0 0
127 1 26.634311104642748 10.434182761695839 1.8471474175295546 0 0 0
128 1 24.788438695227548 11.95964664325604 1.6716670817429766 0 0 0
254 1 26.726426671787287 12.396812648110382 3.4029508743585386 0 0 0
505 1 21.530693846968923 10.677867793714727 10.458928342010084 0 0 0
522 1 8.471950673810367 1.4918487774843683 14.173285163709645 0 0 0
506 1 23.32287026121017 12.481949460917154 10.389664899727215 0 0 0
136 1 3.260017258756152 1.4166807874462473 5.356217170419681 0 0 0
163 1 1.5156907563906996 3.6091792398599587 5.225002458582683 0 0 0
258 1 1.595593417462895 1.3656654226222769 7.265900844249582 0 0 0
264 1 3.541317676376956 1.4779964629120421 8.902465851493654 0 0 0
291 1 1.632675106349139 3.1828648134131563 8.65961881290764 0 0 0
293 1 3.2013511542336524 3.142487503908092 7.077344569210032 0 0 0
289 1 -0.16639538743750393 3.1242564104280612 7.092714799319705 0 0 0
507 1 23.315130745179985 10.835755277617906 12.231124344488025 0 0 0
1287 1 5.023990223349611 14.066164348716955 8.876664213994314 0 0 0
140 1 6.9554205503391655 1.719331793186389 5.2250101857272995 0 0 0
167 1 5.066081734807211 3.4026466047262134 5.324486479993694 0 0 0
262 1 5.462304469055308 1.4653276369670185 7.067710189986905 0 0 0
268 1 7.302921992425672 1.392690480223819 8.7366392608512 0 0 0
295 1 5.1906136083542345 3.509302321876117 8.699930198235343 0 0 0
297 1 7.023579659158747 3.335979600413289 6.963323765747617 0 0 0
281 1 21.24714737504464 -0.0534441107145599 7.047728506373747 0 0 0
508 1 21.097236102703405 12.370063536262501 12.294437508323519 0 0 0
1165 1 10.732751498329057 14.005415016963768 3.333227800849573 0 0 0
144 1 10.657837945900349 1.5533817126533769 5.3317182234249785 0 0 0
171 1 8.979558342040553 3.413914160882295 5.221922451227232 0 0 0
266 1 8.901421166031723 1.2598890387341843 6.894166431365666 0 0 0
272 1 10.543222295836758 1.3422735568432067 8.6655546745524 0 0 0
299 1 8.893686591040229 3.2662192526818568 8.509253350203513 0 0 0
301 1 10.949078231652948 3.0801204422403234 7.025342439715584 0 0 0
141 1 10.56157983700743 -0.12612497247107685 3.410587544274644 0 0 0
303 1 12.379470046694912 3.232797889627884 8.705686938381715 0 0 0
175 1 12.608379680512865 3.2308002375264278 5.060580211591222 0 0 0
270 1 12.744924580845645 1.5738249540073406 6.9523542832014416 0 0 0
148 1 14.121562647463875 1.4196865779635126 4.951531975727646 0 0 0
276 1 14.243522321521086 1.4403445823298051 8.632233194014074 0 0 0
305 1 14.318065559303003 3.4557146541879153 7.06649843605529 0 0 0
179 1 16.012197450437498 3.3690732448439933 5.085291623876717 0 0 0
307 1 15.692218804208974 3.421231315843211 8.975818311133814 0 0 0
274 1 15.961628147965031 1.4928984752131607 6.926770881687378 0 0 0
504 1 17.64482988635099 12.443933354615002 12.438331582730374 0 0 0
502 1 19.50951887327146 12.242053249312297 10.358876189640075 0 0 0
549 1 3.166923474945714 3.527588677925658 14.158147522664526 0 0 0
152 1 17.55933988658002 1.595655865534635 5.256490564216271 0 0 0
183 1 19.438930219067323 3.1104722029666116 4.9128999402033875 0 0 0
278 1 19.39365140053549 1.6613008390955875 6.953746716191704 0 0 0
280 1 17.585581794474983 1.4253885144932315 8.699596341530613 0 0 0
309 1 17.608840151723214 3.324306058843486 6.851365854544492 0 0 0
311 1 19.50395253243005 3.1976189587347683 8.742527630900554 0 0 0
545 1 -0.03729479440968683 3.474582490480369 14.16585225530803 0 0 0
525 1 10.546864836772535 -0.1681129592559003 14.142802051065132 0 0 0
156 1 21.362353918997577 1.441018783326463 5.259831790597635 0 0 0
187 1 23.124552194434955 3.25310762279 5.030616207162659 0 0 0
282 1 23.28603157227905 1.5104378337798527 6.773695685045321 0 0 0
284 1 21.58127425192471 1.7324563653765488 8.557876316545112 0 0 0
313 1 21.22490895048972 3.281575007371882 6.998867650449473 0 0 0
315 1 23.400730726699138 3.3613104173843604 8.554010729394848 0 0 0
597 1 17.97739194070801 6.8610491768788515 13.9860917588991 0 0 0
503 1 19.575328434481868 10.463576222603917 12.228598492441739 0 0 0
260 1 -0.21085674863814433 1.3358171119497868 8.985932137828389 0 0 0
132 1 28.518153871230652 1.5115734639084597 5.09651898033348 -1 0 0
191 1 26.83739719195301 3.3638916493561575 5.259234071943688 0 0 0
160 1 25.021614525989314 1.4359201466840394 5.114053076394874 0 0 0
286 1 26.90785719772345 1.3959002255578936 6.939147479844787 0 0 0
288 1 25.101518921536154 1.5381064303456378 8.775162426042488 0 0 0
317 1 25.227540994485203 3.2832841836557933 6.875139290313909 0 0 0
319 1 26.89105683701407 3.211853174948973 8.891110293008946 0 0 0
168 1 3.4450141850047213 5.104994729294265 5.5763790680815974 0 0 0
195 1 1.5113711153822915 6.704490946266432 5.25526460762106 0 0 0
200 1 3.4521408727649754 8.724661264498002 5.190464063431478 0 0 0
290 1 1.5812882606414413 5.281455480976336 7.025404239483465 0 0 0
296 1 3.357325679016371 4.995623172274649 8.767444763766541 0 0 0
322 1 1.7367671208416764 8.92580394454435 7.012610602697062 0 0 0
325 1 3.4041373474666887 6.997259790983018 7.198375728661544 0 0 0
328 1 3.527324822998856 9.029060031727207 8.656632622859746 0 0 0
323 1 1.6997259900585584 6.975119300164562 8.77998980191035 0 0 0
164 1 28.55197085860127 5.044627813633803 5.402541337669241 -1 0 0
292 1 28.549545635739 5.125204950705673 8.753219817387127 -1 0 0
321 1 -0.17863076243705453 6.874830989503348 7.087948968877202 0 0 0
172 1 6.8640297810434445 5.117234079144282 5.07038196598481 0 0 0
199 1 5.274284304637371 6.8057804908223725 5.093350793568364 0 0 0
204 1 7.141122440850722 8.766637255598447 5.2939945113135565 0 0 0
294 1 5.471547734044005 5.2167178300427 6.783403918395654 0 0 0
300 1 6.917741866793041 4.945128139535526 8.90198835352524 0 0 0
326 1 5.202887440708195 8.797275060475352 6.910465908488197 0 0 0
327 1 5.112607232483101 6.640894085393368 8.62849144862769 0 0 0
329 1 7.0932063348571415 7.095361048979845 7.215385353204997 0 0 0
332 1 6.995564911251987 8.755624212917647 8.692252355449998 0 0 0
176 1 10.808073060248832 5.0539358577921325 5.44335062360995 0 0 0
203 1 8.675619785968527 6.8890622566082635 5.240081067244878 0 0 0
208 1 10.672517635911957 8.62937867135142 5.238728605878382 0 0 0
298 1 8.665711259451056 5.08265009752427 6.927540941358005 0 0 0
304 1 10.895600986649812 4.9462621992044005 8.83371879073517 0 0 0
330 1 8.957909548422085 8.609837731101507 7.051053605224611 0 0 0
331 1 8.84333256888552 6.627913496031927 8.72050096642812 0 0 0
333 1 10.688983188956437 6.8929256702915565 7.153546683537762 0 0 0
336 1 10.690210651128957 8.68486728791679 8.790574075000833 0 0 0
334 1 12.419919444937582 8.752547477517414 7.1358021805116625 0 0 0
302 1 12.598049243050175 5.011872774172069 7.0006511894863666 0 0 0
207 1 12.38189953576237 7.024212185912099 5.2840332399403795 0 0 0
335 1 12.562994834994141 7.042348431234453 8.823501008373665 0 0 0
180 1 14.33790343333713 4.9349631016303155 5.130763032698343 0 0 0
212 1 14.111710249358241 8.625565880013692 4.969669575720109 0 0 0
308 1 14.199813022628804 5.203083869577784 8.754018727920858 0 0 0
337 1 14.146307029256615 6.970840626562934 6.756241704510365 0 0 0
340 1 14.352749878508613 8.676010895348034 8.833002470755526 0 0 0
211 1 16.111415045068718 6.964476511790074 5.04273273434933 0 0 0
338 1 16.06552876958405 8.502698206710312 6.920106895440813 0 0 0
339 1 15.856881134326835 6.824571471585516 8.783752158101196 0 0 0
306 1 16.006478933710298 5.234305651597653 6.891273203710624 0 0 0
216 1 17.685803490107517 8.748584897089513 5.333488835659586 0 0 0
310 1 19.311177726645212 4.6393116208962235 6.7196001266933605 0 0 0
184 1 17.518791778766833 5.1489230847014955 4.987038362543781 0 0 0
215 1 19.28822412031974 6.987201108405498 5.137866434578958 0 0 0
312 1 17.701302117172773 5.008560894447585 8.657412279371432 0 0 0
341 1 17.72969891859742 6.873065181229305 7.004445971359956 0 0 0
342 1 19.50476434525345 8.519407500816278 6.882853328159979 0 0 0
343 1 19.38896513267092 7.1121493334906525 8.821694187839674 0 0 0
344 1 17.423510572095353 8.987692341687382 8.912730818162965 0 0 0
188 1 21.13068251834536 4.930697027268671 5.211728656444107 0 0 0
219 1 23.210412582876003 7.013537267762645 5.312518778474572 0 0 0
220 1 21.237124008747763 8.628082203798401 5.207725192978421 0 0 0
314 1 23.201383914216137 5.06862791083709 6.967974865054186 0 0 0
316 1 21.36367235373782 5.1837275062285855 8.717205720278994 0 0 0
345 1 21.170818670355153 6.761748509315089 7.00681489591556 0 0 0
346 1 23.096328075142686 8.78079089681099 7.054913391168731 0 0 0
347 1 23.272451924533065 6.7282089364496285 8.52305830960621 0 0 0
348 1 21.371848967155657 8.692588840092444 8.78585775775287 0 0 0
324 1 -0.11506954621243813 8.824245474874248 8.64703999794596 0 0 0
196 1 -0.07986194080568115 8.544503617585631 5.3001689653275905 0 0 0
224 1 24.809941085564084 8.67387257241894 5.372952925189525 0 0 0
349 1 24.933144209610155 6.793230292486928 6.898775077816184 0 0 0
192 1 25.00788325807806 5.122214288991999 5.113381753308638 0 0 0
223 1 26.75095668146205 6.8237315373527085 5.26755689289566 0 0 0
318 1 26.860418956324466 4.925281116244131 6.988865792420837 0 0 0
320 1 25.039598015389593 4.998077790403971 8.517554681031985 0 0 0
350 1 26.836414650550132 8.9011627031112 6.991640049500932 0 0 0
351 1 26.744386078016873 6.7729527350464105 8.5826915484076 0 0 0
352 1 25.159468710625276 8.700755813989698 8.669324702182173 0 0 0
227 1 1.3223175297084746 10.472629182935526 5.033250024872673 0 0 0
232 1 3.2260879256077732 12.484810782594796 5.12484889245947 0 0 0
354 1 1.3911598675805208 12.294010925957094 6.941442088808984 0 0 0
355 1 1.474408651597806 10.640664236667954 8.710080681668224 0 0 0
357 1 3.5838463740135276 10.944543726982069 6.921492866118539 0 0 0
360 1 3.316167792810484 12.491681930042494 8.613241112464939 0 0 0
353 1 -0.19724254045570433 10.726679646877956 6.978901003868578 0 0 0
585 1 7.019985785309219 7.0105936364430335 14.087411321603046 0 0 0
231 1 5.460500452551397 10.437662075267607 5.292248470718227 0 0 0
236 1 6.958522242292378 12.481574385606379 5.53066107216012 0 0 0
358 1 5.18846172271035 12.334607281810325 6.973393487306356 0 0 0
359 1 5.38756709420069 10.544876970576313 8.798679042840558 0 0 0
361 1 7.21415934949426 10.624630726815086 7.106850740654967 0 0 0
364 1 7.048890219930094 12.557009816670849 8.938301047696568 0 0 0
501 1 17.92962649715701 10.54052408230844 10.723107598201828 0 0 0
235 1 8.8116569949895 10.371690785439618 5.236321211670782 0 0 0
240 1 10.57198026605569 12.521078280097315 5.25534436490627 0 0 0
362 1 8.8754953968854 12.391415481909577 7.0665680437753995 0 0 0
363 1 8.906625422402419 10.656851208278558 8.730371357328904 0 0 0
365 1 10.680669719411382 10.720960961983156 7.151329659647789 0 0 0
368 1 10.569068570805422 12.60997967060293 8.854867669022978 0 0 0
1433 1 21.341576750042726 14.064844726116021 10.391731587170916 0 0 0
367 1 12.341583110708958 10.537087502122352 8.898285404787108 0 0 0
239 1 12.478968323364324 10.380687649446175 5.40396902323 0 0 0
366 1 12.432377194522179 12.364543982549982 6.988008181536384 0 0 0
244 1 14.263133015176225 12.353663169553231 5.112866301548191 0 0 0
369 1 14.128990572115024 10.439500737913434 7.076544286971335 0 0 0
372 1 14.212054271045458 12.414568936391575 9.085855501336098 0 0 0
370 1 15.77982430864778 12.385893334106367 7.040487161450417 0 0 0
371 1 15.75872686081409 10.475388838027785 8.85573809309978 0 0 0
243 1 15.814561571434188 10.500153726236851 5.484423184023927 0 0 0
1565 1 24.939855105330537 14.173189295902546 13.956312046086191 0 0 0
247 1 19.325880538805023 10.418164510458167 5.261921927738766 0 0 0
248 1 17.514871138585427 12.550075290520185 5.43719792223556 0 0 0
373 1 17.596267142893474 10.597333192064456 7.250591669198564 0 0 0
374 1 19.27115178531716 12.431503176610168 6.92733994241281 0 0 0
375 1 19.585299305647254 10.38365196208355 8.882662310021008 0 0 0
376 1 17.731547328966435 12.338858898779838 8.946532416480363 0 0 0
251 1 23.170232742269057 10.500830441448109 5.194460218661525 0 0 0
252 1 21.25220542963472 12.48992726490584 5.198063179985798 0 0 0
377 1 21.105182699330328 10.56202467107706 6.836051333853479 0 0 0
378 1 23.00616450954994 12.25850778461787 6.90423847962413 0 0 0
379 1 22.995936848504456 10.797872272095749 8.607404117250429 0 0 0
380 1 20.963302490165624 12.363731017286907 8.692027271538864 0 0 0
356 1 -0.04867144525633904 12.382763135762971 9.055662517378941 0 0 0
228 1 28.566306306763657 12.32380431786182 5.095139803105407 -1 0 0
500 1 14.099599094749074 12.256029358546725 12.680887131645445 0 0 0
598 1 19.640491034141064 8.650166825870054 13.866519730201116 0 0 0
256 1 25.07453499398276 12.484172753750155 5.229710690746485 0 0 0
255 1 26.745886054082234 10.56623563912334 5.414720826656252 0 0 0
381 1 24.981522852958555 10.655325842705736 6.992340903869884 0 0 0
382 1 26.954074875430088 12.384739952740022 6.863335540489131 0 0 0
383 1 26.866724770790753 10.487266742319225 8.67438295051707 0 0 0
384 1 25.19567178885913 12.405403716807575 8.689728138029464 0 0 0
386 1 1.58032200556669 1.520369742539722 10.706080380732038 0 0 0
419 1 1.624591769183283 3.450649328666611 12.462017455259208 0 0 0
392 1 3.5659710800557116 1.5748580123477267 12.19644101916399 0 0 0
421 1 3.390011963597445 3.3453009280136152 10.365696888835606 0 0 0
269 1 10.807886045428658 -0.22335621399368222 6.808987524262116 0 0 0
518 1 4.948242926471036 1.8542947494193487 14.08333158636258 0 0 0
390 1 5.528093674475762 1.4731171258256526 10.439509400367003 0 0 0
396 1 6.838606029264009 1.5917341743962115 12.39013668847593 0 0 0
423 1 5.391911182876579 3.386299024060673 12.187373553880006 0 0 0
425 1 7.242643784567944 3.1665199992757005 10.420087503534418 0 0 0
1153 1 -0.21664915007176688 14.003042867357134 3.5034268475192243 0 0 0
117 1 17.864239975273506 10.624117109023915 -0.1306369166812039 0 0 0
495 1 12.064974206185381 10.553059525660464 12.403745850422892 0 0 0
394 1 8.741385879133528 1.3344309415971447 10.628685344912826 0 0 0
400 1 10.458768362831798 1.5112185050265887 12.449457655922565 0 0 0
427 1 8.858831462288329 3.235641299385388 12.489477864945675 0 0 0
429 1 10.450822121322503 3.212695192072002 10.529304336691363 0 0 0
11 1 8.72717851634254 -0.2276089640778865 1.6984182233363232 0 0 0
1157 1 3.286633994174297 14.1683677627017 3.3180610013069427 0 0 0
287 1 26.85086684794679 -0.23352654737478673 8.905461718522135 0 0 0
494 1 12.335258165763946 12.653938464185678 10.55392913904886 0 0 0
263 1 5.314099757547948 -0.18541402647942107 8.772174282480682 0 0 0
398 1 12.21907711690166 1.3087281236736203 10.464638030459954 0 0 0
431 1 12.455383321826462 3.180599911364727 12.31786761008758 0 0 0
404 1 14.100471269997342 1.2273874321479308 12.379954091660693 0 0 0
433 1 13.92559502878328 2.9686696506151247 10.416996004754829 0 0 0
402 1 16.03101435995471 1.4086891221463638 10.41782444167791 0 0 0
31 1 26.840141997137437 -0.04476720445490656 1.4563308999725237 0 0 0
498 1 15.809017316564576 12.284434418685958 10.69081883135983 0 0 0
1431 1 19.733737959421397 14.138406486877388 12.29689201968604 0 0 0
435 1 15.95588775645914 3.0934547471142317 12.572654107314964 0 0 0
406 1 19.340946644926397 1.3780356420725302 10.517625346339734 0 0 0
408 1 18.01394543177355 1.630628549643808 12.614609474495058 0 0 0
437 1 17.813284911717332 3.271500472163248 10.601329044378062 0 0 0
439 1 19.536867307235042 3.273275793488134 12.228282194604073 0 0 0
82 1 16.123629250615124 8.986777070035979 -0.1349336574411888 0 0 0
407 1 19.820519294527024 0.03144623777411937 12.394473500559283 0 0 0
411 1 23.246891965368306 -0.2095191046053131 12.631639880651473 0 0 0
401 1 13.934266872307765 0.008426424956773815 10.529434313911203 0 0 0
410 1 23.193469508575177 1.875748346637633 10.691559238901156 0 0 0
412 1 21.551447785027165 1.5892016458609708 12.461680565321606 0 0 0
441 1 21.300614908424734 3.340321699511167 10.39134443460365 0 0 0
443 1 23.09483592008735 3.4366586411182047 12.60690170091978 0 0 0
497 1 14.029879842312562 10.627533814868023 10.857912818024465 0 0 0
1177 1 21.29053472994198 14.173494038720703 3.517142081197829 0 0 0
601 1 21.409064839377272 6.855808377336317 13.958202506483364 0 0 0
1047 1 19.753535224035595 14.125218539390586 1.593181947024663 0 0 0
417 1 -0.09865822853012673 3.0974034872558507 10.732642642626706 0 0 0
388 1 28.41965191191637 1.470435693952375 12.598194293207472 -1 0 0
445 1 25.16255195149749 3.168490183811962 10.650256729219656 0 0 0
414 1 26.907447002646762 1.3246962174936625 10.918332544092447 0 0 0
416 1 25.006591216989072 1.4853501681671235 12.410550763719453 0 0 0
447 1 26.75262781773973 3.1922012230724017 12.282715547586495 0 0 0
1055 1 26.841132115922477 13.938924166184766 1.7067702772595732 0 0 0
1169 1 14.058892192272642 14.071949591663529 3.41507630664038 0 0 0
1309 1 25.158622035639212 14.071736880219387 6.820065578412781 0 0 0
418 1 1.741738662503379 5.0784012477854 10.419672666469957 0 0 0
424 1 3.3237693648146007 5.428591630605303 12.3870356935083 0 0 0
450 1 1.824203652131576 8.712184276550598 10.555552013038728 0 0 0
451 1 1.5880420601086696 6.836940615447706 12.001608114438898 0 0 0
453 1 3.48095595103205 6.657201941942559 10.50858185018331 0 0 0
456 1 3.37539832128366 8.688117676804474 12.477543167021436 0 0 0
420 1 0.07067144646594414 5.147813393838792 12.195663550969563 0 0 0
449 1 28.464925491303458 7.0726162755142585 10.406169615865112 -1 0 0
586 1 8.742711304356614 8.748604314506501 14.065246322780734 0 0 0
422 1 5.307819360221104 5.022049611451518 10.57306052010522 0 0 0
428 1 7.246471923630735 5.313382216630749 12.180758067900092 0 0 0
454 1 5.194428935564515 8.55840593319028 10.509572821388726 0 0 0
455 1 5.294918153684684 6.984589633087795 12.091742709738512 0 0 0
457 1 7.144141440922409 7.043295577710439 10.289897937272274 0 0 0
460 1 7.08574253197123 8.564941840636541 12.094310712201326 0 0 0
617 1 6.977551351743653 10.535796156803736 14.087872690137324 0 0 0
3 1 1.4198647672955271 -0.12278026479291633 1.69666245911199 0 0 0
426 1 8.804419460120192 4.9986619857316015 10.46366700907938 0 0 0
432 1 10.58602564756916 5.168495204470616 12.511130308243356 0 0 0
458 1 8.934288121208198 9.065996979003371 10.389286406373449 0 0 0
459 1 8.785053025361702 7.1697161993358955 12.283716673175277 0 0 0
461 1 10.689081679849911 6.651565602133433 10.576501136149396 0 0 0
464 1 10.534606832745261 8.80995489823094 12.528907692149682 0 0 0
1051 1 23.169075006725187 13.988442975210209 1.4707119764386951 0 0 0
430 1 12.487102014439786 5.121557167824957 10.542831124600978 0 0 0
462 1 12.2167644088815 8.620865319119298 10.827135428610394 0 0 0
467 1 15.908685490469788 7.052062047869682 12.52924782084686 0 0 0
434 1 15.975607856478609 5.134773108039529 10.88031921726665 0 0 0
468 1 13.947897013962848 8.809086444984978 12.574154234697325 0 0 0
463 1 12.320706660959846 6.9858272002367015 12.795768327218966 0 0 0
436 1 14.033350454298718 5.023278400457225 12.3124297955931 0 0 0
465 1 14.253925018067804 6.9152084265010645 10.599030731967192 0 0 0
81 1 14.185312797908022 6.962938396457162 -0.1760827975665057 0 0 0
1285 1 3.2690720584100643 13.957933820193828 6.8732869352128265 0 0 0
466 1 15.785713537055505 8.790508871755573 10.6181212592799 0 0 0
440 1 17.762381307500704 5.014637077251263 12.483580736280468 0 0 0
470 1 19.6942011162947 8.728435060139425 10.573500719342709 0 0 0
438 1 19.649793291043096 5.0949724456093435 10.324709955987307 0 0 0
469 1 17.761339845698956 6.675743615814469 10.513815259254356 0 0 0