LAMMPS data file via write_data, version 29 Oct 2020, timestep = 300000

2048 atoms
1 atom types

-0.2925847985504024 28.644584798549275 xlo xhi
-0.2925847985504024 28.644584798549275 ylo yhi
-0.2925847985504024 28.644584798549275 zlo zhi

Masses

1 58.933

Atoms # atomic

8 1 3.3440875680742566 1.6740331286709496 1.5953617290198003 0 0 0
35 1 1.492414658477285 3.5865051428615162 1.5789112791372804 0 0 0
130 1 1.5043186452888873 1.6829471578472528 3.352240866750191 0 0 0
165 1 3.4347174000789313 3.5383941771307734 3.6660164244953983 0 0 0
129 1 0.04018169727553911 -0.2600530185137302 3.3720233743861114 0 0 0
1439 1 26.97590551024316 14.168820016834792 12.521437323547639 0 0 0
66 1 1.6449739442360156 8.474766334005748 -0.05042513451654945 0 0 0
12 1 7.1096329377432115 1.5664862756293492 1.4336184165267234 0 0 0
39 1 5.191362196443816 3.242359169910454 1.4171348579696121 0 0 0
134 1 5.041977700718231 1.641862675350245 3.4612175814100956 0 0 0
169 1 6.833452185780125 3.3516084833831816 3.578315493258606 0 0 0
1163 1 8.779332751198965 14.058962266091457 5.242467898671543 0 0 0
105 1 7.429263726025639 10.52595874062239 0.03694720372238591 0 0 0
16 1 10.799187072006378 1.4951134203516903 1.6416032809129073 0 0 0
43 1 8.866494225859507 3.125391408436603 1.4742386528634002 0 0 0
138 1 8.78509667123556 1.1339668751501113 3.254144987220891 0 0 0
173 1 10.491017784279475 3.341520400632808 3.148361570911387 0 0 0
142 1 12.592409240090754 1.5813095307396572 3.2017204933659547 0 0 0
47 1 12.645392852681857 3.2699486495614267 1.4627471642653624 0 0 0
20 1 14.104908924589976 1.2963069330735968 1.1697329073257123 0 0 0
177 1 14.523084061269468 3.1392922918535935 3.0950296615675095 0 0 0
146 1 15.952336810621167 1.3129374745613893 3.1235208241013988 0 0 0
484 1 28.533597690724804 12.48243735830757 12.247991071996223 -1 0 0
509 1 24.72598624431771 10.415609430736561 10.651569117333091 0 0 0
510 1 26.314219509092794 12.562646674941018 10.565253331086648 0 0 0
411 1 23.539130214568118 0.13953906439641944 12.622404742768557 0 0 0
93 1 24.888166312626296 6.686978488960999 -0.04397839941093337 0 0 0
51 1 15.95678886823582 3.181458384681962 1.0988171890248246 0 0 0
24 1 17.81366865450954 1.3604016611849679 1.3633043360797763 0 0 0
55 1 19.302925269796454 3.4289395456584826 1.2517959150624458 0 0 0
150 1 19.27550732541176 1.868503071890283 3.4168685381461623 0 0 0
181 1 17.611719850164732 3.348190552414038 3.071099413719599 0 0 0
135 1 5.304892181086415 -0.21354752621727613 5.140141488980755 0 0 0
273 1 13.877367881977415 -0.1851732513173161 7.064609029272063 0 0 0
28 1 21.324190317925336 1.7309372058337842 1.6118440227392967 0 0 0
59 1 23.222833644895182 3.3248431307294077 1.4519279402946264 0 0 0
154 1 23.284141400686934 1.7088409692686488 3.32970001766593 0 0 0
185 1 21.077564832688374 3.4842914646289493 3.249233400500266 0 0 0
1431 1 19.62398579786604 14.074017145431487 12.409210309200434 0 0 0
511 1 26.739243364751765 10.765143105096119 12.236543972986063 0 0 0
391 1 5.013723935675161 -0.10892728213538305 12.480895184907363 0 0 0
4 1 -0.10992519576737403 1.8373427475942616 1.4245172197928848 0 0 0
161 1 28.278835701890166 3.4170438634156004 3.3474595159850713 -1 0 0
189 1 25.023664209524966 3.2406349495036895 3.3776627786331397 0 0 0
32 1 24.908713789130232 1.6381461935356536 1.5128299184712126 0 0 0
63 1 26.871464921221317 3.179818281999479 1.6030592681045324 0 0 0
158 1 27.173074830893547 1.2809897965334422 3.4667634696882126 0 0 0
512 1 24.882035758165173 12.612378572555977 12.471302347064983 0 0 0
481 1 28.4520629223068 10.712402327480834 10.249146479894105 -1 0 0
131 1 1.8919719979467153 -0.25208716285042954 5.029021946444495 0 0 0
65 1 28.529989509561233 6.765003846754381 0.10068043502344393 -1 0 0
40 1 3.505385209106604 5.109027933270624 1.4517895544048207 0 0 0
67 1 1.6315460803503172 6.904436698133861 1.7730810086883215 0 0 0
162 1 1.380168125024315 4.945480746863794 3.5406802009393963 0 0 0
194 1 1.3754998585681495 8.95924598117976 3.4313050927420723 0 0 0
197 1 2.9071388133082414 6.605996905655719 3.6696364182259202 0 0 0
72 1 3.394284921219119 8.580254399369789 1.5597426556214748 0 0 0
68 1 -0.2752557648040437 8.736664931225993 1.6298910219066494 0 0 0
193 1 28.624531298697903 7.23900528942986 3.428760083784405 -1 0 0
1545 1 7.081944239034568 13.69230299254114 14.005902616587544 0 0 0
44 1 6.903294736501384 5.152374605671175 1.6059839528606585 0 0 0
71 1 5.384848979164107 6.976764133917967 1.5114560955386536 0 0 0
166 1 5.306520502272061 5.339248230794792 3.674121186043048 0 0 0
198 1 5.063886838509865 8.559409856964884 3.6159785931626574 0 0 0
201 1 7.051688227822316 7.036799407430158 3.376969951217303 0 0 0
76 1 7.0297915325673195 8.44653719309907 1.3698464968598905 0 0 0
553 1 6.82475796602651 3.107158499859463 13.863596308135671 0 0 0
153 1 21.51572668024363 -0.11519960683316555 3.269659560628959 0 0 0
48 1 10.853721864798914 5.206037023844323 1.4618282952791855 0 0 0
75 1 8.682443463713653 6.934091875113806 1.7726208820107634 0 0 0
170 1 8.732685562444855 4.908937669258318 3.2367414696698082 0 0 0
202 1 8.986459280221494 8.95475657526739 3.228934196055146 0 0 0
205 1 10.454895363865576 6.919875549456005 3.40526235894141 0 0 0
80 1 10.557024372392753 8.701226837330799 1.7417107686849138 0 0 0
139 1 8.868664519685826 -0.2147123712619532 5.166268122409913 0 0 0
206 1 12.18707268261289 8.708374938535277 3.5011714432354046 0 0 0
174 1 12.496213075101437 4.969733138315923 3.502309342822315 0 0 0
79 1 12.476204277758233 6.972073070153298 1.7426621096700834 0 0 0
52 1 14.360596329783297 5.287929526028771 1.7165324020061892 0 0 0
209 1 14.040848292074692 6.95299071654686 3.6020250141597483 0 0 0
84 1 14.482298444039209 8.723308688202353 1.5066831055613745 0 0 0
178 1 16.08755870844002 5.2703477650999515 3.283426972449956 0 0 0
83 1 16.21923663955898 7.100879361679037 1.5888209691437134 0 0 0
69 1 3.4611468599689603 6.627363865489941 -0.19067007129488237 0 0 0
609 1 28.452475436888072 10.375775232899025 13.922815727286523 -1 0 0
58 1 22.992529715204533 5.075009968305277 -0.18926505547678332 0 0 0
1415 1 5.143541956019121 14.131325582226852 12.234040863578496 0 0 0
210 1 15.92707373317623 8.852787193663861 3.436754411370498 0 0 0
56 1 17.62320186192065 5.1846418965659655 1.3454663981957817 0 0 0
87 1 19.376229208681295 6.858438697396988 1.3171431937238296 0 0 0
182 1 19.407845342044418 5.4620487182555 3.14861678378845 0 0 0
213 1 17.732714034996484 7.149222568798068 3.3544122411693658 0 0 0
214 1 19.42965059282085 9.141126241468266 3.441832008668828 0 0 0
88 1 17.9147232227321 8.76469126488178 1.4185275499681478 0 0 0
60 1 21.367305642155436 4.922248545959261 1.4081111203088883 0 0 0
91 1 22.732895610902524 6.855884015165689 1.5085059468045687 0 0 0
92 1 21.125380060471272 8.802823499513478 1.582732493934119 0 0 0
186 1 23.329372534522477 4.936570678970441 3.221314389500032 0 0 0
217 1 21.315962350661785 6.734623879541598 3.605282692898891 0 0 0
218 1 23.007761129601825 8.84221605193205 3.5199748918842366 0 0 0
36 1 28.464641457812125 5.287239674341705 1.7939687638831634 -1 0 0
96 1 24.936831313350474 8.616376139613447 1.5393575902130556 0 0 0
64 1 24.894908833568593 4.99942599812887 1.6352532037528855 0 0 0
221 1 24.944504445861888 6.863884302652952 3.389537034992499 0 0 0
95 1 26.663171536873158 6.695248430959034 1.5374073217638196 0 0 0
190 1 26.65170805543469 5.062704555192185 3.5215287257980843 0 0 0
222 1 26.71902402578801 8.848602601988139 3.131054612144738 0 0 0
126 1 26.740925495435576 12.294344142164285 -0.05516507800131104 0 0 0
31 1 26.67782646858435 -0.039384849086284424 1.2808583118390704 0 0 0
99 1 1.3410242562069135 10.651261962351613 1.475282735168283 0 0 0
226 1 1.3299609337691376 12.244819985743469 3.353250756610298 0 0 0
104 1 3.3584920818193122 12.203652465055267 1.8916747470995348 0 0 0
229 1 3.2958653082937674 10.331377868293487 3.3569867209322513 0 0 0
225 1 28.53660107951589 10.489684760503224 3.366932734993848 -1 0 0
100 1 28.5215710225283 12.279353408592907 1.4622657321711015 -1 0 0
103 1 5.079308314706198 10.58371913950064 1.33509466397715 0 0 0
108 1 6.9733641740334615 12.33529694475429 1.7027253724555491 0 0 0
230 1 5.231245730329632 12.27818997926167 3.423024197233007 0 0 0
233 1 6.856409484996548 10.323417354678458 2.8568903849725134 0 0 0
27 1 23.49061078935025 -0.1629991301719428 1.668667037371991 0 0 0
81 1 14.123453668560405 7.0950896625261795 -0.043101795667822185 0 0 0
73 1 7.263618804832401 6.8193107048284745 -0.19723101423543593 0 0 0
107 1 9.226993762266112 10.796590080124489 1.6338055442715576 0 0 0
112 1 10.984611559926249 12.183314221915145 1.330560938171273 0 0 0
234 1 8.605216530887265 12.257257561857857 3.4039882324687265 0 0 0
237 1 10.823859244928046 10.792102028977261 3.3613829793636985 0 0 0
62 1 26.870450328949474 5.099663536332181 -0.2318980875306872 0 0 0
5 1 3.337094896966443 -0.21472066224075614 -0.19559280797067366 0 0 0
259 1 1.436272142880959 -0.2097228365151267 9.155358537911377 0 0 0
505 1 21.51441470264504 10.659410986472885 10.927494432808015 0 0 0
1027 1 1.4074842626643727 13.753776459570801 1.2995224389947158 0 0 0
1173 1 17.58916529390938 14.084351100053281 3.119734040227466 0 0 0
111 1 12.298359709688143 10.309869187861409 1.438941480359122 0 0 0
238 1 12.490195503630224 12.13072193238096 3.308069737013044 0 0 0
116 1 13.95572306410077 12.286506086686364 1.4365109981208892 0 0 0
241 1 14.033860617375312 10.345919573783577 3.2332465268647907 0 0 0
115 1 16.103630414144945 10.461285125827656 1.2713772665606764 0 0 0
242 1 15.94717162797921 12.078066835926426 2.9824155314419545 0 0 0
119 1 19.828404602360067 10.852006407590142 1.4287351747575368 0 0 0
120 1 17.90287986937721 12.41022852647589 1.2285348421411006 0 0 0
245 1 18.048859090879773 10.87722924677629 3.096280728105849 0 0 0
246 1 19.833439566247016 12.67794170000359 3.218960955021122 0 0 0
1301 1 17.869424091476773 13.972880283322137 6.8360917441788835 0 0 0
506 1 23.229522292100278 12.466231858328662 10.871858096671826 0 0 0
634 1 23.12214047670045 12.586145193890527 14.070971613099593 0 0 0
123 1 23.24308373149387 10.525978565761537 1.6050771454190265 0 0 0
124 1 21.60610935461115 12.398628940692793 1.392035519511221 0 0 0
249 1 21.413546115872236 10.661853019769412 3.3175173243143385 0 0 0
250 1 23.10519329247262 12.449169095395776 3.1145948141501782 0 0 0
1039 1 12.232470164329966 14.073237102154991 1.5573536186704737 0 0 0
159 1 26.725042526317658 0.07050385842678814 5.395598216726529 0 0 0
253 1 24.76634558486706 10.675418096024897 3.310113940709847 0 0 0
128 1 25.013982269531596 12.249782882390528 1.5289932558022605 0 0 0
127 1 26.592846320513843 10.4359175100506 1.3993200806351884 0 0 0
254 1 27.02843503022831 12.40441353626946 2.931993034653987 0 0 0
537 1 21.45851608886433 -0.10356476608864043 14.059364673389242 0 0 0
163 1 1.4525451101300837 3.299454026854997 5.241519042910302 0 0 0
258 1 1.6044364997111686 1.8251974772822819 7.0080628598671595 0 0 0
264 1 3.278100806043614 1.2478794849916535 8.97314619945073 0 0 0
293 1 3.5056538906251062 3.2457473439540476 7.28135671094234 0 0 0
136 1 3.39105744263261 1.3402466787093903 5.218359761479708 0 0 0
260 1 28.569590598495473 1.5526086813921054 8.532942995170723 -1 0 0
507 1 23.25202671672401 10.346579860642956 12.46917714924035 0 0 0
167 1 5.231897745524552 3.441725141728579 5.52135063876836 0 0 0
140 1 6.8666925358090305 1.4824803776767301 5.31327587590373 0 0 0
262 1 5.311385079903041 1.344400472585712 7.231444777838183 0 0 0
268 1 6.9750204909707865 1.6310159017507637 8.979092933573412 0 0 0
295 1 4.925733050637811 3.232521108479589 9.197951584723828 0 0 0
297 1 7.227185289552606 3.15328704989049 7.09384666112613 0 0 0
508 1 21.3058653679115 12.168813897733985 12.597001091512677 0 0 0
502 1 19.711643552083913 12.484269932119888 10.334373961751908 0 0 0
171 1 8.685252581179155 3.2050014993128233 5.01952743513138 0 0 0
144 1 10.56271093584706 1.7942442343739717 5.079176560634306 0 0 0
266 1 9.0292196882991 1.5065656181509803 6.716122555761331 0 0 0
272 1 10.680725560436493 1.4053578763589312 9.047983430268005 0 0 0
299 1 9.005592495431504 3.083713948539622 8.752279526340768 0 0 0
301 1 10.526118582266053 3.367355146077633 6.9362040581789675 0 0 0
1433 1 21.44547604137606 13.975532928261508 10.726324296800756 0 0 0
155 1 23.277312407382823 -0.2680438481954255 5.161059671762284 0 0 0
504 1 17.753173279859986 12.68896022599845 12.33023286457867 0 0 0
175 1 12.443017650838648 3.316921324737385 5.463476117463983 0 0 0
270 1 12.118101092328242 1.2600421467421916 6.743802388193711 0 0 0
303 1 12.242937339181605 3.044426993471807 8.482916752350263 0 0 0
148 1 14.096546686069429 1.8030424253597674 5.2629041420114895 0 0 0
276 1 13.985348596533894 1.6672545949332842 8.573753548006419 0 0 0
305 1 14.220810856680822 3.567575094226114 7.0518235187551985 0 0 0
179 1 15.910115899711082 3.5171451530129274 5.263609886322706 0 0 0
307 1 15.929405284084337 3.538412035291634 8.947097353882791 0 0 0
582 1 4.7566657063375635 8.965133882043796 13.754010680022633 0 0 0
42 1 8.811278999320852 5.271151734834247 0.027736228348408 0 0 0
498 1 15.711350846362512 12.492275056058967 10.435022011920994 0 0 0
15 1 12.245260243594142 -0.19425529452387025 1.6915065738171275 0 0 0
274 1 15.76166951122252 1.5587744786311282 6.794782850522504 0 0 0
152 1 17.603441269456503 1.9323157043316495 5.089233270822759 0 0 0
183 1 19.3028155088544 3.2707480235712643 5.534644266250288 0 0 0
278 1 19.22579079012565 1.5210682893311505 7.322214852115579 0 0 0
309 1 17.43334453795788 3.276338963311659 7.111373073685768 0 0 0
280 1 17.5130217845024 1.4474500934991716 9.014894651626392 0 0 0
311 1 19.583327048040566 3.331708862707755 9.023950764982542 0 0 0
1169 1 14.288768328974598 14.055086345545886 3.33116000859102 0 0 0
156 1 21.263885876393154 1.6721683295959424 4.89926715815918 0 0 0
187 1 22.726492736372002 3.484853809018179 4.956536817460776 0 0 0
282 1 23.115469099342185 1.620648680048097 7.005774587912168 0 0 0
284 1 21.23014162079516 1.5874779249698692 8.973191608248332 0 0 0
313 1 21.21055872056349 3.415466060685767 7.202121156463373 0 0 0
315 1 23.00927418066769 3.1802003366934226 9.06800394345269 0 0 0
503 1 19.335560790344132 10.608180634807562 12.357756005509945 0 0 0
289 1 28.294689878803887 3.5025806121656333 7.167002291349317 -1 0 0
132 1 -0.04596968321874034 1.3681742675475594 5.195912749676685 0 0 0
501 1 17.7649284214513 10.668827607629884 10.525003546383447 0 0 0
317 1 24.877381555397903 3.2245018584560903 7.182661353726578 0 0 0
191 1 26.687224448610912 3.2833859654437783 5.226445913883687 0 0 0
160 1 24.83640564634768 1.9228357235917 5.253078798534653 0 0 0
286 1 26.72482750177879 1.6167199396901208 7.112234274538974 0 0 0
288 1 24.888779396848513 1.5122114354597387 9.034398092853392 0 0 0
319 1 26.689530262146548 3.278525432637317 8.61650128630249 0 0 0
265 1 7.166627956107921 -0.208763742072349 7.134402127100909 0 0 0
168 1 3.4059313996281975 5.176919555998873 5.689164956514842 0 0 0
296 1 2.7822084659351516 5.0013285607133335 8.841092151355735 0 0 0
195 1 1.2232941299063949 6.662112042164588 5.380020898398003 0 0 0
290 1 1.3257996432468615 4.853622383308844 7.090276349036498 0 0 0
322 1 1.3367357622058424 8.650349944640404 6.72984801655381 0 0 0
323 1 1.096610387019325 6.965908838349412 8.758877421740324 0 0 0
328 1 3.194213867546751 9.089657592849314 8.932358123063674 0 0 0
325 1 3.244356501015944 7.079985830958512 7.381827381557244 0 0 0
200 1 3.1597900014542173 8.895713451676771 5.332051367716028 0 0 0
196 1 28.59309741549025 8.790435275264308 5.30600784027109 -1 0 0
292 1 28.405149203217825 5.105676109998361 8.859844868133143 -1 0 0
324 1 28.38768860236592 8.749881826874072 8.585462661002426 -1 0 0
172 1 7.059439205624684 5.2747527268827845 5.301108299610217 0 0 0
199 1 5.003973723933814 7.018907449014206 5.63053251433206 0 0 0
204 1 6.872499619456595 8.675248460096443 5.112088840186355 0 0 0
294 1 5.100309911550082 5.026722120623839 7.436009603296212 0 0 0
300 1 7.033788584137645 5.1188349206171315 8.62720934333356 0 0 0
329 1 6.9572279934092185 6.91906227533901 7.144025869784562 0 0 0
332 1 6.674293372665819 8.828952779820904 8.734265328789355 0 0 0
326 1 5.168952690623818 8.910516659547287 6.952129401298428 0 0 0
327 1 5.080680637906469 6.8787552869548145 8.641654139388752 0 0 0
176 1 10.30792677937789 4.900025508227315 5.013588410657546 0 0 0
304 1 10.374640403465637 5.0380564310344695 8.660925212140935 0 0 0
203 1 8.761710190021782 7.030415753967838 5.116144525904899 0 0 0
208 1 10.460435445464057 8.86968033381944 5.044004419873818 0 0 0
298 1 8.719057752552017 5.1411096075788825 6.8331101852242515 0 0 0
331 1 8.732216138467956 6.898992245555 8.725741315130724 0 0 0
333 1 10.356265627204463 6.725003409714006 7.176488825816195 0 0 0
330 1 8.504516713092098 8.651329083274907 7.194993844506266 0 0 0
336 1 10.489509619976655 8.483635907014778 8.713412978638441 0 0 0
302 1 12.189748004740283 5.146504097670154 7.24657904616885 0 0 0
335 1 12.51628957302585 7.072409966977688 8.675034677199237 0 0 0
334 1 12.164027116756897 8.649077566577322 7.062161009499146 0 0 0
207 1 12.164971530725158 6.858149558732631 5.410859506715651 0 0 0
212 1 13.880123159305208 8.641812274111532 5.119019384355187 0 0 0
180 1 13.93549929221702 5.085024986611171 5.262731334807331 0 0 0
308 1 14.024008021115653 5.055758791679658 8.945027781723821 0 0 0
337 1 14.009869353255434 6.952007693297265 7.03629780504918 0 0 0
340 1 14.051546853843288 8.694858091183994 8.752848716744158 0 0 0
211 1 15.92448940815307 6.967614556511155 5.0657726879839275 0 0 0
338 1 16.159346470866893 8.770670366439502 6.945499582498843 0 0 0
306 1 15.87764883906931 5.316453556382857 7.054456885591576 0 0 0
339 1 15.971484407335334 7.174558636162858 8.627881826290485 0 0 0
310 1 19.334134355585796 4.942075746480712 7.192028674826434 0 0 0
184 1 17.916953514430304 5.421679762305343 5.154014255542545 0 0 0
215 1 19.440962408914196 7.319986809853929 4.946181598682596 0 0 0
312 1 17.649959788560487 5.176974597107121 8.711620124304389 0 0 0
341 1 18.172468030856187 7.078987625173214 6.947693717012987 0 0 0
343 1 19.765384630023632 7.061722327800034 8.813589937035239 0 0 0
344 1 17.82278920979782 8.828457749284585 8.849684179365546 0 0 0
342 1 19.470379276299433 9.13499143408768 7.18218787030687 0 0 0
216 1 17.532850941876376 9.109014365799004 5.28563625490802 0 0 0
188 1 20.959520411876213 4.925023482419395 5.2698776029242556 0 0 0
219 1 23.048847335437152 6.460530046783893 5.260093025105026 0 0 0
314 1 23.006973788714447 4.734261657509479 6.981437403349113 0 0 0
316 1 21.466589706864355 4.892706470999826 9.171636075491586 0 0 0
345 1 21.033361993400078 6.935144514662654 6.629894840476558 0 0 0
347 1 22.92067348352112 6.649240401035503 8.277797614412057 0 0 0
220 1 21.2673112253958 8.826396284502074 5.147742277631983 0 0 0
346 1 23.22937236749229 8.73654716154144 6.805511200511545 0 0 0
348 1 21.72616435181431 9.09663826495467 8.824198617905088 0 0 0
164 1 28.59657938852972 4.8272928560124875 5.143288732116232 -1 0 0
321 1 28.44697871139344 6.975636132320759 7.015956278694298 -1 0 0
192 1 25.084529575746792 4.828535043129229 5.152716392057034 0 0 0
320 1 24.931418834335844 5.292739002221713 8.740670133732634 0 0 0
224 1 24.853047269285007 8.668055906324033 5.034433731530122 0 0 0
349 1 24.868197482721712 6.813123827665812 6.78098973098018 0 0 0
223 1 26.557123098330663 6.940956208294508 5.140581099074086 0 0 0
318 1 26.740170367729412 5.36444334054979 7.0151022227035424 0 0 0
350 1 26.592317134117046 8.715238997668699 6.868822798846907 0 0 0
351 1 26.653001930481224 6.898089647222353 8.470058289133611 0 0 0
352 1 24.91217324382697 8.322738991299486 8.694396994681062 0 0 0
500 1 14.158680445409116 12.577337044916515 12.218763559551542 0 0 0
227 1 1.0978705597716396 10.566308583230875 5.462727508011208 0 0 0
232 1 3.2502012973663263 12.203849059449144 4.9052232923286745 0 0 0
354 1 1.3318436548117398 12.69484823713513 6.8101342560720735 0 0 0
357 1 3.041318596895549 10.811314274843944 6.844820210270047 0 0 0
360 1 3.2469343914028195 12.753231400060255 8.597078164551126 0 0 0
355 1 1.532280649951609 10.69935310653269 8.68072223787717 0 0 0
228 1 28.574607998805924 12.354972765779996 4.922019825316597 -1 0 0
356 1 28.333648425856005 12.403197408819592 8.494795387491427 -1 0 0
495 1 12.44695189995984 10.524408467081793 12.27801381436295 0 0 0
231 1 5.265836571475993 10.459824490172101 5.012575742806134 0 0 0
236 1 6.906244209414682 12.368436637424171 5.161512732831747 0 0 0
358 1 5.030959615039155 12.131027819093147 6.570907203064202 0 0 0
361 1 6.822051863386157 10.496838143221424 6.949964453314786 0 0 0
364 1 6.937937014360059 12.51683608640208 8.547781667715745 0 0 0
359 1 4.907462786345728 10.723121587927126 8.705092981436339 0 0 0
497 1 14.300148147690033 10.516320336653989 10.888409884254742 0 0 0
240 1 10.451088932223975 12.001843196749576 5.36994226030802 0 0 0
235 1 8.456883070423654 10.227359941170565 5.287932454637513 0 0 0
362 1 8.594724873679265 12.352148008353378 6.715080761811288 0 0 0
363 1 8.555234491658952 10.593220778701859 8.891117734152989 0 0 0
365 1 10.418921171529503 10.45061928992322 7.042361705163032 0 0 0
368 1 10.373367015543604 12.232456764783684 9.10396096770453 0 0 0
1283 1 1.3071349816652262 13.99870255949235 8.798312295463106 0 0 0
366 1 12.248154881622757 12.13628306904847 6.980932942698396 0 0 0
367 1 12.217344659891358 10.713392397408601 8.779904378862412 0 0 0
239 1 12.61214410199899 10.541484022940404 5.095991262358141 0 0 0
244 1 14.528713745257436 12.622164036245417 5.349573714061933 0 0 0
369 1 14.079428151111461 10.413955659087856 6.889335660243915 0 0 0
372 1 14.185099622523007 12.33317875225585 8.879082135417887 0 0 0
243 1 15.815761023651442 10.501022195640592 5.0327751815974535 0 0 0
371 1 15.609457431095871 10.639006236769761 8.739569263462625 0 0 0
413 1 25.25446707309721 -0.2318833087979967 10.760577400005774 0 0 0
499 1 15.976771875686032 10.718339753764255 12.429957978372299 0 0 0
1287 1 5.205614370239398 14.079926435404914 8.593715497214092 0 0 0
370 1 16.076673690058655 12.40720381339089 6.973194759850894 0 0 0
375 1 19.629657025053838 10.662744323230156 8.90705632671489 0 0 0
247 1 19.7571090856108 11.114415165437457 5.001501697380203 0 0 0
248 1 17.757414942284868 12.408395400300616 5.003765350837828 0 0 0
373 1 17.89204067127283 10.735738924503393 7.269010503038318 0 0 0
374 1 19.985504860136523 12.457249684861681 7.119924188794493 0 0 0
376 1 17.58479279146148 12.535203062155317 8.730353368041266 0 0 0
601 1 21.025524746599636 7.076360580754995 14.106370451541142 0 0 0
494 1 12.275532413076839 12.157194987924822 10.41697887570488 0 0 0
610 1 1.2483878374369348 12.1826432994028 13.906595073621224 0 0 0
1299 1 15.854608178524499 14.160390431909985 8.763769784631354 0 0 0
251 1 23.06757114330516 10.538914778909787 5.066934587293955 0 0 0
252 1 21.470796211620424 12.718673148962466 5.132155198749431 0 0 0
377 1 21.473951030066374 10.472864397066356 7.019172334661848 0 0 0
378 1 23.195536321319906 12.434144416279336 6.889480142303807 0 0 0
379 1 23.942548077143393 10.567401597731187 8.72789575591207 0 0 0
380 1 21.809516083052273 11.934836736869187 8.888808006113207 0 0 0
546 1 1.494287988261156 5.06011264840637 14.109937755418729 0 0 0
147 1 15.916586756671132 -0.14294199217518155 4.881922370279566 0 0 0
353 1 28.32179582550412 10.531292440268002 6.901779552260384 -1 0 0
256 1 24.987326263467985 12.454661294150426 5.045349897226133 0 0 0
255 1 26.636406654142867 10.809857132559369 5.060597261060413 0 0 0
381 1 25.026794537614613 10.768994596877253 6.648469086266294 0 0 0
382 1 26.964391539652553 12.587200171913599 6.690769465253453 0 0 0
383 1 26.66835959253499 10.732448708655955 8.819750087554363 0 0 0
384 1 24.979839269937976 12.733684386228036 8.437291496765189 0 0 0
1429 1 17.855752529200437 14.162102602143037 10.538634816635085 0 0 0
291 1 1.2102081591633926 3.2020652600229345 9.060687330717826 0 0 0
386 1 1.1927609445062737 1.547793079201132 10.714812017651267 0 0 0
419 1 1.0680146847611205 3.252422096976523 12.66421286268696 0 0 0
392 1 3.4058410394151895 1.5476288255426605 12.679777264958483 0 0 0
421 1 2.8222646984580417 3.412565444217413 10.741887729372356 0 0 0
417 1 -0.28583329540457214 3.5830523563719003 10.810419689075491 0 0 0
277 1 17.562130910998945 -0.21012133886492432 6.894982081291249 0 0 0
1285 1 3.418151027047798 14.104681142614794 6.7304874836606405 0 0 0
390 1 4.771309490448533 1.5022048884376382 10.908518496311252 0 0 0
396 1 6.944568453192336 1.5685093053537014 12.117385771000055 0 0 0
423 1 4.981656051744275 3.3659863355734334 12.271046870683747 0 0 0
425 1 6.78820983447724 3.413949710424066 10.627460129504056 0 0 0
1043 1 15.763667250798457 14.108676764895304 1.42685985389438 0 0 0
74 1 8.800392501610416 8.56484407858278 -0.08448672030437257 0 0 0
1157 1 3.3449987833771515 14.145303336811422 3.1986945820024757 0 0 0
394 1 8.881968366386277 1.7225911882591536 10.631221018362801 0 0 0
400 1 10.648018373150382 1.4532764322021647 12.217765522584246 0 0 0
427 1 9.017727443160705 3.168436218082667 12.255436154375582 0 0 0
429 1 10.690089267580676 3.5039416606989966 10.566561003859432 0 0 0
522 1 8.933321570337597 1.4570095341250933 14.086964333255587 0 0 0
629 1 17.74441897635839 10.746051382129188 14.135544800251864 0 0 0
398 1 12.301192958218447 1.4814724888036663 10.540778445355125 0 0 0
431 1 12.420251115984222 3.1277160384071467 12.316139202398404 0 0 0
404 1 13.915529815595699 1.3384497016174375 12.467581747790714 0 0 0
433 1 14.222013611563778 3.159036422329838 10.559369575861181 0 0 0
435 1 16.014120002773694 3.274711524109312 12.484065529469213 0 0 0
14 1 12.307135092865478 1.2830264742277615 -0.261829050555104 0 0 0
554 1 8.391028172295222 5.021854265610715 14.128188296002007 0 0 0
403 1 15.714281580841787 -0.2907238430907597 12.104768907016952 0 0 0
409 1 21.30931513231087 -0.1934176284603873 10.521068130305844 0 0 0
402 1 15.705097253025048 1.4949784979548542 10.299588391380418 0 0 0
406 1 19.31028475153269 1.5250092245279607 10.647798771654971 0 0 0
408 1 17.425555465546886 1.3080127545691447 12.233115095504814 0 0 0
437 1 17.527177201444005 3.499648831575091 10.695641996600646 0 0 0
439 1 19.27607291401035 3.4768116146173553 12.37937486730371 0 0 0
496 1 10.905130952106429 12.19275484366266 12.36302243010969 0 0 0
97 1 28.284036606193133 10.161589832076732 -0.20907775350389302 -1 0 0
410 1 23.11112109762867 1.6623258158073628 10.726162551191884 0 0 0
412 1 21.119567871063836 1.5379748608919002 12.417740689747744 0 0 0
441 1 21.33095962880318 3.2253523223493348 10.936088707789715 0 0 0
443 1 23.302520476720872 3.35260964031054 12.538502710918028 0 0 0
1029 1 3.332936864097252 14.165177388415414 -0.15933438368455968 0 0 0
388 1 -0.2475836899618784 1.5063738840827359 12.500524574544318 0 0 0
445 1 25.12818372860128 3.175994546842396 10.723853297765844 0 0 0
416 1 25.253674379956237 1.8428153913475818 12.808079375666887 0 0 0
414 1 26.859917189291124 1.7649752102403857 10.69254568026353 0 0 0
447 1 26.848789781192032 3.5866658899694146 12.336876530035365 0 0 0
1159 1 5.057479759532048 13.910002205866503 5.108324341600905 0 0 0
418 1 1.4740263952447363 5.137207924584081 10.735192503455428 0 0 0
450 1 1.2634600155436637 8.6642017160137 10.20928913290288 0 0 0
451 1 1.2589532006314337 6.767684736262391 12.287236318719236 0 0 0
453 1 3.2282513690589623 6.962380411100187 10.333739789975322 0 0 0
456 1 2.9389781678649447 8.846172724710101 12.204978896045246 0 0 0
424 1 3.511778452290607 5.11271142795733 12.26785177917991 0 0 0
449 1 28.410743788376863 6.825409482830019 10.643386153471146 -1 0 0
428 1 6.410927036368307 5.309961154614297 12.302687850666013 0 0 0
422 1 4.788090032902179 5.097104707333099 10.342998656197365 0 0 0
454 1 5.047308494494483 8.890729857777286 10.505613737374807 0 0 0
455 1 4.927647472780572 7.235730722509541 12.227965166450108 0 0 0
457 1 6.85107478882272 7.1989735372760215 10.392878771299914 0 0 0
460 1 6.771652341019612 9.078532755554857 12.144648786670741 0 0 0
1165 1 10.32702121456551 13.797922183787257 3.4825842353132064 0 0 0
458 1 8.753118659377003 8.766858234897168 10.395789088615015 0 0 0
426 1 8.583479776860418 5.065973429127664 11.034373684124576 0 0 0
464 1 10.648811444857962 8.64151121864676 12.312250088844273 0 0 0
432 1 10.86315211864172 4.998785911116124 12.58101512863114 0 0 0
459 1 8.956198830842483 6.943839569148546 12.326197252840558 0 0 0
461 1 10.609796979936366 6.670300834138484 10.483464893603658 0 0 0
1181 1 25.171755268409555 14.001190620129012 3.167470520826611 0 0 0
23 1 19.853855998239098 -0.21621553784170283 1.6023990976383964 0 0 0
1031 1 5.178168873566602 14.104553798759877 1.6153988673461375 0 0 0
393 1 6.838901187121406 -0.22432963574421905 10.512337899666107 0 0 0
463 1 12.341190816573077 6.778299186525938 12.395492472275269 0 0 0
462 1 12.484007203749837 8.683705125760753 10.590367274379881 0 0 0
430 1 12.346665466789917 5.165872259329608 10.720424957296098 0 0 0
468 1 14.093808766636517 8.82537244021912 12.578976747313146 0 0 0
436 1 14.159228633504707 4.859191185448747 12.432426989884283 0 0 0
465 1 14.153337375515433 6.865527662242434 10.598669831919532 0 0 0
466 1 15.839545988986702 8.669108521040023 10.450513713477367 0 0 0
467 1 15.613653925132045 6.937855150936515 12.374311709760285 0 0 0
434 1 15.868103045995133 5.186946477819632 10.596511225239766 0 0 0
143 1 12.607655903333784 -0.17681011891511705 4.984428156586809 0 0 0
472 1 17.721253583672095 8.607960006536464 12.112591122548467 0 0 0
469 1 17.630624682262763 6.892850013634747 10.470045181790875 0 0 0
470 1 19.79943237154491 9.049311499230742 10.517429177269422 0 0 0
438 1 19.54870878758461 5.235762855304729 10.577554198180101 0 0 0
471 1 19.603546579145387 6.752113259345425 12.253281373099984 0 0 0
440 1 17.583710352908994 5.31672107405461 12.333893729884252 0 0 0
1037 1 10.630682638859184 13.919015777962224 -0.29151361510334584 0 0 0