LAMMPS data file via write_data, version 29 Oct 2020, timestep = 300000

2048 atoms
1 atom types

-0.07598995438656075 28.42798995438692 xlo xhi
-0.07598995438656075 28.42798995438692 ylo yhi
-0.07598995438656075 28.42798995438692 zlo zhi

Masses

1 58.933

Atoms # atomic

3 1 1.6632969656158862 -0.03586730709674746 1.7178492443598845 0 0 0
4 1 28.370836611984814 1.80024606145524 1.6733197366366843 -1 0 0
8 1 3.5502861806380124 1.6943071458579422 1.6734073843649924 0 0 0
397 1 10.573864772423512 -0.05086273081588999 10.502067571429443 0 0 0
35 1 1.7090812033894403 3.440332800973804 1.7392673521931925 0 0 0
129 1 28.366198092474487 0.0038798108769887846 3.3572953236769267 -1 0 0
130 1 1.6766122382570472 1.7656943898204365 3.53327895924232 0 0 0
133 1 3.4217278879441015 0.027149281087932076 3.5465106669946516 0 0 0
161 1 28.400026077473083 3.5051215395490383 3.5719475587039002 -1 0 0
165 1 3.5751534710740858 3.4340834269642793 3.485105289810272 0 0 0
7 1 5.31577487170057 0.017738204133301502 1.7395416036276656 0 0 0
12 1 7.0806133711564145 1.7055483106362548 1.7628088027205953 0 0 0
39 1 5.356315037703525 3.455604404255609 1.7316297001046013 0 0 0
134 1 5.309191292335059 1.636995370743072 3.5952156723797883 0 0 0
169 1 7.170981040564829 3.549772324157462 3.5639102294931995 0 0 0
16 1 10.64237507118954 1.5992606932323021 1.7168248601209184 0 0 0
43 1 8.914898547474355 3.3727178602520076 1.7289520264260825 0 0 0
138 1 8.901944287525245 1.6601807486549587 3.5975073894681255 0 0 0
173 1 10.593054624084159 3.6313463275296267 3.4672940807010546 0 0 0
18 1 15.909510505262832 1.6516078679092192 -0.059873300311247865 0 0 0
638 1 26.625590415991873 12.482932249291746 14.116407246235553 0 0 0
20 1 14.175369249179193 1.7301126463791705 1.7396101978240912 0 0 0
47 1 12.338217429796279 3.426837023215832 1.7317034689968855 0 0 0
51 1 16.060572841607115 3.561576733063949 1.6018436853726215 0 0 0
142 1 12.434412107499043 1.8207218179710996 3.4857719404965 0 0 0
145 1 14.165147198687189 -0.04058196896681012 3.603087051315911 0 0 0
146 1 15.854301394918929 1.8423057411483956 3.563129370338714 0 0 0
177 1 14.227059464134566 3.5612797395686973 3.425250357199956 0 0 0
24 1 17.547807632797063 1.6811807330738757 1.8156843474982 0 0 0
393 1 6.923086804285835 -0.04896439401171193 10.649419419774242 0 0 0
55 1 19.43260029712699 3.5825395781474274 1.771464512471414 0 0 0
150 1 19.43874429909841 1.728609173512721 3.4807651431152324 0 0 0
181 1 17.65543497303213 3.5055570547988597 3.4682713525271884 0 0 0
26 1 23.01340871170114 1.6394020666748237 0.023785198978812427 0 0 0
28 1 21.23851712997815 1.6482713393847246 1.7758529517760708 0 0 0
57 1 21.335721176522497 3.4540645907447294 -0.0752047993394391 0 0 0
59 1 23.037311565281794 3.4752904368435393 1.7500544375532956 0 0 0
154 1 23.044568292671855 1.839527928333655 3.396749471292741 0 0 0
185 1 21.33409660387546 3.5853882801188397 3.5263167023946385 0 0 0
1565 1 24.879098746743768 14.143214069467504 14.100350389178214 0 0 0
1437 1 24.87292825562256 14.142324184766977 10.67710007590532 0 0 0
32 1 24.824118734328447 1.751794089902466 1.7991929028066806 0 0 0
1419 1 8.896838549341435 14.17495385970554 12.426007673613922 0 0 0
63 1 26.57516800030579 3.537424183178827 1.7228051258685013 0 0 0
157 1 24.953799551102296 0.02240954464986271 3.4511406159005666 0 0 0
158 1 26.6128253351739 1.6688353541972407 3.6188575656701274 0 0 0
189 1 24.9842181777236 3.4677466101352934 3.703507212155408 0 0 0
36 1 28.3539806859802 5.255050886910648 1.7776495088514028 -1 0 0
40 1 3.534238164165558 5.198742437483333 1.7966936641786437 0 0 0
66 1 1.6370579840392534 8.871108166229263 0.0299487234794759 0 0 0
67 1 1.8134904383969255 6.950481313464208 1.6643348585281896 0 0 0
68 1 0.08093566505992464 8.79108178475736 1.8488383304435858 0 0 0
72 1 3.5397726387150503 8.774176424527015 1.6829180113122295 0 0 0
162 1 1.7183459951847135 5.197418947730608 3.5473125109504933 0 0 0
193 1 -0.019991449079535477 7.029463781637951 3.5599950247742242 0 0 0
194 1 1.7979860983754186 8.782384310006586 3.50649290478987 0 0 0
197 1 3.5527936623458434 7.031619311526998 3.4818748457929947 0 0 0
44 1 7.107838441182575 5.188547142436222 1.749295506608753 0 0 0
1545 1 7.039969688967208 14.109858942229128 14.078563072953445 0 0 0
71 1 5.357007988471569 6.965737302376897 1.729828273368261 0 0 0
1417 1 6.9969619023206535 14.143308172580749 10.705068125368411 0 0 0
76 1 7.031100021208729 8.762957988922148 1.7703867037597512 0 0 0
166 1 5.2093781990097305 5.21204133254774 3.53155007576285 0 0 0
198 1 5.376616601058966 8.791634808276404 3.523980033438405 0 0 0
201 1 7.010795036338848 6.940372380302773 3.560381232029155 0 0 0
279 1 19.663739343255564 -0.0439888486813409 8.81027518914591 0 0 0
48 1 10.495573940586644 5.2543638674163 1.6419529791601304 0 0 0
75 1 8.774312066569493 7.006091983709539 1.7146327117971008 0 0 0
80 1 10.746014792132835 8.835957729164171 1.6668430007241737 0 0 0
170 1 8.792046835133501 5.22906422269715 3.4323095276111633 0 0 0
202 1 8.874915674212993 8.863839742711395 3.4499971290679627 0 0 0
205 1 10.59418966940096 6.977044105709807 3.4655803786124117 0 0 0
52 1 14.128324356132385 5.2092973025742255 1.5744555245789023 0 0 0
78 1 12.39829731917297 8.814995297117948 0.06071075252871033 0 0 0
79 1 12.392715294960206 6.941318877902306 1.7191941923933045 0 0 0
83 1 15.957052011140846 6.851016609377472 1.6826152605985583 0 0 0
84 1 14.206265182096551 8.815874991210501 1.746771527423537 0 0 0
174 1 12.506446822136436 5.235396733595842 3.4174225802072256 0 0 0
178 1 15.899033014088849 5.333145015710939 3.438094809962586 0 0 0
206 1 12.378343256690968 8.755692367558634 3.583485907589535 0 0 0
209 1 14.124646513315328 7.056194770717856 3.3683491834548756 0 0 0
210 1 15.96828638242907 8.78867634353062 3.4614903314715892 0 0 0
56 1 17.71641790056884 5.349925915613595 1.679658552517133 0 0 0
273 1 14.128718957492506 0.024857341171593106 7.062285620747795 0 0 0
87 1 19.489871032318362 7.147340072960702 1.7195626187545876 0 0 0
88 1 17.69052772446518 8.793537871292033 1.6646208027489056 0 0 0
182 1 19.60335849461665 5.36073437263005 3.4466176264605184 0 0 0
213 1 17.734666428139526 6.966929083754752 3.5369085823468014 0 0 0
214 1 19.447399590303682 8.925092859357736 3.494447423079252 0 0 0
58 1 22.997472532199698 5.307077563375607 -0.04693627015691104 0 0 0
60 1 21.256307546068207 5.246570892464125 1.7500787548094856 0 0 0
91 1 23.078438759355908 7.113768450930719 1.7381892643870163 0 0 0
92 1 21.276308959423186 8.844653008569914 1.6471151613579629 0 0 0
186 1 23.148904635414933 5.356664924911837 3.428145704445206 0 0 0
217 1 21.24478285082337 7.042771573038394 3.5145871459366576 0 0 0
218 1 23.097582591996325 8.942185860975375 3.4813157284571936 0 0 0
64 1 24.72629046975448 5.1184987523465955 1.6520145483162332 0 0 0
93 1 24.950107447785992 7.099583068489946 0.039868982943231546 0 0 0
94 1 26.582316785176 8.884969044090097 -0.022267368796942806 0 0 0
95 1 26.746194644291556 7.026785777626847 1.7815178814375385 0 0 0
96 1 24.90413461626531 8.816852060145322 1.791431366047451 0 0 0
190 1 26.58776665633429 5.163208738921242 3.5154278841598514 0 0 0
221 1 24.91142013870058 7.011647342269452 3.483216031759683 0 0 0
222 1 26.778928934857316 8.789067098675128 3.5209442741121757 0 0 0
98 1 1.7864309937181224 12.342364928568651 -0.0533885362302325 0 0 0
99 1 1.8158118215915842 10.559214608497404 1.8554194283072138 0 0 0
100 1 -0.03403533374003755 12.291404940772866 1.6525406507677998 0 0 0
104 1 3.57521523176148 12.3832545255946 1.6610665268668385 0 0 0
225 1 -0.032976865303309934 10.567770451331173 3.5269183634631127 0 0 0
226 1 1.6492058911876741 12.4671616631946 3.415189741572313 0 0 0
229 1 3.687943091018251 10.578174764565887 3.531870935923808 0 0 0
1027 1 1.7774194819288347 14.096631153613437 1.6997858937213721 0 0 0
275 1 15.844312929123587 -0.07224082594823145 8.784941937461616 0 0 0
1153 1 28.33199555342505 14.120409541046376 3.4330730757218886 -1 0 0
1157 1 3.494642688549811 14.152487911696289 3.383496426827005 0 0 0
103 1 5.278485355593529 10.506912154027146 1.633033898011741 0 0 0
407 1 19.33062849663219 -0.047076953842243086 12.348668436136604 0 0 0
108 1 7.056941785752737 12.223184920277102 1.717866721781392 0 0 0
230 1 5.320108152085311 12.362433677381285 3.5308976966971475 0 0 0
233 1 7.097661443608285 10.681858097667467 3.547488937142085 0 0 0
405 1 17.726464697001386 -0.03530996767403494 10.510583089933752 0 0 0
106 1 8.693116525392876 12.292200870393842 -0.03062373251686118 0 0 0
107 1 8.814133416178096 10.50684989286593 1.6296406269053776 0 0 0
267 1 8.69688548833053 -0.0490347411237515 8.951602030556964 0 0 0
112 1 10.513628457746226 12.39002110711931 1.695002684520107 0 0 0
234 1 8.857763207943815 12.330763232717361 3.5251715960218197 0 0 0
237 1 10.645241199673261 10.60646989166897 3.4762092437579746 0 0 0
1035 1 8.873498180273293 14.140954379514476 1.8380120141960423 0 0 0
1165 1 10.700825484924001 14.16423170777451 3.5853899932541036 0 0 0
131 1 1.6510317363426346 -0.06746287793001926 5.327615499732851 0 0 0
111 1 12.497266898750254 10.63755069541461 1.7122790821705345 0 0 0
114 1 15.963640948377286 12.344099909911684 -0.056622261018360306 0 0 0
115 1 15.990393224707766 10.610223375984841 1.6733852258032738 0 0 0
116 1 14.06216235088147 12.361026723796 1.6033811002133462 0 0 0
238 1 12.502298137455286 12.426653084181995 3.4700132220967657 0 0 0
241 1 14.156299381730605 10.535077870122688 3.4815798481273847 0 0 0
242 1 15.824894874448487 12.4617620142291 3.5201352911778 0 0 0
1303 1 19.421882516376698 14.115964665420428 8.904986708059884 0 0 0
119 1 19.499500799577206 10.583867781328097 1.6875195775294909 0 0 0
120 1 17.702480045843743 12.300395830164652 1.6084777416953577 0 0 0
245 1 17.75625403014752 10.597965227533678 3.5025852333267835 0 0 0
246 1 19.629857072888406 12.28033513655468 3.476780361717536 0 0 0
121 1 21.163893186910276 10.605954013331441 -0.037399788705050376 0 0 0
1289 1 7.15625907375061 14.033830246695882 7.081183585289687 0 0 0
123 1 23.128904369790625 10.626374010664197 1.6512741734752838 0 0 0
124 1 21.287099866564315 12.287868967103094 1.701476313476808 0 0 0
249 1 21.373057768357942 10.672007984281255 3.4107147026740274 0 0 0
250 1 23.060745794934444 12.41051718308597 3.512696369863611 0 0 0
1177 1 21.349763583729608 14.170340551608238 3.346883564330408 0 0 0
97 1 -0.004925741326072597 10.684621838744116 -0.07295926108375776 0 0 0
481 1 28.350200149770142 10.529023558421224 10.604333466276927 -1 0 0
1055 1 26.509918954077584 14.137843714675554 1.712234497422606 0 0 0
484 1 28.343780219119434 12.398272660679103 12.391591523707545 -1 0 0
31 1 26.63382644993306 0.03699491625414808 1.5804126714994506 0 0 0
127 1 26.77551319495124 10.596215862172619 1.7197237054508212 0 0 0
128 1 24.863111331377098 12.396253471844236 1.8298137740358125 0 0 0
253 1 24.838342304534876 10.652397961843896 3.47222531387394 0 0 0
254 1 26.47755560654071 12.360584202817993 3.5757002977858336 0 0 0
136 1 3.425185638915964 1.6740254058812942 5.3787767632211265 0 0 0
163 1 1.6783042530658503 3.4404882144110025 5.294361797745449 0 0 0
258 1 1.6801306101633586 1.631347668313859 7.127176879833828 0 0 0
259 1 1.5969177242990045 -0.039329146619065565 8.91366359249514 0 0 0
260 1 -0.05679801958772667 1.732491008548609 8.807061242055392 0 0 0
264 1 3.543986981231395 1.6771437949349854 8.71668246570009 0 0 0
291 1 1.7452433272544885 3.5323628349697755 8.79933912549406 0 0 0
293 1 3.5344818784710044 3.4336516655316194 6.968562217571274 0 0 0
140 1 7.020193826504648 1.7868226415788546 5.257069161583733 0 0 0
167 1 5.240057564162718 3.4438515982584 5.208170148731308 0 0 0
262 1 5.220225684501364 1.5402957850849752 7.121348988889948 0 0 0
509 1 24.789667269060384 10.558963556604539 10.5983096730335 0 0 0
268 1 6.9533139626880605 1.6415186171115455 8.723433166099834 0 0 0
295 1 5.22050671852773 3.45033054053063 8.865848116617864 0 0 0
297 1 6.954988242520496 3.4835825802401774 7.062884674439421 0 0 0
144 1 10.631744346488754 1.746562021702425 5.188464132050828 0 0 0
171 1 8.772298121956718 3.526748752760171 5.3525235931972235 0 0 0
266 1 8.788881659384645 1.6366282628751136 7.060146962595207 0 0 0
272 1 10.605821666278437 1.7823997217782137 8.810573537725654 0 0 0
299 1 8.6771644944368 3.48649762983433 8.909467819644552 0 0 0
301 1 10.55252808891501 3.490723381240826 7.060984680619334 0 0 0
147 1 15.936021800023923 -0.06358943883063337 5.190641484811029 0 0 0
148 1 14.19561109514205 1.7155706939587345 5.295627521076582 0 0 0
175 1 12.300716064442964 3.548278371365594 5.3478995136560625 0 0 0
179 1 16.05139656118266 3.6521551719851573 5.253195423431299 0 0 0
270 1 12.354607656149776 1.7222801833447687 7.006313651139072 0 0 0
274 1 16.014330338397347 1.7510599012832677 7.104401962280844 0 0 0
276 1 14.011738858858584 1.6890654122909912 8.9588972825221 0 0 0
303 1 12.371449568708739 3.4798775148492496 8.909230503537769 0 0 0
305 1 14.161727012040119 3.388584948999081 7.0675960961387725 0 0 0
307 1 15.956694522100214 3.6476726517537927 8.848431791029464 0 0 0
152 1 17.637326971431108 1.7306777659539179 5.323744413944111 0 0 0
183 1 19.588064224850886 3.5075869433334277 5.224968876931725 0 0 0
510 1 26.702402573634163 12.345299443922771 10.625987581436096 0 0 0
278 1 19.441636490491476 1.765764085091478 7.029504703498396 0 0 0
280 1 17.704061111218408 1.7340207012114153 8.675344194629442 0 0 0
309 1 17.763170764998783 3.5659598443752256 7.014550198725562 0 0 0
311 1 19.55430363104824 3.5357879066451257 8.758594624503283 0 0 0
155 1 23.049164999268147 0.11788667686367188 5.232169680703901 0 0 0
156 1 21.238645727926333 1.7734919166982217 5.29336339411202 0 0 0
187 1 23.097229246742923 3.57761029729687 5.2727914875937465 0 0 0
281 1 21.15502059462676 0.006207999386817514 6.995810296040106 0 0 0
282 1 23.09861609235808 1.6871018906383688 7.087408678813394 0 0 0
283 1 22.92879124733155 -0.01718009636996709 8.834897879970178 0 0 0
284 1 21.269659363555643 1.818932551519571 8.76926111701014 0 0 0
313 1 21.316115899886128 3.5035936735317237 7.06877401464962 0 0 0
315 1 23.077637256051585 3.430724501279573 8.752445981303369 0 0 0
132 1 28.41949147701216 1.742953997371063 5.272013981960911 -1 0 0
257 1 28.35599845393471 0.0016779525396814626 6.974167836055626 -1 0 0
289 1 0.03415551049712917 3.5359020061878255 7.076488710047527 0 0 0
511 1 26.46895101553682 10.588180567584983 12.37083412421821 0 0 0
160 1 24.84942774446541 1.6526017951125425 5.249890444892522 0 0 0
191 1 26.665483941827123 3.474059757954339 5.485282464892308 0 0 0
512 1 24.78335935345445 12.336168292651935 12.361004067901515 0 0 0
286 1 26.599337594013118 1.7302803672783744 7.099026345891094 0 0 0
634 1 23.026006081918787 12.40659033739208 14.114245020951882 0 0 0
288 1 24.891654250773495 1.6658743408803232 8.791537298455253 0 0 0
317 1 24.840967048916127 3.5767548041350334 7.059827309366274 0 0 0
319 1 26.63698080374686 3.6367645284261347 8.785728654120012 0 0 0
164 1 -0.024324710842090223 5.2693449614228545 5.351256308611381 0 0 0
168 1 3.5010049247403474 5.198132487899278 5.280549379869689 0 0 0
195 1 1.8433843998159511 6.983687918513291 5.27087255294616 0 0 0
196 1 0.08439809755996738 8.732320167019992 5.230299635750452 0 0 0
200 1 3.446658864945758 8.783308507542346 5.321256132445256 0 0 0
290 1 1.7687566104505992 5.199009518308739 6.970499230868313 0 0 0
296 1 3.573806926798356 5.215422172075216 8.785556708163975 0 0 0
321 1 0.01216009868777379 7.017680373328081 7.056711565284385 0 0 0
322 1 1.7601915180323195 8.86463244161294 7.058936059772863 0 0 0
323 1 1.84036317484754 7.075977319469057 8.781746696848776 0 0 0
324 1 -0.014276759050424102 8.857221744419487 8.766043640068219 0 0 0
325 1 3.5007062501970365 7.113415080525851 7.072671526787231 0 0 0
328 1 3.4652505286238213 8.965886583052358 8.822130292860415 0 0 0
172 1 6.973550557558461 5.2232200002188005 5.28129546002018 0 0 0
199 1 5.285371747119377 6.946696726017481 5.322024105471703 0 0 0
204 1 7.084285268178974 8.861206222795103 5.226139361949353 0 0 0
294 1 5.132966976520915 5.160895126889883 6.992684853652113 0 0 0
300 1 7.018666264622738 5.350426690478244 8.883446099675416 0 0 0
326 1 5.395980804009221 8.757845786522662 6.940151286508147 0 0 0
327 1 5.205529312531632 7.0635979546705965 8.76211132735038 0 0 0
329 1 7.004791087621023 7.011789680470338 7.0739270880279 0 0 0
332 1 6.9592915558158355 8.860593459552767 8.822418501389505 0 0 0
176 1 10.603313232235408 5.301287716614373 5.3448380075162 0 0 0
203 1 8.738273929334346 7.0499102045761575 5.309040942295032 0 0 0
208 1 10.536267385285985 8.884100680327924 5.207536344798471 0 0 0
298 1 8.835541279883673 5.378955681569489 7.053829765013439 0 0 0
304 1 10.567083290921508 5.2151772078821255 8.841139136276807 0 0 0
330 1 8.771336297744902 8.928531613790577 7.109147536614954 0 0 0
331 1 8.797336020513178 7.046718380840353 8.81298658970382 0 0 0
333 1 10.507497623985362 7.132710442840047 7.13445602456294 0 0 0
336 1 10.657250444000294 8.843674203164419 8.8788155143864 0 0 0
180 1 14.127471100907291 5.258858572747152 5.34176152850413 0 0 0
207 1 12.344205494989803 6.929342034577851 5.25953067945458 0 0 0
211 1 15.923008102371396 7.073773044480529 5.219929298877705 0 0 0
212 1 14.153045562017365 8.775651383534811 5.249954597326007 0 0 0
302 1 12.380672368466453 5.232000116299634 7.089382859229687 0 0 0
306 1 15.868132722414947 5.3602957508727025 7.08333566538619 0 0 0
308 1 14.14867375861733 5.33129029689773 8.860282166053507 0 0 0
334 1 12.287524712658437 8.821427229292002 7.065565417474873 0 0 0
335 1 12.160684127237555 6.9901987030021004 8.870817404290925 0 0 0
337 1 14.153682072815126 7.100411105179786 7.047154442529436 0 0 0
338 1 16.01349660601283 8.889525860209924 7.008906533112799 0 0 0
339 1 16.039941067439653 7.092237820876906 8.817964441831275 0 0 0
340 1 14.129924675291077 8.65931123783617 8.772615041633502 0 0 0
184 1 17.79286923018767 5.281387109024494 5.184891077011603 0 0 0
215 1 19.544877525875687 7.062892512053029 5.306989995240187 0 0 0
216 1 17.7235381938146 8.80077460068206 5.221432632378661 0 0 0
310 1 19.520105026539785 5.244623151710273 7.107387850398095 0 0 0
312 1 17.725562175500272 5.25590066259138 8.86971517877627 0 0 0
341 1 17.733159969129726 7.074996676034985 7.035524123071147 0 0 0
342 1 19.517850819398074 8.827460873076904 7.151745978287751 0 0 0
343 1 19.533229716408478 6.99040097932518 8.767609059308173 0 0 0
344 1 17.70920238212711 8.829585341644941 8.760910239854985 0 0 0
188 1 21.409724967660562 5.341387580861113 5.323573322927395 0 0 0
219 1 23.119358092004326 7.149657379733427 5.179512778607206 0 0 0
220 1 21.214423894886917 8.819345475620493 5.258145810489144 0 0 0
314 1 23.172354961038618 5.49298416573615 6.97661127304001 0 0 0
316 1 21.42998164669779 5.219595326624659 8.851983823511198 0 0 0
345 1 21.395599937762558 7.094460677580291 7.143654772937785 0 0 0
346 1 23.056204674500105 8.918186390799686 6.974667486285287 0 0 0
347 1 23.173049370120214 7.192880382344387 8.883940979111035 0 0 0
348 1 21.199898205238945 8.864337778661087 8.921971032214886 0 0 0
292 1 0.011842406796333194 5.259064034299457 8.917357218777092 0 0 0
192 1 24.81287595343415 5.305246816749686 5.281648464625308 0 0 0
223 1 26.736395872829807 7.0561542171881015 5.335728602547282 0 0 0
224 1 24.87422316460353 8.885949644237053 5.279075113557525 0 0 0
318 1 26.7849232901478 5.392219374859095 7.0644047372502765 0 0 0
320 1 24.867458022987847 5.342002639124128 8.842044512887906 0 0 0
349 1 24.929654068668707 7.214756332574546 7.083677199249354 0 0 0
350 1 26.70844400427947 8.97227853059632 6.960379491529063 0 0 0
351 1 26.66276619190339 7.107051726315898 8.778358199074441 0 0 0
352 1 24.86744992018671 8.927424140215889 8.817473226920383 0 0 0
409 1 21.25009184204702 -0.0460495760116757 10.65790874116217 0 0 0
1283 1 1.6356092970541485 14.13712534932225 8.782883554705004 0 0 0
1281 1 28.267564980200056 14.080420156256237 7.034291802811034 -1 0 0
505 1 21.253942961265594 10.614692766494406 10.584589546602906 0 0 0
227 1 1.6755856455831912 10.660908297659107 5.329047192968539 0 0 0
228 1 -0.06847381572956947 12.352601414207932 5.200617771776862 0 0 0
232 1 3.5909629612146965 12.396852566242945 5.319260691516324 0 0 0
353 1 28.37272983672466 10.673090506476592 6.9840216245944795 -1 0 0
354 1 1.6737110291774056 12.446946390507081 6.915549357515879 0 0 0
355 1 1.714029798456567 10.698400147953024 8.77941263874401 0 0 0
357 1 3.5703299480896162 10.710541521433617 7.003115733744992 0 0 0
360 1 3.4419945242844148 12.372579453427901 8.907510652181303 0 0 0
1287 1 5.260654541872058 14.091008070352025 8.887364661374077 0 0 0
506 1 23.028090388407318 12.297285949063683 10.56836113179657 0 0 0
231 1 5.286161763219478 10.720292842402175 5.28712752320027 0 0 0
236 1 7.066589158772661 12.46668479660105 5.30591521569741 0 0 0
358 1 5.291151055442112 12.551270194088547 7.1033115164552845 0 0 0
359 1 5.253386448911781 10.676284060889644 8.801182001936162 0 0 0
361 1 6.989054077911253 10.614822794108665 6.991761374925631 0 0 0
364 1 7.042946354224233 12.416434145183546 8.894986992550193 0 0 0
507 1 23.032678341938823 10.488858312658042 12.4267998456437 0 0 0
508 1 21.264036820872178 12.299347616045402 12.413727251524652 0 0 0
1163 1 8.91477234345024 14.151410789288994 5.280445103587893 0 0 0
235 1 8.734397245378874 10.651394651036933 5.300628447404775 0 0 0
240 1 10.600672595515155 12.39346845248189 5.29575864524344 0 0 0
362 1 8.914463118247028 12.323939332440586 7.160802101510281 0 0 0
363 1 8.750519436519026 10.595526622179149 8.846942915587551 0 0 0
365 1 10.56554838913866 10.737720820387876 7.083016134880883 0 0 0
368 1 10.7321328918114 12.433152874937177 8.810169711367934 0 0 0
501 1 17.774562787414226 10.528372011287829 10.625043485215185 0 0 0
502 1 19.445380063487512 12.318018016385627 10.68119693455218 0 0 0
503 1 19.475165087538326 10.458200113032072 12.485700291095062 0 0 0
504 1 17.72506057115355 12.25495291282547 12.405603506286488 0 0 0
1429 1 17.685089503639876 14.17183531693898 10.581087230365096 0 0 0
239 1 12.407585932215841 10.615127311172735 5.255462616516626 0 0 0
243 1 15.930408869212268 10.608888925283171 5.2171000490631325 0 0 0
244 1 14.140261546086437 12.36686532609252 5.350358478845881 0 0 0
366 1 12.564339240230613 12.368288466612915 7.1927377268082715 0 0 0
367 1 12.50508863931974 10.671584082404605 8.866500450362901 0 0 0
369 1 14.232144018549393 10.512052323538128 7.0439385944928015 0 0 0
370 1 15.946893830927532 12.42730071231013 7.109121789184883 0 0 0
371 1 15.939173824977672 10.57024919695817 8.857486399856512 0 0 0
372 1 14.230113514120985 12.46584614143496 8.903596085798991 0 0 0
1301 1 17.74494957825236 14.147920964908582 6.97721010897045 0 0 0
1175 1 19.480258560445797 14.099628737916 5.157037470669007 0 0 0
247 1 19.52117317643382 10.589713396875172 5.284813583980145 0 0 0
248 1 17.756731594646237 12.397436040436965 5.21355734156748 0 0 0
373 1 17.706372333461605 10.682632932265507 7.0151870064712165 0 0 0
374 1 19.55575989554783 12.40615870860422 7.036156700400763 0 0 0
375 1 19.468206036573346 10.677944733598153 8.882949581626923 0 0 0
376 1 17.689514344861344 12.476603952859813 8.780200528695994 0 0 0
1307 1 23.135095416405644 14.151528131264191 8.942903183368495 0 0 0
1305 1 21.393586261909608 14.172408857240255 7.0262610916086246 0 0 0
25 1 21.317165947775464 -0.05573420261384143 -0.03998202855724598 0 0 0
251 1 23.01701075124642 10.615199146681816 5.2330175595595945 0 0 0
252 1 21.29651223946592 12.401429743483963 5.363821669007066 0 0 0
377 1 21.167077435484252 10.586242050699356 7.073544845693407 0 0 0
378 1 23.054226241547376 12.402613142969237 7.086191706479908 0 0 0
379 1 22.92189483973254 10.593173103661169 8.758856786483356 0 0 0
380 1 21.25963948827994 12.367329913102546 8.892278763601885 0 0 0
1311 1 26.621999781318127 14.063320265608672 8.837868927577615 0 0 0
494 1 12.405742841528017 12.480434167861445 10.543616601025349 0 0 0
495 1 12.464134958964511 10.521704242802143 12.381043755202889 0 0 0
356 1 -0.06161073467776035 12.461692331887383 8.839525909837656 0 0 0
255 1 26.675109771428616 10.569758208298078 5.154343993727019 0 0 0
256 1 24.71185237612148 12.457320738681434 5.257998099134245 0 0 0
381 1 24.80044974571942 10.640338937501971 6.944303693197665 0 0 0
382 1 26.48638218963992 12.484281872109923 6.9985574806703355 0 0 0
383 1 26.70926406432071 10.743456251277495 8.828865710309982 0 0 0
384 1 24.752738461604693 12.385040877995362 8.831277723418928 0 0 0
386 1 1.7105310444835071 1.7159215625905022 10.539570903167016 0 0 0
497 1 14.139868971374646 10.453592744385872 10.51984413170754 0 0 0
388 1 0.01707599064708272 1.6828257010640923 12.390107787339831 0 0 0
389 1 3.509235481434276 -0.05460659731776266 10.41989647577464 0 0 0
392 1 3.502841434404757 1.733005627170471 12.392069138458668 0 0 0
419 1 1.7421108782690495 3.5469623361960547 12.396373481263259 0 0 0
421 1 3.554974725497578 3.4484494505572516 10.623159167027111 0 0 0
513 1 0.0018314836464770612 0.10051189838063873 14.003076933175029 0 0 0
1051 1 22.949801469475766 14.07161870335009 1.6956819586206668 0 0 0
390 1 5.263997996990523 1.677083215166214 10.627806927124405 0 0 0
498 1 16.088316240206986 12.224432571274342 10.671643580315601 0 0 0
396 1 7.021590035286749 1.752270033389225 12.393971307478912 0 0 0
423 1 5.204623265970171 3.4470843177215116 12.416734468202124 0 0 0
425 1 7.012628949972466 3.437560364038483 10.665016653399007 0 0 0
394 1 8.822888044632865 1.7531116375118978 10.679393962668454 0 0 0
395 1 8.829140324062266 -0.032977414021230035 12.451242502645993 0 0 0
400 1 10.546173864557002 1.6853645183683896 12.500460497560072 0 0 0
427 1 8.819888307947956 3.6175849942661 12.34264490758885 0 0 0
429 1 10.622568539902037 3.46578696602116 10.67610690765272 0 0 0
557 1 10.713286906555586 3.519068881873921 14.158402388668199 0 0 0
398 1 12.341983539878179 1.6308126232078137 10.69825553716435 0 0 0
499 1 15.988578110054224 10.498067401501558 12.41066335825699 0 0 0
500 1 14.265904380555243 12.315590802379726 12.469338489663562 0 0 0
402 1 16.01468247509109 1.726296681184736 10.556373028063772 0 0 0
1423 1 12.468266824756004 14.132936414221307 12.391652465698657 0 0 0
404 1 14.280442489752192 1.6145271930329173 12.325439508481056 0 0 0
431 1 12.432118994858731 3.4081250886771675 12.355960494990752 0 0 0
433 1 14.164108972517294 3.4987662489955125 10.668492816640057 0 0 0
435 1 15.97568896532935 3.392754484511195 12.374465732451073 0 0 0
1173 1 17.83170751362154 13.977293380543065 3.4268324821888854 0 0 0
561 1 14.139628837131145 3.3674174490291104 14.004690747051685 0 0 0
406 1 19.510914673691367 1.8055610851196489 10.462695681172924 0 0 0
408 1 17.61774864372142 1.6151503584244398 12.448876657493566 0 0 0
437 1 17.775024426375673 3.5082137334471843 10.63480184006835 0 0 0
439 1 19.44059312730067 3.4473975053281145 12.417565482476498 0 0 0
410 1 22.983484897667932 1.7515620093948256 10.61821653882915 0 0 0
411 1 23.059658903507923 -0.030129146925622338 12.35167224870558 0 0 0
412 1 21.183555095896818 1.7198698732820217 12.456484725625197 0 0 0
441 1 21.42853659864743 3.481412031718661 10.62970967450423 0 0 0
443 1 23.120572411153862 3.435070590567645 12.351972284580715 0 0 0
538 1 23.14947595577271 1.7090915838565441 14.147599292429668 0 0 0
1047 1 19.45923600152523 14.058734618440928 1.64255318500746 0 0 0
417 1 -0.04566177835322094 3.4217200085545176 10.638907942424042 0 0 0
413 1 24.85411550922605 0.022105560224132917 10.507106447327526 0 0 0
414 1 26.62152964199764 1.7527640812849938 10.577208436792722 0 0 0
415 1 26.63278553704331 -0.007042257776013167 12.299711317575444 0 0 0
416 1 24.841713848721753 1.7340688347717599 12.320919117240132 0 0 0
445 1 24.82749141956626 3.4211468569708026 10.537092602628833 0 0 0
447 1 26.656306526271685 3.5024526894743717 12.390997011896976 0 0 0
541 1 24.90222825166543 -0.043268914633732586 14.104036770014298 0 0 0
418 1 1.791673531188264 5.2429954402940515 10.562564329079413 0 0 0
420 1 28.39335484597751 5.284650690478414 12.281626033318783 -1 0 0
424 1 3.5590687484310317 5.304371047060807 12.397614970895566 0 0 0
450 1 1.6420080753825126 8.818666592672276 10.55460672903849 0 0 0
451 1 1.601331371272429 7.045252151039988 12.289631105738222 0 0 0
453 1 3.5255665688366764 7.066663039353542 10.543859293679095 0 0 0
456 1 3.4201255226904244 8.88709318581009 12.34669976932532 0 0 0
578 1 1.7223571438037706 8.858879474936021 14.133162244435974 0 0 0
581 1 3.39289486952986 7.0830261578556755 14.13712263631213 0 0 0
422 1 5.364969639699034 5.276222817334423 10.563693187060883 0 0 0
428 1 6.941151313406677 5.34364060568258 12.506534744306181 0 0 0
454 1 5.23052197337696 8.929611163805573 10.56502607652667 0 0 0
455 1 5.253237243314379 7.147952891316134 12.354603387736097 0 0 0
457 1 7.087369447579254 7.142460375423717 10.657968821056807 0 0 0
460 1 6.952411433481903 8.906986222597553 12.452190595865684 0 0 0
1169 1 14.089510915801421 14.174644000968453 3.5466162963137777 0 0 0
426 1 8.83274361799837 5.3653845257979755 10.659404675663264 0 0 0
432 1 10.596615299281389 5.191630302978227 12.416696197978903 0 0 0
458 1 8.82491794763843 8.865121733232098 10.550426207274507 0 0 0
459 1 8.874492845423243 7.09261208171046 12.436381107441244 0 0 0
461 1 10.587766069698176 6.9590427957929055 10.712327853914486 0 0 0
464 1 10.646683380717377 8.81261978960784 12.340077710871372 0 0 0
1043 1 15.989895481829084 14.09953779508592 1.618408759229985 0 0 0
430 1 12.397715201431149 5.260241755652256 10.561695936836086 0 0 0
434 1 15.904350055959284 5.251656352350886 10.689698692451227 0 0 0
436 1 14.082133362593334 5.2323670246516265 12.287083119400187 0 0 0
462 1 12.438437403245851 8.677566120208642 10.535653267018663 0 0 0
463 1 12.462309317925806 7.090040727603496 12.446518213314032 0 0 0
465 1 14.236036279501192 6.943635655772058 10.560647457388486 0 0 0
466 1 16.039245705995434 8.789401681285552 10.65552536156717 0 0 0