LAMMPS data file via write_data, version 29 Oct 2020, timestep = 300000

2048 atoms
1 atom types

-0.22043166495601518 28.572431664953072 xlo xhi
-0.22043166495601518 28.572431664953072 ylo yhi
-0.22043166495601518 28.572431664953072 zlo zhi

Masses

1 58.933

Atoms # atomic

8 1 3.6649683943575364 1.7858956727588793 1.573391746823852 0 0 0
35 1 1.6748270916498624 3.288639065887145 1.5137334177087916 0 0 0
130 1 1.7198127009142599 1.4470842942834847 3.1128367605502523 0 0 0
165 1 3.5326817002636504 3.351822333946889 3.4352955584345546 0 0 0
4 1 28.498708437261513 1.5385056968323858 1.5713447460213805 -1 0 0
61 1 24.733325080895604 3.3695190755094417 -0.21833107546332736 0 0 0
161 1 0.345236155546246 3.3107245660468934 3.6608104832309354 0 0 0
385 1 -0.12452820015926847 -0.15888733484722972 10.656234770909665 0 0 0
12 1 7.040767834200459 1.575946121551349 1.4758203389918867 0 0 0
39 1 5.496058901314882 3.4121226625875862 1.199093584164438 0 0 0
134 1 5.27200476980827 1.585615903304912 3.254814589309395 0 0 0
169 1 7.17993647646974 3.140517180436753 3.392534746551762 0 0 0
30 1 26.713912544069302 1.7417245295707724 -0.14868889702304106 0 0 0
1439 1 26.897628305121557 13.992275060510218 12.094419062717076 0 0 0
58 1 23.07758192652554 5.154867770715908 -0.14278795831667565 0 0 0
16 1 10.652490715952593 1.5113173743133028 1.4036809916348565 0 0 0
43 1 8.854472540160637 3.259828571661352 1.4825307762821782 0 0 0
138 1 9.0793353759075 1.4214551173609118 3.6567595344055475 0 0 0
173 1 10.702477381980785 3.3956590748768902 3.487886583917169 0 0 0
137 1 7.169181449761493 0.055944934923068956 3.3300334531724887 0 0 0
399 1 12.243585777197865 -0.07129430287714911 12.143675296830969 0 0 0
11 1 8.704188623219588 -0.2082306638233436 1.40798603127515 0 0 0
145 1 14.218021039124624 -0.20860788688559495 3.669145503989303 0 0 0
142 1 12.572298426570399 1.5431942741797324 3.2677535043719925 0 0 0
47 1 12.397153743543955 3.4052943078132603 1.7435578427513232 0 0 0
20 1 14.38263078549921 1.741744192192824 1.5763882598727246 0 0 0
177 1 14.412824151493094 3.4745541766388484 3.584601107290776 0 0 0
51 1 16.18920193958816 3.2438890477649474 1.7224682046238258 0 0 0
146 1 16.185342817840194 1.403358521455763 3.6876704947992844 0 0 0
54 1 19.41289683089059 5.252406097902134 -0.14499039633620953 0 0 0
1409 1 -0.007599528973535996 14.15845960589662 10.427016182538505 0 0 0
1281 1 -0.20392489509342226 14.142056440986838 6.966187244979458 0 0 0
24 1 17.887561242393453 1.6544966828500163 1.6134534751005725 0 0 0
55 1 19.64588829499791 3.1007680293665105 1.6163121550863377 0 0 0
150 1 19.92892489229169 1.3865256233000793 3.4587544936715076 0 0 0
181 1 18.166397188339623 3.209994176747646 3.384440295904602 0 0 0
484 1 0.0019712291897706624 12.259467823639167 12.124709517175479 0 0 0
481 1 -0.09806825553356424 10.390682676313835 10.548406487456937 0 0 0
102 1 5.192462348017522 12.595486596401662 -0.1691051151011126 0 0 0
512 1 25.06157735093423 12.309934653849911 12.281428615625341 0 0 0
28 1 21.498098971515958 1.5380865696184867 1.5673140725651815 0 0 0
59 1 22.932174491432832 3.2163347963374753 1.553094741318591 0 0 0
154 1 23.163947736509925 1.8912459720739783 3.588563991009306 0 0 0
185 1 21.436609500059838 3.5483488304403297 3.399140383136887 0 0 0
19 1 15.807377129015231 -0.05287170665484098 1.5972258034145126 0 0 0
26 1 23.216007928883656 1.3911987877841585 -0.20260427184575036 0 0 0
32 1 24.89809657096243 1.6201617013828213 1.7289629801206465 0 0 0
63 1 26.711571355463846 3.6401360252210613 1.6156027775350184 0 0 0
158 1 26.861669465605274 1.5563475504031736 3.6135168078202606 0 0 0
189 1 25.1656523429251 3.4092356644948683 3.4592380608907947 0 0 0
86 1 19.66621889095221 8.697317555108022 -0.09026400425006156 0 0 0
403 1 16.000433043851615 -0.08962968991524889 12.342583696891397 0 0 0
633 1 21.376286843414285 11.02535339152143 14.109056295799645 0 0 0
40 1 3.280319560391726 5.16488475051073 1.5215242961563973 0 0 0
67 1 1.4307648186693833 7.125797103005612 1.649351086879465 0 0 0
72 1 3.3925391546278085 8.986202810980172 1.474846636798933 0 0 0
162 1 1.7562306571149429 5.137088432699128 3.5894122294154216 0 0 0
194 1 1.6234653924242133 8.74493382508765 3.414553418367049 0 0 0
197 1 3.4873847277772114 6.978184654675007 3.4440245684569506 0 0 0
193 1 -0.1921210265330417 6.8847701565667325 3.5827258127546524 0 0 0
68 1 -0.19700583652631565 8.892237019267622 1.6888875027001191 0 0 0
401 1 14.162645666225611 -0.04272904078598572 10.606460352024827 0 0 0
44 1 7.1519266438926 4.988374085949811 1.5629301764670398 0 0 0
71 1 5.142067286632586 6.855521076126694 1.6831936604725255 0 0 0
76 1 6.91024564160879 8.956731031221098 1.7460351445438944 0 0 0
166 1 5.133970817064063 4.915695755862553 3.222391860784389 0 0 0
198 1 5.248521367100622 8.671399164955522 3.5819382753970648 0 0 0
201 1 6.908470699709392 6.946414694250586 3.2915567270964647 0 0 0
1413 1 3.3930606661409874 14.022421866430157 10.490455369019871 0 0 0
48 1 10.825297762348548 5.246483562182453 1.4992166648011866 0 0 0
75 1 8.82158707421701 7.1483250622071886 1.577316213687214 0 0 0
80 1 10.702916735922669 8.712225121211976 1.6076441206520329 0 0 0
170 1 8.792641609033568 5.141540687648678 3.1849997344444865 0 0 0
202 1 8.777901863248822 8.740671704613444 3.241960374524708 0 0 0
205 1 10.642497776125161 6.933083937627578 3.2981461580987212 0 0 0
122 1 23.100309988251006 12.08465815900019 -0.14618336205703508 0 0 0
79 1 12.55938717812743 7.051179666025591 1.2389661975916213 0 0 0
174 1 12.330189436071791 5.205464300334089 3.324895126207636 0 0 0
206 1 12.367373743005292 8.896782622614564 3.4178529304057155 0 0 0
52 1 14.215057520591381 5.178366763733982 1.8391238925717137 0 0 0
84 1 14.187704379384133 9.08290003832702 1.445230646485705 0 0 0
209 1 14.222878726518418 7.110460857495519 3.3584637716429184 0 0 0
83 1 15.933487581886935 7.00087120847233 1.6941425279617663 0 0 0
210 1 16.09381362840243 8.920897070423194 3.5835870798880176 0 0 0
178 1 16.176067982508293 5.05510964315941 3.4603399660422154 0 0 0
126 1 26.826340188247038 12.331267037971905 -0.09416536194032002 0 0 0
70 1 5.197643128147021 8.570861497622719 -0.005074135731036711 0 0 0
56 1 17.677748347040954 5.283209546814779 1.6022304590739656 0 0 0
87 1 19.42042757490021 6.968847340488068 1.581898737769733 0 0 0
88 1 17.523064906903635 8.881869212815207 1.5838607326462586 0 0 0
182 1 19.71328734838705 5.1175678426819 3.444129469087827 0 0 0
213 1 17.839656955558397 6.981632883281234 3.4649860229438194 0 0 0
214 1 19.520324738842866 8.88008127098434 3.3480264910397324 0 0 0
1027 1 1.4500180998043417 14.152302518783676 1.6268153227368907 0 0 0
1165 1 10.87752204967904 13.902370763574137 3.301168953794349 0 0 0
60 1 21.387280023115487 5.106936742474931 1.5277013944838813 0 0 0
91 1 22.967075459153307 7.03863482627348 1.608699858266321 0 0 0
92 1 21.36388337188292 8.777602072895633 1.6539346384747626 0 0 0
186 1 23.30040215515671 5.224984804199023 3.35741891695024 0 0 0
217 1 21.25914053968431 7.08689567532163 3.4613516294322055 0 0 0
218 1 22.91776743291721 8.916045461599326 3.5971262531617865 0 0 0
29 1 25.12834977987491 0.021649307650457972 -0.21243793077953166 0 0 0
36 1 -0.1281667080109642 5.307960844366228 1.4817786513096514 0 0 0
64 1 24.930566352517054 5.196168027155438 1.373835770106848 0 0 0
95 1 27.00401538787839 6.980347892280177 1.6656349632442333 0 0 0
96 1 24.590817401641537 8.92705236618825 1.6933651014717064 0 0 0
190 1 26.919488429928478 4.985231887165053 3.677566299171715 0 0 0
221 1 25.15458998196209 7.182367116124044 3.2492544247148225 0 0 0
222 1 26.806102369927785 9.06489218465397 3.376721777282822 0 0 0
131 1 1.7715393406042887 -0.14554899025425577 4.97591048616419 0 0 0
522 1 8.700801647241759 1.5787951402974836 13.911709374222454 0 0 0
269 1 10.633137861333068 -0.09012454540118142 7.105161748682404 0 0 0
99 1 1.487612872760807 10.590043563517945 1.5667398569043283 0 0 0
104 1 3.5218966715905 12.318544880549217 1.4244546095214137 0 0 0
226 1 1.7095241847857694 12.414705723106113 3.4840256922086597 0 0 0
229 1 3.099125915812871 10.602092900982669 3.279234011260293 0 0 0
287 1 26.8649751668868 -0.19174403313577493 8.91934182615736 0 0 0
1429 1 17.75436202260049 14.066916343020338 10.511640623563963 0 0 0
511 1 26.859866918375026 10.345595444094865 12.500932441147539 0 0 0
510 1 26.657549425794784 11.984314995705335 10.630060545421795 0 0 0
103 1 5.23764365751136 10.523614885289996 1.6705256933132784 0 0 0
108 1 6.984183425604621 12.393170082143833 1.800682102344512 0 0 0
230 1 5.0382859994507365 12.190704106966136 3.4926173078120493 0 0 0
233 1 7.095336056160099 10.580459834084717 3.349204999797272 0 0 0
73 1 6.979451450373339 6.923192133013226 -0.044865693160218656 0 0 0
1159 1 5.265535788242655 14.072578752065542 5.101062115914755 0 0 0
107 1 8.80898237868946 10.660277010958994 1.6871537570531085 0 0 0
112 1 10.554280481651334 12.130043117393816 1.7830963419177865 0 0 0
234 1 8.994467237026365 12.259069422842682 3.7313607934898276 0 0 0
237 1 10.479849851537038 10.304425331443166 3.4673336883667316 0 0 0
534 1 19.68126373235873 1.5942895073926273 14.039736755356161 0 0 0
542 1 26.735715461568333 1.4438828839330369 14.042151196649518 0 0 0
638 1 26.861395951159118 12.169427783491365 13.86588473030895 0 0 0
509 1 24.868211645682294 10.647098729358353 10.413555794084091 0 0 0
582 1 5.162470768594694 8.775862601134847 14.116108467367221 0 0 0
238 1 12.45642795905103 12.353252031469925 3.398812553302529 0 0 0
111 1 12.436299890966025 10.538420585406403 1.545265374887781 0 0 0
116 1 14.128467435625609 12.380359606792458 1.3975482104137598 0 0 0
241 1 14.104239898652892 10.875750708472065 3.5879193534076275 0 0 0
115 1 15.718113934901512 10.791906633773067 1.7729695166236321 0 0 0
242 1 15.854800777824858 12.39803809950361 3.5936491807331095 0 0 0
508 1 21.39601748925842 12.686779355827131 12.357606449641949 0 0 0
1415 1 5.148745661504375 14.008767462607354 12.323347479818997 0 0 0
110 1 12.331173269065417 12.457776645076523 -0.20328106013171338 0 0 0
507 1 23.018874849308965 10.470364126780465 12.333011627188457 0 0 0
119 1 19.322580414758008 10.617639110343166 1.6209663475717666 0 0 0
120 1 17.560220904830523 12.509697508575558 1.5851538489238381 0 0 0
245 1 17.747223994271167 10.661010336913296 3.4867605457295574 0 0 0
246 1 19.635546537590088 12.343122864139781 3.437568038693169 0 0 0
21 1 17.75541285814367 -0.2167997463585607 -0.024516226567486366 0 0 0
1291 1 8.643723527099171 14.055616444967702 8.818056001147962 0 0 0
123 1 22.898168063186993 10.66443945045949 1.7841143022402708 0 0 0
124 1 21.10008330994509 12.30718052959106 1.455394090189718 0 0 0
249 1 21.23376514943876 10.751968566951973 3.498760271431703 0 0 0
250 1 23.18661101344498 12.21144198818373 3.5269076699675117 0 0 0
506 1 23.242137840565988 12.687774386497946 10.496865983082792 0 0 0
225 1 -0.11693403986560469 10.695924475378352 3.3740308056453996 0 0 0
100 1 28.536807315321322 12.369294205378607 1.7511853176419192 -1 0 0
253 1 24.822793044162076 10.587202275952427 3.427376185205658 0 0 0
127 1 26.737615793353825 10.692216477366353 1.6880596883142562 0 0 0
128 1 24.714407023986958 12.274234635761177 1.5189788322610922 0 0 0
254 1 26.684497178249444 12.310438543545734 3.57969092464537 0 0 0
1179 1 23.31759997638615 14.080308586898516 5.385596492132282 0 0 0
1417 1 7.033053856170927 13.994309811948016 10.611551100053683 0 0 0
125 1 24.8476727240092 10.403778369040307 -0.11372521372884495 0 0 0
505 1 21.531085524213154 10.901121541787568 10.493010198401953 0 0 0
1157 1 3.2660990835601846 14.092180135790704 3.2214925127662744 0 0 0
136 1 3.503453915173251 1.320972819283954 4.9205070565834585 0 0 0
163 1 2.065582862349594 3.199823017289505 5.396474538725797 0 0 0
258 1 1.7648603076245346 1.703487657630666 7.136349900318749 0 0 0
264 1 3.461909799678065 1.6553504277512554 8.952306564727012 0 0 0
291 1 1.6266728010194962 3.329535906429058 8.817267009349985 0 0 0
293 1 3.638654152071872 3.0265188082363497 7.16948191425384 0 0 0
504 1 17.953412982046416 12.416549077909197 12.14913388310739 0 0 0
140 1 7.066253678780484 1.4231312022267584 5.267077085378362 0 0 0
167 1 5.237720629186721 3.226347725642718 5.421232219951818 0 0 0
262 1 4.950336226327441 1.2943465990327305 6.851710350892856 0 0 0
268 1 6.751129628742146 1.5333229867720086 8.952680352451202 0 0 0
295 1 5.140734396330878 3.3992203561823464 8.984836757415243 0 0 0
297 1 6.875286991340382 3.2079359306754123 7.0377206732864295 0 0 0
503 1 19.57049380089238 10.800867301025905 12.134764313786208 0 0 0
144 1 10.737835288982302 1.5046958891651276 5.37339075054613 0 0 0
171 1 8.829880067400678 3.468967043138569 5.144610521155177 0 0 0
266 1 8.617863364932562 1.5646818144857855 7.170349013438556 0 0 0
272 1 10.834538002886228 1.699468891471279 8.752783889283345 0 0 0
299 1 8.813003848755125 3.551751293369343 8.675997739691416 0 0 0
301 1 10.531288901486784 3.3013981075363574 6.921622705683919 0 0 0
2 1 1.736748451716111 1.747806356097314 -0.19606832038149885 0 0 0
502 1 19.63968062396014 12.475441282377952 10.504110230673959 0 0 0
501 1 17.57488244743689 10.609174974388864 10.453923211987979 0 0 0
270 1 12.537729346080111 1.6045293474532705 6.839662667592964 0 0 0
303 1 12.416046983543842 3.2792498434157307 8.736729681017458 0 0 0
175 1 12.530943484278819 3.495239291291363 5.084449658722979 0 0 0
148 1 14.336652889712505 1.7131241764358036 5.508860107455886 0 0 0
276 1 14.177956225595704 1.6719194272993738 8.734388417559323 0 0 0
305 1 14.149056947296858 3.662992298159211 6.912225587682994 0 0 0
274 1 16.174964040259745 1.427157724649964 7.27012711560439 0 0 0
179 1 16.250841720212165 3.2749423791856453 5.37545634696902 0 0 0
307 1 16.05025290427359 3.4354797576747758 8.772469798367245 0 0 0
157 1 24.857046967010085 0.002320139626981188 3.2436923230772363 0 0 0
1425 1 14.032152772711175 14.135756216175636 10.81887921763071 0 0 0
500 1 14.334041523097895 12.458454661928528 12.61630009885714 0 0 0
495 1 12.308471054095797 10.902098224127945 12.515691377864652 0 0 0
152 1 17.984206102279742 1.4826126289738524 5.12980515836396 0 0 0
183 1 19.8832286630973 3.282445507520559 5.200857500240929 0 0 0
278 1 19.647660965096563 1.5003246393082774 6.804900970499226 0 0 0
280 1 17.926926300935207 1.4289976396676674 9.147797915739073 0 0 0
309 1 18.13049441769116 3.281735770625354 6.97557983008977 0 0 0
311 1 19.82378925630823 3.103501413628055 8.698755332285472 0 0 0
497 1 14.149209186215137 10.604178851778013 10.705103137172292 0 0 0
1167 1 12.213888294166551 14.12472665393888 5.257866738511176 0 0 0
498 1 15.875220944227115 12.686486704733682 10.844042807373542 0 0 0
156 1 21.68840521518451 1.6177791217596258 5.278556931239231 0 0 0
187 1 23.302730033405282 3.4069961552511363 5.352140286822474 0 0 0
282 1 23.38931657559378 1.5570411986250274 7.084587282877764 0 0 0
284 1 21.516144198763286 1.3060841171200397 8.749729112754423 0 0 0
313 1 21.66096708945087 3.370485817452604 6.937075131790638 0 0 0
315 1 23.453912420235007 3.3555451412971853 8.624400528945039 0 0 0
554 1 8.642059913726246 5.329958468980371 14.052515744111478 0 0 0
499 1 16.15688016991725 10.71293074986824 12.364284305773845 0 0 0
289 1 -0.16992594377182968 3.273626739387601 7.229036676611265 0 0 0
260 1 28.533709695139265 1.6017385924082945 8.690537487037806 -1 0 0
132 1 0.08775474749105427 1.6713879849312914 5.362194065086725 0 0 0
160 1 24.945431865688114 1.402274334594834 5.247940620307166 0 0 0
191 1 27.13312941247193 3.1779960602768766 5.265085721452567 0 0 0
286 1 26.7784261949692 1.4326869052903284 7.093653882042236 0 0 0
288 1 24.955538233639118 1.5691685247028129 8.74609317865294 0 0 0
317 1 25.342720611799898 3.278273167141886 6.878755047578299 0 0 0
319 1 26.87538272350269 3.483857772775561 8.822814394228772 0 0 0
168 1 3.5166837819337626 5.184977539442072 5.282281132758882 0 0 0
195 1 1.784952144129703 7.071677854078282 5.183295881776592 0 0 0
200 1 3.600584695599627 8.661009451146038 5.399190116953185 0 0 0
290 1 1.8002797324613913 5.105843036070035 6.989184563118045 0 0 0
296 1 3.4285889018171156 5.161109491526259 8.857835936682923 0 0 0
322 1 1.5355174821318325 8.50836170196148 7.028331374700982 0 0 0
325 1 3.515055739750614 6.883267349696621 7.0073281881268565 0 0 0
328 1 3.1498785078333014 8.617394393241591 8.886971436721282 0 0 0
323 1 1.5520660371087975 6.840038535173555 8.924143958624617 0 0 0
164 1 0.1675489644533812 5.156900830678072 5.37796448828094 0 0 0
172 1 7.038023615606611 5.086082856440016 4.809202086762013 0 0 0
199 1 5.47434054925462 6.85870674177782 5.395219932803432 0 0 0
204 1 6.948190287211264 8.767203676513843 5.299412366448441 0 0 0
294 1 5.313271231708443 4.975583445929007 7.052862345931069 0 0 0
300 1 6.8238591540875335 5.376894213338714 8.892654179482639 0 0 0
326 1 5.264147703802505 8.682914184641401 6.950334481120378 0 0 0
327 1 5.065981580233101 6.960465504783362 8.811043213493187 0 0 0
329 1 6.958304015591492 7.027657979009341 7.171077941404989 0 0 0
332 1 7.134413499524462 8.928209681920647 8.856225618052566 0 0 0
176 1 10.501098981582754 5.042398909822467 5.153090481050059 0 0 0
203 1 8.567194502224652 7.005109768702887 5.006719811502666 0 0 0
208 1 10.543393762969028 8.957125977542637 5.23554688366945 0 0 0
298 1 8.40819585447886 5.047982301485296 7.014012186258548 0 0 0
304 1 10.670577567319215 5.1999491338278645 8.742477733308123 0 0 0
330 1 8.638695122686046 8.843342672835995 6.951185477114978 0 0 0
331 1 8.954835080403917 7.058143811251219 8.847335276874944 0 0 0
333 1 10.403760370843756 6.980454056722205 6.853620807755777 0 0 0
336 1 10.647582458877691 8.745729698446562 8.592409144633667 0 0 0
335 1 12.431666175844825 7.076032757082085 8.750979598183225 0 0 0
302 1 12.296633938412738 5.035331176047735 6.882386600162259 0 0 0
207 1 12.222305515458764 6.948005404193802 5.060032873041619 0 0 0
334 1 12.631170355731099 8.753204014467881 7.093133075342782 0 0 0
180 1 14.258993950107971 5.321311589598919 4.962467850315805 0 0 0
212 1 14.133427031383112 8.904015966509045 5.224141927544948 0 0 0
308 1 14.254504772675505 5.1899588325771315 8.870572139758462 0 0 0
337 1 14.180415979289323 6.631577180868176 7.0854369706515135 0 0 0
340 1 14.155739350020509 8.73090542144611 9.20986921906046 0 0 0
338 1 15.842952033910413 8.445277393092484 7.123506536503897 0 0 0
339 1 15.863694594056033 6.920562616948219 8.80468905679229 0 0 0
211 1 16.126413057652847 7.017141502746591 5.221144815972256 0 0 0
306 1 16.09658941621273 5.083170812106002 6.8224913071921245 0 0 0
310 1 19.751081125713576 4.993486866915829 7.29506759198236 0 0 0
184 1 18.005801034780077 4.851466354756211 5.168783071063316 0 0 0
215 1 19.580325185360458 6.7301360870896705 5.20275061868976 0 0 0
216 1 17.986088745968935 8.732932018007766 5.340662533329255 0 0 0
312 1 17.905683781142926 5.032971345285857 8.700450329917974 0 0 0
341 1 17.80875864335116 6.828545654819164 7.0545900790027325 0 0 0
342 1 19.69873940892294 8.820395750725186 7.276724712576593 0 0 0
343 1 19.74976429332964 6.906870794214333 8.984359781474291 0 0 0
344 1 17.844697271632448 8.77616444472324 8.613767690212894 0 0 0
188 1 21.4991764142246 5.233358597309468 5.165405488597294 0 0 0
219 1 23.31808180484645 7.182195546945156 5.2506349141477076 0 0 0
220 1 21.10551318891222 8.67846183598291 5.2977197815491675 0 0 0
314 1 23.33034784225297 5.0384650360846175 6.851401347608056 0 0 0
316 1 21.528988113797723 5.089508369349708 8.831833323764739 0 0 0
345 1 21.45499139762766 6.741379961550037 6.979784143945228 0 0 0
346 1 23.025236120714418 8.662200507681888 7.061365435364975 0 0 0
347 1 23.124465792787426 6.788105171837221 8.795433948106128 0 0 0
348 1 21.489685165348085 8.987681185711546 9.107304428633524 0 0 0
321 1 28.551346664596878 7.006880093454484 6.9770651665196795 -1 0 0
292 1 28.544581918745656 5.143847842694535 8.646405695274572 -1 0 0
196 1 -0.17215328722372902 8.636950035734872 5.446745173549162 0 0 0
324 1 -0.008284121953032297 8.876908534700014 8.730068633105999 0 0 0
349 1 24.787311154911777 6.75816107477452 7.122854055282815 0 0 0
192 1 25.00991411434869 5.020898653729555 4.983513098722113 0 0 0
223 1 26.593470139793197 7.087954797272449 5.185931112242039 0 0 0
224 1 25.100614493879753 8.919704484329735 5.2866919329933 0 0 0
318 1 26.84734211459356 5.06435869402008 6.5329605855178245 0 0 0
320 1 25.04222084203822 5.161373017845101 8.77160504277767 0 0 0
350 1 26.784618903477295 8.625391496681686 7.082603015362839 0 0 0
351 1 26.823603213767854 6.727940757422421 8.584359901731307 0 0 0
352 1 25.063361722278792 8.464548133312784 8.73578995087608 0 0 0
227 1 1.4785503276925023 10.44491754030968 5.2443567093253165 0 0 0
232 1 3.25905774007549 12.29820736959147 5.096249534785494 0 0 0
354 1 1.4617938206425134 12.340784097797396 6.719747176938343 0 0 0
355 1 1.7105473148862742 10.54074469578268 8.69808863382028 0 0 0
357 1 3.2503189486894812 10.468096415418172 6.7874709084683165 0 0 0
360 1 3.3769228348672993 12.215930740029737 8.543508911043462 0 0 0
228 1 -0.22018485644678087 12.454873854639747 5.127846859019079 0 0 0
630 1 19.554304442821355 12.65879237053354 14.076490312683513 0 0 0
1283 1 1.705882680663893 14.00798388459286 8.621526655498188 0 0 0
494 1 12.135043676738729 12.566552615704357 10.720595578268602 0 0 0
231 1 5.311202375731531 10.494919421195844 5.1577418911020985 0 0 0
236 1 6.882709250308687 12.17225176991218 5.209821030169073 0 0 0
358 1 5.0853064876022565 12.51862993878608 6.997225771286753 0 0 0
359 1 5.288366297103308 10.586565295803304 8.701138258951639 0 0 0
361 1 6.973383062063435 10.6185473340864 7.0649580943810415 0 0 0
364 1 6.966155514323242 12.26060683702472 8.614425122536911 0 0 0
1293 1 10.651894750834732 14.148733279179018 7.386036013581334 0 0 0
235 1 8.886217595511988 10.689760470753987 5.369211552097176 0 0 0
240 1 10.748446094694707 12.30766243346217 5.261020698008664 0 0 0
362 1 8.848325260552958 12.572121663901106 6.856553920576655 0 0 0
363 1 9.001186515021216 10.78018068094446 8.636376997770563 0 0 0
365 1 10.731737382301825 10.455597528449296 6.942695719976572 0 0 0
368 1 10.557494300987512 12.430054365490923 8.834321226550104 0 0 0
449 1 28.416050601545077 7.248631173484312 10.491903623182843 -1 0 0
491 1 8.837924825915465 10.525679417193682 12.438780927594333 0 0 0
1169 1 14.077154154723287 14.078915694044506 3.5266398794003058 0 0 0
239 1 12.525909117127998 10.662108176850934 5.468331217315769 0 0 0
367 1 12.543960180554409 10.656915221753609 8.83881337070843 0 0 0
366 1 12.323703416472895 12.54645110202149 7.179922653417475 0 0 0
244 1 14.06197987175733 12.45847847816413 5.378660651066885 0 0 0
369 1 14.139862527717927 10.749878579480026 7.062006946907992 0 0 0
372 1 14.326494309780852 12.567085550090468 8.859837997751496 0 0 0
370 1 15.729712393600826 12.3931452454896 7.215262945170488 0 0 0
371 1 15.964408150349767 10.41142659811404 8.764236449300242 0 0 0
243 1 15.98936197191321 10.633363618061292 5.291137608578971 0 0 0
1171 1 15.979599440919875 14.129396563862015 5.258434421081805 0 0 0
247 1 19.45846127755837 10.698983964876636 5.175995385499285 0 0 0
248 1 17.63304339831827 12.518607913346393 5.424833365516949 0 0 0
373 1 17.764604149860446 10.573991323433468 6.876516580750233 0 0 0
374 1 19.559852033169072 12.450719056046603 7.094697131753907 0 0 0
375 1 19.636340297321816 10.761027824951913 8.790473463712988 0 0 0
376 1 17.675209743472905 12.239305362980511 8.761251741423596 0 0 0
479 1 26.77534809982908 7.246168578323465 12.282492382350265 0 0 0
493 1 10.677253885580877 10.529919251906142 10.399517492090293 0 0 0
613 1 3.284757968057041 10.53034229647742 14.1439076503626 0 0 0
1173 1 17.742455535487657 14.095040056579688 3.5660312828596394 0 0 0
251 1 23.25048716290999 10.590194154843722 5.464174473032132 0 0 0
252 1 21.380170371060686 12.511035164013473 5.471465744366075 0 0 0
377 1 21.378573626642762 10.536687121506564 7.039222391308311 0 0 0
378 1 23.515868672685734 12.503850247226504 7.063523606711307 0 0 0
379 1 23.398316581146048 10.426868699697474 8.597821100320338 0 0 0
380 1 21.49227343622833 12.511960750083906 8.587040376566762 0 0 0
353 1 28.55456670674569 10.718619962230626 7.101989142948811 -1 0 0
356 1 28.54576806201208 12.435636434162378 8.632370082052685 -1 0 0
256 1 24.957950888741294 12.246913772234754 5.316525196031922 0 0 0
255 1 26.80217266255538 10.344806036188322 5.340145672860398 0 0 0
381 1 25.172347315072436 10.455169151970667 6.995092489386122 0 0 0
382 1 26.586454297959563 12.457159458014287 7.010728191414573 0 0 0
383 1 26.839070505149692 10.56981726637474 8.72509066424779 0 0 0
384 1 24.874565018425507 12.462609931067998 8.934213591500017 0 0 0
490 1 9.054803161025287 12.353687090950398 10.777618574536639 0 0 0
496 1 10.597839428465132 12.645791678983981 12.625633089607529 0 0 0
442 1 23.118662340603194 5.077883380352269 10.617853178429892 0 0 0
386 1 1.773066973258143 1.3868521274473526 10.705558853899628 0 0 0
419 1 1.6223733839039178 3.167014239186352 12.280373593716014 0 0 0
392 1 3.3887972500478907 1.5163744006667699 12.367974179942982 0 0 0
421 1 3.4408083664481843 3.336751459733821 10.757798925381566 0 0 0
417 1 -0.07204895231136987 3.453868645669869 10.579266129055782 0 0 0
407 1 19.70671394160229 -0.17994708719587038 12.451959737427915 0 0 0
387 1 1.7540984739991268 -0.1099458790073772 12.448222631054445 0 0 0
444 1 21.443009353838917 5.287627384038861 12.378431818065987 0 0 0
390 1 5.133255027062492 1.593210353517238 10.657289345622214 0 0 0
396 1 6.770419255075863 1.7411720065033927 12.51782772838323 0 0 0
423 1 5.070988199976231 3.564395548514011 12.46815898001632 0 0 0
425 1 6.699384370909711 3.38607514225409 10.660511058539583 0 0 0
27 1 23.25002824119003 -0.17023365899711634 1.6756926580891323 0 0 0
474 1 23.391996250527555 8.74030844022617 10.509046352504551 0 0 0
480 1 25.004026728085044 8.73758234585865 12.314784602998829 0 0 0
394 1 8.536789049289697 1.7818356922553633 10.487205625837316 0 0 0
400 1 10.562006728247544 1.6799482475942393 12.315299714467157 0 0 0
427 1 8.575773876942163 3.5950641479628582 12.319532406065008 0 0 0
429 1 10.185351825226581 3.548123340781073 10.538484529292615 0 0 0
574 1 26.53960974635649 5.2060698298553225 14.12957759140485 0 0 0
431 1 12.156127759529301 3.4374025530517094 12.113939569608354 0 0 0
398 1 12.368047895250752 1.652799273594479 10.459729568285251 0 0 0
404 1 14.195686178087973 1.7066885114421648 12.412522266772744 0 0 0
433 1 14.155126771114963 3.463455047755106 10.552241644226084 0 0 0
402 1 16.11212572566191 1.86254636648431 10.494181231096679 0 0 0
435 1 16.17058993522766 3.187979849513439 12.379950322375297 0 0 0
147 1 16.193831514363474 -0.165937319513489 5.36822609347991 0 0 0
585 1 7.279023890052907 7.152297472309554 14.093618173529359 0 0 0
406 1 19.780593712581286 1.422340572085364 10.581717473558811 0 0 0
408 1 17.756962614223575 1.6176573079416798 12.33713083848737 0 0 0
437 1 17.874618917095198 3.4144751563011924 10.393809521181646 0 0 0
439 1 19.634071617392834 3.3379766665446815 12.26171419948958 0 0 0
129 1 -0.2136141262872122 -0.1734282694978941 3.6348349704482197 0 0 0
617 1 6.756858218367893 10.506187824083607 14.0433021069543 0 0 0
546 1 1.4349763270143068 5.386120078089746 14.115316574642332 0 0 0
410 1 23.37949933873523 1.653556293145153 10.634818341818738 0 0 0
412 1 21.4987155774948 1.579048095782807 12.437366667544499 0 0 0
441 1 21.5093857701278 3.3397280753667995 10.645696018387516 0 0 0
443 1 23.326662268631672 3.5449611190167034 12.62680004327823 0 0 0
487 1 5.031309506037814 10.895102835305368 12.333468255455449 0 0 0
271 1 12.49892819184424 -0.20325932472611186 8.611920695044018 0 0 0
475 1 23.129709235222528 6.896749354308544 12.273427381508476 0 0 0
388 1 28.548938213174658 1.5736200607866053 12.200430222210699 -1 0 0
445 1 25.082530765527686 3.2758380876836766 10.419595959684688 0 0 0
414 1 26.682007668729497 1.6523362131732002 10.633976941334302 0 0 0
416 1 24.993820646724238 1.766816640129768 12.50778808376702 0 0 0
447 1 26.850233637605783 3.423090681327254 12.049683192364697 0 0 0
1055 1 26.529837363538554 14.098020777516426 1.7164113348569654 0 0 0
478 1 26.791162785142753 8.776683552603233 10.359512478960367 0 0 0
477 1 25.002220111406302 6.889751998975328 10.652475219372379 0 0 0
418 1 1.5352347863826685 5.127547417094092 10.753992905053892 0 0 0
424 1 3.2131373790113282 5.2031144666093905 12.761608419233688 0 0 0
450 1 1.7390483742903438 8.778567597628554 10.725036630386004 0 0 0
451 1 1.4844126365148649 7.098690735662365 12.396153221836792 0 0 0
453 1 3.276671450629137 6.757049315602534 10.608701289930512 0 0 0
456 1 3.6915156188453877 8.735753028951255 12.255967743046977 0 0 0
452 1 -0.11506484043326992 8.851030396353538 12.372939136845098 0 0 0
420 1 28.434038208831446 5.482630369371889 12.328929861951925 -1 0 0
581 1 3.2220782846998186 7.204897481102812 14.06073130766538 0 0 0
446 1 26.946172794623052 5.131977029957529 10.553963990964577 0 0 0
476 1 21.343242366011147 8.919822887732405 11.95558686437682 0 0 0
422 1 5.06515545381389 5.135553177566784 10.638094596061611 0 0 0
428 1 7.003918492064243 5.4480760247426065 12.288862123670858 0 0 0
454 1 5.111355731513797 9.017986491166203 10.555815142547674 0 0 0
455 1 5.153219852375614 6.945841462555185 12.23328604843053 0 0 0
457 1 6.849867358455763 7.171708453327699 10.39235194072889 0 0 0
460 1 6.819457506370324 8.893267874174368 12.247752870782989 0 0 0
448 1 25.08625537363214 5.198020287867023 12.249970626830399 0 0 0
426 1 8.583217411866018 5.373047196372061 10.482011714694348 0 0 0
432 1 10.40259900521442 5.298268503507504 12.18584717812603 0 0 0
458 1 8.740721146982311 8.942081263003526 10.615718069129615 0 0 0
459 1 8.612295867584423 7.1184682059598305 12.119995832294226 0 0 0
461 1 10.627546035177975 7.060163864189101 10.54074017348239 0 0 0
464 1 10.540980766823965 8.815732080233339 12.290087217133879 0 0 0
486 1 5.124006056705889 12.373237301540676 10.547638105614462 0 0 0