LAMMPS data file via write_data, version 29 Oct 2020, timestep = 300000

2048 atoms
1 atom types

-0.8295712573413159 29.181571257336444 xlo xhi
-0.8295712573413159 29.181571257336444 ylo yhi
-0.8295712573413159 29.181571257336444 zlo zhi

Masses

1 58.933

Atoms # atomic

2027 1 2.47026207469753 0.3447804614646204 3.6296394632661215 0 0 -1
99 1 4.3208297993078775 5.423955410038336 0.16548348325007523 -1 0 1
1128 1 2.1098140023239833 3.255512691569267 2.490340596542002 1 1 0
27 1 2.440287871545997 0.20135823165159605 1.4072840468692291 1 0 1
1831 1 4.391110718152877 2.263900123256988 3.7442452710572995 -2 2 1
173 1 3.841399762629898 3.267760786729035 -0.6450536419185455 3 0 0
175 1 27.727097239315732 12.419798606379706 5.551072200460595 0 1 0
32 1 6.584573133219906 1.4945598177702633 3.997499399491635 2 -2 -1
687 1 4.357638840222564 1.6384795648807358 1.0878250434294552 -1 -2 -1
344 1 18.833839372773916 11.956052342360703 -0.6199652795416878 0 -1 0
828 1 6.417988806640511 1.9920343213516079 1.7322134351118588 0 0 1
685 1 4.875720414605918 -0.11186109298235092 2.5610386346219465 0 -1 2
835 1 18.282780418867432 -0.0933216275182881 4.74849453126552 0 1 0
2028 1 11.663467696656411 12.786912414446281 11.310648601958231 0 0 0
807 1 7.1270704410665475 -0.2089252815493623 0.25801402164626697 -1 0 2
263 1 3.459488378399758 4.259324901148041 4.595919092540295 -2 0 0
1181 1 27.89670505587729 1.5441242827746375 -0.5130902410343211 -1 -1 -1
1711 1 16.623998369475608 -0.5268116990507414 12.577822051195733 0 1 2
1780 1 7.868090535609678 1.9348366162228117 -0.08984412762809557 1 -1 0
2002 1 10.50308921725846 4.541191142893978 3.530559802450794 1 0 1
2011 1 10.686656511059411 2.3873506766690724 2.3909973891754195 1 1 1
1644 1 8.674455843747136 1.1497128059553066 2.4685169186531377 -2 1 0
1257 1 8.275914534398131 2.993829453257711 4.330553554000292 -3 1 0
1930 1 12.241284082409827 0.14302927422825829 2.6890207257319907 -1 1 -3
1811 1 10.271987628889526 1.3666928115564079 4.313138926866291 0 0 3
161 1 -0.5833366201712817 6.483557454696108 12.513731016414138 0 -1 1
1339 1 19.19422875833788 6.792610711628582 0.6044214947324684 2 2 1
1630 1 11.624862677533741 1.6170570251667957 0.41821057497801095 3 -2 2
14 1 12.51078082880289 3.9474960918807227 -0.3325455453617895 -1 -1 1
420 1 12.46525826556326 3.239605559142242 4.825805601984313 1 0 -2
1199 1 13.652898497478274 1.787617874130234 2.199045648414424 1 2 2
1391 1 12.358628862740282 3.7668215371917 2.0169812329769403 0 2 -2
426 1 7.927442283860387 -0.647443132882849 9.734821879866377 -1 2 -1
1695 1 14.107281660960616 4.197252275452145 3.6579504765500808 1 -1 0
223 1 13.971040247349151 1.6301990897674044 4.141168037223962 2 -1 -1
546 1 14.556497956170432 5.240483738866975 5.52191652807344 1 0 -1
1879 1 9.932226525873235 2.8073176622147966 -0.5788238318799459 1 0 0
1939 1 15.94371664186101 1.886684437159178 2.877855267635846 -1 1 -1
419 1 18.059878582998905 1.9299709878243254 3.841946683342572 0 2 -1
810 1 18.8561618834974 1.8354464704415152 0.7917195159378769 0 1 1
1850 1 17.37897541961398 3.118278901760623 1.91199991874328 2 1 -1
1270 1 17.162522760242766 0.14886337890372847 1.738765976999256 -1 2 1
525 1 15.198759159598167 -0.007563507392122859 9.272545253360095 -3 -1 -1
1380 1 22.791941206435702 -0.7360066474383586 4.360358367684964 1 0 0
868 1 14.085293162428835 13.854876314652001 4.475299091893007 0 1 1
659 1 12.42116426265623 13.455653869780011 6.043007375648514 -1 1 3
1589 1 20.14251101514254 3.2751883098183967 1.9026246656464672 0 0 1
1188 1 22.845287016110277 3.6125927415553765 1.3492749041396448 0 1 1
465 1 22.052904659752713 1.9817665737137893 2.953102770277289 -1 0 1
194 1 23.497518337391945 -0.41291391078865564 1.8308519194462334 -1 0 0
643 1 24.72257426429512 1.5381350604664985 0.8619062982319041 -1 -2 2
1931 1 23.962643906050786 0.8880981506584269 3.7204954178717546 -4 1 1
373 1 24.623244198949905 13.300156843435172 9.078231017090372 0 1 0
1776 1 26.442387568517105 0.8945535189644094 3.590160370349759 -1 1 2
707 1 -0.16149459293024537 0.00469615064570339 0.5519966483803271 0 0 0
338 1 27.0486702296919 4.26997014915594 2.419233739662662 0 0 0
1182 1 1.5982531232921162 1.9033944862279593 -0.34784572021317284 0 0 1
192 1 0.4464023647127273 1.4211206363310618 2.3519005319307817 1 2 -3
689 1 16.368850620895508 2.5426992746029327 -0.3032730365767181 -1 -3 2
1826 1 26.021811159891953 3.8317168159539134 0.19071584904194938 -2 1 1
232 1 26.619408539820903 -0.19304339386671399 12.337083991523885 1 0 -2
274 1 3.570777904690477 13.956967414555656 10.655692980473102 2 2 1
561 1 28.135058703143642 2.198909721508258 1.753037081641978 -1 0 -1
140 1 4.396082164042974 7.577942899531747 0.8020538253436325 0 1 0
723 1 -0.5519676189708094 7.187553418289358 1.4417873797936167 -1 0 -1
488 1 3.183679821647413 5.762624189754305 2.782303694328367 0 2 3
1258 1 1.4852479649104144 9.577905435658632 0.9929022041712527 1 3 2
1534 1 0.8389024090606461 5.476129585659553 2.0600778506774726 2 1 1
1035 1 2.270695825187147 4.756796926370578 0.6301248308564746 0 -2 1
920 1 -0.1678200895891695 3.5227168114232414 0.805644443072723 0 0 2
1033 1 -0.0438075483006648 5.59898394359258 -0.30653530887176295 1 -1 -2
146 1 26.692865862706256 14.017346509346023 9.95476270792988 0 1 0
1967 1 4.313973781124177 3.9504577261440597 1.855152029329051 2 2 2
322 1 4.337661772177622 10.83999512770397 4.643503347905371 2 1 1
2009 1 5.0889330737142755 6.779409973622236 4.616065357581338 1 1 -1
1313 1 6.098284189017365 5.696408662373534 1.927043040816466 -1 -1 -1
846 1 7.031465559922346 7.76457226723635 0.23639660200212043 0 1 -2
1605 1 6.1542209901875475 10.8771351603951 3.595313406771587 -1 0 1
1516 1 8.0060910849152 5.249217037133509 4.040056798928014 -1 1 -1
482 1 8.49407174511092 6.390209037515998 1.8885449640610097 0 2 -1
912 1 7.539371774317152 3.9578881622694277 2.2644221880463844 0 0 2
1592 1 9.228484742570265 4.325493939736715 0.9785858256840341 0 0 0
1992 1 6.324631515599024 14.024375976496826 13.381942931424845 1 1 -2
311 1 7.6039155092586945 7.301316548955599 3.7067205655528124 0 0 -2
1116 1 10.78168223985797 7.028711687616013 3.34311151294117 2 0 1
1071 1 14.768379082103717 6.892160253678695 3.0506536903894172 0 1 0
770 1 11.997360995472336 8.77545150337225 3.9730159460824037 -2 -1 1
111 1 12.87594190141362 6.0127736570658845 2.1591590248208887 0 1 1
794 1 14.371130721021055 6.836305567495956 0.5349810707262186 -1 0 3
1225 1 10.626127705766871 6.286142705174711 1.0808768947506855 -2 -1 -1
1568 1 14.682523814498104 7.469735883022585 6.0885716852624325 1 2 -1
1980 1 16.476642238835204 7.607571674455311 -0.30971001167708256 -2 1 1
1735 1 13.355100482991242 8.626456868929647 0.7243132850251675 -1 1 0
951 1 16.872456691462396 5.154022148453031 -0.4260968450492288 1 0 1
1920 1 15.653266893360536 9.422004553961674 0.9338256204575606 0 2 1
999 1 17.4818354946976 8.163692099465601 1.8329673536035607 -1 0 2
1010 1 16.662521764372848 6.055430294817059 1.621034198241515 -1 0 0
1809 1 16.709470497237277 6.613079744380609 4.141305393184843 2 2 1
1220 1 18.576399945297005 5.172667324730309 2.8380691096736355 -1 -1 2
1985 1 18.58341375937627 9.385002124458715 0.03968498840878454 -2 0 4
1569 1 16.40315663335106 4.411809122293418 3.8793839499046925 0 0 0
875 1 18.59518548453655 4.39775891727332 0.6131745571362119 -3 1 3
753 1 20.822696801537212 5.004540207117411 3.187593234249192 0 2 0
1680 1 1.9266931695354867 13.74958565888958 6.5977235641628456 1 0 3
166 1 24.267516854711452 5.6491791837845 1.3957573323280341 -2 -2 2
1873 1 19.819263697388735 7.480551688170223 2.778320583907229 0 0 0
1972 1 25.22694279737842 3.262706862069532 3.265314856405113 0 0 0
1078 1 25.567662429594144 8.631773719733749 2.6181829026631678 -1 2 1
1385 1 22.43736270742008 7.089952746403196 2.828758317895086 -2 1 1
849 1 24.085413040877782 7.554530013044184 4.338534498318872 1 -1 1
462 1 13.657416642319813 1.8172081504016417 -0.23796968640180316 1 0 3
1439 1 25.88637920755979 2.5488799774665263 5.420470682001512 1 -2 0
522 1 27.502719728790268 5.985017095999915 0.6776756317459305 -1 -1 0
600 1 27.786099663871063 8.397749197283526 3.5718126862229314 -1 -1 0
515 1 -0.11811344132551194 3.8644771158135196 3.28927998037344 0 0 0
45 1 27.899911890007154 9.363731533868537 0.8368841929525106 1 -1 0
669 1 28.32065175314748 6.179250367930064 3.2281535813112363 1 1 1
1567 1 13.215727602413502 -0.6696167675829727 5.015791682570223 3 1 1
240 1 12.232873934015876 12.437791004533183 0.7294442713216207 -1 -2 0
898 1 25.890082158549127 7.780652239647315 0.1791656821935479 0 -1 1
530 1 2.22183470111341 11.608412107948343 -0.34880888590487485 1 1 -2
1307 1 1.7300736064543072 7.729403029182585 2.274852639550255 1 0 0
1504 1 2.7277217889521994 11.805173350952101 2.007353980658479 0 2 2
159 1 17.448380366961345 14.139470165992016 7.261534266752308 2 1 -1
33 1 -0.46497196125692497 12.20932579575913 3.452084420273911 -1 -1 1
572 1 4.646827052292403 10.331428574968866 1.8619648776316557 -1 1 -1
219 1 6.313622356037229 10.523766671938201 -0.10650200290303857 2 1 2
560 1 6.660316905444042 13.31400464545679 4.296851103733621 -1 1 0
1755 1 6.80383322736836 12.19828853922296 1.2934478235446059 3 0 0
1081 1 12.322868605902313 11.469967735295825 13.379929096522275 0 0 1
1149 1 7.825259490347342 10.129954462549568 1.3216227049391862 -1 1 0
1092 1 4.542987592170125 13.067102903743752 3.2503182996165974 0 -1 0
1165 1 6.152422416868278 13.943710652179007 11.005889393845644 0 -2 -2
379 1 1.9393152682655872 12.239164680567507 4.530643363881137 1 1 1
1799 1 0.2717369167488122 -0.821729099286812 11.225165572775898 -1 1 1
386 1 10.12961337855813 11.575530703761332 0.34341190554560974 1 -2 0
614 1 19.037157560782767 13.814763339956166 8.942642126072359 1 2 1
1810 1 8.251092872467519 12.586738833915529 2.904043749951733 3 0 2
1740 1 9.806304866433903 9.017530495870904 -0.060811085258701825 0 1 2
446 1 1.0837099985587386 -0.13179459682335037 8.678861468583177 2 1 1
1752 1 10.566629039758364 13.92818910343339 2.477079692835448 -1 -1 0
653 1 5.928667081538473 8.307761556366795 2.350065444640409 0 0 1
1368 1 25.848745865539264 13.588173688590059 2.3720655858671056 -1 1 -2
1587 1 20.549254603274697 -0.27392247220448573 0.5397482959211946 1 1 -1
24 1 13.880787350513879 9.206067378494758 3.2899287670181803 0 1 1
2045 1 10.028616356079457 11.229877619059497 2.5888955350753133 1 0 0
1971 1 13.903507956997851 10.736831640387177 0.8257499043883303 -1 2 3
1340 1 9.473816465417263 -0.29360203452860134 0.6428933579301916 -1 0 0
640 1 16.242621617368975 9.420473532737848 3.34260858600601 1 -1 3
1814 1 11.40556515957947 9.771742557512932 1.9375957896725722 -2 -1 1
1062 1 10.623225900357573 13.839094134273001 -0.19025913359134927 0 0 -1
1095 1 20.874758108311056 10.843000445435608 0.4017628218090834 1 1 1
1712 1 17.265394882383376 11.105679661007736 1.4752734163033647 2 -1 0
180 1 21.116139715324564 8.464513161047005 0.42928698571189905 1 0 0
1643 1 16.275023810844914 13.541531964109385 2.6046076788955683 0 -1 -1
550 1 19.30068106462882 12.591619871768383 4.9160439201357145 1 0 -1
1818 1 19.383073670894852 12.526518611366958 2.4471548490943404 -2 1 -1
1245 1 15.280038561174083 11.518957140025647 2.7725071756589044 0 -1 2
98 1 23.669724940748893 13.155514462755585 3.552813248428089 -1 0 -3
799 1 23.371413791877238 9.552144443494019 1.0327957159422296 1 0 1
1815 1 23.395234973028003 11.86812722931662 1.341604324928865 0 2 -2
1218 1 19.301798471517564 9.816487339721938 2.0901465581528242 -1 -2 0
1247 1 21.191209187588385 11.182692211163113 3.4670254506708513 -1 0 1
709 1 21.65333659451926 9.251299904061433 2.7828279129650895 0 1 0
864 1 21.56110829328439 13.030230794861138 1.945683974605335 1 -2 2
1696 1 17.764090501183993 -0.21090061068825294 7.149394423522028 1 1 1
1550 1 26.392005707197505 13.392284073243053 7.573334798785057 -1 0 0
1855 1 0.4366383045558344 11.719975779863468 1.0049489223415298 -2 2 1
1102 1 27.45935056131878 11.576697014163626 -0.6808046075823669 1 0 2
1538 1 27.313056481952913 11.866713177934072 1.7360159173822156 -1 1 2
2008 1 23.4325725109505 10.369731409511386 4.043659061687496 -1 0 1
1466 1 14.8442633950026 4.135947597367983 1.3403100522304814 1 1 -1
710 1 10.697323926380507 -0.7190486231461485 5.112128764695194 0 0 1
540 1 25.55194007590495 11.209095858973665 3.3222738932715563 1 1 2
1795 1 8.442625872501534 13.556985919518056 0.46779622845793845 1 0 0
470 1 1.6124642292569713 2.6646539670108886 4.719541889224299 1 0 -2
1861 1 1.678679980768445 1.024789695501369 10.798502794389 0 1 0
490 1 2.411443432092271 -0.6978157122151409 6.185770566564993 -1 1 3
1748 1 0.23588425421268577 -0.019798283510223835 4.243843689564331 0 -2 1
622 1 0.903344726518942 1.1470866514281288 6.5805776086230665 0 2 0
693 1 -0.2547807401729113 3.4907650076600385 6.3491397130249565 1 -1 0
1706 1 0.8348263120188981 2.8007401826739087 8.611114045047573 -1 -1 -1
1370 1 0.9016122781057765 3.823981082796787 10.550669058492737 1 0 2
987 1 4.171733513713068 2.3460416338307533 6.1596455092251645 1 0 -1
769 1 3.790458756350355 -0.02250115283195042 11.396303434024675 0 -1 0
1301 1 2.879641170291763 1.4065411834373056 7.645392847689008 1 2 -1
965 1 5.856719581214336 4.50895449005331 4.045327281510352 -2 -1 3
545 1 6.326645320969344 0.6223911702838769 7.1791780316232945 1 1 -2
1395 1 4.482720923450651 0.26917499577016857 4.940808752490548 0 2 1
1458 1 5.407100442258217 4.612443828088141 6.572119191478029 0 2 1
1546 1 7.617698281785261 2.6508636984198084 6.743989874869167 1 0 0
1343 1 8.746282736056346 0.5371722126134342 5.77002231641492 -1 0 -1
349 1 10.16042773466218 2.5954284958025817 6.748178728000841 1 -1 0
899 1 8.22314220053503 5.4098183311043435 8.716975452236653 0 -3 1
1767 1 10.719189365703937 0.15216147424068238 7.335905015340481 -1 3 0
1403 1 8.76221241523667 3.0475451430186506 8.937536249505706 1 -1 0
1528 1 5.369770596243702 2.0939940352412427 8.356711262771787 2 1 -1
1415 1 13.208158165181525 0.8181693082269119 8.169499444801813 -1 1 -1
697 1 13.309900973536834 3.6050605398273357 8.858940481877827 2 0 -1
2015 1 12.509087137374113 1.2799996829758928 6.017509141213641 2 1 0
633 1 11.417799237254865 2.103732819810832 8.650449923325827 0 1 0
1042 1 14.873757192034564 0.5776927857977365 6.823052975500157 -1 0 -1
775 1 15.291977333209347 2.194762079335482 8.654380334383962 3 -2 1
122 1 14.365939160336909 2.8071503111284164 6.810746403750288 0 -3 -2
2034 1 22.811958469235904 4.124305062384057 12.966823029947005 1 0 1
2042 1 20.590305427175295 3.251713336074273 4.510298176493302 1 3 0
1083 1 18.780864780440474 1.7578345758193663 6.345220609016572 0 0 0
1903 1 16.078163662679934 1.9998234739293816 5.280748096643166 0 1 0
1204 1 18.860405224390796 1.2560501365613561 9.202348924674899 1 2 -1
220 1 20.49644799833427 0.503283305163799 7.34808959349472 2 1 -1
956 1 19.109136568017007 3.531895200325761 8.374523142135844 1 -1 1
783 1 -0.6553291291304149 13.357395766850692 0.2540906483849068 0 -2 1
494 1 20.39395491125194 0.607170853856859 3.652458165668981 -1 -1 -1
1211 1 22.14941884473211 0.9480904861967088 6.0165503970396985 -1 1 -1
1908 1 23.15303495618155 2.508092502744969 7.613230286887063 1 2 2
617 1 20.627426690216524 2.7940674503172636 7.155174038765523 0 -1 0
1314 1 13.769764518551433 13.936421175181593 2.271279111377283 1 0 2
1700 1 24.415975437569713 4.250118653087469 7.6041240604140174 -2 -1 1
564 1 26.662645619628904 3.8775038119758776 7.420926201436634 -2 1 1
1170 1 28.33447033594571 2.8739189416179105 3.768111192295617 -1 1 -1
1561 1 26.093220292690837 4.912089509614874 4.74590378370167 2 -1 -1
1606 1 -0.700820662565647 5.55347824397126 5.347297052782323 1 2 3
1464 1 26.936770142653707 3.6992172121687794 10.77033492810081 1 1 0
1179 1 9.383529300389842 9.727856375401744 13.896551245400772 0 1 0
1539 1 1.4472692128372024 5.366338890931441 4.443600188482952 0 2 1
1813 1 2.3251618153754006 3.8709667748658223 6.97404573510895 1 -1 -1
325 1 3.3659905216257373 8.66512019231279 5.744311985197858 2 1 2
2047 1 2.286119650644506 10.066096444985865 2.948905854250212 2 1 3
1843 1 0.8201797914116984 8.414949344197261 6.396582726552772 0 0 2
1857 1 0.29584471345078533 10.2651698787237 5.0255947254960125 -2 0 1
504 1 3.1965329473087163 6.660292389697804 8.543995146645296 1 -1 0
339 1 0.8804424532486339 8.389825215436687 10.60700465022956 1 1 -2
929 1 3.8164271917235073 8.43519881863823 3.431557312699299 1 -2 1
147 1 5.505157266816374 6.801245357090525 7.499199850335611 1 1 1
1898 1 8.699310556663077 9.868417443179077 6.8643621654091564 -1 -1 1
2023 1 4.832703369925041 8.825224525177772 8.435938240305653 0 2 -1
908 1 7.299906152303262 6.703882729101578 6.009085653433077 -2 -1 2
907 1 4.761551378778126 10.55110238931766 6.755934768051916 0 1 0
56 1 3.3873160836383915 5.870548878640661 6.152676761007127 0 -1 0
382 1 10.280883006176264 5.226348806469819 5.7949275376191824 1 0 1
1148 1 9.294624351809798 7.093477956831484 7.363978700880402 -1 2 -1
1779 1 8.077689773901445 4.772705286626339 6.431714048459709 2 -1 2
1126 1 9.219891603071186 8.423804573069098 5.119869453983384 -1 1 -1
595 1 6.5854374383461485 8.855780537884323 5.716003038804555 1 -1 -1
1310 1 7.439316277129789 7.96517171412188 7.88978419202078 0 1 1
1950 1 10.374312661688013 4.667717654105511 8.077808541524032 2 2 -3
451 1 9.347125864857745 7.681401641569769 9.548838997795038 1 -1 1
151 1 11.433233902264696 6.810279491230668 8.33451165133379 0 -1 -2
1640 1 12.648735733026445 5.962595013519007 4.649973993301494 0 0 -1
1743 1 15.324701371219382 7.807124739770908 8.761873442826415 -3 2 -1
1548 1 17.404612787303805 6.090946957123379 6.382310940606353 1 1 1
1553 1 11.784659576467973 7.398617787303442 6.001548301339456 0 3 -1
1590 1 12.460633718388467 4.3028152457607 6.926307745394542 1 -1 0
90 1 14.914220375020813 5.126354235776185 7.832159270863121 1 0 0
1462 1 17.379961146628318 5.297870334202202 8.774315264643793 -1 -1 1
475 1 18.580277240812435 8.956908485565684 4.140697390953087 1 2 0
1219 1 17.885015035688888 10.994255573216751 3.778808984629383 -1 0 3
576 1 16.802157580440856 8.53578671241854 5.651506864939819 1 1 0
994 1 19.849374117410825 5.477227041381877 6.747374253398951 0 0 2
795 1 17.212033842931746 3.1589171644050182 7.159243934609284 0 1 1
1620 1 19.48629203120103 7.803715040117762 6.627322076021517 -1 -1 -1
962 1 18.248812113185657 4.19347812501612 5.361179184751149 -2 0 0
359 1 17.46172946492333 7.763725054944446 8.060674376775243 0 0 -2
1761 1 20.45937423494572 3.0765755146305778 9.994607144576664 0 1 -1
1442 1 19.419516342205064 6.29303014822079 4.61507759179494 -2 -1 1
1195 1 20.863683253760236 8.91341841712035 4.980819950931344 -2 1 -1
1628 1 22.054717906598256 4.212550022413811 5.924909132011238 -1 1 0
17 1 21.43454678827778 5.639020956449275 8.599046547571175 1 1 -2
1207 1 23.219821247704488 3.886841910630034 4.114627198423254 2 0 -1
858 1 22.132714880488244 7.041459914018026 6.324962305683239 -1 0 -1
336 1 21.556227277919348 8.950835810251725 7.593053538619305 -1 -1 0
1011 1 25.458865544072978 8.378434376531922 7.211108847192868 0 -1 0
701 1 23.249238298180963 9.29515063339398 6.152644920068908 0 1 1
559 1 25.55233868355689 5.1402591416849095 9.374661448188444 1 1 0
1176 1 23.896267888178386 6.530080000818626 7.965470503216471 -2 1 0
1951 1 0.35040899854850194 7.494024735705992 4.27973126760465 2 2 0
862 1 26.11548433976489 6.56287461450964 3.095894653874791 0 0 -2
1549 1 23.815434988704673 5.650469276362445 5.358922373941976 -2 0 0
820 1 26.48651692154551 7.294532604355364 5.166474111583048 0 0 0
1318 1 28.049515156501542 9.864601144065404 5.892726339624618 1 0 1
1157 1 26.122690942532124 5.858225395908571 6.876429504052341 -1 1 -2
1469 1 25.410992908878555 9.733397556248207 5.126835837656297 -1 0 2
688 1 28.734987040610356 7.50641593587987 6.418922376553952 0 1 1
1647 1 -0.26174629556618223 8.24331055899078 8.71427507085291 0 0 -2
1864 1 9.549433282943522 12.71486011709049 13.989100329792223 0 -2 -2
332 1 25.98627803488622 8.48730147468645 13.315499659560164 -2 0 0
813 1 1.0440463951215517 10.800839154268992 11.008881631122245 -1 -1 4
1320 1 -0.07331291303228016 9.706847624616152 2.888571011037732 0 -2 0
468 1 28.679936795015678 12.434758467347397 8.243421511013658 1 0 0
1975 1 -0.1372932142985822 12.616104252065744 6.00613161174453 1 2 -1
918 1 1.4051810113086112 12.395452746872802 9.49177680307883 0 0 0
1193 1 2.195385896841348 9.080963513241977 8.416701939249451 0 0 -1
208 1 20.09319292576611 11.178556474978492 14.076070269783928 1 -1 0
1882 1 6.72861475271171 10.322463154695141 7.974999375265471 0 0 2
855 1 5.095543446680124 9.689383437564056 10.535070281536859 2 0 2
1256 1 15.258391022862101 5.604356662668504 13.00721047725256 -3 0 -2
1058 1 1.9621485842582893 10.589798204098507 6.505455551210925 2 0 1
552 1 5.581705687828845 12.150293337747257 8.917362905523161 -2 1 0
301 1 6.264543552118906 12.367505006562505 6.388939636139628 2 0 3
893 1 3.9794951819848325 13.131970896110557 5.792726040680418 0 4 -1
201 1 10.941272916878122 9.266559043246763 7.377753245572679 1 2 -1
501 1 10.56705218823175 13.00062864070247 4.717468960763112 2 -1 -1
1390 1 8.50976617775796 10.280779733622435 4.139309850206695 0 1 3
1835 1 9.21888087151092 8.602946560645064 2.6144863468480746 1 2 2
53 1 21.44669626313417 13.78403930749903 7.745536744704477 2 -2 0
435 1 10.688440308478395 11.673916286592855 7.385377299417462 0 -1 0
377 1 11.030593979283957 10.712197586483931 5.498559219487937 2 1 -1
904 1 7.779148861941712 12.555645110996364 8.54854533333065 -1 -2 1
350 1 9.289297257724197 10.498777476548202 9.450676289858052 0 1 1
764 1 23.685092417348883 7.45675178739609 -0.6940907956329403 2 1 0
296 1 12.588798701445256 11.778150242086625 2.8779330220290307 0 1 1
381 1 13.579760204778504 9.286049442339444 8.183172768135053 -1 -2 4
1883 1 6.0055013964456085 3.446437462530181 12.941695319127096 1 1 0
1531 1 28.865680723950096 10.985514657830576 12.698987529530005 0 1 -2
1430 1 22.71661707528989 12.081464623280985 10.188477405054375 1 2 -2
1585 1 13.292451554243483 9.783021850741685 6.037930313362305 -1 0 0
772 1 15.233532111058581 10.71700999041991 5.317111299038548 -2 -2 0
1045 1 14.929004001815883 13.233050346621646 6.772852861655026 -2 -1 -1
486 1 14.555285794769798 -0.4785031987566545 2.9006464647717833 -1 1 0
1705 1 7.772099746268886 4.773505048941215 13.368846563568248 -3 2 1
861 1 18.61270249675568 10.088953294870292 5.997644608046661 0 0 1
1839 1 16.887772223984427 13.170252820209496 5.164451699326883 1 1 2
1509 1 16.190548774052175 11.108480040795921 7.203571664125299 2 0 -2
1015 1 25.94458312619728 9.968537754467894 0.47834304030064523 -1 -3 2
1131 1 15.105316933902623 11.050671058012199 9.28540442591062 -1 -1 2
1927 1 19.52076897849213 9.55330660375981 8.416672884775535 -2 -1 2
193 1 16.639664720259027 7.5820431912295 12.80995436172713 0 -1 0
1891 1 9.858370878320114 12.939789590073113 9.636094668310928 1 -1 0
1153 1 23.7139912437081 11.975736531327325 5.8525484382966 -1 1 0
434 1 23.73821639419115 8.531842449894219 9.079708537218785 -1 -1 -1
715 1 21.94212226695248 13.742421187315395 5.220283720962874 1 1 0
255 1 18.144888382089327 11.824524379886887 7.2579028831516865 3 -1 -1
1763 1 16.260601674463807 9.476808269132906 14.094533496168221 -1 0 1
1248 1 21.384284707919328 11.541417114523126 5.987633217090003 1 1 1
1508 1 -0.15248025952274724 10.375847148183 7.697738266984603 0 0 1
523 1 25.94291212661343 11.094520959937197 6.92214524699435 0 0 2
900 1 24.14291703131748 10.382776488884238 10.403591589616253 -2 -2 -1
2024 1 27.590506149450597 9.329294391669626 8.030093766432696 -3 -1 2
1124 1 25.79436620463111 13.158895595123079 5.181526883268803 -1 -2 -1
1560 1 27.6609077412231 10.86970260348622 3.7359284564328137 1 -1 1
1727 1 26.554323546447705 11.674184477657244 9.461896425799157 1 0 0
473 1 0.5108963725099076 2.1915044954719747 12.494406222550056 1 -1 0
1039 1 0.949527713472125 -0.6688745919737088 13.62536906664129 -2 4 -1
1974 1 24.74018020718556 -0.32473867116288835 13.889371801272471 -1 2 0
1386 1 28.696212720402464 1.2176920841928123 7.912214947904889 -3 1 -1
1099 1 3.3829981174554895 4.427926423195936 11.87498809458642 0 2 -1
808 1 26.806662565224954 11.089650668827058 14.037508078229397 -2 -1 -1
1372 1 2.2942449629696413 6.009727500420843 10.906422196540412 1 1 2
2005 1 -0.3935039438413976 1.6190482323845656 9.993792956680588 2 -1 0
531 1 28.885301321088733 5.711917478370459 8.08489299837531 -1 -1 1
496 1 5.59705707937148 -0.17525585016720424 13.527043804196454 1 -1 0
397 1 4.369916985155788 2.101140317175635 12.343585355476058 1 0 -1
1906 1 5.912324477954224 1.405809297185106 10.582758738428904 0 0 1
853 1 9.992763848766998 -0.5964308189267098 11.49641703500238 -1 -1 2
1673 1 4.240306281911028 -0.15440715855514986 8.995372221745875 -2 2 2
1781 1 3.3867029657295324 2.460029846393684 10.417211105636582 0 2 1
977 1 6.169878742867109 4.318192011200398 8.587891236358907 2 0 1
123 1 25.53649432808558 13.725432777313342 13.311638360281888 1 0 -2
721 1 28.33215465270532 1.478578297564253 5.546289418122448 -2 0 -1
890 1 22.252214657280568 1.5478420035133467 0.7504214597981078 -1 3 1
970 1 9.462851859024456 0.7970793116926982 8.994062316006804 -1 0 -2
1612 1 -0.5965983829406178 -0.7824519880654127 6.414808504439699 2 0 0
1410 1 8.085636142377265 2.6385263940511052 11.800524120622569 1 1 0
1638 1 13.231512493903283 -0.23047995672653854 12.40424998068377 -1 2 1
1281 1 1.2190446026856039 10.79323022462164 13.667909985995392 -1 -1 1
280 1 7.589227085534706 4.674261778860887 11.030833017156228 0 1 0
479 1 13.449574693652487 5.219038085405939 11.64397427733991 0 1 2
1591 1 5.828493187781205 5.6965690229309915 12.539841261579557 0 1 0
133 1 9.600432426919355 2.8129862403920347 13.278862965299822 -2 1 -1
534 1 7.813191545620921 0.2792532020934211 12.270642140403769 2 0 -2
326 1 23.7033274506322 -0.2675556722778173 -0.5394400423441865 -1 -1 0
1521 1 13.448978287791828 1.0932400619534566 10.624037588345637 0 -2 -1
1845 1 15.180381732830378 3.204221572904194 11.006006550935583 0 1 1
1731 1 14.820639396789375 1.3983003144135706 12.45227097634559 -2 0 1
943 1 10.144336229865182 1.6496887931232682 10.96517268814846 1 1 0
1323 1 16.90754305982098 0.8944592801219808 10.850702674662163 -2 2 0
1940 1 12.309094805166549 3.304449915821813 10.974913770718892 -1 0 1
1503 1 1.861779132203492 7.426113778627705 0.05075887267338097 1 0 0
1077 1 8.351979008687996 11.969697167986412 6.0227452098674945 0 1 1
308 1 20.8338080589891 0.4449617851315353 11.119740762832347 0 1 -2
961 1 22.261765008934717 1.317508605889461 14.05195135235331 0 -1 1
54 1 14.126955074498502 3.3932489008393967 13.4666858087511 -2 1 0
516 1 12.646687784149533 -0.1618432280583103 0.25994995480439953 -1 -2 2
360 1 23.250975691958764 9.381124232748068 12.361060489856127 -1 1 1
1910 1 24.292468801581187 0.3521461192110271 7.655869439918593 1 0 4
1520 1 19.04480992767128 -0.4173662522061941 12.11859676545989 0 0 1
623 1 26.78760095959268 0.1562904196490934 1.3932603976902942 0 0 1
8 1 24.835137167150876 12.874118754025957 11.280823730538437 -1 -3 1
438 1 17.331378910599547 11.757479817344704 13.52437914636633 -1 -1 0
1138 1 22.562425352601004 2.0472231225516566 11.594163596025584 -1 2 -1
1499 1 24.526475664789906 3.799436907548249 10.961539365066157 0 1 1
1921 1 22.9896724035926 3.393057657750882 9.484527964346025 -2 1 -1
1040 1 23.560701412828635 -0.03504491097608309 11.80819637173623 1 0 -1
1649 1 11.788965476927654 -0.1960604169648974 9.531772252886272 1 -1 -1
1088 1 22.49315166290178 0.6312968621612518 9.196011927655519 2 0 -1
1501 1 21.57243178761707 5.072014701829692 11.217634821762108 0 2 1
403 1 27.161485000671632 3.735375071610691 13.69312840652986 -2 0 -1
1885 1 27.48463327580768 0.8259571154915701 10.183011619981697 1 1 -1
461 1 26.071298352600977 8.952939742079298 9.76964553937035 1 -2 -1
1925 1 25.86630861337541 2.0896703749507393 8.59906697437588 -2 1 -1
1373 1 26.52148792509209 0.37312956570775047 6.863269536404301 -1 1 0
1615 1 3.3248732475099985 12.759402839621947 8.260110806846976 -1 1 0
297 1 28.500252023282293 1.2593932557927734 12.498909456292667 1 -1 2
1586 1 24.548990935517445 2.051634066926913 12.95847621992364 0 0 0
366 1 25.141745029358034 0.5770698624316903 10.220924239088706 -2 -1 1
790 1 0.8525745008984551 5.443619406957428 7.468556014661697 0 -1 1
1013 1 3.7143567447649604 4.5446849394969275 8.952738168773935 2 1 1
285 1 1.7189073556493764 6.02045654966051 13.91002843856228 0 2 0
368 1 0.9493490430336133 8.532030734442309 13.103212681893272 1 -2 1
1375 1 3.3747743506223973 8.348083641053627 10.338347527310171 -1 1 1
1117 1 7.927028479407049 7.144068766238826 14.151120745455623 2 1 1
1234 1 6.588636060343083 6.91006621422022 9.698519803644373 0 0 -1
778 1 3.5440716986472145 7.458106940173218 12.536470875986282 1 -1 0
589 1 4.628207833383647 5.943245774545335 10.285702349620621 2 -1 -2
915 1 5.510299406303101 3.5046381066406056 10.636338897065363 1 0 1
863 1 5.6272676017033945 7.944737286059503 12.141501137219606 -1 2 0
566 1 5.0314968662743835 10.353407731500381 14.000548387529534 0 0 0
1253 1 1.504128120130642 13.773680762967015 2.3907184199129383 0 1 1
139 1 11.113233217371555 4.689507716168248 13.015224833018584 -1 2 -1
1852 1 7.7199708656318204 9.084775716228322 10.690319153700534 0 1 2
843 1 9.781520594546025 3.9833460345685214 10.945696451860616 0 -1 0
1559 1 8.003651423851927 6.720300175465887 11.59542454197345 -1 1 -2
2033 1 11.293072819623157 6.51879286588862 11.313005464618916 0 1 1
1800 1 6.397226369825085 12.936715890154025 -0.6138630732475729 -1 -2 2
695 1 12.495173001309494 6.606959463125761 14.153298892321232 2 0 1
43 1 15.643596627093222 9.41381587649665 10.680976687770874 0 2 -1
1765 1 11.984009388017874 6.596226903714358 -0.5617360942136295 -1 2 1
526 1 17.161645375468865 3.522549953269766 10.081880649670817 0 0 1
1479 1 23.588036648714393 11.245932128021915 8.00023115717025 0 0 2
1609 1 13.716599367324656 6.4648373282485085 9.264174141439048 2 1 2