LAMMPS data file via write_data, version 29 Oct 2020, timestep = 300000

2048 atoms
1 atom types

-0.39349969401201434 28.745499694010512 xlo xhi
-0.39349969401201434 28.745499694010512 ylo yhi
-0.39349969401201434 28.745499694010512 zlo zhi

Masses

1 58.933

Atoms # atomic

35 1 1.7454530661498664 3.359048583662295 1.654471358572783 0 0 0
130 1 1.227571234957484 1.5224280234304104 3.391479024230576 0 0 0
165 1 3.2864791725373115 3.055827024742854 3.3160689163471497 0 0 0
8 1 3.1254560690603497 1.3853982616152833 1.5382608628206733 0 0 0
141 1 10.674938910756794 -0.35381888682833207 3.0301421810037534 0 0 0
4 1 -0.23976697442159128 1.7217198466894708 1.4546055434895526 0 0 0
62 1 26.734424769447614 4.71778800365147 -0.3063792214742728 0 0 0
70 1 4.9511291455993325 8.722506890775621 -0.19343116655574097 0 0 0
12 1 6.903797320462127 1.2214651682214512 1.6159829524920526 0 0 0
39 1 5.1016471546976945 2.7785976994104415 1.7939976175328103 0 0 0
134 1 4.612459685926049 0.9616663391957825 3.856774430318084 0 0 0
169 1 6.662891619629334 3.431093724182475 3.5735698412181374 0 0 0
1309 1 24.890269962189446 13.79523800735937 6.809616630070952 0 0 0
38 1 4.7675388708071385 4.815969504754674 -0.3376653916593843 0 0 0
139 1 8.689933263155481 -0.10688151102759386 5.111064375504098 0 0 0
77 1 10.533655894900162 6.648075310069736 -0.11704329689683213 0 0 0
16 1 10.526774816995214 1.118359305278249 1.3814956090755641 0 0 0
43 1 8.908528772667443 2.8253514921025147 1.363030075324898 0 0 0
138 1 8.878300631359137 1.309586959167672 3.2572287519358323 0 0 0
173 1 10.497662469307535 2.909880209235573 3.1336295291562872 0 0 0
47 1 12.810205740740004 3.056616388613833 1.240763388337995 0 0 0
510 1 26.68398733985959 12.211077149710631 10.662702006331514 0 0 0
37 1 3.1470305962180123 3.3786975137363497 -0.25184146880034797 0 0 0
142 1 12.440371437633752 1.5208108303346835 3.1972010226402103 0 0 0
20 1 14.861600091452647 0.9473909551143074 1.3001675589579165 0 0 0
177 1 14.486248443066737 2.801801870567364 3.210526407434086 0 0 0
146 1 16.34553160579036 1.4891052124692985 3.4735435884730292 0 0 0
51 1 16.14642072682897 3.29272852614069 1.1107621634948457 0 0 0
1283 1 1.1402461035073932 13.747752335180884 8.685994556363982 0 0 0
1409 1 -0.3907986475289347 13.769980197425504 10.603956358179271 0 0 0
1557 1 17.529746518700414 14.136579530719779 13.756266444388837 0 0 0
155 1 23.394103305457083 -0.10163090506971895 4.770517095855236 0 0 0
24 1 17.97787057765197 1.8580852131338048 1.5016239713629405 0 0 0
55 1 19.752144006694362 3.1707045517718266 1.179809330602972 0 0 0
181 1 18.20990789867512 3.7136813125285846 3.2258453690592095 0 0 0
150 1 19.454160741014604 1.2263347508009799 3.080210806924409 0 0 0
267 1 8.690261771622113 -0.37994183041723767 8.415446291607523 0 0 0
1427 1 15.960116022788654 14.156227794613226 11.750244150313533 0 0 0
152 1 17.838287835890483 1.3921931458691363 5.236923663837243 0 0 0
28 1 21.50728190842581 1.2866542274929158 1.3313645453649576 0 0 0
59 1 23.54622325430944 3.2953820192521692 1.695936622201076 0 0 0
154 1 23.198043108779828 1.5165580214901626 3.0982170528833692 0 0 0
185 1 21.31616602641761 3.2136802144686856 2.880920019433913 0 0 0
263 1 4.979389011287782 -0.39295244274716623 8.770503530035642 0 0 0
161 1 28.52370856929503 3.2705534236982947 3.43388497801947 -1 0 0
32 1 25.164074621584334 1.319179020362806 1.2910868041438623 0 0 0
189 1 25.32180507279442 3.3669156051210196 3.2614095367988867 0 0 0
63 1 26.804463364146415 3.0154005551007796 1.417859058380261 0 0 0
158 1 27.069595801175467 1.2909890706864515 3.129606231602094 0 0 0
1153 1 -0.39226039323406425 14.05741595098895 2.8119219193493192 0 0 0
511 1 26.907251217356343 10.3231218352173 12.413400668418957 0 0 0
162 1 1.3841691455342526 4.91860182447958 3.252087029674415 0 0 0
67 1 1.3123998499266054 7.054882477321094 1.5209435873864765 0 0 0
194 1 1.5116430508348437 8.941520683582299 3.161267786625217 0 0 0
40 1 3.375039133500497 4.989781472558666 1.8972643632997652 0 0 0
197 1 3.2362174375040462 6.842243095228505 3.3923163749829137 0 0 0
72 1 3.53344939444918 8.696057332885541 1.6735170158775352 0 0 0
36 1 -0.3084069530455604 4.945020437736232 1.2946602319555431 0 0 0
44 1 6.931408917201738 4.815820798661382 1.47319866947397 0 0 0
166 1 5.280860250118201 5.165376304582455 3.432977408051563 0 0 0
71 1 5.1931896166807086 6.736367334310923 1.4191264961054537 0 0 0
201 1 6.778396058871471 6.820201724312825 3.348857303909275 0 0 0
198 1 5.151222546264359 8.608281275691118 3.0528527594321986 0 0 0
76 1 6.9412322592877 8.26105540872362 1.3089299212785015 0 0 0
1161 1 7.0392221852930446 14.028183920819497 2.8052836685882996 0 0 0
261 1 3.281576913665637 -0.14296136609106153 7.098223527730244 0 0 0
393 1 7.00697807781623 -0.3135300555049536 10.18160156619637 0 0 0
48 1 10.973065161627673 4.552335358468362 0.9387130983108101 0 0 0
75 1 8.910785731093583 6.49099177937067 1.5355184648858233 0 0 0
170 1 8.752709711261812 4.9085827994047495 3.173591515911956 0 0 0
205 1 10.459329067772078 6.511447178221278 3.1858694824252347 0 0 0
80 1 10.583859194770593 8.768745567217318 1.5697622472458688 0 0 0
202 1 8.592252709997828 8.548638648084523 2.9780592384545628 0 0 0
79 1 12.55029483690948 6.654974742463159 1.4797425423552257 0 0 0
23 1 19.58678622840591 -0.3838984899994138 1.4874436258799029 0 0 0
174 1 12.511383423079572 4.539671226932178 3.1854307610078387 0 0 0
206 1 12.635661467577153 8.564813508860418 3.0683718751535767 0 0 0
52 1 14.454776338826187 5.137674631984334 1.5951495619716023 0 0 0
209 1 14.030503887336522 6.9434191933379665 3.1694053359111525 0 0 0
84 1 14.004226378323642 9.027849070970296 1.3440465664513281 0 0 0
178 1 15.934515090094791 5.1312425443709815 3.2343455519240156 0 0 0
83 1 16.013350586867688 6.947193004665988 1.1228250150400654 0 0 0
147 1 15.671746177740697 -0.21609341227852685 5.265256156296037 0 0 0
210 1 15.937659926681548 8.345507914043404 3.037530960155536 0 0 0
182 1 19.893368331327324 5.153882087418562 3.1324092530110095 0 0 0
56 1 18.03523168469922 5.331070847152069 1.2052784909596035 0 0 0
87 1 19.776904634226533 7.059486070125274 1.239752523246381 0 0 0
213 1 17.792319311556334 6.72146891715992 3.0214034810083965 0 0 0
88 1 17.799256286042564 8.816651311871471 1.2667125923963334 0 0 0
214 1 19.49781348458306 8.878907401056079 3.055789757624009 0 0 0
1307 1 23.186434312474955 13.895567906685084 8.909965766011075 0 0 0
60 1 21.17495104001296 5.068608822288292 1.231550600869943 0 0 0
186 1 23.494152677811076 5.009818480947535 3.4671324541176434 0 0 0
91 1 23.267938086677567 7.043477861366979 1.404616663196153 0 0 0
217 1 21.658100874485594 6.613257556178418 3.2168106702514883 0 0 0
218 1 23.329398902831795 8.951515961982455 3.404013274406869 0 0 0
92 1 21.641336194045863 8.905669475479886 1.5479323632487005 0 0 0
66 1 1.665203375576111 8.782846519064407 -0.2955430291793044 0 0 0
68 1 -0.1908239058148731 8.905754935789817 1.4976245232371888 0 0 0
193 1 -0.3474624168324298 6.8459162985786435 3.269903883652619 0 0 0
96 1 25.285235094954594 8.187739107970573 1.603155981750011 0 0 0
64 1 25.133856438917398 5.189866483017746 1.698242549007845 0 0 0
221 1 25.204200759963193 7.022144210015779 3.3201101280289396 0 0 0
190 1 27.067798125828155 5.118012003441096 3.330307870967705 0 0 0
95 1 27.118158137486645 6.449062916708921 1.2913840030580532 0 0 0
222 1 27.058483950389096 8.48731777383603 3.42963942077284 0 0 0
143 1 12.430796314970712 -0.11884501170203099 5.139860726169562 0 0 0
622 1 12.082375519783705 12.316697624982423 13.840035951794485 0 0 0
617 1 6.6989809000388325 10.68797140951675 14.104081932876836 0 0 0
99 1 1.6222755332260288 10.542043163611218 1.3262621034661528 0 0 0
226 1 1.2037891654187058 12.355075810808156 2.987544214963722 0 0 0
104 1 3.2777504469392933 12.529908376166048 1.3902715566740746 0 0 0
229 1 3.6990954973698518 10.709764027652687 3.1145185157192414 0 0 0
100 1 28.66784640665527 12.156579709275448 1.1735619213621726 -1 0 0
225 1 28.544027181811884 10.325613453100669 3.1543921929529097 -1 0 0
273 1 14.112483736028086 -0.18025559844062755 7.013673050061593 0 0 0
578 1 1.4989316279768956 8.748166839602622 13.942481664762628 0 0 0
131 1 1.5571006570392902 -0.17835446158649468 5.173773924006382 0 0 0
522 1 8.569697141895968 1.00319401156232 14.018390241920828 0 0 0
103 1 4.923972770240112 10.678907892000835 1.198084566900707 0 0 0
108 1 6.7636152168882395 12.170626302426722 1.021374019307049 0 0 0
230 1 5.220567910268823 12.467205542197533 3.285688356043409 0 0 0
233 1 6.8045505172509095 10.636328508547011 2.8698030458717954 0 0 0
405 1 18.04333222456462 -0.28295776071142403 10.527718445249755 0 0 0
558 1 12.414442952942933 4.7959899702472075 13.68254218393845 0 0 0
107 1 8.97010835292642 10.600337720984163 1.4533712861817698 0 0 0
112 1 10.768510780318865 12.334369728403852 1.1713385392331082 0 0 0
234 1 8.83124976028283 12.491890206597821 3.0667388008936025 0 0 0
237 1 10.601416411647277 10.39182283057348 3.5089277333974183 0 0 0
238 1 12.14086584624907 12.379471374991837 3.0801776649040735 0 0 0
9 1 6.429062091410335 -0.15851365410944415 0.09518198377011766 0 0 0
512 1 25.098108214129105 12.216454574462551 12.403944130651649 0 0 0
69 1 3.3995452529496863 6.698553458161676 0.03323365438544701 0 0 0
111 1 11.924855390311766 10.275250595391057 1.3205591818859879 0 0 0
116 1 14.1721575335924 12.147306113871153 1.5669887926388943 0 0 0
241 1 14.221391378481306 10.727228895735163 3.5128611788242634 0 0 0
242 1 16.093352349595776 12.345165236750388 3.3896355110017278 0 0 0
509 1 24.81539806708176 10.509065892289982 10.551972509419596 0 0 0
1411 1 1.6136170532958172 13.918770306948653 13.14055613259082 0 0 0
54 1 19.4064897650571 5.283633558706845 -0.37022089385295437 0 0 0
15 1 12.692963688215615 -0.17453574495890165 1.5208301187287383 0 0 0
1179 1 23.34088959293414 14.156459874917525 5.0746401345160335 0 0 0
31 1 27.557075274618988 -0.3359566057901656 1.3174514002779418 0 0 0
115 1 16.22926985921162 10.435674409810515 1.8123967682588318 0 0 0
119 1 19.665075886017895 10.554405055723013 1.1344227990278202 0 0 0
120 1 17.76467859770304 12.275703070278054 1.2322030678801883 0 0 0
245 1 17.839141020318596 10.450663513655948 3.224826687896476 0 0 0
246 1 19.845637565988653 12.358277373758307 3.2273557445367733 0 0 0
7 1 5.090698775476154 -0.2505402919318801 1.910602746879964 0 0 0
123 1 23.37845181178546 10.412927309002818 1.2721896235308494 0 0 0
124 1 21.64394131788508 12.320655675828256 1.0659731636485756 0 0 0
249 1 21.494293974172823 10.44947414335323 3.1684556264785897 0 0 0
250 1 22.86167263367877 12.515879170257 3.3654046542832425 0 0 0
283 1 23.197215492298664 -0.09854925281148336 8.539529693890163 0 0 0
626 1 15.941542705971845 12.427784316124058 13.943593059036619 0 0 0
275 1 16.145523158502 -0.3649077365994611 8.688330157955944 0 0 0
253 1 25.441633597712325 10.283645507250267 2.8529360928765795 0 0 0
128 1 25.1732539849501 12.073852949908325 1.3346157650293293 0 0 0
127 1 27.094534278808055 10.333666604005645 1.2542986315351476 0 0 0
254 1 26.856416817253454 12.032378123379976 3.026528028232373 0 0 0
554 1 8.840562964526862 5.12127933477326 13.903712891544538 0 0 0
81 1 14.071679088738595 6.822665392221807 -0.3097210124126621 0 0 0
136 1 3.087719281357712 1.890329121659751 5.397259577798851 0 0 0
163 1 1.1419317173845647 3.306237203307466 4.9903985934732455 0 0 0
258 1 1.1501109487104468 1.5682050682394222 6.724546597710243 0 0 0
291 1 1.1941984622963469 3.077630939543218 8.593064656369219 0 0 0
293 1 3.4243555595257202 3.3889673427920144 7.241953314590459 0 0 0
264 1 3.042883121383995 1.4668454371836004 9.025009686129506 0 0 0
132 1 28.557149653481336 1.2612370672967912 5.431453729237128 -1 0 0
289 1 28.52739244617463 3.454926725979907 6.849365556571779 -1 0 0
1163 1 8.986669137641957 13.884874540149237 5.12105698655012 0 0 0
484 1 -0.22065007898316083 12.115625458180789 13.045957187734013 0 0 0
1299 1 16.00585669405236 14.078428076662085 9.208586037858279 0 0 0
167 1 4.950561322657872 3.3351110241915505 5.281078659107055 0 0 0
140 1 7.0394795434001844 1.4051194121501769 4.748528072129842 0 0 0
262 1 4.9074132172211895 1.184693840863887 6.438448326548318 0 0 0
297 1 6.592398763563132 2.9877137503009004 6.540641872586377 0 0 0
268 1 6.78093502059607 1.3511589317904786 8.27922674160375 0 0 0
295 1 5.005549782961507 3.085799256868147 8.671743265673085 0 0 0
397 1 10.556184671749321 -0.299836695405606 10.475609592084316 0 0 0
1435 1 23.41499863309678 14.054998193840856 12.29351255252041 0 0 0
630 1 19.574790845684817 12.48663617483778 14.038992616929109 0 0 0
144 1 10.407791261716183 1.5940587546233222 5.198241779443901 0 0 0
171 1 8.365642024223785 3.015417472925435 5.1318930062708965 0 0 0
266 1 8.72500514845139 1.7244285308560108 6.988912219133152 0 0 0
301 1 10.485508770374864 3.1982235112339 7.295615087736474 0 0 0
299 1 8.580792489715671 3.4962746551361996 8.772407823898384 0 0 0
272 1 10.54188534800014 1.1747266431639107 8.820148924839664 0 0 0
269 1 10.452838593488774 -0.07963296567520822 6.865929470355559 0 0 0
507 1 23.212895178929294 10.550309612539849 12.467654787247195 0 0 0
175 1 11.962322262544186 3.2341094080068857 5.370336575786596 0 0 0
270 1 12.279766531217964 1.4908771942843544 6.9932023369294205 0 0 0
303 1 12.592632087036229 3.043165880214564 8.805060432218497 0 0 0
148 1 14.398263007487662 1.7175391678206133 5.043671754716071 0 0 0
305 1 14.006292142272693 3.1555886389317034 6.67935893859312 0 0 0
276 1 14.758646992611252 1.4350253637215131 8.488303495696327 0 0 0
307 1 16.078190729173652 3.4433700500624234 8.618137087624051 0 0 0
274 1 16.23939595145473 1.9986625006766299 6.74558438077151 0 0 0
179 1 16.212338162646887 3.257348267921313 4.8541443779787485 0 0 0
505 1 21.494337506481788 10.62694686581263 10.531663542824107 0 0 0
1181 1 24.92112588236338 13.99519321999302 2.896544242595738 0 0 0
183 1 19.61854517349598 3.058548641441795 4.804564598373782 0 0 0
278 1 19.467710103447686 1.1471472385196766 7.08569336480453 0 0 0
309 1 17.930334997007872 3.580798171732091 6.457494519477633 0 0 0
280 1 17.548955865589882 1.7116753211026978 8.74635883439085 0 0 0
311 1 19.33779614512992 3.1560818050331627 8.570121424861838 0 0 0
1431 1 19.82851007197194 14.041131065689067 12.58081772860707 0 0 0
506 1 23.076134340188567 12.031388899708855 10.245325565054719 0 0 0
145 1 14.2106914513484 -0.36334454261550775 3.5520144378545178 0 0 0
187 1 23.232985581919557 3.1908396046568446 4.858214442541696 0 0 0
156 1 21.434013195288347 1.2759825325271181 4.920369291958842 0 0 0
282 1 23.175942611349598 1.6853765201387438 6.803795391345678 0 0 0
313 1 21.14857538464286 3.2596908521139456 6.839746858486508 0 0 0
315 1 23.179678246123455 3.0878226898462846 8.647069874233992 0 0 0
284 1 21.268226443427945 1.2829670321755655 8.533983855993378 0 0 0
508 1 21.763309511200276 12.436114376650632 12.207861479354085 0 0 0
1421 1 10.465640962723523 14.054456469699689 10.737490583763426 0 0 0
18 1 16.568357401322285 1.5414251651042372 -0.34989046579046035 0 0 0
260 1 28.52693998634817 1.2909786874364484 8.714846470414033 -1 0 0
191 1 26.842031346209335 3.099409209661296 5.2691733734114985 0 0 0
160 1 25.21993341858963 1.457153335361366 5.0275945311464785 0 0 0
288 1 24.947084811419952 1.7145191847241725 8.727515993419125 0 0 0
317 1 24.977737950714747 3.0054128409577494 6.661709229353199 0 0 0
286 1 26.960195731212742 1.2871637548566137 6.998553986416828 0 0 0
319 1 26.917454732122184 3.2532334579351385 8.997067785383846 0 0 0
290 1 1.423926817160613 5.046170449128104 6.797064164886455 0 0 0
195 1 1.4431297407850507 7.066357029785818 5.160029327729899 0 0 0
168 1 3.1068571129652414 4.991018389787021 4.939014311574378 0 0 0
322 1 1.4454347020839797 9.029965182280185 7.274780508170541 0 0 0
328 1 3.10251499778738 8.659568785128034 9.104344395952474 0 0 0
325 1 3.0498146599376 6.9555104890382955 7.226567464222963 0 0 0
296 1 2.8814435641540754 5.145753703713341 9.095045118886226 0 0 0
323 1 1.3963264355042555 6.893322125969713 9.211446396339843 0 0 0
200 1 3.1627613257798126 9.039129202239014 5.344216273587519 0 0 0
164 1 -0.3249981934659705 5.250492220177031 5.344187507214313 0 0 0
324 1 -0.39110122894818034 8.780452219447033 9.115908020186179 0 0 0
196 1 -0.2720474101335289 8.645677329229898 5.245505288253967 0 0 0
172 1 7.175412382640871 5.312856962164552 5.300619700850565 0 0 0
199 1 5.109886833464786 7.144235890265771 5.21714432448804 0 0 0
294 1 5.021598361807209 5.268997129807234 6.900143721329021 0 0 0
300 1 6.840530983207677 5.180651615951835 8.864272522252348 0 0 0
329 1 6.6988705445651675 6.89094305306966 7.0622357136901694 0 0 0
332 1 6.839885521816248 8.447835962406575 8.812973955189408 0 0 0
327 1 4.9331095176388855 6.9682029230628615 8.617053513685178 0 0 0
326 1 4.767602434841926 8.741128250553563 7.155530982048164 0 0 0
204 1 6.963756378856029 8.768760142159847 4.783515772808586 0 0 0
203 1 8.784284654199626 7.110891881308996 5.225905576020771 0 0 0
298 1 8.949336119638444 4.974525275309812 7.21627794467689 0 0 0
208 1 10.970490438269668 8.64398624629266 5.081626645972314 0 0 0
176 1 10.10077939271033 4.747433103925079 5.15158285910761 0 0 0
333 1 10.579509816637584 7.219407655804097 7.162349732512274 0 0 0
331 1 8.71368845162804 6.9038522957784405 8.632735947469193 0 0 0
304 1 10.778136454466171 5.073418324202374 8.920824580305084 0 0 0
336 1 10.657567705337957 8.967027705099287 8.903211576335595 0 0 0
330 1 8.754156178971666 8.84396135521946 6.9331050626025545 0 0 0
207 1 12.025119409139384 6.6409194033161345 4.759020720388263 0 0 0
335 1 12.297738810087967 6.924563231413462 8.900753243356306 0 0 0
334 1 12.720974085035069 8.684969807232378 6.882810281124908 0 0 0
302 1 12.220470784817339 5.196196012552649 6.7949413313756075 0 0 0
180 1 14.214317724497986 5.518857391826166 5.021828546516147 0 0 0
212 1 14.2306531404275 8.745083637570637 5.146202965666545 0 0 0
337 1 13.907687393719208 6.917038144719011 7.0403517670135125 0 0 0
308 1 13.97773126697364 4.92557980954148 8.365557654446064 0 0 0
340 1 14.240812687288946 8.52548284481484 8.81601898993292 0 0 0
339 1 16.175136738170256 6.950866692653337 8.99071864981151 0 0 0
211 1 16.079708984036976 7.081046096766049 4.918708403435177 0 0 0
306 1 15.75013467202718 5.208644572340795 6.604461409004467 0 0 0
338 1 16.126996970679098 8.718609334724228 6.827674916339539 0 0 0
184 1 17.81848557501713 5.271703564359114 4.789715397060964 0 0 0
310 1 19.587876858989215 5.402743012324072 6.412366372785292 0 0 0
341 1 17.777860300772115 7.057509537798607 7.000357303075863 0 0 0
312 1 17.781095959751283 5.0190940582995465 8.339519143544685 0 0 0
342 1 19.681274116990632 8.21690978722407 6.7675865057060225 0 0 0
216 1 17.664193026212214 9.001306693765004 5.09109979962253 0 0 0
343 1 19.547832074855627 7.175338070638741 8.998621735140166 0 0 0
215 1 19.672315319898757 7.10622464040879 4.425375769303812 0 0 0
344 1 17.781482751274066 8.730269987809542 8.63966551350417 0 0 0
314 1 23.353827305900275 5.178712514004172 7.042496805105112 0 0 0
220 1 21.294534532377636 8.770243916966141 4.767169884459915 0 0 0
188 1 21.637903390824864 4.8366120073156065 4.8923083312682465 0 0 0
219 1 23.4211235540199 6.911478180978367 5.218949703088401 0 0 0
345 1 21.48738667122793 6.754866250709314 6.511408189782202 0 0 0
346 1 23.179659452469913 8.954818715357185 6.744831937250288 0 0 0
347 1 23.3535026396298 7.1762575714749195 8.609307843047365 0 0 0
316 1 21.15969053196804 5.113082797711908 8.465340326238508 0 0 0
348 1 21.43441662559944 8.568916470323213 8.661169736941531 0 0 0
292 1 28.447938462492793 5.324588053062572 9.122243733297015 -1 0 0
321 1 -0.21500110223456262 7.129879551371366 7.163103111754865 0 0 0
349 1 25.131731950190737 6.961515152166433 7.2406235263789815 0 0 0
352 1 25.158362097507244 8.684811518745905 8.864388986582368 0 0 0
224 1 25.13215989209675 8.679668265645224 5.133194758018022 0 0 0
192 1 25.077774903979805 5.201346470034822 5.145682284800816 0 0 0
223 1 27.149971712957473 6.90339249872687 5.246995738707945 0 0 0
318 1 27.03078285373924 5.201254247817216 7.124588727592109 0 0 0
351 1 26.879981218954267 6.993320193175223 9.066244270057197 0 0 0
350 1 27.0593344273838 8.6158855706626 7.252752951051164 0 0 0
320 1 25.14617313458858 4.838642780187233 8.474944229389342 0 0 0
232 1 3.2023667705710173 12.654146301122315 4.856220242486354 0 0 0
227 1 1.5909327004931098 10.560394971837995 4.851195391417977 0 0 0
354 1 1.005082609729268 12.10811990783829 6.743727244318021 0 0 0
355 1 1.2397908836861242 10.880641047157297 9.026044523097356 0 0 0
357 1 3.2052469421703425 11.008183405008571 7.163868820833316 0 0 0
360 1 3.6821189998650423 12.75483625217243 8.688023601926384 0 0 0
228 1 -0.24819567263849818 12.060561939593352 4.867422343920224 0 0 0
122 1 23.370597284170262 12.619205766229465 -0.32821492080767267 0 0 0
1281 1 28.687807385447297 14.1744126598843 6.905078385270146 -1 0 0
542 1 27.154844314489175 1.4607027486182271 14.164694790846971 0 0 0
499 1 16.347382291969044 10.577444574510716 12.43574751926865 0 0 0
236 1 6.974430297289143 12.170154614849492 4.985454761872921 0 0 0
231 1 4.983683173043643 11.014326900666761 4.933293020038812 0 0 0
358 1 5.240910788854212 12.497929209327397 7.027344559566816 0 0 0
361 1 7.008184773429125 10.775661184657165 7.033500869293665 0 0 0
364 1 6.6812981262641715 12.596974204255853 8.772960849438114 0 0 0
359 1 5.403613595935845 10.43644507167042 8.595009030208463 0 0 0
1413 1 3.3031724571394703 14.055606029961307 10.715010529968257 0 0 0
501 1 17.593996373700403 10.636037310770137 10.678816663382433 0 0 0
235 1 8.61963314504917 10.669831334045007 4.943225880128723 0 0 0
363 1 8.54126474567098 10.449888163593181 9.132163792406102 0 0 0
362 1 8.821524984589999 12.314769599007226 6.9654909075439315 0 0 0
240 1 10.534127798421386 12.305062619465936 4.97162921425745 0 0 0
365 1 10.632900558577253 10.503070266668452 6.543010090408182 0 0 0
368 1 10.498815650776107 12.249684750836144 8.940846880009385 0 0 0
504 1 17.72743152672784 12.406870313644083 12.401834547364905 0 0 0
1311 1 27.039256034263992 13.832447581548557 8.972072570273696 0 0 0
58 1 23.068550854467528 5.256695121201854 -0.23559130436786432 0 0 0
366 1 12.330113539991393 12.625704733816237 6.772312274126199 0 0 0
239 1 12.545803930776216 10.799311934004324 5.0242492525502325 0 0 0
244 1 13.972785916628451 12.903700771762717 4.9265621990534685 0 0 0
369 1 14.192889145150874 11.131077662464255 6.634400445935602 0 0 0
372 1 14.471087711926069 12.297972051491227 8.795602446054726 0 0 0
367 1 12.47937585162853 10.48308437538779 8.835627330868034 0 0 0
370 1 16.012241835221666 12.710999290149156 6.798083714664222 0 0 0
243 1 16.084327159749428 10.729077279141201 5.271803079662714 0 0 0
371 1 15.782790878238437 10.429793594863733 8.628468498249196 0 0 0
247 1 19.803882474066683 10.612812818948003 5.295849733526554 0 0 0
248 1 18.13276177282213 12.265794577317278 5.281809574896895 0 0 0
373 1 17.56314804361926 10.572531272878162 7.04046995984271 0 0 0
374 1 19.498029797951933 12.575552021890603 7.187972083480517 0 0 0
376 1 17.78495806151882 12.404028452583178 8.848075867653971 0 0 0
375 1 19.41318178604269 10.833492397802141 8.728585075488947 0 0 0
11 1 8.736529728289513 -0.3905145008361582 1.3404725570736944 0 0 0
380 1 21.235965592337372 12.386098603344447 8.802591064039525 0 0 0
379 1 23.057962531544913 10.512918000609718 8.639624295253505 0 0 0
252 1 21.206788921968915 12.735281580425637 5.529436897556984 0 0 0
251 1 23.03693013665427 10.868308237268044 5.164091665144864 0 0 0
377 1 21.411911191263993 10.509980379528136 7.00921159630946 0 0 0
378 1 23.160762070629854 12.532089774319285 7.095974573629139 0 0 0
356 1 28.29556708880356 11.971223249649238 8.838490553768718 -1 0 0
353 1 28.72036027737288 10.447539517145556 7.05691825157054 -1 0 0
384 1 25.039363404936886 12.290909535734077 8.523107047380162 0 0 0
381 1 24.90640545311718 10.68083394718136 6.610745170368558 0 0 0
256 1 25.110853433679157 12.238593728235006 4.7571868349592155 0 0 0
255 1 27.16676333150557 10.407045480853931 5.019500606835452 0 0 0
382 1 27.029590994666435 12.163372519060658 6.694004391944374 0 0 0
383 1 26.78893739557096 10.292614048956402 9.079996480561867 0 0 0
502 1 19.652090829579176 12.42139990013159 10.763069653769918 0 0 0
105 1 7.028097027734598 10.296050824067612 -0.2952102232742517 0 0 0
94 1 27.18319303198133 8.593619961679732 -0.2983271889483582 0 0 0
386 1 1.3207989202255686 0.8794206698293754 10.203463987621705 0 0 0
419 1 1.6342348656568877 2.8714577524688574 12.472522037543122 0 0 0
421 1 3.2226691988024734 3.1527571473722946 10.593779945708343 0 0 0
392 1 3.105367184494921 0.9773476363128544 12.324379068705163 0 0 0
417 1 -0.3105381301981463 3.0118090327576343 10.47279420775724 0 0 0
503 1 19.409153921353134 10.721794873560597 12.234980867103395 0 0 0
1043 1 15.754584790147998 14.020040391218467 1.4142754952813437 0 0 0
390 1 5.393283838533617 1.2924262441826186 10.612182930841136 0 0 0
396 1 6.76846961072623 1.2616041708839707 12.451596975161486 0 0 0
423 1 4.87131962859219 2.949919289996057 12.302889618525725 0 0 0
425 1 6.886788972329042 3.184262611198579 10.595189960940486 0 0 0
407 1 19.48497198095901 0.012554068919162165 12.367973836569144 0 0 0
1183 1 26.86818178947407 13.66449307487552 4.8036067006192384 0 0 0
113 1 13.651223885430133 10.7827380496376 -0.1891558996760956 0 0 0
561 1 14.062544199108585 2.798217998236574 14.010534650518625 0 0 0
394 1 8.530479311358917 1.4724326760508868 10.506927043921253 0 0 0
400 1 10.269792052486482 1.243797248543181 12.21588362621644 0 0 0
427 1 8.535734352359203 3.0460472739789313 12.385877530831046 0 0 0
429 1 10.602629097375962 3.171082487211685 10.171409077667237 0 0 0
1047 1 19.636121500373505 13.872696925805242 1.1410205348234415 0 0 0
398 1 12.514614092344829 1.3877459375118228 10.833009469304674 0 0 0
431 1 11.965736126430501 2.8865341851804356 12.686682313734975 0 0 0
404 1 14.731477497025432 1.0822420992139379 12.59760474649335 0 0 0
433 1 14.007691524866383 3.3939698332801305 10.911780474031325 0 0 0
435 1 15.926096081569028 3.747889292816666 12.514687487559831 0 0 0
402 1 16.17640075265253 1.4865970606388221 10.734383377237974 0 0 0
1425 1 13.864330186931117 14.121408268226933 10.59977194129044 0 0 0
259 1 1.3143352350722073 -0.3569683030563304 8.371059078447963 0 0 0
1293 1 10.287714002660314 14.141603722377509 7.255668902387059 0 0 0
74 1 8.761164242521561 8.52667032764764 -0.1118823701880941 0 0 0
406 1 19.580131839965397 1.2995435511684796 10.217764963976496 0 0 0
408 1 17.652517989177216 1.3646481112449291 12.228492173877537 0 0 0
437 1 17.82399069834737 3.5978275945090643 10.603229493147305 0 0 0
439 1 19.52723737525012 2.75240753170413 12.155983211287797 0 0 0
1295 1 12.145904104018513 13.953487469075355 8.92242146736991 0 0 0
410 1 23.61348484988803 1.730776898341945 10.689861399648267 0 0 0
412 1 21.49696549409764 1.4483619713696774 12.354462728282058 0 0 0
441 1 21.471578709828204 3.074212807630992 10.470673943841332 0 0 0
443 1 23.298902895545744 3.5152499786870774 12.425124282807175 0 0 0
1159 1 5.568895864676469 14.024239466311137 5.203313255006685 0 0 0
153 1 21.449163964585633 -0.38770271558506075 3.1854186110534934 0 0 0
514 1 1.200904128884952 1.3947920745036109 13.94259971491469 0 0 0
61 1 24.71135460900972 3.497126431950596 -0.12260443105575941 0 0 0
388 1 0.03321155564512818 1.2991114249134232 12.185919905206864 0 0 0
416 1 25.166652956593836 1.7010616024510923 12.498997392801913 0 0 0
445 1 25.112625003898515 3.5435458962279656 10.537347253225391 0 0 0
414 1 27.11188881106338 1.2101513022189327 10.639935364859909 0 0 0
447 1 27.173019330264598 3.107846741890133 12.377111227728479 0 0 0
585 1 7.037211589762591 6.703173915412515 14.119860119326907 0 0 0
498 1 15.861162877018995 12.22646998680043 10.805546440610536 0 0 0
418 1 1.5014805309278556 4.9035514667373 10.931597496329564 0 0 0
451 1 1.623235156283453 6.876476782530247 12.589086485733494 0 0 0
453 1 3.586704608370152 6.629039920895764 10.509480695005514 0 0 0
450 1 1.2220946299205042 8.922631846932175 10.9182657644757 0 0 0
424 1 3.4154314964158874 4.8498818994515425 12.993396812757174 0 0 0
456 1 3.217813601085591 8.720090594414692 12.104114368657635 0 0 0
420 1 0.005748424451469669 4.581276607851812 12.656019545468222 0 0 0
428 1 7.200168183795138 5.117758684439488 12.278367948647585 0 0 0
422 1 4.99653747497841 5.052461623768938 10.252505666269924 0 0 0
455 1 5.000609792779805 6.634238046176665 12.295955766819676 0 0 0
457 1 6.8850321591558785 6.68042801586985 10.762862263568007 0 0 0
454 1 5.081354338163636 8.641628547220346 10.602894532806003 0 0 0
460 1 6.798992373858016 8.67725872468428 12.391901147214458 0 0 0
432 1 10.429989661021066 4.86399637358867 12.112764595013077 0 0 0
426 1 8.703262884598828 4.854475124648634 10.540774485359481 0 0 0
464 1 10.455219036106135 8.833961636516024 12.268502685401865 0 0 0
459 1 8.938996722126438 6.951429407642172 12.2557055692259 0 0 0
461 1 10.511572892509621 6.835376248816055 10.422879320988198 0 0 0
458 1 8.719029251154076 8.513265336136753 10.33282865730169 0 0 0
462 1 12.552178112906809 8.520070543395844 10.525483902274427 0 0 0
463 1 12.029254408742755 6.7162137045825006 12.191156161281327 0 0 0
430 1 12.270959248160521 4.893059167884746 10.746625247332641 0 0 0
467 1 15.973796406684276 6.694419532470616 12.228508658262893 0 0 0
465 1 14.15545233023969 6.548133756594118 10.385789926393361 0 0 0
436 1 14.199406255067194 5.013613084457036 12.666479441758437 0 0 0
468 1 14.601420820365709 8.498490799824468 12.198341449752382 0 0 0
466 1 16.05033411789923 8.634068931322753 10.667082704060517 0 0 0
434 1 15.812721120669124 4.863721679194811 10.56316373499839 0 0 0
541 1 25.25340113731201 -0.18633822026031455 13.988968597759056 0 0 0
440 1 17.81031731107541 4.978161062381653 12.716371864929723 0 0 0
470 1 19.551943663914432 9.151000345469901 10.3507045829522 0 0 0