LAMMPS data file via write_data, version 29 Oct 2020, timestep = 300000

2048 atoms
1 atom types

-0.7620915671432726 29.114091567138715 xlo xhi
-0.7620915671432726 29.114091567138715 ylo yhi
-0.7620915671432726 29.114091567138715 zlo zhi

Masses

1 58.933

Atoms # atomic

976 1 -0.23522790204696575 3.101732654422795 2.5810927412853406 0 0 1
929 1 1.2683201674881737 -0.5470717601159986 3.3993868977109702 0 -1 1
1961 1 3.6534792748218123 3.2062302278766537 4.65593340676934 0 2 1
10 1 1.773175052064011 1.726655302385577 2.689954427868135 1 0 0
1743 1 20.62058641045609 -0.48277832848733393 9.467508848986247 -1 1 0
550 1 1.2253366139771475 2.7530452610581495 0.5287759318557395 -1 0 0
1245 1 2.4898067819288783 4.958639581453582 -0.7133188195392646 0 0 0
1621 1 3.6254842305922583 2.4039477195327525 0.42985536056410734 2 0 2
978 1 4.357455034110222 0.8632482341989023 4.03165913599235 1 1 0
399 1 7.112154718781554 3.681659723086785 1.6516049261830972 1 1 0
139 1 6.715716766089702 2.2605328413694146 -0.22292978370803707 -1 0 0
653 1 5.556077253898161 2.16845939283238 2.5058818935759812 0 0 1
140 1 6.6051663945883075 -0.09982971992318934 2.3071239374556827 0 1 1
619 1 8.04144809537899 1.6203010129338522 1.4560460237344066 0 1 0
874 1 10.133864822085227 3.0474370925919954 1.6140513241277938 0 0 0
1098 1 10.441141970071243 1.1140717679399723 -0.6861331939610192 -1 0 1
1049 1 9.857316607042474 1.541265354118205 4.345440059417228 1 1 1
579 1 12.42560673117692 3.241621701423745 2.8403844196155394 0 1 0
825 1 11.77984730346529 2.835398845650637 -0.07499845338651467 0 0 2
1863 1 -0.41800134760215585 7.142988353106615 -0.4467463474365304 1 0 1
1301 1 13.442499764896116 0.4854265346156921 5.200858545963868 1 0 -1
495 1 15.358653604763358 3.4745383158284806 2.5281473336752165 0 0 2
780 1 20.860260679355573 12.704977630094499 11.229629709325295 -1 -1 0
1550 1 14.108477204856866 3.728644003662028 4.301479804230729 0 1 0
1726 1 14.87292428717704 1.3172893044345395 3.2223782476018816 1 2 1
999 1 4.80933241582246 -0.7003604413722234 6.979056410869625 0 0 1
1711 1 15.14341079025115 1.9256778422658445 0.25822261860945606 0 1 0
332 1 27.034962241677793 3.19060922942069 13.216296083627302 -2 0 0
1698 1 12.622665280299765 12.433717987712916 -0.4334005063766567 -1 0 1
997 1 17.43146315608837 1.995330714476351 2.2543956915086087 -1 0 2
1907 1 19.662200550725842 1.3612273889358382 1.7587718100229845 0 1 2
1935 1 20.452798212405547 6.041610998339276 3.5430684858547465 0 0 1
1780 1 19.11618188508193 2.8059475063745642 3.842756265732204 0 0 0
1367 1 26.24409437352817 -0.45465633573747544 10.082739131268976 0 1 0
1866 1 17.50999585159511 0.2239564315147098 4.148645611226994 0 1 1
295 1 23.26625497337513 3.00939151961696 1.5133489839545247 0 1 0
1617 1 24.310729343217822 13.660781255480112 4.0128354336103245 0 0 1
354 1 22.222081299303152 3.5022026613722383 3.6714893945761355 -1 0 0
404 1 24.489035320113818 4.990192008767264 2.059285745761702 -1 1 0
1875 1 22.441077804916908 5.172721956371442 0.9709138308280116 1 1 1
1311 1 25.610742370777626 2.079014200641305 0.8198013165578149 0 2 1
692 1 25.808603770324556 2.6940590890858176 5.125866825643242 -1 0 0
1942 1 1.7865811675981185 0.5504211213419747 0.5148315331639364 0 1 1
1175 1 21.670782546596794 1.0447624639758604 3.5968682238048757 1 1 0
1700 1 23.55927080903405 0.7948135185991165 2.137430584937957 -1 0 1
1901 1 27.655370219643487 2.304411918439585 3.799146951461603 0 1 0
1199 1 27.392527100324394 4.158919718896172 1.9597661148166692 0 0 0
421 1 29.100455727587697 4.289107837939994 -0.07159069691607778 -1 0 2
1523 1 25.617653403959668 4.493535182421834 0.19468124945657195 0 2 0
1339 1 23.366512935366003 1.6169180787246389 -0.37206939631645036 2 1 1
809 1 -0.08906239555769924 0.5508537597539473 1.724125949962076 0 0 1
1190 1 28.0258331429726 1.9557428399392642 1.3774984886289463 -1 0 0
209 1 0.5113332531531953 5.425427213153614 3.868339459693563 0 0 0
1876 1 0.8458287478564903 5.31812904123296 1.197971146894101 0 1 0
1477 1 2.2301459936236396 3.88826120653884 2.700710053438768 -1 1 0
318 1 5.037443936974423 5.63673791834154 3.8269069037263836 1 0 0
1047 1 0.5418750030934434 7.916215104744678 2.1171226670179166 0 0 -1
616 1 0.9347515645810109 10.706388085279393 1.5965583095706846 -1 0 1
1368 1 2.0498087492094035 7.196179937978657 -0.04814204604842165 0 1 0
722 1 21.256764027388893 0.18959640108720344 6.891711411476014 0 1 1
2035 1 21.104888016554785 -0.46181837506426426 2.0513399852775267 0 2 0
937 1 6.196626728843905 3.9259893035522433 4.118136066851114 1 1 1
798 1 3.675550997900591 8.542867945999104 0.5782909313239886 0 0 -1
130 1 9.20925815042699 5.450773099192854 13.61929292186758 0 0 0
1154 1 3.277503284857368 6.240535983268483 1.59666046386976 1 -1 1
1663 1 9.13386676624766 6.3371091615461825 3.107729982678723 1 0 0
1067 1 6.476904851305543 5.884333242974214 1.8172368078890222 0 1 1
94 1 5.796424172822301 9.331589729631117 0.269796364983689 1 0 0
14 1 5.209499133434343 7.654118461607439 2.552845146799306 1 -1 0
298 1 4.558838978809044 4.302160468295082 2.1706926317881745 0 0 1
1788 1 9.251816163321156 5.201781501083605 1.343745288755553 0 1 0
289 1 9.579615929848487 9.263469729081445 -0.09925943591707609 -1 0 -1
1427 1 12.46293778866984 13.57004651863152 9.742818898046698 0 0 0
1675 1 9.697587219294984 6.458930057102791 5.507635179999805 0 0 2
1053 1 8.129979256656583 13.783614179855938 3.715229580110903 0 0 0
29 1 8.503129969878927 3.270095122131309 3.458367136875287 0 -1 -1
1929 1 7.808095085505631 7.6680220843453135 0.8966368061244587 -1 0 0
528 1 10.309421759751595 4.721578306836384 3.849487258116917 -1 0 0
190 1 13.776216534469452 5.350042738426762 2.9446197168622086 0 -1 0
950 1 11.783432047421822 5.061899223364339 1.2842053593305667 0 0 2
1482 1 14.231731882322569 4.158464547252598 0.7042426736685032 0 1 1
1125 1 16.774718966940853 4.46276428046146 0.6903481342960778 -1 0 -1
1670 1 13.55447660101965 6.841007185275141 1.0502525727458056 0 1 1
1275 1 14.712588079239334 8.142848536515915 2.348347453180151 1 1 1
762 1 16.174342126153753 6.4943651133573495 2.1667483626440225 0 0 1
1406 1 13.680407822467998 10.016409601153244 0.5301706720927375 1 1 1
268 1 16.197114748074334 5.093026612621964 4.2292692679306985 0 -1 0
1853 1 20.578621892885103 3.796270145562069 1.9523216695251833 1 0 1
746 1 16.18910921306765 8.491773057879373 4.504544533136589 0 1 2
431 1 5.489667915659965 13.776283864498732 2.3916879926398784 1 0 0
1118 1 18.273408164055624 10.169454906757124 3.265010484372894 1 0 1
1450 1 18.52811712940034 6.8889046827613125 0.821942636925614 0 0 -1
98 1 1.768028718374488 12.871867921673946 1.8710275393812292 0 0 -1
1013 1 20.858236180949095 6.8482169150541115 0.5595466251094858 1 1 1
1691 1 19.42197088307498 4.806900834367094 -0.025577316782948056 0 1 2
622 1 18.348113686777616 5.055568282813943 2.9882399579534398 0 0 1
1215 1 21.104688731759452 8.391832736078522 4.270512786493136 0 0 1
475 1 22.95869181950156 9.046861673524026 -0.09972655178694545 1 1 1
1000 1 24.973112649252688 6.484110115022622 -0.13810118562696283 -1 0 0
221 1 20.890836195590275 11.411645654600173 0.891771604381336 0 0 0
1140 1 21.219060578488573 8.825886124734934 1.8364687652880547 0 2 1
1185 1 24.66752060026548 -0.5107930565826334 11.860054372807074 0 0 0
1606 1 23.425849051411657 7.48376679344311 1.3617694248424104 0 0 2
891 1 22.805779864430086 6.265246731258251 3.187482423314671 0 0 0
142 1 28.906195386940247 6.052587712292605 2.381728292824955 0 -1 0
106 1 27.32889573831501 6.1122102120646415 0.33508206961774567 0 0 1
951 1 28.686256350262376 10.069734487963931 -0.013963175762324087 0 0 2
1998 1 25.654914919042906 8.873850039002114 0.17600199594108024 0 1 2
342 1 14.407675634832497 0.08406744480714001 14.090917035720993 0 0 -1
1379 1 28.023719142342674 8.35729699113225 1.1554837944105472 -1 0 -1
362 1 26.298624458577866 6.967242702145215 2.4026589292115785 0 1 0
1299 1 28.357316460903544 7.860124866745517 3.696671977211791 0 0 0
1979 1 23.654881511177212 8.880187885694301 3.2979981839877173 -1 0 1
1605 1 1.8313241104950015 11.086842629925254 3.6734920860001026 0 1 1
1106 1 0.9679625448040221 9.097919137313864 4.086636872245552 0 1 0
514 1 3.760871216345567 12.096127084592592 2.776869692073138 0 0 0
1991 1 3.841434367564034 10.920054583887591 0.2968801453480925 0 1 2
1145 1 -0.4064359227051464 12.471790455210764 1.5347773332754366 1 0 -1
1440 1 0.4446996358044921 13.895574349226502 6.46838438465927 1 0 -1
1613 1 3.126042237922516 9.347617730030025 2.7505520023752066 0 1 1
1789 1 27.68492907349805 13.29016073477695 11.369359782086372 0 1 0
1062 1 29.06478182986841 9.960320563703602 3.2233356090182697 -1 1 0
888 1 8.560886026564528 -0.626077219873657 0.42196517914619025 1 1 1
758 1 21.011327072491586 -0.29513876475862655 12.98384056931492 1 0 0
1874 1 5.236296875752902 12.708791104890572 -0.07477680579485557 0 1 0
2014 1 5.192615057434899 9.486221154036057 4.249546204990622 0 0 1
1820 1 6.104681033543421 11.335033301189014 1.7220344736627298 0 0 1
100 1 6.866806099717958 9.50382166087471 2.4591988681707093 0 0 0
46 1 7.784091884738997 10.97274831619246 0.0958749264616443 -1 0 0
853 1 7.657256191030502 13.079668316424264 1.496860801480024 0 0 1
251 1 8.213749921908615 13.1291947979694 13.58106351570257 0 0 0
1046 1 6.853634822230997 11.606558914361672 3.955074094824049 0 -1 0
869 1 10.075399484247018 12.486921209240668 -0.36774295048009625 -1 0 1
1766 1 9.936429754826538 13.812446722545664 2.1720128613688057 1 0 0
117 1 26.82047711630462 13.457519111173012 8.78671145857099 0 -1 0
1541 1 8.935214822614107 11.069940680153596 1.8416984652970574 -1 0 1
1139 1 10.429035846733106 7.401814571785952 0.9506600742415798 0 1 -1
1487 1 9.09229517880407 11.928421411711058 3.8833396212695446 0 1 0
1096 1 24.9087918810753 -0.21631284090464264 0.5111967038257246 -1 1 1
1271 1 20.14414073980642 9.221067785862706 13.856678766911074 0 2 0
252 1 0.6276726337987728 14.029558639822584 3.397238379995536 1 0 -1
2003 1 11.922305697117729 9.00926890691283 1.4293511450360836 -1 1 2
770 1 16.632816921385963 3.266741452255083 13.26632828096042 -1 -1 0
711 1 -0.281812233640145 6.1388414295638745 13.794243834156974 0 0 1
1958 1 14.26669796865039 11.409699617817564 2.658094823943568 0 2 0
963 1 15.16731871641302 12.373023261305525 0.8245513181918365 -1 -1 1
501 1 11.935842063512068 12.429954258766209 1.791653776923222 1 0 0
813 1 10.104596613215564 0.2137139176551095 2.285974049437537 -1 -1 2
630 1 2.7767610131903586 13.989489546585071 6.571551914271163 0 0 0
1040 1 19.14203636538498 12.164712509804124 0.23141028423250298 1 0 0
673 1 9.606847844133654 0.5660440418703667 11.125005693898673 0 1 0
143 1 18.959939862552886 0.48066078003777846 -0.4217254543007077 0 0 0
1937 1 19.384019696014242 9.314682658828804 0.46916763330054434 -1 1 0
2029 1 11.685324447744675 -0.2056109513235561 7.659252794095172 0 2 0
641 1 21.774448415297613 5.733685920496504 12.787992163593575 0 1 -1
719 1 17.2902462180859 11.050800159137543 1.016949853942243 -1 1 0
1544 1 17.298617315547524 12.88259304617294 2.340461297243407 0 1 1
2005 1 24.13500185870398 12.984892390432302 0.4466760351755834 0 0 1
1023 1 4.530371552523304 5.7407119104964535 -0.14969821220370771 2 -1 2
1467 1 20.804473226629124 10.571586501855547 3.4128341983039716 0 0 0
859 1 22.694196903961547 12.345312692306049 2.1852922837630877 -1 -1 2
1457 1 14.0876155413225 -0.3019100081327585 10.69878178142222 0 0 1
1279 1 16.840081357078528 8.917853561996994 0.0012422509804255188 0 1 1
1316 1 23.80431920784124 10.396323061605163 1.6084656041313234 -1 0 0
1464 1 27.4438521619078 10.4138960466573 5.1199449414795986 -1 1 0
414 1 27.524181323042068 11.144676967581564 1.918776517344 0 -1 0
866 1 25.427004098641365 11.210358503782105 0.0423372844708676 -2 -1 1
133 1 25.83506293901425 9.649500240846802 2.4855784171598754 -2 0 0
1681 1 25.24009843634317 11.707036917120549 3.373791166341963 0 1 0
1402 1 22.88619923823998 10.65298887811255 4.185408152951319 0 0 1
863 1 28.848468148324613 4.652244652039111 6.826239700171166 -1 0 1
957 1 0.09922039582004472 3.522103161232767 5.083005134526032 0 0 1
958 1 2.292959281155889 0.6570952374838002 9.934244166623523 1 -1 1
1668 1 1.486663278553245 2.888162758728481 8.812286686505928 0 1 1
1448 1 2.2723667172357507 1.386326703373344 5.407733197969146 1 1 0
1460 1 1.3782636931595884 5.533831818941847 8.20831795562391 1 1 -1
860 1 -0.6013793348976892 0.7601874011015499 4.413047960242871 0 1 0
376 1 0.4267850633364896 1.787219391649784 7.107622952766333 1 1 1
899 1 4.7545585303059 1.5049705679903669 6.2093859409279375 0 -1 1
1580 1 2.7221713558813017 0.7235594598192598 7.506803183489316 0 1 1
1682 1 5.701136583744222 4.08958552120037 8.42180179432478 0 -1 0
812 1 7.032353625492223 0.17313258651834473 6.504817238731247 0 0 0
1044 1 2.228916116291051 3.477303890807427 6.470114862108413 0 1 0
1478 1 3.864646353379027 2.3082302552990654 8.644936821514532 -1 1 0
955 1 2.384107608688348 13.46344790484593 4.391943172911477 0 0 0
132 1 6.7536367842838905 1.2294302637343122 4.486048722426943 1 1 0
852 1 6.504109467946336 1.759097855951806 8.206558411408958 1 0 1
37 1 9.678007189906568 3.5402802517656156 5.930917639067511 -1 1 0
1905 1 19.745885794637847 4.5003827147104305 13.27305654496166 0 1 0
1829 1 12.407499051921473 7.809955014493696 -0.46062682914888214 1 0 1
1488 1 12.481584300595141 1.1347764284554782 9.838876035772815 0 1 0
1107 1 9.05382178989899 1.20238320666524 6.606298314422881 1 1 -2
1176 1 12.501132343741913 2.359076645648431 7.488365760168437 0 0 0
1240 1 6.9494460356777665 2.87773486541546 6.235845395092822 1 1 -1
1459 1 0.5699368835259027 11.664749310336875 5.409843002600698 0 -1 -1
1798 1 13.921949148395072 0.5838966359551023 7.924426404082416 0 1 0
2026 1 11.436580151368652 1.4630152687427014 5.79632127059827 -1 1 1
141 1 15.733491251658023 0.44639841936691127 5.455860594937459 -1 0 0
1121 1 16.65602653206246 1.2598349230577761 7.263814999191226 0 0 -1
468 1 14.89584359400107 2.2191261590984155 6.168129085106717 0 1 0
1952 1 11.101372164983305 2.8667760176519717 9.200263812570286 -1 2 1
519 1 27.42492251730454 0.9802288340725402 11.678675956469597 -1 1 1
1006 1 17.157345566985054 13.562866628765336 -0.7020552239843192 0 0 0
359 1 18.097864543542045 1.9097955475101593 5.917194074619925 0 0 -1
1774 1 16.41877552260447 2.788476918053532 4.3775321713679105 0 1 1
1269 1 17.73813129669492 2.917317852599091 9.005163949134166 -1 1 0
1519 1 18.384684681914887 4.141493435368696 5.733456307109909 0 2 0
959 1 20.350245850588728 1.776331543528333 5.592871751825303 0 0 0
162 1 18.976713408447395 5.030367481417571 7.730699487919214 -1 0 0
1949 1 20.67443570326515 4.26081558531914 5.049859556992014 0 1 2
1842 1 19.020509608337214 -0.2639197884864533 6.6199520835062815 0 1 2
1816 1 25.930083464423394 0.6401495921119997 3.4032627772960344 0 0 0
395 1 2.315080061108434 3.783132446920222 14.090073971097988 0 -1 0
751 1 25.104188034022876 2.8594268856136043 2.8884963980743876 0 0 2
1515 1 24.373444242002016 1.5929790883026342 6.990540545919073 0 1 1
300 1 22.36838801353208 2.691518907732254 6.300385316188332 -2 0 0
1452 1 23.723316539101347 4.523187311813212 5.0716632470433085 -1 0 1
1671 1 6.062631013211402 -0.5246814356620352 -0.10947228322986202 0 0 1
1921 1 20.495144854264687 2.9968330792383173 8.003187690259212 -1 1 1
1602 1 22.09942493260231 1.595258597452906 8.562686644422817 -2 1 -1
1626 1 21.454093453744434 4.768609172413681 7.2677047081226736 0 0 0
385 1 22.74758212383196 3.022225605305194 10.281154582421637 0 0 0
1164 1 26.269634059797095 0.3912594784715884 5.528378232771533 -1 1 -1
1724 1 27.867708189781883 1.9363152921654918 5.991857521758496 -1 2 1
372 1 23.709646281312466 1.7557206504936875 4.6332245846545845 0 0 1
481 1 26.032426671817195 0.2353378353152472 7.678057294092882 -1 0 1
1648 1 24.16398269784902 3.5079817930327764 8.271727537376382 -1 1 0
1710 1 28.41811861433575 -0.04790423330078375 6.808563811864515 -1 1 2
1841 1 26.501397290835744 2.6683621895559986 7.748632284739147 0 0 0
2046 1 29.088318370247567 3.0606263645875322 8.517904541556728 -1 1 1
1638 1 2.5051418119921856 7.257438969332709 3.911030877140959 0 1 1
1652 1 2.642045697058683 6.709061030071712 9.995588381578655 0 0 1
1851 1 2.8548327535677136 5.303817381044309 5.146621077582438 1 1 1
1850 1 1.5837177115204053 6.9738970159379505 6.285256306983229 1 0 0
1226 1 28.520321517167524 5.37610430753258 9.008657979620766 -1 1 -1
1697 1 2.84979104564184 9.190256639079852 5.607968833332843 0 -1 1
1718 1 26.59396825460301 6.508024858763758 7.019828828796472 -1 1 0
1976 1 7.792622792713614 5.142935139194724 5.165967845579272 0 1 1
531 1 5.0427499747125255 4.2624004013684775 6.313741442007031 1 0 0
2022 1 6.990353120350712 7.136661285988305 3.9125308078597927 1 2 0
198 1 4.803955240218773 7.182697933272975 5.743749127944025 1 1 0
504 1 3.359217432919797 5.429922176762511 7.5227740840378114 1 0 1
6 1 3.8394260792261807 7.7059607910614005 7.965333098219901 0 0 0
125 1 5.4786848595379105 9.527777353595745 7.045366769695468 1 0 1
145 1 5.836712535270548 6.841205059605199 7.595645557240397 1 0 0
1680 1 7.479724405512453 5.10462022059844 9.669842804385539 0 2 1
440 1 7.451005131396768 8.334324630588888 6.273909434973001 0 1 0
1719 1 8.643304300841265 3.244857008656732 8.04228478624784 1 0 0
1858 1 12.251721421023781 4.419167527202556 5.280665476571589 0 0 2
1620 1 12.302880079648306 4.9529397576339536 8.048814545525216 -1 0 0
1130 1 7.972997314870019 5.5372911800681575 7.591203943703704 0 1 0
534 1 11.21444041599712 8.394449042573882 5.081613558880092 1 0 0
1819 1 9.99783957948792 5.171747598734924 8.607887854213379 2 -1 1
1327 1 11.380889891947675 7.437590252032743 8.820603294693845 -1 0 0
1157 1 14.32500960320475 5.336555783626561 6.268056603502891 -1 1 -1
436 1 11.702197752145207 7.427323516625332 3.3862147171360215 0 0 0
83 1 12.271886355382444 6.779276132822299 6.345105237656941 0 -1 -1
39 1 13.844813572553237 7.013720516991405 4.6734142403929635 -1 0 0
551 1 14.428847546802702 6.304161239786337 8.516076122009542 0 0 0
889 1 13.901361178265857 9.60767624440875 4.052918359625741 0 1 1
724 1 16.154743093213785 4.201991043260129 7.327432049016151 0 1 0
116 1 14.83890879190219 8.23616773761908 6.883396106197578 0 0 0
1795 1 16.207186241211275 8.464383830368957 8.873711062948116 0 0 0
776 1 18.408358624479405 6.519023741357034 4.9509186590997425 -1 1 0
1255 1 19.189968971591288 8.047252509054887 2.8134515969162446 -1 1 0
1576 1 16.37859808636006 6.760313749741806 6.543792019445541 0 1 1
1559 1 18.325318145062766 7.435433184189677 8.204896448373399 0 0 -1
1392 1 20.30657383176583 6.399351837135809 9.102260141774744 0 2 0
841 1 16.237508018675467 8.610833623875696 11.187724742176588 -1 -1 1
1127 1 24.728440883999586 6.475495533184111 4.327367989771505 0 1 0
879 1 23.985384380525726 6.299804675990931 7.052145696413409 0 0 1
1864 1 22.350527694998284 6.405496231486182 5.352843319886985 -1 -1 0
1994 1 19.88065267702584 6.989170810284779 6.4180887845920545 1 0 1
904 1 23.182743357859827 8.61656597639017 6.059654071636621 -1 -1 1
81 1 21.760607794328482 7.4271453891993815 7.729465560896033 0 0 0
104 1 23.967462012673153 9.210010458115512 8.49543635892134 0 0 -1
63 1 22.79913145297133 5.70308193585049 9.552301016600346 0 0 0
925 1 28.04092368531941 4.567943330783164 4.588738852388072 -1 -1 1
1018 1 25.49948545396795 4.558734966370505 6.522505553389354 -1 1 0
79 1 26.35330023578356 8.438464976594952 8.848240593039957 -1 0 0
1225 1 25.53003803874795 5.420671052782379 9.0000998517006 -1 -1 0
1588 1 26.94614031927085 6.373169057846083 4.709670222371187 1 1 0
1868 1 25.57470110812607 8.539488723410422 4.9722606311964554 -1 0 -1
924 1 27.17764334604462 3.8954622429105665 10.131612913803187 0 -1 1
1894 1 -0.7324460782229947 7.157499923738622 7.715979834128559 0 1 -1
227 1 27.543954276691885 8.648090134974767 6.781923028893771 0 0 -1
2010 1 -0.3674086386509376 6.792587900239291 5.38218312448976 0 0 0
33 1 3.235303624101954 11.23727471067922 5.110915935087767 0 0 0
861 1 1.4461580639243135 9.006161888699314 8.209282854813708 1 0 1
357 1 2.4145060086133414 9.626828901164668 10.5078852493694 -1 0 0
1532 1 4.459573387552409 12.791694896708346 10.374196559504652 1 1 0
1173 1 1.4245222864569596 11.952595212596727 7.602682905308113 1 1 -1
1896 1 28.8664715553994 9.613392777162698 7.95519086326264 -2 1 0
1360 1 25.84543727666116 10.245194422181255 10.015458275923233 -1 1 0
1324 1 5.0247061071101236 13.389222709016867 4.63651377738596 0 -1 0
1707 1 3.097739569634574 10.366265562659038 7.776195104016752 0 -2 0
256 1 5.761622970098343 11.645650802932689 6.157183023035203 0 1 0
1293 1 2.6798603476975646 11.639849247419592 9.476390158050451 0 1 0
974 1 8.386329090082691 9.793280311164253 4.539467189193961 0 0 1
2006 1 5.312328109911316 11.106789104474721 9.1587157252822 0 0 1
214 1 6.263592804957024 12.768934759182471 8.186997826346127 0 -2 0
1407 1 9.80689038683219 9.154948338488639 2.6215031761744036 1 1 0
1883 1 11.95713654784733 12.978897812606252 4.3049862133009285 0 0 0
1285 1 7.5045690764250175 13.151244920126956 6.190690943142203 -1 1 0
438 1 7.789761794958643 10.729647788451741 6.5985058882492345 0 -1 0
1830 1 10.347012762726909 10.491857794111077 5.776702080305399 -1 0 1
1322 1 9.94716644355621 7.975784257121578 7.410996708450011 1 0 0
1108 1 9.406617317292483 12.444056743744364 6.905698446097724 -1 -1 0
832 1 15.217879035870899 13.132890240777227 4.528263425610396 2 0 1
131 1 10.843934744209989 11.5341499942013 8.758047331532978 0 -1 -1
411 1 11.62079674796493 10.679028073157143 3.2387451140256855 1 0 -1
458 1 12.304305880332057 9.130794007898205 7.214798002463361 0 0 -1
351 1 13.962525551857032 13.282061211756092 6.484649185292708 0 1 -1
1732 1 15.216579155786084 10.537754952434272 6.124433756891946 -2 0 0
1618 1 12.259015886122622 11.53295221669338 5.993470843927618 -1 1 0
1003 1 14.276377215221267 11.742240981596694 8.450198949684369 1 0 0
1103 1 9.061063003712368 3.367150841677497 -0.27647306255493775 -1 0 0
1586 1 17.11095164247651 9.249419334786221 6.913854131525808 0 0 1
530 1 19.161585780009144 10.75258267852546 7.6472087648453595 0 0 -1
1019 1 18.626189711196332 8.77651168562325 5.15341637416479 -1 1 1
293 1 16.87273063509262 11.4946344407393 8.337900993121433 0 0 0
452 1 15.920642116200852 10.192640375269214 2.660305131107458 0 0 -1
443 1 17.016029679655244 11.988513111243321 6.0291047536750275 1 0 1
1835 1 18.37999383706394 12.962324955080067 7.561290875791418 0 1 1
1408 1 20.45001083484869 12.949822860296738 9.050933015739497 1 0 -1
20 1 12.517479014663575 1.3995747268719287 1.480433444961485 0 0 1
723 1 20.84875464342513 9.510934595182754 6.610505228761425 0 0 0
1772 1 22.11911286759659 12.8104744684139 4.407989503405574 0 1 1
1038 1 19.13863517638767 11.545176308825411 5.442297893621096 0 -1 -1
1100 1 19.974602098971566 13.919923573927553 5.336221662206692 -1 0 0
980 1 22.19273979694243 10.702002132938187 8.377709677317332 0 0 1
1956 1 20.849697377101254 12.175606175690515 6.7550853555528585 -1 1 0
242 1 22.64296950675812 13.676301382562981 7.602627178959972 0 -1 -1
926 1 24.830640771245864 13.216059195764434 6.613887813358015 0 0 0
1692 1 27.140876898136106 13.14028425365848 5.679142674794533 0 1 0
1882 1 0.07032396432200072 9.461561309757798 5.975737211399408 1 1 2
560 1 24.959817226401775 10.985208868948623 5.436890603144004 -1 1 1
674 1 23.032460578259936 10.953368527349436 6.45356196080829 -1 -1 2
1922 1 24.652161894295446 11.63788807749128 8.352489934516472 0 0 1
1099 1 28.75807644571288 11.88000374694826 6.950338023219797 -1 1 0
82 1 27.996075062626222 11.19633854100003 9.875309401584765 0 0 -1
1124 1 26.70853144883861 11.175847738629967 7.6249430880452245 -1 0 0
1902 1 8.342381565376593 -0.26772693128350256 3.9894258333134713 1 2 1
956 1 0.03119153001986641 0.3427371558163492 11.236865077451226 0 -1 0
1257 1 1.8273381124375376 2.433381335803485 11.061371712493806 0 0 0
670 1 0.6524200414818926 4.7939894286014715 10.110887231030858 1 0 0
699 1 3.1928656503825503 4.468802485424877 9.444407355802838 1 0 0
1983 1 0.3634523006208359 -0.6512037767203693 8.308645901181537 1 0 0
1180 1 5.420553958443544 -0.27024473465030324 9.219952345435702 1 0 1
1326 1 5.741845387175904 3.6931206533327616 10.938556404709464 0 0 -1
1977 1 7.089955061598123 1.514181749377482 10.645016652407561 2 0 1
1338 1 6.500987125038838 0.5962963551210472 12.826119277550887 1 0 0
405 1 4.420916652957668 1.6132391309241538 10.802362755119187 0 -1 0
1872 1 7.762194393555616 5.203443212298773 11.88318584188859 0 2 0
11 1 6.953643000429543 3.5575220499154403 13.475151824923076 2 -1 -1
1340 1 10.007719260576904 0.6232604265293527 8.863159741814822 -1 1 0
744 1 10.431017563707119 -0.12261258195253133 14.010230087466978 -1 0 0
1011 1 28.48220181890794 12.494401350040953 3.824179316946057 -1 0 1
624 1 10.69991056416298 4.236482053948816 11.749779722601575 0 1 0
52 1 8.721306200131679 1.9943091318283135 12.570244933209366 1 0 -1
1086 1 10.48019699088009 2.8863117826800337 13.946581861268516 1 0 -2
2027 1 11.953049835941426 2.362371066728896 11.72311125096994 1 0 1
253 1 16.24527411413793 13.994689481196367 8.253544388776383 0 0 -1
1491 1 28.63809242246098 13.465410706188504 14.077807573350324 -1 0 0
727 1 15.415985956676145 4.292636236805364 9.518578715280206 0 0 0
1073 1 15.094061817506311 1.9630628430114627 9.491283581782582 -1 1 0
1536 1 12.52432854955674 4.262333503927329 13.485067068096148 1 1 0
54 1 17.174296741938356 0.8730027708108614 10.464336237286982 -1 0 0
59 1 13.254941371380216 3.333097748553774 9.530966127576988 -1 -1 0
843 1 14.282255190645033 1.6640781341047304 12.271131493471996 -1 0 1
238 1 16.2566531394925 2.8696571333719403 11.1660666733417 0 0 -1
386 1 17.10747686080776 5.597346688002997 9.111702052913186 0 -1 -1
1884 1 19.12499488669777 0.029149611916257534 11.7027774139624 0 0 1
627 1 19.129953417687833 1.1039124870774142 8.477800657418175 -1 1 0
1583 1 7.708303988735018 -0.11636088821545743 8.99509460572728 0 0 1
1582 1 18.34250798782048 1.9718017622170745 12.36693917273213 0 1 -1
1569 1 19.904053884668727 2.1191742678383334 10.436847985962597 0 0 -1
1055 1 15.934670225696106 -0.6139155100160949 8.9012500536174 0 0 -1
96 1 16.383876769142553 0.5312586775386197 12.549076279529494 0 0 0
150 1 23.062051193309728 1.6302277207846974 13.507421872855415 -1 -1 -1
1174 1 24.37685130425059 1.0781656370019703 9.791679738062529 1 1 0
460 1 14.004685725763288 14.079163297791881 2.441693899653391 -1 0 0
3 1 23.595824265234896 3.829297466316655 12.9821645442416 -1 1 -1
1423 1 22.048087273533664 0.5854641711632813 11.018087408179413 0 2 1
273 1 9.194636000844064 10.031758819921878 13.293312552479577 0 0 0
240 1 9.750374419189535 13.934697721140434 9.358176457180939 0 -1 0
19 1 21.141544284399757 2.768291103140598 12.348852128591258 -1 -1 1
188 1 -0.736457927063874 0.9412891113141093 13.446877366163314 2 0 0
1410 1 15.783848690224161 7.290615020480697 13.562684062424438 0 1 1
1270 1 25.066689790331598 4.16140828861542 11.024970180591232 0 1 1
695 1 26.045109384889884 0.8169270324936577 13.718962781371808 0 0 0
1372 1 25.117335288923588 1.7254592776488233 11.615210340518072 0 1 1
113 1 28.93742101501766 2.570833676533804 11.179385448084513 -1 0 -1
1104 1 28.480559308581558 0.8506994876867346 9.329085256426993 -1 1 0
1306 1 27.032399343624135 0.41600290137221263 -0.7491169517899317 0 0 1
1210 1 3.7209146642807758 4.936165351509814 11.539130644652674 1 1 0
1803 1 26.60337645000721 13.8555141946414 3.1438395381212816 -1 0 1
1528 1 0.08915681808879095 8.094930958932286 9.827484024211387 1 1 -1
992 1 0.7812378447716708 4.280253280696734 12.200171017538606 1 0 0
607 1 28.469524735338496 7.4466386171837 11.992274860201794 0 1 1
1965 1 0.9873334113723209 6.659867731660279 11.57064097369994 -1 1 1
1678 1 2.501430004464105 8.268689189517504 13.014239992799409 1 0 1
226 1 1.9306221936217791 9.668261799214296 -0.387687927904485 0 -1 0
1295 1 5.132603136080431 5.89254475423029 9.989401499148782 1 1 1
1288 1 5.57174039415588 8.55765331408629 9.164445663522455 0 0 0
1207 1 4.350368403944086 8.131894423954488 11.456037161314752 1 0 -1
698 1 7.259677190645409 7.365528633652442 10.732894762506875 0 -1 1
1171 1 9.01807506479834 3.058707053592162 10.46873189426004 0 0 1
790 1 7.462746191406763 9.648034191031345 11.702892385393733 1 0 1
913 1 6.923008589802106 7.840645813927196 13.558845714846422 0 0 0
2030 1 10.214963403437302 -0.6331736310689062 5.246469885421997 1 2 1
149 1 5.657879562873078 6.046058542155531 12.240859973305769 0 -1 1
1200 1 12.460486933205182 5.580192093383281 10.625180361960197 0 -1 0
1489 1 9.535664456205442 5.991597530133746 10.803891252024078 0 0 0
1388 1 11.407163067635263 6.484828550326221 13.015286244860919 -1 0 0
1526 1 9.05141031288419 7.8054239122089335 9.25493638918795 1 1 0
1428 1 9.245849685285425 7.725484600049295 12.20904343320841 0 0 -1
1941 1 11.561610482314027 7.9643363127726285 11.10177346549943 -1 0 0
178 1 14.548313494508388 10.219615446987373 13.791006421560718 1 -1 -1
1963 1 20.276367329792247 12.849155102903923 3.2302210441808286 -1 1 0
1651 1 13.437129991856983 6.151496371300022 12.760892237250435 0 1 -1
1717 1 14.0426019277739 4.14922835217543 11.637537301822116 1 0 -1
1386 1 14.913543081845479 6.3079777428800625 10.715140117156931 -1 1 0
665 1 16.44865342232965 5.433129192137081 12.218584542409866 0 -1 -1
977 1 13.91142124381695 8.68455981835488 9.230195768965258 0 0 1
517 1 20.851685324397003 12.360704717888002 13.755000766695424 -2 0 0
1846 1 17.755754419439317 6.917485663978039 10.969320638769414 0 -1 0
1429 1 18.563245501342056 4.69419853817542 10.625294043324313 0 1 -1
482 1 18.382107974594238 2.482798558474799 -0.037772045666096044 0 1 -1
244 1 20.990709422260384 4.689695934881118 10.454080202014339 0 0 1
767 1 19.728079216926528 8.742009059780388 10.97465330445014 0 0 1
546 1 17.77805317039576 8.733011379035178 12.811260381713602 0 0 -1
1017 1 26.625709515850968 12.909566258688258 0.8261069806274366 -2 -1 1