LAMMPS data file via write_data, version 29 Oct 2020, timestep = 300000

2048 atoms
1 atom types

-0.13811055556985075 28.490110555569547 xlo xhi
-0.13811055556985075 28.490110555569547 ylo yhi
-0.13811055556985075 28.490110555569547 zlo zhi

Masses

1 58.933

Atoms # atomic

8 1 3.3308176888947387 1.7262577026442267 1.6173207454947907 0 0 0
35 1 1.5760433673915055 3.577865619054136 1.5114697678146596 0 0 0
130 1 1.530337889258983 1.7757821937232503 3.5193332077238666 0 0 0
165 1 3.335498045889266 3.436977142188336 3.2861545247783286 0 0 0
481 1 28.31475773162491 10.667520622390962 10.685828850569552 -1 0 0
3 1 1.6733927919358706 -0.1284224426671436 1.76835177015827 0 0 0
4 1 -0.06750460534315025 1.6809497002979512 1.6021461042895868 0 0 0
509 1 24.914486957804982 10.55180651090725 10.425279324153435 0 0 0
12 1 7.000557591458581 1.5993048789841329 1.623190363767342 0 0 0
39 1 5.280934526106499 3.386537016955678 1.512927885752279 0 0 0
134 1 5.154521527471395 1.5175668785832614 3.655988538195135 0 0 0
169 1 6.932052446287602 3.271997070367778 3.4712597558342204 0 0 0
6 1 5.26147125020598 1.5282522235558698 -0.12411223544210333 0 0 0
395 1 8.816356295293076 0.026628572315551935 12.637489419398163 0 0 0
16 1 10.621646569999172 1.6125270821144988 1.65267738660533 0 0 0
43 1 8.724814985401464 3.4824749279630764 1.712634448657046 0 0 0
138 1 8.91187090843462 1.7637574846286472 3.3709282665253864 0 0 0
173 1 10.663752240815741 3.4660718361492138 3.4034732785142645 0 0 0
141 1 10.636225379739765 -0.07305028248079258 3.3992066763736863 0 0 0
393 1 7.018149067501026 -0.036284561654376546 10.826903268660875 0 0 0
20 1 14.194566137175222 1.573164574060392 1.5074617124455494 0 0 0
47 1 12.457415589886 3.3561309819612193 1.7119303919992779 0 0 0
51 1 16.094303133649923 3.298321077784571 1.6986518465027867 0 0 0
142 1 12.369921327543743 1.5637485734188725 3.4301146738669366 0 0 0
146 1 15.843289582704221 1.672216961268096 3.401098045361024 0 0 0
177 1 14.022261650123658 3.413316150745358 3.3799466515655414 0 0 0
145 1 14.216314536301452 -0.02183378211141672 3.3984403760688604 0 0 0
24 1 17.859157291590883 1.5621627644989018 1.5320451595717828 0 0 0
55 1 19.719309973020344 3.338071963283872 1.4379936777127815 0 0 0
150 1 19.54832505315771 1.6199598833957973 3.429620937462527 0 0 0
181 1 17.85111606290795 3.3486565668709622 3.3362275665943772 0 0 0
28 1 21.41847182888533 1.6693269523721697 1.7261201010297125 0 0 0
59 1 22.921115097719998 3.5031143269896408 1.6843174062441113 0 0 0
154 1 23.199155066627554 1.8118580667576842 3.3366205292782913 0 0 0
185 1 21.216199531214315 3.5959076892559025 3.4199294870080297 0 0 0
27 1 23.174180572582856 -0.12093927434194686 1.7695820214539453 0 0 0
1437 1 24.684524398906078 14.122305145074485 10.619402297703258 0 0 0
161 1 0.06703023669350472 3.5154623810100425 3.431666491315 0 0 0
32 1 25.051775956848473 1.6120552069285812 1.628732464844801 0 0 0
63 1 26.90622682131798 3.495480175770809 1.5617430287778928 0 0 0
158 1 26.981463837052004 1.745252312516505 3.3259380665704312 0 0 0
189 1 25.0939669589006 3.430235933901569 3.385719139888388 0 0 0
510 1 26.607220526951288 12.313708035248846 10.552409629769505 0 0 0
30 1 26.72947502587938 1.6437755283936792 -0.10117909396842345 0 0 0
61 1 24.899583674855045 3.39768270485525 -0.07146567572851649 0 0 0
511 1 26.658001789729838 10.672402477000473 12.477906896657473 0 0 0
40 1 3.5734732255451296 5.10156666293808 1.547915502923987 0 0 0
67 1 1.700267134590832 6.929957056188037 1.6405142304048015 0 0 0
72 1 3.359908101939858 8.854983182584663 1.7433997236520555 0 0 0
162 1 1.7436027587578342 5.21073683673407 3.521396562346568 0 0 0
194 1 1.737785665636857 8.787655935695973 3.638064002671259 0 0 0
197 1 3.445783556451223 7.042807092362993 3.533899186498112 0 0 0
66 1 1.7724375738176716 8.85234126345501 -0.10969209634256037 0 0 0
34 1 1.7295970548985278 5.353289496820701 -0.0769941597300575 0 0 0
285 1 24.725127806751424 0.03156710191260004 7.223519431316327 0 0 0
44 1 6.964805697871419 5.340570443777204 1.492361380471496 0 0 0
71 1 5.045105610262603 7.043726636330781 1.6151931311597871 0 0 0
76 1 7.055549542921899 8.93297182037601 1.6675035615550333 0 0 0
166 1 5.149449769662125 5.279170231086147 3.49261147690635 0 0 0
198 1 5.078665532603119 8.844038262659424 3.2000476502260633 0 0 0
201 1 6.926603340342316 7.09998149894458 3.2905136264230905 0 0 0
159 1 26.828645835989924 0.1551440651220659 5.215690153621453 0 0 0
48 1 10.720759870858572 5.369790600413139 1.5715951191695217 0 0 0
75 1 8.841877772601967 7.070770397301134 1.4517877157949537 0 0 0
80 1 10.662618129373842 8.901619447690193 1.683697095459229 0 0 0
170 1 8.909167617501845 5.320739052484704 3.2835062687562417 0 0 0
202 1 8.808770945309881 8.725360853304007 3.381277540817042 0 0 0
205 1 10.570289406239835 7.06786467812674 3.4062015804809596 0 0 0
287 1 26.714939704703298 -0.11323748668015554 8.87919914821 0 0 0
52 1 14.113640470693802 5.121140963890141 1.5870488370598526 0 0 0
79 1 12.327840557330584 7.198610584709043 1.5958286492594023 0 0 0
83 1 15.824044255199277 6.878856894558816 1.7374802784149148 0 0 0
84 1 14.159588263803998 8.84417912910727 1.6288484835338541 0 0 0
174 1 12.307126877343364 5.447006111725293 3.520413700591254 0 0 0
178 1 15.872474844084921 5.096062018615426 3.341278278795449 0 0 0
206 1 12.353012065554157 8.791513018876804 3.465163252558043 0 0 0
209 1 14.06118396767152 7.070340807745737 3.367402927668279 0 0 0
210 1 15.918933365787419 8.743596894473544 3.5562298223455326 0 0 0
82 1 16.057934953008413 9.072505191017244 -0.13686359374532975 0 0 0
56 1 17.802950822356955 5.076930135173928 1.537429195017606 0 0 0
87 1 19.331204246074904 6.891354714969588 1.630944365932883 0 0 0
88 1 17.79418405241414 8.808641836028638 1.4990666982195453 0 0 0
182 1 19.436194713125992 5.1012290349313405 3.251404039987888 0 0 0
213 1 17.726494912498417 7.057430143317758 3.5196306235464303 0 0 0
214 1 19.484476237179912 8.771105950392034 3.1550861533814563 0 0 0
533 1 17.732128546667923 -0.1022510467736879 14.15111897502025 0 0 0
54 1 19.729466231224542 5.135749844534403 -0.12196984586444809 0 0 0
60 1 21.37801215877775 5.451401171497735 1.5216970709961621 0 0 0
91 1 23.047611312205696 7.2562958507089625 1.7330356023715558 0 0 0
92 1 21.362470414790053 8.779355529782967 1.462300405128982 0 0 0
186 1 23.0850803176629 5.167379491693774 3.371214749046211 0 0 0
217 1 21.057403022077864 6.91868404253454 3.2679435946159345 0 0 0
218 1 22.876778584883404 8.987153555886794 3.314898766284265 0 0 0
193 1 28.462849422235088 7.127127521310345 3.498158644228785 -1 0 0
68 1 -0.037336494452006264 8.780716132964958 1.620831894931792 0 0 0
65 1 28.421439236086407 6.950348439200056 -0.10297882572707727 -1 0 0
36 1 28.452550730186744 5.409392322473096 1.6524395985560565 -1 0 0
64 1 25.148173253483748 5.207996530256429 1.7150799801619765 0 0 0
95 1 26.657276126645066 7.206140600207125 1.5376973889242724 0 0 0
96 1 24.78535040965634 8.87717202682971 1.4884184515159211 0 0 0
190 1 26.893159162593463 5.353011426279312 3.4017510672582123 0 0 0
221 1 25.00067926904022 7.199984491434263 3.156799837032522 0 0 0
222 1 26.654201211106617 9.028757946413325 3.50113343164301 0 0 0
99 1 1.6556947455907758 10.675643988935766 1.8132737212651278 0 0 0
104 1 3.4506829345914523 12.390856689165371 1.5939229194189932 0 0 0
226 1 1.5707313421844906 12.499540248890359 3.456532940454011 0 0 0
229 1 3.456986236420498 10.647923897494975 3.666452014576969 0 0 0
257 1 0.06524988744772031 -0.07411549997610223 7.100739298362645 0 0 0
98 1 1.751174836214739 12.532369927700737 -0.09800197500882044 0 0 0
103 1 5.182697368672083 10.665286882284455 1.6440449919309066 0 0 0
108 1 7.0302042673016665 12.464270261051245 1.6573479644131466 0 0 0
230 1 5.234855966702707 12.325984467113619 3.3305054637536537 0 0 0
233 1 7.107826765569406 10.620665277040748 3.221483449652748 0 0 0
155 1 23.14996539300037 -0.011242012727471717 5.16362464333424 0 0 0
1033 1 6.929312226325097 14.104264524758825 -0.05932135237800616 0 0 0
105 1 7.029294441853804 10.573190746209619 -0.10962222249954624 0 0 0
107 1 8.965648224180335 10.626709470263698 1.6409980127969996 0 0 0
112 1 10.6816603233366 12.314180468916156 1.6400504878439863 0 0 0
234 1 8.898913780424204 12.324692470295314 3.366549202725434 0 0 0
237 1 10.808075825517756 10.448003712592497 3.4478940157901254 0 0 0
283 1 23.01039649455135 0.14376374229264144 8.853773195524298 0 0 0
111 1 12.434019049915332 10.470529329226705 1.661606819808228 0 0 0
115 1 15.957676885003723 10.491658019716168 1.7164591870044044 0 0 0
116 1 14.302771263068509 12.272873999767004 1.6394451189529777 0 0 0
238 1 12.541697333222574 12.28178741175616 3.500034861740405 0 0 0
241 1 14.326120556850922 10.51695638600575 3.7048460383370063 0 0 0
242 1 16.143201653183333 12.234115812525456 3.314765683463454 0 0 0
259 1 1.771566375947593 -0.1099704924757603 8.744793331628477 0 0 0
1039 1 12.61727068976666 14.036055889881485 1.7896011918928696 0 0 0
1041 1 14.246885633731791 14.072156184400823 -0.0993747382769718 0 0 0
1171 1 16.01439588994839 14.094593108549148 5.360886047559613 0 0 0
119 1 19.580159048571637 10.595581839846327 1.5354391796795943 0 0 0
120 1 17.87192756683956 12.396480826421419 1.5128508818989295 0 0 0
245 1 17.68623611842483 10.498199783198581 3.293425443554581 0 0 0
246 1 19.388777918731776 12.447939107781758 3.3820133535387558 0 0 0
1297 1 14.358081282733847 14.076739735744807 7.038385846701945 0 0 0
123 1 23.02809517845357 10.781923921082651 1.6072795754491238 0 0 0
124 1 21.412494113823882 12.55671977798977 1.6729155346793696 0 0 0
249 1 21.265382419418565 10.738840487896146 3.435871733706322 0 0 0
250 1 23.100410833583872 12.515926271663568 3.5527639801456528 0 0 0
100 1 28.484008873767422 12.223606335219992 1.4631924947058834 -1 0 0
225 1 -0.03274705213449636 10.776468897077901 3.537308851100166 0 0 0
127 1 26.826282725766177 10.495449889702709 1.6513071095637877 0 0 0
128 1 25.024833521050972 12.13680009090334 1.7619013335717477 0 0 0
253 1 24.828755226703443 10.520550379836862 3.604952999215303 0 0 0
254 1 26.744985863804622 12.397570320563363 3.4315379161582875 0 0 0
512 1 24.929936306650475 12.224089520379538 12.245980886134864 0 0 0
1439 1 26.563335713210293 14.117053241022916 12.19295092594951 0 0 0
136 1 3.2946559637513437 1.735730210513818 5.230918402301378 0 0 0
163 1 1.6329203910887 3.6078235640052987 5.373676242106109 0 0 0
258 1 1.7222749545908007 1.6551898155209959 7.163787525278549 0 0 0
264 1 3.664263429773838 1.5154497372847222 8.767645018484309 0 0 0
291 1 1.9086117899395738 3.4415565386701923 8.805403202810735 0 0 0
293 1 3.3937762060972516 3.462529538358646 7.1337752362876 0 0 0
289 1 -0.1101609228067595 3.2650583624188583 7.2010047308031755 0 0 0
135 1 5.204461220954475 -0.10480672305977472 5.398743276869661 0 0 0
1295 1 12.581945349488214 13.987919667646228 8.859266849797093 0 0 0
140 1 7.118727082552475 1.639671203931367 5.33422152308532 0 0 0
167 1 5.299212504847103 3.3651576187992247 5.383258662437926 0 0 0
262 1 5.3092234616280765 1.6630108454556163 7.131775690104406 0 0 0
268 1 6.801976623341863 1.6837070456646408 8.896130592794405 0 0 0
295 1 5.150783671534462 3.4803635342686596 8.883291097990865 0 0 0
297 1 7.072368207281246 3.2695809161853826 7.078902668385538 0 0 0
25 1 21.301640988613777 -0.09586945186286044 -0.051718382280372496 0 0 0
269 1 10.445899038056595 -0.09758595515389167 6.95931325584226 0 0 0
144 1 10.411269778261987 1.5913097463049337 5.423208187140012 0 0 0
171 1 8.75595125429366 3.550916268561478 5.161955847835986 0 0 0
266 1 8.70380656489713 1.7205779190064987 7.246482385478435 0 0 0
272 1 10.561966185100268 1.4803061410817848 8.894690222535402 0 0 0
299 1 8.889466414105028 3.190294127080688 8.91454049678411 0 0 0
301 1 10.750808869091408 3.2494773100327055 7.309653601425205 0 0 0
147 1 15.917242516197915 -0.026712391112334158 5.2108000878115055 0 0 0
505 1 21.19609939063414 10.640294400436321 10.746152280557752 0 0 0
143 1 12.298638796114485 -0.07657945880476 5.259388653981131 0 0 0
148 1 14.125083262333968 1.735656820453685 5.150862241265232 0 0 0
175 1 12.493642974643587 3.412507383385248 5.248111176884641 0 0 0
179 1 15.835162698143025 3.4638115789798136 5.110449010725758 0 0 0
270 1 12.456901463191024 1.5897412034139076 7.065883975999684 0 0 0
274 1 15.80834675779332 1.6483210666107284 6.92270171391197 0 0 0
276 1 14.139900086465243 1.6107380368279 8.835892228668095 0 0 0
303 1 12.410952460597162 3.3959992414263693 8.797533669721576 0 0 0
305 1 14.158696947704161 3.3979287628840624 7.031969779661047 0 0 0
307 1 15.741439467729435 3.50273895233196 8.740372441967542 0 0 0
277 1 17.758816985600326 -0.1299709339116546 7.032336009442025 0 0 0
506 1 23.0322547605709 12.439425451719462 10.317817322415294 0 0 0
507 1 23.102184050236573 10.68560281344211 12.31161025063697 0 0 0
152 1 17.619964017308227 1.6901485490781623 5.135683909232648 0 0 0
183 1 19.32959133486198 3.294010078355634 5.21513329107225 0 0 0
278 1 19.56840557088698 1.3841155731538362 6.997757786876562 0 0 0
280 1 17.789893928149212 1.536183723262737 8.857457306391892 0 0 0
309 1 17.81686639241279 3.2131657208085787 7.085860428073999 0 0 0
311 1 19.40190012664022 3.4375037294801905 8.786284012936022 0 0 0
281 1 21.383671252508798 -0.08740764641756184 6.95362489835372 0 0 0
156 1 21.300825866828774 1.8324918446675658 5.044579009058839 0 0 0
187 1 23.01799071653329 3.4920865520782294 5.060289323554487 0 0 0
282 1 23.05760704055924 1.8533237824856248 6.874236350206881 0 0 0
284 1 21.346270623666015 1.9038429128647048 8.809891669000631 0 0 0
313 1 21.118809990384264 3.4248420915440367 6.85861462063875 0 0 0
315 1 22.998195584039358 3.611703750544822 8.694324124331398 0 0 0
260 1 -0.09662323322070421 1.4974174112036513 9.001708985007403 0 0 0
132 1 0.021488166879386483 1.842921472561971 5.3785765572433935 0 0 0
160 1 24.87268062156877 1.692859293923488 5.191759999924515 0 0 0
191 1 26.699544996880263 3.50856160032602 5.0722798619695215 0 0 0
286 1 26.560303600674622 1.6120862982227822 7.037670977905082 0 0 0
288 1 24.897408209219975 1.7082929495625407 8.927695694170847 0 0 0
317 1 24.8208308048632 3.6026149815329234 6.977241715833482 0 0 0
319 1 26.540045749114682 3.3464570888953014 8.634858194225288 0 0 0
168 1 3.4718672610972092 5.166122196007984 5.228730822528204 0 0 0
195 1 1.6439615566705839 7.139638310815176 5.286980137478255 0 0 0
200 1 3.466858931431577 8.850345043360623 5.3431418174505705 0 0 0
290 1 1.6938665925144463 5.195248263989718 7.072042180187366 0 0 0
296 1 3.391079246612534 5.3144360463963345 8.833804210978997 0 0 0
322 1 1.714160152268093 8.833264586495586 7.020137591724552 0 0 0
323 1 1.6693995140015185 6.977966310723344 8.818809722112453 0 0 0
325 1 3.6952037890945917 7.029577714483869 6.975420608879752 0 0 0
328 1 3.4043269631194604 8.884276354442173 8.970897062612682 0 0 0
172 1 7.017229064931818 5.208663906608352 5.226985273273002 0 0 0
199 1 5.3089552246018945 7.173078386989936 5.1049147961911086 0 0 0
204 1 7.019426631848287 8.889109353351916 5.095967860303023 0 0 0
294 1 5.396012501102801 5.13902385413312 6.9848851954796904 0 0 0
300 1 7.103175689179287 5.139764192526567 9.078859141264942 0 0 0
326 1 5.394891426626039 8.765458609517882 7.026339022532548 0 0 0
327 1 5.480085424099018 6.8429863452746345 9.00011851413249 0 0 0
329 1 6.9815495091431155 6.843330842213637 7.00213050737665 0 0 0
332 1 7.166509479844708 8.658785156768415 8.816698589635674 0 0 0
176 1 10.66482363477011 5.245248831842618 5.358264974386728 0 0 0
203 1 8.747022420524466 6.899437704062002 5.182688034786061 0 0 0
208 1 10.467221404985736 8.770793365768009 5.3875499557598765 0 0 0
298 1 8.895456593717157 5.224685227003585 7.013133947309887 0 0 0
304 1 10.612454033179077 5.089331545690212 8.810793328109002 0 0 0
330 1 8.578135196463139 8.731635362378139 7.001800378907716 0 0 0
331 1 8.80853267728781 6.934504748033416 9.022057209090748 0 0 0
333 1 10.457608878345042 7.169086568453667 7.17159218727624 0 0 0
336 1 10.400406199739018 8.766344532438325 8.80760611302018 0 0 0
180 1 14.176648892821152 5.3712167444964205 5.1843444662227745 0 0 0
207 1 12.188736639472962 7.095292793798185 5.349877276600256 0 0 0
211 1 15.939980825162843 6.987861814054662 5.307477331085556 0 0 0
212 1 14.116788041723085 8.515185790465246 5.3932673640729885 0 0 0
302 1 12.38552240230008 5.390330705431069 7.097337277224768 0 0 0
306 1 15.993763511829469 5.1437886516193885 6.808929579729961 0 0 0
308 1 14.132959866731245 5.415115531534802 8.86643095988447 0 0 0
334 1 12.401068311785746 8.800189974823208 7.114749435238133 0 0 0
335 1 12.320767876468482 7.0820671571895435 8.996281186651197 0 0 0
337 1 14.285103210304582 6.927705218753632 7.155256467580673 0 0 0
338 1 16.018371413614766 8.82767223645451 7.113576633334198 0 0 0
339 1 15.935084928232213 7.187826435005224 8.792046254958429 0 0 0
340 1 14.018778550451703 8.782375232276875 9.1262349837899 0 0 0
184 1 17.792677803322483 5.260276948747738 5.1915650564091145 0 0 0
215 1 19.520031122428705 7.14715733088212 5.2556705071499 0 0 0
216 1 17.689354127880705 8.895012670590683 5.29243730316497 0 0 0
310 1 19.248721995879436 5.181697583772559 7.047482825769853 0 0 0
312 1 17.57156369547618 5.250569578106369 8.708139134051613 0 0 0
341 1 17.679243547574195 7.0734684561174355 6.983082469875276 0 0 0
342 1 19.46111192231691 8.818520139809518 7.102057927371593 0 0 0
343 1 19.55202199108441 6.968337760300189 8.7777813043289 0 0 0
344 1 17.81240908089567 8.752358426776917 8.956585479500214 0 0 0
188 1 21.05567566733508 5.216033336014806 5.103744595274183 0 0 0
219 1 22.921861945798994 7.179590222366239 5.114805888942668 0 0 0
220 1 21.113308377415592 8.957085437509077 5.1874666625082 0 0 0
314 1 22.982793711991086 5.335073043909225 6.619300301923131 0 0 0
316 1 21.380482606020948 5.291057692463545 8.578741035670822 0 0 0
345 1 21.288869961444796 6.9170390710906355 6.839582203851727 0 0 0
346 1 23.170790138021296 8.77064475078111 7.004230904276236 0 0 0
347 1 23.01503778836883 7.032039272591035 8.517805615612632 0 0 0
348 1 21.39490507993063 8.888599306404837 8.741641403386712 0 0 0
321 1 28.419846263921173 7.196881836128972 6.999469583416122 -1 0 0
196 1 28.434658735743966 8.962488298041476 5.211761707801222 -1 0 0
324 1 28.3758182421708 8.924832189687349 8.753674651864602 -1 0 0
292 1 28.415372147597964 5.3376005080555995 8.651067283867258 -1 0 0
164 1 0.05772970324604643 5.468880286951555 5.315764283079051 0 0 0
192 1 24.903147430965852 5.427557462532487 4.997714091768001 0 0 0
223 1 26.667939748635852 7.216068332367512 5.216995537679279 0 0 0
224 1 24.79865962000251 8.926227164382365 5.263383969472246 0 0 0
318 1 26.71292225831023 5.207708400809976 6.742880585996054 0 0 0
320 1 24.888405851323036 5.204852378522369 8.568950813883099 0 0 0
349 1 25.042045104843645 7.1968366938153 6.946974325594247 0 0 0
350 1 26.618952975378647 9.098188305009392 7.0741133983621785 0 0 0
351 1 26.647760076755617 6.946719063738348 8.797026723737728 0 0 0
352 1 24.868665519314582 8.748967848107815 8.918684664644204 0 0 0
227 1 1.5099367140859434 10.757032438261255 5.380799262065717 0 0 0
232 1 3.537539417094555 12.495095727365426 5.20661885418611 0 0 0
354 1 1.743950716306414 12.401238948315475 7.086808862187311 0 0 0
355 1 1.559578191548723 10.777423084536897 8.79606886012598 0 0 0
357 1 3.514317708789504 10.559447532784997 7.179681343575438 0 0 0
360 1 3.5554580378062894 12.308641149438744 8.834968007267072 0 0 0
353 1 28.48214479643755 10.704831305545321 7.117748217166246 -1 0 0
1155 1 1.5127196469287008 14.095776786826201 5.265698178765461 0 0 0
1283 1 1.5834978212675046 14.13994771785212 8.927490044124411 0 0 0
231 1 5.259125838897701 10.582229356831682 5.254716746703101 0 0 0
236 1 7.0876009554382895 12.355109428894176 5.010989568715252 0 0 0
358 1 5.217976447692849 12.36969625737405 7.0028449626125155 0 0 0
359 1 5.386413062082637 10.563251971820456 8.887979675865399 0 0 0
361 1 7.111812534583462 10.6774513653943 6.827935476695516 0 0 0
364 1 7.096323708950671 12.464221596693937 8.890043003426872 0 0 0
1159 1 5.318240369780062 14.098959082388777 5.044016598154875 0 0 0
1289 1 7.0951238515560116 13.974491163082485 6.9824301235732245 0 0 0
508 1 21.32573719461955 12.51141024671736 12.388398931686693 0 0 0
235 1 8.882191084540322 10.597329676237768 4.971933427823363 0 0 0
240 1 10.538461846387223 12.345304448972735 5.035960797881567 0 0 0
362 1 8.860995320668957 12.36954391316017 6.874278318847063 0 0 0
363 1 8.649733645611528 10.7292509207951 8.943312350240285 0 0 0
365 1 10.437039171378707 10.697006636363788 6.91186680928506 0 0 0
368 1 10.468016583502155 12.386079780184604 8.794303610408274 0 0 0
1293 1 10.602062129718032 14.066011459412897 7.068153868304535 0 0 0
23 1 19.74124252602853 -0.08826360296806968 1.7084767563458247 0 0 0
1167 1 12.475622510888764 14.037751659682888 5.408047359508544 0 0 0
239 1 12.328614615519026 10.392373006359659 5.362782317831728 0 0 0
243 1 15.957875194755195 10.506372861292784 5.270050113531369 0 0 0
244 1 14.473459563617746 12.482618222117543 5.134947610322332 0 0 0
366 1 12.505406351191793 12.218760483822566 6.8104638145549306 0 0 0
367 1 12.291801386919538 10.621760871691954 8.7245137082049 0 0 0
369 1 14.266243877711975 10.585928228035142 7.000532837044316 0 0 0
370 1 16.14210093009097 12.23875356452874 7.143017621413254 0 0 0
372 1 14.241322570614553 12.267608430856907 8.856515335561088 0 0 0
371 1 16.066533055045127 10.512961735277042 9.023125388071003 0 0 0
247 1 19.339642965997925 10.680787232472326 5.0177444804290126 0 0 0
248 1 17.63859588150048 12.24308721729557 5.248495495338355 0 0 0
373 1 17.797573589347067 10.54428230142665 7.100498894175173 0 0 0
374 1 19.45126231035936 12.33059837351108 7.072813196424044 0 0 0
375 1 19.542543425054504 10.524403017596683 8.95828727888888 0 0 0
376 1 17.70316406763874 12.373200772571181 9.041034988309658 0 0 0
501 1 17.78590300801342 10.590416816373935 10.653518322959567 0 0 0
502 1 19.609776625325047 12.532243973194756 10.477400388478834 0 0 0
251 1 22.97087427168286 10.770902603912967 5.2383519112002945 0 0 0
252 1 21.12788156619878 12.464094065455596 5.244003607799974 0 0 0
377 1 21.309974742625435 10.621228183770414 7.050694073545106 0 0 0
378 1 23.02379782160134 12.45941648841198 7.003177387183504 0 0 0
379 1 23.169806863899318 10.557845255765962 8.597050397514732 0 0 0
380 1 21.32152856786154 12.40105397118342 8.743624067951478 0 0 0
503 1 19.405310542796848 10.598152847844407 12.314056268010876 0 0 0
504 1 17.71652259701483 12.454502159011524 12.409851057165302 0 0 0
1425 1 14.28661432684812 14.037674232371833 10.704074397615733 0 0 0
228 1 28.41154359801407 12.367517076447097 5.480922237961892 -1 0 0
356 1 28.302885995958476 12.367402604150602 8.820185400633319 -1 0 0
255 1 26.80874446212337 10.645464790414316 5.238624789199473 0 0 0
256 1 24.9616168596883 12.442632362324611 5.201323857972014 0 0 0
381 1 24.813987521004996 10.723288141334743 6.866587057673259 0 0 0
382 1 26.43119916502723 12.471354755293325 7.076540216216128 0 0 0
383 1 26.710475528432816 10.698410422789175 8.79352469672188 0 0 0
384 1 24.839668032856743 12.503655758341294 8.73596642125688 0 0 0
494 1 12.39588007232595 12.23965971081388 10.448216751330618 0 0 0
495 1 12.267730338468404 10.60398213978119 12.243841138778476 0 0 0
386 1 1.7483673560556827 1.6013655414613 10.547884056348341 0 0 0
392 1 3.4045401965338775 1.3715592119570819 12.562108799620084 0 0 0
419 1 1.5950356108536903 3.4238190173801843 12.426537927063707 0 0 0
421 1 3.404668690105861 3.3799972264014513 10.73798252943315 0 0 0
391 1 5.345457094520081 -0.09628533923893587 12.562511612162075 0 0 0
390 1 5.119456704114287 1.4868858722504863 10.801211547621447 0 0 0
396 1 7.05236812252721 1.7796676212039229 12.365116501237496 0 0 0
423 1 5.255260806346 3.286423160183549 12.578450956001033 0 0 0
425 1 7.022295336047606 3.4363690624807006 10.740830327413189 0 0 0
149 1 17.777877661987233 -0.08450413392851175 3.2509922494100643 0 0 0
19 1 16.07178730097627 -0.1240530916722804 1.658794642287484 0 0 0
497 1 14.238821625748145 10.636545686662492 10.722093968326726 0 0 0
394 1 8.880567889400885 1.5331611484354568 10.70043596603693 0 0 0
400 1 10.703979071965607 1.5364816964094814 12.535968635900327 0 0 0
427 1 9.016645779400324 3.4495136789546383 12.35742358089125 0 0 0
429 1 10.716878634030516 3.1296177017809987 10.551461058032814 0 0 0
137 1 7.105577466279375 -0.11953169447173195 3.5718133474339107 0 0 0
7 1 5.167508541476508 -0.0942408952982774 1.8348886252315624 0 0 0
498 1 16.050590427729915 12.282969952371545 10.652266175945668 0 0 0
398 1 12.461385741985437 1.4755974600026718 10.542853113216323 0 0 0
402 1 15.8231957582747 1.4557403110244584 10.616331806753806 0 0 0
404 1 14.261646267621376 1.5612028055980376 12.440287302603986 0 0 0
431 1 12.532121020889734 3.3436346469316907 12.249361179869732 0 0 0
433 1 14.205576425583176 3.517483791671086 10.413238982526973 0 0 0
435 1 15.968592156418294 3.3317721903135373 12.22876905860535 0 0 0
1177 1 21.382014288478295 14.17488469956042 3.2408108397627733 0 0 0
385 1 0.003121506669089058 -0.1376457857314719 10.63909463886768 0 0 0
499 1 15.847860998936168 10.622085951665175 12.391920208108038 0 0 0
406 1 19.49878810406495 1.6758730057064306 10.61210715411655 0 0 0
408 1 17.783021917938107 1.594547122702779 12.283818658122344 0 0 0
437 1 17.635839223954108 3.3254185246029992 10.669659925858141 0 0 0
439 1 19.65667197084447 3.3617307150405735 12.409003554615303 0 0 0
415 1 26.69448304522649 -0.10944784503251981 12.29901962112588 0 0 0
409 1 21.195655980017648 -0.0009944073635972106 10.679834059865351 0 0 0
500 1 14.026626703057682 12.388569471555265 12.435169344346468 0 0 0
410 1 23.135918537385926 1.6139698391172106 10.729188846471914 0 0 0
412 1 21.419734575365005 1.7838556107675598 12.453874912172584 0 0 0
441 1 21.329476498175367 3.466308828225477 10.613408538586718 0 0 0
443 1 23.075378065895123 3.570183372108974 12.335392307018216 0 0 0
538 1 23.09765743708563 1.7986511291725495 14.086547495531324 0 0 0
417 1 0.12522431949010127 3.499515545202666 10.513198075818327 0 0 0
388 1 28.463993017668372 1.6373894882204407 12.431999552206042 -1 0 0
414 1 26.698269152949365 1.7796710274728078 10.638946591972537 0 0 0
416 1 24.99969584691528 1.612212395707579 12.42736474940166 0 0 0
445 1 24.8357935797157 3.537620036245012 10.689249530887249 0 0 0
447 1 26.935111926625666 3.470650177474634 12.386032561199475 0 0 0
625 1 14.068221886793538 10.667442158424121 14.094929931582302 0 0 0
418 1 1.7448317575256165 5.334226045251974 10.593201345658281 0 0 0
424 1 3.341564279175155 5.301979907866488 12.546672474561356 0 0 0
450 1 1.5383512903069836 8.776093110565942 10.484286885088398 0 0 0
451 1 1.519617704902242 7.178026860907868 12.375709129686369 0 0 0
453 1 3.487496997482179 7.128146687817778 10.741760132415251 0 0 0
456 1 3.486196733323496 8.95276434037333 12.490720023591985 0 0 0
1169 1 14.380733388011627 14.043905120320865 3.358507397612833 0 0 0
413 1 24.92289634808455 -0.08663053495324391 10.605718160243493 0 0 0
422 1 5.183266469871664 5.030010095963514 10.690982305801642 0 0 0
428 1 6.9688429086860575 5.18921428569832 12.488820232983834 0 0 0
454 1 5.175480713148748 8.810729782049508 10.605309785996262 0 0 0
455 1 5.1856213785112715 6.807609675120786 12.28328728498029 0 0 0
457 1 7.038795129799857 6.94728020636096 10.79975542400908 0 0 0
460 1 7.018937634789544 8.675807301927088 12.405540100304597 0 0 0
1035 1 8.928708983606821 14.070837944144717 1.5725432324960515 0 0 0
426 1 8.949924407036546 5.085020666112476 10.61598519335478 0 0 0
432 1 10.771262242622537 5.163761290957872 12.387697666076122 0 0 0
458 1 8.698318797770998 8.813695515914269 10.735475958604695 0 0 0
459 1 8.873851775111 6.971621588859814 12.366533391523276 0 0 0
461 1 10.618739061494058 6.931722836913519 10.634861757263215 0 0 0
464 1 10.579740497347622 8.792998292649278 12.317187416567068 0 0 0
1165 1 10.700203886351188 14.04265713070066 3.2705350311017503 0 0 0
430 1 12.402860387652886 5.086331679162592 10.59466186512124 0 0 0
434 1 16.024253427488453 5.1998221608807755 10.432311191529093 0 0 0
436 1 14.295418829267275 5.325859378360527 12.242597808213233 0 0 0
462 1 12.257806346723736 8.972039348184868 10.538675022683028 0 0 0
463 1 12.390553837291787 6.941246067568381 12.30631978118784 0 0 0
465 1 14.110927513478298 7.109772041734032 10.685549355363857 0 0 0
466 1 16.024148247778335 8.848462433839805 10.564355900355435 0 0 0
467 1 15.998562824175105 7.128451451537823 12.315063603018219 0 0 0
468 1 14.197919777669775 8.758495517427537 12.456589122657787 0 0 0
562 1 15.884011117246212 5.159233954554664 14.064849214102267 0 0 0
1153 1 28.42305638478424 14.137094258168112 3.439638377012405 -1 0 0
493 1 10.334376555491698 10.649156689112747 10.653608905476252 0 0 0
491 1 8.76955549632094 10.631493702314367 12.557867427259001 0 0 0
438 1 19.429730276577082 5.093187375655199 10.651415969962422 0 0 0
440 1 17.54969643710985 5.221683243191543 12.313896075906348 0 0 0
469 1 17.683453027173833 6.9890784561705575 10.494825356100748 0 0 0
470 1 19.557671518929723 8.784461189460881 10.660631677885569 0 0 0
471 1 19.525255801177458 6.971561049215253 12.298034123188073 0 0 0
472 1 17.707270445204166 8.803771767515055 12.490839340822813 0 0 0
566 1 19.5335850485895 5.119078165962651 13.959272386028232 0 0 0
598 1 19.528732587002935 8.784602340146531 14.102676632289384 0 0 0
442 1 23.13195295188183 5.376097557324214 10.407894959178329 0 0 0
444 1 21.400382562366104 5.222109210376321 12.325156495677215 0 0 0
473 1 21.287215247762077 6.777725882649995 10.55824363184811 0 0 0
474 1 22.953081484216163 8.737327029749117 10.541397753891678 0 0 0
475 1 23.306391657166955 6.898490591282016 12.21545055017646 0 0 0
476 1 21.401363672560358 8.742867460903712 12.389638157471282 0 0 0
602 1 22.969686759592 8.810485717951096 14.044534900400027 0 0 0
486 1 5.388665546835963 12.548946247332147 10.653356979462215 0 0 0