LAMMPS data file via write_data, version 29 Oct 2020, timestep = 300000

2048 atoms
1 atom types

-0.15062563709331478 28.502625637094845 xlo xhi
-0.15062563709331478 28.502625637094845 ylo yhi
-0.15062563709331478 28.502625637094845 zlo zhi

Masses

1 58.933

Atoms # atomic

8 1 3.254538040940599 1.7205370023953044 1.6913251668488705 0 0 0
35 1 1.4993288712752693 3.2166813400973244 1.6618652417421302 0 0 0
130 1 1.6422736543941947 1.604733875343418 3.577648171845759 0 0 0
165 1 3.4163100869834557 3.4730012376127175 3.700895843084545 0 0 0
3 1 1.6302796647516826 -0.04951208123765541 1.7217455478472408 0 0 0
133 1 3.577829004417594 -0.1132567301859484 3.4753884936534556 0 0 0
397 1 10.701105783439965 -0.12073952620095696 10.69056375010138 0 0 0
637 1 24.799676347415023 10.59559882775995 14.052448583574627 0 0 0
33 1 28.396216543258955 3.5089939303226325 -0.07392649267562212 -1 0 0
12 1 7.075479984030327 1.8698191591620112 1.8004045264088937 0 0 0
39 1 5.123438728525504 3.498687725033242 1.6631467477455377 0 0 0
134 1 5.330395900538186 1.82588470215502 3.544719889465624 0 0 0
169 1 7.025306066137688 3.6166674252103204 3.590879072296397 0 0 0
6 1 5.317786350670404 1.8786105979553045 -0.09753770471412217 0 0 0
484 1 28.41403505158158 12.298459437112895 12.530786130684609 -1 0 0
509 1 24.853527441146674 10.549565840065153 10.533273280300582 0 0 0
41 1 6.957443065657738 3.748749889901091 0.05814774058102859 0 0 0
16 1 10.675753707018899 1.5884923221165366 1.74651206502659 0 0 0
43 1 8.923522541434853 3.4578847626364237 1.743873181343588 0 0 0
138 1 8.99708647891996 1.7972056726096433 3.710609128528227 0 0 0
173 1 10.904365210592557 3.4801493633316745 3.3743587808477384 0 0 0
45 1 10.609754060133987 3.1816050204654758 -0.050904289508143755 0 0 0
11 1 8.78765799357246 -0.1381606524940059 1.8389275565193663 0 0 0
20 1 14.164923895367433 1.6905884040328794 1.7824194469481265 0 0 0
47 1 12.332796123651185 3.430193071581801 1.5043390961869663 0 0 0
51 1 15.987862239349832 3.563671482727438 1.5962485732572502 0 0 0
142 1 12.326643398265642 1.677091329115764 3.45363646844148 0 0 0
146 1 16.078171769081287 1.794131523662924 3.4455806529659636 0 0 0
177 1 14.064219824720587 3.533714100677397 3.3760383664207883 0 0 0
1437 1 24.90319100680187 13.978674737337176 10.478677479292008 0 0 0
19 1 16.22610352982801 -0.07572846012219016 1.825345702878407 0 0 0
510 1 26.89607673124801 12.153646266411641 10.497940280953477 0 0 0
49 1 14.104036146593758 3.552908794489869 -0.1479249631292069 0 0 0
18 1 15.738137601270706 1.5886032879060108 -0.06532837088207216 0 0 0
24 1 17.81681121921398 1.8276595944017882 1.4453391786222025 0 0 0
55 1 19.567104370954695 3.603603883055278 1.5710143939455417 0 0 0
150 1 19.526917995066256 1.8900021835950378 3.3797263403963447 0 0 0
181 1 17.911864840342105 3.6407901095793807 3.3631441879798056 0 0 0
511 1 26.592131019408505 10.594778236008588 12.37548986371677 0 0 0
22 1 19.54105222687251 1.5481376452766973 -0.07133713215418692 0 0 0
28 1 21.1498241453547 1.4354522284850648 1.6977911106941401 0 0 0
59 1 23.15610988832004 3.5330693928939247 1.5119749498458819 0 0 0
154 1 23.043369168866285 1.6590884373858352 3.3996230489133126 0 0 0
185 1 21.371388705000548 3.450151276623063 3.3756151819669062 0 0 0
25 1 21.313979607968847 -0.09148633703303202 -0.08903173131207778 0 0 0
512 1 24.932920170792116 12.343994540556483 12.385533555620375 0 0 0
26 1 22.951260151442817 1.537343978930915 -0.01434857866951142 0 0 0
4 1 -0.118030489218242 1.513861943004253 1.4701859527978807 0 0 0
161 1 28.45239031044637 3.493614271383081 3.2690904193477874 -1 0 0
32 1 24.738428866680955 1.6512115111683527 1.6423392997464084 0 0 0
63 1 26.618535611238478 3.5559472170191024 1.6811012419794702 0 0 0
158 1 26.862165070813177 1.7426887874102737 3.507939693000103 0 0 0
189 1 24.804199820056716 3.362803977649584 3.353488614765529 0 0 0
395 1 8.739979138278926 -0.006916908921049014 12.300331648970399 0 0 0
391 1 5.271326682540921 0.057841299230304344 12.391250441787081 0 0 0
505 1 21.34661238259651 10.571266783536112 10.592998558369139 0 0 0
129 1 28.455077604793182 0.06602769307308157 3.481580206325591 -1 0 0
40 1 3.3278749998535515 5.232137923703995 1.6150871469658725 0 0 0
67 1 1.6405859827661362 6.826953786061148 1.4725558077719894 0 0 0
72 1 3.47436408486955 8.733325204338245 1.5091640884211934 0 0 0
162 1 1.5868693993197147 5.308555127300324 3.6228849702828216 0 0 0
194 1 1.5302758824335942 8.72296043211986 3.226284433110732 0 0 0
197 1 3.3353684602496454 7.013183255752199 3.299944842668708 0 0 0
387 1 1.6909312498631122 -0.02692765954304832 12.234097616263039 0 0 0
385 1 28.46007608099294 -0.11025606414686706 10.564512831479398 -1 0 0
68 1 28.491048445972734 8.650209204836145 1.5961120286832946 -1 0 0
36 1 -0.07333506683399996 5.291138303087107 1.940099947236431 0 0 0
44 1 7.1503573540654655 5.370815950248086 1.7471568240985529 0 0 0
71 1 5.071799297593324 6.810315656585009 1.653384323681385 0 0 0
76 1 6.912234378843895 8.656711145656722 1.5326680955924157 0 0 0
166 1 5.064727293121006 5.097852500643942 3.435773580576418 0 0 0
198 1 5.09921350256551 8.769986014435931 3.2606087329596742 0 0 0
201 1 6.980135865679107 7.110137185964112 3.297146735576201 0 0 0
1557 1 17.683194531276335 14.12915933431341 14.083153419613915 0 0 0
529 1 14.125409401496844 -0.1384195799105612 14.069438148447171 0 0 0
48 1 10.590890426903178 5.261145502057052 1.6237564096860853 0 0 0
75 1 8.866890962310135 7.145121562099654 1.5371057027491777 0 0 0
80 1 10.677061360740204 8.766032632423808 1.757596989885716 0 0 0
170 1 8.878476931009223 5.375901898674347 3.424278070327672 0 0 0
202 1 8.78170472148066 8.814086103535839 3.506175307803993 0 0 0
205 1 10.73770297993314 6.977714769723343 3.6044671423468033 0 0 0
42 1 8.869593467425705 5.191058748078674 -0.1497622965582896 0 0 0
52 1 14.438201950769406 5.363065568521359 1.480935860315244 0 0 0
79 1 12.590598382669187 6.9006706609717945 1.629671747937199 0 0 0
83 1 16.068117342318004 7.027697189804854 1.6058842619830411 0 0 0
84 1 14.229606119685739 8.843044143271797 1.5483352138328144 0 0 0
174 1 12.59895855446054 5.501185689100241 3.4815144576991703 0 0 0
178 1 16.096545307461078 5.206401719316595 3.4283596501201163 0 0 0
206 1 12.442829769587284 8.830213550396175 3.4862464645047067 0 0 0
209 1 14.471478374351559 7.172276424513091 3.5284998323196985 0 0 0
210 1 16.132272138447576 8.799892984448869 3.6310203935691976 0 0 0
1429 1 17.584598258374868 14.053953535228727 10.502672385016291 0 0 0
1431 1 19.434220051353712 13.949651982685303 12.482558931438643 0 0 0
56 1 17.541940264420788 5.203785231526373 1.4724829407218505 0 0 0
87 1 19.347167657635907 7.060394738634356 1.718844854429174 0 0 0
88 1 17.786358403538756 8.898751485971964 1.6064409257179346 0 0 0
182 1 19.49571132135909 5.339614455806048 3.4441903615200333 0 0 0
213 1 17.730864286934157 7.012259263812492 3.5161369372782354 0 0 0
214 1 19.421247934998064 8.951249296723978 3.3609935509239652 0 0 0
85 1 17.795878643896295 7.035985003590165 -0.04857938949308614 0 0 0
60 1 21.25261404426808 5.350285294762587 1.7529713998502499 0 0 0
91 1 23.150551048566626 7.093214919418926 1.5509700602691843 0 0 0
92 1 21.090515180436988 9.051501040410608 1.4845254388513278 0 0 0
186 1 23.27229587257814 5.219134363338777 3.3874615430772206 0 0 0
217 1 21.379056102747512 7.11181338847994 3.3437007086586314 0 0 0
218 1 22.975313357839546 8.93523221224113 3.08469400291248 0 0 0
1419 1 8.611599969989006 14.007685062529166 12.380205855215932 0 0 0
193 1 -0.07342097647612889 7.008414995209428 3.690941438853858 0 0 0
64 1 24.871205248403236 5.279627449257628 1.7109796024952106 0 0 0
95 1 26.730401822289764 6.878316153894887 1.732646347064453 0 0 0
96 1 24.890784055678154 8.733346098547203 1.6594307341456334 0 0 0
190 1 26.735423376589317 5.119684820576885 3.4744169462823247 0 0 0
221 1 24.624899681590612 7.362619557451262 3.4822406884261614 0 0 0
222 1 26.601263905884252 8.764467245588122 3.2177793081042703 0 0 0
99 1 1.750083674107518 10.398791805855534 1.4191256046145613 0 0 0
104 1 3.363021945227824 12.266773818079045 1.6961553070102957 0 0 0
226 1 1.6372274280919314 12.275520175937928 3.592955928101974 0 0 0
229 1 3.331968287332201 10.39024989091902 3.488046726203428 0 0 0
225 1 28.35829057742339 10.401594718002851 3.351247462943941 -1 0 0
100 1 -0.12173560433392404 12.336720491049197 1.7138921331007055 0 0 0
1029 1 3.4264105551310533 14.012085102307397 -0.1255964851945579 0 0 0
1415 1 5.123916910403812 14.072384139859054 12.410860654598947 0 0 0
103 1 4.973430816927921 10.673323885146525 1.6901701175752282 0 0 0
108 1 6.975536705148296 12.472301022004254 1.7878314116417564 0 0 0
230 1 5.152608506513893 12.38477467311071 3.479733758557034 0 0 0
233 1 6.935010344379509 10.472779552940514 3.2089999148399384 0 0 0
1033 1 6.990570326218082 14.069870898222957 0.023719771806542778 0 0 0
105 1 6.728920641973751 10.756014236226715 -0.10390699072409265 0 0 0
506 1 23.112003743497105 12.338381363741394 10.433829843209349 0 0 0
507 1 23.085624662024152 10.615468881121862 12.40310987506728 0 0 0
102 1 5.15413993412512 12.460516931260011 -0.03190450084392023 0 0 0
107 1 8.76854348743326 10.49680134296108 1.6327075796602626 0 0 0
112 1 10.774450054068149 12.488419279610259 1.5333262822805163 0 0 0
234 1 8.705131961063076 12.403011075258116 3.553676038883195 0 0 0
237 1 10.517819677177691 10.511624382250952 3.4496531945029707 0 0 0
1541 1 3.396901193807801 14.163524860151707 14.122149435637025 0 0 0
111 1 12.289954000071063 10.40075180736158 1.570633927938236 0 0 0
115 1 15.918569385759897 10.541653260298476 1.4641735262340076 0 0 0
116 1 13.928034657084895 12.229943859345477 1.549566011824251 0 0 0
238 1 12.290793519888487 12.46497416668652 3.419649652636543 0 0 0
241 1 14.101981476191071 10.668956755243897 3.268349871509609 0 0 0
242 1 15.898166445341394 12.245091497845 3.314532312701688 0 0 0
508 1 21.319253435338503 12.393726159245361 12.39668857715376 0 0 0
1041 1 14.100067457463584 14.11911391360973 -0.12167955137113681 0 0 0
1169 1 14.146993318922933 14.132529996846282 3.560573174029116 0 0 0
119 1 19.476856427842527 10.61250201779834 1.552225870013647 0 0 0
120 1 17.66325815084099 12.4357837715624 1.6410333901979608 0 0 0
245 1 17.625207631214288 10.618594768367121 3.2966462303656643 0 0 0
246 1 19.348677764711404 12.357785941916804 3.314058418813001 0 0 0
1433 1 21.13063316640838 14.171513469105848 10.644911199892068 0 0 0
1561 1 21.354179092967307 14.160334274492646 14.1055056569426 0 0 0
285 1 25.084166181435428 -0.14108393185411927 7.006254654147961 0 0 0
501 1 17.833162661516923 10.545251067723687 10.662232045006162 0 0 0
123 1 23.047415834848998 10.727092316383457 1.5007131993272254 0 0 0
124 1 21.334475009870218 12.38296113916435 1.7086973794793907 0 0 0
249 1 21.388886487461754 10.620184919712369 3.415958977480317 0 0 0
250 1 23.23132157609446 12.315330461037094 3.324372992915068 0 0 0
1051 1 23.24366620680545 14.161089216129897 1.7280531841113227 0 0 0
127 1 26.74447686474584 10.63261912904842 1.5637257550797516 0 0 0
128 1 24.845575580694643 12.489578676473684 1.5898034086101658 0 0 0
253 1 24.949716244272324 10.472141028671048 3.415651441178865 0 0 0
254 1 26.558978628367548 12.347128912993558 3.244423260944946 0 0 0
283 1 23.212932709894588 -0.12809297047126478 8.897902228266759 0 0 0
275 1 15.863412749080501 -0.13337092700747633 8.788961652766258 0 0 0
136 1 3.4221788840045373 1.6531594976746782 5.272295007572971 0 0 0
163 1 1.6688585599836743 3.4334687709572846 5.310169897224246 0 0 0
258 1 1.6415285850422021 1.6144579945773245 7.142228468828385 0 0 0
264 1 3.6322069573140547 1.5640265751588338 8.655131613167073 0 0 0
291 1 1.6447402646669014 3.566910062857914 8.68559973472263 0 0 0
293 1 3.438841777345508 3.452374395811974 7.138273014130604 0 0 0
502 1 19.410244608570878 12.44538817192374 10.38925390955637 0 0 0
261 1 3.4881925406424164 -0.05459620877130428 6.912186067641599 0 0 0
503 1 19.46475454288729 10.591307638323856 12.46123639237602 0 0 0
140 1 7.109487219126492 1.606332872814346 5.111263664093218 0 0 0
167 1 5.211630476069148 3.506496703738102 5.3339214643158686 0 0 0
262 1 5.270111950214629 1.7174859825847324 6.91400386493258 0 0 0
268 1 7.0276804021572605 1.71189761926337 8.772054818384332 0 0 0
295 1 5.286613344826781 3.6156016101857724 8.608333766763625 0 0 0
297 1 7.095527344815469 3.438813110654965 7.011524445391691 0 0 0
504 1 17.805366592282795 12.383467788589519 12.263589211960818 0 0 0
494 1 12.393090673034168 12.381921568291945 10.78327250686767 0 0 0
144 1 10.717296380529719 1.8990737530145476 5.271258386517278 0 0 0
171 1 8.877535796225663 3.602056090689408 5.363233312318972 0 0 0
266 1 8.882004639475552 1.7187903387556973 6.724721396306811 0 0 0
272 1 10.742922652116217 1.47187373154606 8.778498789341118 0 0 0
299 1 8.895024645327112 3.2607895854617697 8.673829395618236 0 0 0
301 1 10.799948295321764 3.60059547673807 7.222203959633019 0 0 0
267 1 8.745806211462044 -0.1490828851278892 8.640070901679334 0 0 0
495 1 12.405924626265682 10.518775452540853 12.588465820848022 0 0 0
147 1 16.001854803372645 -0.07644310657422362 5.2395427214735655 0 0 0
497 1 14.010891434499902 10.590104656673963 10.688605338235613 0 0 0
148 1 14.16433439950626 1.6832295634938816 5.148838135685508 0 0 0
175 1 12.416105335999173 3.5560101212092996 5.317330665393821 0 0 0
179 1 16.04003707627264 3.3061086858102113 5.0893626804189225 0 0 0
270 1 12.47269729110436 1.6573836482146687 6.996666354180707 0 0 0
274 1 15.849123352799111 1.7683980737775105 6.953883872766932 0 0 0
276 1 14.334221344245579 1.5542104527225835 8.945249467428875 0 0 0
303 1 12.54397274780058 3.51611240740571 8.914094608786844 0 0 0
305 1 14.263557757084447 3.6828038225013797 7.147504981970403 0 0 0
498 1 16.000338696285013 12.273203438029155 10.658355702110379 0 0 0
499 1 16.175932606588795 10.426820039289696 12.280082660150244 0 0 0
307 1 15.963501434862936 3.3643616368733626 9.042105467051385 0 0 0
500 1 14.011130826919187 12.502521639381857 12.580456818498627 0 0 0
152 1 17.781550090875932 1.5342972272382616 5.172908872759991 0 0 0
183 1 19.72690455263365 3.4096325322567016 5.141714040032737 0 0 0
278 1 19.481825425601677 1.7668646429221906 6.966474454871907 0 0 0
280 1 17.798581117611754 1.6032142713084723 8.77141297481522 0 0 0
309 1 17.70812020936448 3.325813489049132 6.868779016866232 0 0 0
311 1 19.537381516905015 3.433199692812963 8.812342164584392 0 0 0
155 1 23.10410586407194 -0.03739672477462047 5.299691604957038 0 0 0
625 1 14.166659629845578 10.51624293937807 14.119853054408102 0 0 0
156 1 21.160209239791484 1.4526698743319455 5.276817398886738 0 0 0
187 1 23.186792527248365 3.267987060896593 5.175956842971179 0 0 0
282 1 23.055582592693973 1.5523881743004617 7.028100151917635 0 0 0
284 1 21.3487724682643 1.517100075829951 8.773192468754182 0 0 0
313 1 21.41308458442979 3.4183290572943488 6.814712802035322 0 0 0
315 1 22.975774641892933 3.4157046155165047 8.738174023288535 0 0 0
139 1 8.955815022468672 -0.15028049821886214 5.275602158705161 0 0 0
289 1 -0.007173498497820674 3.5297686739656196 7.09225326887628 0 0 0
260 1 28.437178583049167 1.670460934392762 9.039581999001827 -1 0 0
132 1 -0.14867767548584254 1.8545401448070797 5.201782326571584 0 0 0
263 1 5.325660704145898 -0.135828149279277 8.637310461462851 0 0 0
160 1 24.864879126575303 1.5826953267703023 5.155304315931183 0 0 0
191 1 26.767760499187965 3.3031799537928417 5.18896305337318 0 0 0
286 1 26.878359113896316 1.7378342891246115 7.0151185250901795 0 0 0
288 1 24.905787840566788 1.6540019928524485 8.920831742148088 0 0 0
317 1 24.88867523622521 3.363237982075964 6.960781353635068 0 0 0
319 1 26.57276671178556 3.2953473153707216 8.795175614888624 0 0 0
168 1 3.5793246777729064 5.323981400620654 5.276308321896722 0 0 0
195 1 1.8040252126913037 7.114225072822993 5.315599655005478 0 0 0
200 1 3.3583808409937412 8.79707860733952 5.116927202478065 0 0 0
290 1 1.730856888701612 5.429200592640126 6.982178491503517 0 0 0
296 1 3.4731987331870044 5.540076920118918 8.827267157998142 0 0 0
322 1 1.644484757537752 9.04201364181262 7.0635023784098 0 0 0
323 1 1.648334178210812 6.988952385522702 8.893541967174931 0 0 0
325 1 3.63583836836217 7.144179453656717 7.128856087759708 0 0 0
328 1 3.3384826805864214 8.808981854589243 8.989668164201033 0 0 0
196 1 -0.10275544432483949 8.682430344197298 5.250861163228158 0 0 0
172 1 7.121074042173883 5.245623910494092 5.16713083084743 0 0 0
199 1 5.166160283682166 7.1004430180562155 5.222419173032102 0 0 0
204 1 6.80369847727107 8.760202520722622 5.21957872961903 0 0 0
294 1 5.34890029708837 5.3432948907747715 7.070866670467077 0 0 0
300 1 7.266341099365338 5.326893431703077 8.850913769889615 0 0 0
326 1 5.237166530335827 8.838763756460644 7.128200201857482 0 0 0
327 1 5.386041400834746 6.911613966841447 8.760351639810708 0 0 0
329 1 7.174322499033112 7.036126956564809 7.002599857272603 0 0 0
332 1 7.150566844254713 8.816293508991446 8.911956789388867 0 0 0
176 1 10.751656084667195 5.265546824778087 5.1803016799652255 0 0 0
203 1 8.843096390630214 7.259373150854287 5.354388453044641 0 0 0
208 1 10.675207196086621 8.935565135686726 5.468439818874039 0 0 0
298 1 9.069498788761596 5.503890441147374 7.03967349725864 0 0 0
304 1 10.55761267198203 5.331752273726908 8.96907144056208 0 0 0
330 1 8.893845817691204 8.724168212918274 7.128548955945432 0 0 0
331 1 8.816952269764446 7.196616325279698 8.916320234759022 0 0 0
333 1 10.636688373231642 7.20625753937854 7.2424062428583 0 0 0
336 1 10.486271187355714 9.055783888393327 8.84270840540015 0 0 0
180 1 14.183014634070227 5.279267920501605 5.182072399529529 0 0 0
207 1 12.57498443633418 7.238185283143509 5.373232647448974 0 0 0
211 1 16.08161351510968 6.823432665014843 5.337974236047598 0 0 0
212 1 14.155657850790963 8.827385559998113 5.268169054827723 0 0 0
302 1 12.438466945862428 5.306565893607066 6.8674569113414545 0 0 0
306 1 16.10726599842731 5.152146424688565 7.009997853590913 0 0 0
308 1 14.241474701310626 5.365928389251411 8.851325832539766 0 0 0
334 1 12.481814167369745 8.953636054324834 7.171769799062072 0 0 0
335 1 12.364685403605572 6.945881206451582 8.877305108114275 0 0 0
337 1 14.300686785009384 6.944416179735479 7.033878394973363 0 0 0
338 1 16.309645735705523 8.688828580740061 6.917351142633127 0 0 0
339 1 16.14178974071639 6.911073122133427 8.675384437960568 0 0 0
340 1 14.31549023243321 8.745094257690214 8.715023573067253 0 0 0
184 1 17.79188670478934 5.062104482372262 5.18597602067426 0 0 0
215 1 19.61891972763349 7.123133679614117 5.140238345356165 0 0 0
216 1 17.761357998757525 8.809260863013655 5.32404601012953 0 0 0
310 1 19.633649975574478 5.1451701153629505 7.0572199712391654 0 0 0
312 1 17.670156917275605 5.154613838306648 8.687600419363772 0 0 0
341 1 18.0231463684527 7.052570470359436 6.899885941155343 0 0 0
342 1 19.75105014087586 8.90883869009395 6.867638711078087 0 0 0
343 1 19.573837376160917 6.97397700970981 8.790658678693962 0 0 0
344 1 17.957877040043783 8.797736080739417 8.7868543867854 0 0 0
188 1 21.277925489480168 5.331245485204496 4.957038562579624 0 0 0
219 1 23.013367107199826 7.082183929947972 5.118735737717216 0 0 0
220 1 21.377256239476345 8.84108539989345 5.097859477585348 0 0 0
314 1 23.20102483647502 5.2863205854403414 6.87392783032714 0 0 0
316 1 21.403146580661698 5.223688676688103 8.894129117077355 0 0 0
345 1 21.35495044738842 6.889753310341741 7.018184098079935 0 0 0
346 1 22.98604754229899 8.860461199670441 6.827195921063423 0 0 0
347 1 23.156414042678833 6.977613273425941 8.811337694850579 0 0 0
348 1 21.299243445877067 8.877500623187352 8.784977612792108 0 0 0
164 1 -0.12121947568179792 5.184638503521679 5.413172351739755 0 0 0
321 1 28.482618794193407 7.051607798649631 7.173074008778678 -1 0 0
324 1 28.2722810297458 8.7991478490239 8.77679012700564 -1 0 0
292 1 -0.09730729491801782 5.281009968951978 8.849436432303722 0 0 0
192 1 24.772842873840794 5.142936607960417 5.006505614987249 0 0 0
223 1 26.63710834320424 6.959605890526237 5.1867635387892586 0 0 0
224 1 24.832422200845798 8.754362755664616 5.308699791553882 0 0 0
318 1 26.650686157417518 5.171560095717391 7.004313798808963 0 0 0
320 1 24.747167333757226 5.140172656991274 9.044834160869804 0 0 0
349 1 24.756368518129776 6.783431519723522 6.963537391243909 0 0 0
350 1 26.756417412056912 8.656948800401132 6.998435891259562 0 0 0
351 1 26.671850875331913 7.049272537619591 8.810194422665898 0 0 0
352 1 24.85308193901578 8.946395169549028 8.48912452040528 0 0 0
227 1 1.3658052649765098 10.638577215244485 5.087302713977403 0 0 0
232 1 3.3580527044770063 12.208768898819947 5.177878489718939 0 0 0
354 1 1.5835151146985302 12.455747616403166 6.961388953262397 0 0 0
355 1 1.7355409490603853 10.835126399345793 8.841823932457126 0 0 0
357 1 3.413459444863011 10.468807341539351 7.0507512405459485 0 0 0
360 1 3.4341627375590837 12.468277574150253 8.749277538461763 0 0 0
1423 1 12.209657746805739 14.148881645086625 12.378308605076569 0 0 0
1283 1 1.4791840823785565 14.012093077096935 8.711533356618448 0 0 0
353 1 -0.061456737911516485 10.527418450608847 7.0954152212569 0 0 0
231 1 5.157555892915488 10.615597465349758 5.359628373627848 0 0 0
236 1 6.830565699940021 12.37092933768737 5.127436074332903 0 0 0
358 1 5.19960387477849 12.513907118237807 6.9056121130595205 0 0 0
359 1 5.228047050506886 10.406023887995003 8.818533171806385 0 0 0
361 1 7.029957605822281 10.54344881723127 7.227495028967872 0 0 0
364 1 6.767420169778318 12.253348137950434 8.799207719247365 0 0 0
1549 1 10.440055959085488 14.053466788431406 14.093541549863293 0 0 0
1307 1 23.14725516181028 14.046920071696059 8.773829091557092 0 0 0
235 1 8.624617756986172 10.601353561346558 5.028259745837231 0 0 0
240 1 10.560239361361841 12.423599957702336 5.24962143475999 0 0 0
362 1 8.779178274168698 12.33658622869967 6.9352716681336295 0 0 0
363 1 8.859532459781201 10.803483894196342 8.782848832064467 0 0 0
365 1 10.661309605827197 10.647815878612976 7.051511228295018 0 0 0
368 1 10.675077453806873 12.236256138125752 9.003722821292438 0 0 0
1293 1 10.598970972186953 14.169560907144588 6.981792026820986 0 0 0
496 1 10.50766702308174 12.329244798770356 12.417225253413557 0 0 0
1291 1 8.79119944312825 13.975224703715243 8.91984254977135 0 0 0
1297 1 14.270205880174029 14.103832512762109 6.94482545612223 0 0 0
1295 1 12.512628779652728 14.084541114934666 8.61933453637824 0 0 0
239 1 12.507976286556707 10.588220245357922 5.322918122445924 0 0 0
243 1 16.112792329513262 10.700857012709418 5.10266478459661 0 0 0
244 1 14.252760646333089 12.309113719655166 5.153556668691555 0 0 0
366 1 12.385799916478067 12.432896787487849 7.0047624513240505 0 0 0
367 1 12.530014589695107 10.593033958474697 8.7899513896727 0 0 0
369 1 14.315422701834052 10.590660860339035 6.8751324196868016 0 0 0
370 1 15.955274677008992 12.392037017111106 6.73707832752306 0 0 0
372 1 14.226742911013293 12.237395644252052 8.844331839853021 0 0 0
371 1 16.03891530665502 10.455954482959424 8.721442809860322 0 0 0
1299 1 15.857792901895996 13.950596171748609 8.57625014262732 0 0 0
247 1 19.51747805613121 10.575425208400041 5.14685126598882 0 0 0
248 1 17.8337432044284 12.481826596678728 5.068280792011637 0 0 0
373 1 17.83591504991572 10.803623992627507 6.982287587295798 0 0 0
374 1 19.39612164432028 12.407244853433218 6.953270876727689 0 0 0
375 1 19.51787273046982 10.489640513064188 8.7853201615489 0 0 0
376 1 17.768979207316995 12.39175635202468 8.745641674472362 0 0 0
490 1 8.54356284374326 12.438879013015955 10.564590487455957 0 0 0
1303 1 19.61209750561862 14.001808681204137 8.720238191169184 0 0 0
1179 1 23.24156278640266 14.058723891230823 5.036184645251449 0 0 0
251 1 22.999523775305015 10.779017903627963 5.089728819681766 0 0 0
252 1 21.229687550731363 12.746218272020638 5.302906762781916 0 0 0
377 1 21.420942344874447 10.738495624513979 6.785053700733153 0 0 0
378 1 23.253928333985307 12.618007571434699 7.040781906044152 0 0 0
379 1 23.072969142233184 10.657243939129234 8.595146267222106 0 0 0
380 1 21.281418340463823 12.330003210113246 8.717512142162258 0 0 0
491 1 8.746807494907921 10.57608102895955 12.725573062586134 0 0 0
228 1 28.436646055760626 12.339496742373527 5.225024663650316 -1 0 0
356 1 28.415219737387517 12.13667940847169 8.805887727502098 -1 0 0
255 1 26.752518905107905 10.422233719517362 5.3454683423670435 0 0 0
256 1 24.92970040881665 12.380398452643627 5.062743579119374 0 0 0
381 1 24.854985002954955 10.817265298412114 6.931518390384483 0 0 0
382 1 26.86597506964445 12.496185771326088 6.817216732002596 0 0 0
383 1 26.66560557068611 10.507759572258044 8.561084405925666 0 0 0
384 1 24.851610659413673 12.331245422694064 8.819441324405371 0 0 0
493 1 10.63161640969212 10.511752448241692 10.778200397719457 0 0 0
1171 1 16.121792222944308 14.115248791053228 5.081690279153989 0 0 0
1167 1 12.493052220999218 14.097316877616896 5.520152311452984 0 0 0
1311 1 26.774007291675872 14.096869469509171 8.752897794186621 0 0 0
389 1 3.4809078849257262 -0.06075278522983972 10.591737556803386 0 0 0
386 1 1.7373700063977209 1.8647190612168028 10.423265050754852 0 0 0
392 1 3.540405635062393 1.6784197056311043 12.29403831591956 0 0 0
419 1 1.8860102539801193 3.3334183704506617 12.34419342601236 0 0 0
421 1 3.4969094667614256 3.4148842247375275 10.398629723911059 0 0 0
388 1 -0.12253587881523217 1.6653008111633683 12.467662034436566 0 0 0
513 1 28.40822763573435 -0.10306694252783563 14.169398512122374 -1 0 0
390 1 5.270325018074836 1.7768786460703907 10.471404206012606 0 0 0
396 1 7.093786436552394 1.7114417486870284 12.124014642245998 0 0 0
423 1 5.309532820626251 3.390649668833082 12.337505226664096 0 0 0
425 1 6.934560268400752 3.513765338168096 10.493609362560525 0 0 0
518 1 5.478973364932909 1.6392758140092611 14.128410917567674 0 0 0
394 1 8.806972454687195 1.6917757951602614 10.509920480133712 0 0 0
400 1 10.683007373475785 1.640097303050792 12.293799416976496 0 0 0
427 1 8.83291199533745 3.3619474468901407 12.32907429339198 0 0 0
429 1 10.66840432358939 3.453010058838614 10.285964132193378 0 0 0
398 1 12.495081070534066 1.8221958208929812 10.557414262150752 0 0 0
402 1 16.153627794849655 1.6377430943879165 10.619033279855204 0 0 0
404 1 14.062392224012875 1.6115385227866437 12.39885681067317 0 0 0
431 1 12.405396623607102 3.581814850634315 12.21200657610485 0 0 0
433 1 14.318840237908034 3.513253733396281 10.758621517461766 0 0 0
435 1 16.101183215548467 3.18642234947757 12.549780598866214 0 0 0
487 1 5.278489608904299 10.50707671051506 12.348078357779213 0 0 0
489 1 7.017437470615526 10.437097030161597 10.760735951678235 0 0 0
406 1 19.51195987694983 1.5359539826668198 10.656583746243307 0 0 0
408 1 17.639308200113774 1.4280726273748352 12.447025313789508 0 0 0
437 1 17.661372957367014 3.4233253067437075 10.658133865685269 0 0 0
439 1 19.505236228661083 3.2889165789960715 12.437583363975818 0 0 0
1285 1 3.5526346579681243 14.130792099694755 7.002326097160678 0 0 0
492 1 6.945456195372235 12.318473047654907 12.427088555576736 0 0 0
486 1 5.097031707278872 12.46979124106776 10.523452393954251 0 0 0
23 1 19.34945578644553 -0.09710441071389653 1.5980322152967361 0 0 0
410 1 22.986189959774116 1.6962959489955753 10.512515321471936 0 0 0
412 1 21.306810051335617 1.6743862253482966 12.281641015402638 0 0 0
441 1 21.23850563004069 3.2673571499148206 10.613079813447742 0 0 0
443 1 22.980083205030354 3.385397750601421 12.41269861425246 0 0 0
417 1 -0.06236365351047368 3.4500925037752705 10.736499186779872 0 0 0
7 1 5.291875565546003 -0.030632211963684597 1.65951323081847 0 0 0
414 1 26.675589930618145 1.6585191681630023 10.736842570506832 0 0 0
416 1 24.853634011868238 1.5028001975361827 12.27384716187818 0 0 0
445 1 25.012391013496583 3.3521937034420253 10.716887686692036 0 0 0
447 1 26.598960210967185 3.227462492457077 12.487220865990812 0 0 0
573 1 24.820517737075647 3.3974954482668918 14.07290385233673 0 0 0
418 1 1.6254652227294468 5.200739436488287 10.65190402187619 0 0 0
424 1 3.4974548512529164 5.059411943934565 12.463100910465826 0 0 0
450 1 1.6095258295179158 8.77415801049005 10.587556591892842 0 0 0
451 1 1.5434025862379497 6.810303209266015 12.486479916245704 0 0 0
453 1 3.4469069074409364 6.7850317116330325 10.850097731616485 0 0 0
456 1 3.4181071596930224 8.58543957051045 12.44840661104688 0 0 0
420 1 28.44827071910076 5.1522175858055 12.298436217188868 -1 0 0
1153 1 28.344996545836764 14.036216748313876 3.2228276775905274 -1 0 0
578 1 1.6473135218498716 8.44790639414886 14.156757214340002 0 0 0
422 1 5.395197893941544 5.2082891977488615 10.555508429475573 0 0 0
428 1 6.943907571730614 5.162982899489073 12.488947945771669 0 0 0
454 1 5.293303316469901 8.53102773854865 10.572097628930177 0 0 0
455 1 5.242952858223301 6.955282569314367 12.459390696295287 0 0 0
457 1 7.000752435337903 6.940132247456595 10.616043271167111 0 0 0
460 1 7.171811597999223 8.680336192053648 12.417485296040606 0 0 0
1177 1 21.32762902089231 14.054499475581508 3.326619801823498 0 0 0
426 1 8.58935869200427 5.166371359911299 10.774387138009622 0 0 0
432 1 10.509289074633289 5.233356484415129 12.487082930235973 0 0 0
458 1 8.996270933838577 8.740987160818559 10.787944355986607 0 0 0
459 1 8.81509588762127 6.936221897028669 12.454412244959887 0 0 0
461 1 10.737801959423505 7.043163658399094 10.662404190482524 0 0 0
464 1 10.474958856384067 8.54841744996448 12.687153866093762 0 0 0
1035 1 9.001372873333061 14.124225297436846 1.8573881218362986 0 0 0
430 1 12.356038860648232 5.267999829727276 10.861339937289818 0 0 0
434 1 15.918710462540949 5.323913099770308 10.62201762954023 0 0 0
436 1 14.226017428857427 5.425942435887245 12.433884924136034 0 0 0
462 1 12.295192411317018 8.860685803629503 10.53404951533353 0 0 0
463 1 12.375972428304918 7.232682806605595 12.596041390859298 0 0 0
465 1 14.143619665633214 7.136073673175607 10.394111763523952 0 0 0
466 1 15.994120075741469 8.781139314176842 10.527752061606517 0 0 0