LAMMPS data file via write_data, version 29 Oct 2020, timestep = 300000

2048 atoms
1 atom types

-0.1785914050962436 28.53059140509606 xlo xhi
-0.1785914050962436 28.53059140509606 ylo yhi
-0.1785914050962436 28.53059140509606 zlo zhi

Masses

1 58.933

Atoms # atomic

8 1 3.4511484143231352 1.5007818750866646 1.6551578206531967 0 0 0
35 1 1.5704927333076981 3.604717723781701 1.513978037946777 0 0 0
130 1 1.6789973809591816 1.5710884476145874 3.338174122513044 0 0 0
165 1 3.3987618337372356 3.496442027957 3.175327549164393 0 0 0
161 1 -0.1581143567617222 3.5325191212921587 3.5150561404825518 0 0 0
1161 1 6.7430206451626225 14.140521043804007 3.4059547855446026 0 0 0
1157 1 3.54674439970804 14.04839897096646 3.327552059275412 0 0 0
1427 1 16.153768734687027 13.905238498571856 12.323803613782141 0 0 0
277 1 17.766103369332036 -0.14851019010336586 7.0181104270475085 0 0 0
12 1 7.083080371720609 1.794972882993948 1.59213968394405 0 0 0
39 1 5.325100712684171 3.6458169878446367 1.7992587245833394 0 0 0
134 1 5.141255393691088 1.5831379284245126 3.4901532090894167 0 0 0
169 1 6.971841417288309 3.4827036121838395 3.4489529562184744 0 0 0
45 1 10.62841229026093 3.3727754529049196 -0.1074812154803883 0 0 0
1425 1 14.269776766761849 14.014928037978155 10.786517299285988 0 0 0
16 1 10.607535255901961 1.5389391483253974 1.5769364725650115 0 0 0
43 1 8.605046889880677 3.557064857603673 1.4914395515773011 0 0 0
138 1 8.77099554165723 1.7006307131742926 3.3511085342985947 0 0 0
173 1 10.740335498757187 3.3216657625462025 3.154153796817816 0 0 0
512 1 25.10553201273872 12.358374940120843 12.547356229009356 0 0 0
511 1 26.863622269370303 10.48293152978964 12.437603195229588 0 0 0
20 1 14.187859240648551 1.4695286154270624 1.527265189060548 0 0 0
47 1 12.477087964603196 3.4129682930128693 1.366014248994679 0 0 0
142 1 12.46019163850975 1.6650719401867586 3.388917202957081 0 0 0
146 1 15.962068939033548 1.3753995455963288 3.3861842511112985 0 0 0
177 1 14.092339755228037 3.42799482121691 3.316538947455091 0 0 0
51 1 15.997708170030252 3.278017723989692 1.62033397403418 0 0 0
510 1 26.745161362516612 12.41037134613328 10.585034079213862 0 0 0
1169 1 13.919785149889192 14.11616945325589 3.326298037268231 0 0 0
6 1 5.062561079410771 1.6462198397609147 0.04746829630545607 0 0 0
1421 1 10.718426128994539 14.146921293213218 10.688236313772622 0 0 0
25 1 21.27925008775175 0.0005011175418577485 -0.040112803180817 0 0 0
24 1 17.65936031621836 1.5012784423298446 1.74932938498013 0 0 0
55 1 19.665246637970007 3.3584779964329634 1.6947973907086373 0 0 0
150 1 19.64373386181108 1.4821650229605157 3.273099107016392 0 0 0
181 1 17.714661140277776 3.289337613656871 3.3448628917360046 0 0 0
114 1 16.092591864515633 12.411941228836573 -0.06014921258098649 0 0 0
145 1 14.081159905780902 -0.02288358107523744 3.1783475520139124 0 0 0
509 1 24.9353059086648 10.765182706005652 10.57491746261318 0 0 0
28 1 21.564385437733158 1.3802523575654941 1.7702468384759178 0 0 0
59 1 23.122143478825357 3.4892282026040857 1.8655896629221655 0 0 0
154 1 23.173466779474026 1.463031944459002 3.6013821325897437 0 0 0
185 1 21.29995861628619 3.3890910377119887 3.5230553951948496 0 0 0
265 1 6.960108597941542 -0.08176237875253634 6.861909179012575 0 0 0
4 1 0.09726593910958303 1.8292619673207726 1.5691177747859897 0 0 0
32 1 24.78006889385164 1.633031745519767 1.747348585990929 0 0 0
63 1 26.81477392751161 3.396731901499025 1.7806811581484874 0 0 0
158 1 26.81175412089928 1.6325371825741042 3.3291724695728004 0 0 0
189 1 24.98046461541834 3.2863868060876187 3.696777978515645 0 0 0
69 1 3.3007558047065664 7.1330884713560065 -0.09901515914285423 0 0 0
61 1 24.912769550248342 3.4354868694220473 -0.008140605989255173 0 0 0
257 1 28.366180352739562 -0.13322605013895997 7.014376632255119 -1 0 0
30 1 26.753208473099797 1.8441446923166271 -0.14111192981550655 0 0 0
40 1 3.777341929562577 5.317105971067286 1.7422809571677391 0 0 0
67 1 1.6133194497719578 7.062519820783268 1.801461704553137 0 0 0
72 1 3.322652126346123 8.778409072178261 1.75679385080004 0 0 0
162 1 1.7253787638953628 5.432269698846188 3.364740398775332 0 0 0
194 1 1.3462172755190458 8.959357633409327 3.4961173221364272 0 0 0
197 1 3.322137930971848 7.28321865139943 3.517062813599405 0 0 0
36 1 -0.14564652127319988 5.358080660676268 1.8194324931618102 0 0 0
149 1 17.84334734873964 -0.06991289392096409 3.3017300116979804 0 0 0
85 1 17.840885059791077 6.912147323759191 -0.12739712909851297 0 0 0
44 1 6.996402250147211 5.4637823526013545 1.7218791029294216 0 0 0
71 1 5.256483228713775 7.186274879329151 1.5690795183161361 0 0 0
76 1 7.05379193699354 8.889665036201134 1.6815403884635007 0 0 0
166 1 5.145947536170975 5.24031347916491 3.614833223610303 0 0 0
198 1 5.349976577771611 9.013425624819503 3.6315845051457556 0 0 0
201 1 6.888192802643262 7.271009155373772 3.467196027410186 0 0 0
93 1 24.920918116748737 6.942998985831664 -0.1688022472889971 0 0 0
48 1 10.373068142735686 5.317392188039994 1.6309015215929479 0 0 0
75 1 8.887170422316313 7.097447769294911 1.497648981739009 0 0 0
80 1 10.5891841379091 8.829069038357677 1.4404392055280915 0 0 0
170 1 8.839166736560164 5.388464755711934 3.3774708795830555 0 0 0
202 1 8.936356506189867 8.760051305017985 3.3227648051786414 0 0 0
205 1 10.770489590419444 6.964464609203456 3.4578729909118704 0 0 0
261 1 3.465958711294284 0.03858272166374377 6.872448821755093 0 0 0
1435 1 23.2382255476521 14.019060324326684 12.391844242827853 0 0 0
281 1 21.35419830254262 0.1390005838263334 6.836642429985363 0 0 0
52 1 14.084720899337812 4.99222319529575 1.5340797602594087 0 0 0
79 1 12.44002253226934 7.115722584308507 1.6713053986747581 0 0 0
83 1 15.874002698140208 6.81886813015179 1.6401100899895427 0 0 0
84 1 14.35903778799641 8.755172533529493 1.604079541812923 0 0 0
174 1 12.331239373308957 5.032398860254727 3.4128716389605374 0 0 0
178 1 16.005516446040453 5.099961727271271 3.508225875279579 0 0 0
206 1 12.666438599166254 8.719605218889303 3.4485236933710803 0 0 0
209 1 14.338221397390175 6.837873356734956 3.47464717847485 0 0 0
210 1 15.946442191233606 8.71859686691068 3.356998061300378 0 0 0
285 1 25.085168513782186 -0.13054535517809995 6.777387968302693 0 0 0
143 1 12.52606564272304 -0.06126668703012683 5.166957022823486 0 0 0
56 1 17.826187408522586 5.109753762212613 1.5788015199206415 0 0 0
87 1 19.655256369990262 6.995763593191978 1.7593035950691178 0 0 0
88 1 17.844902584407222 8.803737789934976 1.6416721627782533 0 0 0
182 1 19.59825748625773 5.145415400730998 3.40321059846063 0 0 0
213 1 17.728170635352342 6.8272507057711325 3.253536383865821 0 0 0
214 1 19.584794910893578 8.74391998602601 3.4073965013604552 0 0 0
1289 1 7.198528790798706 14.158727112451732 7.093032185217041 0 0 0
1163 1 8.843219580364428 14.105541435834963 5.305676426606565 0 0 0
60 1 21.359131835706506 4.924389620680951 1.6763919402740064 0 0 0
91 1 22.96810321401216 6.880366409205548 1.5249166916217731 0 0 0
92 1 21.40561072632191 8.682583224034415 1.684185866724692 0 0 0
186 1 23.19077198831158 5.2876834005478175 3.5755397819431525 0 0 0
217 1 21.326707432635352 6.773978812701009 3.404515752291815 0 0 0
218 1 23.119478084698642 8.640058751482025 3.359842072314055 0 0 0
193 1 -0.09170847243257063 7.070211919679775 3.462416159888988 0 0 0
68 1 28.469751715727483 8.652618616890233 1.5445193845599798 -1 0 0
64 1 24.7478687040054 5.210358557100099 1.7561146817214237 0 0 0
95 1 26.76312301215075 7.000350074853269 1.624149402769841 0 0 0
96 1 24.799469154396817 8.796429583384326 1.4607618242426275 0 0 0
190 1 26.572625176431615 5.1703943038268605 3.434445008778522 0 0 0
221 1 25.0729169552151 7.0366511893132895 3.2273141729008317 0 0 0
222 1 26.758814298266905 8.742201144017884 3.2189223995554648 0 0 0
1293 1 10.639429514469624 14.12056516309654 6.986824463964841 0 0 0
62 1 26.75038953069766 5.157608361061734 -0.1122518341269046 0 0 0
1291 1 8.740350226360173 14.1442499633237 8.844392369285796 0 0 0
99 1 1.5416108202148162 10.578485038136446 1.7779694712394618 0 0 0
104 1 3.214240059362577 12.370589791571243 1.5668260776496203 0 0 0
226 1 1.727112963921805 12.3613932498801 3.527595939634921 0 0 0
229 1 3.436758036924715 10.601526266480791 3.4908677356420363 0 0 0
100 1 -0.09575768740630113 12.310138869482287 1.8387128613939097 0 0 0
31 1 26.75045593725863 -0.15401086573382372 1.4744599442316455 0 0 0
225 1 28.412228238100557 10.606234996236271 3.50261383349243 -1 0 0
545 1 28.480372785978048 3.3795704030604403 13.982230096645601 -1 0 0
387 1 1.5443775936169113 -0.1184797463659647 12.169516797967242 0 0 0
279 1 19.477942478905668 -0.00536524939654015 8.660423238435426 0 0 0
103 1 5.114276698163438 10.619573470290334 1.5340573428377196 0 0 0
108 1 6.95184048841982 12.48694104894747 1.694399390750165 0 0 0
230 1 5.294144802892558 12.259628833377977 3.241809031763015 0 0 0
233 1 6.934579671213214 10.642610482088408 3.4544350717655634 0 0 0
569 1 21.2961301921221 3.5432973227299254 14.02442347742011 0 0 0
57 1 21.263817565127617 3.2823826807289307 -0.07983785297033391 0 0 0
283 1 23.32075936877547 -0.05559415215412855 8.782267815663097 0 0 0
107 1 8.796486666194957 10.785222384396535 1.6847805896044896 0 0 0
112 1 10.610192930822727 12.634760599537046 1.6586481275483924 0 0 0
234 1 8.757561309815602 12.601803380859511 3.309453868746855 0 0 0
237 1 10.63540687466064 10.678905218611517 3.315398037968133 0 0 0
407 1 19.41557318562201 -0.0029697777612227583 12.340153454832226 0 0 0
111 1 12.468008495306982 10.489010573917444 1.7464634557159175 0 0 0
116 1 14.235002194073136 12.507157049547905 1.3535253587485327 0 0 0
238 1 12.435373095475422 12.229860345528548 3.0397656388792433 0 0 0
241 1 14.259892805493418 10.617259269918272 3.318625805828052 0 0 0
242 1 15.868661164935597 12.376714999028822 3.2062981090506426 0 0 0
115 1 16.00988527470315 10.366675496680504 1.6163026450933269 0 0 0
26 1 23.0991238084083 1.8086453639852016 -0.10243085065636441 0 0 0
1047 1 19.423067042776857 14.129425385857061 1.6589569382181701 0 0 0
119 1 19.46178449486939 10.544925010851319 1.615119297503444 0 0 0
120 1 17.817690017943605 12.227585070201302 1.601269681101639 0 0 0
245 1 17.656045999205517 10.473711346685675 3.435432161015229 0 0 0
246 1 19.531238659959975 12.517812847574689 3.4057344671251775 0 0 0
521 1 7.086161017406394 0.029246586045640482 14.160452311407735 0 0 0
123 1 23.014819814509437 10.531013739347056 1.5786560238342644 0 0 0
124 1 21.157153205652875 12.238822710005381 1.6939437452438288 0 0 0
249 1 21.34255447900707 10.393891482668309 3.572582574430094 0 0 0
250 1 23.144019878732387 12.261998533727931 3.2011995389921384 0 0 0
405 1 17.810801990481323 -0.10585454694408014 10.415803279964187 0 0 0
253 1 25.006822404791336 10.500582212369673 3.1979552122408808 0 0 0
127 1 26.746793888238244 10.597520619350748 1.6212894786893446 0 0 0
128 1 24.9412473687672 12.28472081916839 1.487651491627759 0 0 0
254 1 26.74332114031855 12.340559898805793 3.2895949392212587 0 0 0
1183 1 26.70934749307998 14.11241228026284 5.25969049920456 0 0 0
1039 1 12.354921364077288 14.125543788786542 1.4678936671151988 0 0 0
1283 1 1.4624277847695628 14.038519989101893 8.753416929870973 0 0 0
136 1 3.491377337482762 1.685704998330872 5.123562323600529 0 0 0
163 1 1.65355749505914 3.5699560311544416 5.086054150715168 0 0 0
258 1 1.3738995855914633 1.5794994207434339 6.915888168738202 0 0 0
264 1 3.488000022818958 1.4490425587523046 8.81577400481271 0 0 0
291 1 1.5090362703241822 3.223530493147045 8.690040730144867 0 0 0
293 1 3.312078652086608 3.2311184756659252 7.056810253794466 0 0 0
484 1 -0.15105349600366888 12.456561660736522 12.219964065183715 0 0 0
260 1 28.453636253209492 1.5423806844664985 8.773550734087234 -1 0 0
1299 1 15.86039270370753 14.137127933519949 8.688270809680033 0 0 0
140 1 7.047391352962406 1.646033968399437 5.112625625602931 0 0 0
167 1 5.1202491001618355 3.5254252313847756 5.374218260877609 0 0 0
262 1 5.307903649419555 1.7012445198018946 6.904650933269632 0 0 0
268 1 6.988651593764273 1.597171338939001 8.865287842341004 0 0 0
295 1 5.279285463411907 3.2338849996127097 8.499111501834543 0 0 0
297 1 7.090550199017231 3.48024980351302 7.003263894638529 0 0 0
497 1 14.253259054117398 10.491571456131167 10.547449959009278 0 0 0
144 1 10.545801644135402 1.586859716612861 5.397019685991328 0 0 0
171 1 8.776539631728982 3.384155072359188 5.188411945960287 0 0 0
266 1 8.704535765269588 1.6537282352564713 7.066117406112861 0 0 0
272 1 10.848887566769616 1.512936118942417 8.910104356173555 0 0 0
299 1 8.831799099466261 3.309790747161863 8.772843406272354 0 0 0
301 1 10.589696889274212 3.313327709890704 7.060913098140453 0 0 0
529 1 14.167325535011242 -0.1397806050317243 14.17483290562077 0 0 0
614 1 5.171847645587449 12.273489748938504 14.046165530262032 0 0 0
175 1 12.281665957995873 3.348198148960432 5.142451956332971 0 0 0
303 1 12.634256321603896 3.410097036091147 8.932698030491922 0 0 0
148 1 14.296768531659046 1.4467450197177856 5.2695199856806205 0 0 0
270 1 12.367334230655382 1.63468755595519 7.078862483304162 0 0 0
274 1 16.06757330706953 1.5598121747124476 7.039567406855164 0 0 0
276 1 14.251682888066703 1.5711333392713047 8.659119615791463 0 0 0
305 1 14.132627669990468 3.2647817695741823 6.747156176804423 0 0 0
307 1 15.924424310176738 3.4436449960652133 8.88513550847956 0 0 0
493 1 10.525529711871577 10.531789688598682 10.408787041075712 0 0 0
1419 1 9.011938063239812 14.15266858861333 12.415459932498218 0 0 0
179 1 15.927905171556107 3.1462740635199067 4.989805769038745 0 0 0
152 1 17.972768216983063 1.560970614957606 5.152536914649138 0 0 0
183 1 19.51677142568426 3.5040220041495678 5.036161576315652 0 0 0
278 1 19.58455836168298 1.663704530571175 6.860819999652736 0 0 0
280 1 17.88446669439535 1.8309545321890783 8.72798325202161 0 0 0
309 1 17.734733164174536 3.37247661781728 6.681097679306114 0 0 0
311 1 19.53902339883964 3.5516642771754516 8.733670158999436 0 0 0
7 1 5.381292686801058 -0.15912051461614238 1.6886863241672752 0 0 0
129 1 -0.07046451138549698 -0.026617406705234714 3.141643722620254 0 0 0
156 1 21.166979991324425 1.6574871002072777 5.178529557514476 0 0 0
187 1 23.146710930120285 3.413854200813076 5.199390923159825 0 0 0
282 1 23.242344682369605 1.5046293481678827 6.867513878436399 0 0 0
284 1 21.333556118674096 1.554243118003354 8.81467522339962 0 0 0
313 1 21.277694253234806 3.400547608347906 7.091564336203593 0 0 0
315 1 23.131736458727275 3.282000306874615 8.626972392537 0 0 0
490 1 8.760303309304856 12.397819494368973 10.628761615587297 0 0 0
508 1 21.185101597767478 12.292422125118547 12.456770893455603 0 0 0
601 1 21.196307286454143 6.931160156328884 14.147875372454932 0 0 0
507 1 23.12872626391171 10.695164691443237 12.607181215477423 0 0 0
289 1 28.49869353173268 3.424898567583811 7.139314930698587 -1 0 0
132 1 28.420555799286667 1.4364401610486903 5.060436056210782 -1 0 0
160 1 25.127544251996298 1.666717610493566 5.261794020842327 0 0 0
191 1 26.809855470192716 3.5162704071108424 5.306200167821271 0 0 0
286 1 26.815503902922025 1.7427784440023582 7.039742937746936 0 0 0
288 1 25.15418252504579 1.6617243470913983 8.96009214301661 0 0 0
317 1 24.84276328812357 3.524681699027863 6.946300008320853 0 0 0
319 1 26.644363078353337 3.6238895041136763 8.79613995939765 0 0 0
168 1 3.3847077019143117 5.362082527567949 5.307298666051241 0 0 0
195 1 1.737335866854535 7.104926235237716 5.3887703336196955 0 0 0
200 1 3.365234976673938 8.772939838301053 5.367192681114655 0 0 0
290 1 1.6543259762081004 5.251770478767277 7.260802583042823 0 0 0
296 1 3.4753794266212394 5.093003076005147 8.811647996311432 0 0 0
322 1 1.6805623481031957 9.068054778723742 7.042631771432742 0 0 0
323 1 1.7022322312059357 7.081363157407587 8.805388793524418 0 0 0
325 1 3.4825789212191567 6.899791408939067 6.972495019943017 0 0 0
328 1 3.5334264325641693 8.909657383079697 8.64239891285547 0 0 0
324 1 -0.07177089737234957 8.74855794910732 8.776279511719833 0 0 0
292 1 28.47088036845495 5.259060430134913 8.743276146901 -1 0 0
172 1 7.126184756220007 5.367738360871101 5.1559432767104765 0 0 0
199 1 5.163327354966925 7.32279656572642 5.298928941939946 0 0 0
204 1 7.142703633045786 8.96600447694252 5.25549903374633 0 0 0
294 1 5.423784013160575 5.417154769304484 6.874688625888453 0 0 0
300 1 7.252431933989852 5.31715327204405 8.761241786279431 0 0 0
326 1 5.355494644403992 8.869141532666246 6.982973459022332 0 0 0
327 1 5.112007024378689 6.908781541003627 8.861616222131905 0 0 0
329 1 7.085218989374896 6.98951423602042 7.077084907722455 0 0 0
332 1 7.0189156044620455 8.598348687234472 8.887700674282089 0 0 0
176 1 10.498277300476932 5.034851803615785 5.089254425925101 0 0 0
203 1 9.023413830095011 7.1700814706999365 5.366726389226447 0 0 0
208 1 10.648644235538903 8.940191332777045 5.046959232593577 0 0 0
298 1 8.940967287910976 5.136733200367881 7.112587390987025 0 0 0
304 1 10.558526859812941 4.965145374667723 8.662803090052916 0 0 0
330 1 8.83919512291845 8.974685355843691 7.006404380066421 0 0 0
331 1 8.913490683871041 6.9726320025253195 8.823617099429441 0 0 0
333 1 10.689524515230229 6.924552941477225 7.106511240354905 0 0 0
336 1 10.552523163158986 8.669103039245908 8.760917360986285 0 0 0
302 1 12.558034867011488 5.104539290318509 6.979548236999715 0 0 0
180 1 14.20770931709813 5.229425802507917 5.26321316022659 0 0 0
207 1 12.411703590847953 6.739270470674681 5.32992853201089 0 0 0
212 1 14.188043604772364 8.700887541206457 5.287569992113069 0 0 0
308 1 14.23230339933391 5.324800454843019 8.867008211186299 0 0 0
334 1 12.349683766687853 8.714677883694295 7.071490005443899 0 0 0
335 1 12.476578394872135 6.829194685265539 8.806640351623477 0 0 0
337 1 14.387852438128672 6.936706457162626 6.862015078998913 0 0 0
340 1 14.028649019668189 8.60390925965837 8.650529037518304 0 0 0
338 1 15.938114831104388 8.84715632651432 6.9294063313065974 0 0 0
339 1 16.006437783449762 7.074334969698148 8.694357628367765 0 0 0
306 1 15.890211736762916 4.954823672543851 7.027474397348025 0 0 0
211 1 16.172615197327538 7.048724729526524 5.111800013990828 0 0 0
184 1 17.661650496392063 5.129090101460464 5.10306176097479 0 0 0
215 1 19.578143281589547 6.773911913274503 5.222690932542362 0 0 0
216 1 17.898756576467875 8.597726685508757 5.089324250269551 0 0 0
310 1 19.45525228731139 5.1336829524262795 6.877305757837005 0 0 0
312 1 17.690171711352207 5.334262621801468 8.865669254012916 0 0 0
341 1 17.704530038160755 6.927896423931657 6.995582647775925 0 0 0
342 1 19.523647652155 8.735055546155955 6.803908374272247 0 0 0
343 1 19.424539796089718 7.056405250068214 8.797648139577902 0 0 0
344 1 17.88254565504355 8.741302775883332 8.662161944733834 0 0 0
188 1 21.456229791539833 5.095466357085968 5.438176315853278 0 0 0
219 1 23.149066836547725 7.0122687146179805 5.161645684945744 0 0 0
220 1 21.308476090594873 8.672605590113132 5.216704950833309 0 0 0
314 1 23.42130214426669 5.2156452770544774 7.0300478223111105 0 0 0
316 1 21.32908574835043 5.313399796141461 8.789019537942664 0 0 0
345 1 21.14775495044384 6.944106328828751 7.08104866461044 0 0 0
346 1 22.876412380078854 8.765815785157832 7.080557734405504 0 0 0
347 1 23.285138330849698 6.956205387796254 8.67167799333608 0 0 0
348 1 21.270988433470322 8.860942157252389 8.778212044984295 0 0 0
321 1 -0.000323089465133819 7.166108072885789 6.901258140029286 0 0 0
196 1 28.415210723751684 9.102337352037484 5.255683803896987 -1 0 0
164 1 28.5113609222546 5.236677085585843 5.201736359526353 -1 0 0
192 1 25.084068521938555 5.3853431659140805 5.311654772297149 0 0 0
223 1 26.843850358394654 7.076291858890687 5.17104216604507 0 0 0
224 1 24.877556481764422 8.679453367240615 5.123983762184418 0 0 0
318 1 26.797071231069047 5.3224038668317135 6.923642750584538 0 0 0
320 1 25.045659359663624 5.237556069311891 8.73103251143473 0 0 0
349 1 25.04804154234349 7.32738918266809 6.945275249255542 0 0 0
350 1 26.987226956531963 9.00479508946739 6.966155930509559 0 0 0
351 1 26.826338665080208 7.146468294625029 8.749798901545578 0 0 0
352 1 24.9714264605293 8.81803632025479 8.93297962525653 0 0 0
227 1 1.6680044038395143 10.54691825731676 5.148457963338768 0 0 0
232 1 3.6244763573514294 12.38866618498811 5.083760132092673 0 0 0
354 1 1.5972252389936608 12.5136200616206 6.852869049645062 0 0 0
355 1 1.553602737662855 10.659899425361191 8.882097476885592 0 0 0
357 1 3.4143563654159133 10.769653230678303 7.055175416837566 0 0 0
360 1 3.3657203950283976 12.545829168400568 8.775283813575424 0 0 0
228 1 28.505101206609233 12.449736045929034 5.017013363207591 -1 0 0
506 1 23.061263355821993 12.352310480987134 10.733824490145155 0 0 0
505 1 21.32498213523644 10.594010674589216 10.614720910109778 0 0 0
231 1 5.159215635970244 10.751803844626727 5.416528714487075 0 0 0
236 1 6.7878896169336285 12.363645241491772 5.276991127375679 0 0 0
358 1 5.145817007080349 12.484704102431424 7.217333951291989 0 0 0
359 1 5.347648137127596 10.362182720129534 8.67849271409688 0 0 0
361 1 7.108951237604825 10.727871264349577 7.215163995481909 0 0 0
364 1 6.9210254265963815 12.458712284724907 8.954140374771782 0 0 0
1177 1 21.34313882097284 14.10792367688599 3.3258290902076357 0 0 0
496 1 10.733160524207166 12.540629209865887 12.409877341801153 0 0 0
1173 1 17.79589048700374 14.16570972383074 3.5546951826272104 0 0 0
1295 1 12.453275228586785 14.126169305669382 8.919898954386001 0 0 0
235 1 8.86948287451127 10.865369006299426 5.15396838021095 0 0 0
240 1 10.678807331434482 12.177977428456579 5.013187533557179 0 0 0
362 1 8.99142611961343 12.330746081164337 7.068218825691637 0 0 0
363 1 8.641969887279341 10.519477599724004 8.83604264780235 0 0 0
365 1 10.581620221398204 10.602314478238437 7.119964153098527 0 0 0
368 1 10.609269131431162 12.54293455789611 8.836372904988774 0 0 0
1055 1 26.890831283195595 14.050579948968688 1.4406120605396004 0 0 0
1309 1 24.697387505045327 14.092257969078371 6.872531635204181 0 0 0
239 1 12.438827450474356 10.526677060177017 5.197224772391095 0 0 0
244 1 14.01627626992298 12.401087935494765 5.130407933061133 0 0 0
366 1 12.257468421122187 12.096130825090128 6.9885094974135065 0 0 0
367 1 12.418523451646209 10.399761261807997 8.835903832642996 0 0 0
369 1 14.077737916652827 10.502971124802555 6.870417932862208 0 0 0
372 1 14.25788664174127 12.113390049597806 8.721407299219438 0 0 0
371 1 16.030466081774343 10.52247485241913 8.58375500012138 0 0 0
370 1 15.804342143341003 12.326826955297518 7.08453222422549 0 0 0
243 1 15.82228557423912 10.545565440760935 5.186970856295688 0 0 0
503 1 19.553071356300407 10.508995834021658 12.463969963774373 0 0 0
1171 1 15.792439215631342 14.021256608580636 5.138096121946274 0 0 0
1303 1 19.704760037606896 13.86988622347315 8.691323170633199 0 0 0
247 1 19.56973166802001 10.721048327059437 5.098431269356298 0 0 0
248 1 17.964394812593106 12.402961245041872 5.156646266248508 0 0 0
373 1 17.815800902584172 10.64792684721406 7.014051366710097 0 0 0
374 1 19.870078057551154 12.47215147857192 6.852773181115644 0 0 0
375 1 19.760863138443028 10.57191517570064 8.623171020976473 0 0 0
376 1 17.946958506663954 12.439734707354168 8.690474462353702 0 0 0
1301 1 17.611144849671653 14.095391242969407 6.850062984799222 0 0 0
504 1 17.902146142692843 12.363750413930013 12.235754677705318 0 0 0
251 1 23.270995101996945 10.499221722425006 5.117008552258905 0 0 0
252 1 21.650937375768137 12.368201241290247 5.162140534665401 0 0 0
377 1 21.42285135376043 10.48832424421917 6.640750889797448 0 0 0
378 1 23.018345573780742 12.311600382604736 7.063296242907353 0 0 0
379 1 23.10402692931806 10.58484086844185 8.778666013842269 0 0 0
380 1 21.665790211481777 12.326918291178277 8.915171432154748 0 0 0
491 1 9.024000681750909 10.594054412775986 12.358252767750045 0 0 0
537 1 21.55240603351419 -0.07228990484194497 14.005940097984261 0 0 0
502 1 19.67950234473851 12.4069133815958 10.602535954705871 0 0 0
356 1 28.38522836988699 12.312369349285259 8.853573120515735 -1 0 0
353 1 0.015851299005383623 10.799500902471179 7.094401916514667 0 0 0
256 1 24.735949061157818 12.321779071520552 5.057685161672938 0 0 0
255 1 26.447539640097126 10.657017617888648 5.269535768480439 0 0 0
381 1 24.80001318241021 10.625240194485393 7.017437112698373 0 0 0
382 1 26.572466744542226 12.369298892288624 7.039442211844684 0 0 0
383 1 26.51988554412415 10.672672109563981 8.746218304995365 0 0 0
384 1 24.855867539700427 12.46130481756015 8.966401013071462 0 0 0
141 1 10.367620261536631 -0.0008109726197744749 3.4729463681820874 0 0 0
386 1 1.7386628652353717 1.5931662799608173 10.552973258936028 0 0 0
392 1 3.4927168546853062 1.9132847022284687 12.285004521394473 0 0 0
419 1 1.5311011313628513 3.2324429890856288 12.274356037402185 0 0 0
421 1 3.535837857065245 3.6035858792310504 10.451626322501605 0 0 0
514 1 1.8935652428484624 1.6430708396578597 14.042631723842572 0 0 0
553 1 7.0874210140149705 3.4962488966911156 14.15982618560002 0 0 0
417 1 -0.1229982346749594 3.6083197615506597 10.50419189227821 0 0 0
513 1 -0.10017042277249288 -0.12643765889338465 13.962777329323638 0 0 0
501 1 17.902045917022953 10.383723822764845 10.346717199916291 0 0 0
549 1 3.46564894795567 3.52195500002824 14.161645211024382 0 0 0
1429 1 17.823650927436574 14.025419243646246 10.520233364731002 0 0 0
489 1 7.085957650290691 10.437494625979177 10.626293083636568 0 0 0
390 1 5.187423076295315 1.3705167256775181 10.512426667336191 0 0 0
396 1 6.964383700589638 1.6073194011531233 12.214396618447422 0 0 0
423 1 5.329556903613072 3.5477452920253554 12.27215449307399 0 0 0
425 1 7.156634330582077 3.456869811906117 10.586404386581387 0 0 0
518 1 5.294445125226642 1.7817508303788088 14.007346907128065 0 0 0
394 1 8.99820881990081 1.3556569597076913 10.345845372713464 0 0 0
400 1 10.65579742443501 1.6291714643694597 12.428791482178234 0 0 0
427 1 8.824780909202723 3.378336939323893 12.330794947170261 0 0 0
429 1 10.71906032462426 3.1768465564944086 10.571503778717606 0 0 0
487 1 5.147648466188555 10.622418554169345 12.165820398499248 0 0 0
1311 1 26.624314302545564 14.116585871357383 8.623492231350728 0 0 0
398 1 12.406444287542639 1.4945152352961388 10.791783227183872 0 0 0
404 1 14.228069187966856 1.6993274023259533 12.415301223349124 0 0 0
431 1 12.49635312581067 3.497308027822857 12.551348412114134 0 0 0
433 1 14.1901021291554 3.3202722127925135 10.728266364759971 0 0 0
402 1 15.863426262074574 1.6205698068648198 10.639167441146874 0 0 0
435 1 15.722167925499921 3.596060623367951 12.60532518015795 0 0 0
492 1 6.976669095852619 12.418874787116623 12.233913546586457 0 0 0
1297 1 14.119174117338746 14.013445800560666 7.042008986859665 0 0 0
409 1 21.38685557965445 -0.16268796095603477 10.59868215926099 0 0 0
406 1 19.646678735406468 1.6114506644859097 10.57366251866901 0 0 0
408 1 17.613136655415587 1.4520054507016038 12.370680200128529 0 0 0
437 1 17.806090017622488 3.433570700062533 10.595828850552406 0 0 0
439 1 19.598005053123323 3.34126298107094 12.22939247945973 0 0 0
3 1 1.7826015768258858 -0.14057277928903034 1.390451380048082 0 0 0
410 1 23.257180467161305 1.7616379571329692 10.446498005259162 0 0 0
412 1 21.588553100649044 1.58322712886915 12.11699339019918 0 0 0
441 1 21.534201709166283 3.671652149742342 10.636104041493534 0 0 0
443 1 22.85989966489288 3.567819838458223 12.36968453447978 0 0 0
486 1 5.050846251624754 12.487591656299807 10.43265251134201 0 0 0
388 1 28.37284365042433 1.7239598721275535 12.377435213663729 -1 0 0
414 1 26.701798859630983 1.6784649901048008 10.78759160289103 0 0 0
416 1 24.978030743515646 1.831253523513079 12.376273447256251 0 0 0
445 1 24.795930215515412 3.463755480434573 10.610773536919623 0 0 0
447 1 26.829289498450322 3.5948879424049762 12.380599748253777 0 0 0
415 1 26.836379787200663 -0.029327903813979234 12.434386959299909 0 0 0
418 1 1.6426865852257797 5.2760863391696455 10.542107753359417 0 0 0
424 1 3.281103186982645 5.102660004205371 12.560667486728581 0 0 0
450 1 1.8345221321789658 8.950973003036642 10.513180122631029 0 0 0
451 1 1.6097961157843559 6.97850330655385 12.463670040322064 0 0 0
453 1 3.4422440211403553 7.158813367066994 10.690961185075134 0 0 0
456 1 3.342560360747269 8.792253778013322 12.51615418256977 0 0 0
420 1 -0.13908667921018034 5.186202829243474 12.299859027199728 0 0 0
137 1 7.204770881111681 -0.055141941570763464 3.4926224001475754 0 0 0
449 1 -0.11042317595422388 7.058416849362678 10.695474298895043 0 0 0
546 1 1.457636397413559 5.341308069212998 14.059824407935416 0 0 0
422 1 5.377684421467655 5.11747984577914 10.316812797928003 0 0 0
428 1 7.034020080765453 5.418727599366354 12.315780041124416 0 0 0
454 1 5.153782185588859 8.892048093523073 10.582978971378212 0 0 0
455 1 4.9882968526346545 6.968891154925192 12.507682768640441 0 0 0
457 1 6.818353307643492 7.090017420132658 10.654055049289815 0 0 0
460 1 6.825771237198137 8.707734143633312 12.44248777165259 0 0 0
494 1 12.457593736092042 12.213139318223444 10.29644461052239 0 0 0
426 1 8.908196319984834 5.147742022036048 10.783713092769855 0 0 0
432 1 10.695567436249226 5.294400097285033 12.608723963110728 0 0 0
458 1 8.86143404008162 8.811462805916765 10.649479292836885 0 0 0
459 1 8.86647031791233 7.064528350537357 12.29929850162556 0 0 0
461 1 10.695097438016141 7.018810295468597 10.420450076296119 0 0 0
464 1 10.589787884483638 8.639750957979226 12.371566243965725 0 0 0
499 1 16.248359471161017 10.436516911552868 12.217205434583242 0 0 0
430 1 12.187353438286683 5.0933188351355545 10.478209105085162 0 0 0
463 1 12.360132680062318 6.928687660676001 12.37552475494336 0 0 0
462 1 12.479791235397508 8.716260435015283 10.49827541141171 0 0 0
434 1 15.803280014281892 5.025253894071397 10.680684919438498 0 0 0
436 1 14.148884714202683 5.314071539868998 12.411046539339091 0 0 0
465 1 14.149887764463609 7.189410076118481 10.484514960176345 0 0 0
468 1 14.133014784927841 8.67703072568113 12.314561070812795 0 0 0
467 1 16.03747626685456 7.125871305219196 12.39031018719797 0 0 0
466 1 15.976332516871798 8.773904708871584 10.461463565239795 0 0 0