LAMMPS (29 Oct 2020)
OMP_NUM_THREADS environment is not set. Defaulting to 1 thread. (src/comm.cpp:94)
  using 1 OpenMP thread(s) per MPI task
package omp 0
using multi-threaded neighbor list subroutines
package omp 2
set 2 OpenMP thread(s) per MPI task
using multi-threaded neighbor list subroutines
units metal
dimension 3
boundary p p p


lattice fcc 3.5440
Lattice spacing in x,y,z = 3.5440000 3.5440000 3.5440000
region box block 0 8 0 8 0 8 units lattice
create_box 1 box
Created orthogonal box = (0.0000000 0.0000000 0.0000000) to (28.352000 28.352000 28.352000)
  1 by 2 by 2 MPI processor grid
create_atoms 1 box
Created 2048 atoms
  create_atoms CPU = 0.000 seconds


# read_restart after_heating_2400.lmp

variable P equal 0
variable dt equal 0.001
variable loopVar loop 22
variable sys_press equal "press/10000"
# print "step temp vol pe" file heating.txt screen no

pair_style eam/alloy
pair_coeff * * Co_Zhou04.eam.alloy Co
Reading eam/alloy potential file Co_Zhou04.eam.alloy with DATE: 2018-03-30




neighbor 2 bin
neigh_modify every 10 check yes

thermo 1000
thermo_style custom step temp vol press ke pe density

timestep $(dt)
timestep 0.0010000000000000000208

# fix 2 all npt temp 300 300 $(dt*100) iso 0 0 $(dt*1000)
# run 30000
# unfix 2





# dump_modify 1 append yes
# dump 3 all custom 10000 traj_npt_new.lammpstrj id type x y z

velocity all create 300 123123

print """
yo aagadi
"""

yo aagadi

label ensemble

print """
Label pachadi solti, hos garam.
"""

Label pachadi solti, hos garam.

variable T equal 200+${loopVar}*100
variable T equal 200+1*100
# variable T equal 1200
# velocity all create 1200 123123
reset_timestep 0
fix 1 all npt temp $T $T $(dt*100) iso 0 0 $(dt*1000)
fix 1 all npt temp 300 $T $(dt*100) iso 0 0 $(dt*1000)
fix 1 all npt temp 300 300 $(dt*100) iso 0 0 $(dt*1000)
fix 1 all npt temp 300 300 0.10000000000000000555 iso 0 0 $(dt*1000)
fix 1 all npt temp 300 300 0.10000000000000000555 iso 0 0 1
print """
<--------------------------------------------------------------------->
<------------------ Equilibrating at temperature $T ----------------->
<--------------------------------------------------------------------->
"""

<--------------------------------------------------------------------->
<------------------ Equilibrating at temperature 300 ----------------->
<--------------------------------------------------------------------->

fix temp all print 100 "$(step) $(temp) $(press) ${sys_press} $(vol) $(ke) $(pe) $(density)" file temp_heat.txt screen no title  "step temp press pressGiga vol ke pe density"
run 250000
Last active /omp style is pair_style eam/alloy/omp
Neighbor list info ...
  update every 10 steps, delay 10 steps, check yes
  max neighbors/atom: 2000, page size: 100000
  master list distance cutoff = 7.6035394
  ghost atom cutoff = 7.6035394
  binsize = 3.8017697, bins = 8 8 8
  1 neighbor lists, perpetual/occasional/extra = 1 0 0
  (1) pair eam/alloy/omp, perpetual
      attributes: half, newton on, omp
      pair build: half/bin/atomonly/newton/omp
      stencil: half/bin/3d/newton
      bin: standard
Per MPI rank memory allocation (min/avg/max) = 4.354 | 4.354 | 4.354 Mbytes
Step Temp Volume Press KinEng PotEng Density 
       0          300    22790.356    11400.454    79.378655    -9015.757        8.794 
    1000    296.80269    23128.992    2974.0656    78.532662   -8934.5116    8.6652453 
    2000    297.77353    23150.772    1527.1632    78.789542   -8934.4643     8.657093 
    3000    295.27772    23153.059    790.79445    78.129161   -8936.4063    8.6562379 
    4000    307.56142    23156.769    1100.4408    81.379372    -8934.567    8.6548511 
    5000    293.91188    23145.251    1522.7515    77.767765   -8935.9811    8.6591581 
    6000    304.56171    23133.514    2190.3151    80.585663    -8937.358    8.6635513 
    7000    290.95994    23128.719    2807.9872    76.986694   -8935.1975    8.6653475 
    8000    296.10032    23144.914     1788.948    78.346817   -8935.0515    8.6592839 
    9000    299.93718    23154.127    737.82991    79.362033   -8936.7376    8.6558388 
   10000    295.81756    23160.037     364.8038    78.271999     -8936.15    8.6536297 
   11000    297.44412    23157.164     968.1188    78.702382   -8934.4161    8.6547035 
   12000     295.3637    23160.323    460.00263     78.15191     -8935.65    8.6535229 
   13000    301.82536    23185.105   -995.89772    79.861638   -8934.5206    8.6442735 
   14000    298.18506    23182.871   -1401.2008     78.89843   -8936.5275    8.6451064 
   15000    299.42592    23182.153   -1101.9941    79.226756   -8935.2469    8.6453743 
   16000    291.55547    23170.733   -792.35013    77.144272   -8937.5873     8.649635 
   17000    305.04568    23175.937   -585.39158    80.713719   -8935.7373    8.6476929 
   18000    293.03698    23180.114    -941.4341    77.536272   -8935.2258    8.6461346 
   19000    310.79733     23195.31   -2251.4554    82.235581   -8936.9383    8.6404701 
   20000     289.9542    23171.894   -658.09508    76.720581   -8936.2488    8.6492017 
   21000    302.24006    23167.048     371.3261    79.971366   -8934.3214     8.651011 
   22000    293.95459     23164.41    116.84064    77.779066   -8936.0529    8.6519963 
   23000    300.30558    23180.554   -809.67225     79.45951   -8934.8176    8.6459706 
   24000    293.60596    23178.537   -956.35685    77.686821   -8936.1808     8.646723 
   25000    290.66195    23184.234   -876.91689     76.90785   -8933.4439     8.644598 
   26000    296.91861    23212.358   -2924.8021    78.563334    -8933.744    8.6341243 
   27000    294.52641     23209.81   -2964.8857    77.930368   -8934.1435    8.6350724 
   28000    306.35168     23194.16   -2103.2567    81.059281   -8936.7945    8.6408986 
   29000    297.65171    23177.312   -675.84105    78.757308   -8935.5202      8.64718 
   30000     306.5205    23180.499    -724.9573     81.10395    -8934.867    8.6459909 
   31000    305.96672    23173.057   -676.82416    80.957423   -8937.1673    8.6487676 
   32000    301.07389    23155.676    1406.8026    79.662801   -8933.3658    8.6552596 
   33000    301.69326    23149.691    1154.0211    79.826684   -8936.6877    8.6574974 
   34000     309.6939    23162.903     957.8468    81.943618   -8933.5242    8.6525589 
   35000    293.41134    23145.839    1173.6339    77.635325   -8936.9127    8.6589381 
   36000    302.54578    23152.286    1330.8421    80.052258   -8934.5797    8.6565271 
   37000    295.15121     23119.57    3529.2411    78.095688   -8935.3961    8.6687766 
   38000    298.34614    23118.513    3762.2395    78.941051   -8935.4597    8.6691728 
   39000    292.04305    23130.585    2598.3567    77.273283   -8935.8989    8.6646483 
   40000    305.14671    23146.344    1349.7118    80.740451   -8937.0586    8.6587493 
   41000    295.60232    23133.777     2411.873     78.21505   -8936.0095    8.6634529 
   42000    306.30155    23140.227    2041.2403    81.046017   -8936.0426    8.6610379 
   43000    302.11265    23116.638      3490.53    79.937653   -8937.6161    8.6698762 
   44000    303.16075    23100.592    5140.3868    80.214976   -8935.6866    8.6758982 
   45000    299.23504    23138.069    2021.0718     79.17625   -8936.3968    8.6618457 
   46000    301.91817    23154.392    960.02803    79.886194   -8936.0746    8.6557396 
   47000     300.5417    23156.966    363.76235    79.521985   -8937.6419    8.6547773 
   48000    307.35838     23163.21    622.70695    81.325649   -8934.6361    8.6524445 
   49000    296.51713    23156.412    1044.5799    78.457104   -8934.1229    8.6549844 
   50000     300.0435    23166.645   -105.62177    79.390164   -8936.3082    8.6511614 
   51000    302.22659    23172.211   -377.87614    79.967802   -8935.6818    8.6490833 
   52000    293.57954    23167.824   -189.94854    77.679831   -8936.0678    8.6507212 
   53000    299.24908    23185.303   -981.91378    79.179966   -8933.6449    8.6441994 
   54000    299.16769    23187.778   -1865.0901    79.158429   -8937.1383    8.6432769 
   55000    297.03475     23214.79   -3156.6522    78.594064   -8933.5157      8.63322 
   56000    294.16302    23209.907   -2891.6585    77.834215   -8933.7261    8.6350363 
   57000    305.52775    23192.898    -2166.177    80.841272    -8937.082    8.6413687 
   58000    301.03434    23195.656   -1593.2628    79.652337   -8933.2406    8.6403414 
   59000     299.9832    23174.771   -785.29313     79.37421   -8936.3925    8.6481281 
   60000    297.72268    23180.459   -791.39266    78.776088   -8934.4614     8.646006 
   61000    295.45786    23171.968   -835.16045    78.176826   -8937.2725    8.6491742 
   62000    295.52898    23174.851   -105.51689    78.195643   -8933.1182    8.6480982 
   63000    293.77814    23175.175   -250.97101    77.732378   -8934.1342    8.6479774 
   64000    307.30289    23170.507    394.81007    81.310967   -8933.0468    8.6497196 
   65000    302.65547    23147.348    1246.3374     80.08128   -8936.7884    8.6583736 
   66000    305.16022    23157.809    869.32517    80.744027   -8935.2152    8.6544622 
   67000    302.90719    23155.695    1114.5905    80.147883   -8934.7188    8.6552527 
   68000    292.67199    23138.204    1847.8818    77.439697   -8936.7961    8.6617953 
   69000    308.49019    23146.528    1537.3331    81.625121   -8936.2558    8.6586805 
   70000    290.64697    23122.538    2966.3703    76.903886   -8936.9996    8.6676639 
   71000    295.92874    23135.928    2750.4591    78.301418   -8933.7058    8.6626474 
   72000    295.56768      23143.4    2048.8371    78.205884   -8934.6768    8.6598507 
   73000    289.61578    23134.136     2340.514    76.631038   -8935.6522    8.6633185 
   74000    301.12333    23135.918    2233.6429    79.675883   -8936.0079     8.662651 
   75000    295.76913    23130.198    2821.2869    78.259186   -8934.6299    8.6647933 
   76000    299.28139    23098.281    4745.5827    79.188514   -8937.8079    8.6767662 
   77000    298.76677    23130.076    3061.2995    79.052349   -8934.6615     8.664839 
   78000    306.57127    23152.973    1083.1155    81.117382   -8935.7765    8.6562701 
   79000    297.97135    23162.311    435.84291    78.841883   -8935.4481    8.6527804 
   80000    313.85964    23163.723    602.08259    83.045853   -8934.8065    8.6522529 
   81000    289.75156    23132.322    1973.6223    76.666964   -8937.8501    8.6639979 
   82000    304.47556    23118.956    3789.3889    80.562869   -8935.3185    8.6690069 
   83000     293.2987    23131.656    2485.3726     77.60552   -8935.9946    8.6642471 
   84000    297.91144    23152.388    1060.3147    78.826032   -8935.8552    8.6564888 
   85000    312.66055    23167.139     393.9365    82.728581   -8934.4603    8.6509768 
   86000    291.53635    23154.188    816.49582    77.139212   -8935.5687    8.6558159 
   87000    298.04654    23156.722    630.84109    78.861778   -8936.2656    8.6548686 
   88000    304.16791    23175.903   -541.17283    80.481466   -8935.2154    8.6477055 
   89000    297.82362    23177.277   -730.19585    78.802794   -8935.6497    8.6471929 
   90000    302.70972    23179.602   -556.50876    80.095636   -8934.0486    8.6463257 
   91000    297.51424     23175.73   -1398.4782    78.720934   -8939.1676    8.6477701 
   92000    301.28683    23188.799   -1628.4434    79.719145   -8935.7281    8.6428965 
   93000    305.21324    23181.381    -792.9797    80.758054   -8935.0737    8.6456619 
   94000    300.94942    23162.481    39.635177    79.629867   -8937.2328    8.6527167 
   95000    301.28855    23167.283    812.04799    79.719598   -8931.9897    8.6509234 
   96000    300.52813    23171.384   -463.06126    79.518395   -8936.6449    8.6493922 
   97000    303.45813    23195.333   -1820.9632    80.293661   -8934.6641    8.6404619 
   98000    294.04991    23196.766   -2022.9485    77.804288   -8934.5032     8.639928 
   99000    298.84528    23187.317   -1241.8807    79.073122   -8934.2466    8.6434488 
  100000    298.96027    23174.987    -603.9832    79.103548   -8935.7742    8.6480473 
  101000    303.61327    23174.697   -415.59274    80.334711   -8935.4468    8.6481558 
  102000    300.01597    23172.986   0.70585198    79.382881   -8933.8616    8.6487941 
  103000    297.56969    23168.611   -388.38685    78.735607   -8936.6781    8.6504272 
  104000    309.24529    23195.671   -2309.2217    81.824918    -8936.595    8.6403359 
  105000    296.17847    23202.059   -2282.3285    78.367494    -8933.764    8.6379569 
  106000    307.03934    23208.921   -2713.3999    81.241234   -8934.1557    8.6354032 
  107000    294.37654     23200.12   -2281.2226    77.890713   -8934.5658    8.6386787 
  108000    301.86052    23189.145   -1242.0915    79.870941   -8933.8701    8.6427673 
  109000    298.50871    23164.851    -76.30326    78.984067   -8936.9662    8.6518313 
  110000    296.90215    23159.821    788.17039    78.558978   -8934.2538    8.6537103 
  111000    294.66273    23143.052    1721.3534    77.966437   -8935.7216    8.6599808 
  112000    298.19467    23146.756    1754.4853    78.900973   -8934.6286    8.6585951 
  113000    305.62625    23166.165     470.9686    80.867335   -8934.2207    8.6513407 
  114000    289.06075    23153.365    1550.0965    76.484177    -8932.703    8.6561233 
  115000    310.32133    23141.633    2151.2315    82.109633   -8935.1446    8.6605116 
  116000    298.75125    23100.894    4880.2971    79.048241   -8936.1372     8.675785 
  117000    296.43899      23121.5    2717.7397    78.436427   -8938.9075     8.668053 
  118000      304.155    23157.649    1003.7279    80.478048    -8934.722    8.6545222 
  119000    297.95838    23163.419   -128.25873    78.838452   -8937.0621    8.6523662 
  120000    302.73966     23188.98   -1244.4582    80.103558   -8934.2528    8.6428289 
  121000    297.83175    23194.615   -1868.7088    78.804946   -8934.5402    8.6407293 
  122000    299.77001    23187.093   -1314.2984    79.317802   -8934.7598    8.6435323 
  123000    310.58747     23180.24   -1096.4207    82.180053   -8936.4044    8.6460875 
  124000    298.12765    23168.344   -116.86432     78.88324   -8935.4946    8.6505272 
  125000    289.01065    23167.892    382.86941    76.470923   -8932.6378    8.6506957 
  126000    297.58828    23165.365   -119.22522    78.740524    -8936.368    8.6516395 
  127000    310.62797    23175.528   -273.83129    82.190769   -8934.4589    8.6478457 
  128000    307.65347     23171.09    -177.0497    81.403729   -8935.5095     8.649502 
  129000     296.7628    23160.214    201.39525    78.522105   -8936.9204    8.6535636 
  130000    297.81655    23172.986   -20.616593    78.800923   -8933.7585    8.6487941 
  131000    296.77098    23176.833   -1295.8033    78.524271   -8938.0785    8.6473585 
  132000     309.4401    23185.872   -1280.4818    81.876463    -8935.841    8.6439873 
  133000    299.80037    23198.871    -2386.374    79.325835   -8935.5656     8.639144 
  134000    308.23866    23203.136   -2379.1853    81.558567   -8934.5978    8.6375558 
  135000    296.59855     23192.75   -1474.1519    78.478647   -8933.6207    8.6414238 
  136000    303.39539    23179.427   -1457.4506    80.277059   -8938.6455    8.6463909 
  137000    299.78276    23193.252   -1490.9056    79.321175   -8933.5433     8.641237 
  138000    294.66274    23228.616   -4597.7347     77.96644   -8935.4341    8.6280813 
  139000    295.71629     23216.33   -3505.3932    78.245205   -8934.6873    8.6326471 
  140000    301.79392    23197.553    -1799.398    79.853318    -8933.851    8.6396349 
  141000    299.15976    23183.366   -1480.5622    79.156332   -8936.5275    8.6449218 
  142000    302.29659    23187.196   -1291.6539    79.986322    -8934.814    8.6434939 
  143000    292.32641    23181.148   -1168.8385    77.348257   -8935.9885    8.6457491 
  144000    303.73773    23192.063   -1064.9716    80.367642   -8932.0678    8.6416799 
  145000    293.93729    23165.949   -36.850246     77.77449   -8936.1984    8.6514213 
  146000    298.46947    23163.916     158.3625    78.973683    -8936.063    8.6521808 
  147000    294.30435    23146.638    1391.4776    77.871611   -8936.2467    8.6586392 
  148000    298.61482    23140.377    1950.0111    79.012143   -8936.0705     8.660982 
  149000    307.96423    23135.839    2226.7307    81.485955   -8936.7713    8.6626805 
  150000    296.15515    23103.222     4466.066    78.361324   -8937.0071    8.6749106 
  151000    300.49258    23134.848    2661.9444    79.508989   -8934.3982    8.6630516 
  152000    292.10183    23141.823    2181.2767    77.288836   -8934.0563    8.6604405 
  153000    310.70054    23158.275    1030.8996    82.209969   -8935.1034    8.6542881 
  154000    302.85176    23141.741     1887.514    80.133219   -8935.9595    8.6604715 
  155000    299.77584    23108.263    4472.4442    79.319342   -8935.5339    8.6730183 
  156000    303.89422    23128.527    3400.2031    80.409049    -8933.652    8.6654194 
  157000    292.47037    23130.311    2398.7759    77.386349   -8936.8715     8.664751 
  158000    306.23665    23146.088    1674.3324    81.028845   -8935.7444    8.6588451 
  159000     292.0478    23136.295    2050.0926    77.274539    -8936.503    8.6625099 
  160000    304.71549    23114.164    3762.2718    80.626352   -8936.7377    8.6708042 
  161000    299.38242    23124.111    3108.8271    79.215245   -8936.2781     8.667074 
  162000    308.91319    23168.045    771.92556    81.737046   -8931.9985    8.6506387 
  163000    297.94589    23156.381    875.82795    78.835146   -8935.2584    8.6549962 
  164000    301.56599    23151.509     1227.735    79.793008   -8935.4661    8.6568175 
  165000    291.69081     23136.84    2083.8937     77.18008   -8936.4292    8.6623061 
  166000    309.87837    23152.487    1285.4224    81.992429    -8935.669    8.6564519 
  167000    299.51487    23164.297    148.38298    79.250292   -8936.0353    8.6520383 
  168000     308.9593    23180.759   -317.91197    81.749245   -8933.2855    8.6458941 
  169000    295.52237     23172.11   -546.58299    78.193895   -8936.4907     8.649121 
  170000    306.81121    23184.285   -1647.3062     81.18087   -8937.9566    8.6445793 
  171000    294.80628     23186.21   -1142.0162    78.004421   -8934.0498    8.6438615 
  172000    298.18802    23205.064   -3265.8743    78.899213   -8937.3839    8.6368384 
  173000    299.30885     23222.86   -3548.3011    79.195781   -8932.7334    8.6302197 
  174000    298.93855    23190.679   -1808.2116    79.097801   -8935.6108    8.6421958 
  175000    305.98306    23189.039   -1473.5201    80.961747    -8935.164    8.6428069 
  176000      303.607    23170.861   -1050.3353    80.333051     -8939.51    8.6495873 
  177000    287.68923    23159.273    804.79858    76.121282   -8933.9486    8.6539153 
  178000      305.507    23166.628    471.64919    80.835782   -8934.1341    8.6511677 
  179000    304.98135    23160.634   -130.62156    80.696698   -8938.8723    8.6534066 
  180000    311.02131    23167.521   -46.684461    82.294845   -8936.5083    8.6508343 
  181000     300.8908    23157.026    104.32632    79.614357   -8938.6275    8.6547551 
  182000    298.00266    23155.635     864.4315    78.850169   -8935.4477     8.655275 
  183000    294.29948    23134.252    2782.6654    77.870322   -8933.9928    8.6632751 
  184000    297.34622    23124.882    3483.8807    78.676477   -8933.8065    8.6667853 
  185000    300.13476    23137.366    2214.4661    79.414312   -8935.7188    8.6621091 
  186000    301.37437    23151.812    1450.8043    79.742308   -8934.5268    8.6567041 
  187000    300.11881    23145.672    1835.2534     79.41009    -8934.727    8.6590007 
  188000    294.49215     23141.47    2009.4922    77.921302    -8935.095    8.6605728 
  189000    305.14591    23168.085    212.41369    80.740239   -8934.6747    8.6506236 
  190000    296.27216    23165.583    337.95513    78.392286   -8934.8678     8.651558 
  191000     304.7041    23184.359   -906.95125    80.623338   -8934.2422    8.6445514 
  192000    298.31245    23199.876   -2727.5677    78.932138   -8936.7369    8.6387698 
  193000    298.89698    23219.878    -3935.635    79.086802   -8935.3388    8.6313282 
  194000    306.59827     23213.92   -3733.4107    81.124528   -8937.0371    8.6335433 
  195000    301.13051    23198.391   -2071.2575    79.677783   -8934.5505    8.6393228 
  196000    303.72645    23188.285   -1573.5539    80.364658   -8936.1017    8.6430881 
  197000    293.28955    23166.114   -436.45725    77.603101   -8937.8224    8.6513596 
  198000    299.55448    23188.775   -1453.8319    79.260773   -8934.9689    8.6429054 
  199000     303.3704    23170.883   -920.89897    80.270449   -8938.7914    8.6495791 
  200000    301.13511    23165.642    101.39698    79.678999   -8935.9253     8.651536 
  201000    297.20783    23153.336     392.1682     78.63986   -8938.5756    8.6561343 
  202000    300.51347    23149.042    1494.7041    79.514516   -8935.3277    8.6577401 
  203000    294.92387    23120.629    3588.6588    78.035534   -8935.2166    8.6683796 
  204000    295.54071      23132.1    2535.8212    78.198748   -8935.9521    8.6640808 
  205000    306.34271    23162.051    928.08241    81.056909   -8933.3168    8.6528773 
  206000    295.40637    23160.019    557.78782    78.163202   -8935.5648    8.6536364 
  207000    301.87069    23164.124    947.64553    79.873631   -8932.1861    8.6521029 
  208000    303.16382    23139.574    1614.6059    80.215788    -8938.111    8.6612824 
  209000    306.96391    23151.861    1459.8382    81.221274   -8934.8845    8.6566857 
  210000    299.58688    23137.621     2055.445    79.269346    -8936.418    8.6620135 
  211000    298.11203    23128.441    3152.5309    78.879107   -8934.7319    8.6654516 
  212000     307.7943     23122.57    2881.5099    81.440993   -8938.1032    8.6676519 
  213000    297.66574    23143.817    1670.7504    78.761021   -8935.7718    8.6596946 
  214000    304.46214    23162.029    304.24446    80.559319   -8936.0987    8.6528854 
  215000    295.92942    23154.172     716.7083    78.301598   -8936.4918    8.6558216 
  216000    312.23469    23161.223    480.42509      82.6159   -8935.7479    8.6531868 
  217000    297.25379    23150.304    1295.6922    78.652021    -8935.046    8.6572681 
  218000    299.27707    23164.773    137.99836    79.187372   -8935.6543    8.6518605 
  219000     299.3106    23171.758   -409.82338    79.196243    -8935.542    8.6492524 
  220000    311.64232     23176.87   -717.39363     82.45916   -8936.2264    8.6473447 
  221000    304.41755    23182.942   -1591.4585     80.54752   -8937.6892    8.6450798 
  222000    299.84944    23185.698   -1559.1866    79.338818    -8936.233    8.6440523 
  223000    305.40671    23196.136   -2055.8573    80.809247   -8935.3116    8.6401625 
  224000    287.68307    23177.241    -848.6959    76.119651   -8935.5178    8.6472063 
  225000    299.20849    23172.736   -224.86114    79.169224   -8934.6584    8.6488873 
  226000    299.13773    23173.636   -92.266835    79.150501   -8933.9436    8.6485516 
  227000    291.62503    23163.316    582.02643    77.162675   -8933.8565    8.6524049 
  228000    306.77902    23175.264   -574.23659    81.172353   -8936.1088    8.6479441 
  229000    304.52078    23171.684   -572.22818    80.574832   -8936.9764    8.6492801 
  230000    295.56501    23159.183    231.76141    78.205176    -8937.093    8.6539487 
  231000    293.93654    23154.405    1456.5553    77.774292   -8932.9268    8.6557348 
  232000    295.15114    23144.396    1025.5975     78.09567   -8938.7499     8.659478 
  233000    305.88726    23165.876    444.69561    80.936398   -8934.4153    8.6514485 
  234000    295.98332    23158.051    550.71961     78.31586    -8936.249    8.6543718 
  235000    298.57561      23152.9    817.11445    79.001769   -8936.7903    8.6562974 
  236000    307.20821    23157.262    1000.8892    81.285915   -8934.9574    8.6546668 
  237000    295.32517     23158.55    1531.0308    78.141715   -8931.1151    8.6541854 
  238000    300.35463    23162.681     275.6193    79.472488   -8936.1412     8.652642 
  239000    294.20348    23170.275    201.52279    77.844921   -8933.2735    8.6498061 
  240000    293.22129    23171.103   -741.79482     77.58504   -8937.0859     8.649497 
  241000    310.13076    23178.989   -602.86688    82.059208    -8935.236    8.6465542 
  242000    299.65656    23172.409   -449.49828    79.287781   -8935.8556    8.6490096 
  243000    306.82745    23180.923   -705.75372    81.185168    -8934.874    8.6458327 
  244000     296.9114    23182.356   -1020.1248    78.561424   -8935.0844    8.6452984 
  245000    298.03724    23197.104   -2321.4363    78.859317   -8935.4431     8.639802 
  246000     298.2889    23199.833    -2149.152    78.925906   -8934.4155    8.6387856 
  247000    292.16049     23186.99   -1508.4728    77.304355   -8935.1612    8.6435708 
  248000    300.61236    23177.358   -817.38803    79.540682   -8935.8984    8.6471626 
  249000    299.41984    23185.662   -544.96637    79.225147   -8931.8203    8.6440657 
  250000    297.37311    23172.983   -402.81934    78.683593   -8935.5757    8.6487953 
Loop time of 493.157 on 8 procs for 250000 steps with 2048 atoms

Performance: 43.799 ns/day, 0.548 hours/ns, 506.938 timesteps/s
117.5% CPU use with 4 MPI tasks x 2 OpenMP threads

MPI task timing breakdown:
Section |  min time  |  avg time  |  max time  |%varavg| %total
---------------------------------------------------------------
Pair    | 284.82     | 289.78     | 294.16     |  20.2 | 58.76
Neigh   | 0          | 0          | 0          |   0.0 |  0.00
Comm    | 21.035     | 25.405     | 30.188     |  66.0 |  5.15
Output  | 0.0060205  | 0.011171   | 0.012914   |   2.8 |  0.00
Modify  | 177.01     | 177.34     | 177.56     |   1.6 | 35.96
Other   |            | 0.6149     |            |       |  0.12

Nlocal:        512.000 ave         512 max         512 min
Histogram: 4 0 0 0 0 0 0 0 0 0
Nghost:        3101.00 ave        3101 max        3101 min
Histogram: 4 0 0 0 0 0 0 0 0 0
Neighs:        45056.0 ave       47082 max       42995 min
Histogram: 1 0 1 0 0 0 0 1 0 1

Total # of neighbors = 180224
Ave neighs/atom = 88.000000
Neighbor list builds = 0
Dangerous builds = 0


# fix 132 all momentum 100 linear 1 1 1 angular
fix out_file_1 all print 1000 "$(step) $(temp) $(press) ${sys_press} $(vol) $(ke) $(pe) $(density)" file one_phase_heating_$T_.txt screen no title  "step temp press pressGiga vol ke pe density"
fix out_file_1 all print 1000 "$(step) $(temp) $(press) ${sys_press} $(vol) $(ke) $(pe) $(density)" file one_phase_heating_300_.txt screen no title  "step temp press pressGiga vol ke pe density"

# dump 3 all custom 1000 traj_npt_new.lammpstrj id type x y z
run 50000
Last active /omp style is pair_style eam/alloy/omp
Per MPI rank memory allocation (min/avg/max) = 4.354 | 4.354 | 4.354 Mbytes
Step Temp Volume Press KinEng PotEng Density 
  250000    297.37311    23172.983   -402.81934    78.683593   -8935.5757    8.6487953 
  251000     292.5505    23166.821   -225.58383    77.407551   -8936.2534    8.6510957 
  252000    295.13247    23169.774   -127.47709    78.090729   -8934.9432    8.6499931 
  253000    297.95965    23166.363    157.34895    78.838788   -8935.3877    8.6512667 
  254000    306.23571    23152.332    998.53666    81.028597   -8936.7176    8.6565096 
  255000    302.47649    23145.519    1640.0728    80.033924   -8935.7375    8.6590579 
  256000    306.22566    23150.323    1235.2587    81.025937   -8936.4279     8.657261 
  257000    297.10118    23148.038    1270.0441    78.611641   -8936.2425    8.6581156 
  258000    303.21874    23162.984    987.38424    80.230319    -8932.771    8.6525288 
  259000    305.93294    23157.002    955.32972    80.948484   -8935.6757     8.654764 
  260000    303.78698    23163.791     337.6305    80.380674    -8935.581    8.6522272 
  261000    295.40765     23138.92    1986.3443    78.163541   -8935.7871    8.6615274 
  262000    300.12313    23146.007    1394.8532    79.411234   -8936.6024    8.6588753 
  263000    305.76604    23152.632    1418.4926    80.904323   -8934.4263    8.6563974 
  264000    293.93655    23147.435    1434.7864    77.774293   -8936.0053    8.6583411 
  265000    297.37234    23158.533    910.21386    78.683389   -8934.1317    8.6541918 
  266000     297.8632    23161.598    173.41381    78.813266   -8936.4548    8.6530466 
  267000    298.28553    23158.288    640.92046    78.925014    -8935.711    8.6542833 
  268000    305.92252    23179.986   -210.92753    80.945728   -8932.4439    8.6461825 
  269000    304.13324    23193.199   -1840.3519    80.472293   -8935.3445    8.6412567 
  270000    293.03927    23176.118   -985.31035    77.536876   -8936.7445    8.6476253 
  271000    306.31452    23188.101   -827.29865    81.049449   -8932.5852    8.6431564 
  272000    299.45859     23173.04    -659.0233    79.235399   -8936.4957    8.6487742 
  273000    305.70705    23190.835   -1186.2318    80.888715   -8933.2498    8.6421377 
  274000    290.43276     23192.64     -1660.47    76.847207      -8933.8    8.6414651 
  275000    295.92911     23210.65   -2956.3215    78.301516   -8933.9161    8.6347598 
  276000    304.73257    23190.239   -2163.1082    80.630872   -8937.8005    8.6423597 
  277000    307.24397    23189.631   -1059.2142    81.295376   -8933.0893    8.6425861 
  278000    299.56041    23174.793   -763.92473    79.262342   -8936.4951    8.6481198 
  279000    302.04687    23181.801   -565.47609    79.920248   -8933.1801    8.6455055 
  280000     297.6959    23171.617   -477.23895    78.769001   -8936.2371    8.6493052 
  281000    307.26754     23172.83   -324.44855    81.301613   -8935.2924    8.6488526 
  282000    299.85144    23167.878   -319.21459    79.339346   -8936.6225    8.6507012 
  283000    305.43584    23175.043    217.37519    80.816954   -8932.1486    8.6480264 
  284000    296.70245    23160.247    674.03173    78.506139   -8934.7619    8.6535513 
  285000    295.21094      23147.5    741.06853     78.11149    -8938.911    8.6583166 
  286000    302.98577    23145.813    1776.2293    80.168677   -8935.2676    8.6589477 
  287000    294.40077    23129.703    2495.2363    77.897123    -8936.936    8.6649788 
  288000    304.17801    23128.076    3359.3402    80.484138   -8934.1765    8.6655882 
  289000    298.51013    23104.252    4479.4741    78.984442   -8936.4345     8.674524 
  290000    301.16422    23125.476    2620.3762    79.686703   -8938.0578    8.6665625 
  291000    302.84529    23145.512    1614.8575    80.131505   -8935.8817    8.6590604 
  292000    299.57276    23141.877    1673.1891    79.265609   -8936.6419    8.6604206 
  293000    296.70025    23139.418     2407.269    78.505555   -8934.4523     8.661341 
  294000    295.48824    23107.053    4739.3122    78.184864   -8934.4919    8.6734724 
  295000     296.4986        23109    4681.8115    78.452201   -8934.1278    8.6727416 
  296000    295.32311     23135.09    2051.6786     78.14117   -8937.0139    8.6629611 
  297000    304.92621    23151.888    1130.2396    80.682108    -8936.008    8.6566755 
  298000    298.02475    23143.413     1682.189    78.856014   -8935.9186    8.6598458 
  299000    297.90178    23161.537    510.07477    78.823477   -8934.9554    8.6530693 
  300000    311.48726    23158.824    1010.1099    82.418131   -8934.7176    8.6540829 
Loop time of 99.6067 on 8 procs for 50000 steps with 2048 atoms

Performance: 43.371 ns/day, 0.553 hours/ns, 501.974 timesteps/s
117.9% CPU use with 4 MPI tasks x 2 OpenMP threads

MPI task timing breakdown:
Section |  min time  |  avg time  |  max time  |%varavg| %total
---------------------------------------------------------------
Pair    | 57.335     | 58.329     | 59.276     |  11.9 | 58.56
Neigh   | 0          | 0          | 0          |   0.0 |  0.00
Comm    | 3.9255     | 4.8718     | 5.8061     |  39.6 |  4.89
Output  | 0.0011439  | 0.0018637  | 0.002107   |   1.0 |  0.00
Modify  | 36.206     | 36.284     | 36.353     |   0.9 | 36.43
Other   |            | 0.12       |            |       |  0.12

Nlocal:        512.000 ave         520 max         503 min
Histogram: 1 1 0 0 0 0 0 0 0 2
Nghost:        3101.00 ave        3110 max        3093 min
Histogram: 2 0 0 0 0 0 0 0 1 1
Neighs:        41971.0 ave       43619 max       40304 min
Histogram: 2 0 0 0 0 0 0 0 0 2

Total # of neighbors = 167884
Ave neighs/atom = 81.974609
Neighbor list builds = 0
Dangerous builds = 0

unfix temp
unfix out_file_1
# unfix 1
# # clear
write_data after_heating_$T.in
write_data after_heating_300.in
System init for write_data ...
Last active /omp style is pair_style eam/alloy/omp
write_restart after_heating_$T.lmp
write_restart after_heating_300.lmp
System init for write_restart ...
Last active /omp style is pair_style eam/alloy/omp
next loopVar
# # # thermo_modify flush yes
jump in.lmp ensemble

print """
Label pachadi solti, hos garam.
"""

Label pachadi solti, hos garam.

variable T equal 200+${loopVar}*100
variable T equal 200+2*100
# variable T equal 1200
# velocity all create 1200 123123
reset_timestep 0
fix 1 all npt temp $T $T $(dt*100) iso 0 0 $(dt*1000)
fix 1 all npt temp 400 $T $(dt*100) iso 0 0 $(dt*1000)
fix 1 all npt temp 400 400 $(dt*100) iso 0 0 $(dt*1000)
fix 1 all npt temp 400 400 0.10000000000000000555 iso 0 0 $(dt*1000)
fix 1 all npt temp 400 400 0.10000000000000000555 iso 0 0 1
print """
<--------------------------------------------------------------------->
<------------------ Equilibrating at temperature $T ----------------->
<--------------------------------------------------------------------->
"""

<--------------------------------------------------------------------->
<------------------ Equilibrating at temperature 400 ----------------->
<--------------------------------------------------------------------->

fix temp all print 100 "$(step) $(temp) $(press) ${sys_press} $(vol) $(ke) $(pe) $(density)" file temp_heat.txt screen no title  "step temp press pressGiga vol ke pe density"
run 250000
Last active /omp style is pair_style eam/alloy/omp
Per MPI rank memory allocation (min/avg/max) = 4.354 | 4.354 | 4.354 Mbytes
Step Temp Volume Press KinEng PotEng Density 
       0    311.48726    23158.824    1010.1099    82.418131   -8934.7176    8.6540829 
    1000     390.4448    23244.504     954.2651    103.30994   -8909.9495    8.6221838 
    2000    400.31633    23275.577   -603.86975    105.92191   -8906.0171    8.6106733 
    3000    403.64638    23305.232   -2858.1737    106.80302   -8906.5315    8.5997164 
    4000    413.39333    23300.661   -3250.0002    109.38202   -8911.0082    8.6014035 
    5000    405.56846    23274.362   -513.41148     107.3116   -8906.4505    8.6111226 
    6000    382.94478    23250.034    839.40845    101.32547   -8907.5383     8.620133 
    7000    392.44015    23255.151    1067.4756    103.83791   -8905.8819    8.6182363 
    8000    396.66541    23260.241    299.13086    104.95589   -8907.4379    8.6163505 
    9000    394.36589    23261.555   -18.636749    104.34745   -8907.9338    8.6158638 
   10000    398.44693    23299.894   -1833.0627    105.42727   -8903.5737    8.6016867 
   11000    388.02612    23312.862   -3976.1535    102.66997   -8908.5723    8.5969017 
   12000    408.37327    23271.874   -543.48859    108.05374   -8907.4193    8.6120434 
   13000    399.96028    23241.517      969.611     105.8277   -8910.5029     8.623292 
   14000    407.26317    23253.446    887.53026    107.76001   -8907.6098    8.6188683 
   15000    392.46405     23249.54    914.81789    103.84423   -8907.5323    8.6203162 
   16000    400.50243     23279.62   -1604.9167    105.97115   -8909.1033    8.6091776 
   17000    399.96587    23292.554    -2036.981    105.82918   -8906.6925    8.6043973 
   18000     405.3305    23260.909   -204.46519    107.24863   -8909.6465    8.6161031 
   19000    395.39781    23229.218    2864.5464    104.62049    -8905.832    8.6278575 
   20000     396.9183    23241.987    1956.6225     105.0228   -8906.0445    8.6231175 
   21000    382.54619    23276.935   -1248.6471    101.22001   -8907.7059    8.6101708 
   22000    401.90675    23311.192   -4174.9341    106.34272   -8910.1976    8.5975178 
   23000    397.75725    23269.489   -401.77853    105.24478   -8907.0803    8.6129258 
   24000    400.68067    23248.323    1151.3142    106.01831   -8907.4334    8.6207676 
   25000    409.41733    23257.078    443.53836    108.32999   -8908.5371    8.6175222 
   26000    395.60389    23262.232    -413.8327    104.67502   -8910.1258     8.615613 
   27000    396.07173    23300.506   -2614.3062     104.7988    -8906.465    8.6014608 
   28000    403.06159    23287.917     -1424.22    106.64829   -8905.9626    8.6061103 
   29000    397.33977    23237.329    1319.6945    105.13432   -8910.7471     8.624846 
   30000    405.24812    23240.814    1602.9619    107.22683   -8908.6317    8.6235529 
   31000    397.10026    23255.207    1273.1137    105.07095   -8904.3874    8.6182155 
   32000    394.32709    23272.527    80.749418    104.33718   -8903.8444    8.6118018 
   33000    395.23193    23259.196   -532.35989     104.5766    -8911.248    8.6167377 
   34000    404.46084        23254    507.80446    107.01853   -8908.7809    8.6186628 
   35000    411.13439    23250.913    1688.5222    108.78432   -8904.6962    8.6198073 
   36000    403.72862    23226.621    2426.3866    106.82478   -8909.8046    8.6288224 
   37000    408.77153    23262.373    686.22864    108.15911   -8905.6546    8.6155607 
   38000    403.53604    23299.894   -2532.6758    106.77383   -8907.1856    8.6016867 
   39000    387.41242    23297.357   -3507.2467    102.50759   -8912.1146    8.6026233 
   40000    395.76534    23269.839   -588.56847    104.71774     -8907.89    8.6127964 
   41000    411.87563    23266.858    353.10816    108.98044   -8905.7323       8.6139 
   42000     402.6838    23249.243    725.92344    106.54833   -8909.3971    8.6204264 
   43000    410.23951    23255.297    796.45009    108.54753   -8907.7877    8.6181822 
   44000     407.2093     23221.18    2819.6235    107.74576   -8909.5449    8.6308442 
   45000    393.94038    23222.133    2472.3111    104.23486   -8910.3107    8.6304901 
   46000     400.2854     23270.04   -516.66089    105.91372   -8908.0378     8.612722 
   47000    410.31935    23281.701   -1780.9372    108.56866   -8910.2057    8.6084082 
   48000    401.25106    23275.299   -1893.3494    106.16923    -8912.292    8.6107759 
   49000    400.23556    23267.718    109.26631    105.90053   -8905.8042    8.6135815 
   50000    405.81202    23217.923    3379.8593    107.37604   -8908.5281    8.6320548 
   51000    396.90342    23208.901    3522.0541    105.01887   -8909.9935    8.6354106 
   52000    393.32889    23272.127   -731.33852    104.07306   -8907.2799    8.6119498 
   53000    396.52435    23298.307   -2332.7675    104.91856   -8906.5008    8.6022726 
   54000    390.55509    23295.031   -1838.6728    103.33913   -8904.9523    8.6034821 
   55000    406.40175    23268.833   -701.00315    107.53208   -8909.3448     8.613169 
   56000    393.39783    23195.414    4675.3685     104.0913   -8909.1656    8.6404316 
   57000     401.2869    23215.697    3595.3955    106.17872   -8907.1362    8.6328826 
   58000    386.35034    23253.924    1050.5831    102.22657   -8905.5455    8.6186912 
   59000    398.20785    23281.718   -1334.9282    105.36401   -8906.9981    8.6084018 
   60000    395.67449    23273.186   -1299.4901     104.6937   -8909.8753    8.6115576 
   61000    413.89961    23232.137     2337.579    109.51598   -8908.4772    8.6267735 
   62000    394.04572    23196.415    5254.2764    104.26273   -8906.1307    8.6400588 
   63000    400.23037    23242.688    1393.4089    105.89916   -8908.2782    8.6228575 
   64000    402.79699    23290.597   -2253.6409    106.57828   -8908.3548    8.6051202 
   65000    402.34146     23287.83   -2008.4154    106.45775   -8908.3765    8.6061427 
   66000    414.40527     23272.17    -95.25913    109.64978   -8905.9957    8.6119338 
   67000    396.71971    23218.746    3032.0595    104.97026   -8908.9674    8.6317491 
   68000    410.99358     23226.96    2973.2327    108.74706   -8907.2974    8.6286965 
   69000    396.37316    23252.034    379.82722    104.87856    -8909.798    8.6193917 
   70000    395.11763    23291.376   -1333.6751    104.54635   -8904.2276    8.6048325 
   71000    404.15783    23276.513   -1423.4599    106.93835   -8909.9519    8.6103269 
   72000    390.80165     23246.11     1193.053    103.40436   -8908.0744    8.6215881 
   73000    405.46532    23253.824    614.48787     107.2843   -8909.0143    8.6187282 
   74000       400.85    23263.079   -366.92665    106.06311   -8909.3972    8.6152994 
   75000    392.23271    23259.712   -2.5326462    103.78302   -8909.1722    8.6165464 
   76000    405.35381    23242.997     1840.922     107.2548   -8906.6239    8.6227429 
   77000    399.14994    23221.026    2476.5308    105.61329   -8911.0965    8.6309014 
   78000    396.11195    23278.854   -942.60136    104.80945    -8906.254    8.6094609 
   79000    393.43653    23287.793   -2160.3161    104.10154   -8908.3656    8.6061562 
   80000    402.37804    23282.344   -502.99528    106.46743   -8903.9967    8.6081703 
   81000    399.85525    23257.428   -216.59722    105.79991    -8911.326    8.6173925 
   82000     401.5347    23252.696    877.32647    106.24428   -8907.5591    8.6191463 
   83000    400.74812    23258.764    176.16366    106.03616   -8908.6749    8.6168976 
   84000    400.46609    23273.259   -445.41856    105.96153   -8906.5049    8.6115308 
   85000    393.31249    23278.373   -1045.3028    104.06872   -8906.8669    8.6096389 
   86000    405.83169    23291.808   -1806.2739    107.38125   -8906.3055    8.6046727 
   87000    401.94651    23273.311   -851.11874    106.35325   -8908.1085    8.6115116 
   88000     396.9412    23240.034    1707.2734    105.02886   -8907.5176    8.6238423 
   89000    403.56801    23231.515    2938.8081    106.78229   -8904.8067    8.6270046 
   90000    410.89933    23249.637    448.99947    108.72212   -8910.6165    8.6202802 
   91000    417.59085    23323.066   -4076.7166    110.49267   -8906.6913    8.5931406 
   92000    392.02346     23323.84   -4442.5937    103.72765   -8906.9281    8.5928556 
   93000    401.29818    23263.769   -333.59344     106.1817   -8909.5996    8.6150438 
   94000    392.48664    23232.673    2626.3693     103.8502   -8905.6553    8.6265747 
   95000    397.09473    23231.118    2879.8496    105.06949   -8905.5763     8.627152 
   96000    408.16392    23238.705    1282.6594    107.99834   -8911.0527    8.6243356 
   97000    397.06663    23259.743   -443.93829    105.06205   -8910.3212    8.6165348 
   98000    402.53304    23271.121   -495.50627    106.50844   -8907.6755    8.6123221 
   99000     389.6844    23256.048    303.71981    103.10874   -8907.9772     8.617904 
  100000    407.40321    23271.749   -504.02312    107.79706   -8907.5335    8.6120896 
  101000    392.52167    23247.654    346.50818    103.85948   -8911.1006    8.6210154 
  102000    408.63508    23243.419    1133.7327    108.12301    -8909.859    8.6225864 
  103000    405.17067    23291.815   -1305.6217    107.20634   -8904.0742    8.6046701 
  104000     401.8644    23319.618   -4501.8937    106.33152   -8908.8957    8.5944114 
  105000    395.95381    23291.234   -2414.4978     104.7676   -8909.0896    8.6048849 
  106000     399.6907     23271.34   -41.709737    105.75637   -8904.7837    8.6122408 
  107000    398.57649    23255.418    668.45267    105.46155   -8907.3565    8.6181372 
  108000    405.85993    23266.223    90.964952    107.38872   -8906.7196     8.614135 
  109000    398.19773    23293.827   -1811.7599    105.36133   -8905.0759    8.6039269 
  110000    391.92808    23296.575   -2652.9408    103.70241   -8908.1842    8.6029122 
  111000    402.13168    23259.677     82.91024    106.40224    -8908.359    8.6165592 
  112000    404.00529    23233.994    2030.7088    106.89799   -8908.4224    8.6260842 
  113000     400.6208    23237.935    1572.0562    106.00247   -8909.0997    8.6246212 
  114000    413.78441    23271.816    183.42925     109.4855   -8904.9039    8.6120648 
  115000    394.94186    23268.352   -694.15481    104.49985   -8909.1592    8.6133469 
  116000    412.34377    23295.075   -2089.8965    109.10431    -8907.273     8.603466 
  117000    403.32446    23277.436   -1603.2958    106.71785   -8910.6816    8.6099855 
  118000    396.06184    23253.606    1164.6847    104.79619    -8905.252    8.6188088 
  119000     398.1556    23224.766    2797.8464    105.35019   -8907.5929    8.6295116 
  120000    408.71006    23247.849    2034.5069    108.14285   -8904.0829    8.6209433 
  121000    397.92035    23271.836    -1125.064    105.28794   -8910.0985    8.6120572 
  122000     404.3692    23322.974   -4417.0501    106.99428   -8907.9402    8.5931745 
  123000    394.05295    23290.699   -2208.4255    104.26464   -8908.5805    8.6050824 
  124000    402.42084    23258.993     682.9773    106.47875    -8906.367    8.6168126 
  125000    389.18806    23246.158    1224.5239    102.97742   -8907.5433    8.6215705 
  126000    403.57746    23255.076    1205.9631    106.78479    -8905.243    8.6182643 
  127000    400.23096    23254.124    477.61885    105.89932   -8909.2008    8.6186169 
  128000     406.9859     23303.54   -2679.8144    107.68665   -8906.4622    8.6003409 
  129000    391.25467    23296.211   -2875.0368    103.52423   -8909.1525    8.6030464 
  130000    407.43557    23288.776   -1615.6548    107.80563   -8906.6922    8.6057931 
  131000    395.26035    23242.974    1294.7905    104.58412   -8908.6169    8.6227512 
  132000    412.47592    23252.978    1093.3764    109.13928   -8906.8479    8.6190417 
  133000    396.06243    23247.324    1050.0689    104.79634   -8908.3316    8.6211379 
  134000    395.02723     23266.91   -40.706096    104.52243   -8906.1957    8.6138805 
  135000    392.25412    23321.833   -4114.8789    103.78868   -8906.4013    8.5935948 
  136000    400.88251    23309.408   -3517.2199    106.07172   -8908.0103    8.5981756 
  137000    402.24199    23258.912    89.909045    106.43143   -8909.1258    8.6168428 
  138000    413.82429    23249.882     867.7039    109.49605   -8909.3481    8.6201893 
  139000    398.36518    23246.352     1303.201    105.40564   -8907.8215    8.6214985 
  140000    400.38204     23264.65    56.638591    105.93929   -8906.6487    8.6147174 
  141000     387.2464    23300.511   -3055.4965    102.46366   -8908.3698    8.6014587 
  142000    390.64611    23310.151   -4069.9598    103.36321   -8909.7053    8.5979015 
  143000    397.44814    23271.527   -69.096961      105.163   -8904.7272    8.6121719 
  144000    395.70592    23244.899    1115.0382    104.70201   -8908.2744    8.6220373 
  145000    392.22494    23242.064    1899.5549    103.78096   -8905.6328    8.6230891 
  146000    404.69348      23249.6    1141.5182    107.08008   -8907.4886    8.6202941 
  147000    395.84851    23299.786   -2523.2931    104.73974   -8906.5425    8.6017265 
  148000    396.84205    23295.638   -2683.2199    105.00263   -8908.8833    8.6032582 
  149000    399.25606    23265.865   -839.06057    105.64136   -8910.7124    8.6142676 
  150000    401.54992    23251.908    1153.8844    106.24831   -8906.1074    8.6194382 
  151000    394.67215    23214.707    3093.5666    104.42848   -8910.0615    8.6332508 
  152000    413.00478    23228.491    2210.6527    109.27921   -8909.9865    8.6281278 
  153000    390.31762    23253.048    276.78332    103.27629   -8909.0673    8.6190156 
  154000    402.37365    23279.507   -1302.7911    106.46626   -8908.1645    8.6092196 
  155000    402.92535    23289.625   -1699.8575    106.61224   -8906.7495    8.6054793 
  156000    399.31955    23284.406   -1749.5498    105.65816   -8908.7272    8.6074083 
  157000    400.85303    23222.667    3989.9535    106.06391   -8903.3229    8.6302914 
  158000    410.49099    23243.259    1637.4199    108.61407   -8907.8111    8.6226458 
  159000    407.23897    23261.495   -355.37433     107.7536   -8910.4076    8.6158859 
  160000    405.98889    23291.638   -1617.1762    107.42284   -8905.6318    8.6047355 
  161000    403.18904    23274.056   -1076.8778    106.68201   -8909.1319     8.611236 
  162000    407.89168    23228.202    3037.6382    107.92631   -8906.1921    8.6282351 
  163000    402.84182     23217.44    3167.3066    106.59014   -8909.0711    8.6322345 
  164000    392.80443    23240.451    998.62283    103.93429    -8910.604    8.6236876 
  165000    406.10012    23279.914   -869.98019    107.45227   -8906.7508    8.6090691 
  166000    396.41744     23277.59   -1868.5948    104.89028   -8910.6877    8.6099284 
  167000    405.25372    23308.408   -3313.0378    107.22832   -8907.7527    8.5985445 
  168000    395.78712     23244.31     894.5709     104.7235   -8910.2044    8.6222559 
  169000    405.79112    23233.294    2376.5062    107.37051   -8907.6067    8.6263439 
  170000     390.9158    23241.829    1432.7831    103.43457   -8908.4474    8.6231762 
  171000    406.94487    23281.827   -598.75425    107.67579   -8904.8301    8.6083617 
  172000    395.89447    23256.952    482.88136     104.7519   -8907.7692    8.6175689 
  173000    406.78582    23273.513   -704.00658     107.6337   -8907.9205    8.6114369 
  174000    396.25674    23268.498   -431.45901    104.84776    -8907.389    8.6132927 
  175000     403.8259    23271.011   -729.37369    106.85052   -8908.8628    8.6123628 
  176000    407.84159    23269.734   -752.37471    107.91306    -8909.682    8.6128351 
  177000    409.96305    23242.996    1692.4088    108.47439   -8907.5102    8.6227432 
  178000    409.51825    23231.802    2493.6386    108.35669   -8907.5198    8.6268978 
  179000    388.06585    23227.827    2145.4746    102.68048   -8909.0868    8.6283744 
  180000    399.49697    23328.473   -4717.1278    105.70511   -8906.6268    8.5911489 
  181000    394.68041    23288.591   -2305.6035    104.43067   -8909.2554    8.6058614 
  182000    407.07673    23280.754   -922.39284    107.71068   -8906.8015    8.6087583 
  183000    401.27373    23243.395    1673.9894    106.17523   -8906.7396    8.6225951 
  184000     392.8114    23221.317    2902.3894    103.93614   -8908.2993    8.6307933 
  185000    407.47558    23274.337   -531.84205    107.81621   -8906.8873    8.6111321 
  186000    392.59422    23296.815   -2887.4455    103.87867   -8909.2492    8.6028235 
  187000    390.56452    23284.877   -791.80661    103.34162   -8903.6031    8.6072341 
  188000    402.82187    23269.208    134.59388    106.58486    -8905.307    8.6130302 
  189000    388.32504    23262.956    384.16689    102.74906    -8905.183    8.6153447 
  190000    398.21447    23266.694   -272.24117    105.36576   -8907.6953    8.6139605 
  191000    399.45663    23269.626   -351.66148    105.69443    -8907.003    8.6128753 
  192000    394.48014    23215.743    2978.4969    104.37768   -8910.2517    8.6328657 
  193000    398.02073    23215.702    3660.8887     105.3145   -8907.3024    8.6328806 
  194000    406.51671    23261.315    770.60278     107.5625   -8905.1581    8.6159525 
  195000    397.14313    23265.079   -377.48372    105.08229   -8908.6667    8.6145585 
  196000    397.71511    23261.892    298.26099    105.23363   -8906.5721    8.6157387 
  197000     394.6646    23273.844   -1381.5808    104.42648   -8910.4601    8.6113144 
  198000    399.97383    23280.067   -1138.6804    105.83128   -8907.4853    8.6090124 
  199000      398.957    23243.857    1176.8751    105.56223   -8909.0063     8.622424 
  200000    400.91773    23195.311    4450.7819    106.08103   -8910.5521    8.6404699 
  201000    388.86006    23229.438    2610.8021    102.89063   -8906.9336    8.6277761 
  202000    396.73567    23256.792    116.92606    104.97448   -8908.9907    8.6176281 
  203000    394.09085     23262.36   -147.69585    104.27467    -8908.811    8.6155653 
  204000    401.60901    23275.699    -218.9329    106.26394   -8904.6162     8.610628 
  205000    401.33197    23233.728    2148.3136    106.19064   -8908.3616    8.6261829 
  206000    397.16346    23208.762    4217.1005    105.08767   -8907.0655    8.6354622 
  207000    382.42563    23233.089     1507.218    101.18811   -8910.2743    8.6264201 
  208000    402.84378    23266.275   -198.75151    106.59066   -8907.6464    8.6141157 
  209000    393.35925    23247.272    571.54778     104.0811   -8910.3486    8.6211571 
  210000    400.93322    23259.592    702.99201    106.08513   -8906.0814     8.616591 
  211000    395.43471    23267.643   -261.71087    104.63025   -8907.0984    8.6136095 
  212000    412.46077    23317.293   -4120.9541    109.13527   -8908.7146    8.5952683 
  213000    400.34627    23275.512   -1357.2281    105.92983   -8909.4752    8.6106973 
  214000    410.51842    23248.219     1646.862    108.62133   -8905.4559    8.6208062 
  215000    406.40788    23220.728    2664.5414     107.5337   -8910.4032    8.6310121 
  216000    403.75413    23243.236    1875.1192    106.83153   -8906.2486    8.6226543 
  217000    390.50551    23283.817   -1255.8457    103.32601   -8906.0485    8.6076258 
  218000     411.5216    23322.912   -3365.7056    108.88677   -8903.5195    8.5931974 
  219000     397.0881    23277.389   -1329.2772    105.06773   -8908.7019    8.6100028 
  220000    392.39162    23235.248    1558.9803    103.82506   -8909.6059    8.6256185 
  221000    398.62806    23256.904    647.02495     105.4752   -8906.7798    8.6175868 
  222000    394.53688     23256.44    8.0727485    104.39269   -8909.8501    8.6177587 
  223000     409.8758    23282.018   -1298.2965     108.4513   -8908.1365    8.6082911 
  224000    415.04219    23306.301   -3311.0286     109.8183   -8908.9854    8.5993222 
  225000    389.04486    23270.694    -543.3988    102.93953   -8906.9168    8.6124801 
  226000    397.77174    23247.059    1752.1737    105.24862   -8905.0656    8.6212361 
  227000    393.52785    23229.822    2659.5441    104.12571   -8906.5761    8.6276332 
  228000    394.23447    23252.933    932.28943    104.31267   -8907.0975    8.6190584 
  229000    400.89419    23314.751   -3640.8114     106.0748   -8906.9369    8.5962053 
  230000    395.97177    23298.133   -2821.2189    104.77235   -8908.6805    8.6023367 
  231000    391.78795    23266.666   -249.50197    103.66533   -8906.9815    8.6139709 
  232000    403.18817    23242.502    1856.5816    106.68178   -8906.9752    8.6229264 
  233000    411.83127    23221.598    3107.7886    108.96871   -8908.3358    8.6306889 
  234000      401.475    23249.486    855.30062    106.22848   -8908.7482    8.6203363 
  235000    394.49611    23285.703   -884.42014     104.3819   -8903.5238    8.6069289 
  236000    402.82013    23284.945   -1607.0214     106.5844   -8907.6204    8.6072089 
  237000    391.96023     23288.46    -2041.192    103.71092   -8908.0443    8.6059097 
  238000     400.6369    23250.271    996.50974    106.00673   -8907.7397     8.620045 
  239000    410.68853    23206.835    4271.9855    108.66634   -8907.9103    8.6361791 
  240000    400.23627    23236.802    1991.2714    105.90072   -8908.0505    8.6250417 
  241000    398.41887    23271.064   -591.78418    105.41985   -8907.3972     8.612343 
  242000    406.11268    23285.846   -1651.3918    107.45559   -8907.1203    8.6068758 
  243000    405.39268    23258.733    319.11683    107.26509   -8908.6172    8.6169089 
  244000    405.35577    23203.124    4413.8961    107.25532   -8908.2699    8.6375605 
  245000    403.89197    23237.648    1947.9887      106.868   -8907.8621    8.6247278 
  246000    403.62153    23283.497   -1694.8722    106.79645   -8908.6991    8.6077442 
  247000    413.05384    23298.244   -1837.0674    109.29219   -8904.8989    8.6022958 
  248000    389.01438    23260.374   -130.70393    102.93146   -8908.4828     8.616301 
  249000    405.65915     23229.73    2985.5179    107.33559   -8905.8501    8.6276677 
  250000    404.05683    23193.753    4564.3514    106.91163   -8910.7966    8.6410504 
Loop time of 512.301 on 8 procs for 250000 steps with 2048 atoms

Performance: 42.163 ns/day, 0.569 hours/ns, 487.995 timesteps/s
117.2% CPU use with 4 MPI tasks x 2 OpenMP threads

MPI task timing breakdown:
Section |  min time  |  avg time  |  max time  |%varavg| %total
---------------------------------------------------------------
Pair    | 296.04     | 300.8      | 306.36     |  27.2 | 58.72
Neigh   | 0          | 0          | 0          |   0.0 |  0.00
Comm    | 21.752     | 27.337     | 31.861     |  87.5 |  5.34
Output  | 0.0059487  | 0.011238   | 0.01303    |   2.9 |  0.00
Modify  | 183.1      | 183.5      | 183.78     |   1.8 | 35.82
Other   |            | 0.6499     |            |       |  0.13

Nlocal:        512.000 ave         518 max         503 min
Histogram: 1 0 0 0 1 0 0 0 0 2
Nghost:        3101.00 ave        3110 max        3095 min
Histogram: 2 0 0 0 0 0 1 0 0 1
Neighs:        42040.0 ave       44233 max       40002 min
Histogram: 2 0 0 0 0 0 0 0 1 1

Total # of neighbors = 168160
Ave neighs/atom = 82.109375
Neighbor list builds = 0
Dangerous builds = 0


# fix 132 all momentum 100 linear 1 1 1 angular
fix out_file_1 all print 1000 "$(step) $(temp) $(press) ${sys_press} $(vol) $(ke) $(pe) $(density)" file one_phase_heating_$T_.txt screen no title  "step temp press pressGiga vol ke pe density"
fix out_file_1 all print 1000 "$(step) $(temp) $(press) ${sys_press} $(vol) $(ke) $(pe) $(density)" file one_phase_heating_400_.txt screen no title  "step temp press pressGiga vol ke pe density"

# dump 3 all custom 1000 traj_npt_new.lammpstrj id type x y z
run 50000
Last active /omp style is pair_style eam/alloy/omp
Per MPI rank memory allocation (min/avg/max) = 4.354 | 4.354 | 4.354 Mbytes
Step Temp Volume Press KinEng PotEng Density 
  250000    404.05683    23193.753    4564.3514    106.91163   -8910.7966    8.6410504 
  251000    411.73674    23258.819    891.67695     108.9437   -8905.5525    8.6168772 
  252000    405.75297    23275.105   -1156.7725    107.36042   -8909.4335    8.6108477 
  253000    396.94142    23287.221   -1473.6707    105.02892   -8906.0044    8.6063676 
  254000    397.97529    23288.288   -1505.6303    105.30248   -8905.6399    8.6059733 
  255000    392.56978     23223.86    2072.0109     103.8722   -8911.5239    8.6298484 
  256000    398.16236    23227.651    3009.9835    105.35198   -8905.9113    8.6284399 
  257000    392.22783     23228.66    2082.7832    103.78173   -8909.4015    8.6280648 
  258000    398.17573     23267.92    -31.34566    105.35551   -8905.7419    8.6135069 
  259000    393.35238    23271.018   -480.03731    104.07928   -8907.2549    8.6123599 
  260000     401.2512    23273.802    105.22761    106.16927   -8903.4839      8.61133 
  261000    402.35571    23255.898    269.12049    106.46152   -8909.2913    8.6179594 
  262000    397.84972    23234.097     1813.427    105.26925   -8909.6828    8.6260459 
  263000     411.2371    23260.237   -113.58484    108.81149   -8910.0141    8.6163517 
  264000    394.73877     23302.52   -2744.6313    104.44611   -8907.1559    8.6007173 
  265000    397.42934    23303.175   -2550.5558    105.15802   -8905.7959    8.6004754 
  266000    399.40452    23267.342   -623.85517    105.68065   -8909.4028    8.6137209 
  267000    402.84265    23254.961    1027.3075    106.59036   -8906.5678    8.6183066 
  268000     392.1505    23242.328    1061.9509    103.76126   -8909.8778    8.6229912 
  269000     393.6486     23276.13   -655.68662    104.15765   -8906.2994    8.6104685 
  270000    402.92363    23314.066    -3988.711    106.61179   -8909.3214    8.5964578 
  271000    392.23137    23278.935   -1852.6232    103.78266   -8910.1625    8.6094311 
  272000    411.94116    23254.295    462.23047    108.99778   -8909.5081    8.6185536 
  273000    390.21354    23237.373    1230.5299    103.24875   -8910.6908    8.6248298 
  274000    403.08926    23254.699    992.92183    106.65561    -8906.192    8.6184039 
  275000    395.03029    23242.951    724.42876    104.52324   -8911.5189    8.6227598 
  276000    400.58209    23300.483   -2957.7963    105.99223   -8908.9794    8.6014693 
  277000    392.78797    23315.749   -3435.2589    103.92994   -8905.2403    8.5958374 
  278000    396.95688    23282.798   -2492.4866    105.03301   -8912.1022    8.6080027 
  279000    401.17479    23249.896    1044.5564    106.14905   -8908.0742    8.6201844 
  280000    411.73677     23226.94    2617.4933     108.9437   -8908.5191    8.6287039 
  281000    406.11442    23236.123    1479.7515    107.45605   -8910.7013    8.6252937 
  282000    400.71781    23258.902    392.34305    106.02814   -8906.9514    8.6168465 
  283000    392.03554    23263.434    420.99203    103.73085   -8904.8838    8.6151676 
  284000    403.56128    23269.473   -924.74577     106.7805   -8910.1643     8.612932 
  285000    405.77999     23285.84   -1521.9917    107.36757   -8907.4169    8.6068782 
  286000    399.96773    23249.152    1064.8209    105.82967   -8907.9024    8.6204599 
  287000    398.94566    23221.604    2877.7268    105.55923   -8909.3548    8.6306867 
  288000      407.516    23239.504    2119.9731    107.82691    -8906.514    8.6240389 
  289000    406.07728    23256.326    566.49953    107.44623   -8907.7968    8.6178009 
  290000    403.63562    23260.473   -505.06493    106.80017   -8910.6904    8.6162645 
  291000    403.06692    23259.139    789.66119     106.6497   -8904.9834    8.6167587 
  292000    391.08754    23236.566    1415.6363    103.48001   -8909.9267    8.6251293 
  293000    404.63107    23270.269   -521.35213    107.06357   -8907.7375    8.6126374 
  294000    396.39721    23299.411    -3005.655    104.88492   -8908.6066     8.601865 
  295000    403.47727    23301.684   -2980.8935    106.75828   -8908.5675    8.6010258 
  296000    391.95016    23258.865    173.23843    103.70826   -8908.1921    8.6168601 
  297000    385.86691    23224.182    3255.7526    102.09865   -8905.1266    8.6297286 
  298000    394.09539    23250.172     1192.755    104.27587   -8906.4981     8.620082 
  299000    397.45366    23256.921    426.76644    105.16446   -8907.4387    8.6175805 
  300000    391.78249    23278.313   -465.39593    103.66389    -8904.481    8.6096611 
Loop time of 101.291 on 8 procs for 50000 steps with 2048 atoms

Performance: 42.650 ns/day, 0.563 hours/ns, 493.629 timesteps/s
117.9% CPU use with 4 MPI tasks x 2 OpenMP threads

MPI task timing breakdown:
Section |  min time  |  avg time  |  max time  |%varavg| %total
---------------------------------------------------------------
Pair    | 58.096     | 59.43      | 60.702     |  13.4 | 58.67
Neigh   | 0          | 0          | 0          |   0.0 |  0.00
Comm    | 4.0282     | 5.3079     | 6.5849     |  43.4 |  5.24
Output  | 0.0012979  | 0.0020374  | 0.0024154  |   1.0 |  0.00
Modify  | 36.342     | 36.426     | 36.492     |   0.9 | 35.96
Other   |            | 0.1253     |            |       |  0.12

Nlocal:        512.000 ave         515 max         504 min
Histogram: 1 0 0 0 0 0 0 0 0 3
Nghost:        3101.00 ave        3109 max        3098 min
Histogram: 3 0 0 0 0 0 0 0 0 1
Neighs:        41687.5 ave       44230 max       39440 min
Histogram: 1 1 0 0 0 0 0 1 0 1

Total # of neighbors = 166750
Ave neighs/atom = 81.420898
Neighbor list builds = 0
Dangerous builds = 0

unfix temp
unfix out_file_1
# unfix 1
# # clear
write_data after_heating_$T.in
write_data after_heating_400.in
System init for write_data ...
Last active /omp style is pair_style eam/alloy/omp
write_restart after_heating_$T.lmp
write_restart after_heating_400.lmp
System init for write_restart ...
Last active /omp style is pair_style eam/alloy/omp
next loopVar
# # # thermo_modify flush yes
jump in.lmp ensemble

print """
Label pachadi solti, hos garam.
"""

Label pachadi solti, hos garam.

variable T equal 200+${loopVar}*100
variable T equal 200+3*100
# variable T equal 1200
# velocity all create 1200 123123
reset_timestep 0
fix 1 all npt temp $T $T $(dt*100) iso 0 0 $(dt*1000)
fix 1 all npt temp 500 $T $(dt*100) iso 0 0 $(dt*1000)
fix 1 all npt temp 500 500 $(dt*100) iso 0 0 $(dt*1000)
fix 1 all npt temp 500 500 0.10000000000000000555 iso 0 0 $(dt*1000)
fix 1 all npt temp 500 500 0.10000000000000000555 iso 0 0 1
print """
<--------------------------------------------------------------------->
<------------------ Equilibrating at temperature $T ----------------->
<--------------------------------------------------------------------->
"""

<--------------------------------------------------------------------->
<------------------ Equilibrating at temperature 500 ----------------->
<--------------------------------------------------------------------->

fix temp all print 100 "$(step) $(temp) $(press) ${sys_press} $(vol) $(ke) $(pe) $(density)" file temp_heat.txt screen no title  "step temp press pressGiga vol ke pe density"
run 250000
Last active /omp style is pair_style eam/alloy/omp
Per MPI rank memory allocation (min/avg/max) = 4.354 | 4.354 | 4.354 Mbytes
Step Temp Volume Press KinEng PotEng Density 
       0    391.78249    23278.313   -465.39593    103.66389    -8904.481    8.6096611 
    1000    494.20581    23342.178    510.50396    130.76464   -8882.4029    8.5861048 
    2000    491.36171    23367.279   -797.46831    130.01211   -8880.0687    8.5768816 
    3000    507.49235    23386.655   -2090.6413     134.2802   -8880.4605    8.5697755 
    4000    500.05001    23315.474    3031.2351    132.31099   -8880.5079    8.5959389 
    5000    507.09387    23398.095   -1921.1084    134.17476   -8875.6041    8.5655857 
    6000    498.76593    23345.711    667.14985    131.97123   -8881.8701    8.5848055 
    7000      500.487    23356.467   -537.28458    132.42662   -8883.0353    8.5808519 
    8000    514.62145    23376.949   -494.97308    136.16653   -8877.1837    8.5733336 
    9000    500.40809    23351.082    631.41319    132.40574   -8880.4757    8.5828309 
   10000    515.80457    23382.178   -1337.7257    136.47958   -8878.4915    8.5714166 
   11000    505.56631    23364.966   -567.92974    133.77058    -8880.799    8.5777308 
   12000    495.19894     23324.85    2721.3322    131.02742   -8878.2649    8.5924834 
   13000    484.62049     23403.29   -2139.9429    128.22841   -8873.8731    8.5636844 
   14000    509.59514    23314.198     3362.932    134.83659   -8880.1888     8.596409 
   15000    503.89143    23364.093   -1073.9681    133.32741    -8883.261    8.5780512 
   16000    502.19849    23375.338   -982.82329    132.87947   -8878.9041    8.5739246 
   17000    486.82739    23330.266    1096.5051    128.81235   -8883.9877    8.5904888 
   18000    492.10827    23374.077    -510.4744    130.20964   -8876.4539     8.574387 
   19000    501.46332    23343.214    1642.1303    132.68495   -8877.7423    8.5857236 
   20000    501.76438    23350.849   -356.69723    132.76461   -8884.7242    8.5829165 
   21000    501.69992    23394.789   -2554.4624    132.74755   -8879.4779    8.5667961 
   22000    502.02872     23327.29    2324.2126    132.83455   -8880.3215    8.5915845 
   23000    493.21629    23372.929   -1294.3625    130.50282   -8880.5303    8.5748084 
   24000    489.25696    23337.263     1194.203     129.4552   -8880.7039    8.5879132 
   25000    489.71465    23364.467    498.37539     129.5763    -8875.324    8.5779138 
   26000    496.40486    23358.786   -484.90234     131.3465    -8882.178    8.5800003 
   27000    510.16534    23349.004    757.84542    134.98746   -8879.9865    8.5835947 
   28000    522.64149    23397.675   -2736.8071    138.28859   -8880.3862    8.5657392 
   29000    502.30688     23320.13    2292.2163    132.90815   -8882.5279    8.5942226 
   30000    512.00017    23395.067   -3112.9953    135.47295    -8882.205    8.5666943 
   31000     504.3433     23366.87   -853.60641    133.44697   -8881.2575    8.5770317 
   32000    512.23515    23356.327    1290.6509    135.53513   -8875.9109    8.5809035 
   33000    497.08492    23365.197   -504.39093    131.52644   -8880.0244    8.5776459 
   34000    518.53852    23359.692    127.58637    137.20297   -8880.1586    8.5796675 
   35000     491.3489    23373.495   -1295.7718    130.00872   -8879.9843    8.5746006 
   36000    506.47927    23328.386     1642.435    134.01214    -8883.103     8.591181 
   37000    512.59282    23363.803   0.38367752    135.62976   -8879.0458    8.5781578 
   38000    494.87128    23388.805    -2523.867    130.94072   -8880.7789    8.5689877 
   39000    510.55192    23336.659     2350.943    135.08975   -8877.0655    8.5881355 
   40000    506.86424    23372.787   -2094.7649      134.114   -8885.1809    8.5748604 
   41000    494.99956    23361.328    38.285986    130.97466   -8878.2224    8.5790665 
   42000    512.83768    23336.248     978.3442    135.69455   -8883.4952    8.5882868 
   43000    494.20004    23412.172   -4866.0444    130.76311   -8883.8384    8.5604355 
   44000    514.43746    23264.276     7156.851    136.11785   -8880.4866    8.6148558 
   45000    496.48061     23365.28   -578.40371    131.36654   -8880.4042    8.5776155 
   46000    504.38193    23386.894   -1282.9192     133.4572   -8877.2557    8.5696882 
   47000    510.10866    23331.118    1889.5298    134.97246   -8881.9183     8.590175 
   48000    493.52034    23404.551   -3041.9228    130.58327    -8877.927    8.5632229 
   49000    502.20895    23299.556    4421.7632    132.88224   -8880.2704    8.6018116 
   50000    492.48858     23364.73   -724.66388    130.31027   -8880.4632    8.5778175 
   51000    500.36257    23371.146   -872.97514    132.39369   -8879.4162    8.5754625 
   52000    506.90439    23335.753    1366.0497    134.12463   -8882.1457    8.5884687 
   53000    506.44969    23377.804   -1391.2844    134.00432   -8880.8102    8.5730204 
   54000    513.67588    23368.404   -2038.5599    135.91634   -8887.3396    8.5764689 
   55000    506.68062    23312.444    3484.0636    134.06542   -8879.8573    8.5970558 
   56000    487.21785    23392.359    -2884.685    128.91566   -8881.3363    8.5676859 
   57000    498.65058    23336.555    1756.6922    131.94071   -8879.5451    8.5881738 
   58000    486.60755    23346.528    167.02678    128.75418   -8882.5763    8.5845049 
   59000    495.72337    23394.621   -2427.8892    131.16618   -8878.4713    8.5668576 
   60000    520.76237    23290.194    5179.4611    137.79139   -8880.5782     8.605269 
   61000    514.84265    23392.876   -3175.7896    136.22506   -8883.4199    8.5674966 
   62000    495.58529    23350.556    99.833491    131.12965   -8882.2885    8.5830243 
   63000    508.55845    23342.211    844.97905    134.56229   -8882.4209    8.5860927 
   64000    498.58169    23385.423   -1703.3193    131.92248   -8878.3608    8.5702272 
   65000    495.25148    23313.672    3195.4616    131.04132   -8880.5948     8.596603 
   66000    488.43677    23373.894    372.42157    129.23818   -8872.9039    8.5744542 
   67000    500.65637    23379.886   -1449.4282    132.47143   -8879.6488    8.5722568 
   68000    495.41668    23324.607    2079.2303    131.08503   -8881.5435     8.592573 
   69000    511.02351    23401.992   -2942.9587    135.21453    -8878.989    8.5641592 
   70000     504.6807    23341.219    706.31363    133.53625   -8882.9105    8.5864574 
   71000    518.53066    23347.247    1651.5157    137.20089   -8876.9719    8.5842405 
   72000    498.13422    23397.357   -2918.8232    131.80408   -8880.2875     8.565856 
   73000    501.47421    23333.911    1970.0812    132.68783   -8879.6809    8.5891468 
   74000     499.5695    23349.265    12.489201    132.18385   -8883.3533    8.5834988 
   75000    505.49839    23385.946   -1948.9784    133.75261   -8879.7973    8.5700356 
   76000     498.1707    23332.083    2002.2726    131.81373   -8879.8433    8.5898196 
   77000    497.09376    23375.717   -1424.7241    131.52878   -8880.4816    8.5737857 
   78000    490.91213    23351.922   -810.18803    129.89315   -8885.6361    8.5825219 
   79000    507.80813    23332.607    1837.2425    134.36376   -8880.9809    8.5896266 
   80000    495.25387    23390.514   -2516.5695    131.04195   -8880.1135    8.5683618 
   81000    505.60659    23346.269    2318.0884    133.78124   -8873.0918    8.5846004 
   82000     496.1546    23339.815    1420.7318    131.28028   -8880.3908     8.586974 
   83000    502.31278    23382.065   -1897.6842    132.90971   -8880.8862    8.5714578 
   84000    503.27076    23335.408    1772.0007    133.16319   -8879.2668    8.5885956 
   85000    480.72122    23365.454   -1080.1527    127.19668   -8881.5741    8.5775517 
   86000    497.25311    23345.812    631.15396    131.57094   -8881.6578    8.5847681 
   87000    501.49804    23309.242    3344.1367    132.69413   -8881.3429    8.5982371 
   88000    510.23181    23431.095   -4709.8083    135.00505   -8877.7029    8.5535218 
   89000    502.91056    23339.022    1136.7529    133.06788   -8882.0535    8.5872659 
   90000    508.46702    23364.224   -756.58528    134.53809   -8882.2507    8.5780032 
   91000    505.83498    23371.643   -1072.8944    133.84167   -8881.3749    8.5752803 
   92000    513.07193    23346.838    327.97102    135.75653   -8883.3086     8.584391 
   93000    525.88316    23388.729    -2308.053    139.14633   -8881.9291    8.5690159 
   94000    500.21131    23374.368   -1152.4676    132.35367   -8880.2111    8.5742804 
   95000    497.42873    23316.922    3566.0154    131.61741   -8877.9459    8.5954048 
   96000    493.80242    23411.072   -3766.8766    130.65791   -8879.1565    8.5608377 
   97000    497.86429    23321.944    2478.2655    131.73266   -8881.0575    8.5935541 
   98000     506.6322    23375.556   -351.24283    134.05261   -8876.3312    8.5738448 
   99000    499.46887    23382.453   -2518.5152    132.15722   -8883.3128    8.5713157 
  100000    500.51982    23325.184    2333.6577     132.4353   -8880.5546    8.5923602 
  101000    492.49966    23355.173   -419.33725     130.3132   -8882.5125    8.5813274 
  102000    502.85773    23357.592    685.62295     133.0539   -8877.7956    8.5804387 
  103000    496.95256    23357.061     812.2308    131.49142   -8876.5823    8.5806336 
  104000    506.03522    23385.364   -1354.5381    133.89465     -8877.59    8.5702489 
  105000    508.05909    23327.877    1632.0537    134.43016   -8883.5335    8.5913683 
  106000    495.37227      23403.6   -3233.4469    131.07328   -8879.4002     8.563571 
  107000    505.56227    23336.954    2117.8194    133.76951   -8878.0672    8.5880267 
  108000    478.37662    23339.464    464.44802    126.57631    -8883.091    8.5871031 
  109000    508.47344    23386.524   -1744.0584    134.53979   -8878.6174    8.5698236 
  110000    491.12312     23315.63    2620.9193    129.94898   -8882.5121    8.5958813 
  111000    502.32462    23384.184   -1706.0849    132.91284   -8878.8748    8.5706812 
  112000    488.97501    23351.836    871.26372    129.38059   -8877.8446    8.5825536 
  113000    503.78041    23361.852    622.47136    133.29804   -8876.5312    8.5788739 
  114000    490.59247    23355.793    306.12441    129.80857   -8878.9103    8.5810996 
  115000    505.92179    23348.603    1061.4699    133.86464   -8878.4847    8.5837421 
  116000    498.27802    23372.374   -1305.2027    131.84213   -8881.1688    8.5750121 
  117000    491.89091    23380.546   -1318.1274    130.15213   -8878.1564    8.5720149 
  118000    509.78707    23303.855    3483.6405    134.88737   -8883.3961    8.6002245 
  119000    503.89396    23387.557   -2370.7413    133.32808   -8881.8222     8.569445 
  120000    484.19359     23338.22     1070.269    128.11545   -8881.5618    8.5875609 
  121000    489.88021    23359.649    534.05627    129.62011   -8876.6474    8.5796833 
  122000    483.90486    23367.615   -275.83975    128.03906   -8877.3863    8.5767584 
  123000    512.89971    23317.105    3147.2981    135.71096    -8880.441    8.5953376 
  124000    505.93328    23427.213   -4632.2477    133.86768   -8878.6689    8.5549393 
  125000    488.85594    23311.738    2616.4205    129.34909   -8883.5333    8.5973164 
  126000    498.47694    23355.503     586.2642    131.89476   -8878.0784    8.5812063 
  127000    503.91983     23392.12   -1546.2843    133.33493   -8876.1755    8.5677735 
  128000    489.32043    23314.325     3063.733    129.47199   -8881.1212    8.5963626 
  129000    499.91172    23405.347   -2051.0217     132.2744   -8872.9223    8.5629317 
  130000     491.6259    23366.612   -251.97352    130.08201   -8878.6146    8.5771266 
  131000    513.04676     23336.31    1772.4103    135.74987   -8879.8518    8.5882637 
  132000    488.86719    23372.818   -1379.5917    129.35207   -8881.2127     8.574849 
  133000    503.24796    23348.369    682.18629    133.15715   -8880.7092    8.5838281 
  134000    497.17391    23360.797   -634.20884    131.54999   -8882.2449    8.5792614 
  135000    504.03125     23397.32   -2417.7943    133.36441   -8878.5674    8.5658695 
  136000    492.80327    23311.456    3440.1017    130.39354   -8880.2843    8.5974203 
  137000    506.75759    23407.669   -3457.8738    134.08579   -8880.1779    8.5620822 
  138000    479.79879    23329.632    1147.8038    126.95261   -8883.2538    8.5907221 
  139000    510.53784    23326.786    2197.1361    135.08602    -8881.078    8.5917702 
  140000    510.00762     23404.22    -2683.045    134.94573   -8876.9032    8.5633439 
  141000    488.96645    23329.406    2442.5723    129.37833   -8877.6424    8.5908053 
  142000    496.73692     23372.02   -555.90065    131.43436    -8876.963    8.5751418 
  143000    497.37202    23344.382    757.02703    131.60241   -8881.1899    8.5852941 
  144000    508.52436     23388.62   -2006.9827    134.55327   -8879.5494    8.5690555 
  145000    502.04239    23353.462    24.144457    132.83817   -8881.4919    8.5819563 
  146000    506.30796    23329.645    2808.1465    133.96682   -8877.0423    8.5907173 
  147000    484.51059    23369.262   -1867.8202    128.19933   -8884.0333    8.5761538 
  148000    510.28239    23341.941    1386.6764    135.01843    -8879.703     8.586192 
  149000    497.53425     23371.41    -1294.317    131.64533   -8881.6123    8.5753656 
  150000    507.19212    23374.434   -626.04711    134.20076   -8877.3743    8.5742561 
  151000    489.02143    23335.201    1368.4747    129.39288   -8880.9646     8.588672 
  152000    505.57378    23374.789   -1448.4824    133.77256   -8881.2294    8.5741261 
  153000    502.76851    23359.514    125.32928    133.03029   -8879.1002    8.5797327 
  154000    514.09781    23320.334    2881.0871    136.02798   -8880.7651    8.5941473 
  155000     501.2149     23399.92   -3336.8454    132.61922   -8881.2912    8.5649176 
  156000    509.15856    23355.067    589.14715    134.72107   -8878.2204    8.5813663 
  157000    498.91989    23354.902    239.24748    132.01197   -8880.3886    8.5814269 
  158000    509.34927    23378.144    -838.5082    134.77153   -8877.5739    8.5728954 
  159000    514.96075    23375.922   -1893.3034    136.25631   -8883.5054    8.5737104 
  160000    479.30168    23331.083    1627.4896    126.82108   -8881.0191    8.5901878 
  161000    509.87449    23382.828   -1565.1971    134.91051    -8879.272    8.5711783 
  162000    501.62932    23364.392    110.87085    132.72887   -8877.4733    8.5779415 
[...]
  114000    2426.7563    26857.285    5066.1407    642.10883   -7893.3265    7.4623474 
  115000    2392.4841    26968.183   -1580.1204    633.04058   -7893.7466    7.4316606 
  116000    2323.0845     26913.69    1544.6323    614.67774   -7889.9627    7.4467077 
  117000    2390.6128    26924.253    3730.2365    632.54544   -7875.5232    7.4437865 
  118000    2460.5057    26915.748    5975.8514    651.03878   -7877.9522    7.4461385 
  119000    2398.0709    26861.406    2668.8167    634.51882   -7901.4899    7.4612023 
  120000    2313.5408    27014.644     -8758.05    612.15251   -7903.1309    7.4188794 
  121000    2378.3275    26937.128   -1130.9231    629.29478   -7903.6519    7.4402283 
  122000    2320.1849    26987.701   -4313.4204    613.91051     -7896.02    7.4262859 
  123000    2349.3926    27131.434   -3916.7418    621.63876   -7855.8434    7.3869442 
  124000    2477.7024    26850.124    2480.0756    655.58895   -7906.0993    7.4643374 
  125000    2451.3387    26891.573    747.46777    648.61322   -7905.6201    7.4528324 
  126000    2357.5009    26978.906   -373.84186    623.78416   -7883.9296    7.4287069 
  127000    2436.1963    26901.493   -1215.9884    644.60661   -7908.7947    7.4500842 
  128000    2475.7838    26869.858    1125.0888    655.08131   -7909.9259    7.4588555 
  129000      2406.68    26873.948   -1949.4041    636.79674   -7913.1043    7.4577202 
  130000    2364.3244    27005.218   -3186.3265    625.58963   -7891.4448    7.4214689 
  131000    2413.4014    27103.645   -4194.8669    638.57518   -7878.1324     7.394518 
  132000    2361.7427    27009.439   -1540.9313    624.90654   -7881.0073     7.420309 
  133000    2307.2121    26872.657    408.79955    610.47799   -7900.9447    7.4580785 
  134000    2373.0774    27044.228   -1991.0453    627.90564   -7877.2393    7.4107638 
  135000    2384.9502    26962.382    1591.5191    631.04712   -7881.1929    7.4332595 
  136000    2519.1372    26815.828    5122.0014    666.55242   -7901.4433    7.4738841 
  137000     2442.779    26888.293    6488.4049    646.34837   -7877.6583    7.4537414 
  138000    2396.0359     26987.24   -2807.5289    633.98037   -7894.7758     7.426413 
  139000    2462.9808     26906.94    3867.2712    651.69369   -7881.8856    7.4485758 
  140000    2442.4014    27026.537   -874.83738    646.24847   -7882.0522    7.4156148 
  141000     2353.527    27001.599   -4452.4079    622.73269   -7893.6167    7.4224636 
  142000    2332.1691    26894.935    759.98697    617.08149   -7894.0834    7.4519007 
  143000    2359.0276    26854.358    2708.1719    624.18813   -7901.5567    7.4631606 
  144000    2366.1459    26916.849    3983.6983    626.07161   -7878.8882    7.4458338 
  145000    2440.9794    27019.864   -1998.9483    645.87221   -7884.7246    7.4174461 
  146000    2340.5294    27084.088    -3401.989    619.29358   -7872.1153    7.3998573 
  147000    2268.9277    27022.216   -2273.4004     600.3481   -7874.5497    7.4168006 
  148000    2413.0464    26829.599    6930.1167    638.48125   -7893.6747    7.4700478 
  149000    2381.9781    26877.666    6106.1232    630.26071    -7878.274    7.4566888 
  150000    2426.0819    26944.867    1444.5476     641.9304    -7882.989    7.4380914 
  151000    2397.3227    26929.431    1124.5533    634.32083   -7887.5443    7.4423551 
  152000    2399.7997    26982.348   -3221.7033    634.97624   -7895.8246    7.4277594 
  153000     2349.531    27002.407   -2387.8323    621.67538   -7892.1679    7.4222416 
  154000    2426.2625    26874.988    3433.0678    641.97819   -7894.7345    7.4574316 
  155000    2405.8895    26979.168    4479.6993    636.58759   -7863.3838    7.4286349 
  156000    2421.9656    26994.943   -2667.1139    640.84123   -7893.3644    7.4242937 
  157000    2434.7892    26892.975   -1123.1989    644.23431   -7910.2797    7.4524439 
  158000    2439.0147    26874.496   -352.04832    645.35235   -7912.9147    7.4575681 
  159000    2363.9389    26899.828   -2040.6129    625.48763   -7905.5654    7.4505452 
  160000    2454.1056    26842.423    3540.8865    649.34534   -7897.9937    7.4664791 
  161000    2430.4137    26779.611    6810.7199    643.07656   -7909.7632    7.4839918 
  162000    2446.3662    26996.327   -1098.2736    647.29754   -7891.1925     7.423913 
  163000     2343.854    26890.612    1004.7454    620.17326   -7893.4932    7.4530988 
  164000    2325.5919    26933.949   -767.30659    615.34119   -7899.0239    7.4411066 
  165000    2483.6886     26965.28   -2330.2986    657.17287   -7898.6607    7.4324607 
  166000    2407.4998    27209.893   -8885.1009    637.01365   -7865.4692    7.3656441 
  167000    2397.6936      27072.2   -8600.1752    634.41899   -7895.1895    7.4031067 
  168000    2408.1967    27052.786   -793.03229    637.19805    -7860.852    7.4084196 
  169000    2348.9609    26850.217    815.43175    621.52451   -7909.7325    7.4643116 
  170000    2495.2147    26749.225    8146.4649    660.22263   -7902.1543    7.4924932 
  171000    2470.4722    26893.864    2003.3296    653.67586   -7891.1743    7.4521976 
  172000    2433.0468    26977.693   -4983.5901    643.77327   -7907.3688    7.4290409 
  173000    2423.9023    27081.135   -4555.1338    641.35369   -7883.0136    7.4006642 
  174000    2318.4749    27035.898   -6922.4958    613.45806   -7896.1095    7.4130472 
  175000    2434.6477     26965.88    1710.0586    644.19685   -7879.1816    7.4322954 
  176000    2431.0926    26934.525    839.39494     643.2562   -7896.2459    7.4409474 
  177000    2399.7647    27044.623   -6336.7117    634.96698   -7901.5768    7.4106555 
  178000    2332.4787    26952.103   -1030.7725    617.16341   -7889.6382    7.4360945 
  179000    2443.2869    26988.574    263.88922    646.48277    -7882.988    7.4260457 
  180000    2454.6138    27027.602   -908.39887    649.47981   -7882.1738    7.4153225 
  181000    2400.2551    26745.253    9640.7795    635.09674   -7897.7945    7.4936059 
  182000      2427.83    26885.896    1311.3169    642.39294   -7899.0183     7.454406 
  183000    2381.8345    26825.256    551.47444    630.22272   -7917.7311    7.4712572 
  184000    2418.3866     26833.34    6802.5084    639.89425    -7889.042    7.4690064 
  185000    2446.1589    26820.385     2493.921    647.24269   -7908.0982     7.472614 
  186000     2365.467    27075.249   -8472.7039    625.89197   -7890.4579    7.4022732 
  187000    2376.4843    26983.096   -2115.4765     628.8071   -7888.4157    7.4275535 
  188000    2375.4776    26845.695    5437.5091    628.54071   -7890.2861    7.4655689 
  189000    2388.7257    26993.267    1688.3964    632.04612   -7869.9094    7.4247546 
  190000    2406.3954    27090.641   -3120.8379    636.72143   -7867.4935    7.3980672 
  191000    2358.8857    26965.751   -2610.5836    624.15059   -7892.4172     7.432331 
  192000    2405.7229    27040.758   -1273.0982    636.54349    -7877.222    7.4117147 
  193000    2515.1011    26881.823    4725.5218    665.48449   -7895.8044    7.4555354 
  194000    2425.3444    26771.213    6438.8453    641.73526   -7914.7911    7.4863394 
  195000    2444.0761    26791.296    4103.2535    646.69157   -7906.1843    7.4807276 
  196000    2487.1139    27059.529   -504.96754    658.07919   -7868.9241    7.4065733 
  197000    2412.3131    26977.499   -3233.0864    638.28724   -7902.3554    7.4290943 
  198000    2398.8305    27142.687   -8947.7103    634.71979   -7881.6444    7.3838816 
  199000     2417.053    26826.554   -456.79698     639.5414    -7920.323    7.4708956 
  200000    2472.6496     26892.79    3957.4616      654.252   -7890.4337    7.4524951 
  201000    2374.9882    26794.017    3141.0592    628.41124   -7912.4068    7.4799678 
  202000    2413.9954     26931.59   -981.98732    638.73235   -7892.3424    7.4417585 
  203000    2488.9493    27004.468   -3610.4691    658.56484   -7903.2857     7.421675 
  204000    2371.5215    26884.745    454.96425    627.49396   -7899.1537    7.4547253 
  205000    2524.5194    26876.979    1189.6004    667.97652   -7912.3941    7.4568793 
  206000    2361.7267    26995.639   -1073.6242    624.90229   -7884.1831    7.4241023 
  207000    2365.3796    26965.619   -8366.9688    625.86883   -7919.7901    7.4323673 
  208000    2372.0164     26849.87    2558.6531    627.62491   -7904.2537     7.464408 
  209000    2417.3001    26927.498    993.01309    639.60676   -7891.5868    7.4428892 
  210000    2310.2051    27128.492   -6340.2871    611.26991   -7871.7693    7.3877451 
  211000    2440.4567    26955.905   -1123.2299     645.7339   -7892.5864    7.4350457 
  212000    2406.9828    26881.112    2875.7837    636.87687   -7890.8851    7.4557328 
  213000    2398.7086     27107.89   -4854.0473    634.68754   -7874.5793    7.3933598 
  214000    2450.8655    27254.297   -7481.0495    648.48802   -7854.8934    7.3536436 
  215000    2418.2432    27022.211   -1723.2174    639.85632   -7884.3966     7.416802 
  216000    2420.5132    26741.775    8653.1566    640.45695   -7908.7452    7.4945804 
  217000    2351.4235    26991.084    1047.1193    622.17611   -7871.5351    7.4253553 
  218000    2429.1263    27117.995   -3902.0334    642.73592   -7868.5275    7.3906049 
  219000    2454.1986    26952.631    -686.7591    649.36995   -7892.1238    7.4359488 
  220000    2387.8897    26792.274    6425.4776     631.8249    -7898.213    7.4804544 
  221000    2424.4895    26994.626     1455.259    641.50905   -7870.9639     7.424381 
  222000    2452.2933    27148.413    -8368.366     648.8658   -7881.1738    7.3823243 
  223000    2429.6396    26996.008    332.88212    642.87173   -7877.5526    7.4240008 
  224000    2381.9344    26754.223    4399.5184    630.24917   -7915.8599    7.4910936 
  225000    2441.9935     26846.74    3206.2048    646.14054   -7903.6148    7.4652782 
  226000     2380.763    26792.469    5630.3549    629.93922   -7903.1332       7.4804 
  227000    2428.3711    26929.812   -2935.3131    642.53612   -7904.8429    7.4422497 
  228000    2363.1385    26985.994    595.89361    625.27584    -7880.494    7.4267556 
  229000     2451.521     26875.84     2562.778    648.66146   -7898.4272    7.4571953 
  230000    2438.3923    26823.555    7331.5235    645.18768    -7893.598    7.4717309 
  231000    2378.8343    26986.089   -5246.4666     629.4289   -7907.9127    7.4267296 
  232000     2392.637    27005.111   -4063.6787    633.08102   -7895.4264    7.4214984 
  233000    2407.9154     26933.89    4962.6098    637.12361   -7865.1584    7.4411229 
  234000    2417.2621    26875.867    3591.6155    639.59672   -7894.2637    7.4571877 
  235000    2375.5819    26795.708    3304.1133    628.56832   -7904.3572     7.479496 
  236000     2397.157    26879.847    4636.4713      634.277   -7888.7788    7.4560837 
  237000    2412.8338    27070.161   -4076.6915      638.425    -7879.829    7.4036645 
  238000    2418.7946    26978.887   -1107.6082     640.0022   -7885.9798    7.4287123 
  239000     2395.739    27076.299   -8054.7094     633.9018   -7898.7114     7.401986 
  240000     2351.214    27055.147   -3098.3096     622.1207   -7876.0036     7.407773 
  241000    2389.3718    26958.892   -3855.3156    632.21706   -7907.9876     7.434222 
  242000    2312.3203    26833.673    1419.4656    611.82959   -7905.5106    7.4689137 
  243000    2374.2258    26900.553    870.34982     628.2095   -7888.6147    7.4503444 
  244000    2433.3881    26887.809    454.24484    643.86358   -7902.3359    7.4538757 
  245000    2293.5352    26959.346    2577.1656    606.85914   -7873.7543    7.4340968 
  246000    2364.9503    26888.633    213.45053    625.75524   -7907.0779    7.4536472 
  247000     2371.602     26853.77    5169.2784    627.51526   -7897.6229     7.463324 
  248000    2410.8214    27109.378   -1316.8545    637.89255   -7859.7751    7.3929539 
  249000    2428.7948    26998.428   -2615.8364    642.64823   -7894.6331    7.4233355 
  250000    2482.9782    26954.921    4632.3407     656.9849   -7869.8162     7.435317 
Loop time of 495.614 on 8 procs for 250000 steps with 2048 atoms

Performance: 43.582 ns/day, 0.551 hours/ns, 504.425 timesteps/s
116.2% CPU use with 4 MPI tasks x 2 OpenMP threads

MPI task timing breakdown:
Section |  min time  |  avg time  |  max time  |%varavg| %total
---------------------------------------------------------------
Pair    | 279.84     | 282.52     | 286.13     |  14.2 | 57.00
Neigh   | 4.905      | 5.0064     | 5.0496     |   2.6 |  1.01
Comm    | 19.825     | 23.484     | 25.975     |  47.9 |  4.74
Output  | 0.0059573  | 0.010581   | 0.012127   |   2.6 |  0.00
Modify  | 183.21     | 183.64     | 183.98     |   2.0 | 37.05
Other   |            | 0.9542     |            |       |  0.19

Nlocal:        512.000 ave         519 max         502 min
Histogram: 1 0 0 0 1 0 0 0 0 2
Nghost:        2615.50 ave        2627 max        2605 min
Histogram: 1 1 0 0 0 0 0 1 0 1
Neighs:        35719.8 ave       36682 max       34702 min
Histogram: 2 0 0 0 0 0 0 0 0 2

Total # of neighbors = 142879
Ave neighs/atom = 69.765137
Neighbor list builds = 5176
Dangerous builds = 0


# fix 132 all momentum 100 linear 1 1 1 angular
fix out_file_1 all print 1000 "$(step) $(temp) $(press) ${sys_press} $(vol) $(ke) $(pe) $(density)" file one_phase_heating_$T_.txt screen no title  "step temp press pressGiga vol ke pe density"
fix out_file_1 all print 1000 "$(step) $(temp) $(press) ${sys_press} $(vol) $(ke) $(pe) $(density)" file one_phase_heating_2400_.txt screen no title  "step temp press pressGiga vol ke pe density"

# dump 3 all custom 1000 traj_npt_new.lammpstrj id type x y z
run 50000
Last active /omp style is pair_style eam/alloy/omp
Per MPI rank memory allocation (min/avg/max) = 4.354 | 4.354 | 4.354 Mbytes
Step Temp Volume Press KinEng PotEng Density 
  250000    2482.9782    26954.921    4632.3407     656.9849   -7869.8162     7.435317 
  251000    2422.4804    26920.423    1580.7786    640.97745   -7897.2587    7.4448454 
  252000    2401.2297    27015.481   -1890.6831    635.35461   -7878.4145    7.4186496 
  253000    2457.1137    26757.689    5452.8707    650.14127   -7918.6711    7.4901231 
  254000    2351.1336    27062.231   -2041.0939     622.0994   -7872.5835    7.4058339 
  255000    2371.9608    26984.478   -356.80715    627.61019    -7884.826    7.4271729 
  256000    2401.6146    26820.913    2678.1272    635.45646   -7907.7915     7.472467 
  257000    2504.8046    26846.001    7599.4221    662.76008   -7890.5857    7.4654839 
  258000    2400.5416     26744.06    5867.0019    635.17254   -7915.8912    7.4939403 
  259000    2362.7401    26948.498   -1306.0196    625.17044   -7895.1335    7.4370893 
  260000    2438.2804    27105.644   -9943.5961    645.15805   -7895.8888    7.3939726 
  261000    2397.4392    26900.777    3578.7574    634.35167    -7887.689    7.4502824 
  262000    2443.9145    26907.415    5207.0124    646.64882   -7884.3371    7.4484445 
  263000    2421.3926    26890.882      140.756    640.68962   -7909.7855    7.4530238 
  264000    2385.1264    26949.791   -299.22226    631.09376   -7891.6963    7.4367324 
  265000    2448.7429    26877.666   -518.81956    647.92639   -7910.3617    7.4566887 
  266000    2372.1046    26838.703   -242.30709    627.64825   -7913.1468    7.4675139 
  267000    2360.7271    26950.298   -1252.1944     624.6378    -7889.169    7.4365926 
  268000    2370.0914    26816.884    7171.6934    627.11556    -7885.981    7.4735897 
  269000     2456.475    26871.786    5116.5742    649.97228   -7884.6174    7.4583201 
  270000    2338.8827    26923.007    6747.4902    618.85789    -7865.508    7.4441308 
  271000    2432.0228    26975.284    1883.9178    643.50234   -7874.1789    7.4297044 
  272000    2366.6146    26927.697    290.99779    626.19562   -7894.5638    7.4428343 
  273000    2347.2984    26971.611   -2147.4471    621.08464   -7889.4245    7.4307163 
  274000    2430.3689    26942.339   -1195.0064    643.06473   -7899.2838    7.4387893 
  275000    2446.0615    26962.035   -1015.1568     647.2169   -7890.0535    7.4333554 
  276000    2415.8094    27107.717   -4718.9917    639.21232   -7873.6639    7.3934071 
  277000    2378.6632    26944.535   -4036.9216    629.38362   -7906.1185     7.438183 
  278000    2390.1131    27101.647   -9884.6334    632.41322   -7895.7719    7.3950631 
  279000    2404.1819    26828.611    2572.8648    636.13576   -7909.1219    7.4703229 
  280000    2365.5897    26923.386    4041.2112    625.92443   -7877.4099    7.4440259 
  281000    2372.6405    26900.615    2759.2556    627.79004   -7888.8151    7.4503273 
  282000    2317.0939    26911.709   -3192.8396    613.09266   -7906.0042    7.4472561 
  283000    2447.9781    27061.969   -5086.0944    647.72403   -7882.7744    7.4059055 
  284000    2375.3127    26830.036     5999.161     628.4971    -7896.807    7.4699262 
  285000    2402.5686    26908.804    863.12436    635.70889   -7891.0482    7.4480599 
  286000    2389.0087    26957.589     1440.225    632.12098    -7881.214    7.4345812 
  287000    2413.6768     27019.28   -2433.7242    638.64806   -7885.2809    7.4176066 
  288000    2418.2146    27010.712   -2111.0115    639.84874   -7886.1289    7.4199594 
  289000    2343.8844    26756.429    1667.0965     620.1813   -7932.2614     7.490476 
  290000    2375.3847    26949.405   -1086.7305    628.51614   -7891.5631    7.4368391 
  291000    2400.1563    27173.476   -7134.5367     635.0706   -7869.2558    7.3755152 
  292000    2260.7158    26923.931     1369.447    598.17526    -7886.875    7.4438753 
  293000    2327.7485    26891.937   -1257.6488    615.91182   -7908.6607    7.4527314 
  294000    2370.3867    26845.311    4284.1118    627.19368   -7889.7323    7.4656757 
  295000    2415.8307    26801.569    4240.4798    639.21798   -7910.8144    7.4778602 
  296000    2433.3879    27019.238    1033.6945    643.86354   -7873.5131    7.4176179 
  297000    2396.6625    27057.882   -4682.1085    634.14616   -7881.3541    7.4070242 
  298000    2395.4106    26815.656    3261.6378    633.81491   -7909.2786     7.473932 
  299000    2388.9401    26919.452    3594.2571    632.10284   -7880.9669    7.4451139 
  300000    2418.0858    27030.096   -2895.4286    639.81467   -7882.8419    7.4146384 
Loop time of 99.5055 on 8 procs for 50000 steps with 2048 atoms

Performance: 43.415 ns/day, 0.553 hours/ns, 502.485 timesteps/s
115.3% CPU use with 4 MPI tasks x 2 OpenMP threads

MPI task timing breakdown:
Section |  min time  |  avg time  |  max time  |%varavg| %total
---------------------------------------------------------------
Pair    | 56.224     | 56.912     | 57.706     |   7.3 | 57.20
Neigh   | 0.97811    | 0.99462    | 1.0048     |   1.0 |  1.00
Comm    | 4.0359     | 4.8415     | 5.4837     |  24.2 |  4.87
Output  | 0.0011716  | 0.001885   | 0.0021283  |   0.9 |  0.00
Modify  | 36.476     | 36.561     | 36.631     |   0.9 | 36.74
Other   |            | 0.1942     |            |       |  0.20

Nlocal:        512.000 ave         518 max         504 min
Histogram: 1 0 0 0 0 1 0 1 0 1
Nghost:        2610.50 ave        2624 max        2596 min
Histogram: 1 0 0 1 0 0 0 1 0 1
Neighs:        35546.8 ave       37140 max       34541 min
Histogram: 1 0 2 0 0 0 0 0 0 1

Total # of neighbors = 142187
Ave neighs/atom = 69.427246
Neighbor list builds = 1033
Dangerous builds = 0

unfix temp
unfix out_file_1
# unfix 1
# # clear
write_data after_heating_$T.in
write_data after_heating_2400.in
System init for write_data ...
Last active /omp style is pair_style eam/alloy/omp
write_restart after_heating_$T.lmp
write_restart after_heating_2400.lmp
System init for write_restart ...
Last active /omp style is pair_style eam/alloy/omp
next loopVar
# # # thermo_modify flush yes
jump in.lmp ensemble



# write_data after_cooling_$T_.in
# write_restart after_cooling_$T.lmp






















Total wall time: 3:49:12
