LAMMPS data file via write_data, version 19 Mar 2020, timestep = 10000

2048 atoms
2 atom types

-1.3438876811545697e-01 2.3237604768113702e+01 xlo xhi
-1.3438876811545697e-01 2.3237604768113702e+01 ylo yhi
-2.6877753623091394e-01 4.6475209536227403e+01 zlo zhi

Masses

1 58.71
2 26.982

Atoms # atomic

147 1 2.6963162317841669e+00 2.9740994714507702e+00 2.6122125275789458e+00 0 0 0
2 2 1.1905483554426186e+00 1.4198127063443606e+00 1.0944681579935798e+00 0 0 0
18 2 1.3242659788278608e+00 4.4059116439037362e+00 1.0996751991828833e+00 0 0 0
4 2 4.3796546770083724e+00 1.6231107159571769e+00 1.3044478897061815e+00 0 0 0
20 2 4.3402890453157319e+00 4.5162002161618009e+00 1.2797037151675590e+00 0 0 0
131 1 2.6601735890027816e+00 1.7107260969569166e-01 2.5041496859610706e+00 0 0 0
19 1 2.9074407414758823e+00 3.0516293760225812e+00 -7.4354099994472872e-02 0 0 0
2021 1 2.9954179503267486e+00 2.6504649116657975e-01 3.4938113785135616e-02 0 2 1
149 1 5.6467662427673462e+00 2.8633944696076026e+00 2.8313799548620096e+00 0 0 0
151 1 8.7098260138828980e+00 2.8376386598533916e+00 2.5152680974818966e+00 0 0 0
6 2 7.1623593626528290e+00 1.4720659865500283e+00 1.1447317738596583e+00 0 0 0
22 2 6.9686049774652110e+00 4.2706557607141260e+00 1.0565957933296692e+00 0 0 0
5 1 5.6178604244290602e+00 8.5161644895531990e-02 -2.6224617182784904e-01 0 0 0
133 1 5.6572912975152372e+00 -3.7524769558453630e-02 2.8577974928213328e+00 0 0 0
1647 1 8.7840503428209544e+00 2.9945535319824672e+00 -1.4518774643471108e-01 1 1 1
101 1 5.4560278591250864e+00 3.1316396342706421e+00 -1.9847328858246394e-01 0 0 0
153 1 1.1480687061704748e+01 2.9027239063973562e+00 2.7707423589070412e+00 0 0 0
8 2 1.0020860092822401e+01 1.3711191384726591e+00 1.2575306198718406e+00 0 0 0
24 2 1.0040603653552603e+01 4.3851893442266201e+00 1.4398480698555407e+00 0 0 0
10 2 1.3142338042666792e+01 1.4437289387011418e+00 1.3290855445158198e+00 0 0 0
26 2 1.3235873104423883e+01 4.2865303614957337e+00 1.0965803174006574e+00 0 0 0
9 1 1.1530023735047076e+01 1.1445183812293974e-01 -1.0047052458288269e-01 0 0 0
25 1 1.1444762415796378e+01 2.7017711841051644e+00 -1.4494782598188014e-01 0 0 0
155 1 1.4538851948817321e+01 2.8099075447405193e+00 2.6302362325650592e+00 0 0 0
157 1 1.7560703953431052e+01 2.6297649011124209e+00 2.6526699443965356e+00 0 0 0
12 2 1.5831713866908411e+01 1.2291939783758956e+00 1.0887362329092876e+00 0 0 0
28 2 1.6116374065844983e+01 4.2021003213427424e+00 1.4057863726256006e+00 0 0 0
29 1 1.7319707064523399e+01 2.8956913791657874e+00 -7.6690719898240389e-02 0 0 0
2039 1 1.4519839715545883e+01 2.8538426430086625e+00 -2.5599983292662482e-01 0 0 1
145 1 2.3031220338368257e+01 2.8049278734185918e+00 2.5433596804130043e+00 -1 0 0
129 1 2.3139181221698774e+01 -7.3855878974152522e-02 2.6494258096798942e+00 -1 0 0
159 1 2.0333424093764350e+01 2.7570882398017056e+00 2.5822440249467631e+00 0 0 0
14 2 1.8988969556562548e+01 1.2673340468470147e+00 1.0627949707361102e+00 0 0 0
30 2 1.8901959846576716e+01 4.3256100811992013e+00 1.3266762688974725e+00 0 0 0
16 2 2.1790459813774092e+01 1.2124679703701160e+00 9.9283961796700582e-01 0 0 0
32 2 2.1946768120901243e+01 4.3252823163214824e+00 1.1476895382106829e+00 0 0 0
160 2 2.1717146826331565e+01 4.2104608314363219e+00 3.9256527313526615e+00 0 0 0
51 1 2.0506467918108264e+01 2.9642465661003672e+00 -2.3217875266746041e-02 -1 0 0
161 1 -1.1882690933566036e-01 5.7866357075886343e+00 2.7251233353620350e+00 0 0 0
163 1 2.6719291091934720e+00 5.7083713612831239e+00 2.8752998585920575e+00 0 0 0
179 1 2.8646307466295311e+00 8.8123022865509117e+00 2.7365774484627017e+00 0 0 0
34 2 1.2200181436254443e+00 7.2631844415996731e+00 1.3462641110215949e+00 0 0 0
36 2 4.1728271336372860e+00 7.2673857134601922e+00 1.2628378779220499e+00 0 0 0
35 1 2.8623613974076321e+00 5.8668867487496339e+00 -1.6318619890561376e-01 0 0 0
165 1 5.6783571900687777e+00 5.8549936159617522e+00 2.7348192465619205e+00 0 0 0
181 1 5.5735944303964073e+00 8.8264481864882818e+00 2.6733780235096951e+00 0 0 0
167 1 8.3675281845050762e+00 5.6811482837143563e+00 2.8001511902764458e+00 0 0 0
183 1 8.5282164947940409e+00 8.5136221040214597e+00 2.7943497208043655e+00 0 0 0
38 2 7.1144438130708263e+00 7.3703940444843381e+00 1.2942277024588329e+00 0 0 0
39 1 8.6891747274841080e+00 5.7074331721268718e+00 -1.7867120079955001e-02 0 0 0
53 1 5.7699311755501723e+00 8.8109823887489291e+00 -1.4806496823258397e-01 0 0 0
1583 1 8.5435569956711923e+00 8.4439762881718838e+00 3.4621274592892326e-02 2 0 1
41 1 1.1555930612139807e+01 5.7001221260167094e+00 -8.5410556266295151e-02 0 0 0
169 1 1.1702212905790379e+01 5.9359406310192533e+00 2.7632031182147565e+00 0 0 0
185 1 1.1477399991838572e+01 8.6710034439586128e+00 2.6095216955850424e+00 0 0 0
40 2 1.0014509100301947e+01 7.2046228299093311e+00 1.2680119786827664e+00 0 0 0
42 2 1.3019633922588163e+01 7.1759125536241903e+00 1.2481303982001333e+00 0 0 0
57 1 1.1474290594731022e+01 8.7425362842188825e+00 -1.7928550946870175e-01 0 0 0
171 1 1.4558994233761974e+01 5.7058860462001304e+00 2.6847002153377977e+00 0 0 0
59 1 1.4322317218487489e+01 8.6579642917410862e+00 -2.1800878819883496e-01 0 0 0
187 1 1.4433095805094220e+01 8.6520920670789110e+00 2.5330673906759515e+00 0 0 0
45 1 1.7529012291760978e+01 5.7005096154457364e+00 -1.6185066082904287e-01 0 0 0
173 1 1.7565785239926015e+01 5.6949629085228608e+00 2.6617546521762825e+00 0 0 0
189 1 1.7269285075481644e+01 8.5950982064660124e+00 2.8212495267087854e+00 0 0 0
44 2 1.5845117176446870e+01 7.0013511898234855e+00 1.3043025717315082e+00 0 0 0
43 1 1.4530539832020214e+01 5.7286500968343743e+00 -1.8939682297388866e-01 0 0 0
1473 1 1.7387015913991011e+01 8.6332822383820726e+00 5.8675934193959112e-02 0 0 1
177 1 2.3205346949950908e+01 8.7728451469667146e+00 2.8205605315529381e+00 -1 0 0
175 1 2.0400777921376374e+01 5.9493384179819939e+00 2.8460176532252985e+00 0 0 0
191 1 2.0203311281246862e+01 8.5232564455275330e+00 2.6860435880957678e+00 0 0 0
46 2 1.8806378346052458e+01 7.1624274835781270e+00 1.2437550781036504e+00 0 0 0
48 2 2.1900762204511391e+01 7.2657524763805243e+00 1.3394283860437408e+00 0 0 0
49 1 2.3215510384497886e+01 8.4937126536437848e+00 -2.5836971528559877e-01 -1 0 0
47 1 2.0345722667258464e+01 5.5301388028046610e+00 -2.5000422310129494e-01 0 0 0
63 1 2.0178603562784939e+01 8.6374239983412266e+00 -2.6402190472291348e-01 0 0 0
195 1 2.6525822163899431e+00 1.1516162523452266e+01 2.5659417223923753e+00 0 0 0
50 2 1.3139454822149499e+00 1.0100354931693452e+01 1.1594429787916227e+00 0 0 0
66 2 1.3110172565832294e+00 1.3147135877322471e+01 1.3223082670262607e+00 0 0 0
52 2 4.2057898632039752e+00 1.0148353607457700e+01 1.1832615142790750e+00 0 0 0
68 2 4.3041930012519538e+00 1.2933744325710622e+01 1.1440645858288230e+00 0 0 0
1725 1 -1.0007763463194180e-01 1.1707948310134558e+01 -1.1997129970314871e-01 1 -2 1
197 1 5.6134359550912691e+00 1.1561080362728896e+01 2.7951761990503106e+00 0 0 0
199 1 8.6496992252947305e+00 1.1486045825965681e+01 2.6638789576397417e+00 0 0 0
54 2 7.1611005640478540e+00 1.0237272500565812e+01 1.2073476918929498e+00 0 0 0
70 2 7.1729373373160987e+00 1.2925118914542027e+01 1.3157634088119070e+00 0 0 0
71 1 8.7369497542170667e+00 1.1744556146318612e+01 -1.8575351918262786e-01 0 0 0
1939 1 5.5733217485509448e+00 1.1284085795280593e+01 -6.8557543216765993e-02 1 0 1
201 1 1.1408313725113469e+01 1.1453716212108391e+01 2.7944310664119310e+00 0 0 0
56 2 9.8984845320851633e+00 1.0032877508814925e+01 1.2389766253897792e+00 0 0 0
72 2 1.0157862275497369e+01 1.3076258913661997e+01 1.3382355723911719e+00 0 0 0
58 2 1.2739049473893374e+01 1.0199601383565948e+01 1.2660011972407126e+00 0 0 0
74 2 1.2971502268402990e+01 1.2996714328970693e+01 1.1068103398340783e+00 0 0 0
203 1 1.4382204834441245e+01 1.1707365024419682e+01 2.4981703927412138e+00 0 0 0
205 1 1.7248901556981270e+01 1.1621745372514793e+01 2.8485207423438217e+00 0 0 0
60 2 1.5976735664236656e+01 1.0105297604766482e+01 1.3558298397941286e+00 0 0 0
76 2 1.5999229051420770e+01 1.3001317012317632e+01 1.0696613697872295e+00 0 0 0
77 1 1.7482333228379023e+01 1.1208848667617817e+01 -1.2110690620910264e-01 0 0 0
65 1 1.4684609410158730e+01 1.1477300416700709e+01 -1.2070426108010002e-01 0 -1 0
193 1 2.3164689787359308e+01 1.1550524993644260e+01 2.6743938531294988e+00 -1 0 0
207 1 2.0312772440343448e+01 1.1593894256591074e+01 2.5508584794673919e+00 0 0 0
62 2 1.9001920151620709e+01 1.0061679172547883e+01 1.2811921121444498e+00 0 0 0
78 2 1.8866198718363307e+01 1.2970901034241063e+01 1.2512033821320911e+00 0 0 0
64 2 2.1651175782408391e+01 1.0108803701211725e+01 1.1522467219195345e+00 0 0 0
80 2 2.1905905275971531e+01 1.2876475891049010e+01 1.1160833648528969e+00 0 0 0
211 1 2.7717851169208183e+00 1.4687141718071809e+01 2.4102382724250710e+00 0 0 0
227 1 2.7108442460402711e+00 1.7402797803772216e+01 2.4898199259043965e+00 0 0 0
82 2 1.3264826252553363e+00 1.5972443124200648e+01 1.0627571171857986e+00 0 0 0
84 2 4.0338452310238866e+00 1.6008516956837980e+01 1.0783207786185529e+00 0 0 0
212 2 4.1169454734636455e+00 1.5781732352789659e+01 3.8956683795630767e+00 0 0 0
1777 1 2.8977447551007458e+00 1.7526039717981664e+01 -1.8251844600002443e-01 0 0 1
1985 1 2.8324856835499745e+00 1.4303953386308086e+01 -2.6379657954352487e-02 0 -1 1
213 1 5.6328212702491278e+00 1.4360341174766646e+01 2.6746055224064937e+00 0 0 0
229 1 5.7642552667199745e+00 1.7202865763862270e+01 2.6566686574005232e+00 0 0 0
215 1 8.5994904254599813e+00 1.4421146872368045e+01 2.6519228517911357e+00 0 0 0
103 1 8.4551863643006122e+00 1.7487036831591318e+01 -5.9216674519529860e-02 0 0 0
231 1 8.5745924474510939e+00 1.7246965060237802e+01 2.7081013621247458e+00 0 0 0
86 2 7.1103876423753363e+00 1.5805273007908390e+01 1.3243350235204401e+00 0 0 0
87 1 8.6492348788517770e+00 1.4505979340857365e+01 -2.1200640905310392e-01 0 0 0
85 1 5.6646158626703693e+00 1.4505083099110562e+01 -2.4605827090640756e-01 0 0 0
217 1 1.1443807345767731e+01 1.4495397143827399e+01 2.6590952012959201e+00 0 0 0
233 1 1.1407666639616121e+01 1.7409501317067644e+01 2.7472138198730196e+00 0 0 0
88 2 9.8995163734457172e+00 1.6088934109458368e+01 1.4013685332543786e+00 0 0 0
90 2 1.2981891080174714e+01 1.5960247047073199e+01 1.3244205217552332e+00 0 0 0
105 1 1.1290062139026389e+01 1.7452413227460120e+01 7.4556869401361248e-02 0 0 0
89 1 1.1472462486432779e+01 1.4541854042728909e+01 -2.2148591792423383e-01 0 0 0
1613 1 1.4345111351620570e+01 1.4498045690790898e+01 1.6269212670965649e-02 0 -1 1
219 1 1.4288368998054048e+01 1.4356117074957838e+01 2.5602350286640720e+00 0 0 0
107 1 1.4636187843983915e+01 1.7494583305627334e+01 -2.4396562219341555e-01 0 0 0
235 1 1.4634170821807748e+01 1.7364452886533943e+01 2.6597922259302602e+00 0 0 0
221 1 1.7545120556071645e+01 1.4485684429268288e+01 2.6513365759796690e+00 0 0 0
237 1 1.7576307106197628e+01 1.7317085366981505e+01 2.6642695392767153e+00 0 0 0
92 2 1.6003294993079429e+01 1.5845413993865730e+01 1.1260202654422218e+00 0 0 0
109 1 1.7431548865926686e+01 1.7481248518762456e+01 -1.0721065174869249e-01 0 0 0
225 1 2.3117467888909268e+01 1.7296103052071963e+01 2.6247255694791987e+00 -1 0 0
209 1 2.3087553325822430e+01 1.4623387615774879e+01 2.5225763348599886e+00 -1 0 0
223 1 2.0356073557410756e+01 1.4328711905785017e+01 2.5670036754224292e+00 0 0 0
239 1 2.0344133682316311e+01 1.7606280967368150e+01 2.6596065972056167e+00 0 0 0
94 2 1.8916680074850184e+01 1.5930825789587264e+01 9.8533153241166960e-01 0 0 0
96 2 2.1602310655142620e+01 1.6005038047111459e+01 1.1943650658600449e+00 0 0 0
81 1 2.3144084786000661e+01 1.4432711163268454e+01 -2.5189983922371895e-01 -1 0 0
1989 1 2.0113761545526692e+01 1.4307067869235176e+01 -1.6486385898996048e-01 -1 0 1
1769 1 4.4005151998565695e-03 2.3235769320829235e+01 1.4606718881253755e-03 0 -1 1
243 1 2.6291564066542472e+00 2.0208016220875461e+01 2.6273990835954510e+00 0 0 0
98 2 1.3125594745124758e+00 1.8944713820670902e+01 9.8326260200685089e-01 0 0 0
226 2 1.2277054851644253e+00 1.8697597939247995e+01 3.9610197287838904e+00 0 0 0
114 2 1.5228353052808936e+00 2.1770024235304817e+01 1.1922542435474499e+00 0 0 0
100 2 4.2294452882191411e+00 1.8997595823871958e+01 1.1757193442808977e+00 0 0 0
116 2 4.3795740355377610e+00 2.2117282005052324e+01 1.2543818862732794e+00 0 0 0
1851 1 3.0103392462594014e+00 2.0069599055697473e+01 1.0742509032816949e-01 1 -1 1
135 1 8.6770979832369264e+00 2.3091310895047279e+01 2.6048689678861163e+00 0 -1 0
245 1 5.6511756924060581e+00 2.0452555541294750e+01 2.7890838201956321e+00 0 0 0
247 1 8.4472173765603653e+00 2.0308257355603462e+01 2.6424498497603492e+00 0 0 0
102 2 7.0929816386649867e+00 1.8792174553945941e+01 1.2727880401642084e+00 0 0 0
118 2 7.0019383070571513e+00 2.1704523920748503e+01 1.2176433900442656e+00 0 0 0
1361 1 5.4965825190808228e+00 2.0445135151841804e+01 -1.1677395396567528e-01 0 -1 1
137 1 1.1483587541864473e+01 2.3236963696685972e+01 2.5809370977913133e+00 0 -1 0
121 1 1.1314651083793837e+01 2.0295257938438485e+01 -1.8598814861385610e-01 0 0 0
249 1 1.1468619163279817e+01 2.0105197286681896e+01 2.6315068328519033e+00 0 0 0
104 2 9.8187572052922647e+00 1.8914515261123881e+01 1.3567725305643838e+00 0 0 0
120 2 1.0072459892184837e+01 2.1658840929009934e+01 1.1150059403393868e+00 0 0 0
106 2 1.3029588031437148e+01 1.8808900994542181e+01 1.2316512615033739e+00 0 0 0
122 2 1.2911107647236159e+01 2.1757683573493200e+01 1.1643169220677319e+00 0 0 0
139 1 1.4306291929390593e+01 2.3124506151164297e+01 2.6560219380590588e+00 0 -1 0
141 1 1.7489018034248900e+01 2.3122828464615882e+01 2.6169413974077829e+00 0 -1 0
13 1 1.7395190442782400e+01 2.3006896684690734e+01 -1.3841401691788874e-01 0 -1 0
251 1 1.4315913791614186e+01 2.0398483345468581e+01 2.6697985219169436e+00 0 0 0
253 1 1.7448819427546290e+01 2.0269472708241668e+01 2.6730846746945609e+00 0 0 0
108 2 1.5931476393277222e+01 1.8998973037618651e+01 1.2534440672271647e+00 0 0 0
124 2 1.6019680411851372e+01 2.1750427715465147e+01 1.2206307483426733e+00 0 0 0
123 1 1.4502823758415389e+01 2.0330266828216949e+01 -2.2166991133754974e-01 0 0 0
11 1 1.4479104893361709e+01 2.3125614562500555e+01 -1.7681316234381894e-01 0 -1 0
1675 1 1.7118624430516398e+01 2.0318688664657131e+01 2.1936043847348152e-04 0 -1 1
1731 1 2.0370641463143375e+01 2.3081420466192547e+01 -1.7613470072820131e-01 -1 -1 1
143 1 2.0543574812229380e+01 2.3182552133212305e+01 2.5953098489910906e+00 0 -1 0
241 1 2.3045493455116524e+01 2.0385554247231088e+01 2.6078502990073367e+00 -1 0 0
255 1 2.0354453947445215e+01 2.0439250637095082e+01 2.7620518353925023e+00 0 0 0
110 2 1.9057380937511198e+01 1.9020404812786467e+01 1.0915741359861377e+00 0 0 0
238 2 1.8856052070044885e+01 1.8833559667068531e+01 3.9242069315581523e+00 0 0 0
126 2 1.8901961087103437e+01 2.1622182903186879e+01 1.2098576405954433e+00 0 0 0
112 2 2.1756564098547607e+01 1.8833302246599214e+01 1.1430748323946169e+00 0 0 0
128 2 2.1882114887295273e+01 2.1661467597276054e+01 9.5542221915373293e-01 0 0 0
130 2 1.4482505286283409e+00 1.2793878209618641e+00 4.0230571258301602e+00 0 0 0
146 2 1.2955150262816399e+00 4.1787840303810961e+00 4.1628514437643034e+00 0 0 0
132 2 4.1456255694696384e+00 1.4397808541394046e+00 4.2743745036832301e+00 0 0 0
148 2 4.0949208648793647e+00 4.3028795249817051e+00 4.0197902706285102e+00 0 0 0
275 1 2.9093441542778526e+00 2.7803303282029939e+00 5.7278061954969299e+00 0 0 0
258 2 1.0977672174041202e+00 1.3641893001614054e+00 7.0062869787679531e+00 0 0 0
274 2 1.2088723191869224e+00 4.0822418657626809e+00 7.0070497462519103e+00 0 0 0
260 2 4.0176520013353967e+00 1.3575142032095839e+00 7.0771577176300404e+00 0 0 0
276 2 4.1383888751410280e+00 4.3161926701077604e+00 7.1121358659941842e+00 0 0 0
259 1 2.5051721908977362e+00 -1.1877547857834057e-01 5.6234004674114964e+00 0 0 0
134 2 7.1983133896222080e+00 1.3538219548129595e+00 4.0290900521221600e+00 0 0 0
150 2 7.3538092645663093e+00 4.2291970076415009e+00 4.2096325349077475e+00 0 0 0
277 1 5.7456236766373578e+00 3.0105210381754173e+00 5.6407994796812355e+00 0 0 0
263 1 8.4301888347513874e+00 -8.9229796742477024e-02 5.6888150060534839e+00 0 0 0
279 1 8.7122117017323912e+00 2.7328760518686290e+00 5.5469402922789817e+00 0 0 0
262 2 7.1470949965361292e+00 1.5562456297305742e+00 6.8965726417905255e+00 0 0 0
278 2 7.1466238357377616e+00 4.2885227366135963e+00 6.9897109971461724e+00 0 0 0
261 1 5.5478583902634044e+00 -1.0109170774380039e-01 5.5520043910273280e+00 0 0 0
136 2 1.0110888402729362e+01 1.3662266345862495e+00 4.0587717346954664e+00 0 0 0
152 2 1.0003941450414564e+01 4.5156579245076554e+00 4.3389160041827237e+00 0 0 0
138 2 1.2956852605136532e+01 1.2087793884041922e+00 4.1736818068362931e+00 0 0 0
154 2 1.3109712807416059e+01 4.2314631326317347e+00 4.1207492680500364e+00 0 0 0
281 1 1.1482293009354935e+01 2.7313189690706285e+00 5.5526143513642445e+00 0 0 0
264 2 1.0099623973898535e+01 1.2186288629258042e+00 7.1915463323742719e+00 0 0 0
280 2 1.0091363126748961e+01 4.2443579242797211e+00 7.2198342945458220e+00 0 0 0
266 2 1.2837060435122048e+01 1.3550238405362134e+00 7.0262626318076427e+00 0 0 0
282 2 1.3089832833871251e+01 4.1453544167211369e+00 6.9070168088146060e+00 0 0 0
140 2 1.5881725290020736e+01 1.2491589923463304e+00 4.1499702781909971e+00 0 0 0
156 2 1.6018135516790171e+01 4.3121887314587157e+00 4.0773465445027632e+00 0 0 0
267 1 1.4262533579862776e+01 -1.2832750087723693e-02 5.6128459678454394e+00 0 0 0
283 1 1.4578047166740289e+01 2.6812925163749646e+00 5.4626404719371688e+00 0 0 0
269 1 1.7212675298342379e+01 -7.5229181718787744e-02 5.9573571771307288e+00 0 0 0
285 1 1.7286547076832633e+01 2.7002225179985206e+00 5.6914366927644506e+00 0 0 0
268 2 1.5841366607008624e+01 1.4125276756086091e+00 7.1162570730824735e+00 0 0 0
284 2 1.6018256607701080e+01 4.2744052127327059e+00 7.0258754138586452e+00 0 0 0
142 2 1.8862865399604086e+01 1.2888477902474667e+00 4.1455612256219680e+00 0 0 0
158 2 1.9115070132040319e+01 4.1934398569368447e+00 4.1495184670855316e+00 0 0 0
144 2 2.1763854652675914e+01 1.2568364444056237e+00 4.0558143512362284e+00 0 0 0
257 1 2.3181359766601606e+01 -1.2295662866256404e-01 5.3929585722734465e+00 -1 0 0
273 1 2.3180480593405289e+01 2.6524813930269611e+00 5.3950116402586357e+00 -1 0 0
287 1 2.0291620823060573e+01 2.6050533949295143e+00 5.6016157832072206e+00 0 0 0
270 2 1.8959580698972250e+01 1.2425936149977823e+00 7.0814036071962647e+00 0 0 0
286 2 1.8948805941436341e+01 4.0668337720057979e+00 7.0172736904671362e+00 0 0 0
272 2 2.1780946779050087e+01 1.4117241253106496e+00 7.1721390421355391e+00 0 0 0
288 2 2.1649671679688264e+01 4.0254611218828629e+00 7.0084987522041189e+00 0 0 0
162 2 1.4796664115150413e+00 7.2288200279428096e+00 4.1127091872174075e+00 0 0 0
164 2 4.2920143047378962e+00 7.3615230797822786e+00 4.2892399423777929e+00 0 0 0
291 1 2.5722526541931838e+00 5.7714650415730615e+00 5.6507885368166209e+00 0 0 0
307 1 2.7813276883195828e+00 8.6893305945929722e+00 5.7812778224845429e+00 0 0 0
290 2 1.2876128616724132e+00 7.3159342274350641e+00 7.2201772779379150e+00 0 0 0
292 2 4.3307790358292682e+00 7.1918610999424422e+00 7.1437115193621112e+00 0 0 0
166 2 7.0019284950730052e+00 7.3050969167822410e+00 4.1412401105146071e+00 0 0 0
293 1 5.5596117387258763e+00 5.7369295201322883e+00 5.4030304807660157e+00 0 0 0
309 1 5.5928836505201689e+00 8.6483135688215942e+00 5.7751676183970320e+00 0 0 0
295 1 8.6675719860841554e+00 5.7916027990496639e+00 5.8721855437775767e+00 0 0 0
311 1 8.6072079312133312e+00 8.6194014167131279e+00 5.6715385198873465e+00 0 0 0
294 2 7.1082671294111197e+00 7.1261987579861001e+00 7.0759324066920026e+00 0 0 0
168 2 1.0328737704941757e+01 7.1205437989448530e+00 4.3186114020930368e+00 0 0 0
170 2 1.3175135832918704e+01 7.4629434061145750e+00 4.1780681110208375e+00 0 0 0
297 1 1.1873801419725888e+01 5.8413389747742217e+00 5.6138434244277962e+00 0 0 0
313 1 1.1569066878963358e+01 8.7045226999893952e+00 5.5207224049557828e+00 0 0 0
296 2 1.0338286928208898e+01 7.3186123537118934e+00 7.0878917062662765e+00 0 0 0
298 2 1.3070895252428512e+01 7.2544192745513136e+00 7.0007498348990609e+00 0 0 0
172 2 1.6010152501944575e+01 7.0310094473440721e+00 4.2407649967377363e+00 0 0 0
299 1 1.4545134838408057e+01 5.7024043760646741e+00 5.6794337842662310e+00 0 0 0
315 1 1.4552358004367605e+01 8.8940098827438483e+00 5.5167511538036464e+00 0 0 0
301 1 1.7431709343296024e+01 5.6997188905348022e+00 5.6471856075533093e+00 0 0 0
317 1 1.7358694640169531e+01 8.6309665926712853e+00 5.7120534518653878e+00 0 0 0
300 2 1.5893000372234283e+01 7.2914881498733335e+00 7.1793848085358425e+00 0 0 0
174 2 1.8793386995370664e+01 7.2097308133478712e+00 4.1774025220511257e+00 0 0 0
176 2 2.1819942054663596e+01 7.4026327629705477e+00 4.2800349322810325e+00 0 0 0
289 1 2.3207163415164263e+01 5.6280159926410276e+00 5.6142310236243036e+00 -1 0 0
305 1 2.3184098433066826e+01 8.6889487869684636e+00 5.5827384470969887e+00 -1 0 0
303 1 2.0418759334114288e+01 5.5569869863066570e+00 5.4446252436768079e+00 0 0 0
319 1 2.0264155279305232e+01 8.4890911640314943e+00 5.5763207666312580e+00 0 0 0
302 2 1.9164589761578824e+01 6.7728374583091755e+00 7.0747737842686762e+00 0 0 0
304 2 2.1900138417749609e+01 7.1593288018831185e+00 7.1299503567067388e+00 0 0 0
178 2 1.2494260054050774e+00 1.0313704540794458e+01 4.2293557650357210e+00 0 0 0
194 2 1.0171340202507919e+00 1.3191863836523567e+01 4.0878485927551278e+00 0 0 0
180 2 4.1746729855024469e+00 1.0128102247962527e+01 4.3712142727001568e+00 0 0 0
196 2 4.2197700026869596e+00 1.3079335667792767e+01 4.2360863595699847e+00 0 0 0
323 1 2.8646047309136882e+00 1.1592067488028716e+01 5.5203304580570425e+00 0 0 0
306 2 1.2971289753537427e+00 1.0258201288773364e+01 7.1188667148986564e+00 0 0 0
322 2 1.4280550389262257e+00 1.3073073232477201e+01 7.0032314696411833e+00 0 0 0
308 2 4.2071050076441736e+00 1.0231853886003087e+01 7.1774803255906185e+00 0 0 0
324 2 4.2676784212679095e+00 1.3122716065436949e+01 6.9778055331412681e+00 0 0 0
182 2 7.1591887424364993e+00 1.0232118737750552e+01 4.2960894904905702e+00 0 0 0
198 2 7.3978591851854540e+00 1.2982520532079233e+01 4.2440928541216820e+00 0 0 0
325 1 5.7430188828414810e+00 1.1574792088392607e+01 5.6706500245987499e+00 0 0 0
327 1 8.7941451400365391e+00 1.1489391184601995e+01 5.7155516611241497e+00 0 0 0
310 2 7.2346471219748629e+00 1.0153271222804619e+01 7.0762660454241031e+00 0 0 0
326 2 7.1942413555927223e+00 1.3185055825459377e+01 7.0101804598114583e+00 0 0 0
184 2 9.8443646658045143e+00 1.0127428659494326e+01 4.1162419479196668e+00 0 0 0
200 2 1.0129960914992877e+01 1.3000278297059175e+01 4.2447125785392306e+00 0 0 0
186 2 1.3111346711863805e+01 1.0227576124303958e+01 4.0718335746678305e+00 0 0 0
202 2 1.2972509932174319e+01 1.3062435963583006e+01 4.0106160567991793e+00 0 0 0
329 1 1.1367120766304733e+01 1.1461258545174836e+01 5.6767447002498015e+00 0 0 0
312 2 1.0198026976106654e+01 9.9617026758647249e+00 7.2352696442047693e+00 0 0 0
328 2 1.0105239240733148e+01 1.3042854538506045e+01 7.1235166200578117e+00 0 0 0
314 2 1.2956748291873854e+01 1.0115774635915733e+01 6.9687694487536893e+00 0 0 0
330 2 1.3034196003563038e+01 1.2961695177026705e+01 7.1547705383892026e+00 0 0 0
188 2 1.5944807829581684e+01 1.0038761811995379e+01 4.0901463410058252e+00 0 0 0
204 2 1.5754261105139701e+01 1.3019961717028343e+01 4.1260822718663732e+00 0 0 0
331 1 1.4600403028656144e+01 1.1792029904942035e+01 5.8355347737053078e+00 0 0 0
333 1 1.7332167632317763e+01 1.1683294185399907e+01 5.6711365767104800e+00 0 0 0
316 2 1.6095359830632830e+01 1.0057788877774861e+01 7.0031008673402759e+00 0 0 0
332 2 1.5995406908154226e+01 1.3175217651522413e+01 7.4413423404688155e+00 0 0 0
190 2 1.8788102665720146e+01 1.0163890624796808e+01 4.3179556701723429e+00 0 0 0
206 2 1.8893443943675685e+01 1.3064994417550093e+01 4.1779956378080128e+00 0 0 0
192 2 2.1643469080995555e+01 1.0157780959599476e+01 4.1450098557283175e+00 0 0 0
208 2 2.1744924411132793e+01 1.3052487137603851e+01 4.1366950002523390e+00 0 0 0
321 1 2.3207500460548431e+01 1.1764862911267267e+01 5.6084114716068365e+00 -1 0 0
335 1 2.0220126610233887e+01 1.1584358025495861e+01 5.7644547993580817e+00 0 0 0
318 2 1.8925830018415709e+01 9.8220088240489911e+00 6.9807968298129781e+00 0 0 0
334 2 1.8833553543502806e+01 1.2937749740793389e+01 7.3670325411706221e+00 0 0 0
320 2 2.1845451747110634e+01 1.0212271905465345e+01 6.9723238901512339e+00 0 0 0
336 2 2.1772910555127165e+01 1.3141684554724032e+01 6.8754576203802893e+00 0 0 0
210 2 1.2698359097174585e+00 1.5853418848583248e+01 4.1749798148035850e+00 0 0 0
339 1 2.8010355691374373e+00 1.4630070035756168e+01 5.4695650512271854e+00 0 0 0
355 1 2.7244006292971710e+00 1.7431378297730888e+01 5.5442820748874748e+00 0 0 0
338 2 1.2525062979233528e+00 1.6007383336752980e+01 6.9194835391892955e+00 0 0 0
340 2 4.4421326685280018e+00 1.5787053821707042e+01 6.9285759100765887e+00 0 0 0
337 1 1.1622235325369917e-01 1.4555034403435640e+01 5.5667774420225635e+00 0 0 0
214 2 7.1872299674507545e+00 1.5796750861691471e+01 4.2237500828709660e+00 0 0 0
341 1 5.8247671431521919e+00 1.4477339824020607e+01 5.4864956865166432e+00 0 0 0
357 1 5.6233832345906354e+00 1.7390797374701222e+01 5.5274009937260624e+00 0 0 0
343 1 8.8997406334957176e+00 1.4518495869334302e+01 5.6259160032276636e+00 0 0 0
359 1 8.5947314574892673e+00 1.7489327185298691e+01 5.4861964294330914e+00 0 0 0
342 2 7.1662051496742558e+00 1.6189991387015770e+01 7.0559236464317641e+00 0 0 0
216 2 1.0119001713396571e+01 1.5897132059975068e+01 4.1232652689752491e+00 0 0 0
218 2 1.2896900018473588e+01 1.5780884811273344e+01 4.1586963223778390e+00 0 0 0
345 1 1.1843474113134517e+01 1.4620713475855347e+01 5.7855929880585304e+00 0 0 0
361 1 1.1523152980807797e+01 1.7552222115854654e+01 5.4727812709449974e+00 0 0 0
344 2 1.0249904940373009e+01 1.6010485478163403e+01 7.0645050024437612e+00 0 0 0
346 2 1.3107067502648595e+01 1.5860964658101286e+01 7.1350536512015195e+00 0 0 0
220 2 1.5839765882847145e+01 1.5808136836974956e+01 4.0876528893360264e+00 0 0 0
347 1 1.4317780125038288e+01 1.4529233731975031e+01 5.5579134384149880e+00 0 0 0
363 1 1.4471393003835207e+01 1.7127155017386389e+01 5.5532602668790805e+00 0 0 0
349 1 1.7468989129125120e+01 1.4658551320310421e+01 5.6845419306169598e+00 0 0 0
365 1 1.7328527834912652e+01 1.7362166460602563e+01 5.3406520279752279e+00 0 0 0
348 2 1.6035230502718225e+01 1.5894783919252124e+01 7.0354092257093681e+00 0 0 0
222 2 1.8934119567085105e+01 1.5871453196854265e+01 4.0075377685965119e+00 0 0 0
224 2 2.1648941896527141e+01 1.5932307754646310e+01 4.2712028722227000e+00 0 0 0
353 1 2.3133668389456481e+01 1.7407089957363855e+01 5.3507860654047912e+00 -1 0 0
481 1 2.3216418368174093e+01 1.7426371527591474e+01 8.2132971208115482e+00 -1 0 0
351 1 2.0078634004345272e+01 1.4445067724351789e+01 5.6449229174139637e+00 0 0 0
367 1 2.0370166800680643e+01 1.7459628455844385e+01 5.5941345209432667e+00 0 0 0
350 2 1.8991409589364292e+01 1.5838817197028710e+01 7.1800308059617626e+00 0 0 0
352 2 2.1758178217525526e+01 1.5771483192296047e+01 6.9613659291836250e+00 0 0 0
242 2 1.3125967880096983e+00 2.1640999516801052e+01 4.0028971628876366e+00 0 0 0
228 2 4.2974355626960854e+00 1.8856904266159628e+01 4.1688351358578508e+00 0 0 0
244 2 4.0652530592756788e+00 2.2003986839423124e+01 4.0475385281289986e+00 0 0 0
369 1 -6.6839952076918993e-02 2.0354077789731686e+01 5.4354316994528178e+00 0 0 0
371 1 2.6593115975134869e+00 2.0346139274623759e+01 5.3613740378734800e+00 0 0 0
354 2 1.3447335650097194e+00 1.8803185838875173e+01 6.9102809777447458e+00 0 0 0
370 2 1.2199591498393523e+00 2.1801469755631931e+01 6.9486747664110657e+00 0 0 0
356 2 4.0940035704908224e+00 1.9039728585172664e+01 6.9860901098424382e+00 0 0 0
372 2 4.0641029850955608e+00 2.1873416538556871e+01 6.9926392118427625e+00 0 0 0
230 2 7.1434252606431823e+00 1.8877708910209286e+01 4.1321359582591137e+00 0 0 0
246 2 7.2542657837163196e+00 2.1882435734082485e+01 4.0401877938536757e+00 0 0 0
373 1 5.5693620676863409e+00 2.0283291715395638e+01 5.5519762332683422e+00 0 0 0
375 1 8.6102625375673867e+00 2.0429448432330947e+01 5.6347759078208934e+00 0 0 0
358 2 7.1129908917258300e+00 1.8921398478862756e+01 7.0253661846064732e+00 0 0 0
374 2 7.1799780178404138e+00 2.1802855802286555e+01 6.9617777328479473e+00 0 0 0
232 2 9.9933450384676448e+00 1.8812545800450547e+01 4.0679992480830256e+00 0 0 0
248 2 1.0026862018258319e+01 2.1826546270061023e+01 4.0649238056442885e+00 0 0 0
234 2 1.3204881872708757e+01 1.8818484720236878e+01 4.0811914962050464e+00 0 0 0
250 2 1.2931058102096378e+01 2.1707859841744742e+01 4.0167816586692027e+00 0 0 0
265 1 1.1487736016924821e+01 2.3100219824201218e+01 5.5520838565489772e+00 0 -1 0
377 1 1.1600642219761260e+01 2.0418650500468736e+01 5.6240705434241427e+00 0 0 0
360 2 9.9719531857431232e+00 1.9007050529517446e+01 7.1643956764645145e+00 0 0 0
376 2 1.0114805780348588e+01 2.1796729450328634e+01 7.1169763270064195e+00 0 0 0
362 2 1.3130283948451574e+01 1.8859083709975774e+01 6.9178662911373561e+00 0 0 0
378 2 1.2971442245528459e+01 2.1874950507273763e+01 7.0990382149792897e+00 0 0 0
236 2 1.6034827244053201e+01 1.8751561531380510e+01 4.0364598493187005e+00 0 0 0
252 2 1.5952594807647053e+01 2.1858680455541204e+01 4.0630568314927018e+00 0 0 0
379 1 1.4590693810546567e+01 2.0536261877718026e+01 5.5724226866311648e+00 0 0 0
381 1 1.7521461820493382e+01 2.0360263663416273e+01 5.3446699383505072e+00 0 0 0
364 2 1.6052756190234728e+01 1.8757913942269433e+01 6.9727272338002431e+00 0 0 0
380 2 1.5987247175131941e+01 2.1658503700573171e+01 7.1013217022239266e+00 0 0 0
254 2 1.8863018977618442e+01 2.1824187977671187e+01 4.1710089383755369e+00 0 0 0
240 2 2.1873033113472594e+01 1.9028705327426877e+01 4.0583210358888655e+00 0 0 0
256 2 2.1714542323154184e+01 2.1672993372052506e+01 4.3439636634190215e+00 0 0 0
271 1 2.0374151209123841e+01 2.3006876845114306e+01 5.7525047420889894e+00 0 -1 0
383 1 2.0301365688695693e+01 2.0291129208190419e+01 5.7135623740502473e+00 0 0 0