LAMMPS data file via write_data, version 19 Mar 2020, timestep = 10000

2048 atoms
2 atom types

-4.5252715483402817e-01 2.3555743154833614e+01 xlo xhi
-4.5252715483402817e-01 2.3555743154833614e+01 ylo yhi
-9.0505430966805633e-01 4.7111486309667228e+01 zlo zhi

Masses

1 58.71
2 26.982

Atoms # atomic

147 1 2.4552406698988758e+00 2.7405862522123852e+00 2.0543675344374641e+00 0 0 0
2 2 9.0847992213554907e-01 1.1439857423937527e+00 4.9530424659705075e-01 0 0 0
130 2 1.1731977530573103e+00 9.9973794422283002e-01 3.5036208224485046e+00 0 0 0
18 2 1.0458378604912415e+00 4.2113779335309909e+00 5.0065304374576813e-01 0 0 0
146 2 1.0163041949388163e+00 3.9780670209723272e+00 3.6472208866669735e+00 0 0 0
4 2 4.1844061496411156e+00 1.3528183163304452e+00 7.1100044515583694e-01 0 0 0
132 2 3.9440058574954051e+00 1.1644975010121985e+00 3.7617800390189924e+00 0 0 0
20 2 4.1439688319973476e+00 4.3246689906559190e+00 6.8558263772786310e-01 0 0 0
148 2 3.8919207731877838e+00 4.1055408786888847e+00 3.5002650307130123e+00 0 0 0
131 1 2.4181140834886152e+00 -1.3874992756048821e-01 1.9433628010170612e+00 0 0 0
19 1 2.6721128117563113e+00 2.8202268230157865e+00 -7.0533790959022047e-01 0 0 0
149 1 5.4860134317108757e+00 2.6268674286651903e+00 2.2795015534558516e+00 0 0 0
151 1 8.6324616303039807e+00 2.6004104453675305e+00 1.9547838990418636e+00 0 0 0
6 2 7.0428669044481760e+00 1.1976615605819241e+00 5.4693623402615965e-01 0 0 0
134 2 7.0797997401888022e+00 1.0761984653585779e+00 3.5098179885121636e+00 0 0 0
22 2 6.8438377695973207e+00 4.0724398579426380e+00 4.5640084853183649e-01 0 0 0
150 2 7.2395288190077496e+00 4.0298524359956538e+00 3.6952755414749223e+00 0 0 0
5 1 5.4563206843158216e+00 -2.2699972372309382e-01 -8.9834513606521360e-01 0 0 0
133 1 5.4968250194778792e+00 -3.5302614063825172e-01 2.3066382797801692e+00 0 0 0
153 1 1.1478756317298963e+01 2.6672675660394680e+00 2.2172131657598104e+00 0 0 0
8 2 9.9791871675836354e+00 1.0939665457858576e+00 6.6280590434252074e-01 0 0 0
136 2 1.0071666399036852e+01 1.0889408488715528e+00 3.5403077221905539e+00 0 0 0
24 2 9.9994682250010722e+00 4.1900914920763750e+00 8.5008674602971701e-01 0 0 0
152 2 9.9618079337761181e+00 4.3241119357088325e+00 3.8280786107594622e+00 0 0 0
10 2 1.3185643915458623e+01 1.1685530678263547e+00 7.3630883297276051e-01 0 0 0
138 2 1.2995108841253622e+01 9.2720727488311772e-01 3.6583460944410069e+00 0 0 0
26 2 1.3281725366218110e+01 4.0887466272400834e+00 4.9747390721681195e-01 0 0 0
154 2 1.3152130494123806e+01 4.0321802537416351e+00 3.6039725256062578e+00 0 0 0
9 1 1.1529436127214861e+01 -1.9691213725618589e-01 -7.3216532506369103e-01 0 0 0
25 1 1.1441853662486452e+01 2.4608441272869754e+00 -7.7785347198947952e-01 0 0 0
155 1 1.4620176374065654e+01 2.5719243811989565e+00 2.0728819149338000e+00 0 0 0
157 1 1.7724294970112574e+01 2.3868775525742221e+00 2.0959263598530673e+00 0 0 0
12 2 1.5948235033440758e+01 9.4817762957451990e-01 4.8941627616764016e-01 0 0 0
140 2 1.5999607962444367e+01 9.6868616905336768e-01 3.6339890455529202e+00 0 0 0
28 2 1.6240644792658074e+01 4.0020180722662300e+00 8.1509775662101380e-01 0 0 0
156 2 1.6139731807343018e+01 4.1151035180559914e+00 3.5593882107295691e+00 0 0 0
29 1 1.7476737206430244e+01 2.6600435860023364e+00 -7.0773814139642233e-01 0 0 0
145 1 2.3343740136376070e+01 2.5668091438118168e+00 1.9836402443677947e+00 -1 0 0
129 1 2.3454640135806706e+01 -3.9034632447923368e-01 2.0925939071431388e+00 -1 0 0
159 1 2.0572499361367029e+01 2.5176671288781591e+00 2.0235831723396651e+00 0 0 0
14 2 1.9191443530668188e+01 9.8735601938818962e-01 4.6276879171311580e-01 0 0 0
142 2 1.9061906326975183e+01 1.0094554507495510e+00 3.6294599613856091e+00 0 0 0
30 2 1.9102065077192144e+01 4.1288902492554858e+00 7.3383396748012197e-01 0 0 0
158 2 1.9320977055378805e+01 3.9931218362592595e+00 3.6335249343879337e+00 0 0 0
16 2 2.2069201273531938e+01 9.3099627442903987e-01 3.9090898153963605e-01 0 0 0
144 2 2.2041871816235904e+01 9.7657263128628324e-01 3.5372698272252316e+00 0 0 0
32 2 2.2229764902107028e+01 4.1285535613399800e+00 5.4997452025283589e-01 0 0 0
160 2 2.1993892420781151e+01 4.0106061880358741e+00 3.4035647006487517e+00 0 0 0
161 1 -4.3654164159455799e-01 5.6296906886076030e+00 2.1703522145606144e+00 0 0 0
163 1 2.4301896347647944e+00 5.5492956817033487e+00 2.3246171281754777e+00 0 0 0
179 1 2.6281373619670227e+00 8.7377277065898955e+00 2.1821181532705136e+00 0 0 0
34 2 9.3875199283261535e-01 7.1464368350835761e+00 7.5395506702459225e-01 0 0 0
162 2 1.2054688987426383e+00 7.1111368881272865e+00 3.5957135624309950e+00 0 0 0
36 2 3.9719479542780158e+00 7.1507524819416970e+00 6.6825764664567444e-01 0 0 0
164 2 4.0943798647950471e+00 7.2474526343437331e+00 3.7770501729038832e+00 0 0 0
35 1 2.6258062322127853e+00 5.7121264759459587e+00 -7.9658836452155191e-01 0 0 0
165 1 5.5184644077466487e+00 5.6999095657213452e+00 2.1803120862603942e+00 0 0 0
181 1 5.4108495973666626e+00 8.7522587130681355e+00 2.1171981936046862e+00 0 0 0
167 1 8.2808451196554085e+00 5.5213314858417126e+00 2.2474226201617298e+00 0 0 0
183 1 8.4459079921509357e+00 8.4309162851695305e+00 2.2414632120749745e+00 0 0 0
38 2 6.9936469068214837e+00 7.2565651012857888e+00 7.0050202457105315e-01 0 0 0
166 2 6.8780684832566354e+00 7.1894903312249809e+00 3.6250212086804181e+00 0 0 0
39 1 8.6112481353862567e+00 5.5483319513813774e+00 -6.4731313388323886e-01 0 0 0
53 1 5.6125313940893173e+00 8.7363718760246165e+00 -7.8105547500356876e-01 0 0 0
41 1 1.1556048290493523e+01 5.5408218700963809e+00 -7.1669536570235692e-01 0 0 0
169 1 1.1706312958417580e+01 5.7830602740794195e+00 2.2094686775462566e+00 0 0 0
185 1 1.1475379760576708e+01 8.5925821586871969e+00 2.0516034475074370e+00 0 0 0
40 2 9.9726632762898042e+00 7.0862809480363813e+00 6.7357260659882545e-01 0 0 0
168 2 1.0295446408481538e+01 6.9999129580896282e+00 3.8072212382492827e+00 0 0 0
42 2 1.3059599310902332e+01 7.0567890661123203e+00 6.5314977199269353e-01 0 0 0
170 2 1.3219334589415539e+01 7.3516340173185721e+00 3.6628518109244332e+00 0 0 0
57 1 1.1472185713559300e+01 8.6660624017106738e+00 -8.1312596107695934e-01 0 0 0
171 1 1.4640867010525175e+01 5.5467427066556132e+00 2.1288286196307675e+00 0 0 0
59 1 1.4397746724274484e+01 8.5791880299171250e+00 -8.5290343840636562e-01 0 0 0
187 1 1.4511541135848914e+01 8.5731559404073465e+00 1.9730677583821206e+00 0 0 0
45 1 1.7691740537872491e+01 5.5412199084979541e+00 -7.9521646789229705e-01 0 0 0
173 1 1.7729514589035375e+01 5.5355221985891330e+00 2.1052583887927669e+00 0 0 0
189 1 1.7424942534290970e+01 8.5146104847337742e+00 2.2690953355578078e+00 0 0 0
44 2 1.5962003233311572e+01 6.8774754615081530e+00 7.1085117105952933e-01 0 0 0
172 2 1.6131531463715334e+01 6.9079411324127333e+00 3.7272555502772677e+00 0 0 0
43 1 1.4611637969047187e+01 5.5701264834875897e+00 -8.2351254395198670e-01 0 0 0
177 1 2.3522607153109256e+01 8.6971963898537084e+00 2.2683875832679847e+00 -1 0 0
175 1 2.0641686822724282e+01 5.7968228010307490e+00 2.2945377470297812e+00 0 0 0
191 1 2.0438844370883309e+01 8.4408129110078054e+00 2.1302085642319777e+00 0 0 0
46 2 1.9003881475629761e+01 7.0429368798908829e+00 6.4865533862709723e-01 0 0 0
174 2 1.8990536449737249e+01 7.0915279906964388e+00 3.6621681020286330e+00 0 0 0
48 2 2.2182506525329245e+01 7.1490747817814606e+00 7.4693324696581676e-01 0 0 0
176 2 2.2099486135948382e+01 7.2896814833636334e+00 3.7675945665494091e+00 0 0 0
49 1 2.3533047275968592e+01 8.4104648219416536e+00 -8.9436314726453681e-01 -1 0 0
47 1 2.0585132749972296e+01 5.3662109381921042e+00 -8.8576991377234160e-01 0 0 0
63 1 2.0413464012007381e+01 8.5580885496593684e+00 -9.0016921133187267e-01 0 0 0
195 1 2.4103160441206124e+00 1.1515197559406046e+01 2.0068370575596459e+00 0 0 0
50 2 1.0352363997288985e+00 1.0060846165858244e+01 5.6204793530397223e-01 0 0 0
178 2 9.6896045124850771e-01 1.0280003983004036e+01 3.7155357148119661e+00 0 0 0
66 2 1.0322284563804791e+00 1.3190572365876969e+01 7.2934705157045676e-01 0 0 0
194 2 7.3034457273099762e-01 1.3236517994486627e+01 3.5701761656749209e+00 0 0 0
52 2 4.0058080578397979e+00 1.0110151552685579e+01 5.8651490417750307e-01 0 0 0
180 2 3.9738440574269278e+00 1.0089348872241137e+01 3.8612561640524419e+00 0 0 0
68 2 4.1068901129036046e+00 1.2971371464380512e+01 5.4625088253616361e-01 0 0 0
196 2 4.0201687912169639e+00 1.3120926370342586e+01 3.7224495423671291e+00 0 0 0
197 1 5.4517757636750677e+00 1.1561338237369068e+01 2.2423121902807970e+00 0 0 0
199 1 8.5706979561428085e+00 1.1484260968012999e+01 2.1074405261321876e+00 0 0 0
54 2 7.0415738364384444e+00 1.0201491164691115e+01 6.1125680143946770e-01 0 0 0
182 2 7.0396099675901311e+00 1.0196197096361841e+01 3.7840861924178837e+00 0 0 0
70 2 7.0537328528177143e+00 1.2962511235896446e+01 7.2262401680215760e-01 0 0 0
198 2 7.2847779501822743e+00 1.3021475549227500e+01 3.7306740049116511e+00 0 0 0
71 1 8.6603237845847740e+00 1.1749808947017597e+01 -8.1977005522909052e-01 0 0 0
201 1 1.1404412696358285e+01 1.1451051216037067e+01 2.2415467722269873e+00 0 0 0
56 2 9.8534800670353064e+00 9.9915317444858900e+00 6.4374679780297872e-01 0 0 0
184 2 9.7978868470232161e+00 1.0088656946068923e+01 3.5993424986509064e+00 0 0 0
72 2 1.0119919083736566e+01 1.3117765854970999e+01 7.4570796027572772e-01 0 0 0
200 2 1.0091258139433750e+01 1.3039716749793783e+01 3.7313106006443482e+00 0 0 0
58 2 1.2771376259731840e+01 1.0162794493035920e+01 6.7150708384762359e-01 0 0 0
186 2 1.3153808879819481e+01 1.0191530815268562e+01 3.5537251563652061e+00 0 0 0
74 2 1.3010157325463357e+01 1.3036055756601213e+01 5.0798243073990235e-01 0 0 0
202 2 1.3011192421769541e+01 1.3103566590306169e+01 3.4908410590198748e+00 0 0 0
203 1 1.4459264714589239e+01 1.1711605337801345e+01 1.9372207281272011e+00 0 0 0
205 1 1.7404004096955362e+01 1.1623654785206702e+01 2.2971089799918891e+00 0 0 0
60 2 1.6097204889416759e+01 1.0065923397760127e+01 7.6378121222379791e-01 0 0 0
188 2 1.6064407854642148e+01 9.9975762413374749e+00 3.5725364675905720e+00 0 0 0
76 2 1.6120310634286390e+01 1.3040783742932133e+01 4.6982212091312880e-01 0 0 0
204 2 1.5868673705564776e+01 1.3059936029184765e+01 3.6094507145754040e+00 0 0 0
77 1 1.7643790688422555e+01 1.1199517422436678e+01 -7.5336350944312325e-01 0 0 0
193 1 2.3480843144062305e+01 1.1550495509991132e+01 2.1182416780667910e+00 -1 0 0
207 1 2.0551285489433958e+01 1.1595045453337143e+01 1.9913431899643887e+00 0 0 0
62 2 1.9204746691409596e+01 1.0021117501781939e+01 6.8711155467275353e-01 0 0 0
190 2 1.8985108260030309e+01 1.0126111548204600e+01 3.8065476547498278e+00 0 0 0
78 2 1.9065330391667345e+01 1.3009539723362815e+01 6.5630641452639993e-01 0 0 0
206 2 1.9093317338219343e+01 1.3106194695362452e+01 3.6627773647087993e+00 0 0 0
64 2 2.1926125387874400e+01 1.0069524943818108e+01 5.5465576826714957e-01 0 0 0
192 2 2.1918208880005388e+01 1.0119835554103329e+01 3.6288935810544372e+00 0 0 0
80 2 2.2187789611243382e+01 1.2912543959682624e+01 5.1750790364803789e-01 0 0 0
208 2 2.2022426219722881e+01 1.3093346918501052e+01 3.6203523627988989e+00 0 0 0
211 1 2.5327641122841520e+00 1.4772503168906354e+01 1.8468947527166812e+00 0 0 0
227 1 2.4701641933369358e+00 1.7562089999507592e+01 1.9286429290308740e+00 0 0 0
82 2 1.0481148526754274e+00 1.6092795489709083e+01 4.6272990764162847e-01 0 0 0
210 2 9.8992599271879667e-01 1.5970530909326405e+01 3.6596794392448455e+00 0 0 0
84 2 3.8291824224925612e+00 1.6129851392694242e+01 4.7871727260930852e-01 0 0 0
212 2 3.9145449774749865e+00 1.5896892827666809e+01 3.3727640579172808e+00 0 0 0
213 1 5.4716888226794982e+00 1.4436805840869921e+01 2.1184591098065968e+00 0 0 0
229 1 5.6067009648945723e+00 1.7356715030092069e+01 2.1000339334128908e+00 0 0 0
215 1 8.5191222770516415e+00 1.4499266906593590e+01 2.0951589284745453e+00 0 0 0
103 1 8.3708896968169206e+00 1.7648622342049315e+01 -6.8978838438467449e-01 0 0 0
231 1 8.4935464790228483e+00 1.7402014881221760e+01 2.1528668368563291e+00 0 0 0
86 2 6.9894803113480126e+00 1.5921074351183742e+01 7.3142898427726766e-01 0 0 0
214 2 7.0684145840605161e+00 1.5912320198925846e+01 3.7097774241265480e+00 0 0 0
87 1 8.5702209683789707e+00 1.4586408845570398e+01 -8.4673765110160659e-01 0 0 0
85 1 5.5043489878494931e+00 1.4585488204630446e+01 -8.8171653737650413e-01 0 0 0
217 1 1.1440872591727691e+01 1.4575538559887347e+01 2.1025265372925328e+00 0 0 0
233 1 1.1403747994670063e+01 1.7568976008566906e+01 2.1930440881738704e+00 0 0 0
88 2 9.8545399991399414e+00 1.6212457813691096e+01 8.1055964644042278e-01 0 0 0
216 2 1.0080000585648698e+01 1.6015434164733925e+01 3.6065570218843224e+00 0 0 0
90 2 1.3020828961189279e+01 1.6080267387818552e+01 7.3151681010711278e-01 0 0 0
218 2 1.2933524111472728e+01 1.5896022212766715e+01 3.6429526466790945e+00 0 0 0
105 1 1.1282941841124234e+01 1.7613056148440116e+01 -5.5237300311833071e-01 0 0 0
89 1 1.1470307837026903e+01 1.4623260196677776e+01 -8.5647522915752672e-01 0 0 0
219 1 1.4362874300942282e+01 1.4432466744597292e+01 2.0009750053819308e+00 0 0 0
107 1 1.4720162131734906e+01 1.7656374260521538e+01 -8.7956691860792657e-01 0 0 0
235 1 1.4718090198353829e+01 1.7522701184145042e+01 2.1032425376543187e+00 0 0 0
221 1 1.7708287331932866e+01 1.4565561427374472e+01 2.0945566919502450e+00 0 0 0
237 1 1.7740322901524706e+01 1.7474044136061565e+01 2.1078417409238743e+00 0 0 0
92 2 1.6124487266727215e+01 1.5962308131258327e+01 5.2771532540774579e-01 0 0 0
220 2 1.5956506256640241e+01 1.5924016144840598e+01 3.5699751344463539e+00 0 0 0
109 1 1.7591623777653943e+01 1.7642676448777742e+01 -7.3908894476550069e-01 0 0 0
225 1 2.3432335681453715e+01 1.7452490600746451e+01 2.0672212301169304e+00 -1 0 0
209 1 2.3401606727344870e+01 1.4707013431417398e+01 1.9622910951303170e+00 -1 0 0
223 1 2.0595765431705928e+01 1.4404315499887950e+01 2.0079279210909116e+00 0 0 0
239 1 2.0583500506664173e+01 1.7771112768043139e+01 2.1030518553924784e+00 0 0 0
94 2 1.9117186047464060e+01 1.6050045169011327e+01 3.8319649662724475e-01 0 0 0
222 2 1.9135100310659411e+01 1.5989056222860055e+01 3.4876789678129301e+00 0 0 0
96 2 2.1875929961354551e+01 1.6126277773482933e+01 5.9792073771661314e-01 0 0 0
224 2 2.1923830686912304e+01 1.6051567478939511e+01 3.7585220633871588e+00 0 0 0
81 1 2.3459677194243184e+01 1.4511146022571769e+01 -8.8771713595519308e-01 -1 0 0
243 1 2.3862524925247763e+00 2.0443677397310054e+01 2.0699675277097067e+00 0 0 0
98 2 1.0338126594937009e+00 1.9145982981129762e+01 3.8107124187157626e-01 0 0 0
226 2 9.4664861377528253e-01 1.8892139642099167e+01 3.4398945256185378e+00 0 0 0
114 2 1.2498130180790621e+00 2.2048209358957685e+01 5.9575245059228332e-01 0 0 0
242 2 1.0338509888099203e+00 2.1915672084646076e+01 3.4829120267261455e+00 0 0 0
100 2 4.0301074757387285e+00 1.9200304638601700e+01 5.7876740691092121e-01 0 0 0
228 2 4.0999487105279098e+00 1.9055782908242968e+01 3.6533674781850562e+00 0 0 0
116 2 4.1843233127955646e+00 2.2404920838886376e+01 6.5957144994086137e-01 0 0 0
244 2 3.8614452942639970e+00 2.2288541337197564e+01 3.5287687039519389e+00 0 0 0
135 1 8.5988426150824289e+00 2.3405466592254825e+01 2.0468240544230865e+00 0 -1 0
245 1 5.4905429237577890e+00 2.0694874031300515e+01 2.2360539531241073e+00 0 0 0
247 1 8.3627037621658875e+00 2.0546647486486691e+01 2.0854280344007892e+00 0 0 0
102 2 6.9716004483635130e+00 1.8989291000929967e+01 6.7847869109209857e-01 0 0 0
230 2 7.0234173423727864e+00 1.9077153935804667e+01 3.6156692059105282e+00 0 0 0
118 2 6.8780785623615168e+00 2.1980925870503242e+01 6.2183278862938085e-01 0 0 0
246 2 7.1372753765659365e+00 2.2163681136934727e+01 3.5212178540348535e+00 0 0 0
137 1 1.1481735759836083e+01 2.3555084630940016e+01 2.0222406655320362e+00 0 -1 0
121 1 1.1308200192821506e+01 2.0533294174512150e+01 -8.2001107218806590e-01 0 0 0
249 1 1.1466359883634929e+01 2.0338059330915094e+01 2.0741871059137789e+00 0 0 0
104 2 9.7715822516115640e+00 1.9114962299068246e+01 7.6474956671162020e-01 0 0 0
232 2 9.9509230461892084e+00 1.9010216832176795e+01 3.5497864444636784e+00 0 0 0
120 2 1.0032191714632077e+01 2.1933999209646032e+01 5.1640114743932486e-01 0 0 0
248 2 9.9853524888273828e+00 2.2106270143831189e+01 3.5466272764933597e+00 0 0 0
106 2 1.3069824409397334e+01 1.9006472800443149e+01 6.3622200895561676e-01 0 0 0
234 2 1.3249890432364859e+01 1.9016317432512345e+01 3.5633378370063689e+00 0 0 0
122 2 1.2948118527274969e+01 2.2035532736223892e+01 5.6705456631583218e-01 0 0 0
250 2 1.2968612111288751e+01 2.1984352608271116e+01 3.4971745126079874e+00 0 0 0
139 1 1.4381285164337678e+01 2.3439565552643607e+01 2.0993696078501700e+00 0 -1 0
141 1 1.7650657480765119e+01 2.3437842192930695e+01 2.0592251425371213e+00 0 -1 0
13 1 1.7554275536497329e+01 2.3318754298024736e+01 -7.7114178717246662e-01 0 -1 0
251 1 1.4391168971159226e+01 2.0639329779518377e+01 2.1135212440249131e+00 0 0 0
253 1 1.7609364511285740e+01 2.0506806969831153e+01 2.1168968586913071e+00 0 0 0
108 2 1.6050713484670382e+01 1.9201719345475865e+01 6.5860809980447188e-01 0 0 0
236 2 1.6156877948489154e+01 1.8947572333573603e+01 3.5173884203170589e+00 0 0 0
124 2 1.6141318760471378e+01 2.2028079345453357e+01 6.2490147446626199e-01 0 0 0
252 2 1.6072406824605068e+01 2.2139279147109058e+01 3.5447094760272808e+00 0 0 0
123 1 1.4583167355875478e+01 2.0569256142742873e+01 -8.5666423158880045e-01 0 0 0
11 1 1.4558802770851880e+01 2.3440704139259473e+01 -8.1058630702555590e-01 0 -1 0
143 1 2.0788371201602317e+01 2.3499191772600540e+01 2.0370046990481834e+00 0 -1 0
241 1 2.3358401823003824e+01 2.0626048700825180e+01 2.0498865489992020e+00 -1 0 0
255 1 2.0594101729643306e+01 2.0681206915742912e+01 2.2082860523176779e+00 0 0 0
110 2 1.9261717336092453e+01 1.9223734577110477e+01 4.9233143802898693e-01 0 0 0
238 2 1.9054907512025331e+01 1.9031802778159864e+01 3.4020795405478408e+00 0 0 0
126 2 1.9102066351492674e+01 2.1896343209458855e+01 6.1383508072991622e-01 0 0 0
254 2 1.9062064085982016e+01 2.2103847649530863e+01 3.6556004600816978e+00 0 0 0
112 2 2.2034382784807121e+01 1.9031538349705599e+01 5.4523418415532410e-01 0 0 0
240 2 2.2154022540339149e+01 1.9232261064117928e+01 3.5398447536059594e+00 0 0 0
128 2 2.2163351555450468e+01 2.1936697386060594e+01 3.5247293526909207e-01 0 0 0
256 2 2.1991217012873605e+01 2.1948536937358000e+01 3.8332636869575865e+00 0 0 0
275 1 2.6740680428748367e+00 2.5415419575286311e+00 5.2547798072938265e+00 0 0 0
403 1 2.5530148239156811e+00 2.7588073740699381e+00 8.1262937414862648e+00 0 0 0
258 2 8.1317291983753148e-01 1.0868480502616715e+00 6.5680658212964627e+00 0 0 0
274 2 9.2730273560397913e-01 3.8788966022903812e+00 6.5688493542845956e+00 0 0 0
260 2 3.8125483499670860e+00 1.0799912311498114e+00 6.6408659379403616e+00 0 0 0
276 2 3.9365721521376873e+00 4.1192164595231917e+00 6.6767963278561098e+00 0 0 0
385 1 -4.4566927212998780e-01 -3.9525552878307707e-01 8.1579765928168371e+00 0 0 0
401 1 -3.3601456523373335e-01 2.6564934109805156e+00 8.1550706450065089e+00 0 0 0
259 1 2.2588929430963671e+00 -4.3648881069153389e-01 5.1475317482924074e+00 0 0 0
277 1 5.5875621502995392e+00 2.7779993559623977e+00 5.1654044295017236e+00 0 0 0
405 1 5.4117960503428995e+00 2.8009365697541346e+00 8.1260185242447651e+00 0 0 0
263 1 8.3452116370671412e+00 -4.0613878022027605e-01 5.2147271256771521e+00 0 0 0
391 1 8.4956679784810127e+00 -3.7953656546391346e-01 8.0640853890447950e+00 0 0 0
279 1 8.6349122658776807e+00 2.4927957908046379e+00 5.0689900291334373e+00 0 0 0
407 1 8.5583062358064481e+00 2.5877824450512126e+00 8.1414334201285197e+00 0 0 0
262 2 7.0271869827822968e+00 1.2841329018013365e+00 6.4553646323744731e+00 0 0 0
278 2 7.0267029951498250e+00 4.0907932425754066e+00 6.5510385768379695e+00 0 0 0
261 1 5.3844129218964580e+00 -4.1832361867948742e-01 5.0741919923906114e+00 0 0 0
393 1 1.1587484957616448e+01 -2.7450719419396219e-01 8.0573720444246977e+00 0 0 0
281 1 1.1480405985105392e+01 2.4911963181430998e+00 5.0748185582255845e+00 0 0 0
409 1 1.1724152286400773e+01 2.5640149072941782e+00 7.9596429812195328e+00 0 0 0
264 2 1.0060095308542561e+01 9.3732489049656142e-01 6.7583686566908732e+00 0 0 0
280 2 1.0051609568930818e+01 4.0454260918851856e+00 6.7874267274655731e+00 0 0 0
266 2 1.2872055461394467e+01 1.0774330710965023e+00 6.5885852894812365e+00 0 0 0
282 2 1.3131709310202000e+01 3.9437273229127667e+00 6.4660931303389155e+00 0 0 0
267 1 1.4336335541955808e+01 -3.2766190814239082e-01 5.1366899141041236e+00 0 0 0
283 1 1.4660438638610914e+01 2.4398079503904788e+00 4.9823952390617299e+00 0 0 0
411 1 1.4496478665465132e+01 2.7627582795996566e+00 8.0767518093780684e+00 0 0 0
269 1 1.7366791618337864e+01 -3.9175701387802736e-01 5.4905800614895810e+00 0 0 0
285 1 1.7442674474609831e+01 2.4592533004514303e+00 5.2174201849199990e+00 0 0 0
413 1 1.7806199654297195e+01 2.5925137188061234e+00 8.1872691755853957e+00 0 0 0
268 2 1.5958150558752971e+01 1.1365023847227156e+00 6.6810297302666433e+00 0 0 0
284 2 1.6139856194821022e+01 4.0762913846606414e+00 6.5881875299505568e+00 0 0 0
257 1 2.3497966945120709e+01 -4.4078378798012352e-01 4.9108163264530047e+00 -1 0 0
273 1 2.3497063837403815e+01 2.4102124759526653e+00 4.9129252869528743e+00 -1 0 0
399 1 2.0640278235640231e+01 -3.7745255385782184e-01 8.0880081649909386e+00 0 0 0
287 1 2.0529558042675148e+01 2.3614933028617480e+00 5.1251540000625146e+00 0 0 0
415 1 2.0562379359568880e+01 2.2992583740245283e+00 8.1762072383649596e+00 0 0 0
270 2 1.9161254593812693e+01 9.6194205654019060e-01 6.6452274171722596e+00 0 0 0
286 2 1.9150186505372325e+01 3.8630690401562919e+00 6.5793516341169589e+00 0 0 0
272 2 2.2059429256916829e+01 1.1356769586532498e+00 6.7384330243579127e+00 0 0 0
288 2 2.1924580337613591e+01 3.8205700652172352e+00 6.5703378078276637e+00 0 0 0
291 1 2.3277995980976574e+00 5.6141070179247645e+00 5.1756654277118219e+00 0 0 0
419 1 2.5087153380820681e+00 5.7826096146100143e+00 8.0928654229593313e+00 0 0 0
307 1 2.5425664696753758e+00 8.6114082458052952e+00 5.3097071404127467e+00 0 0 0
435 1 2.6133293130259192e+00 8.8226481978098619e+00 7.9908150279911982e+00 0 0 0
290 2 1.0081869026047281e+00 7.2006226757200613e+00 6.7877790482025331e+00 0 0 0
292 2 4.1341999229801756e+00 7.0731717940316656e+00 6.7092315935973916e+00 0 0 0
417 1 -4.2136839691735728e-01 5.7105783239414709e+00 8.2417344120379070e+00 0 0 0
433 1 -4.2223512701083982e-01 8.5399468507915888e+00 8.3047493046582250e+00 0 0 0
293 1 5.3964862423213438e+00 5.5786313049630101e+00 4.9211624315572866e+00 0 0 0
421 1 5.5177956624762015e+00 5.4270939579492756e+00 8.2340653468308105e+00 0 0 0
309 1 5.4306639452559775e+00 8.5692745766975573e+00 5.3034305927505221e+00 0 0 0
437 1 5.7751263913589996e+00 8.6638029042263121e+00 8.0454585272169830e+00 0 0 0
295 1 8.5890572831529592e+00 5.6347930036609881e+00 5.4030897242580282e+00 0 0 0
423 1 8.6360648135127196e+00 5.6002327469602511e+00 8.0869392058879139e+00 0 0 0
311 1 8.5270498833961383e+00 8.5395753231036515e+00 5.1969803062093236e+00 0 0 0
439 1 8.4675741319961677e+00 8.5069850941186562e+00 8.1361481082248126e+00 0 0 0
294 2 6.9873020697541213e+00 7.0057218671607702e+00 6.6396072692624601e+00 0 0 0
297 1 1.1882572780595584e+01 5.6858831919722785e+00 5.1377145253431200e+00 0 0 0
425 1 1.1641870472135636e+01 5.6658592750320622e+00 8.1265262930779549e+00 0 0 0
313 1 1.1569542177708296e+01 8.6270139395329792e+00 5.0420583887139996e+00 0 0 0
441 1 1.1786361178072555e+01 8.5692946366040932e+00 8.1637365618818727e+00 0 0 0
296 2 1.0305255598831273e+01 7.2033737110343203e+00 6.6518921475911466e+00 0 0 0
298 2 1.3112256173969485e+01 7.1374330460194546e+00 6.5623779347863431e+00 0 0 0
299 1 1.4626630308403820e+01 5.5431662518867508e+00 5.2050905104623615e+00 0 0 0
427 1 1.4657476801906689e+01 5.5852759221772397e+00 8.1974336259815512e+00 0 0 0
315 1 1.4634050117097978e+01 8.8216597020674836e+00 5.0379790246241214e+00 0 0 0
443 1 1.4426154527877898e+01 8.5345360583140213e+00 8.1242007668968519e+00 0 0 0
301 1 1.7591788623842511e+01 5.5404076569718574e+00 5.1719644126686637e+00 0 0 0
429 1 1.7758196120563554e+01 5.6493778621457968e+00 8.0955439349346427e+00 0 0 0
317 1 1.7516786175869051e+01 8.5514553482356117e+00 5.2385982125726578e+00 0 0 0
445 1 1.7554638343477542e+01 8.2652985014136071e+00 8.0603356140315086e+00 0 0 0
300 2 1.6011189996348342e+01 7.1755110806305682e+00 6.7458760487656990e+00 0 0 0
289 1 2.3524473069589405e+01 5.4667527266834401e+00 5.1381126765006417e+00 -1 0 0
305 1 2.3500780168765083e+01 8.6110160438891015e+00 5.1057627492750912e+00 -1 0 0
303 1 2.0660157759614172e+01 5.3937900339093199e+00 4.9638895660610123e+00 0 0 0
431 1 2.0922833627538367e+01 5.5930316397323798e+00 8.0600384003077181e+00 0 0 0
319 1 2.0501344779751896e+01 8.4057175173649838e+00 5.0991703545293099e+00 0 0 0
447 1 2.0557829005531573e+01 8.5077077859611343e+00 7.9100019792461556e+00 0 0 0
302 2 1.9371844802274303e+01 6.6427406954227326e+00 6.6384171046198768e+00 0 0 0
304 2 2.2181865756659647e+01 7.0397538400003894e+00 6.6950957984511046e+00 0 0 0
323 1 2.6281106380020449e+00 1.1593168953014752e+01 5.0416557714928079e+00 0 0 0
451 1 2.5975045931215983e+00 1.1593859944538357e+01 8.2498306728282493e+00 0 0 0
306 2 1.0179620819962738e+00 1.0222989716100024e+01 6.6837104167057344e+00 0 0 0
322 2 1.1524524633990723e+00 1.3114493447125593e+01 6.5649271293003606e+00 0 0 0
308 2 4.0071590056384787e+00 1.0195925034316469e+01 6.7439197183703268e+00 0 0 0
324 2 4.0693814637101298e+00 1.3165487751517444e+01 6.5388089996925531e+00 0 0 0
325 1 5.5848864438626586e+00 1.1575423249655831e+01 5.1960676226156810e+00 0 0 0
453 1 5.6435957204992677e+00 1.1643478002481734e+01 8.1972038253670405e+00 0 0 0
327 1 8.7190762517676621e+00 1.1487697400351658e+01 5.2421916567245379e+00 0 0 0
455 1 8.5317552504831156e+00 1.1475605152339522e+01 8.1129259093246091e+00 0 0 0
310 2 7.1171226183739336e+00 1.0115203044692857e+01 6.6399499909412460e+00 0 0 0
326 2 7.0756168495196743e+00 1.3229524642822064e+01 6.5720652980713288e+00 0 0 0
329 1 1.1362098304630729e+01 1.1458798880811836e+01 5.2023282190964739e+00 0 0 0
457 1 1.1721670345028103e+01 1.1583728784408239e+01 8.2700269608335599e+00 0 0 0
312 2 1.0161177224067625e+01 9.9184192551279224e+00 6.8032822875123378e+00 0 0 0
328 2 1.0065863444829548e+01 1.3083452082504223e+01 6.6884869104102140e+00 0 0 0
314 2 1.2995001688177895e+01 1.0076685654539316e+01 6.5295269178628095e+00 0 0 0
330 2 1.3074557828487833e+01 1.3000083246828437e+01 6.7205916822334686e+00 0 0 0
331 1 1.4683403114238144e+01 1.1798575126414587e+01 5.3654411773511992e+00 0 0 0
459 1 1.4496441848195364e+01 1.1235696132442337e+01 8.0288627500347474e+00 0 0 0
333 1 1.7489536999453044e+01 1.1686879196709709e+01 5.1965674205729391e+00 0 0 0
461 1 1.7727158860402852e+01 1.1313482495825607e+01 8.1536154832934891e+00 0 0 0
316 2 1.6219058468049887e+01 1.0017121298018932e+01 6.5647929714956499e+00 0 0 0
332 2 1.6116384437379011e+01 1.3219418635439002e+01 7.0149650858883188e+00 0 0 0
321 1 2.3524819290663508e+01 1.1770668541269155e+01 5.1321346935915022e+00 -1 0 0
449 1 2.3503905508621642e+01 1.1475408154438950e+01 8.3088119030160410e+00 -1 0 0
335 1 2.0456117478675033e+01 1.1585249608857207e+01 5.2924261290165733e+00 0 0 0
463 1 2.0594913494315065e+01 1.1392968126682080e+01 8.0938720335980090e+00 0 0 0
318 2 1.9126585088164170e+01 9.7749223921057631e+00 6.5418817311197639e+00 0 0 0
334 2 1.9031796487886297e+01 1.2975485922477279e+01 6.9386322841764336e+00 0 0 0
320 2 2.2125690301665216e+01 1.0175809955933357e+01 6.5331781250114505e+00 0 0 0
336 2 2.2051174255652469e+01 1.3184972637027695e+01 6.4336747777702010e+00 0 0 0
339 1 2.5628108758351473e+00 1.4713877772920263e+01 4.9895083323936440e+00 0 0 0
467 1 2.6455461653237742e+00 1.4595752312738080e+01 8.0746684634242598e+00 0 0 0
355 1 2.4840896341916494e+00 1.7591448565921958e+01 5.0662594447026095e+00 0 0 0
483 1 2.7759889686710535e+00 1.7461788498045735e+01 8.0369769259041011e+00 0 0 0
338 2 9.7212460133685274e-01 1.6128686911051780e+01 6.4788992537123642e+00 0 0 0
340 2 4.2485850356435835e+00 1.5902359167710896e+01 6.4882391543797544e+00 0 0 0
337 1 -1.9509342180168454e-01 1.4636799378182181e+01 5.0893672234225500e+00 0 0 0
465 1 -3.4577056726606276e-01 1.4593052610108431e+01 8.1064542472674948e+00 0 0 0
341 1 5.6688602104922241e+00 1.4556989649443834e+01 5.0068998855753453e+00 0 0 0
469 1 5.5873115700137825e+00 1.4653612202827633e+01 8.2244009425680673e+00 0 0 0
357 1 5.4619938468993992e+00 1.7549762871974345e+01 5.0489187947055330e+00 0 0 0
485 1 5.4734194981111157e+00 1.7614404079651287e+01 7.9662324130711557e+00 0 0 0
343 1 8.8275464661945051e+00 1.4599266122745606e+01 5.1501157667993596e+00 0 0 0
471 1 8.5904622262968147e+00 1.4771232752127364e+01 8.0614258422296547e+00 0 0 0
359 1 8.5142337514203366e+00 1.7650975048109487e+01 5.0065924815475675e+00 0 0 0
487 1 8.4683344197238402e+00 1.7487914304048189e+01 8.1679907956028988e+00 0 0 0
342 2 7.0468173887838699e+00 1.6316266264289872e+01 6.6190537925489679e+00 0 0 0
345 1 1.1851419846495666e+01 1.4704266490984551e+01 5.3141397816146485e+00 0 0 0
473 1 1.1428230284421636e+01 1.4513909196290031e+01 8.2742747808948280e+00 0 0 0
361 1 1.1522378324261886e+01 1.7715582223853744e+01 4.9928121101502336e+00 0 0 0
489 1 1.1538481560356917e+01 1.7718020833244424e+01 8.0883535460690794e+00 0 0 0
344 2 1.0214467508755227e+01 1.6131873504844137e+01 6.6278687665239095e+00 0 0 0
346 2 1.3149413173847229e+01 1.5978282145193864e+01 6.7003380245157649e+00 0 0 0
347 1 1.4393086113453695e+01 1.4610296311865254e+01 5.0802619070825763e+00 0 0 0
475 1 1.4467769739535568e+01 1.4646487357140472e+01 8.3432300268566966e+00 0 0 0
363 1 1.4550880933631191e+01 1.7278943141957683e+01 5.0754820580784719e+00 0 0 0
491 1 1.4544986798831662e+01 1.7763679760691581e+01 8.1732106234370043e+00 0 0 0
349 1 1.7630083310767198e+01 1.4743134429065760e+01 5.2103377204695978e+00 0 0 0
477 1 1.7631339164290644e+01 1.4542904010968840e+01 8.3145314094390397e+00 0 0 0
365 1 1.7485798112575246e+01 1.7520352512787198e+01 4.8570857941165775e+00 0 0 0