LAMMPS data file via write_data, version 19 Mar 2020, timestep = 30000

2048 atoms
2 atom types

1.1698748763215505e-01 2.2986228512367262e+01 xlo xhi
1.1698748763215505e-01 2.2986228512367262e+01 ylo yhi
2.3397497526431010e-01 4.5972457024734524e+01 zlo zhi

Masses

1 58.71
2 26.982

Atoms # atomic

147 1 3.0885032363786062e+00 2.9833842533258284e+00 2.8903629268496331e+00 0 0 0
2 2 1.6315605434454110e+00 1.3959223086389185e+00 1.6395176793620845e+00 0 0 0
130 2 1.4908172291119299e+00 1.5073592020638795e+00 4.6079480291957227e+00 0 0 0
18 2 1.6285051874190606e+00 4.4245614541742064e+00 1.4573660248018554e+00 0 0 0
146 2 1.4746410429663619e+00 4.3272374667028810e+00 4.4762147426459924e+00 0 0 0
4 2 4.4509565244092357e+00 1.5684277158384534e+00 1.4859650163167513e+00 0 0 0
132 2 4.4361534260975723e+00 1.5191202663055521e+00 4.4245171030105617e+00 0 0 0
20 2 4.3879357941641768e+00 4.4493332797489877e+00 1.5841270033937140e+00 0 0 0
148 2 4.1881740519187414e+00 4.3367162505959103e+00 4.5525578868743075e+00 0 0 0
131 1 3.0202752279138561e+00 2.2918470445964264e+01 3.0795053001445232e+00 0 -1 0
911 1 2.0022903910027864e+01 2.1278423903307342e-01 2.0324634506409016e+01 0 0 0
149 1 5.7301262685776493e+00 2.9629190718112111e+00 3.0430363015911133e+00 0 0 0
151 1 8.7810602194536962e+00 3.0925668817751015e+00 3.0453312354793836e+00 0 0 0
6 2 7.2563865098279319e+00 1.6125407202022404e+00 1.6613438496793800e+00 0 0 0
134 2 7.3390061245291891e+00 1.5903904709614813e+00 4.5715180495594021e+00 0 0 0
22 2 7.1452434869957582e+00 4.4592336264531829e+00 1.5562671921051641e+00 0 0 0
150 2 7.0478985249805479e+00 4.3600967270309310e+00 4.4236870991498742e+00 0 0 0
1024 2 2.1538119957776651e+01 2.1556869723659663e+01 2.1714546839559770e+01 0 0 0
133 1 5.7565662528509733e+00 1.9666095616381865e-01 3.0109622889091576e+00 0 0 0
153 1 1.1535487311528609e+01 2.9894935123701396e+00 3.1886505446979605e+00 0 0 0
8 2 9.9911377759538738e+00 1.4830437992756389e+00 1.7248970736119724e+00 0 0 0
136 2 1.0033644481385112e+01 1.4897711319841376e+00 4.6002247830525675e+00 0 0 0
24 2 9.9541259058838794e+00 4.4285996511215178e+00 1.6994633558054644e+00 0 0 0
152 2 1.0249340360976479e+01 4.3796424232997735e+00 4.4749052136198557e+00 0 0 0
10 2 1.2974313380665512e+01 1.4355996458982969e+00 1.7221444318374921e+00 0 0 0
138 2 1.2968442504282597e+01 1.6170870125816070e+00 4.5566270011044390e+00 0 0 0
26 2 1.3034922926911308e+01 4.3011733754518566e+00 1.6166996333868306e+00 0 0 0
154 2 1.2884298937004303e+01 4.4278228817855689e+00 4.4626479309147040e+00 0 0 0
9 1 1.1459855732903405e+01 1.3890411830792110e-01 4.0221538781292260e-01 0 0 0
25 1 1.1588139613528773e+01 2.9909065010979035e+00 3.7617772593791726e-01 0 0 0
155 1 1.4519202709953209e+01 2.8551854797989926e+00 3.1692615129011030e+00 0 0 0
157 1 1.7229013918157250e+01 3.0568879252408694e+00 3.0690138352137648e+00 0 0 0
12 2 1.5999327820844854e+01 1.4934126406248618e+00 1.6034585952835139e+00 0 0 0
140 2 1.5751748021919497e+01 1.3099309921444604e+00 4.4136284273512594e+00 0 0 0
28 2 1.5659653143007892e+01 4.3589898209282865e+00 1.6863484048152644e+00 0 0 0
156 2 1.5682630768305351e+01 4.5581946668473066e+00 4.4821179372308295e+00 0 0 0
29 1 1.7197466714397219e+01 2.9745475071904712e+00 2.4149585401871992e-01 0 0 0
145 1 2.2970199701119292e+01 2.9721204334178624e+00 3.1239245446917439e+00 -1 0 0
129 1 2.2961919956680934e+01 2.2837322561632288e+01 3.0236841969318746e+00 -1 -1 0
159 1 2.0118753133624715e+01 2.9408535091507693e+00 3.0990006256925224e+00 0 0 0
14 2 1.8611469328853865e+01 1.6081272601079744e+00 1.6060696447639369e+00 0 0 0
142 2 1.8736708993762676e+01 1.4736144002092488e+00 4.5023286198514789e+00 0 0 0
30 2 1.8664340259763740e+01 4.3961781174685113e+00 1.7086682537532514e+00 0 0 0
158 2 1.8673573121762985e+01 4.3634324081881166e+00 4.4524366382456373e+00 0 0 0
16 2 2.1573197016890685e+01 1.4610113033065188e+00 1.5961398448948485e+00 0 0 0
144 2 2.1529769715709360e+01 1.4948682722538484e+00 4.4031778547928324e+00 0 0 0
32 2 2.1622795867482353e+01 4.2161646780016353e+00 1.6864199518254819e+00 0 0 0
160 2 2.1532957358385403e+01 4.3675458999442771e+00 4.4853171543370474e+00 0 0 0
161 1 2.1376789549246603e-01 5.6938515315486935e+00 3.1078927666596834e+00 0 0 0
163 1 3.0427472429679283e+00 5.8939311375022170e+00 2.9025945092826082e+00 0 0 0
179 1 2.8914667882577056e+00 8.7111991533303019e+00 3.0801263719730740e+00 0 0 0
34 2 1.5704916811706384e+00 7.3468740959613887e+00 1.5777452324667021e+00 0 0 0
162 2 1.4877991845580512e+00 7.2186217185224857e+00 4.5927843098354169e+00 0 0 0
36 2 4.4242787928012266e+00 7.4251903197572977e+00 1.5829438167739336e+00 0 0 0
164 2 4.2989965140486026e+00 7.1432101794192411e+00 4.3893889423976624e+00 0 0 0
35 1 3.0950376345402733e+00 5.8913681140181877e+00 2.6527517741114942e-01 0 0 0
165 1 5.7046516230693332e+00 5.8784818051154950e+00 2.9850708647429123e+00 0 0 0
181 1 5.8353191197402321e+00 8.6099523298585297e+00 3.2324939313603345e+00 0 0 0
167 1 8.5786985026169962e+00 5.6715993745842788e+00 3.2535331793427842e+00 0 0 0
183 1 8.5630496019902989e+00 8.7006920755327108e+00 3.1803251319114327e+00 0 0 0
38 2 7.2950454917692742e+00 7.3253689152699755e+00 1.6646418941373353e+00 0 0 0
166 2 7.1545000107690857e+00 7.1464541824097063e+00 4.6271193345953385e+00 0 0 0
896 2 2.1397017844564949e+01 2.1537458194003808e+01 1.8651253267028238e+01 0 0 0
1008 2 2.1522620738051685e+01 1.8573986496137653e+01 2.1618632925285535e+01 0 0 0
41 1 1.1499665582946086e+01 5.6501123716054140e+00 3.4624626355986876e-01 0 0 0
169 1 1.1583171585095160e+01 5.8247156366356201e+00 3.1213170731144104e+00 0 0 0
185 1 1.1430068791058913e+01 8.5767720833991721e+00 3.1377724809631045e+00 0 0 0
40 2 1.0119607256535172e+01 7.1578641143367969e+00 1.6975650492819876e+00 0 0 0
168 2 1.0097705584663963e+01 7.1535050543225243e+00 4.4886905036637907e+00 0 0 0
42 2 1.2800702544163729e+01 7.2450085866076375e+00 1.6438797880282943e+00 0 0 0
170 2 1.2953076077013247e+01 7.2141567693577375e+00 4.5334445198357862e+00 0 0 0
880 2 2.1439993929046754e+01 1.8703311531159251e+01 1.8836188016127927e+01 0 0 0
171 1 1.4398032973298484e+01 5.9182945924619244e+00 2.9381804202768467e+00 0 0 0
1022 2 1.8640169100039589e+01 2.1563150708961135e+01 2.1692700408427111e+01 0 0 0
187 1 1.4384399057900046e+01 8.5864221474955862e+00 3.1583274421842171e+00 0 0 0
45 1 1.7122919592459684e+01 5.6988398860944018e+00 3.7111752179721286e-01 0 0 0
173 1 1.7124578846584679e+01 5.8869473865690614e+00 3.1009334468705503e+00 0 0 0
189 1 1.7278837429790538e+01 8.5684932065837014e+00 2.9967103965347475e+00 0 0 0
44 2 1.5768764848648853e+01 7.3252375903292686e+00 1.6543409399129649e+00 0 0 0
172 2 1.5787950104920661e+01 7.2707138686896418e+00 4.5887340886690584e+00 0 0 0
894 2 1.8643608539076773e+01 2.1313340561069069e+01 1.8978772493429211e+01 0 0 0
177 1 2.2839585694676042e+01 8.6904296295641963e+00 3.0258609253245394e+00 -1 0 0
175 1 2.0219463665859244e+01 5.6658327960672237e+00 2.9995550343058310e+00 0 0 0
191 1 2.0218035478047479e+01 8.7592899436078095e+00 2.9566602244051401e+00 0 0 0
46 2 1.8572915829638891e+01 7.1243726929987004e+00 1.6070398021425472e+00 0 0 0
174 2 1.8786317263493942e+01 7.1698720318430400e+00 4.3872158386401576e+00 0 0 0
48 2 2.1564201925574000e+01 7.2472974741009537e+00 1.7241327278308711e+00 0 0 0
176 2 2.1555253424683386e+01 7.1744808600742003e+00 4.4005011651384454e+00 0 0 0
49 1 2.2976585577990548e+01 8.6139770401133706e+00 3.3174396334989670e-01 -1 0 0
1006 2 1.8709503555032491e+01 1.8646451438240515e+01 2.1844595197531000e+01 0 0 0
63 1 2.0123831750822106e+01 8.5604567192280978e+00 2.3920599342091745e-01 0 0 0
195 1 2.9486504239012201e+00 1.1588068766914315e+01 3.0805063471567982e+00 0 0 0
50 2 1.4667639792676634e+00 1.0082640859368926e+01 1.7095817054986813e+00 0 0 0
178 2 1.3663844622768122e+00 1.0152825759046685e+01 4.5126585461073612e+00 0 0 0
66 2 1.5518059339745371e+00 1.3022809593170910e+01 1.7860397513329558e+00 0 0 0
194 2 1.5328058076115525e+00 1.3011413334786985e+01 4.7120806455206266e+00 0 0 0
52 2 4.3723443103445039e+00 1.0106756468953639e+01 1.7389012077683774e+00 0 0 0
180 2 4.3067462594201835e+00 1.0142021439227682e+01 4.4012885852745729e+00 0 0 0
68 2 4.4402450995653311e+00 1.2854108113808035e+01 1.5473669157652616e+00 0 0 0
196 2 4.2347385834622644e+00 1.3054646980776187e+01 4.5648754308994910e+00 0 0 0
197 1 5.8761715288649476e+00 1.1546887612055933e+01 3.2023971349878728e+00 0 0 0
199 1 8.6941948503724191e+00 1.1474951204659710e+01 3.0592754324219755e+00 0 0 0
54 2 7.2125800987859359e+00 1.0064359606485931e+01 1.7127938409158965e+00 0 0 0
182 2 7.1546088955239870e+00 1.0115996860825721e+01 4.5262775089591933e+00 0 0 0
70 2 7.2782463745689263e+00 1.2890315211658987e+01 1.6674785203371514e+00 0 0 0
198 2 7.3400163798841254e+00 1.2865402678026365e+01 4.6646729906299855e+00 0 0 0
878 2 1.8520479739615006e+01 1.8583076977280438e+01 1.8936097944520711e+01 0 0 0
201 1 1.1614931668969177e+01 1.1467071764722505e+01 3.0393931272246135e+00 0 0 0
56 2 1.0121030947446000e+01 9.9937603896230822e+00 1.6477304910050294e+00 0 0 0
184 2 1.0245347350273617e+01 1.0117648001454533e+01 4.5623364560153288e+00 0 0 0
72 2 9.9563255817247533e+00 1.2939432180606202e+01 1.6578499849279431e+00 0 0 0
200 2 1.0254183081249900e+01 1.2893403073552218e+01 4.4370033406677569e+00 0 0 0
58 2 1.2931287858129350e+01 9.9335793645774384e+00 1.8256215746244291e+00 0 0 0
186 2 1.3005280598195048e+01 9.9561234453373544e+00 4.4331285673461505e+00 0 0 0
74 2 1.3003158304430148e+01 1.3082397902105606e+01 1.4834733449806381e+00 0 0 0
202 2 1.3040693003628455e+01 1.2886568722078874e+01 4.3456455048874361e+00 0 0 0
203 1 1.4434211483435215e+01 1.1444534371701039e+01 2.9450460254997246e+00 0 0 0
205 1 1.7180534255091491e+01 1.1571197233064014e+01 2.9983497370417211e+00 0 0 0
60 2 1.5905626078767213e+01 1.0108315391566878e+01 1.5594827805254183e+00 0 0 0
188 2 1.5839109847016676e+01 1.0135767917117501e+01 4.3248318911602519e+00 0 0 0
76 2 1.5813023667709402e+01 1.2994988921602221e+01 1.7135650886490303e+00 0 0 0
204 2 1.5816477357214811e+01 1.3108834811640444e+01 4.3821327926041747e+00 0 0 0
1023 1 1.9992930702614920e+01 1.9994331256620931e+01 2.0270111229305517e+01 0 0 0
193 1 2.2344594245093674e-01 1.1643571307435515e+01 2.9891926361995997e+00 0 0 0
207 1 1.9992295648592080e+01 1.1360808732739779e+01 3.0729104444029911e+00 0 0 0
62 2 1.8651603222835014e+01 1.0101172884089982e+01 1.5718018088537491e+00 0 0 0
190 2 1.8560198655941633e+01 1.0057944159861000e+01 4.4633280286495030e+00 0 0 0
78 2 1.8810516115771939e+01 1.2936102734481098e+01 1.6509700082496823e+00 0 0 0
206 2 1.8714856238366398e+01 1.2999722002950211e+01 4.4826332709553514e+00 0 0 0
64 2 2.1626396706442254e+01 1.0164742326168334e+01 1.5401648803682058e+00 0 0 0
192 2 2.1573528895393355e+01 1.0224055717635714e+01 4.5064584580249658e+00 0 0 0
80 2 2.1363049524916242e+01 1.2824049891726171e+01 1.9682865481094762e+00 0 0 0
208 2 2.1501522194713136e+01 1.3077478711575369e+01 4.5538008451445764e+00 0 0 0
211 1 3.1002250306191215e+00 1.4422613842790485e+01 2.9325333316105446e+00 0 0 0
227 1 3.0680689621233141e+00 1.7167654718094791e+01 3.0154435896484859e+00 0 0 0
82 2 1.4664125756381714e+00 1.5798341116394203e+01 1.5760599991589974e+00 0 0 0
210 2 1.5032756741396509e+00 1.5780488425600508e+01 4.4217482107836350e+00 0 0 0
84 2 4.3959309089184471e+00 1.5845650573757288e+01 1.6877369370210422e+00 0 0 0
212 2 4.4666837806535531e+00 1.5758741310508833e+01 4.6153244295599762e+00 0 0 0
213 1 5.8704665915534147e+00 1.4398232619010631e+01 3.1953127127439171e+00 0 0 0
229 1 5.8168700729488005e+00 1.7240989501810397e+01 3.2184792296001983e+00 0 0 0
215 1 8.4977787499705197e+00 1.4301545768554284e+01 3.1978539191899471e+00 0 0 0
103 1 8.7748127237981652e+00 1.7282328645558074e+01 2.7459299750289196e-01 0 0 0
231 1 8.7173144845218360e+00 1.7219790788510000e+01 3.0538945985379442e+00 0 0 0
86 2 7.3165631034633636e+00 1.5857849329174277e+01 1.7251130858490116e+00 0 0 0
214 2 7.2738006010553562e+00 1.5866750417952073e+01 4.6931653399481466e+00 0 0 0
1020 2 1.5613164125956931e+01 2.1465748642578745e+01 2.1824836280058324e+01 0 0 0
85 1 5.7502261212860590e+00 1.4331564938285254e+01 2.7057580717288104e-01 0 0 0
217 1 1.1654860243916438e+01 1.4433973246346067e+01 2.9544668488327179e+00 0 0 0
233 1 1.1483268582490876e+01 1.7253309712547939e+01 3.0807233368871962e+00 0 0 0
88 2 1.0137540237551679e+01 1.5708002750608303e+01 1.7231222869604412e+00 0 0 0
216 2 1.0280529715052534e+01 1.5805264102804758e+01 4.6118634661822684e+00 0 0 0
90 2 1.3066046715278823e+01 1.5914427354655462e+01 1.8107965463199627e+00 0 0 0
218 2 1.2887621521986993e+01 1.6006503733907525e+01 4.5143237069196704e+00 0 0 0
105 1 1.1592052818018082e+01 1.7357349407946764e+01 3.0743909848818979e-01 0 0 0
89 1 1.1596962790516239e+01 1.4475279035328342e+01 2.9855795523282169e-01 0 0 0
219 1 1.4390116565734886e+01 1.4506943990341215e+01 3.1245045393618187e+00 0 0 0
107 1 1.4384717397000829e+01 1.7397755447285139e+01 2.3477640990685258e-01 0 0 0
235 1 1.4462064756107228e+01 1.7267127559846656e+01 3.1184020425907586e+00 0 0 0
221 1 1.7208032809160741e+01 1.4339879533031157e+01 3.1243947506607763e+00 0 0 0
237 1 1.7254751691786108e+01 1.7263430384870034e+01 3.0594076316104477e+00 0 0 0
92 2 1.5861301808850268e+01 1.5947156447409888e+01 1.7792861882396740e+00 0 0 0
220 2 1.5813424060720477e+01 1.5810041023291889e+01 4.4988239329691391e+00 0 0 0
892 2 1.5719453350789090e+01 2.1392667413909482e+01 1.8912582959737737e+01 0 0 0
225 1 2.2936769257772699e+01 1.7282968716241903e+01 3.1446561607981791e+00 -1 0 0
209 1 2.2973948517628141e+01 1.4386400054463339e+01 3.1446974589924097e+00 -1 0 0
223 1 2.0087281251430760e+01 1.4470407661896804e+01 3.0368635210049564e+00 0 0 0
239 1 2.0208546940385908e+01 1.7136483395153824e+01 3.1195551982514931e+00 0 0 0
94 2 1.8690259811065228e+01 1.5815916111031562e+01 1.6805063350256197e+00 0 0 0
222 2 1.8709337739542288e+01 1.5659888932582520e+01 4.5273206535445931e+00 0 0 0
96 2 2.1505119913073969e+01 1.5730743521972888e+01 1.5917107620151814e+00 0 0 0
224 2 2.1595734827221552e+01 1.5791752365284070e+01 4.5264178657378693e+00 0 0 0
81 1 2.2876344763915608e+01 1.4202685601365451e+01 3.6382132832441244e-01 -1 0 0
243 1 3.0774117118982840e+00 2.0021755548438318e+01 3.2461382805907095e+00 0 0 0
98 2 1.5487832214870800e+00 1.8632330545815101e+01 1.7799011129934452e+00 0 0 0
226 2 1.5841803982413487e+00 1.8800598992510032e+01 4.5307414524972014e+00 0 0 0
114 2 1.7111739379741961e+00 2.1395353995387119e+01 1.6992797111853291e+00 0 0 0
242 2 1.4350787502807554e+00 2.1575263374169708e+01 4.4487666872970895e+00 0 0 0
100 2 4.4562014230973119e+00 1.8664288725065173e+01 1.6759672738689484e+00 0 0 0
228 2 4.4167349580581829e+00 1.8655115856721441e+01 4.4989699682677502e+00 0 0 0
116 2 4.4143861039471668e+00 2.1525974901117031e+01 1.5012421294653353e+00 0 0 0
244 2 4.4909235922825550e+00 2.1507256950287577e+01 4.5390760414632885e+00 0 0 0
135 1 8.6927401654523759e+00 2.2861003504245321e+01 3.0763267238333234e+00 0 -1 0
245 1 5.8787385236439729e+00 2.0046961541620011e+01 3.0200905463436158e+00 0 0 0
247 1 8.4307042890786565e+00 2.0072914249696609e+01 3.0828310425786714e+00 0 0 0
102 2 7.1797008706329812e+00 1.8648785203918059e+01 1.7978204097875199e+00 0 0 0
230 2 7.2030208336329773e+00 1.8603133966325391e+01 4.7228725346913727e+00 0 0 0
118 2 7.2114231883925815e+00 2.1496344086336912e+01 1.7125935278407927e+00 0 0 0
246 2 7.2146326911655132e+00 2.1480714914419391e+01 4.5677857264842245e+00 0 0 0
137 1 1.1486312302323942e+01 1.3624531955198904e-01 3.3912818949127512e+00 0 0 0
121 1 1.1547859737273249e+01 2.0193992757178243e+01 2.9914215771525249e-01 0 0 0
249 1 1.1474251808220686e+01 2.0340490031396758e+01 3.2059599170179753e+00 0 0 0
104 2 1.0227432126683327e+01 1.8815949881760879e+01 1.6100480003925255e+00 0 0 0
232 2 9.9769149880708863e+00 1.8629309279328382e+01 4.5972126643633882e+00 0 0 0
120 2 1.0034123601226502e+01 2.1497579590030430e+01 1.6375011395813295e+00 0 0 0
248 2 9.8407624086816838e+00 2.1346027364150221e+01 4.6218473076981477e+00 0 0 0
106 2 1.3066815898550521e+01 1.8929113541943181e+01 1.8576085626839596e+00 0 0 0
234 2 1.2958947295578341e+01 1.8823846796904132e+01 4.6497369970843661e+00 0 0 0
122 2 1.2885471423323057e+01 2.1652762597111195e+01 1.7208343291908033e+00 0 0 0
250 2 1.3115956530199686e+01 2.1582214071089560e+01 4.6177691481233349e+00 0 0 0
139 1 1.4343303722352497e+01 1.8898433974031903e-01 3.0814452888735517e+00 0 0 0
141 1 1.7411568319142170e+01 2.0143200014685902e-01 3.0927251722562348e+00 0 0 0
13 1 1.7318968289733803e+01 2.2967593541952251e+01 3.1727134136389690e-01 0 -1 0
251 1 1.4420603410186583e+01 2.0050859930768251e+01 3.2340048007175781e+00 0 0 0
253 1 1.7306401828477050e+01 1.9944207790647031e+01 3.1131892373245220e+00 0 0 0
108 2 1.5785575962851569e+01 1.8608375938982796e+01 1.6874739585651199e+00 0 0 0
236 2 1.5890650191211888e+01 1.8638230576081419e+01 4.5663265217408568e+00 0 0 0
124 2 1.5775546783974168e+01 2.1595623894308613e+01 1.6968170922315540e+00 0 0 0
252 2 1.5911644468168371e+01 2.1555476616322593e+01 4.2762273352428712e+00 0 0 0
123 1 1.4526667981731167e+01 2.0180448710452872e+01 3.0998865178797924e-01 0 0 0
1004 2 1.5716927456757524e+01 1.8635904540179421e+01 2.1882220069172032e+01 0 0 0
143 1 2.0165965907033549e+01 1.1823412645456344e-01 2.9943957908223067e+00 0 0 0
241 1 1.8226688660631396e-01 1.9996218248627226e+01 3.0645418742054638e+00 0 0 0
255 1 2.0062680707105436e+01 2.0013268529035845e+01 3.0842733423058912e+00 0 0 0
110 2 1.8749862937720049e+01 1.8597228677253081e+01 1.4581679106814893e+00 0 0 0
238 2 1.8608646369423507e+01 1.8434963239818842e+01 4.5693171119027971e+00 0 0 0
126 2 1.8630501464297438e+01 2.1513623210987369e+01 1.6240302010230452e+00 0 0 0
254 2 1.8884632999540472e+01 2.1534302680914632e+01 4.4430987120924854e+00 0 0 0
112 2 2.1449205842606634e+01 1.8628684657973277e+01 1.6889476419124778e+00 0 0 0
240 2 2.1568821939721101e+01 1.8481470903684048e+01 4.5502549250555360e+00 0 0 0
128 2 2.1449027466333224e+01 2.1542482702877017e+01 1.6397902893266290e+00 0 0 0
256 2 2.1542116384310155e+01 2.1342052311680423e+01 4.4047130700169435e+00 0 0 0
275 1 2.8169429885802564e+00 3.0475966442482854e+00 5.9727472581131744e+00 0 0 0
403 1 2.8486899610583625e+00 3.0937609115196878e+00 9.0066777999064627e+00 0 0 0
258 2 1.5754516631176383e+00 1.5378132919804939e+00 7.3741442792358844e+00 0 0 0
274 2 1.4435071936069237e+00 4.5414707908344552e+00 7.4838878115087137e+00 0 0 0
260 2 4.4151231668521111e+00 1.5546451368013621e+00 7.4358845005242067e+00 0 0 0
276 2 4.2967854655954971e+00 4.2734403775770762e+00 7.4616113669490733e+00 0 0 0
385 1 2.2795352561933733e+01 2.2922799161929994e+01 8.8541785818519827e+00 -1 -1 0
401 1 1.6004107267913315e-01 2.8690776118243244e+00 8.8784913972501673e+00 0 0 0
259 1 2.9527364334151600e+00 2.2867047875832018e+01 5.9444040646199010e+00 0 -1 0
277 1 5.7349311094632611e+00 3.0343286349711533e+00 6.0059445174160411e+00 0 0 0
405 1 5.8883231123764492e+00 2.8347671924365541e+00 8.8827057572330190e+00 0 0 0
263 1 8.6809494459300751e+00 2.2934550127821531e+01 5.7992976114068249e+00 0 -1 0
391 1 8.8034640371543702e+00 2.0527499123266266e-01 8.8467883329824435e+00 0 0 0
279 1 8.6652824375001742e+00 3.0004380057307443e+00 5.9212302215669750e+00 0 0 0
407 1 8.6919032298629819e+00 3.0894255632842871e+00 8.6518926818636448e+00 0 0 0
262 2 7.3535924599149363e+00 1.5397441379617978e+00 7.3160307224163201e+00 0 0 0
278 2 7.1222781904617198e+00 4.4184875073603109e+00 7.5432357739075044e+00 0 0 0
261 1 5.8987054470193359e+00 1.3801811371981026e-01 6.0566117713547500e+00 0 0 0
393 1 1.1560246093998067e+01 2.5591643450694163e-01 8.6208469072927709e+00 0 0 0
281 1 1.1632705306736908e+01 2.9862107094860733e+00 5.9703881782296699e+00 0 0 0
409 1 1.1584379845768833e+01 2.8897360796492317e+00 8.7866914036927586e+00 0 0 0
264 2 9.9663672260462519e+00 1.5919632937465034e+00 7.3466509126892037e+00 0 0 0
280 2 1.0240551432107351e+01 4.3175118782962656e+00 7.4271507280152536e+00 0 0 0
266 2 1.3012288073615327e+01 1.5186069211866238e+00 7.3945876616514550e+00 0 0 0
282 2 1.3061123031722691e+01 4.2888757487475422e+00 7.4639673473294277e+00 0 0 0
267 1 1.4313678739443837e+01 2.2890626596930211e+01 6.0321179630755104e+00 0 -1 0
283 1 1.4489406330163844e+01 2.9134526584675915e+00 5.9079066530290776e+00 0 0 0
411 1 1.4407549721519768e+01 2.9042332461664619e+00 8.8605491906148668e+00 0 0 0
269 1 1.7413584791757710e+01 2.2931082861063306e+01 5.7155785856378305e+00 0 -1 0
285 1 1.7088968651314200e+01 3.0494611741442510e+00 5.7527208867154176e+00 0 0 0
413 1 1.7218059018785450e+01 2.9878079196483878e+00 8.7397180979341176e+00 0 0 0
268 2 1.5864032819900656e+01 1.4544900902326072e+00 7.3210122072375530e+00 0 0 0
284 2 1.5797038645778049e+01 4.2070744131389173e+00 7.3420085685806953e+00 0 0 0
257 1 2.2927523893576438e+01 2.2922432640669165e+01 5.9868287230469752e+00 -1 -1 0
273 1 2.2893901243750552e+01 2.8335417127726714e+00 5.9646833464255788e+00 -1 0 0
399 1 1.9991682799731052e+01 2.2875458823859613e+01 8.8693270916117228e+00 0 -1 0
287 1 2.0145173912402406e+01 2.9889572701224267e+00 5.9472164622231789e+00 0 0 0
415 1 1.9998885855701197e+01 2.8891292038857768e+00 8.7106364271066479e+00 0 0 0
270 2 1.8596043406479549e+01 1.4379362245897493e+00 7.2607060482603893e+00 0 0 0
286 2 1.8684235572715217e+01 4.2926923537865820e+00 7.4149019910653662e+00 0 0 0
272 2 2.1491699630368164e+01 1.4819354790034156e+00 7.4893707567246297e+00 0 0 0
288 2 2.1556728415061944e+01 4.2290504027485838e+00 7.3512660296095227e+00 0 0 0
291 1 2.9519027115181209e+00 5.8410999552328393e+00 5.8723508588692770e+00 0 0 0
419 1 2.9313100166487689e+00 5.8749089865039927e+00 8.8614722732499356e+00 0 0 0
307 1 2.8500038544417694e+00 8.7140312131516389e+00 5.9236170392386986e+00 0 0 0
435 1 2.8829007633349319e+00 8.6923393586031423e+00 8.6841764577011276e+00 0 0 0
290 2 1.6600965142536053e+00 7.2269084777501762e+00 7.4317496285216604e+00 0 0 0
292 2 4.3809016212937228e+00 7.1993543604665771e+00 7.2992681264934465e+00 0 0 0
417 1 2.2799668176228213e+01 5.9494755639378081e+00 8.7635481166774767e+00 -1 0 0
433 1 2.2953063173170285e+01 8.7109224247411259e+00 8.5675120530702706e+00 -1 0 0
293 1 5.6534019180394539e+00 5.8230342298023379e+00 5.9951295867482601e+00 0 0 0
421 1 5.7767782876066418e+00 5.7814666487183199e+00 8.7556808263794323e+00 0 0 0
309 1 5.6340282981649574e+00 8.7183312010018206e+00 5.8642095645586521e+00 0 0 0
437 1 5.8827369294081828e+00 8.6702499958978265e+00 8.8615603046814257e+00 0 0 0
295 1 8.6023584543913181e+00 5.5896686426368518e+00 5.9692486892930932e+00 0 0 0
423 1 8.6864927950689808e+00 5.6988502375303920e+00 8.9144149049287229e+00 0 0 0
311 1 8.7042140802355217e+00 8.6315477510992586e+00 5.7620419843952151e+00 0 0 0
439 1 8.6964320452426165e+00 8.6908746875880656e+00 8.7218052427625992e+00 0 0 0
294 2 7.1736560204576314e+00 7.4028643806670793e+00 7.2564277589458897e+00 0 0 0
297 1 1.1573978077646519e+01 5.8136134210936987e+00 6.1254083361729377e+00 0 0 0
425 1 1.1535975185298938e+01 5.6950595798650578e+00 8.8608187183662963e+00 0 0 0
313 1 1.1624113709753416e+01 8.6879742584634290e+00 5.9355249355502799e+00 0 0 0
441 1 1.1352583123973627e+01 8.6052838971935266e+00 8.6683224945612718e+00 0 0 0
296 2 9.9833038528443634e+00 7.2431791087834370e+00 7.1979546165591826e+00 0 0 0
298 2 1.2929490341315358e+01 7.2267696806534394e+00 7.4704311175091274e+00 0 0 0
299 1 1.4446392162286134e+01 5.8814341037426825e+00 6.0395825645879642e+00 0 0 0
427 1 1.4373279579649584e+01 5.9133487451103459e+00 8.7083535910174863e+00 0 0 0
315 1 1.4338557903064617e+01 8.6973837086282764e+00 5.9230133902481477e+00 0 0 0
443 1 1.4461760420158539e+01 8.6144500241397211e+00 8.7774626554276036e+00 0 0 0
301 1 1.7308671318280599e+01 5.8161242886402604e+00 5.7960613153740761e+00 0 0 0
429 1 1.7207891542930099e+01 5.7627512299577672e+00 8.8275095155384449e+00 0 0 0
317 1 1.7095641372691631e+01 8.6375290160517473e+00 5.7742991406193180e+00 0 0 0
445 1 1.7145706391532389e+01 8.7128441668906671e+00 8.6740648808688370e+00 0 0 0
300 2 1.5869616122908452e+01 7.2230197062568715e+00 7.3592787515398745e+00 0 0 0
289 1 2.2940397684182752e+01 5.9684160386622285e+00 6.0011546005685110e+00 -1 0 0
305 1 2.2804044669197513e+01 8.7278932402674840e+00 5.9434864464617787e+00 -1 0 0
303 1 2.0085730910855315e+01 5.8048086452394987e+00 5.8894046507818638e+00 0 0 0
431 1 2.0105526194236472e+01 5.6715558972258862e+00 8.7700209920315633e+00 0 0 0
319 1 2.0088130468719356e+01 8.8648277313230857e+00 5.6656528391958831e+00 0 0 0
447 1 2.0080193736460046e+01 8.8822199888031115e+00 8.7831336708979979e+00 0 0 0
302 2 1.8575039340639027e+01 7.2310834866918254e+00 7.2676809616556666e+00 0 0 0
304 2 2.1433562582925024e+01 7.3306793428500239e+00 7.3381190782793144e+00 0 0 0
323 1 2.8930494128308042e+00 1.1545872773874249e+01 6.0736638191485293e+00 0 0 0
451 1 3.0901199985608856e+00 1.1478980712368875e+01 8.7258909037408525e+00 0 0 0
306 2 1.4166136958932665e+00 1.0156439836315624e+01 7.3415362652776128e+00 0 0 0
322 2 1.4826904501067872e+00 1.2972971145660647e+01 7.4641463308396689e+00 0 0 0
308 2 4.4169428602560066e+00 1.0133155186545078e+01 7.4136499914820071e+00 0 0 0
324 2 4.2615161717519126e+00 1.3118256577749895e+01 7.2618880176053819e+00 0 0 0
325 1 5.6194384830191320e+00 1.1418580036978124e+01 5.9204356928879251e+00 0 0 0
453 1 5.8957218425367719e+00 1.1663497509423284e+01 8.7271971361270957e+00 0 0 0
327 1 8.7260916630953389e+00 1.1472623193700208e+01 5.9243118452651284e+00 0 0 0
455 1 8.7060607101015108e+00 1.1419123740806540e+01 8.8366348960281353e+00 0 0 0
310 2 7.1868407080849748e+00 1.0242854895692771e+01 7.2601101148704767e+00 0 0 0
326 2 7.1103078535603972e+00 1.2978633007374308e+01 7.1987448234672788e+00 0 0 0
329 1 1.1591455788107027e+01 1.1592331236740558e+01 5.8309731949259085e+00 0 0 0
457 1 1.1607106325634795e+01 1.1527806552439170e+01 8.9664312281100003e+00 0 0 0
312 2 1.0152130242459476e+01 1.0267232839817851e+01 7.3426423582193392e+00 0 0 0
328 2 1.0164541182930151e+01 1.2755680101060396e+01 7.3209286140623506e+00 0 0 0
314 2 1.2915146817146447e+01 1.0066075463250476e+01 7.5799354242568278e+00 0 0 0
330 2 1.3060476454661895e+01 1.2729492534098403e+01 7.2840259755812360e+00 0 0 0
331 1 1.4473710876109788e+01 1.1564991840509810e+01 5.7483183569922600e+00 0 0 0
459 1 1.4399556419574472e+01 1.1602254678859278e+01 8.8526061978328023e+00 0 0 0
333 1 1.7270274904831947e+01 1.1497809560071763e+01 5.9037372637166605e+00 0 0 0
461 1 1.7190437764056114e+01 1.1511932034152512e+01 8.7662229689005908e+00 0 0 0
316 2 1.5566046072623674e+01 1.0098305370564352e+01 7.2617386923668725e+00 0 0 0
332 2 1.5752445176027502e+01 1.2955074277369809e+01 7.4196664459975690e+00 0 0 0
321 1 2.2984600678100882e+01 1.1588166260287350e+01 6.0041191239441440e+00 -1 0 0
449 1 2.2946093771777669e+01 1.1529104025074357e+01 8.8011013785586876e+00 -1 0 0
335 1 1.9966105216842909e+01 1.1460349203412257e+01 5.9631509954598192e+00 0 0 0
463 1 1.9893719777659399e+01 1.1480598262690535e+01 8.7074669913013221e+00 0 0 0
318 2 1.8540924680119346e+01 1.0081315767303428e+01 7.2568202897480427e+00 0 0 0
334 2 1.8588639611839241e+01 1.2954967739753162e+01 7.3147289809982574e+00 0 0 0
320 2 2.1628550322916254e+01 1.0188160965910535e+01 7.3861951722499377e+00 0 0 0
336 2 2.1559924711248268e+01 1.2979262205592489e+01 7.4080149960367692e+00 0 0 0
339 1 2.8281080423103768e+00 1.4563479296093147e+01 5.9846901239421442e+00 0 0 0
467 1 2.9938282183009406e+00 1.4430089299849902e+01 8.7555395070784154e+00 0 0 0
355 1 2.9073254591738307e+00 1.7309385136736768e+01 5.8866677678615744e+00 0 0 0
483 1 2.7556935822479924e+00 1.7142696705744711e+01 8.9085035374673573e+00 0 0 0
338 2 1.4848907741516237e+00 1.5868173911579643e+01 7.4950357758673825e+00 0 0 0
340 2 4.3696825166504949e+00 1.5891454641196850e+01 7.3708204206501806e+00 0 0 0
337 1 1.4582842198611073e-01 1.4356777002715413e+01 5.9916290837771182e+00 0 0 0
465 1 1.2572169340479222e-01 1.4349105890377366e+01 8.8045187205750040e+00 0 0 0
341 1 5.7433128459673215e+00 1.4417159762749838e+01 5.9512109491512630e+00 0 0 0
469 1 5.7672846346084654e+00 1.4288542071987049e+01 8.7728406869788156e+00 0 0 0
357 1 5.8350242712100986e+00 1.7157413045926138e+01 6.0289583843290053e+00 0 0 0
485 1 5.8163721057767317e+00 1.7250887423064047e+01 8.9722010036242956e+00 0 0 0
343 1 8.7971324492351251e+00 1.4416417600302703e+01 5.9623166209000038e+00 0 0 0
471 1 8.5777396423378853e+00 1.4206207034712929e+01 8.8342368608388302e+00 0 0 0
359 1 8.9572244600252944e+00 1.7056646686843596e+01 6.1390947936507851e+00 0 0 0
487 1 8.6891557940888511e+00 1.7063221254262292e+01 8.9207658929904508e+00 0 0 0
342 2 7.3236390112159251e+00 1.5744943708174706e+01 7.4758447197590385e+00 0 0 0
345 1 1.1507602431382603e+01 1.4288831820479157e+01 6.0018271485325210e+00 0 0 0
473 1 1.1733657721047249e+01 1.4345719710133302e+01 8.7317133481324731e+00 0 0 0
361 1 1.1462181422258487e+01 1.7303017888498015e+01 6.0518052602989361e+00 0 0 0
489 1 1.1504071094715810e+01 1.7052807166121731e+01 8.8528498897016732e+00 0 0 0
344 2 1.0220375226432903e+01 1.5591812622079518e+01 7.3755119409210428e+00 0 0 0
346 2 1.2989641526960515e+01 1.5738300393565082e+01 7.3025476804158496e+00 0 0 0
347 1 1.4477493957184262e+01 1.4226743356123578e+01 5.9997349650817071e+00 0 0 0
475 1 1.4352010111186257e+01 1.4448947767950653e+01 8.8571084996398959e+00 0 0 0
363 1 1.4442744284334607e+01 1.7285178013248039e+01 5.9183944565034778e+00 0 0 0
491 1 1.4686219233581344e+01 1.7072896889881868e+01 8.8549165006582076e+00 0 0 0
349 1 1.7071038778028250e+01 1.4428613690999381e+01 5.8223541553708795e+00 0 0 0
477 1 1.7116203184309928e+01 1.4621114457114102e+01 8.8679180462814067e+00 0 0 0
365 1 1.7224250855907538e+01 1.7194917388740681e+01 5.9169114720276186e+00 0 0 0
493 1 1.7095716774707505e+01 1.7244956420760126e+01 8.8776051141286541e+00 0 0 0