LAMMPS data file via write_data, version 19 Mar 2020, timestep = 250000

2048 atoms
2 atom types

-3.9390780653820201e-01 2.3497123806536464e+01 xlo xhi
-3.9390780653820201e-01 2.3497123806536464e+01 ylo yhi
-7.8781561307640402e-01 4.6994247613072929e+01 zlo zhi

Masses

1 58.71
2 26.982

Atoms # atomic

147 1 2.4996606233459771e+00 2.7836127881525865e+00 2.1571545960219582e+00 0 0 0
2 2 9.6045311501497377e-01 1.1948088984296119e+00 6.0570462415192661e-01 0 0 0
130 2 1.2238782591642878e+00 1.0512655001852333e+00 3.5993307991647185e+00 0 0 0
18 2 1.0971402984411454e+00 4.2472222069653860e+00 6.1102730171776298e-01 0 0 0
146 2 1.0677508535432216e+00 4.0150506129393229e+00 3.7422296265118140e+00 0 0 0
4 2 4.2203821333881457e+00 1.4026216879978450e+00 8.2034752145867773e-01 0 0 0
132 2 3.9811557790799457e+00 1.2152204927373913e+00 3.8562293564013892e+00 0 0 0
20 2 4.1801422817990970e+00 4.3599600340700588e+00 7.9505383586762246e-01 0 0 0
148 2 3.9293250399339597e+00 4.1419019822909187e+00 3.5959913946429412e+00 0 0 0
131 1 2.4627153358191465e+00 -8.1662835969168901e-02 2.0466919279021307e+00 0 0 0
19 1 2.7154737215106834e+00 2.8628644531084388e+00 -5.8907448069301471e-01 0 0 0
149 1 5.5156333248585581e+00 2.6704492835220659e+00 2.3811892264294925e+00 0 0 0
151 1 8.6467165895796008e+00 2.6441214966302753e+00 2.0580572537019921e+00 0 0 0
6 2 7.0648842727339591e+00 1.2482226034841155e+00 6.5708447901038225e-01 0 0 0
134 2 7.1016367557265836e+00 1.1273526444920192e+00 3.6054977028366677e+00 0 0 0
22 2 6.8668270494803387e+00 4.1089626025320953e+00 5.6699120160862160e-01 0 0 0
150 2 7.2605858354545996e+00 4.0665831461643576e+00 3.7900496178049590e+00 0 0 0
5 1 5.4860855749564621e+00 -1.6948168517297113e-01 -7.8113920213232924e-01 0 0 0
133 1 5.5263921168000216e+00 -2.9489268195728224e-01 2.4081934369838143e+00 0 0 0
1441 1 5.4380909995312985e+00 1.1711224361247234e+01 2.2728079041098262e+01 0 0 0
153 1 1.1479112071220381e+01 2.7106521364028731e+00 2.3192050093084799e+00 0 0 0
8 2 9.9868657119560744e+00 1.1450339587107083e+00 7.7238832726012840e-01 0 0 0
136 2 1.0078893343006078e+01 1.1400328035958811e+00 3.6358385471292696e+00 0 0 0
24 2 1.0007047731637957e+01 4.2260397128014651e+00 9.5875462735446804e-01 0 0 0
152 2 9.9695713455173820e+00 4.3594056993688790e+00 3.9222041747838015e+00 0 0 0
10 2 1.3177664488434010e+01 1.2192562551523556e+00 8.4553232176324400e-01 0 0 0
138 2 1.2988059847095446e+01 9.7908901717490715e-01 3.7533005069711924e+00 0 0 0
26 2 1.3273276748205721e+01 4.1251897415877306e+00 6.0786368974844751e-01 0 0 0
154 2 1.3144314721947255e+01 4.0688995965645258e+00 3.6991924585694882e+00 0 0 0
9 1 1.1529544398299178e+01 -1.3954102430190624e-01 -6.1577089084283743e-01 0 0 0
25 1 1.1442389621774502e+01 2.5052367175780312e+00 -6.6123593053406093e-01 0 0 0
155 1 1.4605191747853233e+01 2.6157745374031487e+00 2.1755785659302767e+00 0 0 0
157 1 1.7694152116610468e+01 2.4316313410981696e+00 2.1985104787657783e+00 0 0 0
12 2 1.5926765147596843e+01 9.9995696811051582e-01 5.9984540623027027e-01 0 0 0
140 2 1.5977887209081665e+01 1.0203653589987138e+00 3.7290623999572423e+00 0 0 0
28 2 1.6217746993079761e+01 4.0388847049522081e+00 9.2393649838078562e-01 0 0 0
156 2 1.6117326792403812e+01 4.1514179247752274e+00 3.6548258606258468e+00 0 0 0
29 1 1.7447803242578278e+01 2.7034634329596212e+00 -5.9146299153622395e-01 0 0 0
1769 1 -3.8951893652373570e-01 -2.4832600462434401e-01 -4.1126416846768943e-01 0 0 1
145 1 2.3286156054562472e+01 2.6106842790650906e+00 2.0867726859062969e+00 -1 0 0
129 1 2.3396514500136288e+01 -3.3203062152769408e-01 2.1951942992985680e+00 -1 0 0
159 1 2.0528447976920184e+01 2.5617822375115105e+00 2.1265205620585164e+00 0 0 0
14 2 1.9154136204976677e+01 1.0389440395452354e+00 5.7332804844895002e-01 0 0 0
142 2 1.9025231565508797e+01 1.0609355535724430e+00 3.7245554324986667e+00 0 0 0
30 2 1.9065194209990153e+01 4.1651373317416382e+00 8.4306954168957793e-01 0 0 0
158 2 1.9283037183427265e+01 4.0300319116043131e+00 3.7286005551690842e+00 0 0 0
16 2 2.2017841100111401e+01 9.8285951403983529e-01 5.0181914862318933e-01 0 0 0
144 2 2.1990645099740647e+01 1.0282133095627906e+00 3.6328154870036808e+00 0 0 0
32 2 2.2177620654267564e+01 4.1648022879618001e+00 6.6010792848655808e-01 0 0 0
160 2 2.1942900000289004e+01 4.0474308826942078e+00 3.4997632777161378e+00 0 0 0
1949 1 8.8127320779973495e+00 -1.1786204945180428e-01 -4.2976348424047972e-01 1 1 1
1677 1 8.6500053093712967e+00 1.8009685230236045e+01 2.2948792945885934e+01 1 -1 0
161 1 -3.7800035476306831e-01 5.6586089679320590e+00 2.2725728924553783e+00 0 0 0
163 1 2.4747319190031853e+00 5.5786065509853300e+00 2.4260844899349783e+00 0 0 0
179 1 2.6717130154055875e+00 8.7514686239368995e+00 2.2842813749929798e+00 0 0 0
34 2 9.9057735923123280e-01 7.1679484441653445e+00 8.6309238461454152e-01 0 0 0
162 2 1.2559918163597847e+00 7.1328208761311478e+00 3.6909738260832947e+00 0 0 0
36 2 4.0089614272564891e+00 7.1722430165850710e+00 7.7781344727223045e-01 0 0 0
164 2 4.1307954705623109e+00 7.2684709567171213e+00 3.8714249222072254e+00 0 0 0
35 1 2.6693932691709632e+00 5.7406421996451220e+00 -6.7987933565979575e-01 0 0 0
165 1 5.5479258342457642e+00 5.7284849478055548e+00 2.2824841274826726e+00 0 0 0
181 1 5.4408365352808454e+00 8.7659286716889913e+00 2.2196784365598621e+00 0 0 0
167 1 8.2968171148053749e+00 5.5507789116444437e+00 2.3492669430010906e+00 0 0 0
183 1 8.4610739418927388e+00 8.4461554433583004e+00 2.3433366362711543e+00 0 0 0
38 2 7.0159046292968252e+00 7.2775389250875193e+00 8.0990036742198224e-01 0 0 0
166 2 6.9008906055648280e+00 7.2107916987648455e+00 3.7201383553900316e+00 0 0 0
39 1 8.6256066857351890e+00 5.5776475268113908e+00 -5.3133305522270824e-01 0 0 0
53 1 5.6415334667602641e+00 8.7501194142484167e+00 -6.6442229732552049e-01 0 0 0
65 1 1.4731013641540644e+01 1.1028981718943463e+01 -5.0150577615038516e-01 0 -1 0
41 1 1.1556026607386736e+01 5.5701741192276097e+00 -6.0037647536065952e-01 0 0 0
169 1 1.1705557493428641e+01 5.8112296093907236e+00 2.3114983394671378e+00 0 0 0
185 1 1.1475752003112826e+01 8.6070318599083961e+00 2.1544040068550019e+00 0 0 0
40 2 9.9803736785381414e+00 7.1080863141319073e+00 7.8310245287854396e-01 0 0 0
168 2 1.0301580575824886e+01 7.0221400817896678e+00 3.9014486543075471e+00 0 0 0
42 2 1.3052235392823830e+01 7.0787384488210714e+00 7.6277934834351635e-01 0 0 0
170 2 1.3211190641970424e+01 7.3721435946057010e+00 3.7577842208561583e+00 0 0 0
57 1 1.1472573553466328e+01 8.6801532795847844e+00 -6.9633617478288090e-01 0 0 0
171 1 1.4625781346495014e+01 5.5760660427857349e+00 2.2312520681576147e+00 0 0 0
59 1 1.4383848280526982e+01 8.5937031381906372e+00 -7.3591940823146751e-01 0 0 0
187 1 1.4497087004069009e+01 8.5877005049609600e+00 2.0762518281498328e+00 0 0 0
45 1 1.7661756656220813e+01 5.5705702139033306e+00 -6.7851413836251084e-01 0 0 0
173 1 1.7699346246760399e+01 5.5649003274111655e+00 2.2077969369545003e+00 0 0 0
189 1 1.7396261497440882e+01 8.5294409421410187e+00 2.3708338248293694e+00 0 0 0
44 2 1.5940466113729720e+01 6.9003004796971599e+00 8.2019897630690974e-01 0 0 0
172 2 1.6109166493208566e+01 6.9306173787204175e+00 3.8218734598155937e+00 0 0 0
43 1 1.4596695038111204e+01 5.5993356304870980e+00 -7.0667203724269390e-01 0 0 0
1613 1 1.4323072200931461e+01 1.4601219636410400e+01 -4.0316407184625247e-01 0 -1 1
177 1 2.3464149616624020e+01 8.7111352322771207e+00 2.3701295286800885e+00 -1 0 0
175 1 2.0597297577714119e+01 5.8249249303044506e+00 2.3961519943164973e+00 0 0 0
191 1 2.0395445658897099e+01 8.4560037413706883e+00 2.2326252741265376e+00 0 0 0
46 2 1.8967490064765407e+01 7.0649539064680225e+00 7.5830686247786594e-01 0 0 0
174 2 1.8954210206145266e+01 7.1133077341027526e+00 3.7571038506903429e+00 0 0 0
48 2 2.2130593052571957e+01 7.1705735090763270e+00 8.5610485394920777e-01 0 0 0
176 2 2.2047978073580282e+01 7.3104935911635964e+00 3.8620154900645183e+00 0 0 0
49 1 2.3474538757614212e+01 8.4258038500022376e+00 -7.7717665843000860e-01 -1 0 0
47 1 2.0541019673368911e+01 5.3964158584161321e+00 -7.6862538795646973e-01 0 0 0
63 1 2.0370189238988434e+01 8.5727066922436421e+00 -7.8295436995986478e-01 0 0 0
195 1 2.4549553763275824e+00 1.1515375361160959e+01 2.1098562229601758e+00 0 0 0
50 2 1.0865906073991796e+00 1.0068125947870458e+01 6.7212238587745965e-01 0 0 0
178 2 1.0206383018017093e+00 1.0286213559770928e+01 3.8102108553889638e+00 0 0 0
66 2 1.0835973526291500e+00 1.3182568871932652e+01 8.3860453657014067e-01 0 0 0
194 2 7.8318764736000701e-01 1.3228290135957590e+01 3.6655611351506181e+00 0 0 0
52 2 4.0426561830295347e+00 1.0117190563530750e+01 6.9646987610869826e-01 0 0 0
180 2 4.0108482712347779e+00 1.0096489468044110e+01 3.9552197133601030e+00 0 0 0
68 2 4.1432446278399482e+00 1.2964438386074963e+01 6.5640247427202869e-01 0 0 0
196 2 4.0569467891698929e+00 1.3113262976107443e+01 3.8170909209060806e+00 0 0 0
1615 1 2.5743747077745822e+00 1.1662260788301888e+01 -5.7901414983177679e-01 1 0 1
197 1 5.4815628483581680e+00 1.1561290722060425e+01 2.3441814686929456e+00 0 0 0
199 1 8.5852545236791684e+00 1.1484589841277215e+01 2.2099684183432937e+00 0 0 0
54 2 7.0635975191150040e+00 1.0208084140193526e+01 7.2109095218075558e-01 0 0 0
182 2 7.0616432403547247e+00 1.0202815924191484e+01 3.8784265829875055e+00 0 0 0
70 2 7.0756971598200904e+00 1.2955621424415975e+01 8.3191433214829913e-01 0 0 0
198 2 7.3056140032243784e+00 1.3014297799501289e+01 3.8252752212374679e+00 0 0 0
71 1 8.6744426856350731e+00 1.1748841079678797e+01 -7.0294782407627332e-01 0 0 0
201 1 1.1405131489727847e+01 1.1451542261253650e+01 2.3434197883770400e+00 0 0 0
56 2 9.8617724722328983e+00 9.9991500070436885e+00 7.5342229134913441e-01 0 0 0
184 2 9.8064507285310523e+00 1.0095800920729259e+01 3.6945850412536005e+00 0 0 0
72 2 1.0126910397158953e+01 1.3110117894363061e+01 8.5488555065626648e-01 0 0 0
200 2 1.0098389411782703e+01 1.3032449923488986e+01 3.8259087083052137e+00 0 0 0
58 2 1.2765419810596759e+01 1.0169576434560689e+01 7.8104701661783982e-01 0 0 0
186 2 1.3145984911644559e+01 1.0198172429776029e+01 3.6491904604446432e+00 0 0 0
74 2 1.3003034845598727e+01 1.3028806807888405e+01 6.1832089738803520e-01 0 0 0
202 2 1.3004064887258410e+01 1.3095987968440749e+01 3.5866134426816156e+00 0 0 0
1411 1 3.0862483760833141e+00 2.6771553593599018e+00 2.2615986042428069e+01 1 -1 0
203 1 1.4445065862320382e+01 1.1710824028731219e+01 2.0405798483690578e+00 0 0 0
205 1 1.7375425308002153e+01 1.1623302961810328e+01 2.3987106712718944e+00 0 0 0
60 2 1.6075007544600158e+01 1.0073178386313876e+01 8.7287054616296000e-01 0 0 0
188 2 1.6042370666367919e+01 1.0005164987027523e+01 3.6679099110909128e+00 0 0 0
76 2 1.6098000458039785e+01 1.3033511706218013e+01 5.8034693438798390e-01 0 0 0
204 2 1.5847592338607505e+01 1.3052570466822628e+01 3.7046438961016728e+00 0 0 0
77 1 1.7614040958491152e+01 1.1201236773304178e+01 -6.3686555891414676e-01 0 0 0
2033 1 2.3429260172609759e+01 1.7921248800773835e+01 -6.1153817648725961e-01 -1 0 1
193 1 2.3422589552213001e+01 1.1550500942570650e+01 2.2207168254128273e+00 -1 0 0
207 1 2.0507337697902656e+01 1.1594833336831025e+01 2.0944380159941978e+00 0 0 0
62 2 1.9167374402884757e+01 1.0028591289306789e+01 7.9657528670887956e-01 0 0 0
190 2 1.8948808523719741e+01 1.0133072622194065e+01 3.9007783600930912e+00 0 0 0
78 2 1.9028638909590100e+01 1.3002420259412448e+01 7.6592057616181686e-01 0 0 0
206 2 1.9056489188524829e+01 1.3098603239770348e+01 3.7577101381803386e+00 0 0 0
64 2 2.1875463891620363e+01 1.0076762345075476e+01 6.6476631673597630e-01 0 0 0
192 2 2.1867586042141909e+01 1.0126827275422654e+01 3.7239918179512914e+00 0 0 0
80 2 2.2135850339788419e+01 1.2905898151549630e+01 6.2779985490742685e-01 0 0 0
208 2 2.1971294461189270e+01 1.3085818201980118e+01 3.7154923087105889e+00 0 0 0
211 1 2.5768054983780773e+00 1.4756774690902555e+01 1.9506949584464413e+00 0 0 0
227 1 2.5145112712948041e+00 1.7532739235525330e+01 2.0320439369213608e+00 0 0 0
82 2 1.0994061714738201e+00 1.6070619677148930e+01 5.7328935425859173e-01 0 0 0
210 2 1.0415014630203276e+00 1.5948952146859430e+01 3.7546273407019859e+00 0 0 0
84 2 3.8668930571008078e+00 1.6107494626416955e+01 5.8919864871943317e-01 0 0 0
212 2 3.9518387642825052e+00 1.5875673659314899e+01 3.4691130426219967e+00 0 0 0
1353 1 1.4215567470653705e+01 2.0286297595684726e+01 2.2692528452696909e+01 0 -1 0
1705 1 8.9934323565323329e+00 2.8318354953870823e+00 2.2925981973709217e+01 1 0 0
1351 1 3.0307974183044264e+00 1.7847008760792161e+01 -5.6555507610921074e-01 0 0 1
213 1 5.5013786666599938e+00 1.4422716661185461e+01 2.2209331953763085e+00 0 0 0
229 1 5.6357315090844713e+00 1.7328367166084131e+01 2.2025979939639209e+00 0 0 0
215 1 8.5339307021897923e+00 1.4484872713102749e+01 2.1977467949565401e+00 0 0 0
103 1 8.3864219806202875e+00 1.7618849017883029e+01 -5.7360088790762398e-01 0 0 0
231 1 8.5084797975080786e+00 1.7373445806132239e+01 2.2551729004478815e+00 0 0 0
86 2 7.0117583804043297e+00 1.5899737098095137e+01 8.4067630265202586e-01 0 0 0
214 2 7.0903071963089683e+00 1.5891025694664126e+01 3.8044806839509713e+00 0 0 0
87 1 8.5847798651725356e+00 1.4571589115079863e+01 -7.2978373008736741e-01 0 0 0
85 1 5.5338793436555260e+00 1.4570672969870774e+01 -7.6459180526333825e-01 0 0 0
217 1 1.1441413341843045e+01 1.4560771911858293e+01 2.2050784258031757e+00 0 0 0
233 1 1.1404470033953990e+01 1.7539591618391043e+01 2.2951539556831002e+00 0 0 0
88 2 9.8628272284101648e+00 1.6189697658542002e+01 9.1942054898539993e-01 0 0 0
216 2 1.0087186831592705e+01 1.5993636127866097e+01 3.7017643340728448e+00 0 0 0
90 2 1.3013654368921422e+01 1.6058152753274609e+01 8.4076369960542330e-01 0 0 0
218 2 1.2926775851742891e+01 1.5874807295856041e+01 3.7379822294617480e+00 0 0 0
105 1 1.1284253808621157e+01 1.7583456503351506e+01 -4.3685654207966323e-01 0 0 0
89 1 1.1470704847098828e+01 1.4608260511347421e+01 -7.3947375698924800e-01 0 0 0
219 1 1.4349146148407524e+01 1.4418398753861371e+01 2.1040227967246996e+00 0 0 0
107 1 1.4704689248779108e+01 1.7626563081704049e+01 -7.6245268364841590e-01 0 0 0
235 1 1.4702627433192109e+01 1.7493542766104607e+01 2.2057909297472111e+00 0 0 0
221 1 1.7678222647933513e+01 1.4550843500308067e+01 2.1971474993113120e+00 0 0 0
237 1 1.7710101779416508e+01 1.7445123323179939e+01 2.2103676738977223e+00 0 0 0
92 2 1.6102156694886599e+01 1.5940769522778947e+01 6.3795743114275405e-01 0 0 0
220 2 1.5934995980239918e+01 1.5902664526200983e+01 3.6653610856097378e+00 0 0 0
109 1 1.7562128792465742e+01 1.7612932159975028e+01 -6.2266070068918078e-01 0 0 0
1521 1 1.4505738331969416e+01 1.4826449882405322e+01 2.2839536374752104e+01 0 -1 0
225 1 2.3374318964300020e+01 1.7423675039445051e+01 2.1699455237257443e+00 -1 0 0
209 1 2.3343740067754627e+01 1.4691604757021040e+01 2.0655277901782578e+00 -1 0 0
223 1 2.0551600432920747e+01 1.4390384979082313e+01 2.1109417595180111e+00 0 0 0
239 1 2.0539395400735508e+01 1.7740741290919079e+01 2.2056011786366874e+00 0 0 0
94 2 1.9080241340586348e+01 1.6028078117509843e+01 4.9414432580251622e-01 0 0 0
222 2 1.9098068123725874e+01 1.5967386996415357e+01 3.5834667927970640e+00 0 0 0
96 2 2.1825513582568977e+01 1.6103938458128415e+01 7.0782001196369992e-01 0 0 0
224 2 2.1873180396286116e+01 1.6029592993595667e+01 3.8529872903204918e+00 0 0 0
81 1 2.3401526961293385e+01 1.4496693820235183e+01 -7.7056310134137740e-01 -1 0 0
243 1 2.4310093333813825e+00 2.0400255084384991e+01 2.1726784104250130e+00 0 0 0
98 2 1.0851738196620129e+00 1.9108897651251525e+01 4.9202944922473657e-01 0 0 0
226 2 9.9843541889754595e-01 1.8856293895991268e+01 3.5359156945983683e+00 0 0 0
114 2 1.3001193917017602e+00 2.1996951694572115e+01 7.0566231315545580e-01 0 0 0
242 2 1.0852119618059548e+00 2.1865061634621803e+01 3.5787231299374103e+00 0 0 0
100 2 4.0668369404810054e+00 1.9162954041788836e+01 6.8876021190832826e-01 0 0 0
228 2 4.1363371221575314e+00 1.9019138049037377e+01 3.7483462026075127e+00 0 0 0
116 2 4.2202997010564394e+00 2.2351921258552995e+01 7.6916966754984251e-01 0 0 0
244 2 3.8989983807865611e+00 2.2236110068571907e+01 3.6243558769505766e+00 0 0 0
878 2 1.8838516588221729e+01 1.8990522501196445e+01 1.8625088279131944e+01 0 0 0
135 1 8.6132617448493178e+00 2.3347581083926929e+01 2.1496479528038122e+00 0 -1 0
245 1 5.5201406982047780e+00 2.0650225059163699e+01 2.3379537921539026e+00 0 0 0
247 1 8.3782760200401221e+00 2.0502722343542757e+01 2.1880634193968747e+00 0 0 0
102 2 6.9939658294927334e+00 1.8952970839192542e+01 7.8798457967112601e-01 0 0 0
230 2 7.0455296879838665e+00 1.9040404716252240e+01 3.7108320209084207e+00 0 0 0
118 2 6.9009006354505242e+00 2.1929996769083516e+01 7.3161529404449221e-01 0 0 0
246 2 7.1588317234582641e+00 2.2111859593498195e+01 3.6168418998188887e+00 0 0 0
137 1 1.1482076964355487e+01 2.3496468498391625e+01 2.1251846110649155e+00 0 -1 0
121 1 1.1309388817145784e+01 2.0489434239301321e+01 -7.0318766408607902e-01 0 0 0
249 1 1.1466776172601957e+01 2.0295152778779720e+01 2.1768773833192592e+00 0 0 0
104 2 9.7802745853756594e+00 1.9078028451339303e+01 8.7383417192125967e-01 0 0 0
232 2 9.9587396116982401e+00 1.8973794484103099e+01 3.6452709823090252e+00 0 0 0
120 2 1.0039611423864786e+01 2.1883299263450656e+01 6.2669850328021193e-01 0 0 0
248 2 9.9930009263144903e+00 2.2054728953371121e+01 3.6421272413861745e+00 0 0 0
106 2 1.3062410559474586e+01 1.8970068735461041e+01 7.4593424802427455e-01 0 0 0
234 2 1.3241597272705102e+01 1.8979865293601360e+01 3.6587561998383213e+00 0 0 0
122 2 1.2941298999175434e+01 2.1984336975120996e+01 6.7710456819365095e-01 0 0 0
250 2 1.2961692507629179e+01 2.1933406773192264e+01 3.5929159683503986e+00 0 0 0
139 1 1.4367467106716086e+01 2.3381513530128512e+01 2.2019369124772799e+00 0 -1 0
141 1 1.7620874218482559e+01 2.3379798586030848e+01 2.1619884831441891e+00 0 -1 0
13 1 1.7524962932591098e+01 2.3261292228630900e+01 -6.5455702063878141e-01 0 -1 0
251 1 1.4377302648310152e+01 2.0594952044567371e+01 2.2160194424916360e+00 0 0 0
253 1 1.7579782893429442e+01 2.0463076378606910e+01 2.2193785731439908e+00 0 0 0
108 2 1.6028743169607463e+01 1.9164361840277266e+01 7.6821102170545297e-01 0 0 0
236 2 1.6134389204435326e+01 1.8911455895056218e+01 3.6130311662331360e+00 0 0 0
124 2 1.6118905996021656e+01 2.1976919981219794e+01 7.3466899468137004e-01 0 0 0
252 2 1.6050330575258403e+01 2.2087576765004190e+01 3.6402188060442144e+00 0 0 0
123 1 1.4568363454429287e+01 2.0525220595785559e+01 -7.3966183647195405e-01 0 0 0
11 1 1.4544117848082415e+01 2.3382646556724303e+01 -6.9380892252998305e-01 0 -1 0
1647 1 8.7477957974474894e+00 2.8536334007462845e+00 -1.1497426526589338e-01 1 1 1
143 1 2.0743265658200137e+01 2.3440848579574144e+01 2.1398765479230195e+00 0 -1 0
241 1 2.3300746144318033e+01 2.0581735820874844e+01 2.1526954924137902e+00 -1 0 0
255 1 2.0549944855152855e+01 2.0636624683725103e+01 2.3103214893084427e+00 0 0 0
110 2 1.9224066844928288e+01 1.9186269565746677e+01 6.0274633258977572e-01 0 0 0
238 2 1.9018266927612316e+01 1.8995275020236939e+01 3.4982853700425292e+00 0 0 0
126 2 1.9065195478066400e+01 2.1845827147413814e+01 7.2365664105557381e-01 0 0 0
254 2 1.9025388554136722e+01 2.2052318288745322e+01 3.7505682802659273e+00 0 0 0
112 2 2.1983192639218281e+01 1.8995011883052921e+01 6.5539074069656378e-01 0 0 0
240 2 2.2102248162368863e+01 1.9194754415674435e+01 3.6353778393415332e+00 0 0 0
128 2 2.2111531621444051e+01 2.1885984263961809e+01 4.6357079567287052e-01 0 0 0
256 2 2.1940237657102809e+01 2.1897765999615459e+01 3.9273639308910653e+00 0 0 0
275 1 2.7174194047214106e+00 2.5855404790962240e+00 5.3419384142418602e+00 0 0 0
403 1 2.5969573204601768e+00 2.8017449314813194e+00 8.1994299908647985e+00 0 0 0
258 2 8.6561152186892887e-01 1.1379502246718693e+00 6.6488113073260600e+00 0 0 0
274 2 9.7918401173601577e-01 3.9163644694867337e+00 6.6495910141168659e+00 0 0 0
260 2 3.8503402131250919e+00 1.1311268892106017e+00 6.7212559218588730e+00 0 0 0
276 2 3.9737583744592255e+00 4.1555107816678687e+00 6.7570108542330081e+00 0 0 0
385 1 -3.8708341267860036e-01 -3.3691585289610482e-01 8.2309581265027365e+00 0 0 0
401 1 -2.7796417854843075e-01 2.6999305943758118e+00 8.2280663691988529e+00 0 0 0
259 1 2.3042717141205444e+00 -3.7794778184723660e-01 5.2352140757122427e+00 0 0 0
277 1 5.6166861543535829e+00 2.8208431938801071e+00 5.2529994799195121e+00 0 0 0
405 1 5.4417783664785961e+00 2.8436683992258320e+00 8.1991561175825431e+00 0 0 0
263 1 8.3608693135882657e+00 -3.4774595855491341e-01 5.3020813204009620e+00 0 0 0
391 1 8.5105909371261301e+00 -3.2127364940792758e-01 8.1375254181657866e+00 0 0 0
279 1 8.6491552580546553e+00 2.5370323527216900e+00 5.1570558964195978e+00 0 0 0
407 1 8.5729233153714954e+00 2.6315551621598163e+00 8.2144957384764261e+00 0 0 0
262 2 7.0492809202480506e+00 1.3342716824078453e+00 6.5366604679433777e+00 0 0 0
278 2 7.0487992960549306e+00 4.1272263627620758e+00 6.6318672113794319e+00 0 0 0
261 1 5.4145289570480637e+00 -3.5987129524409273e-01 5.1622324571225153e+00 0 0 0
393 1 1.1587309760998357e+01 -2.1675716417403298e-01 8.1308448565727129e+00 0 0 0
281 1 1.1480753683264323e+01 2.5354406907055869e+00 5.1628559632717215e+00 0 0 0
409 1 1.1723309707280622e+01 2.6079036875390709e+00 8.0335930300798157e+00 0 0 0
264 2 1.0067378757188528e+01 9.8915722581117449e-01 6.8381848439380031e+00 0 0 0
280 2 1.0058934455674583e+01 4.0820807517975464e+00 6.8671010165128079e+00 0 0 0
266 2 1.2865607369245051e+01 1.1285812213254460e+00 6.6692305735527055e+00 0 0 0
282 2 1.3123993260036455e+01 3.9808786046541531e+00 6.5473365758311468e+00 0 0 0
267 1 1.4322736985159111e+01 -2.6965230967789350e-01 5.2244251850510537e+00 0 0 0
283 1 1.4645257401175636e+01 2.4843032658646522e+00 5.0708839714769844e+00 0 0 0
411 1 1.4482098087687978e+01 2.8056765437004469e+00 8.1501299850384790e+00 0 0 0
269 1 1.7338394547702684e+01 -3.3343442215923047e-01 5.5765871937962261e+00 0 0 0
285 1 1.7413906848033587e+01 2.5036536591686041e+00 5.3047612287275792e+00 0 0 0
413 1 1.7775656838683052e+01 2.6362633318608757e+00 8.2601076658870483e+00 0 0 0
268 2 1.5936632252793633e+01 1.1873620839616557e+00 6.7612235838264345e+00 0 0 0
284 2 1.6117450572464488e+01 4.1127953212331922e+00 6.6688347563860759e+00 0 0 0
257 1 2.3439629733250634e+01 -3.8222178563242182e-01 4.9996545975193891e+00 -1 0 0
273 1 2.3438731035645791e+01 2.4548523139101808e+00 5.0017532594097958e+00 -1 0 0
399 1 2.0595895869130189e+01 -3.1919981457847801e-01 8.1613313729070427e+00 0 0 0
287 1 2.0485716351979068e+01 2.4063710493516690e+00 5.2129456039107751e+00 0 0 0
415 1 2.0518377393752512e+01 2.3444400300357762e+00 8.2490997470148422e+00 0 0 0
270 2 1.9124094688634582e+01 1.0136541797600578e+00 6.7255961028408304e+00 0 0 0
286 2 1.9113080648582631e+01 3.9006141975009294e+00 6.6600420085549592e+00 0 0 0
272 2 2.2008116802824279e+01 1.1865406886646988e+00 6.8183465625394115e+00 0 0 0
288 2 2.1873926386247764e+01 3.8583227562307849e+00 6.6510721991495831e+00 0 0 0
291 1 2.3728418798073587e+00 5.6431013964102306e+00 5.2632103709775349e+00 0 0 0
419 1 2.5528741606635657e+00 5.8107811506107065e+00 8.1661649116062272e+00 0 0 0
307 1 2.5865599882808814e+00 8.6257660142929833e+00 5.3965975227507252e+00 0 0 0
435 1 2.6569772780610301e+00 8.8359744260684696e+00 8.0646128555506227e+00 0 0 0
290 2 1.0596732000816740e+00 7.2218696810946614e+00 6.8674516167749688e+00 0 0 0
292 2 4.1704210769335477e+00 7.0950411755731526e+00 6.7892877300436840e+00 0 0 0
417 1 -3.6290120502923368e-01 5.7391016076745256e+00 8.3143069342689575e+00 0 0 0
433 1 -3.6376370265178082e-01 8.5546535840604729e+00 8.3770141086006404e+00 0 0 0
293 1 5.4265433202747140e+00 5.6077989206827965e+00 5.0099501798721038e+00 0 0 0
421 1 5.5472603546348180e+00 5.4570015703795303e+00 8.3066753191239062e+00 0 0 0
309 1 5.4605541244995734e+00 8.5838380949712008e+00 5.3903516251215606e+00 0 0 0
437 1 5.8033344699063116e+00 8.6779048158207193e+00 8.1189895162025039e+00 0 0 0
295 1 8.6035241972681806e+00 5.6636863670395217e+00 5.4895240948857982e+00 0 0 0
423 1 8.6503021774966200e+00 5.6292948771589293e+00 8.1602676338127331e+00 0 0 0
311 1 8.5418195959479863e+00 8.5542838706404112e+00 5.2844211633194176e+00 0 0 0
439 1 8.4826342802812231e+00 8.5218527883129873e+00 8.2092362361404962e+00 0 0 0
294 2 7.0095907757374327e+00 7.0279206244298793e+00 6.7200033995907118e+00 0 0 0
297 1 1.1880956592547884e+01 5.7145270685271736e+00 5.2254447928438994e+00 0 0 0
425 1 1.1641429696750881e+01 5.6946009336388768e+00 8.1996614068464417e+00 0 0 0
313 1 1.1569454600402125e+01 8.6412955013149997e+00 5.1302557702815070e+00 0 0 0
441 1 1.1785214816577618e+01 8.5838580569186309e+00 8.2366899681238959e+00 0 0 0
296 2 1.0311341865318981e+01 7.2246072823799237e+00 6.7322282876284190e+00 0 0 0
298 2 1.3104635118583040e+01 7.1589886229706474e+00 6.6431511962614591e+00 0 0 0
299 1 1.4611614165932357e+01 5.5725070527859284e+00 5.2924917633125643e+00 0 0 0
427 1 1.4642310027897350e+01 5.6144110904844444e+00 8.2702224805992035e+00 0 0 0
315 1 1.4618997741750263e+01 8.8349907574103774e+00 5.1261963267995636e+00 0 0 0
443 1 1.4412117361355927e+01 8.5492692139053030e+00 8.1973472368208409e+00 0 0 0
301 1 1.7562292833666845e+01 5.5697619288155087e+00 5.2595274289642067e+00 0 0 0
429 1 1.7727887718826143e+01 5.6782000038254550e+00 8.1688303437041210e+00 0 0 0
317 1 1.7487656642367483e+01 8.5661058824856955e+00 5.3258358385027149e+00 0 0 0
445 1 1.7525323967891495e+01 8.2813464147887377e+00 8.1337939542896578e+00 0 0 0
300 2 1.5989412684869123e+01 7.1968807125268910e+00 6.8257532407015642e+00 0 0 0
289 1 2.3466006421340968e+01 5.4964666749181026e+00 5.2258409997246433e+00 -1 0 0
305 1 2.3442429219183026e+01 8.6253757276017105e+00 5.1936490456997051e+00 -1 0 0
303 1 2.0615678316160576e+01 5.4238602781573508e+00 5.0524686665428895e+00 0 0 0
431 1 2.0877071468752497e+01 5.6221289348312764e+00 8.1334981919390188e+00 0 0 0
319 1 2.0457640861836826e+01 8.4210797277633027e+00 5.1870888433510132e+00 0 0 0
447 1 2.0513849260292204e+01 8.5225719510608613e+00 7.9841944381716452e+00 0 0 0
302 2 1.9333656529737940e+01 6.6667119851952759e+00 6.7188190468353728e+00 0 0 0
304 2 2.2129955412944199e+01 7.0617864101986205e+00 6.7752209637011784e+00 0 0 0
323 1 2.6716864219407270e+00 1.1592965999951797e+01 5.1298551191461099e+00 0 0 0
451 1 2.6412298344250109e+00 1.1593653617182440e+01 8.3223636588893548e+00 0 0 0
306 2 1.0694006447021911e+00 1.0229477708521916e+01 6.7638911797692032e+00 0 0 0
322 2 1.2032342742099758e+00 1.3106861466545670e+01 6.6456879423881157e+00 0 0 0
308 2 4.0440005337947822e+00 1.0202545190697446e+01 6.8238064635821409e+00 0 0 0
324 2 4.1059191432429882e+00 1.3157606752341060e+01 6.6196973544748694e+00 0 0 0
325 1 5.6140235140945336e+00 1.1575306953529676e+01 5.2835129365993758e+00 0 0 0
453 1 5.6724460978967821e+00 1.1643029377103375e+01 8.2699938021622028e+00 0 0 0
327 1 8.7329082490718708e+00 1.1488009492614033e+01 5.3294117349216528e+00 0 0 0
455 1 8.5465019854897442e+00 1.1475976294227815e+01 8.1861274373434707e+00 0 0 0
310 2 7.1387773764833842e+00 1.0122217387773576e+01 6.7203444476696230e+00 0 0 0
326 2 7.0974742912121274e+00 1.3221330934668243e+01 6.6527912536044820e+00 0 0 0
329 1 1.1363023730301828e+01 1.1459252092143499e+01 5.2897429609413340e+00 0 0 0
457 1 1.1720839885881192e+01 1.1583571930170816e+01 8.3424613231106708e+00 0 0 0
312 2 1.0167967063142489e+01 9.9263945451944267e+00 6.8828791496912398e+00 0 0 0
328 2 1.0073118726149787e+01 1.3075971685070769e+01 6.7686443485985608e+00 0 0 0
314 2 1.2987953217275921e+01 1.0083888088163283e+01 6.6104605994916259e+00 0 0 0
330 2 1.3067120864034781e+01 1.2993009961339578e+01 6.8005923443794174e+00 0 0 0
331 1 1.4668109735228533e+01 1.1797369120998962e+01 5.4520593957328147e+00 0 0 0
459 1 1.4482061450207722e+01 1.1237238813156067e+01 8.1024747805640054e+00 0 0 0
333 1 1.7460540530846789e+01 1.1686218631888101e+01 5.2840102939115203e+00 0 0 0
461 1 1.7697002021768331e+01 1.1314645325274238e+01 8.2266183134234439e+00 0 0 0
316 2 1.6196266080165497e+01 1.0024614600058543e+01 6.6455544397111836e+00 0 0 0
332 2 1.6094093433786036e+01 1.3211274277576541e+01 7.0935282453023758e+00 0 0 0
321 1 2.3466350951725662e+01 1.1769598811045990e+01 5.2198922088778206e+00 -1 0 0
449 1 2.3445539297182638e+01 1.1475780258320533e+01 8.3810568682217177e+00 -1 0 0
335 1 2.0412634417562604e+01 1.1585085328035307e+01 5.3794008990772619e+00 0 0 0
463 1 2.0550752655762320e+01 1.1393742806895956e+01 8.1671666067015547e+00 0 0 0
318 2 1.9089594483296878e+01 9.7835984150861606e+00 6.6227550809472842e+00 0 0 0
334 2 1.8995268760681018e+01 1.2968532752189624e+01 7.0175681967321326e+00 0 0 0
320 2 2.2074054277467170e+01 1.0182528339531318e+01 6.6140939768356306e+00 0 0 0
336 2 2.1999902112901065e+01 1.3176996488031094e+01 6.5150765306023120e+00 0 0 0
339 1 2.6067055356821900e+00 1.4698435578139364e+01 5.0779623297037002e+00 0 0 0
467 1 2.6890368069979513e+00 1.4580886955639810e+01 8.1480568126114363e+00 0 0 0
355 1 2.5283687105606316e+00 1.7561954436343104e+01 5.1543386461500162e+00 0 0 0
483 1 2.8188426238384370e+00 1.7432927532666966e+01 8.1105493327782749e+00 0 0 0
338 2 1.0237870005131475e+00 1.6106335831244273e+01 6.5600801635371022e+00 0 0 0
340 2 4.2842476170150778e+00 1.5881113305784599e+01 6.5693744550133060e+00 0 0 0
337 1 -1.3773119011318818e-01 1.4621733577469318e+01 5.1773335835112597e+00 0 0 0
465 1 -2.8767253945762938e-01 1.4578200436366556e+01 8.1796873781133304e+00 0 0 0
341 1 5.6975872147420947e+00 1.4542313580621776e+01 5.0952689553581862e+00 0 0 0
469 1 5.6164367977168865e+00 1.4638464300671973e+01 8.2970581086884714e+00 0 0 0
357 1 5.4917310339951113e+00 1.7520472304599238e+01 5.1370826751065168e+00 0 0 0
485 1 5.5031008907478105e+00 1.7584797852259531e+01 8.0401502840035057e+00 0 0 0
343 1 8.8408487749204703e+00 1.4584383606789421e+01 5.2377854757775770e+00 0 0 0
471 1 8.6049222797046294e+00 1.4755510477902275e+01 8.1348788586171032e+00 0 0 0
359 1 8.5290660485152525e+00 1.7621190235064226e+01 5.0949630524649736e+00 0 0 0