# LAMMPS data file written by OVITO Basic 3.1.0
2 atoms
2 atom types
0.0 4 xlo xhi
0.0 4 ylo yhi
0.0 4 zlo zhi

Atoms  # atomic

1 1 0.0 0.0 0.0
2 2 2 2 2
