ITEM: TIMESTEP
0
ITEM: NUMBER OF ATOMS
2048
ITEM: BOX BOUNDS pp pp pp
1.1698748763215505e-01 2.2986228512367262e+01
1.1698748763215505e-01 2.2986228512367262e+01
2.3397497526431010e-01 4.5972457024734524e+01
ITEM: ATOMS id type x y z 
147 1 2.8868 3.15861 3.05299 
2 2 1.41342 1.63776 1.5679 
130 2 1.66558 1.50035 4.43349 
18 2 1.54427 4.55962 1.57299 
146 2 1.51613 4.33738 4.57028 
4 2 4.53393 1.83668 1.77336 
132 2 4.30493 1.6573 4.6794 
20 2 4.49541 4.66754 1.74915 
148 2 4.25532 4.45881 4.43029 
131 1 2.85144 0.415878 2.94725 
19 1 3.09338 3.23447 0.424216 
149 1 5.77378 3.05029 3.26745 
151 1 8.77096 3.02508 2.95813 
6 2 7.25678 1.68889 1.61708 
134 2 7.29196 1.57319 4.43939 
22 2 7.06719 4.42728 1.53084 
150 2 7.44411 4.38671 4.61605 
5 1 5.7455 0.331815 0.240366 
133 1 5.78408 0.211768 3.29329 
153 1 11.4822 3.08877 3.20811 
8 2 10.0538 1.59011 1.72745 
136 2 10.1419 1.58532 4.46843 
24 2 10.0731 4.53935 1.90585 
152 2 10.0372 4.66701 4.74255 
10 2 13.1081 1.66116 1.79747 
138 2 12.9266 1.43126 4.58087 
26 2 13.1996 4.44281 1.56996 
154 2 13.0762 4.38893 4.52908 
9 1 11.5305 0.360475 0.398662 
25 1 11.4471 2.89214 0.355141 
155 1 14.4746 2.99795 3.07063 
157 1 17.4314 2.82168 3.09258 
12 2 15.7396 1.45124 1.56229 
140 2 15.7886 1.47077 4.55767 
28 2 16.0182 4.36019 1.87252 
156 2 15.9221 4.46792 4.48661 
29 1 17.1956 3.08189 0.42193 
145 1 22.7843 2.99308 2.98562 
129 1 22.8899 0.176218 3.08941 
159 1 20.1445 2.94627 3.02367 
14 2 18.829 1.48856 1.5369 
142 2 18.7056 1.50961 4.55336 
30 2 18.7438 4.48105 1.79511 
158 2 18.9524 4.35172 4.55723 
16 2 21.5702 1.43487 1.46845 
144 2 21.5442 1.47829 4.46554 
32 2 21.7232 4.48073 1.61997 
160 2 21.4985 4.36838 4.33818 
161 1 0.132215 5.91065 3.16347 
163 1 2.86294 5.83406 3.31042 
179 1 3.0515 8.87123 3.17468 
34 2 1.44226 7.35543 1.81428 
162 2 1.69632 7.32181 4.52121 
36 2 4.33155 7.35954 1.73264 
164 2 4.44817 7.45166 4.69395 
35 1 3.04927 5.98917 0.337295 
165 1 5.8047 5.97753 3.17296 
181 1 5.70219 8.88507 3.11284 
167 1 8.43602 5.80743 3.23689 
183 1 8.59325 8.57897 3.23121 
38 2 7.20989 7.46034 1.76336 
166 2 7.0998 7.39644 4.54913 
39 1 8.75075 5.83315 0.479488 
53 1 5.8943 8.86994 0.352091 
41 1 11.5558 5.82599 0.413398 
169 1 11.699 6.05674 3.20074 
185 1 11.479 8.73297 3.05036 
40 2 10.0476 7.29813 1.73771 
168 2 10.355 7.21586 4.72269 
42 2 12.9881 7.27004 1.71825 
170 2 13.1402 7.55089 4.58516 
57 1 11.476 8.80296 0.321542 
171 1 14.4943 5.83163 3.12392 
59 1 14.2627 8.72021 0.283652 
187 1 14.3711 8.71446 2.97555 
45 1 17.4004 5.82637 0.338602 
173 1 17.4364 5.82094 3.10147 
189 1 17.1463 8.6587 3.25753 
44 2 15.7528 7.09923 1.77322 
172 2 15.9142 7.12825 4.64651 
43 1 14.4665 5.85391 0.311648 
177 1 22.9547 8.83262 3.25686 
175 1 20.2104 6.06985 3.28177 
191 1 20.0172 8.5884 3.12524 
46 2 18.6503 7.25684 1.71397 
174 2 18.6376 7.30313 4.58451 
48 2 21.6781 7.35795 1.80759 
176 2 21.5991 7.49188 4.68494 
49 1 22.9646 8.55949 0.244159 
47 1 20.1566 5.65967 0.252344 
63 1 19.993 8.70011 0.238628 
195 1 2.84401 11.5169 3.00772 
50 2 1.53417 10.1316 1.63147 
178 2 1.47104 10.3403 4.63535 
66 2 1.5313 13.1128 1.79084 
194 2 1.24374 13.1566 4.49689 
52 2 4.3638 10.1785 1.65478 
180 2 4.33336 10.1587 4.77416 
68 2 4.46009 12.904 1.61643 
196 2 4.37748 13.0465 4.64194 
197 1 5.74117 11.5609 3.23202 
199 1 8.71212 11.4875 3.10355 
54 2 7.25554 10.2655 1.67835 
182 2 7.25367 10.2605 4.70065 
70 2 7.26713 12.8956 1.78443 
198 2 7.48721 12.9517 4.64977 
71 1 8.7975 11.7404 0.315213 
201 1 11.4114 11.4558 3.23129 
56 2 9.93404 10.0655 1.7093 
184 2 9.88109 10.1581 4.52467 
72 2 10.1878 13.0435 1.80642 
200 2 10.1605 12.9691 4.65038 
58 2 12.7135 10.2287 1.73574 
186 2 13.0778 10.2561 4.48122 
74 2 12.941 12.9656 1.57997 
202 2 12.9419 13.0299 4.42131 
203 1 14.3213 11.704 2.9414 
205 1 17.1263 11.6202 3.28422 
60 2 15.8815 10.1364 1.82364 
188 2 15.8503 10.0713 4.49913 
76 2 15.9036 12.9701 1.54362 
204 2 15.6639 12.9884 4.5343 
77 1 17.3548 11.2162 0.378469 
193 1 22.9149 11.5505 3.11384 
207 1 20.1243 11.593 2.99296 
62 2 18.8417 10.0937 1.7506 
190 2 18.6324 10.1937 4.72204 
78 2 18.7089 12.9404 1.72126 
206 2 18.7355 13.0324 4.58509 
64 2 21.4339 10.1398 1.62443 
192 2 21.4264 10.1878 4.55282 
80 2 21.6832 12.848 1.58905 
208 2 21.5257 13.0202 4.54468 
211 1 2.96065 14.6197 2.85536 
227 1 2.90102 17.2769 2.93323 
82 2 1.54643 15.8773 1.53687 
210 2 1.49101 15.7609 4.58214 
84 2 4.19556 15.9126 1.5521 
212 2 4.27687 15.6907 4.30884 
213 1 5.76014 14.2999 3.11404 
229 1 5.88875 17.0813 3.09649 
215 1 8.66299 14.3594 3.09185 
103 1 8.52179 17.3594 0.439028 
231 1 8.63863 17.1245 3.14682 
86 2 7.20592 15.7138 1.79282 
214 2 7.28111 15.7054 4.62986 
87 1 8.71167 14.4424 0.289525 
85 1 5.79125 14.4416 0.256206 
217 1 11.4461 14.4321 3.09887 
233 1 11.4108 17.2835 3.18509 
88 2 9.93505 15.9913 1.86819 
216 2 10.1498 15.8037 4.53154 
90 2 12.9511 15.8654 1.7929 
218 2 12.868 15.6899 4.56621 
105 1 11.2957 17.3255 0.569924 
89 1 11.4742 14.4775 0.280249 
219 1 14.2295 14.2958 3.00213 
107 1 14.5698 17.3667 0.258253 
235 1 14.5679 17.2394 3.09955 
221 1 17.4162 14.4226 3.09127 
237 1 17.4467 17.1931 3.10393 
92 2 15.9075 15.7531 1.59877 
220 2 15.7475 15.7166 4.49669 
109 1 17.3051 17.3537 0.392066 
225 1 22.8687 17.1725 3.06524 
209 1 22.8394 14.5573 2.96528 
223 1 20.1667 14.269 3.00876 
239 1 20.155 17.476 3.09937 
94 2 18.7583 15.8366 1.46111 
222 2 18.7753 15.7785 4.4183 
96 2 21.3861 15.9092 1.66564 
224 2 21.4317 15.8381 4.6763 
81 1 22.8947 14.3707 0.25049 
243 1 2.82109 20.0218 3.06785 
98 2 1.53281 18.7857 1.45908 
226 2 1.44978 18.5439 4.37279 
114 2 1.73856 21.5502 1.66358 
242 2 1.53285 21.424 4.41376 
100 2 4.38695 18.8374 1.6474 
228 2 4.45348 18.6998 4.57613 
116 2 4.53385 21.89 1.72437 
244 2 4.22629 21.7791 4.45744 
135 1 8.73893 22.8431 3.04581 
245 1 5.7781 20.2611 3.22606 
247 1 8.514 20.1199 3.08258 
102 2 7.18889 18.6364 1.74238 
230 2 7.23825 18.7201 4.54022 
118 2 7.09981 21.4861 1.68842 
246 2 7.34671 21.6602 4.45025 
137 1 11.4851 22.9856 3.02239 
121 1 11.3197 20.1072 0.314983 
249 1 11.4704 19.9212 3.07187 
104 2 9.85603 18.7561 1.82456 
232 2 10.0269 18.6564 4.47746 
120 2 10.1043 21.4414 1.58799 
248 2 10.0597 21.6055 4.47445 
106 2 12.9978 18.6528 1.70213 
234 2 13.1693 18.6622 4.49037 
122 2 12.8819 21.5381 1.63624 
250 2 12.9014 21.4894 4.42735 
139 1 14.247 22.8756 3.09586 
141 1 17.3613 22.8739 3.05762 
13 1 17.2695 22.7605 0.361534 
251 1 14.2565 20.2082 3.10934 
253 1 17.322 20.0819 3.11256 
108 2 15.8373 18.8388 1.72345 
236 2 15.9384 18.5967 4.4466 
124 2 15.9236 21.531 1.69134 
252 2 15.8579 21.637 4.47263 
123 1 14.4393 20.1414 0.280069 
11 1 14.4161 22.8766 0.323961 
143 1 20.3501 22.9324 3.03645 
241 1 22.7982 20.1955 3.04872 
255 1 20.1651 20.2481 3.19961 
110 2 18.8959 18.8597 1.56506 
238 2 18.6989 18.6769 4.33676 
126 2 18.7438 21.4056 1.6808 
254 2 18.7057 21.6032 4.57826 
112 2 21.537 18.6767 1.61546 
240 2 21.651 18.8679 4.46799 
128 2 21.6599 21.444 1.43184 
256 2 21.4959 21.4553 4.74749 
275 1 3.09525 2.96901 6.10157 
403 1 2.97994 3.17597 8.83685 
258 2 1.32264 1.58333 7.35255 
274 2 1.43135 4.24291 7.35329 
260 2 4.17971 1.5768 7.42189 
276 2 4.29785 4.47183 7.45612 
385 1 0.12352 0.171542 8.86703 
401 1 0.227972 3.07851 8.86426 
259 1 2.69977 0.132265 5.99941 
277 1 5.87052 3.19425 6.01643 
405 1 5.70309 3.2161 8.83658 
263 1 8.49733 0.161175 6.06341 
391 1 8.64065 0.186515 8.77759 
279 1 8.77329 2.92257 5.92459 
407 1 8.70032 3.01306 8.85127 
262 2 7.24184 1.77125 7.24519 
278 2 7.24138 4.44476 7.33633 
261 1 5.677 0.149568 5.92955 
393 1 11.5858 0.286562 8.7712 
281 1 11.4838 2.92105 5.93014 
409 1 11.716 2.99042 8.6781 
264 2 10.1309 1.4409 7.53382 
280 2 10.1228 4.40154 7.5615 
266 2 12.8094 1.57436 7.37209 
282 2 13.0567 4.30467 7.25541 
267 1 14.2042 0.235929 5.98908 
283 1 14.5129 2.8721 5.84211 
411 1 14.3568 3.17973 8.78966 
269 1 17.0909 0.174874 6.32618 
285 1 17.1632 2.89062 6.06598 
413 1 17.5095 3.01756 8.89493 
268 2 15.7491 1.63063 7.46015 
284 2 15.9222 4.43094 7.37171 
257 1 22.9312 0.128174 5.77392 
273 1 22.9303 2.84391 5.77593 
399 1 20.2091 0.1885 8.80038 
287 1 20.1036 2.7975 5.97809 
415 1 20.1349 2.73822 8.88439 
270 2 18.8002 1.46435 7.42605 
286 2 18.7897 4.22784 7.3633 
272 2 21.5609 1.62984 7.51483 
288 2 21.4325 4.18736 7.35471 
291 1 2.76541 5.8958 6.02621 
419 1 2.93774 6.05631 8.805 
307 1 2.96998 8.7509 6.15389 
435 1 3.03739 8.95212 8.7078 
290 2 1.5084 7.40705 7.56184 
292 2 4.48611 7.28564 7.48701 
417 1 0.146668 5.9877 8.94681 
433 1 0.145842 8.68283 9.00684 
293 1 5.6885 5.86201 5.78378 
421 1 5.80406 5.71766 8.93951 
309 1 5.72106 8.71077 6.14791 
437 1 6.04918 8.80081 8.75985 
295 1 8.72961 5.91551 6.24284 
423 1 8.77439 5.88259 8.79936 
311 1 8.67054 8.68248 6.04651 
439 1 8.61389 8.65143 8.84623 
294 2 7.20385 7.22139 7.42069 
297 1 11.8669 5.96417 5.99006 
425 1 11.6376 5.9451 8.83707 
313 1 11.5687 8.76577 5.89894 
441 1 11.7752 8.71079 8.87251 
296 2 10.3644 7.40967 7.4324 
298 2 13.0382 7.34686 7.34713 
299 1 14.4807 5.82823 6.05423 
427 1 14.5101 5.86834 8.90461 
315 1 14.4878 8.95118 5.89505 
443 1 14.2898 8.67768 8.83485 
301 1 17.3052 5.8256 6.02268 
429 1 17.4637 5.9294 8.80756 
317 1 17.2338 8.69379 6.08615 
445 1 17.2698 8.42121 8.77402 
300 2 15.7996 7.38313 7.52192 
289 1 22.9564 5.75544 5.99043 
305 1 22.9339 8.75053 5.95962 
303 1 20.228 5.68594 5.82448 
431 1 20.4782 5.87573 8.77373 
319 1 20.0767 8.55497 5.95334 
447 1 20.1305 8.65212 8.63082 
302 2 19.0008 6.87563 7.41956 
304 2 21.6775 7.25381 7.47355 
323 1 3.05147 11.5912 5.89855 
451 1 3.02232 11.5919 8.95452 
306 2 1.51771 10.286 7.4627 
322 2 1.64582 13.0403 7.34956 
308 2 4.36509 10.2602 7.52006 
324 2 4.42436 13.0889 7.32468 
325 1 5.86797 11.5743 6.04564 
453 1 5.92389 11.6391 8.90439 
327 1 8.85346 11.4907 6.08958 
455 1 8.67503 11.4792 8.82411 
310 2 7.32751 10.1834 7.42102 
326 2 7.28797 13.1499 7.35636 
329 1 11.3711 11.4632 6.0516 
457 1 11.7136 11.5822 8.97376 
312 2 10.2271 9.9959 7.5766 
328 2 10.1364 13.0108 7.46725 
314 2 12.9265 10.1467 7.31584 
330 2 13.0023 12.9314 7.49784 
331 1 14.5348 11.7869 6.20698 
459 1 14.3567 11.2507 8.74404 
333 1 17.2078 11.6805 6.04612 
461 1 17.4342 11.3248 8.86287 
316 2 15.9976 10.0899 7.34943 
332 2 15.8998 13.1403 7.77824 
321 1 22.9568 11.7603 5.98474 
449 1 22.9369 11.479 9.01071 
335 1 20.0337 11.5837 6.13743 
463 1 20.1659 11.4005 8.80596 
318 2 18.7672 9.85921 7.3276 
334 2 18.6769 12.9079 7.70553 
320 2 21.624 10.2411 7.31931 
336 2 21.553 13.1075 7.22453 
339 1 2.98927 14.5638 5.84888 
467 1 3.06808 14.4513 8.78767 
355 1 2.91428 17.3049 5.92199 
483 1 3.19233 17.1814 8.75177 
338 2 1.47405 15.9115 7.26761 
340 2 4.59506 15.6959 7.27651 
337 1 0.362208 14.4904 5.944 
465 1 0.218679 14.4488 8.81795 
341 1 5.94796 14.4144 5.86545 
469 1 5.87028 14.5064 8.9303 
357 1 5.7509 17.2652 5.90547 
485 1 5.76179 17.3268 8.68438 
343 1 8.95678 14.4547 6.00187 
471 1 8.73095 14.6185 8.77506 
359 1 8.65834 17.3616 5.86515 
487 1 8.61461 17.2063 8.87657 
342 2 7.26054 16.0902 7.40112 
345 1 11.8372 14.5547 6.15811 
473 1 11.4341 14.3734 8.97781 
361 1 11.5238 17.4231 5.85203 
489 1 11.5391 17.4255 8.80071 
344 2 10.2779 15.9146 7.40951 
346 2 13.0736 15.7683 7.47854 
347 1 14.2583 14.4652 5.93533 
475 1 14.3294 14.4997 9.04349 
363 1 14.4086 17.0072 5.93078 
491 1 14.403 17.469 8.88154 
349 1 17.3417 14.5917 6.05923 
477 1 17.3429 14.401 9.01615 
365 1 17.2043 17.2372 5.72274 
493 1 17.1796 17.2123 8.80678 
348 2 15.9388 15.8014 7.38104 
353 1 22.8845 17.2811 5.73266 
481 1 22.9655 17.3 8.53359 
351 1 19.8952 14.3828 6.02047 
479 1 20.1589 14.3136 8.87963 
367 1 20.1805 17.3325 5.97077 
495 1 20.3141 17.2155 8.70926 
350 2 18.8314 15.7466 7.52255 
352 2 21.5386 15.6807 7.30859 
387 1 2.76728 22.9307 8.8287 
369 1 0.183083 20.1647 5.81548 
371 1 2.85059 20.157 5.74302 
499 1 2.79962 20.1888 8.74453 
354 2 1.56429 18.6472 7.25861 
370 2 1.4422 21.581 7.29617 
356 2 4.25442 18.8787 7.33278 
372 2 4.22517 21.6514 7.33919 
389 1 5.81213 22.8209 8.64096 
373 1 5.69805 20.0955 5.92952 
501 1 5.73409 20.1444 8.63152 
375 1 8.67353 20.2385 6.01054 
503 1 8.52765 20.1497 8.83001 
358 2 7.20847 18.7629 7.37122 
374 2 7.27402 21.5823 7.30899 
265 1 11.4891 22.8518 5.92962 
377 1 11.5996 20.2279 6.00006 
505 1 11.5357 19.9816 8.66977 
360 2 10.0059 18.8467 7.50725 
376 2 10.1457 21.5763 7.46085 
362 2 13.0963 18.7019 7.26603 
378 2 12.9409 21.6529 7.4433 
395 1 14.6304 22.9858 8.85341 
397 1 17.1795 22.9423 8.907 
379 1 14.5253 20.343 5.94953 
507 1 14.4717 20.1749 8.63827 
381 1 17.393 20.1708 5.72667 
509 1 17.45 19.9275 8.88837 
364 2 15.9559 18.6029 7.31971 
380 2 15.8918 21.4411 7.44554 
271 1 20.1844 22.7605 6.12573 
497 1 22.9236 19.9658 8.7024 
383 1 20.1132 20.1031 6.08763 
511 1 20.2429 20.0557 8.84953 
366 2 18.709 18.8173 7.25161 
382 2 18.7613 21.4407 7.39307 
368 2 21.6634 18.5229 7.18605 
384 2 21.7499 21.5755 7.31172 
529 1 0.141648 2.75162 11.7081 
531 1 3.00189 2.92499 11.6745 
386 2 1.75267 1.63424 10.1768 
514 2 1.5644 1.60851 13.0591 
402 2 1.4837 4.51333 10.2126 
530 2 1.58059 4.28366 12.991 
388 2 4.28889 1.53788 10.1002 
516 2 4.48583 1.65993 13.0277 
404 2 4.35004 4.49548 10.2572 
532 2 4.59459 4.23096 13.0727 
515 1 3.07362 0.218588 11.6263 
517 1 5.88664 0.158809 11.7045 
533 1 5.8977 2.9424 11.4434 
519 1 8.67366 0.145151 11.7026 
535 1 8.80945 3.1413 11.6024 
390 2 7.25171 1.46818 10.1092 
518 2 7.37473 1.59253 13.0221 
406 2 7.25786 4.49854 10.2723 
534 2 7.12185 4.55557 13.1403 
537 1 11.4758 3.06441 11.8094 
392 2 10.0835 1.79282 10.173 
520 2 10.0586 1.48203 13.0234 
408 2 10.1965 4.55008 10.111 
536 2 10.0199 4.4752 13.1256 
394 2 12.9123 1.61859 10.2363 
522 2 12.8711 1.43946 13.0753 
410 2 12.8706 4.47902 10.0887 
538 2 12.9424 4.40738 13.1292 
523 1 14.5997 0.464995 11.503 
539 1 14.3136 3.04758 11.8081 
541 1 17.1585 3.13294 11.7562 
396 2 15.8333 1.8221 10.1704 
524 2 15.9359 1.54263 13.248 
412 2 15.9803 4.47559 10.2246 
540 2 15.8892 4.39383 13.2903 
525 1 17.3155 0.163469 11.6293 
543 1 20.3561 2.71993 11.7592 
398 2 18.5916 1.55247 10.2914 
526 2 18.6897 1.6411 13.1119 
414 2 19.0129 4.30157 10.3995 
542 2 18.8583 4.34721 13.222 
400 2 21.7109 1.49919 10.2446 
528 2 21.6361 1.44006 13.0688 
416 2 21.7219 4.28091 10.1452 
544 2 21.5571 4.3156 12.9744 
545 1 0.197128 5.83387 11.6769 
547 1 2.90232 5.81219 11.7391 
563 1 3.14325 8.6631 11.8021 
418 2 1.53566 7.3283 10.4276 
546 2 1.55927 7.23545 13.1541 
420 2 4.53907 7.34354 10.3369 
548 2 4.31414 7.04181 13.3172 
549 1 5.7165 5.84506 11.5903 
565 1 6.08505 8.5442 11.9009 
551 1 8.71594 5.71449 11.6954 
567 1 8.86051 8.70962 11.7107 
422 2 7.39084 7.07315 10.3528 
550 2 7.48509 7.16468 13.1483 
553 1 11.5957 5.80384 11.6847 
569 1 11.567 8.74453 11.7363 
424 2 10.008 7.25634 10.3373 
552 2 10.1447 7.28653 13.0645 
426 2 13.08 7.28956 10.167 
554 2 12.9678 7.1542 13.1573 
555 1 14.4162 5.68012 11.6884 
571 1 14.4992 8.54216 11.7369 
557 1 17.4476 5.77502 11.6976 
573 1 17.3244 8.45848 11.721 
428 2 15.8917 7.21383 10.2314 
556 2 15.8059 7.14761 13.1795 
561 1 22.8193 8.78034 11.7521 
559 1 20.2597 5.82061 11.7891 
575 1 20.0958 8.67393 11.6742 
430 2 19.0305 7.1904 10.2103 
558 2 18.9536 7.15675 13.2721 
432 2 21.6066 7.36524 10.258 
560 2 21.7535 7.23308 13.2642 
579 1 2.94082 11.4502 11.5879 
434 2 1.62057 9.99222 10.3722 
562 2 1.56016 10.0823 13.1103 
450 2 1.45674 12.9906 10.2113 
578 2 1.52079 12.9138 13.0012 
436 2 4.52549 10.0767 10.3562 
564 2 4.60912 10.4166 13.0112 
452 2 4.29078 13.0907 10.1837 
580 2 4.41986 13.0761 13.0317 
581 1 5.96204 11.6757 11.603 
583 1 8.75707 11.5987 11.744 
438 2 7.34803 10.0998 10.2898 
566 2 7.21601 10.1793 13.1265 
454 2 7.41312 13.1256 10.0569 
582 2 7.19859 13.004 13.1235 
585 1 11.5814 11.6211 11.6269 
440 2 10.21 10.095 10.3155 
568 2 9.97506 10.2566 13.2231 
456 2 9.96843 12.944 10.3871 
584 2 10.1952 12.947 13.1715 
442 2 13.0283 10.1123 10.2301 
570 2 13.1448 10.0603 13.179 
458 2 13.1891 12.9263 10.1968 
586 2 12.9616 12.9547 13.1478 
587 1 14.4215 11.4533 11.8396 
589 1 17.2474 11.6785 11.8486 
444 2 15.9156 9.98788 10.2476 
572 2 15.8895 10.0787 13.0321 
460 2 15.7981 12.9225 10.4879 
588 2 15.8225 13.1133 13.2617 
577 1 22.9382 11.3965 11.8671 
591 1 20.212 11.5363 11.899 
446 2 18.8064 10.0076 10.2955 
574 2 18.776 10.218 13.1675 
462 2 18.8066 12.7852 10.3611 
590 2 18.7601 13.1231 13.1195 
448 2 21.3715 10.0581 10.2703 
576 2 21.5486 10.0744 13.3258 
464 2 21.4874 12.8681 10.3192 
592 2 21.6465 12.9777 13.2334 
609 1 0.210158 17.1585 11.8371 
595 1 3.06335 14.5018 11.6161 
611 1 2.91655 17.436 11.8718 
466 2 1.60601 15.8658 10.0852 
594 2 1.55248 15.862 13.2112 
468 2 4.35808 15.893 10.2745 
596 2 4.42417 15.9687 13.1316 
593 1 0.233399 14.5054 11.6933 
597 1 5.83342 14.4869 11.6346 
613 1 5.77702 17.5206 11.5085 
599 1 8.69337 14.4932 12.0024 
615 1 8.43715 17.4535 11.5844 
470 2 7.26317 15.7342 10.3508 
598 2 6.90812 15.8951 13.0671 
601 1 11.5469 14.36 11.7748 
617 1 11.6121 17.4246 11.4233 
472 2 10.1496 15.9023 10.3872 
600 2 9.99029 16.0807 13.1022 
474 2 12.9857 15.9612 10.375 
602 2 12.9221 16.0672 13.0114 
603 1 14.4022 14.6566 11.7183 
619 1 14.4077 17.4816 11.5054 
605 1 17.2546 14.5271 11.6676 
621 1 17.2908 17.2636 11.6376 
476 2 15.8475 15.8835 10.3413 
604 2 15.8241 16.0201 13.2254 
607 1 20.3035 14.3952 11.7259 
623 1 20.1417 17.0088 11.706 
478 2 18.7601 15.8785 9.96393 
606 2 18.7402 15.8998 12.9081 
480 2 21.7001 15.9289 10.1532 
608 2 21.5875 15.7864 13.1894 
627 1 2.98391 20.1238 11.6949 
482 2 1.58185 18.6285 10.245 
610 2 1.56291 18.6386 13.1045 
498 2 1.53525 21.6353 10.1812 
626 2 1.34976 21.495 13.1238 
484 2 4.36036 18.7759 10.2357 
612 2 4.49969 18.6056 13.2227 
500 2 4.34665 21.5805 10.1761 
628 2 4.406 21.7573 13.0689 
513 1 0.366556 22.9026 11.6445 
629 1 5.76291 20.1815 11.8684 
631 1 8.58848 20.2735 11.5713 
486 2 7.06467 18.7552 10.1052 
614 2 7.17678 18.7348 13.087 
502 2 7.2022 21.5966 10.1737 
630 2 7.20573 21.5786 12.973 
521 1 11.4426 22.8236 11.4585 
633 1 11.4688 20.199 11.4978 
488 2 9.83337 18.7053 10.2815 
616 2 10.1803 18.7997 13.0528 
504 2 10.0609 21.3997 10.1337 
632 2 10.0104 21.5856 13.0562 
490 2 13.0042 18.8615 9.89234 
618 2 12.9785 18.8789 12.9116 
506 2 13.0085 21.7249 10.0721 
634 2 12.7375 21.6418 13.0347 
635 1 14.4059 20.1735 11.4923 
637 1 17.4122 20.0266 11.5303 
492 2 15.9319 18.8248 10.0447 
620 2 15.7259 18.8023 13.1289 
508 2 15.9126 21.6475 10.131 
636 2 15.8159 21.7216 12.9826 
625 1 22.9397 20.3466 11.5548 
527 1 20.1594 22.8937 11.7094 
639 1 20.2502 20.0334 11.5021 
494 2 18.7246 18.5782 10.3346 
622 2 18.5976 18.752 13.0255 
510 2 18.8235 21.6436 10.1513 
638 2 18.6773 21.521 13.0329 
496 2 21.5032 18.6538 10.2722 
624 2 21.6005 18.603 13.0102 
512 2 21.6062 21.5292 10.1373 
640 2 21.4273 21.4961 13.2123 
641 1 0.172338 0.133917 14.6482 
657 1 0.260752 2.88994 14.5511 
643 1 3.08454 0.165009 14.4615 
659 1 3.00713 3.01883 14.2175 
787 1 3.13488 2.922 17.6223 
642 2 1.73823 1.46475 15.9793 
658 2 1.43252 4.29935 15.9851 
644 2 4.46775 1.66875 16.0511 
660 2 4.35557 4.3619 16.0614 
771 1 2.94222 0.126259 17.5354 
661 1 5.66997 2.88118 14.5405 
789 1 5.88817 2.86733 17.5397 
647 1 8.62027 0.244589 14.7867 
663 1 8.63606 3.04403 14.3669 
791 1 8.62559 3.18307 17.5925 
646 2 7.19757 1.57927 15.9747 
662 2 7.37438 4.25303 15.8051 
777 1 11.4122 0.318823 17.5937 
665 1 11.4679 2.7924 14.5659 
793 1 11.5375 3.00609 17.3521 
648 2 9.91988 1.7895 16.0766 
664 2 10.0933 4.38088 15.9478 
650 2 12.9659 1.45452 16.0846 
666 2 12.788 4.33939 15.9008 
649 1 11.3957 0.24899 14.716 
667 1 14.2556 2.87219 14.2644 
795 1 14.1044 2.94357 17.3603 
653 1 17.3651 0.127432 14.8393 
669 1 17.3877 2.92567 14.5068 
797 1 17.327 2.91073 17.5008 
652 2 15.8549 1.56138 16.1066 
668 2 15.7164 4.23165 16.1011 
779 1 14.4139 0.187103 17.4354 
785 1 22.9787 2.83765 17.5259 
671 1 20.3179 3.04806 14.5625 
799 1 20.2834 2.92999 17.4538 
654 2 18.8725 1.66818 16.0302 
670 2 18.6235 4.34071 15.9767 
656 2 21.6048 1.46911 15.8925 
672 2 21.5813 4.28005 16.1776 
769 1 22.8246 0.15333 17.461 
689 1 0.321025 8.78403 14.7464 
817 1 0.233271 8.71619 17.5764 
675 1 2.90137 5.6526 14.4727 
803 1 3.0154 5.91603 17.3536 
691 1 2.95655 8.70274 14.4497 
819 1 2.97498 8.57821 17.2714 
674 2 1.46014 7.02991 15.9775 
676 2 4.37981 7.30805 15.9379 
673 1 0.187152 5.65305 14.4135 
677 1 6.04957 5.89351 14.704 
805 1 5.70884 5.89689 17.4366 
693 1 6.00241 8.86023 14.4131 
821 1 5.74236 8.99773 17.1951 
679 1 8.63969 5.93982 14.7491 
807 1 8.58735 5.73453 17.2998 
695 1 8.73917 8.75297 14.5096 
823 1 9.03376 8.92853 17.4473 
678 2 7.2507 7.43975 16.132 
681 1 11.3535 5.70863 14.4107 
809 1 11.5964 5.76277 17.3365 
697 1 11.6348 8.7514 14.5432 
825 1 11.6897 8.79037 17.3182 
680 2 10.0535 7.34636 15.9329 
682 2 13.0034 7.21826 15.9915 
683 1 14.3249 5.63689 14.5861 
811 1 14.322 5.69731 17.374 
699 1 14.3631 8.5659 14.5638 
827 1 14.5874 8.74923 17.4067 
685 1 17.2235 5.8332 14.4673 
813 1 17.3205 5.75345 17.447 
701 1 17.4713 8.80541 14.5323 
829 1 17.2504 8.56723 17.4439 
684 2 15.9349 7.22948 15.8603 
801 1 22.8582 5.8006 17.4783 
687 1 20.2141 5.63418 14.7143 
815 1 20.1415 5.6267 17.3556 
703 1 20.0931 8.8158 14.7608 
831 1 20.1548 8.56149 17.5438 
686 2 18.7463 7.21401 16.086 
688 2 21.7136 7.1777 15.8388 
705 1 0.182003 11.575 14.7403 
707 1 2.90932 11.6719 14.4489 
835 1 3.01492 11.5392 17.6282 
690 2 1.75419 10.0234 16.1252 
706 2 1.74584 12.9355 16.1164 
692 2 4.36108 10.1433 15.7954 
708 2 4.46696 12.9961 16.0252 
833 1 0.210725 11.8058 17.5731 
709 1 5.97454 11.6598 14.6939 
837 1 5.7859 11.5304 17.2982 
711 1 8.79317 11.6959 14.5701 
839 1 8.93405 11.6767 17.4002 
694 2 7.42952 10.1479 15.8234 
710 2 7.28391 13.0432 15.9853 
713 1 11.6678 11.5037 14.3223 
841 1 11.62 11.617 17.2754 
696 2 10.2384 10.318 15.7904 
712 2 10.2538 12.9734 15.775 
698 2 13.0246 10.1629 15.8049 
714 2 12.9906 12.8433 16.0043 
715 1 14.4234 11.6298 14.4867 
843 1 14.3894 11.3831 17.3314 
717 1 17.1369 11.6472 14.6202 
845 1 17.3277 11.6447 17.36 
700 2 15.787 9.99682 15.9284 
716 2 15.8899 12.8942 15.9719 
719 1 20.0604 11.4296 14.5604 
847 1 19.9132 11.5445 17.265 
702 2 18.6083 10.178 15.9717 
718 2 18.7567 13.0377 15.958 
704 2 21.6679 10.2177 16.0232 
720 2 21.4792 13.023 16.0049 
721 1 0.192116 14.2291 14.5442 
723 1 2.95615 14.4853 14.4526 
851 1 3.11204 14.43 17.6442 
739 1 2.79463 17.3539 14.6483 
867 1 2.85336 17.392 17.3969 
722 2 1.46018 15.6266 16.0092 
724 2 4.16968 15.8145 15.9666 
737 1 0.208017 17.1492 14.6123 
865 1 0.14394 17.2607 17.4224 
725 1 5.70912 14.3908 14.525 
853 1 5.83479 14.444 17.5007 
741 1 5.89538 17.4259 14.5573 
869 1 5.97185 17.3677 17.2969 
727 1 8.69718 14.4415 14.4138 
855 1 8.79214 14.4226 17.3022 
743 1 8.50956 17.4766 14.4423 
871 1 8.71118 17.3051 17.147 
726 2 7.18302 15.7914 15.8028 
729 1 11.5752 14.5655 14.476 
857 1 11.55 14.5001 17.2829 
745 1 11.5705 17.3499 14.4197 
873 1 11.5569 17.4589 17.1702 
728 2 10.0868 16.1019 15.7426 
730 2 13.084 15.7426 15.9544 
731 1 14.5205 14.4738 14.4256 
859 1 14.6128 14.4186 17.4387 
747 1 14.4228 17.4114 14.5428 
875 1 14.3452 17.3864 17.174 
733 1 17.2532 14.5417 14.509 
861 1 17.2348 14.3202 17.4462 
749 1 17.4093 17.4587 14.5345 
877 1 17.181 17.1647 17.3467 
732 2 15.9616 15.8034 15.9438 
849 1 22.9646 14.2954 17.5681 
735 1 19.9894 14.5325 14.4747 
863 1 20.025 14.43 17.3983 
751 1 20.1282 17.2444 14.5284 
879 1 19.8989 17.3318 17.5308 
734 2 18.6148 15.9224 15.8943 
736 2 21.4401 15.8897 16.1868 
755 1 2.86996 20.2494 14.6074 
883 1 2.82867 19.96 17.3231 
738 2 1.43813 18.7123 16.025 
754 2 1.55296 21.6408 16.0171 
740 2 4.35391 18.7223 16.0002 
756 2 4.30709 21.5937 16.0145 
645 1 5.88267 22.9674 14.5186 
773 1 5.7733 22.936 17.2823 
775 1 8.48376 22.9694 17.5708 
757 1 5.67954 20.2186 14.3997 
885 1 5.80172 20.0878 17.4172 
759 1 8.52564 20.3138 14.3993 
887 1 8.66003 20.0907 17.5364 
742 2 7.26192 18.7773 15.8802 
758 2 7.03617 21.459 15.9964 
761 1 11.663 20.1312 14.4306 
889 1 11.5662 20.1058 17.4452 
744 2 10.0766 18.8787 15.7276 
760 2 9.8821 21.5169 16.0359 
746 2 12.9706 18.7337 15.8371 
762 2 13.0548 21.6753 16.136 
651 1 14.4669 22.9613 14.7248 
781 1 17.1551 22.9287 17.692 
763 1 14.3746 20.3442 14.5685 
891 1 14.3271 19.9632 17.5042 
765 1 17.3715 20.3127 14.5663 
893 1 17.3414 20.1585 17.4845 
748 2 15.9749 18.7782 15.8853 
764 2 15.8069 21.5702 16.1699 
655 1 19.9677 22.7819 14.4507 
753 1 22.9709 20.0032 14.4746 
881 1 22.8306 20.1862 17.2856 
783 1 20.2963 22.806 17.5284 
767 1 20.1006 19.923 14.5096 
895 1 20.2029 20.0791 17.362 
750 2 18.6508 18.9408 16.0102 
766 2 18.8564 21.4881 16.171 
752 2 21.4891 18.5536 15.9494 
768 2 21.4684 21.5219 15.8881 
915 1 2.82369 2.98785 20.1728 
770 2 1.49578 1.54109 18.7111 
898 2 1.55385 1.5396 21.7247 
786 2 1.54548 4.36634 18.7219 
914 2 1.63663 4.39084 21.6644 
772 2 4.52559 1.42572 18.9808 
900 2 4.43342 1.70063 21.624 
788 2 4.55495 4.61838 18.7636 
916 2 4.33441 4.55319 21.5446 
1043 1 3.10665 2.89298 23.0667 
897 1 0.164882 0.126287 20.2305 
1027 1 3.13878 0.139105 23.0474 
917 1 5.76712 3.19941 20.2551 
919 1 8.74005 2.9751 20.1835 
774 2 7.22176 1.60881 19.0462 
902 2 7.26262 1.62176 21.8876 
790 2 7.22056 4.42855 18.8737 
918 2 7.20669 4.38346 21.6708 
903 1 8.64022 0.236064 20.3375 
1029 1 5.79252 0.258012 23.0039 
905 1 11.6328 0.196731 20.4298 
921 1 11.4388 3.07325 20.2552 
776 2 9.89318 1.54872 18.7889 
904 2 10.201 1.66337 21.6874 
792 2 10.1808 4.40518 18.6836 
920 2 10.1784 4.48391 21.603 
778 2 12.9252 1.57876 19.0067 
906 2 12.9603 1.63667 21.8452 
794 2 13.0341 4.3995 18.82 
922 2 12.9671 4.31748 21.5737 
909 1 17.2901 0.164689 20.2631 
907 1 14.389 0.266201 20.3876 
923 1 14.4297 3.10602 20.2146 
925 1 17.2843 2.94724 20.3424 
780 2 15.9315 1.52161 19.0532 
908 2 15.8249 1.5088 21.811 
796 2 15.9534 4.39652 18.8795 
924 2 16.0944 4.52383 21.7606 
913 1 22.9038 2.78069 20.4928 
927 1 20.1651 2.80069 20.486 
782 2 18.9387 1.46304 18.7842 
910 2 18.7295 1.47662 21.7405 
798 2 18.7008 4.32778 18.9489 
926 2 18.7508 4.27679 21.7591 
784 2 21.5995 1.62143 18.9966 
912 2 21.7424 1.28836 22.0115 
800 2 21.6933 4.47909 18.9109 
928 2 21.5846 4.23691 21.7612 
931 1 2.96859 5.79751 20.1531 
947 1 3.01298 8.91512 20.1198 
802 2 1.5556 7.31719 18.9064 
930 2 1.50047 7.33213 21.7115 
804 2 4.51237 7.44961 18.7036 
932 2 4.3716 7.51104 21.7276 
929 1 0.203342 5.7279 20.2938 
1057 1 0.182836 5.76704 22.9446 
1075 1 2.91822 8.69261 23.0909 
1059 1 3.02993 5.89746 22.9553 
1063 1 8.83897 5.88805 22.9666 
933 1 5.80613 6.0953 20.4391 
949 1 5.84453 8.9504 20.1366 
935 1 8.67138 5.79854 20.3539 
951 1 8.89276 8.82629 20.101 
806 2 7.2589 7.33461 18.8009 
934 2 7.4049 7.29937 21.6971 
937 1 11.5581 5.83542 20.1549 
953 1 11.6495 8.65992 20.1477 
808 2 10.3022 7.10536 18.8009 
936 2 10.2227 7.21907 21.5958 
810 2 12.9547 7.2645 18.5916 
938 2 13.0935 7.2218 21.3745 
1065 1 11.6125 5.7961 23.0369 
939 1 14.5426 5.94248 20.3224 
955 1 14.5845 8.51446 20.2386 
941 1 17.2875 5.77851 20.3144 
957 1 17.1008 8.65047 20.378 
812 2 15.7351 7.27185 18.7536 
940 2 15.8679 7.06816 21.8193 
945 1 22.9615 8.81823 20.3436 
943 1 20.1986 5.6086 20.3731 
959 1 20.0038 8.57471 20.2224 
814 2 18.7631 7.16131 18.8851 
942 2 18.6187 7.05221 21.6572 
816 2 21.6784 7.36849 18.9276 
944 2 21.418 7.22282 21.6557 
1087 1 20.2163 8.52834 23.0572 
963 1 2.946 11.7702 20.3411 
818 2 1.48618 10.3408 18.9429 
946 2 1.76534 10.117 21.5823 
834 2 1.62241 13.0806 18.9706 
962 2 1.43563 12.9442 21.7201 
820 2 4.40208 10.3194 18.839 
948 2 4.48657 10.2123 21.6037 
836 2 4.56776 13.0183 18.9208 
964 2 4.43322 12.9543 21.6865 
965 1 6.00641 11.6387 20.3656 
967 1 8.72372 11.4976 20.276 
822 2 7.34769 10.0789 18.6576 
950 2 7.41481 10.2009 21.6043 
838 2 7.31402 12.9104 18.8754 
966 2 7.44363 12.9881 21.606 
1095 1 8.7589 11.5246 23.0156 
969 1 11.6777 11.519 20.2759 
824 2 10.2459 10.2043 18.9308 
952 2 10.2834 9.97267 21.8517 
840 2 10.2173 12.9849 18.7997 
968 2 10.1734 13.0728 21.6749 
826 2 13.0694 10.0432 18.7501 
954 2 12.9274 10.0011 21.5087 
842 2 12.9906 13.0367 18.7669 
970 2 13.0296 13.0787 21.6448 
1097 1 11.5008 11.5977 23.0358 
971 1 14.3903 11.4967 20.3486 
973 1 17.1528 11.3315 20.3245 
828 2 15.6683 10.238 18.9955 
956 2 15.8198 9.83075 21.8877 
844 2 15.7941 13.0908 18.8836 
972 2 15.8059 12.9972 21.5311 
961 1 22.9293 11.5863 20.2131 
975 1 20.0115 11.374 20.3108 
830 2 18.5333 10.1319 18.8936 
958 2 18.6556 9.88318 21.8333 
846 2 18.7281 13.0698 18.9092 
974 2 18.4998 12.8785 21.6642 
832 2 21.4566 10.2999 18.7775 
960 2 21.5804 10.0911 21.6301 
848 2 21.3694 13.0666 18.8843 
976 2 21.467 13.0217 21.5036 
1089 1 22.9426 11.6173 22.9915 
1107 1 3.0156 14.2206 23.0875 
979 1 2.99343 14.3598 20.3189 
995 1 2.93801 17.3059 20.4082 
850 2 1.47142 15.8807 18.8377 
978 2 1.49828 15.754 21.6031 
852 2 4.59095 16.0379 18.7954 
980 2 4.3437 15.8695 21.745 
977 1 0.174367 14.3636 20.2137 
993 1 0.199879 17.3132 20.2747 
1123 1 3.00275 17.2436 22.9915 
1105 1 0.197477 14.417 23.0745 
981 1 5.86033 14.3857 20.3235 
997 1 5.8906 17.2576 20.3334 
983 1 8.81954 14.4223 20.2132 
999 1 8.67407 17.2857 20.2285 
854 2 7.30171 15.8233 18.8118 
982 2 7.24657 15.7737 21.6864 
1109 1 5.75908 14.4425 23.0903 
1127 1 8.87773 17.3375 22.9528 
1111 1 8.77528 14.5281 23.0825 
1113 1 11.521 14.539 22.971 
985 1 11.5653 14.5792 20.0937 
1001 1 11.6584 17.1481 20.1271 
856 2 10.1059 15.9001 18.6811 
984 2 10.2114 15.9977 21.5836 
858 2 12.8813 15.909 18.7941 
986 2 12.9442 15.8896 21.7788 
1129 1 11.5555 17.4297 22.964 
1131 1 14.5374 17.2601 23.0755 
987 1 14.2859 14.5855 20.1897 
1003 1 14.3044 17.2493 20.4096 
989 1 17.2849 14.5489 20.1963 
1005 1 17.1049 17.1021 20.1282 
860 2 15.6647 15.9398 18.8804 
988 2 15.8475 15.7568 21.7221 
991 1 19.8443 14.2704 20.4084 
1007 1 20.0495 17.1614 20.2246 
862 2 18.5325 15.8299 18.8646 
990 2 18.5378 15.7724 21.7167 
864 2 21.5004 15.8443 18.9472 
992 2 21.5409 15.61 21.6602 