LAMMPS data file via write_data, version 29 Oct 2020, timestep = 150000

2744 atoms
1 atom types

0.08631474612130141 24.72168525387994 xlo xhi
0.08631474612130141 24.72168525387994 ylo yhi
4.066890094021652 55.59900685871065 zlo zhi

Masses

1 58.933

Atoms # atomic

8 1 3.3441493397553432 1.9844390057722863 6.488368003565878 0 0 0
31 1 1.6117673814009232 3.6144266417814768 6.46887546876721 0 0 0
2222 1 1.5562022466023615 1.7698098549452093 4.7367932142433 1 -1 1
35 1 3.386475979578465 3.756091031468422 4.59793151411542 0 0 0
131 1 3.4500617237004825 3.6407887798109786 8.442855922030272 0 0 0
12 1 6.806322076550218 1.90179367581619 6.529185048622975 0 0 0
40 1 5.129289345403958 3.7689391296351404 6.5940267140156 0 0 0
1629 1 5.024690728684225 1.8383652141770217 4.7026265609933615 -1 1 0
2190 1 6.729900797069383 3.6693523369886636 4.599332505763886 0 0 0
135 1 6.870162638142289 3.6553846871752076 8.254411545010885 0 0 0
107 1 6.737375778658324 24.67771033063899 8.124515682618274 0 -1 0
103 1 5.037112391225151 24.59262967318265 6.404287401185423 0 -1 0
39 1 8.51869991551874 3.591694702297717 6.458285249116384 0 0 0
10 1 8.47993735195814 1.807761062694066 4.683490800813235 0 0 0
16 1 10.335306285439408 1.7630610678519454 6.457505424865463 0 0 0
41 1 10.296049132347987 3.536942785395934 4.685087208601201 0 0 0
14 1 12.086553508093434 1.8276217353677555 4.5995186887367545 0 0 0
43 1 12.002324024525809 3.544340522318634 6.513202261375744 0 0 0
139 1 10.314580665501424 3.5256113810087064 8.387309408042661 0 0 0
9 1 8.461141800480545 0.08688052918039074 6.326097373068406 0 0 0
112 1 12.044324455881073 1.7848921244989824 8.502027457323049 0 0 0
2242 1 10.330254932844646 24.65699233941965 4.557156030647018 1 0 1
111 1 10.295753044067188 24.613729007926004 8.260871883205692 0 -1 0
15 1 11.98968726954628 24.682920562699096 6.3561765142971325 0 -1 0
108 1 8.600088344267263 1.7962801412364973 8.387205027297306 0 0 0
20 1 13.82015968670178 1.8439082020596902 6.472466200775525 0 0 0
45 1 13.871921854543304 3.5506787711318943 4.5718131553190196 0 0 0
2598 1 15.547473967486473 1.7432643021383842 4.604859581922114 -2 1 2
52 1 15.62552220494402 3.5338472152115368 6.4312406410438365 0 0 0
116 1 15.596343178807041 1.9567846001055322 8.269880094226327 0 0 0
770 1 13.884882078141773 24.642312405514836 4.5599961735638574 0 0 0
19 1 15.608870284752062 24.642837842233337 6.4718904450335595 0 -1 0
28 1 19.138858839313507 3.510752380991685 6.42837001941524 0 0 0
47 1 17.401800421609664 1.8444267875766742 6.3796372797130285 0 0 0
1707 1 19.321141168934993 1.8712807821286963 4.590241880977212 -1 0 0
1666 1 17.42428639988104 3.651451099366641 4.608855871576461 -1 2 0
147 1 17.40886457593728 3.5939596208314906 8.329357401794343 0 0 0
120 1 19.220659074710227 1.9128963129875225 8.225980170698133 0 0 0
119 1 17.31708940330151 24.700513761117257 8.238315167804046 0 -1 0
2665 1 20.9135974083269 3.641839968056251 4.481894410101803 -1 2 2
4 1 24.522194205771562 1.8662359120833028 6.621157008582961 -1 0 0
55 1 22.713699180287236 3.593791957070376 6.4058553996357865 0 0 0
124 1 21.04813178758299 1.921760274079274 6.414600953994668 0 0 0
1660 1 22.812714486283987 1.72801428452949 4.590914678081914 1 0 2
1595 1 24.500378142821923 3.6380915694955878 4.66062801194567 -1 0 0
151 1 21.0489000629049 3.598669123894864 8.405802799535332 0 0 0
127 1 22.670012670098338 1.8357883055608966 8.35920408415986 -1 0 0
29 1 1.5696461079095547 5.376109055451497 4.558134925382713 0 0 0
59 1 1.4902580153325566 7.058502566187179 6.40101556340702 0 0 0
61 1 3.301581031038208 7.06959063789441 4.54512059454423 0 0 0
36 1 3.372030809430296 5.439292805083628 6.459174912169522 0 0 0
159 1 3.487820726804497 7.093188443823201 8.319275397469614 0 0 0
37 1 5.177068765421339 5.550354762526618 4.598256963227474 0 0 0
38 1 6.832512984249029 5.5057737723282925 6.439469535632136 0 0 0
63 1 5.067655849948165 7.14686725219718 6.478617904959767 0 0 0
2194 1 6.775394233395845 7.202970510692282 4.549279097658651 1 2 1
163 1 6.71966550075388 7.2092181882661 8.335392195012787 0 0 0
132 1 5.190487102701654 5.33695875313113 8.478631476058997 0 0 0
1714 1 8.614938183770612 5.442653684670108 4.681186758041886 0 1 0
44 1 10.363001243386815 5.3588267445709 6.530101533972998 0 0 0
67 1 8.62920082242413 7.070755152847222 6.5586988612470245 0 0 0
69 1 10.446589199290258 7.0698118129904515 4.6444767649554635 0 0 0
42 1 12.04459282643605 5.303225585377349 4.668320755471907 0 0 0
71 1 12.148835634565403 7.143496553594204 6.531237097430461 0 0 0
140 1 12.157776162183385 5.2952822828417405 8.198698708044041 0 0 0
136 1 8.506823826916868 5.34012046653988 8.46754613607489 0 0 0
167 1 10.449546032008726 7.032712160962837 8.341893927330686 0 0 0
48 1 13.876254517646874 5.21975932695146 6.399916034802087 0 0 0
75 1 15.451280591133058 7.187423021314685 6.503443979327927 0 0 0
2368 1 15.399856497357913 5.315338214569526 4.64086379862452 1 3 0
73 1 13.7297841429418 7.150366617583911 4.694929859946717 0 0 0
144 1 15.596724867733577 5.372502326167637 8.113430845623258 0 0 0
171 1 13.917354096566337 7.0781803701510775 8.29542821525946 0 0 0
51 1 17.25337862701103 5.529397985056365 6.43297430549943 0 0 0
79 1 19.189371288310703 7.132390039545493 6.330455942615064 0 0 0
2347 1 17.303100224713404 7.081027811776473 4.635610304058591 0 -1 0
2013 1 19.05702061842417 5.379621822419501 4.687766295178796 1 0 3
175 1 17.408272472667484 7.23207216229991 8.249746713887726 0 0 0
148 1 19.17592012670555 5.288260331169465 8.263298529688495 0 0 0
2173 1 24.425669718576465 5.327651052386024 6.347242899281858 -3 0 -1
78 1 20.784459806263797 7.037013645464189 4.584598123019629 0 0 0
56 1 20.947204100106518 5.349086211652184 6.401401641059962 0 0 0
1 1 22.694243488850255 5.339931776867864 4.518303243912381 -1 0 0
57 1 24.37159575860889 7.127845866265772 4.733647117909487 -1 0 0
83 1 22.571389480219622 7.043526102747039 6.372625299817512 0 0 0
179 1 20.84851681463948 6.930870449788506 8.243071828676014 0 0 0
155 1 24.334328874750703 7.0434259972009015 8.245482636458691 -1 0 0
64 1 3.2797044953116483 8.744576352210824 6.356175364142872 0 0 0
86 1 1.5258238131273403 10.540459570891851 6.388358136323301 0 0 0
687 1 1.5143617417877548 8.738843428112485 4.541042797638605 0 0 0
2723 1 3.303195414142497 10.609956409369033 4.754052116098385 -2 0 2
185 1 3.2796920867409414 10.623792741016915 8.165440233072935 0 0 0
156 1 1.4505481348665477 8.71480489373748 8.244082114319443 0 0 0
688 1 1.4116580578302882 12.231239280559999 4.546082980757986 0 0 0
68 1 6.914338970302551 8.953854837023755 6.457828534594405 0 0 0
88 1 4.995699823045909 10.557979786185623 6.432992049187062 0 0 0
2287 1 6.803281648798252 10.54378259203412 4.682621811507332 1 1 2
2575 1 5.094736795880801 8.926616480364105 4.5828462063582736 0 0 2
187 1 6.8587233407719586 10.653523987496943 8.333006044491334 0 0 0
160 1 5.003864816357011 8.946960800512226 8.326267737956035 0 0 0
66 1 8.581687593905297 8.758142049971493 4.70596444980529 0 0 0
72 1 10.369024863698996 8.921977101968519 6.529507383347541 0 0 0
90 1 8.67752431561995 10.758361431097672 6.452086733408011 0 0 0
2396 1 10.317105023423 10.74070879155402 4.631175432515233 1 1 0
92 1 12.074790913329108 10.793694012206856 6.473839450511926 0 0 0
2719 1 12.069433488954651 9.039667069263876 4.702964687496943 -2 1 -1
168 1 12.17039271017113 9.009067445655257 8.442765201969173 0 0 0
789 1 8.512864607026449 12.41124450501278 8.259581833094156 0 0 0
189 1 10.297193968012364 10.614080197983187 8.309382039352748 0 0 0
694 1 10.326485483047392 12.517653064363225 6.457758516565759 0 0 0
791 1 12.055317957339877 12.424472887517249 8.33894419841496 0 0 0
164 1 8.750411508857384 8.802319008641774 8.325956823279377 0 0 0
76 1 13.82661662372769 8.925865275038884 6.4945941045984785 0 0 0
93 1 13.757225501738393 10.692007195048081 4.623743469756375 0 0 0
94 1 15.591811261612632 10.631058369507315 6.33836808852061 0 0 0
2483 1 15.48679624687928 8.667412866658115 4.587654152222495 1 2 0
172 1 15.628879381057828 8.899367746976832 8.346441108138947 0 0 0
793 1 15.677094943927743 12.432449295311743 8.159968895583074 0 0 0
696 1 13.883172533103917 12.495837998747147 6.48412700900327 0 0 0
1491 1 15.442879232021351 12.448954684209447 4.607246006807765 -1 0 1
191 1 13.826326108897794 10.615014942396028 8.379109337280987 0 0 0
80 1 17.356710287119455 8.830665527278223 6.372321355059608 0 0 0
96 1 19.054486093186483 10.606406834259712 6.273161836732546 0 0 0
2704 1 18.99156114948866 8.756966735474771 4.564114468260938 -1 0 2
1446 1 17.163800975598903 10.60131928550646 4.648154330207098 2 1 2
2307 1 19.149380518777434 12.371527170039784 4.588609315199513 -3 3 0
193 1 17.48534946122831 10.648183745297139 8.091505666012882 0 0 0
176 1 19.03761792209732 8.925858657967323 8.274763377240648 0 0 0
60 1 24.33206890246742 8.80682949499516 6.455949849837656 -1 0 0
84 1 20.83255099961056 8.878945662709198 6.485023237649554 0 0 0
97 1 20.826893514692678 10.483067437914396 4.671971099863239 0 0 0
98 1 22.71569900584418 10.612308561191696 6.3659619626529995 0 0 0
1834 1 24.310474206206806 10.550625696717905 4.4867798340290195 0 1 0
1640 1 22.610148709813068 8.74690422671127 4.536291725399987 -1 0 -2
183 1 24.390603335969956 10.638356557534136 8.162410692031562 -1 0 0
180 1 22.52912387179029 8.80009445892478 8.15793851497852 0 0 0
195 1 20.99482447811765 10.69516525723071 8.124701255926983 0 0 0
690 1 3.2684298292832072 12.434725252421371 6.4342065266191195 0 0 0
785 1 1.4534310640043127 12.161263239876572 8.295473069572447 0 0 0
703 1 1.4484445852441568 13.99086698506647 6.316194452227908 0 0 0
708 1 3.202764304322732 15.942773878098283 6.474043751662463 0 0 0
2118 1 1.6057080204673875 15.92313024982116 4.5398177090309035 0 -1 -2
1402 1 3.2268160649455977 14.054540990296816 4.482303576694359 -2 0 2
803 1 3.19009834203623 14.079930666689142 8.266829365996234 0 0 0
800 1 1.5074069718350225 15.87480855102226 8.23816251740012 0 0 0
787 1 4.990283835304223 12.468537719359842 8.224423368766058 0 0 0
1971 1 5.096367959273079 12.471257606282613 4.531197027009631 0 -1 1
692 1 6.753924772369033 12.444350548090085 6.4403873324774175 0 0 0
707 1 5.048061097431892 14.217042271152163 6.364361126831758 0 0 0
706 1 6.7633422132113505 14.269296417244375 4.593644605373369 0 0 0
712 1 6.767776504492044 16.026117847388022 6.47584931134299 0 0 0
733 1 4.96156449668838 16.03611565847919 4.583035039557079 0 0 0
807 1 6.884212638403614 14.088127203619095 8.342865394305985 0 0 0
804 1 5.147584127151276 15.837783940971388 8.319453774460829 0 0 0
709 1 8.42611051759202 12.543710483616305 4.60458662505628 0 0 0
2717 1 12.057305956886573 12.393420208744619 4.711397063759791 -1 0 0
2019 1 10.235256371837158 14.32759699647028 4.6882714218169035 -2 1 2
711 1 8.505858468319706 14.261506770885521 6.547614553415597 0 0 0
715 1 12.108320734143375 14.275559821835051 6.495664152266437 0 0 0
710 1 8.604249497095013 16.004040877667133 4.702603077721102 0 0 0
716 1 10.410170604846071 16.004799238713172 6.524490810983265 0 0 0
2504 1 12.140574332735962 15.826141333966406 4.708996723655518 -2 0 1
811 1 10.300989137468179 14.299873967339835 8.36154896902535 0 0 0
808 1 8.667122902844955 15.982055252971325 8.282670698500542 0 0 0
719 1 15.761355222537265 14.269096861687393 6.369366540100039 0 0 0
720 1 13.885175937881652 16.019245358639807 6.421734649646593 0 0 0
2205 1 13.907191388640927 14.08839128241614 4.685370778731181 2 -1 -1
1990 1 15.535885655758475 15.965659072140523 4.584115688118199 0 0 2
815 1 13.937077363037044 14.147960213995171 8.222567886598416 0 0 0
816 1 15.811992629138722 16.010049583403834 8.164953174727499 0 0 0
795 1 19.175879192892943 12.432198468467618 8.1564202769049 0 0 0
698 1 17.410359006114696 12.375364147582678 6.341430527721809 0 0 0
721 1 17.28762907680563 14.172414661143462 4.503513009229201 0 0 0
723 1 19.168044157634164 14.15565029558685 6.311568623757635 0 0 0
724 1 17.435467263721648 15.895244343359328 6.320427282838214 0 0 0
728 1 19.327270848470775 15.906729862735922 4.590627516377781 0 0 0
820 1 19.190372048808165 15.850086359092636 8.174735172406287 0 0 0
819 1 17.36639156149147 14.098688465667573 8.253942119169167 0 0 0
699 1 22.525325975353354 12.31557843116946 4.613751407632618 0 0 0
700 1 20.90829001730482 12.4687789434428 6.342890225976111 0 0 0
797 1 22.719777231585148 12.522872885156156 8.267710720415012 0 0 0
701 1 24.495306047970587 12.297901425676503 6.435213894453861 -1 0 0
2151 1 20.933588266174844 14.186613052623356 4.463072268146273 1 3 2
704 1 24.45936724603206 15.864177388866748 6.269572705736575 -1 0 0
727 1 22.766883210249446 14.157346705947427 6.2989925111304785 0 0 0
1432 1 24.401529035555676 13.971941472885362 4.440052755632459 -2 0 -1
755 1 21.116045060907446 15.868475718419507 6.408243441941062 0 0 0
2344 1 22.80970862497208 15.881284584608112 4.349499465653587 -2 0 0
824 1 22.81516764727946 15.833509573196803 8.269657532175923 0 0 0
823 1 21.023494841477785 14.181740365371928 8.200388328664527 0 0 0
799 1 24.475912895043315 14.061076064371667 8.171978416648209 -1 0 0
731 1 1.4797609925145656 17.73765924569743 6.435601649772332 0 0 0
757 1 1.538425451902146 19.62437410513678 4.794134894596505 0 0 0
736 1 3.1480156808228617 19.50174344824928 6.544276369303912 0 0 0
2211 1 3.2816914663755257 17.81772923519287 4.6343639511016645 0 -1 0
828 1 1.4954032617553892 19.460401283378147 8.307608672403221 0 0 0
831 1 3.200575129825851 17.593233750118834 8.383194390546457 0 0 0
735 1 4.941502169853 17.7153690390928 6.524338481587272 0 0 0
737 1 6.812147906791765 17.67210074617374 4.626628861439826 0 0 0
740 1 6.759398816693059 19.335002151271837 6.3318916411387125 0 0 0
758 1 4.99919148970376 19.49760978974504 4.636636320552805 0 0 0
835 1 6.703293187441469 17.765491866957987 8.25220259073021 0 0 0
832 1 4.9720529962219935 19.4715774711432 8.31688688760162 0 0 0
739 1 8.681571708131383 17.729137948934827 6.529091134402233 0 0 0
741 1 10.4255279395541 17.702006333229676 4.542369407521092 0 0 0
765 1 8.553976089370526 19.482011076509345 4.435056935909852 0 0 0
744 1 10.343267534190355 19.416390992149566 6.366126391567833 0 0 0
743 1 12.19016715380196 17.76686672596132 6.515486194825359 0 0 0
742 1 12.215970011004515 19.590291962573488 4.619315209428911 0 0 0
839 1 10.42759346232739 17.716555061453235 8.50217058041337 0 0 0
840 1 12.076532669128552 19.377250099601987 8.32405518083454 0 0 0
836 1 8.556392836242285 19.473019100923075 8.286626739548094 0 0 0
747 1 15.636419096029808 17.664782721095648 6.403128154720825 0 0 0
748 1 13.773596275967574 19.489200132020308 6.407781231139262 0 0 0
746 1 15.7028977550186 19.405260619619632 4.589876338479979 0 0 0
2289 1 13.775307631042567 17.741869214907105 4.614439693003583 1 0 -2
843 1 13.910247609566413 17.736983262596375 8.396404522906542 0 0 0
844 1 15.667292938012874 19.259909972967954 8.288606832551979 0 0 0
749 1 17.57769225373748 17.62607274345107 4.679781029690951 0 0 0
751 1 19.307673349543393 17.832426265734668 6.464140716809583 0 0 0
752 1 17.432449083635902 19.355757292406565 6.553769802958378 0 0 0
2463 1 19.27001264832522 19.440261143458997 4.544713319415244 -1 0 1
848 1 19.272522577603212 19.46742475394231 8.283923340161106 0 0 0
753 1 21.136007688955203 19.39597977015555 6.452433106593129 0 0 0
732 1 24.321935408539304 19.394220649122722 6.559565433625917 -1 0 0
756 1 22.75710230830915 17.402065838191923 6.314987132176843 0 0 0
1463 1 24.574720848864814 17.670310685662123 4.6300385180643895 -1 0 -2
1725 1 22.667097062319733 19.435713649021196 4.570892179601533 2 -3 0
2299 1 21.026815931078097 17.71107956334822 4.553855238478042 -1 1 0
851 1 20.921383995903398 17.546814231125552 8.275753528769071 0 0 0
827 1 24.48583050203124 17.5874491090077 8.243147268575337 -1 0 0
852 1 22.703261239926498 19.364001315319385 8.376527019494194 0 0 0
101 1 1.4447593729829782 24.643906632096652 6.386835239539454 0 -1 0
7 1 3.2644946847889758 24.69544737388005 4.66177567271275 0 -1 0
3 1 1.4994319912996734 22.914261197407065 4.64122827650743 0 -1 0
759 1 1.3736807107180604 21.266215926015263 6.498113840614449 0 0 0
764 1 3.3064254964872584 21.199103730717823 4.674905459515111 0 0 0
856 1 3.2743930130757106 22.890516174866818 6.388517171190021 0 0 0
859 1 3.2563915572525315 21.222891572701066 8.287363536974764 0 0 0
862 1 3.218556443567338 0.10677997429021246 8.19891888492845 0 1 0
99 1 1.52784952538735 23.046667333630268 8.283135557027123 0 -1 0
11 1 6.7148414163888575 24.600321609946768 4.64171933252353 0 -1 0
5 1 5.105501563378158 22.859974484592122 4.7132765395465075 0 -1 0
763 1 5.0374596851963895 21.15694197920918 6.479150845528288 0 0 0
762 1 6.8679935736172135 21.124966426840516 4.601910762405659 0 0 0
768 1 6.786586836093529 22.819782481103587 6.5341348677913516 0 0 0
863 1 6.768753453906213 21.083750471508957 8.244409505694833 0 0 0
860 1 5.061385678244689 23.068361981787277 8.207682792900508 0 0 0
767 1 8.619566057938304 21.11109175586035 6.4545980266242395 0 0 0
769 1 10.209504430297214 21.183726704116495 4.642023668413762 0 0 0
766 1 12.053451080295673 22.814983614237377 4.690181642104276 0 0 0
772 1 10.26753328472019 22.9211262110936 6.372457809894891 0 0 0
1856 1 8.512609386490132 22.80243014588588 4.53254930268367 -1 0 -1
771 1 12.120636457536069 21.105051157369594 6.534934533065293 0 0 0
864 1 8.538285651841845 22.962154857350527 8.358655733287605 0 0 0
868 1 12.0776770606787 23.02595117532561 8.26356523869385 0 0 0
867 1 10.400238910363692 21.2473845075575 8.238078271079278 0 0 0
115 1 13.847009151531866 24.695315674929347 8.063759317026472 0 -1 0
773 1 14.005134994224683 21.213653491512957 4.582425607706487 0 0 0
775 1 15.677108875417899 21.177666896684357 6.57756012715485 0 0 0
776 1 13.802879818028346 22.90495779641671 6.383143347346776 0 0 0
774 1 15.731959352258661 22.974294652180212 4.706570082749046 0 0 0
872 1 15.616169035948385 22.80205768231024 8.280598020348389 0 0 0
871 1 13.882120942223658 21.030913788928927 8.235059778423318 0 0 0
18 1 17.442262615911048 24.703721634278864 4.726462954812352 0 -1 0
24 1 19.26756713058039 0.13495866376881338 6.5769552724704425 0 0 0
1739 1 19.29124034785861 22.96790926971184 4.654036143405397 -1 -1 2
779 1 19.111040578454087 21.128323098391277 6.369603734384731 0 0 0
777 1 17.369498040690587 21.15128768174594 4.6366109168257035 0 0 0
780 1 17.521439964082226 22.903649131858387 6.447068664393751 0 0 0
876 1 19.16800241687374 22.788702101941745 8.391624129590024 0 0 0
875 1 17.503826867896677 21.211959215819952 8.244113492316144 0 0 0
27 1 22.64528470986577 24.602953114457684 6.484707478539884 0 -1 0
2177 1 24.35634119970026 24.609754178798084 4.597043479379879 0 0 -1
2710 1 20.983737589222166 0.1621179106210917 4.718163072383211 -1 2 2
782 1 24.354589444430125 22.87022946312738 6.47082762332856 0 0 0
2029 1 20.899098308509956 21.166354325893693 4.792756301879612 0 2 2
1872 1 24.408149472569903 21.112569615409605 4.671768662090007 -2 -1 -1
783 1 22.68858741391336 21.211660288886485 6.592018975949157 0 0 0
784 1 20.877840224081012 22.83699692354852 6.448850882756356 0 0 0
1523 1 22.644003129941005 22.863890220666207 4.699971941641537 0 -3 -1
760 1 24.37582162898095 21.184120702184273 8.307576750449652 -1 0 0
879 1 20.982324319727432 21.102107617498994 8.257904031846945 0 0 0
100 1 1.6012754850985271 1.8305951431637877 8.30472087938001 0 0 0
106 1 3.3072109129168403 1.8028662825810764 10.02608261387777 0 0 0
129 1 1.75175169007068 3.640491040407748 10.188190832972971 0 0 0
198 1 1.6184227381825191 1.7538705508261168 12.026752591826853 0 0 0
229 1 3.2573618174215975 3.6183722032748027 12.157718305594324 0 0 0
104 1 5.074407077746591 1.8467445535538083 8.360851503535386 0 0 0
110 1 6.8156178303878825 1.945102628505353 10.16013451119031 0 0 0
133 1 5.0207263229031955 3.57626440247308 10.21703185452395 0 0 0
202 1 4.921951658324154 1.7600394446517005 12.027849214399081 0 0 0
233 1 6.813696495219171 3.5307023027153286 12.000584461237036 0 0 0
105 1 5.144962218063378 0.09085972854383481 10.038586635856532 0 0 0
114 1 10.364459716024117 1.615772960605995 10.141337613702467 0 0 0
210 1 12.114465609392752 1.7489197597436428 11.854053441478637 0 0 0
137 1 8.54664431109769 3.5179630870156657 10.06761745906042 0 0 0
141 1 12.165597788215226 3.5450737202022786 10.142419307897798 0 0 0
206 1 8.546091739762616 1.7681696775379796 12.07171764031699 0 0 0
237 1 10.348949004761028 3.401121707379967 11.883923439254833 0 0 0
209 1 10.475720997497428 24.619713150595842 11.925491325642781 0 -1 0
109 1 8.536553289432796 24.652290641964377 10.243461942063632 0 -1 0
113 1 12.228168462412633 24.547128884726654 10.122447836211279 0 -1 0
143 1 13.94231674704208 3.4922951386703347 8.36037300142883 0 0 0
118 1 14.05169157146225 1.6212623050733452 10.11390817600148 0 0 0
145 1 15.794013132603688 3.4634954732334635 10.17861208382794 0 0 0
214 1 15.529037546943725 1.6631379379432867 12.056624519335738 0 0 0
241 1 13.85574900156647 3.515585498223684 11.99589064316 0 0 0
117 1 15.61110117169717 24.567369980439825 10.076685074876178 0 -1 0
122 1 17.365703791544803 1.665064346036653 10.248451736305977 0 0 0
149 1 19.025615765188988 3.5345485438637656 10.080594421433897 0 0 0
218 1 19.17590742734022 1.7771949764048995 11.877981441276528 0 0 0
245 1 17.32726431621994 3.4260867854072155 11.972021084807237 0 0 0
217 1 17.414129287663613 24.518868407335074 11.821590493892131 0 -1 0
32 1 24.47527069244351 3.5733312128886476 8.387009937716947 -1 0 0
102 1 24.423393877070637 1.7440629261558482 10.148474283753124 -1 0 0
126 1 20.949963808432308 1.9000884008586174 10.281675814251042 0 0 0
153 1 22.74695974486594 3.669442231221268 10.257419083112715 0 0 0
222 1 22.705511819483498 1.7800691755749105 12.181313776451525 0 0 0
249 1 20.93776288749521 3.564306906413316 12.044442114471998 0 0 0
225 1 24.569381223289618 3.5672793992499456 11.878004371763804 -1 0 0
128 1 1.5034196489153817 5.32132612547119 8.29245568599257 0 0 0
134 1 3.3758426870528906 5.444494986560767 10.228839370938982 0 0 0
157 1 1.6127886087244838 7.14405334249173 10.086470214561562 0 0 0
226 1 1.6631561414666978 5.379972116104133 11.82101465253972 0 0 0
257 1 3.335337007378258 7.1016562713076805 12.046127022328287 0 0 0
138 1 6.884162551602975 5.374841398909185 10.195421814307064 0 0 0
161 1 5.11572409090688 7.162665386506995 10.20275969983614 0 0 0
230 1 5.076031305848732 5.239809925767829 12.067864047910195 0 0 0
261 1 6.900738941942381 7.1492599634775145 11.966540069783305 0 0 0
234 1 8.605102691438963 5.226791378368095 11.99687791204687 0 0 0
142 1 10.426870061444504 5.36571985692105 10.190946427730456 0 0 0
165 1 8.674931001924692 7.155259202778064 10.18794227380636 0 0 0
265 1 10.50531894079527 7.079910380222345 11.874688450463292 0 0 0
238 1 12.127082739120265 5.104177801372615 12.002382027837697 0 0 0
169 1 12.306623128967697 6.769808735947858 10.216476916677196 0 0 0
146 1 13.96010386489969 5.229834949809392 10.076322683700411 0 0 0
173 1 15.688926908201502 7.134702725777658 10.1017640348491 0 0 0
242 1 15.650480216826569 5.299577696389595 11.906096260324471 0 0 0
269 1 13.83112915745028 7.004100317019088 12.058261023602437 0 0 0
150 1 17.346170918866022 5.327049751937599 10.034374622930416 0 0 0
246 1 19.033948797517873 5.2125127457822495 12.041692257399138 0 0 0
177 1 19.16304307291322 7.089978029012245 9.986101865298355 0 0 0
273 1 17.477590914968147 7.0781229840258995 11.909214202386082 0 0 0
152 1 22.823767944301068 5.211719648033828 8.262491293670658 0 0 0
154 1 21.01956705659436 5.3761701568728215 10.153368087748273 0 0 0
130 1 24.56812614020418 5.368897272017219 10.214678481448033 -1 0 0
181 1 22.646726127087646 7.069516769684966 10.052391264268458 0 0 0
250 1 22.662148346944107 5.37298346467161 12.028871237447156 0 0 0
253 1 24.23186673781054 7.25166469245907 11.908347367294413 -1 0 0
277 1 20.67427070690257 7.043030302267576 11.899162574211356 0 0 0
162 1 3.464982830504732 8.863475230067372 10.306022255520677 0 0 0
184 1 1.4895326943236096 10.525053830439637 10.047164219153503 0 0 0
254 1 1.5754159757411468 8.835496041363163 11.935085426874242 0 0 0
283 1 3.408090537941413 10.596175584922111 11.978785555409925 0 0 0
258 1 5.101144952201485 8.889007154335046 12.024223956127049 0 0 0
166 1 6.9698713416659634 8.933641652632357 10.148075904333965 0 0 0
186 1 4.97631638019796 10.725523701742755 10.117099080975429 0 0 0
285 1 6.84436670376599 10.656470234602008 11.940688704020074 0 0 0
790 1 6.705366811315939 12.347799881991126 10.190661571406537 0 0 0
170 1 10.44182633763137 8.998971834857706 10.164465628691655 0 0 0
188 1 8.577996867470127 10.714596923954538 10.14955131339629 0 0 0
262 1 8.684609095208717 8.885415786442286 11.983336273729421 0 0 0
287 1 10.355294267418724 10.603498811867013 12.0986560467362 0 0 0
190 1 12.103756311059323 10.727680170147268 10.263466094759245 0 0 0
266 1 12.196940175436307 8.762900306127857 11.888900970823212 0 0 0
887 1 8.69241534296204 12.391567539748095 12.04437172399349 0 0 0
889 1 11.894950261595785 12.544063332022645 11.975847336346538 0 0 0
792 1 10.273141162111656 12.398584904024482 10.029989616796872 0 0 0
174 1 13.872205008258502 8.822215766136388 10.197320876060484 0 0 0
192 1 15.677823358112123 10.656880151475436 10.048044864627846 0 0 0
270 1 15.601397488650008 8.997287860200242 12.00188502411827 0 0 0
289 1 13.729367022834746 10.687850206610317 12.059044346056556 0 0 0
891 1 15.561771447657552 12.39296858616484 11.934286987495488 0 0 0
794 1 13.880409051427886 12.436435233229194 10.144790488781464 0 0 0
178 1 17.379705532109924 8.972092114730497 10.14490266234736 0 0 0
194 1 19.184507892220942 10.660200842470768 10.135384236493643 0 0 0
274 1 19.154053926588468 8.897956761627256 11.991803072202636 0 0 0
291 1 17.45551624234667 10.669378127393076 11.952564199512832 0 0 0
893 1 19.176956332080763 12.359212484696181 11.958099963554853 0 0 0
158 1 24.387435453239213 8.796061340483138 10.041745904673682 -1 0 0
182 1 20.938859255569426 8.912251403332824 10.036050957240208 0 0 0
196 1 22.79529544266758 10.543757485205088 9.975051134822277 0 0 0
278 1 22.45529934905884 8.843912056467584 11.992407632518638 0 0 0
293 1 20.87280001437817 10.615708087259849 11.774361292360076 0 0 0
281 1 24.47079113983454 10.495688107839817 11.949313052815189 -1 0 0
788 1 3.312930584615466 12.329121726949996 10.125537852382216 0 0 0
883 1 1.5728005353940402 12.439443356654413 11.910531007827235 0 0 0
801 1 1.4988531542542345 14.152960081242258 10.246052488220272 0 0 0
806 1 3.3067488836224177 15.754922460689663 10.122758699044484 0 0 0
901 1 3.5112813461778445 14.082836964269864 11.794114591060378 0 0 0
898 1 1.6295750301770668 15.775180168855016 11.928655008777964 0 0 0
885 1 5.124327038590278 12.305406806884616 11.968884969564797 0 0 0
805 1 5.113669526792877 14.100231148175222 10.050415563812066 0 0 0
810 1 6.876151457650438 15.972667464487385 10.188432882227392 0 0 0
905 1 6.812460514564477 14.029868267231393 12.002188038761844 0 0 0
902 1 5.056899654461035 15.859278846076181 11.99696552890444 0 0 0
812 1 12.102423670347466 15.960509288806072 8.366808428061349 0 0 0
809 1 8.49820349147366 14.223748975172734 10.241717660336551 0 0 0
814 1 10.312310524922136 15.8970338036442 10.2357830111883 0 0 0
909 1 10.366677733905796 14.336542025997458 12.002139532223076 0 0 0
906 1 8.61393179920937 15.960594228630713 12.02286393477406 0 0 0
813 1 12.124818950918058 14.212510254113097 10.144178372682667 0 0 0
910 1 12.175096976453721 15.93660967268055 11.901186391620495 0 0 0
817 1 15.58614874397896 14.072868052697542 10.018758131192381 0 0 0
818 1 14.067010726188485 15.946704181478875 10.03629451519956 0 0 0
913 1 13.884574422092303 14.302653807710374 12.013255145002713 0 0 0
914 1 15.655623648277029 15.875569233426972 12.074962939649783 0 0 0
796 1 17.385167484875993 12.411445585983248 9.998233550570367 0 0 0
821 1 19.22651224395763 14.031412752253415 10.065865572319797 0 0 0
822 1 17.443801525171814 15.867379590438455 10.068809107774971 0 0 0
917 1 17.323429178332574 14.069621105893953 11.922297491825347 0 0 0
918 1 19.12200288933269 15.86973795142383 11.840285411528427 0 0 0
786 1 24.39895652804033 12.316074010261387 10.071783616050144 -1 0 0
798 1 21.021324594258964 12.212327894781726 9.903689428287954 0 0 0
895 1 22.784306037913865 12.157510308550501 11.860697449418119 0 0 0
802 1 24.373298598656213 15.877086538120828 10.267433208285864 -1 0 0
825 1 22.716353038618436 14.085222942769038 10.154534656190389 0 0 0
826 1 20.83684577180597 15.922205460276306 10.101659624776074 0 0 0
897 1 24.324971742770757 14.093991638303788 11.958731695026433 -1 0 0
921 1 21.06376204651138 14.06969280508179 11.864574733507197 0 0 0
922 1 22.671259204569886 15.95299435988598 11.982096551965949 0 0 0
829 1 1.5181161788628903 17.57881307185899 10.187677408673077 0 0 0
929 1 3.4454252482995695 17.544420854017517 11.946485987805449 0 0 0
834 1 3.165244239113791 19.48695698388996 10.122281850216254 0 0 0
926 1 1.5940053626471786 19.265021744491015 11.984285275765112 0 0 0
833 1 4.955147976265012 17.692145233220813 10.13723266017129 0 0 0
933 1 6.789757791450263 17.722969070889448 11.995023571278153 0 0 0
838 1 6.778657842533229 19.303046915749945 10.105992843026167 0 0 0
930 1 5.063400231325759 19.527792322926956 11.984775039383674 0 0 0
837 1 8.593219010532891 17.662795387687744 10.15228886084046 0 0 0
842 1 10.365862352420203 19.477712647653107 10.062098387383564 0 0 0
937 1 10.462913557838933 17.700139755950246 11.946413087354555 0 0 0
934 1 8.540939337408174 19.53592405317886 11.959854284867383 0 0 0
841 1 12.251444159487674 17.626361769804546 10.160230126499728 0 0 0
938 1 12.221372079291069 19.55464393041401 12.064307776573695 0 0 0
845 1 15.688085403076933 17.513603127954738 10.16289349290793 0 0 0
846 1 13.881383386766759 19.427476110151893 10.198503229178874 0 0 0
941 1 13.882983073667937 17.644822739707173 12.010180199052147 0 0 0
942 1 15.63341574854584 19.43734387713573 12.010881433649487 0 0 0