LAMMPS data file via write_data, version 29 Oct 2020, timestep = 150000

2016 atoms
1 atom types

-0.09619707364417174 21.36019707364506 xlo xhi
-0.09619707364417174 21.36019707364506 ylo yhi
-0.22445983850198914 49.84045983849924 zlo zhi

Masses

1 58.933

Atoms # atomic

27 1 1.8811246264890635 3.3305534244227974 1.7527327403031159 0 0 0
146 1 2.0285163981930068 1.7463756827442942 3.5627435578615785 0 0 0
8 1 3.705365390148404 1.185621209519088 2.0500141823294395 0 0 0
173 1 4.108554575576824 3.379622659234455 3.340460850869279 0 0 0
169 1 0.1683788526262064 3.377894731199057 3.5046862223330426 0 0 0
2 1 1.8537953764543151 1.1203892614711946 0.13520678127773444 0 0 0
1017 1 0.33927872714869534 13.45267067808065 0.16165544514898794 1 1 1
117 1 18.031806919559287 13.784481759399704 -0.05813198529897712 0 0 0
12 1 7.076257502240135 1.2895882742544644 1.874724651180094 0 0 0
31 1 5.422699047893544 3.144777968474601 1.485192483304106 0 0 0
150 1 5.564521360304594 1.2954418683793785 3.5466757463778626 0 0 0
177 1 7.417537097044354 2.8289591911413896 3.6914117954941315 0 0 0
34 1 9.00780338931572 4.506669889990836 0.05918792936495487 0 0 0
137 1 14.26937435939678 17.61490471099704 -0.07670538679965591 0 0 0
154 1 9.061689237406211 0.9036227825162623 3.4682037546035445 0 0 0
35 1 8.806256104954427 2.6260443466158847 1.609467760725633 0 0 0
16 1 10.683139695638571 0.6992645955401279 1.8903894407797042 0 0 0
181 1 10.775459953248522 2.787986531550772 3.137878788021119 0 0 0
39 1 12.640956127440642 3.165762835587204 1.6446868246823643 0 0 0
158 1 12.634351474770897 1.3527675947262443 3.0226625096526685 0 0 0
17 1 14.62165689540144 20.83660481943494 0.03756742981406164 0 -1 0
62 1 12.714316801920152 8.56772616828693 -0.16740434478542196 0 0 0
20 1 14.541127298697708 1.2333962953114235 1.7490071273736993 0 0 0
43 1 16.147631656291864 2.7782260211484497 1.7468013897047256 0 0 0
185 1 14.424688761025212 3.4651816661101273 3.393950535016273 0 0 0
162 1 16.36094565926218 1.2525384757517273 3.2078386386238185 0 0 0
1854 1 0.3508038242640258 3.374353196723066 0.0891450816428363 0 1 1
82 1 9.048792667182742 12.442139544749507 -0.18764329426982448 0 0 0
4 1 0.184152079939142 1.3705462678851132 1.6480636788813186 0 0 0
24 1 18.331476216192442 1.4312091767212205 1.7736171406369439 0 0 0
46 1 19.96188289255163 3.234360949816995 1.9387753576905733 0 0 0
189 1 18.153957235069463 3.0679418772069824 3.3242881533050856 0 0 0
166 1 20.191104187389023 1.3918771667033787 3.6095909088642943 0 0 0
77 1 3.6820934821105316 10.44368796543426 -0.0632166642547104 0 0 0
1 1 0.06997706349940741 20.989990359459966 0.18322906110540216 0 -1 0
53 1 1.7982098093473842 6.801528989265256 1.9894112796975971 0 0 0
32 1 3.5676430600970153 5.166564764267922 1.7631121054127055 0 0 0
51 1 1.8661683411581687 4.98085721718275 3.926098775387147 0 0 0
197 1 3.667754577682353 6.951657993613679 3.6382822004688777 0 0 0
195 1 1.7881900368046588 8.572739351288611 3.618699448150357 0 0 0
193 1 0.0046037970800395095 6.522248433374044 3.75993032665094 0 0 0
52 1 0.1540598104690153 8.595287315654534 1.7573541291661576 0 0 0
56 1 3.763759295947804 8.716554055498504 1.5393511394393102 0 0 0
98 1 1.9036837369337862 15.390736675962668 0.1495279683818525 0 0 0
18 1 16.576899864272576 1.480667412775485 -0.09659495730137593 0 0 0
28 1 0.07156017177681281 5.2364054807574 1.6477658159240443 0 0 0
431 1 19.935343757352804 17.453729830959503 8.717801514493052 0 0 0
1062 1 5.632333639594978 15.446380937053123 0.010646070859170353 0 3 1
37 1 10.672199951353658 3.015422423132411 0.18015393140455793 0 0 0
36 1 7.223018751525227 4.414488266031607 1.8048243511924777 0 0 0
55 1 5.633776630219597 6.649350851848059 1.590740000355079 0 0 0
174 1 5.667632621601585 4.848148014558783 3.3622852058753727 0 0 0
201 1 7.154974755191448 6.782497843376107 3.514486697937533 0 0 0
198 1 5.835399219300778 8.37153126252203 3.3221387074521074 0 0 0
60 1 7.770013137200448 8.453290985249296 1.848808899704005 0 0 0
503 1 18.001690398274057 17.216089100070008 10.61812243896894 0 0 0
40 1 10.51293929591451 4.585114933041026 1.839251736743818 0 0 0
59 1 8.845374429641444 6.38204933873618 1.7977501244985032 0 0 0
178 1 9.208957543264543 4.995178795506355 3.6667624055211534 0 0 0
205 1 10.796899970669369 6.717367988752716 3.1627489977060637 0 0 0
202 1 8.941071249627596 8.363481016457225 3.749472620160426 0 0 0
206 1 12.565898016929916 8.64997742487898 3.4479541853901297 0 0 0
63 1 12.79925135021394 6.768673078432423 1.67079621155907 0 0 0
182 1 12.50147189310018 5.073732086341677 3.4223157860954307 0 0 0
64 1 10.820741625882464 8.556813450917861 1.633770114128997 0 0 0
47 1 20.142894134705493 1.7872623204499258 0.04309468933896121 0 0 0
44 1 14.55711960263382 5.102422529442592 1.7001618666011804 0 0 0
67 1 16.260781856691253 6.453681993045442 1.8461001948953295 0 0 0
186 1 16.303540084217147 4.76753615638647 3.4167053346114264 0 0 0
209 1 14.263019637641879 6.643217640788284 3.4453896511912836 0 0 0
68 1 14.205543220427858 8.41263277041494 1.6756080773416744 0 0 0
21 1 18.017870479087122 20.920066680197124 0.11738037647913824 0 -1 0
210 1 16.247686589515702 8.51863124753147 3.3560544268807733 0 0 0
48 1 17.944651724454992 4.7096049854150595 1.8563367205936356 0 0 0
71 1 20.00886090772797 6.782989822429114 1.9288275371036372 0 0 0
213 1 18.239450545052307 6.44814204031042 3.7224595777929537 0 0 0
190 1 19.659238245525323 4.715251107962365 3.4847223769870297 0 0 0
72 1 18.1471365776217 8.241842519163544 1.6062758422959424 0 0 0
70 1 19.8945681416293 8.187794960255376 -0.10227688673098491 0 0 0
14 1 12.7152329453783 1.1898026684102991 -0.0971617434160991 0 0 0
75 1 1.7833049985331448 10.047658662887217 1.5831232510292408 0 0 0
218 1 3.873911145321566 11.572240403971954 2.294038175931121 0 0 0
221 1 3.740505804211451 9.859318591063237 3.592524297718567 0 0 0
220 1 1.8759191379478568 11.951869404376462 3.7229871859546444 0 0 0
76 1 0.03985300413198342 11.94227398466814 1.6752375258949124 0 0 0
217 1 0.018538194549315323 10.173740885424857 3.8340869855646904 0 0 0
69 1 18.041395571951156 6.551790825779079 0.12802417360068363 0 0 0
79 1 5.777153763170555 10.240198023588304 1.833408490928106 0 0 0
84 1 7.579195267258282 12.073262999230462 1.7218160849322324 0 0 0
222 1 5.689866863202402 12.135120461257856 3.7819776103511202 0 0 0
225 1 7.397557656046525 10.40438461340769 3.1292441075229744 0 0 0
563 1 19.563727565747996 14.233718710504776 12.154375523776075 0 0 0
226 1 9.368508573046288 12.119453309568707 3.4575434950923887 0 0 0
83 1 9.072502778381887 10.26914907421674 1.418700176978599 0 0 0
88 1 10.806445937427984 12.188845612703007 1.5874097298843552 0 0 0
229 1 10.922701651049609 10.306310210700724 3.4064540605799913 0 0 0
230 1 12.847935385840517 12.100002188697808 3.2571770575952854 0 0 0
87 1 12.58644996440394 10.366627293763676 1.8055857846704857 0 0 0
118 1 20.027298088620064 15.447612672184198 -0.03813925887989586 0 0 0
553 1 2.191587691732231 14.104925068013442 12.154825617907392 0 0 0
91 1 16.178689881406896 9.88750384712263 1.3065894128127686 0 0 0
92 1 14.642059614484541 11.685987848307636 1.7083752280642535 0 0 0
234 1 16.17825593440668 12.195470004546829 3.556338687984368 0 0 0
233 1 14.495935676516483 10.284249413573567 3.416835166115703 0 0 0
443 1 17.848024393541422 20.76765555800339 10.478017916539333 0 -1 0
311 1 20.030126349983874 21.358633774433976 8.756518462311588 0 -1 0
86 1 12.766070602654572 11.94273329814153 -0.1896941333724783 0 0 0
570 1 7.769644454002525 19.290757820353292 11.881518451509239 0 0 0
214 1 19.369416242817366 8.608246744507623 3.501512184161641 0 0 0
95 1 19.81842096895184 10.0000217297392 1.4631390264832675 0 0 0
96 1 17.897802975923945 12.0900955879025 1.809203702373876 0 0 0
238 1 19.542746540570796 12.171063780854057 3.660119875944817 0 0 0
237 1 17.675941851806343 10.226066765855888 3.1162043014195207 0 0 0
5 1 4.049043258445475 20.424765426898446 0.03264590347220375 0 -1 0
133 1 11.02303274184975 17.10290248462327 0.10856643150907513 0 0 0
41 1 14.372270334757335 3.5775753833688078 0.17598317179256906 0 0 0
99 1 1.9829823874972807 13.805744884963879 2.069618666317215 0 0 0
242 1 2.268128910456159 15.866434422553581 3.633118460659464 0 0 0
104 1 3.8018834160057713 15.785192957660623 1.8822760441827597 0 0 0
241 1 0.25538770768804725 14.149005965147952 3.5859742561110477 0 0 0
245 1 4.07339583774857 13.71365496152839 4.169535241240807 0 0 0
567 1 5.495657680240096 17.620442407432293 12.285821228273948 0 0 0
100 1 0.031152504385872054 15.284022958323236 1.970449373336907 0 0 0
269 1 3.6723907456288787 17.622481918202958 3.668326919294999 0 0 0
142 1 19.9180265140429 19.062409031630203 0.050961942128571525 0 0 0
25 1 2.087402394059325 4.8617377796742165 -0.1684829565728065 0 0 0
103 1 5.524901717708205 13.711296446204791 1.8962706436631422 0 0 0
108 1 7.150692917439514 15.313637647796384 1.6347687126394943 0 0 0
249 1 7.799191689896709 13.744351504466053 3.6129553532965364 0 0 0
246 1 5.332502914330993 15.648637339182748 3.855141205359341 0 0 0
121 1 0.2174523551056206 17.268309168835465 -0.03986719032104988 0 0 0
102 1 7.200052733463425 13.663438335067214 -0.07142139369729225 0 0 0
107 1 9.1875747232419 14.283763993692514 1.7407162030504821 0 0 0
112 1 11.148685654219532 15.272926668646294 1.8689272231344498 0 0 0
253 1 10.815108192580523 13.727235017502348 3.5252280443200705 0 0 0
250 1 9.364457690581691 15.986911596054435 3.3380038036037583 0 0 0
111 1 13.02065186360472 13.555124064393057 1.4807838173939216 0 0 0
254 1 12.840718398778293 15.771645232516919 3.6004407748653913 0 0 0
38 1 12.410490427913507 5.044848886156636 0.17521763072183827 0 0 0
437 1 7.987375907906728 20.87918582882709 10.354034223291384 0 -1 0
115 1 16.351593770234103 13.948513086854565 1.4218939223546345 0 0 0
114 1 14.723587663672454 15.192671873055396 1.899374553822342 0 0 0
258 1 16.2277925391073 15.33035276413755 3.502984950513726 0 0 0
257 1 14.510109798478526 13.623113471415596 3.584017153935551 0 0 0
1423 1 16.187059843744983 15.641985829344588 -0.21866440592199757 0 4 1
58 1 8.812794746734612 8.109633799105017 -0.1257628576597957 0 0 0
119 1 19.70527995354641 13.88012657684803 2.0492568581986483 0 0 0
120 1 18.08481941115683 15.5922307936582 1.716942170428734 0 0 0
262 1 19.658353848086925 15.810812847998703 3.362757013484239 0 0 0
261 1 17.67231896175828 13.75188731098849 3.4325906892774536 0 0 0
285 1 17.92412161903698 17.55032993150919 3.3873662450004134 0 0 0
13 1 10.529310732792705 21.110595164304755 0.07635574657510025 0 -1 0
30 1 5.212989268205236 4.792623144607197 0.0724217732375515 0 0 0
74 1 1.9789875539868826 12.029889552566898 0.023344654827661293 0 0 0
123 1 1.7723782447768994 17.26078382618133 1.7314766411359435 0 0 0
265 1 0.3552003535934877 17.41079437267875 3.485627578193539 0 0 0
3 1 2.377649195990729 20.692686674440175 1.860499995499873 0 -1 0
128 1 3.8503502201552116 18.88405990944542 1.786094235237485 0 0 0
266 1 1.7984588978742826 19.144985792638323 3.5555808594058282 0 0 0
149 1 4.1937433640795545 21.112481757345307 3.5007208799264 0 -1 0
145 1 0.34180421030942104 20.904629551415816 3.345877442252594 0 -1 0
124 1 0.36891267394980254 19.169667919854874 1.6209806772911064 0 0 0
496 1 5.834806961867788 19.12959556490582 10.754776016016844 0 0 0
432 1 17.511784107956785 18.967652883104357 9.040436801973586 0 0 0
420 1 7.672373836173534 19.179486162850296 8.73697585777346 0 0 0
419 1 9.105144235656415 17.467290363730257 8.764906243279574 0 0 0
273 1 7.465015753865937 17.21775295583452 3.4288211778553253 0 0 0
153 1 7.375625480925445 20.907072506409456 3.8638170740392033 0 -1 0
127 1 5.812527803321888 17.128354533751263 1.808670968702534 0 0 0
7 1 5.798642792704953 20.706972126012005 1.8030226577268809 0 -1 0
132 1 7.467099522912054 18.94396109064307 1.8492564015089088 0 0 0
270 1 5.751612281826772 19.166863109624693 3.3540968573147047 0 0 0
1703 1 16.24944615300361 4.948269281717563 -0.1915664611508687 -2 -3 1
131 1 9.208136275619983 17.17678365554974 1.4210140224150958 0 0 0
277 1 11.236491178563499 17.453743948874767 3.195385051408064 0 0 0
11 1 8.500206735935128 20.97367079173531 1.710473226825813 0 -1 0
136 1 10.495835711718442 19.387180298711826 1.9963658178923538 0 0 0
157 1 10.73073697100715 20.73331128948307 3.617575491912149 0 -1 0
274 1 9.084767432490123 19.105614302417713 3.8896934567562997 0 0 0
15 1 12.613419175627163 21.11043704650423 1.7612189937537057 0 -1 0
278 1 12.984923684704027 19.328640056805355 3.4965530963391793 0 0 0
135 1 12.929831958928819 17.380349086696363 1.7980626477854487 0 0 0
57 1 7.131806174969104 6.428976886173717 0.12035711690919842 0 0 0
101 1 3.7194999347793845 13.752670761240616 0.20864134584461347 0 0 0
134 1 12.362293294234423 19.069418115468523 0.13743383657240915 0 0 0
281 1 14.654266259458007 17.5046587987868 3.439373351232892 0 0 0
139 1 16.323139934568538 17.61663389850571 1.6401031531142558 0 0 0
19 1 16.37118581615666 20.879493793892273 1.5110107262583412 0 -1 0
140 1 14.418644159371977 19.33803549407562 1.608366630624691 0 0 0
282 1 16.476545188348872 19.126444160762176 3.3906710330909924 0 0 0
161 1 14.724802785262874 21.03892283345386 3.726332852285016 0 -1 0
125 1 3.606588892554737 17.331030336401902 0.21412796654893457 0 0 0
29 1 3.6381268056006086 2.8863793010806025 -0.023876153223828855 0 0 0
126 1 5.998400100200475 18.742759656359006 0.11253990414601767 0 0 0
109 1 11.321144548509599 14.192400915175304 -0.20306962928854688 0 0 0
143 1 19.534035828593417 17.176739527857784 1.358921990458666 0 0 0
165 1 18.14849739183473 20.73482149373102 3.423268256662035 0 -1 0
23 1 19.923332318376012 21.08137338178352 1.637393108773078 0 -1 0
144 1 18.133822236106035 19.05442212094041 1.6522435644096332 0 0 0
286 1 20.21878620008009 19.19133445561173 3.4074730471268606 0 0 0
171 1 1.9447822753916535 3.1846951886513977 5.591865457048134 0 0 0
290 1 2.1289228148566806 1.0367520297333663 7.188341955676003 0 0 0
317 1 4.062980917027815 3.57731619998923 7.0396740893701395 0 0 0
152 1 3.9220403203361363 1.3268621054680139 5.2609133311821505 0 0 0
313 1 0.18185174226801792 3.1546464216877927 7.016934476393277 0 0 0
148 1 0.2479945943258387 1.3915872805961707 5.003296074466414 0 0 0
156 1 7.224338690151279 1.1570542452214923 5.65250338817105 0 0 0
175 1 5.277489773770964 3.360186502983891 5.386651117560847 0 0 0
294 1 5.288362336272698 1.4951601421132825 7.125680811275242 0 0 0
321 1 7.414363089107197 3.254042347273332 7.062897935606952 0 0 0
160 1 10.855055800814583 1.2659071889790563 5.024197072975455 0 0 0
179 1 9.022062896851535 3.3454780614908275 5.240657047589615 0 0 0
298 1 9.128003774060765 1.6820746056115237 6.899269944169984 0 0 0
325 1 10.859085499449263 3.012522633181519 6.950548015038341 0 0 0
302 1 13.092910778096183 1.2039389293911578 6.889260452334027 0 0 0
183 1 12.525662816058732 3.137986540526703 4.96230110358417 0 0 0
164 1 14.419564127154256 1.5201883489521364 4.683277817216606 0 0 0
329 1 14.50142246802675 3.0405782862066415 6.964055565131744 0 0 0
187 1 16.283486081416264 2.918239569007476 5.0061319058070595 0 0 0
306 1 16.412152676939947 1.5296359675012268 6.7076799668318845 0 0 0
168 1 18.256076593225288 1.3260047685103742 5.079421477546414 0 0 0
333 1 18.554380589583182 2.652924459424402 7.032900876984417 0 0 0
310 1 20.18066435923612 1.3127126794715118 6.854151398293132 0 0 0
191 1 19.9274648898853 3.2933116440558807 5.187322313204679 0 0 0
314 1 1.6775108657372613 4.892749716527057 7.202908318981266 0 0 0
170 1 1.82912820598496 6.896830669671892 5.3009140829710155 0 0 0
172 1 0.1261207081029756 5.102265406360935 5.609682803390155 0 0 0
341 1 3.485390362161889 6.905090420117637 6.957326483835527 0 0 0
176 1 3.909774679318934 5.306439961225651 5.473033427339276 0 0 0
338 1 1.622390097948113 8.432317660329277 7.112432827382889 0 0 0
194 1 21.19501451389057 8.326771611645647 5.313451636234743 -1 0 0
318 1 5.553503446961653 5.433534935097182 7.380344698043648 0 0 0
180 1 7.295103227196184 5.151982605577029 5.213576668275501 0 0 0
199 1 5.522338117173892 6.762008022665273 5.186459061867629 0 0 0
345 1 7.448938569364877 6.6387498560753535 7.127132743465307 0 0 0
204 1 7.005423573821492 8.412082373272666 5.590175812023502 0 0 0
342 1 5.5698590195581845 8.07646319406317 7.0612033316029486 0 0 0
203 1 9.352143677328838 6.713882377507648 5.428419571235773 0 0 0
322 1 9.216702377966323 4.762428925008724 7.00307108844198 0 0 0
184 1 10.951886804827723 5.210279153304167 5.321846276237488 0 0 0
349 1 10.834168645669159 7.053868255577458 7.1040712886640565 0 0 0
208 1 11.066643455483495 8.642474555662174 5.2201535901860705 0 0 0
326 1 12.4420651481497 4.985425767800302 7.198561251269242 0 0 0
346 1 8.995627594366681 8.78697734486397 7.066942814241416 0 0 0
350 1 12.769532588261379 8.21063500767039 7.028708224450805 0 0 0
207 1 12.343152597878824 6.745851685043869 5.401792649024479 0 0 0
330 1 16.3608790173424 4.793423030005722 6.817036014503458 0 0 0
188 1 14.290445993914771 4.825150543257161 5.170789018167022 0 0 0
353 1 14.588809666844886 6.633471276679505 7.077110033931211 0 0 0
211 1 16.023844574310232 6.665250686968705 5.149866638122242 0 0 0
354 1 16.030107362224335 8.340585978120572 7.030425546396311 0 0 0
212 1 14.171972282765202 8.390439856042303 5.281645118635136 0 0 0
337 1 0.2110327072428902 6.6584199689478485 7.254319566625649 0 0 0
192 1 17.925038528255733 4.452689719701827 5.169001361543692 0 0 0
357 1 17.953477176238152 6.503138307674375 6.6806936715888785 0 0 0
215 1 19.707985756557306 6.637577045196034 5.567854189960458 0 0 0
334 1 19.852400208228964 4.973969701740614 7.3521025632283505 0 0 0
216 1 17.7297279247514 8.595506671225012 5.026492471832497 0 0 0
200 1 3.976222013336547 8.380146583582126 5.249688710258233 0 0 0
196 1 1.7014114172482957 10.289687346535118 5.257079037503562 0 0 0
362 1 1.8073241691240853 12.073554004520222 6.878678231307562 0 0 0
365 1 3.358007462542255 10.363581179792906 7.166240298171627 0 0 0
224 1 3.563670384508654 11.630398645070825 5.267659303585567 0 0 0
361 1 -0.02865387757814425 10.106057896691416 6.986568149988252 0 0 0
219 1 -0.062232204785878764 12.091038442315156 5.2371182471228845 0 0 0
223 1 5.726595957447278 10.330588487034438 5.376505644237372 0 0 0
369 1 7.390416635702914 10.555513957574242 6.982182094559905 0 0 0
366 1 5.340570839043345 12.16254817566982 6.6721288318130725 0 0 0
228 1 7.548312473129323 11.94918517758816 5.067632089882992 0 0 0
227 1 8.88120107835734 10.135507932755793 4.925909258480159 0 0 0
373 1 10.64100390896085 10.193173341512368 7.181910528662397 0 0 0
370 1 9.017232626024395 12.11220408721647 7.204908312253602 0 0 0
232 1 10.793685299140186 11.807262796176476 5.064271753814383 0 0 0
374 1 12.682280643111062 12.028256053739828 6.8094043672312115 0 0 0
231 1 12.638340232519573 10.121968637438174 5.496190902999946 0 0 0
377 1 14.64202503781468 10.432243475825329 7.0680407629693995 0 0 0
235 1 16.3040293805128 10.512811633583379 5.150530794648472 0 0 0
378 1 16.120557509900763 12.375989162272568 7.021521327148573 0 0 0
236 1 14.275653331271789 11.992304430805214 5.307276048001506 0 0 0
358 1 19.593072260550656 8.568033374661809 7.0829019956701 0 0 0
381 1 17.787248469653683 10.396991023194213 6.980958975515924 0 0 0
239 1 19.51442168101955 10.351134400676782 5.183868002550886 0 0 0
382 1 19.442502216735768 12.511382300227263 7.023620774632125 0 0 0
240 1 18.07603148787107 12.19973230247456 5.287748313521887 0 0 0
243 1 1.5901236635002707 14.259164154052357 5.238064780137439 0 0 0
386 1 1.6013254332712463 15.689325411092735 6.917359876539118 0 0 0
248 1 3.900166546859963 15.46327514727984 5.57072324419263 0 0 0
389 1 3.2744923418249523 13.629030643457442 6.9286232957872596 0 0 0
244 1 0.09069502866391146 15.757825394518688 5.306343153547117 0 0 0
385 1 21.198772250060813 14.016474797950007 7.027296565970668 -1 0 0
247 1 5.745165359606747 14.119936628134104 5.683024903736507 0 0 0
393 1 7.197837396253571 13.635144204886263 7.13390557199155 0 0 0
252 1 7.644713156238703 15.626801403903125 5.215875293693425 0 0 0
390 1 6.008191125997931 15.976053830193448 6.708679473736646 0 0 0
271 1 5.72063463807294 17.653595438533742 5.183176556759044 0 0 0
417 1 7.677649932864769 17.051940999702012 6.995124959214092 0 0 0
251 1 9.181774836677626 13.674734974272408 5.640390754845501 0 0 0
397 1 11.120397538320164 13.756222391067348 6.905746728039149 0 0 0
256 1 10.936753601404622 15.483062206056822 5.240598723169516 0 0 0
394 1 9.56240500447306 15.515702527207186 7.1100321136947775 0 0 0
255 1 12.604717370981039 13.731190053743646 4.933461899610235 0 0 0
398 1 12.693530534354354 15.585676695476979 6.933962383998815 0 0 0
401 1 14.183558566112328 13.790408603502472 6.856702554867618 0 0 0
259 1 16.41137244631119 14.126153370198193 5.341429120134847 0 0 0
260 1 14.568713828498645 15.682986902315388 5.337732322498992 0 0 0
402 1 15.942422912134221 15.764631918003525 7.060136009017767 0 0 0
405 1 17.847682697159698 14.090304802219787 6.982334419387368 0 0 0
263 1 19.669607707441124 14.177365489609478 5.083053171922988 0 0 0
264 1 17.99670734810993 16.005319766617724 5.555452450129284 0 0 0
406 1 19.785535762814668 15.86801760765134 7.050586800868522 0 0 0
267 1 2.28045370176628 17.4359470891467 5.377185505309704 0 0 0
293 1 3.9740995892572446 20.91294786511054 7.017993090415319 0 -1 0
147 1 2.2479268801961503 21.08844918225246 4.899834046321793 0 -1 0
410 1 1.9700937105606222 19.459141357294122 7.0903435884673565 0 0 0
272 1 3.633901651913644 19.211050126352163 5.275101396668859 0 0 0
409 1 0.4060929626950346 17.78450215025898 7.024095835436675 0 0 0
268 1 0.6141451601455467 19.051912711625654 5.201140883521906 0 0 0
289 1 0.3474449926561336 20.92718436957567 7.082812689375398 0 -1 0
413 1 3.9101767540162102 17.618639682219985 7.226907939964461 0 0 0
297 1 7.778909586584921 21.074390155270372 7.446168280510829 0 -1 0
151 1 5.588796334209726 20.878361204453185 5.349553292607394 0 -1 0
276 1 7.606547349661899 19.23483289381523 5.731708858933967 0 0 0
414 1 5.555684996179504 19.34975244613615 7.3025124066543015 0 0 0
421 1 11.09936026088911 17.730760949411035 7.035768313370578 0 0 0
275 1 9.34263575054478 17.597076240171617 5.5926202505963705 0 0 0
301 1 11.067305799488507 0.02455508168523264 7.0337700749550285 0 0 0
155 1 9.182187620310579 21.097826941006474 5.493173986170557 0 -1 0
418 1 9.465713033986363 19.2053798058336 7.266528353222856 0 0 0
280 1 11.126089849549501 19.051920938472094 5.051032608897727 0 0 0
279 1 12.650696164529991 17.562623566383927 5.216421574975663 0 0 0
422 1 12.769331794668703 19.79255834314138 7.020028385598839 0 0 0
159 1 12.590944127748905 21.323082075695183 4.9102962451100565 0 -1 0
283 1 15.9861980687929 17.713245390205472 5.246725649722437 0 0 0
305 1 14.874378387186297 0.09005623687030351 6.738412940523228 0 0 0
425 1 13.954183395514002 17.566198899295834 6.927276838669798 0 0 0
163 1 16.687509497931266 21.014732737271856 5.289415184156801 0 -1 0
284 1 14.3566773518888 19.24981199609983 5.419597557436404 0 0 0
426 1 16.012810351528543 19.182641865397144 6.824358272132542 0 0 0
429 1 17.777936172626376 17.628205892995034 7.107386563000408 0 0 0
287 1 19.913151195932258 17.65723469164564 5.30599920220686 0 0 0
167 1 20.047935649436695 20.924579361359065 5.481467222124221 0 -1 0
309 1 18.181964467064653 20.85381637724464 7.365385209074118 0 -1 0
288 1 18.416462777797413 19.03903491396138 5.343768899731537 0 0 0
430 1 19.829787150500735 19.188855728930413 7.217322982626536 0 0 0
315 1 1.9930339398968107 2.7792679069468247 8.471207562205837 0 0 0
434 1 1.887370615779212 1.1913908610142072 10.484287066880826 0 0 0
296 1 3.748504736114877 1.1527484866454056 9.140463191319167 0 0 0
447 1 3.6804357542688675 2.708842366426273 10.728077553473188 0 0 0
292 1 0.43200429527925754 1.3160762153131813 8.78225910634406 0 0 0
445 1 -0.0476176525393391 2.967096370298937 10.74749277128431 0 0 0
300 1 7.308215681972304 1.6267268110165487 8.795677457347862 0 0 0
319 1 5.435673015719499 3.2560089186694596 8.792443848632999 0 0 0
436 1 5.965413745577223 0.7356161905843686 10.725449228843205 0 0 0
449 1 7.41883914187312 3.3367814824247692 10.64726167156071 0 0 0
504 1 19.670964759767358 19.40909560687343 10.36687082554062 0 0 0
304 1 11.012556011516134 2.047366972710087 9.028271522990089 0 0 0
323 1 8.977816902854899 3.2845890158294497 8.766486942304912 0 0 0
438 1 9.083287967171094 1.5879380919021677 10.636743970942458 0 0 0
451 1 11.125073587222643 3.5135290356974296 10.900831210239895 0 0 0
440 1 12.704467591614916 1.6315019509075899 10.98242552861107 0 0 0
327 1 13.085384145044559 3.163005579029886 8.685947284143177 0 0 0
308 1 14.30179777068234 1.424786067152292 9.059246939209828 0 0 0
453 1 14.616795136963166 3.147655949006514 10.728385027876795 0 0 0
331 1 16.289393870456387 2.9551086242693256 8.785116293905798 0 0 0
442 1 16.147254423834227 1.310928171892871 10.763925946664084 0 0 0
501 1 13.961795355496882 17.273027137327155 11.021536377801658 0 0 0
312 1 18.09655800742184 1.409395333936365 9.075072225949228 0 0 0
455 1 17.834679157744553 3.071716253719725 10.608482875581451 0 0 0
335 1 20.056335356984327 3.0186695371018053 8.833269122732592 0 0 0
444 1 19.725995959743102 1.1042258348303637 10.631773303130874 0 0 0
307 1 16.271944556770656 21.285972114632187 8.986808022054301 0 -1 0
320 1 3.1895396899962103 5.077442195736359 8.994304674336412 0 0 0
339 1 1.6578739376448912 6.652805027539949 9.179262421075721 0 0 0
446 1 2.339514416148888 4.611398968121779 10.779119504875197 0 0 0
459 1 3.670992610531614 6.7893299698184775 10.967581564665327 0 0 0
458 1 1.620041475940675 8.696349290082505 10.634277862534967 0 0 0
316 1 0.3250407898982241 4.956304159781921 9.088030158156695 0 0 0
340 1 21.27767030876485 8.524561628395086 8.751552305105744 -1 0 0
344 1 3.667202624447448 8.294738273519412 8.585900851959915 0 0 0
502 1 15.938126859073895 19.147434453743756 10.930236440673037 0 0 0
324 1 7.249248832717252 5.012821542124711 8.840087030291684 0 0 0
343 1 5.254195988357899 6.6944137130531995 9.092956015901546 0 0 0
448 1 5.230684811950627 4.869978031807483 10.449287860456478 0 0 0
461 1 7.328161173923554 6.753587796038947 10.384618696744212 0 0 0
460 1 5.413220434585329 8.24199119163387 10.690954558179456 0 0 0
348 1 7.412770211385873 8.546055113991745 8.652688414275994 0 0 0
441 1 14.228366454542169 20.85468767305506 10.858486830581068 0 -1 0
428 1 14.279102629802814 19.494867717815367 8.820575472673656 0 0 0
328 1 11.069707471012979 4.722505450766337 8.92357888905566 0 0 0
450 1 9.382463722257642 4.966923577419005 10.60879817662364 0 0 0
347 1 9.244116317688178 6.358440210415288 8.743215039757672 0 0 0
463 1 10.825389113466386 6.618796633052549 10.674023828421719 0 0 0
352 1 10.91146872048209 8.436085611937415 9.08734177889271 0 0 0
351 1 12.509954983143944 6.760987070589056 9.42323793036431 0 0 0
452 1 12.850660508706703 4.528160245896933 10.5932941415166 0 0 0
462 1 9.06535803935986 8.406708938983257 10.736788661120714 0 0 0
427 1 15.783492146723772 17.767414033959355 8.752696065581285 0 0 0
332 1 14.875362683695473 4.9263233631335535 8.807002422500526 0 0 0
465 1 14.950899755183716 6.819185338449327 10.72563327225332 0 0 0
355 1 16.900398007923158 6.650749444223447 8.610235200179211 0 0 0
454 1 16.394830283243607 4.951184277382303 10.885064479878237 0 0 0
466 1 16.3071987953885 8.853688152265242 10.509004811913599 0 0 0
356 1 14.450048655716943 8.488131654514532 8.602521089086443 0 0 0
464 1 12.757616539446854 8.711286922414612 10.722282095355656 0 0 0
457 1 -0.010717460780990784 6.846169103344836 10.87109374430221 0 0 0
456 1 19.661918666332426 4.929214476771169 10.256037834455906 0 0 0
336 1 17.964608707261227 4.698499536184757 8.752439662900368 0 0 0
467 1 18.22274446791282 6.589488551742583 10.71031085396088 0 0 0
359 1 19.800540035933984 6.951875474539688 9.079988871169048 0 0 0
360 1 17.906576242664833 8.977599167946005 8.54955236282023 0 0 0
468 1 19.867031174083046 8.83202941883354 10.761691631588446 0 0 0
363 1 1.450937704289601 10.443404413125874 8.655077318685768 0 0 0
470 1 1.9626554483680403 12.22713009518349 10.307449533647597 0 0 0
368 1 3.743491059067277 12.101232549795716 8.680634534376658 0 0 0
471 1 3.5318715803421905 10.092514038821333 10.450806032203326 0 0 0
364 1 21.34466690593645 12.269084933053389 8.611693719971406 -1 0 0
469 1 0.031061146515931254 10.454012488774726 10.65333594173093 0 0 0
499 1 10.858444719834637 17.36697485655577 10.827616688936454 0 0 0
367 1 5.454359321464237 9.787681389684378 8.78120637067825 0 0 0
473 1 7.218365975083971 10.101756779633703 10.633102019574114 0 0 0
372 1 6.9324961159717935 11.772894917756476 8.924922594717167 0 0 0
472 1 5.335110752668002 11.813955182673961 10.749865750925082 0 0 0
371 1 8.90572876430109 10.295097997527533 9.173465712977315 0 0 0
474 1 8.946783297467292 12.006534398817161 10.670701638826966 0 0 0
475 1 10.714920961640045 10.224654727856544 10.653845122573244 0 0 0
376 1 11.23833256248547 11.639377285224219 8.888453655431373 0 0 0
423 1 12.571695148610265 17.701861026140946 8.721213755132634 0 0 0
375 1 12.60899263229333 9.890718318440479 8.329128915636835 0 0 0
476 1 12.47351764690698 12.032528488781118 10.677639610597852 0 0 0
379 1 16.11330140563922 10.577535801318328 9.03820125374838 0 0 0
477 1 14.433507022743472 10.286580772383946 10.854299330037875 0 0 0
380 1 14.337713902093792 11.99469251102517 8.754926189401555 0 0 0
478 1 15.951789857049336 12.283478057192177 10.630713922591957 0 0 0
479 1 17.983298540889713 10.420322920240174 10.724480684815788 0 0 0
383 1 19.692684531326684 10.611732760598148 8.416055656908533 0 0 0
384 1 17.981398474677384 12.334737876455367 9.011831318553794 0 0 0
480 1 19.57495239009789 12.170164119692409 10.636529484843471 0 0 0
439 1 10.662109845808887 21.316249632036772 10.692770032443732 0 -1 0
387 1 1.9156756509304955 13.732134811229646 8.689469008368325 0 0 0
482 1 1.919710268515384 15.806885787058574 10.504021828062893 0 0 0