LAMMPS (19 Mar 2020)
OMP_NUM_THREADS environment is not set. Defaulting to 1 thread. (../comm.cpp:94)
  using 1 OpenMP thread(s) per MPI task
package omp 0
using multi-threaded neighbor list subroutines
package omp 4
set 4 OpenMP thread(s) per MPI task
using multi-threaded neighbor list subroutines
units metal
dimension 3
boundary p p p


lattice fcc 3.5440
Lattice spacing in x,y,z = 3.544 3.544 3.544
region box block 0 7 0 7 0 7 units lattice
create_box 1 box
Created orthogonal box = (0 0 0) to (24.808 24.808 24.808)
  1 by 1 by 2 MPI processor grid
create_atoms 1 box
Created 1372 atoms
  create_atoms CPU = 0.0008306 secs


#read_restart after_heating.lmp

variable P equal 0
variable dt equal 0.001
variable loopVar loop 21

# print "step temp vol pe" file heating.txt screen no

pair_style eam/alloy
pair_coeff * * Co_Zhou04.eam.alloy Co
Reading potential file Co_Zhou04.eam.alloy with DATE: 2018-03-30




neighbor 2 bin
neigh_modify every 10 check yes

thermo 1000
thermo_style custom step temp vol press ke pe density

timestep $(dt)
timestep 0.0010000000000000000208

# fix 2 all npt temp 300 300 $(dt*100) iso 0 0 $(dt*1000)
# run 30000
# unfix 2





# dump_modify 1 append yes
# dump 3 all custom 10000 traj_npt_new.lammpstrj id type x y z


label ensemble



variable T equal 2500-${loopVar}*100
variable T equal 2500-1*100
velocity all create $T 123123
velocity all create 2400 123123
reset_timestep 0
fix 1 all npt temp $T $T $(dt*100) iso 0 0 $(dt*1000)
fix 1 all npt temp 2400 $T $(dt*100) iso 0 0 $(dt*1000)
fix 1 all npt temp 2400 2400 $(dt*100) iso 0 0 $(dt*1000)
fix 1 all npt temp 2400 2400 0.10000000000000000555 iso 0 0 $(dt*1000)
fix 1 all npt temp 2400 2400 0.10000000000000000555 iso 0 0 1
print """
<--------------------------------------------------------------------->
<------------------ Equilibrating at temperature $T ----------------->
<--------------------------------------------------------------------->
"""

<--------------------------------------------------------------------->
<------------------ Equilibrating at temperature 2400 ----------------->
<--------------------------------------------------------------------->

run 150000
Last active /omp style is pair_style eam/alloy/omp
Neighbor list info ...
  update every 10 steps, delay 10 steps, check yes
  max neighbors/atom: 2000, page size: 100000
  master list distance cutoff = 7.60354
  ghost atom cutoff = 7.60354
  binsize = 3.80177, bins = 7 7 7
  1 neighbor lists, perpetual/occasional/extra = 1 0 0
  (1) pair eam/alloy/omp, perpetual
      attributes: half, newton on, omp
      pair build: half/bin/atomonly/newton/omp
      stencil: half/bin/3d/newton
      bin: standard
Per MPI rank memory allocation (min/avg/max) = 6.162 | 6.162 | 6.162 Mbytes
Step Temp Volume Press KinEng PotEng Density 
       0         2400    15267.758    37435.017    425.31758   -6039.8528        8.794 
    1000     2416.984    17436.938    1955.7416    428.32741   -5432.3008    7.7000136 
    2000    2413.2549    18041.442   -1037.2265    427.66656   -5291.3233    7.4420137 
    3000    2440.9131    18083.287   -1470.6947    432.56803   -5283.3437    7.4247929 
    4000    2463.8274    18100.272   -975.91757     436.6288   -5276.4395    7.4178257 
    5000    2463.5068    17968.001    3337.9826    436.57199   -5297.2172    7.4724317 
    6000    2351.6857    18174.603   -1866.9459    416.75553   -5263.0534     7.387488 
    7000    2343.3605    18102.152    -4802.758    415.28018   -5286.1978    7.4170554 
    8000    2345.5021    18127.282   -10673.317    415.65969   -5299.7815    7.4067729 
    9000    2448.0238    18008.148     2515.978    433.82814   -5294.7646    7.4557727 
   10000     2306.688    17946.354    7908.3417    408.78123   -5286.7023     7.481445 
   11000    2360.4072    18112.849    -4700.303    418.30111    -5287.951    7.4126748 
   12000    2374.5689    18000.071   -1706.3806     420.8108   -5301.9658    7.4591182 
   13000    2463.8036    17972.607    2706.0024    436.62457   -5298.8937    7.4705168 
   14000    2417.7726    18155.384    747.70585    428.46717   -5262.1137    7.3953083 
   15000    2390.2338     17991.75    2803.1727    423.58687   -5293.5111    7.4625683 
   16000    2416.6882    18177.878   -7060.9445      428.275    -5278.118    7.3861569 
   17000    2351.6231    18117.991   -7906.7958    416.74444   -5287.7502    7.4105711 
   18000    2429.0427    18092.465   -537.32205    430.46441    -5278.901    7.4210264 
   19000    2435.2067    17870.734    11110.152    431.55675   -5296.6425    7.5131026 
   20000    2425.0087    18013.458   -382.21734    429.74951   -5296.2287    7.4535752 
   21000    2396.5262    18057.722   -4198.1555    424.70196   -5297.3951    7.4353047 
   22000    2344.3589    18041.991    2708.7548     415.4571   -5279.2373    7.4417875 
   23000    2351.4728    17863.828    12215.325     416.7178   -5293.2041    7.5160074 
   24000    2429.9957    18051.981    1184.4005    430.63329    -5286.731    7.4376691 
   25000     2361.987    18058.752   -7458.8521    418.58108   -5309.1886    7.4348805 
   26000    2412.0869    18086.708   -1130.4371    427.45957   -5281.9697    7.4233884 
   27000    2444.4164    18026.819    2977.1103    433.18887   -5290.7335    7.4480508 
   28000     2433.371    18036.842    1936.2537    431.23144   -5279.7045    7.4439117 
   29000    2402.1981    17961.308    2548.5926    425.70712   -5298.4796    7.4752164 
   30000    2282.9047    17985.096     3984.059    404.56646   -5286.9714     7.465329 
   31000    2351.0252     18166.15    -5588.604    416.63848   -5273.0758    7.3909256 
   32000    2496.9599    18040.164    4922.2132    442.50039   -5277.8979     7.442541 
   33000    2457.0666     18025.78    8085.2684    435.43069   -5266.5901    7.4484801 
   34000    2461.9927    17903.966    10440.677    436.30366   -5296.2965    7.4991576 
   35000     2465.917    18062.279   -4508.4822     436.9991   -5299.2445    7.4334285 
   36000    2332.0067    18141.609   -444.50098    413.26811   -5264.8857    7.4009236 
   37000    2354.9485     18167.88   -948.24009    417.33375   -5265.3749    7.3902218 
   38000    2349.4791    18045.116   -2411.6458    416.36449   -5290.3634    7.4404985 
   39000    2436.3782    18071.035   -1938.8254    431.76436   -5291.4246    7.4298267 
   40000    2371.3491    17905.367     7222.528    420.24019   -5303.4896    7.4985708 
   41000    2358.9185    17917.311    8903.2016    418.03729   -5295.7777    7.4935719 
   42000    2412.3045    18150.991   -2834.0776    427.49813    -5269.774    7.3970982 
   43000    2446.4986    17961.262    1781.7515    433.55786   -5304.6976    7.4752354 
   44000    2375.0495    18111.153   -6610.0368    420.89597   -5288.4519    7.4133691 
   45000    2397.9214    18034.414   -2383.1403    424.94922   -5298.2813     7.444914 
   46000     2381.316    18102.998    1730.8883    422.00649    -5267.493    7.4167086 
   47000     2488.462    18064.898   -2620.3794    440.99444   -5294.5848    7.4323508 
   48000    2409.8681    18083.499   -1238.3897    427.06636   -5280.2933     7.424706 
   49000    2402.0894    18084.982   -5667.4518    425.68786   -5295.1956    7.4240971 
   50000    2313.8684    18047.877   -1284.9191    410.05371   -5293.4496    7.4393602 
   51000    2413.5356    18013.126    3520.7589     427.7163   -5285.1616    7.4537125 
   52000    2542.8132     17990.88    5187.2525    450.62632   -5292.3997    7.4629292 
   53000    2352.9268     18068.31    213.12374    416.97548   -5280.8848    7.4309472 
   54000     2451.907    18041.753   -8999.2731    434.51632   -5316.0788    7.4418857 
   55000    2447.1759    18074.047   -2198.3746    433.67789   -5288.9381    7.4285889 
   56000    2376.1354    17980.693     2630.884    421.08839   -5294.3378    7.4671573 
   57000     2435.728    18180.398   -6023.2157    431.64914    -5268.379    7.3851333 
   58000    2370.2151    17921.927    4979.5134    420.03923   -5300.3327    7.4916419 
   59000     2437.918    18132.564   -5109.5239    432.03724   -5285.5171    7.4046155 
   60000    2336.8863    18077.163    1877.4717    414.13284   -5273.2997     7.427308 
   61000    2431.1473     18126.88   -83.921168    430.83737   -5267.9995    7.4069371 
   62000    2375.7826    18057.277    2643.9872    421.02588   -5277.3957    7.4354875 
   63000    2338.1509    18078.852   -6772.3222    414.35696   -5299.3081    7.4266142 
   64000    2346.9985    18108.374   -6150.3637    415.92488   -5289.3244    7.4145067 
   65000    2379.1737    18148.936   -6089.8175    421.62683   -5282.2641    7.3979355 
   66000    2362.9044    18028.477    3177.7331    418.74366   -5275.9101    7.4473656 
   67000     2422.048    18120.778     2025.538    429.22483   -5266.2065    7.4094315 
   68000    2348.1461    18072.651    1654.1529    416.12825   -5273.6567    7.4291624 
   69000    2506.7038     18063.38    1505.1255    444.22716   -5283.6946    7.4329756 
   70000     2457.634    18138.184   -7273.4109    435.53124   -5284.0297    7.4023209 
   71000    2351.1408    17969.872   -133.66464    416.65896   -5305.3814    7.4716539 
   72000    2381.4549    18071.389    4314.0948     422.0311   -5271.5258    7.4296813 
   73000    2449.8158    17991.799    3395.6426    434.14572   -5291.1743    7.4625478 
   74000    2424.9375    18052.072    1580.0193    429.73691   -5285.1558    7.4376317 
   75000    2402.9597    18138.216   -7243.1305    425.84208   -5284.3942    7.4023081 
   76000    2371.3559    18056.396   -966.45239     420.2414   -5289.7594    7.4358506 
   77000    2385.5033    18037.731    1452.1481    422.74853   -5287.0006    7.4435448 
   78000    2475.4916    17970.669    8143.4389    438.69588   -5287.4539    7.4713223 
   79000    2381.6311    17906.439    2452.5608    422.06233   -5316.4465     7.498122 
   80000    2430.3461    17956.002   -1076.3919    430.69538   -5309.8887    7.4774253 
   81000    2435.4129    18126.286   -4914.3248     431.5933   -5286.2924    7.4071798 
   82000    2340.1914    18054.983    -1695.649    414.71857   -5290.4838    7.4364326 
   83000    2385.6931    18117.145   -3524.9134    422.78218    -5279.584    7.4109173 
   84000    2427.1062    18073.949    1289.1835    430.12123   -5274.5885     7.428629 
   85000    2401.5616    18024.241    373.81679    425.59433   -5292.6405    7.4491159 
   86000    2389.2655    18121.454   -2002.1478    423.41526    -5271.888    7.4091549 
   87000    2327.4243    18075.027   -818.31533    412.45603   -5279.8566    7.4281858 
   88000    2405.3045    18022.809     2827.962    426.25762   -5289.2498    7.4497077 
   89000    2390.1949    18092.756    963.36854    423.57996   -5274.9291     7.420907 
   90000    2360.1355    17901.681    9292.3173    418.25296   -5297.3317    7.5001148 
   91000    2461.8029    17971.473     1437.478    436.27003   -5304.2586    7.4709882 
   92000    2407.4281    17922.079    8716.4316    426.63395   -5296.0892    7.4915784 
   93000    2381.3849    18078.669   -6727.3438     422.0187   -5294.1093    7.4266893 
   94000     2464.203    18208.877   -12351.197    436.69536   -5288.3796    7.3735828 
   95000    2290.3916    18035.492    1100.3293    405.89325   -5283.1309    7.4444691 
   96000     2422.064    17990.244    1732.7786    429.22766   -5292.5402    7.4631928 
   97000    2440.5857    18037.455   -3271.8543    432.51001   -5302.8376    7.4436589 
   98000    2352.7033    18067.033   -5092.7416    416.93587   -5298.5064    7.4314726 
   99000     2372.629    17918.476     2773.051    420.46701   -5306.0434    7.4930849 
  100000    2424.6585    18121.375    1116.4786    429.68746    -5268.373    7.4091873 
  101000    2419.4702    18125.122   -6731.1175    428.76801   -5288.2128    7.4076556 
  102000    2376.3338    18063.909   -1580.1186    421.12356   -5288.0167     7.432758 
  103000    2470.8919    17953.188    9450.3325    437.88074   -5286.5635    7.4785973 
  104000    2394.7581    18065.131    835.76844    424.38864   -5281.7279    7.4322553 
  105000    2393.8762    18056.653   -2616.6519    424.23235   -5293.5344    7.4357447 
  106000    2307.7801    18074.265    845.82875    408.97478   -5278.9647    7.4284989 
  107000    2454.4232    17898.839    8302.9846    434.96223   -5304.6643    7.5013055 
  108000    2451.2751    18046.801   -1069.8068    434.40433   -5296.8769     7.439804 
  109000    2399.3489    18199.534   -9350.7744     425.2022   -5277.3915    7.3773682 
  110000    2457.7703    18195.661   -6017.9103    435.55537   -5271.7939    7.3789385 
  111000    2420.9758    17939.903    7218.6982    429.03482   -5291.4596    7.4841352 
  112000    2444.6334    18017.729    3581.8983    433.22732   -5284.6735    7.4518081 
  113000    2397.3142    18092.924   -6726.2867    424.84162   -5292.7982    7.4208381 
  114000    2402.4728    18049.421    2691.9915     425.7558   -5279.4743     7.438724 
  115000    2477.4771    18116.325   -6109.0976    439.04774   -5288.2097    7.4112526 
  116000    2406.2053    18026.882    3681.5195    426.41727    -5279.375    7.4480247 
  117000    2424.1213    17929.623    11057.466    429.59225   -5282.2412    7.4884264 
  118000    2333.1524    18050.656    763.43502    413.47115   -5280.9744    7.4382152 
  119000    2385.2282     18097.24   -7090.3501    422.69979    -5299.084    7.4190684 
  120000     2407.968     17977.81    196.48602    426.72963   -5302.7711    7.4683548 
  121000    2409.3446    18243.629   -5925.6624    426.97359   -5254.9479    7.3595369 
  122000    2356.0606    18042.093    1365.1264    417.53083    -5282.823    7.4417452 
  123000    2467.7554      18142.5   -4397.2907     437.3249   -5281.6279    7.4005601 
  124000     2379.279    18031.713    1540.1312    421.64549   -5280.9049    7.4460292 
  125000    2431.0558    18035.525   -8001.8023    430.82115   -5315.2751    7.4444556 
  126000    2377.0781    18064.027    104.95848    421.25546   -5282.4327    7.4327093 
  127000    2442.5048    18123.462   -2317.1765    432.85011    -5276.744    7.4083339 
  128000    2416.9966    17939.366    2963.1962    428.32965   -5308.2221    7.4843592 
  129000    2422.4462    17949.508     4517.169    429.29539   -5296.8572    7.4801304 
  130000    2396.9459    18064.461    1778.0977    424.77635   -5282.3758    7.4325308 
  131000    2351.7547    17845.663    9182.9483    416.76776   -5311.6903    7.5236578 
  132000    2398.1572    17987.721   -147.01341    424.99101    -5301.253    7.4642395 
  133000     2347.712    17992.312    405.05178    416.05133    -5298.141    7.4623351 
  134000    2382.8164    18010.422    2107.9073    422.27237   -5288.7969    7.4548313 
  135000    2368.1756    17984.752   -2610.8483     419.6778   -5307.3903    7.4654719 
  136000    2413.6331    18048.351    3653.5331    427.73358   -5280.5596    7.4391649 
  137000    2415.1339    18043.766    5136.8077    427.99954   -5272.1851    7.4410552 
  138000     2371.828    18051.005    741.25913    420.32507   -5284.5985    7.4380713 
  139000     2453.383    18093.853   -6522.6705    434.77788   -5301.5806    7.4204572 
  140000    2387.0478    18110.803   -3854.0301    423.02226   -5284.3896    7.4135124 
  141000    2465.9894    18118.195    1044.3954    437.01194   -5267.7046    7.4104877 
  142000    2382.9487    18156.884   -5526.2411    422.29583   -5276.9568    7.3946973 
  143000    2418.3248    17986.846     3392.859    428.56503   -5287.2006    7.4646027 
  144000    2429.0234    17983.874    -138.7733    430.46099   -5307.1442    7.4658366 
  145000    2316.7007    17971.196    2943.8454    410.55564   -5295.8516    7.4711033 
  146000    2415.7391    18107.485   -296.64196     428.1068   -5281.6057    7.4148706 
  147000    2505.0046    17991.389    9498.7546    443.92603   -5277.9795    7.4627179 
  148000    2374.4484    18054.991   -3962.8794    420.78944   -5292.5071    7.4364291 
  149000    2381.0099    18237.934   -12099.592    421.95224   -5272.2958    7.3618352 
  150000    2338.8752    18056.556    154.47259    414.48531   -5284.1358    7.4357846 
Loop time of 551.269 on 8 procs for 150000 steps with 1372 atoms

Performance: 23.509 ns/day, 1.021 hours/ns, 272.099 timesteps/s
123.8% CPU use with 2 MPI tasks x 4 OpenMP threads

MPI task timing breakdown:
Section |  min time  |  avg time  |  max time  |%varavg| %total
---------------------------------------------------------------
Pair    | 338.76     | 339.44     | 340.12     |   3.7 | 61.58
Neigh   | 5.9436     | 5.9622     | 5.9807     |   0.8 |  1.08
Comm    | 25.122     | 25.524     | 25.927     |   8.0 |  4.63
Output  | 0.0098781  | 0.010982   | 0.012087   |   1.1 |  0.00
Modify  | 178.05     | 179.15     | 180.25     |   8.2 | 32.50
Other   |            | 1.174      |            |       |  0.21

Nlocal:    686 ave 686 max 686 min
Histogram: 2 0 0 0 0 0 0 0 0 0
Nghost:    3015 ave 3020 max 3010 min
Histogram: 1 0 0 0 0 0 0 0 0 1
Neighs:    47821.5 ave 47934 max 47709 min
Histogram: 1 0 0 0 0 0 0 0 0 1

Total # of neighbors = 95643
Ave neighs/atom = 69.7106
Neighbor list builds = 3041
Dangerous builds = 0

fix out_file_1 all print 1000 "$(step) $(temp) $(press) $(vol) $(ke) $(pe) $(density)" file one_phase_cooling_$T.txt screen no title  "step temp press vol ke pe density"
fix out_file_1 all print 1000 "$(step) $(temp) $(press) $(vol) $(ke) $(pe) $(density)" file one_phase_cooling_2400.txt screen no title  "step temp press vol ke pe density"
# dump 3 all custom 1000 traj_npt_new.lammpstrj id type x y z
run 50000
Last active /omp style is pair_style eam/alloy/omp
Per MPI rank memory allocation (min/avg/max) = 6.162 | 6.162 | 6.162 Mbytes
Step Temp Volume Press KinEng PotEng Density 
  150000    2338.8752    18056.556    154.47259    414.48531   -5284.1358    7.4357846 
  151000    2356.5773     18048.84    1300.8003     417.6224    -5281.452    7.4389633 
  152000    2445.9642    18073.695   -6990.7351    433.46315    -5307.235    7.4287335 
  153000     2423.183    18164.372   -2899.2789    429.42598    -5269.043     7.391649 
  154000    2387.4319     17978.29    7599.3895    423.09032   -5278.1726    7.4681554 
  155000     2333.536    18016.297    756.65791    413.53911   -5294.9834    7.4524006 
  156000    2426.7492    18046.292   -497.27872    430.05796   -5288.6394    7.4400139 
  157000    2492.2806    18089.412   -5645.3361    441.67114   -5293.5656    7.4222789 
  158000    2330.4504    17867.136    9432.1232     412.9923   -5302.0277    7.5146157 
  159000    2392.6905    18034.608    1548.7928    424.02223   -5284.9104    7.4448341 
  160000    2483.7011    18165.502   -6716.3605    440.15073   -5280.6037    7.3911891 
  161000    2467.3541    18003.266    3074.7389    437.25379   -5290.7116    7.4577947 
  162000    2386.5464    18048.431    3228.0625    422.93339   -5279.4066    7.4391319 
  163000    2436.1839    18104.499    -807.8569    431.72994   -5278.6737    7.4160938 
  164000    2413.1543    17966.082     5032.623    427.64872   -5291.0238    7.4732299 
  165000    2407.0431    18037.969    3151.8989    426.56574   -5282.5408    7.4434466 
  166000    2471.9248    18022.356    299.12842    438.06378    -5291.554     7.449895 
  167000    2409.5539    17939.446    8240.6491    427.01068   -5283.6122    7.4843259 
  168000    2426.0576     18102.25    5742.8324    429.93539    -5253.388    7.4170152 
  169000    2349.1001    18027.602    2139.1745    416.29732   -5288.4482    7.4477272 
  170000    2408.4156    18241.622   -6070.8829    426.80896   -5263.2039    7.3603467 
  171000    2389.2735    18108.781   -8895.8593    423.41668    -5297.257    7.4143399 
  172000    2453.4075    17981.783    4575.1372    434.78222   -5288.9054    7.4667045 
  173000    2331.9196    18083.056    4845.7807    413.25267   -5262.3662    7.4248878 
  174000    2356.7968    18025.272   -4093.6329     417.6613    -5302.994    7.4486899 
  175000    2373.5344    17985.949   -57.083363    420.62747   -5307.2636    7.4649751 
  176000    2311.8373    17890.014     11501.76    409.69378    -5289.089     7.505006 
  177000    2435.1812    18024.332     4061.299    431.55224   -5281.7499    7.4490785 
  178000    2557.5185    18176.458   -8553.4304    453.23232   -5281.1388    7.3867342 
  179000    2456.5895    18010.577    4037.7598    435.34612   -5287.5653    7.4547674 
  180000    2408.2733    17943.298     3431.638    426.78374   -5303.0865    7.4827191 
  181000     2422.533    18102.455    -49.68813    429.31078   -5275.5915    7.4169313 
  182000    2355.7638    18087.836   -1133.7216    417.47824   -5279.1371    7.4229255 
  183000    2352.6945    18021.692   -2731.9979    416.93431   -5297.9061    7.4501694 
  184000    2466.7782    18140.434   -1714.6433    437.15172   -5275.4774    7.4014027 
  185000    2304.1985    18026.129    5241.4626    408.34006    -5273.918    7.4483359 
  186000    2440.1178    17957.295    3600.5055    432.42708   -5299.9796    7.4768869 
  187000    2410.5228    18071.054   -598.25649    427.18239   -5282.6755    7.4298191 
  188000    2403.9508    17892.048    10395.631    426.01772   -5290.3589    7.5041529 
  189000     2397.954    18043.999    486.64215    424.95499   -5287.1087    7.4409591 
  190000    2340.4673    18012.695   -807.38359    414.76746   -5293.8289    7.4538907 
  191000    2411.1957    18106.265   -2832.1836    427.30163   -5279.3664    7.4153705 
  192000     2406.835    18000.435    4261.7435    426.52886   -5285.1563    7.4589675 
  193000    2360.1377    18038.463   -121.61386    418.25335   -5292.0275    7.4432428 
  194000     2425.029    18019.568    501.66256     429.7531   -5290.3029    7.4510478 
  195000    2354.3299    18038.978    1882.5967    417.22413   -5281.1971    7.4430303 
  196000    2392.2098    17966.962    2202.7506    423.93704   -5298.4838     7.472864 
  197000    2318.1911    18045.335    3622.9725    410.81977   -5275.2729    7.4404081 
  198000    2381.0265    17890.248    8210.2351    421.95518   -5296.2369    7.5049079 
  199000    2431.9174    18135.818   -4586.6035    430.97385   -5279.2689    7.4032869 
  200000    2346.6775    18058.405    3353.2611    415.86799   -5276.3845    7.4350233 
Loop time of 188.321 on 8 procs for 50000 steps with 1372 atoms

Performance: 22.940 ns/day, 1.046 hours/ns, 265.505 timesteps/s
121.0% CPU use with 2 MPI tasks x 4 OpenMP threads

MPI task timing breakdown:
Section |  min time  |  avg time  |  max time  |%varavg| %total
---------------------------------------------------------------
Pair    | 114.24     | 114.54     | 114.84     |   2.8 | 60.82
Neigh   | 1.9843     | 1.9937     | 2.0031     |   0.7 |  1.06
Comm    | 8.7984     | 8.8549     | 8.9114     |   1.9 |  4.70
Output  | 0.0027471  | 0.0037524  | 0.0047576  |   1.6 |  0.00
Modify  | 62.077     | 62.474     | 62.87      |   5.0 | 33.17
Other   |            | 0.4539     |            |       |  0.24

Nlocal:    686 ave 690 max 682 min
Histogram: 1 0 0 0 0 0 0 0 0 1
Nghost:    3009 ave 3012 max 3006 min
Histogram: 1 0 0 0 0 0 0 0 0 1
Neighs:    47790.5 ave 48097 max 47484 min
Histogram: 1 0 0 0 0 0 0 0 0 1

Total # of neighbors = 95581
Ave neighs/atom = 69.6655
Neighbor list builds = 1014
Dangerous builds = 0

unfix out_file_1
unfix 1
# # clear
# write_data after_cooling_$T.in
# write_restart after_cooling_$T.lmp
next loopVar
# # thermo_modify flush yes
jump in.lmp ensemble



variable T equal 2500-${loopVar}*100
variable T equal 2500-2*100
velocity all create $T 123123
velocity all create 2300 123123
reset_timestep 0
fix 1 all npt temp $T $T $(dt*100) iso 0 0 $(dt*1000)
fix 1 all npt temp 2300 $T $(dt*100) iso 0 0 $(dt*1000)
fix 1 all npt temp 2300 2300 $(dt*100) iso 0 0 $(dt*1000)
fix 1 all npt temp 2300 2300 0.10000000000000000555 iso 0 0 $(dt*1000)
fix 1 all npt temp 2300 2300 0.10000000000000000555 iso 0 0 1
print """
<--------------------------------------------------------------------->
<------------------ Equilibrating at temperature $T ----------------->
<--------------------------------------------------------------------->
"""

<--------------------------------------------------------------------->
<------------------ Equilibrating at temperature 2300 ----------------->
<--------------------------------------------------------------------->

run 150000
Last active /omp style is pair_style eam/alloy/omp
Per MPI rank memory allocation (min/avg/max) = 6.162 | 6.162 | 6.162 Mbytes
Step Temp Volume Press KinEng PotEng Density 
       0         2300    18058.405    2863.9907    407.59602   -5276.3845    7.4350233 
    1000    2267.8936     17861.69    5561.8339    401.90627   -5309.3752     7.516907 
    2000    2294.7549    17847.213    6248.2417     406.6665   -5316.9634    7.5230042 
    3000     2247.119    17956.106   -3441.3095    398.22467   -5314.4693    7.4773821 
    4000    2242.8179    17926.357    1624.6039    397.46244   -5307.9144    7.4897908 
    5000     2269.195    17920.872   -1839.8688    402.13688   -5322.2344    7.4920829 
    6000    2339.8971    17914.607    1436.2574    414.66641   -5316.6892    7.4947033 
    7000    2336.4539    17934.354    3353.3956    414.05621   -5301.6669    7.4864509 
    8000    2348.4379    17802.792    3024.3522    416.17996   -5335.6493    7.5417754 
    9000    2243.1819    17876.029   -1068.4121    397.52696    -5325.184    7.5108774 
   10000    2378.7244    18009.876   -4347.0915    421.54721   -5308.7793    7.4550577 
   11000    2346.3426    17845.803    7532.0855    415.80865   -5313.1969    7.5235986 
   12000    2246.6919    17880.866    -551.0036    398.14898    -5327.755    7.5088454 
   13000     2287.286    17949.653   -1023.6931     405.3429   -5315.8021    7.4800699 
   14000    2287.2389    17858.066    5908.2785    405.33454   -5313.5616    7.5184325 
   15000    2339.8256    18124.064   -8363.7742    414.65374   -5297.4964    7.4080878 
   16000     2397.611    17989.771    363.26701    424.89421    -5300.691    7.4633893 
   17000    2327.0256    17970.951    1371.9241    412.38537     -5305.03    7.4712052 
   18000    2253.9492    18055.158   -4819.7817    399.43509   -5295.8404    7.4363605 
   19000    2314.5355    17939.246    24.982308    410.17193   -5313.7994    7.4844095 
   20000    2344.9959    17933.161    885.06868    415.56999   -5311.9935    7.4869489 
   21000    2259.2382    18015.311   -952.19817    400.37238   -5292.5623    7.4528084 
   22000    2230.3727     17906.37    2916.2929    395.25697   -5310.5545    7.4981507 
   23000    2278.7259    17970.505    1099.0121    403.82592   -5299.7749    7.4713905 
   24000    2348.3414    17962.428    2719.0411    416.16286   -5301.4018      7.47475 
   25000    2299.4807    17990.256    1132.1774    407.50399   -5300.4725     7.463188 
   26000     2253.288    17896.554   -581.27842    399.31791   -5320.2121    7.5022635 
   27000    2269.7026     18064.23    -5913.882    402.22684    -5296.908    7.4326258 
   28000    2357.4089    17844.106    2084.6975    417.76977   -5331.3402    7.5243141 
   29000    2225.8263    17818.381    575.93575    394.45127   -5335.3951    7.5351772 
   30000    2249.9768    17899.945    1904.1482    398.73112   -5312.1083    7.5008421 
   31000    2234.4248    17879.049   -1124.8916    395.97505   -5327.3644    7.5096085 
   32000    2395.0274    17812.882    1972.8871    424.43637   -5338.3217    7.5375034 
   33000    2306.5191    17906.794    3668.5887    408.75131   -5310.0463    7.4979732 
   34000    2319.8673    17860.091    2284.6672    411.11681   -5325.6362    7.5175799 
   35000    2222.0059     17948.05   -7125.8987    393.77425   -5326.0863    7.4807379 
   36000     2289.361    18005.324   -9345.9688    405.71063   -5322.1328    7.4569422 
   37000    2306.6023    17978.789   -369.33056    408.76604   -5300.2054    7.4679481 
   38000    2328.9753    17848.934    1834.9941    412.73089   -5325.2626    7.5222788 
   39000    2294.5602    17869.215    199.56003      406.632   -5331.3501    7.5137412 
   40000    2314.4447    17843.196    8617.2607    410.15584   -5307.0718    7.5246978 
   41000    2315.7332    18001.353    1265.2339    410.38419    -5289.757    7.4585871 
   42000    2313.2438    18005.799    979.41706    409.94302    -5292.898    7.4567454 
   43000    2272.6363    17911.186   -1116.9167    402.74674   -5319.2365    7.4961348 
   44000    2283.2155    17939.857   -2273.4906    404.62154   -5321.8923    7.4841543 
   45000     2379.796    18037.837   -9661.2136    421.73711   -5312.9727     7.443501 
   46000    2247.5973    17925.272   -1535.6938    398.30944   -5318.3588     7.490244 
   47000    2347.4738    18004.956   -4524.2273    416.00912   -5307.6238    7.4570948 
   48000    2313.2778    17913.655     1324.841    409.94905    -5312.486    7.4951013 
   49000    2353.6485    17862.851    4881.6664    417.10338   -5314.1004    7.5164183 
   50000    2351.1526     17890.87    2387.9353    416.66105   -5317.1283    7.5046468 
   51000     2278.676      17853.8     5986.547    403.81706   -5313.9263    7.5202288 
   52000     2394.634    17977.834   -2387.4236    424.36664   -5311.2726    7.4683448 
   53000    2230.8785    17925.655    5323.3798     395.3466   -5297.6354    7.4900839 
   54000    2301.9233    17982.685    444.90364    407.93686   -5298.8563    7.4663299 
   55000    2373.6883    17988.655    5714.4322    420.65474   -5281.8921     7.463852 
   56000    2320.7328    17987.373   -4470.1736    411.27019   -5312.5097    7.4643842 
   57000    2217.9157     17901.99   -5010.3264    393.04939   -5326.4729    7.4999854 
   58000    2343.1673    18156.696   -13713.931    415.24594   -5298.6751    7.3947738 
   59000    2304.6923    17861.717    8379.7941    408.42757   -5308.9335    7.5168954 
   60000    2378.0981    17968.431    -4380.456    421.43623    -5321.212    7.4722531 
   61000    2387.3452    17863.988    8308.7746    423.07495   -5305.9982    7.5159401 
   62000    2288.0424    17896.461   -59.920878    405.47693   -5321.9225    7.5023023 
   63000    2293.8502    17931.763   -6105.3626    406.50617   -5332.5864    7.4875329 
   64000     2219.691    18149.971   -8532.9427      393.364   -5283.2724    7.3975138 
   65000     2275.041    17949.974    4029.3022    403.17289   -5296.7201    7.4799362 
   66000    2308.3565    17947.492   -2745.3081    409.07692   -5318.9716    7.4809706 
   67000    2302.4631    17942.284    -1013.823    408.03252    -5311.489     7.483142 
   68000    2289.9018    17861.888    5368.6852    405.80646   -5316.0727    7.5168238 
   69000    2252.2476    17807.699    13804.757    399.13354   -5306.1316    7.5396972 
   70000      2256.41    17976.538   -649.96086    399.87119   -5309.7904    7.4688832 
   71000    2220.0848    17993.672     -9085.86    393.43379   -5318.7456    7.4617709 
   72000    2333.4009    17902.131    2491.7316    413.51518   -5319.4736    7.4999261 
   73000    2337.7814    17879.466    2173.1763    414.29148   -5317.8721    7.5094336 
   74000    2372.1285    17983.651   -1161.8961    420.37831   -5310.3869    7.4659288 
   75000     2165.704    17884.822    3303.4892    383.79666   -5310.2996    7.5071848 
   76000    2288.5331    17944.624   -788.54656    405.56391   -5313.3983    7.4821665 
   77000    2274.1264    18038.037   -11683.466    403.01082   -5321.3476    7.4434186 
   78000    2346.9591    17887.688   -802.56279    415.91789   -5327.1251    7.5059817 
   79000    2386.4967    17967.176    758.02737    422.92458   -5305.8534     7.472775 
   80000    2319.2521    18039.009   -4769.8503    411.00778   -5301.4206    7.4430176 
   81000    2338.1126    17959.326   -2825.4279    414.35017   -5318.3847    7.4760412 
   82000    2339.6979    17957.244   -3698.1083     414.6311   -5322.1245    7.4769081 
   83000    2302.6315    18065.366    -11564.04    408.06236    -5312.178    7.4321582 
   84000    2342.0421    17956.166     1270.737    415.04653   -5305.1336     7.477357 
   85000    2336.9341    17917.531     6089.617    414.14132   -5301.6305      7.49348 
   86000    2339.7363    17921.585   -4897.4614    414.63792   -5328.4611    7.4917849 
   87000    2309.1648    17962.155   -4041.3869    409.22016   -5311.0983    7.4748637 
   88000    2358.5198    17971.491   -3476.6792    417.96664   -5314.1817    7.4709808 
   89000    2265.5995    17967.864   -3163.7191    401.49971   -5312.3906    7.4724889 
   90000    2382.9761    17828.686     3944.461    422.30068   -5328.1577     7.530822 
   91000    2356.2885    17997.325   -5597.8521    417.57122   -5309.1821    7.4602567 
   92000    2325.3311      18016.3    131.55757    412.08508   -5294.5557    7.4523994 
   93000    2250.4492    17905.505   -2047.1399    398.81485   -5321.5428    7.4985129 
   94000    2319.3908    17929.033   -2822.4374    411.03236     -5321.57    7.4886729 
   95000    2315.2537    17830.484    3926.8467     410.2992   -5324.6214    7.5300625 
   96000         2331    17960.011    1766.4663     413.0897   -5298.0549    7.4757559 
   97000    2244.6242    17827.031    4359.4735    397.78255   -5324.0008    7.5315211 
   98000     2249.248     18015.89   -5995.4287    398.60197   -5307.8004    7.4525688 
   99000    2301.5697    17960.963   -1090.7591    407.87419   -5312.9847      7.47536 
  100000    2274.2665    17959.657    1305.8471    403.03564   -5299.7217    7.4759036 
  101000    2288.1185    17807.245     3660.168    405.49043   -5332.7728    7.5398896 
  102000    2335.7108    18028.134   -8182.4153    413.92453   -5311.2791    7.4475074 
  103000     2164.745    17866.264    685.20508    383.62672   -5322.9361    7.5149825 
  104000    2289.5231    17804.619    5075.2936    405.73934   -5327.4345    7.5410017 
  105000    2268.0708    17904.798    330.56877    401.93765   -5322.8632    7.4988092 
  106000    2315.5049    18026.406    -1588.216    410.34372   -5291.1114    7.4482213 
  107000    2233.8741    18032.231   -3214.3209    395.87747   -5302.2154    7.4458151 
  108000    2415.8903     18007.73    1072.6769    428.13359   -5295.9783    7.4559461 
  109000     2263.121    17957.077   -5541.0546    401.06048   -5318.0934    7.4769777 
  110000    2303.6955    18006.442   -4832.2407    408.25091   -5312.1217    7.4564791 
  111000    2253.8484    17940.771   -1925.5009    399.41723   -5316.3471    7.4837732 
  112000    2315.9782    17899.849    2518.0822    410.42761    -5316.712    7.5008824 
  113000    2341.2729    17979.266   -1577.5235    414.91022   -5308.5181    7.4677497 
  114000    2166.9072    17933.843   -825.48966    384.00989   -5314.4915    7.4866642 
  115000    2276.8452    18022.545   -9500.2513    403.49261   -5320.5604    7.4498169 
  116000    2291.8164    17946.648    -2822.351    406.14575   -5317.9606    7.4813225 
  117000    2259.6948     18111.85   -12235.926     400.4533   -5302.2101    7.4130838 
  118000    2267.8508    17889.502   -465.30798    401.89867   -5324.7726    7.5052209 
  119000    2247.9309    18012.965   -1638.9826    398.36855   -5296.0885    7.4537791 
  120000    2321.9618    17960.571    164.68046      411.488    -5301.892    7.4755231 
  121000    2379.1866    18009.822    3264.2636    421.62912   -5292.4307    7.4550798 
  122000    2265.9848    17904.266    47.251118    401.56799   -5319.4057     7.499032 
  123000    2276.0676    17826.334    5400.0345    403.35482   -5326.8248    7.5318155 
  124000    2319.1656    18032.054   -10496.507    410.99246   -5319.2605    7.4458885 
  125000    2283.1101     17971.47    1446.9804    404.60286   -5301.2463    7.4709895 
  126000    2376.3561    17993.456   -303.49861    421.12751    -5303.577    7.4618608 
  127000    2253.2387    18053.501   -6660.5696    399.30918   -5305.9905     7.437043 
  128000    2292.2214    17899.012    2723.4532    406.21753   -5311.9045    7.5012329 
  129000    2330.7134    17843.312    6291.0395    413.03892   -5314.2746    7.5246492 
  130000    2303.0388    17887.008    2755.3342    408.13454   -5310.8738    7.5062671 
  131000     2290.027    18045.788   -3606.6843    405.82864   -5297.5311    7.4402214 
  132000    2313.8229    17984.604   -3517.1225    410.04565   -5305.5999    7.4655332 
  133000    2272.5416    17975.738   -5055.6413    402.72996   -5313.1141    7.4692155 
  134000    2271.1082    17821.521    7137.3833    402.47594   -5321.4285    7.5338496 
  135000    2305.9608    17936.278    1490.2827    408.65237   -5307.8275    7.4856477 
  136000    2332.8629    18062.561   -8434.9085    413.41983   -5310.9089    7.4333126 
  137000    2308.5803    17925.922   -4092.5516    409.11658   -5330.1333    7.4899723 
  138000    2357.9993    17970.825    400.42866    417.87439   -5300.2765    7.4712576 
  139000    2346.2066    17866.527    1001.6113    415.78455   -5325.8908     7.514872 
  140000    2262.6455    18009.445    -2364.101    400.97622   -5301.3878    7.4552359 
  141000    2294.1468    18102.424   -11008.707    406.55874   -5302.4875    7.4169438 
  142000    2268.5748    17935.453   -3019.8523    402.02698   -5319.6618    7.4859922 
  143000    2311.6785      17976.8    3006.2836    409.66563   -5299.8458    7.4687743 
  144000      2310.84    17947.164   -740.83993    409.51704   -5313.0388    7.4811075 
  145000     2181.381    17848.938    5524.4349    386.57486   -5308.8393    7.5222772 
  146000    2225.3385    17887.819    5408.5096    394.36483   -5307.8291    7.5059269 
  147000    2268.9122    17889.507     1422.061    402.08677    -5317.129    7.5052184 
  148000     2350.307    18047.599    -3901.781     416.5112    -5300.296     7.439475 
  149000    2256.4178    18137.785   -15562.035    399.87256   -5306.5399     7.402484 
  150000    2263.8348    17976.488   -3580.0484    401.18697   -5313.0676    7.4689039 
Loop time of 535.241 on 8 procs for 150000 steps with 1372 atoms

Performance: 24.213 ns/day, 0.991 hours/ns, 280.248 timesteps/s
127.4% CPU use with 2 MPI tasks x 4 OpenMP threads

MPI task timing breakdown:
Section |  min time  |  avg time  |  max time  |%varavg| %total
---------------------------------------------------------------
Pair    | 331.85     | 332.06     | 332.27     |   1.2 | 62.04
Neigh   | 5.6979     | 5.704      | 5.7101     |   0.3 |  1.07
Comm    | 22.809     | 23.099     | 23.389     |   6.0 |  4.32
Output  | 0.0086938  | 0.0098881  | 0.011082   |   1.2 |  0.00
Modify  | 172.78     | 173.26     | 173.75     |   3.7 | 32.37
Other   |            | 1.106      |            |       |  0.21

Nlocal:    686 ave 689 max 683 min
Histogram: 1 0 0 0 0 0 0 0 0 1
Nghost:    3007.5 ave 3018 max 2997 min
Histogram: 1 0 0 0 0 0 0 0 0 1
Neighs:    48045 ave 48582 max 47508 min
Histogram: 1 0 0 0 0 0 0 0 0 1

Total # of neighbors = 96090
Ave neighs/atom = 70.0364
Neighbor list builds = 2979
Dangerous builds = 0

fix out_file_1 all print 1000 "$(step) $(temp) $(press) $(vol) $(ke) $(pe) $(density)" file one_phase_cooling_$T.txt screen no title  "step temp press vol ke pe density"
fix out_file_1 all print 1000 "$(step) $(temp) $(press) $(vol) $(ke) $(pe) $(density)" file one_phase_cooling_2300.txt screen no title  "step temp press vol ke pe density"
# dump 3 all custom 1000 traj_npt_new.lammpstrj id type x y z
run 50000
Last active /omp style is pair_style eam/alloy/omp
Per MPI rank memory allocation (min/avg/max) = 6.162 | 6.162 | 6.162 Mbytes
Step Temp Volume Press KinEng PotEng Density 
  150000    2263.8348    17976.488   -3580.0484    401.18697   -5313.0676    7.4689039 
  151000    2419.7221    17901.098    3249.6747    428.81264   -5317.6345     7.500359 
  152000    2289.1644    17872.335    5846.7814    405.67577   -5307.1285    7.5124296 
  153000     2228.591    18110.665   -9728.6649    394.94123   -5294.3843    7.4135687 
  154000    2271.4325    17899.003    2822.7152     402.5334   -5311.8357    7.5012369 
  155000    2310.2856    17899.718    2487.7637    409.41878   -5310.4915    7.5009373 
  156000    2347.0805    17968.461    1032.2726    415.93942   -5299.0602    7.4722404 
  157000    2231.7465    18011.448   -5682.7596    395.50042   -5300.2447    7.4544067 
  158000    2372.1317     17920.53    3583.6953    420.37887   -5305.1281     7.492226 
  159000    2312.0959    17812.397    4192.6985     409.7396   -5332.1858    7.5377089 
  160000    2285.0365    17989.501   -4632.0245    404.94425   -5312.0627    7.4635011 
  161000    2277.4161    17891.298    2411.6378    403.59379    -5320.149    7.5044675 
  162000    2314.7354    18050.849   -1605.2815    410.20735   -5292.4744    7.4381355 
  163000     2290.435    17851.676    6653.8751    405.90094   -5314.2613    7.5211238 
  164000    2340.3219    17923.097   -2065.4517    414.74169   -5322.2029     7.491153 
  165000     2387.138    17959.387   -298.75493    423.03824   -5310.5744    7.4760158 
  166000    2299.4229    18007.184   -7140.7128    407.49375   -5317.7436    7.4561721 
  167000    2313.5562      17982.1   -7283.2867    409.99839   -5320.7395    7.4665728 
  168000    2362.0521    17883.887   -565.93368    418.59261   -5331.2625    7.5075773 
  169000    2280.3327    17968.927   -3075.6457    404.11067   -5309.3928    7.4720467 
  170000    2304.6159     17975.33   -2022.9899    408.41402   -5308.3472    7.4693852 
  171000     2388.585    18004.213   -2176.5117    423.29467   -5297.5331    7.4574025 
  172000    2292.8364    17936.649   -4850.7466    406.32651   -5328.1359     7.485493 
  173000     2282.332    17920.667   -153.61961    404.46497   -5323.4104    7.4921687 
  174000    2351.5959    17986.772   -3305.5746    416.73962   -5307.7713    7.4646335 
  175000     2297.129    18012.844   -2550.5566    407.08723   -5302.5592    7.4538291 
  176000    2357.6571    17926.352    6803.7955    417.81375   -5300.5459    7.4897928 
  177000     2349.644    18037.595   -8153.8091     416.3937   -5314.8286    7.4436011 
  178000    2268.4407    17885.021    886.27941    402.00322   -5321.4713    7.5071012 
  179000    2354.0325    17901.312    2883.6853    417.17143   -5317.4028    7.5002694 
  180000    2318.9748    18071.458   -12673.531    410.95864   -5316.0824    7.4296529 
  181000    2251.6996    17878.935    3848.1732    399.03644   -5315.8845    7.5096567 
  182000    2301.9706    17853.594    2526.8725    407.94524   -5325.5247    7.5203155 
  183000     2284.938    18028.058   -5869.6611    404.92679   -5308.1311    7.4475387 
  184000    2275.8315    18061.793   -6840.6742    403.31299    -5302.261    7.4336284 
  185000    2286.3112    17878.327    2590.6167    405.17014   -5317.5327    7.5099118 
  186000    2328.0327    17958.851    5485.6568    412.56384   -5293.9609    7.4762391 
  187000    2273.3538    17890.896    2894.0551    402.87389   -5310.4037    7.5046359 
  188000    2344.3478     18048.28   -9263.1961    415.45514   -5313.3275    7.4391942 
  189000    2399.1284    17859.218    9835.6186    425.16312   -5306.1591    7.5179475 
  190000    2316.9297    17956.425    -2892.807    410.59623   -5319.0363     7.477249 
  191000    2274.5692    17846.973    11356.972    403.08928   -5301.7096    7.5231055 
  192000    2233.5974    18068.093   -4188.2751    395.82843   -5288.9655    7.4310367 
  193000    2272.3235    17924.052    4511.5047    402.69131   -5301.2072    7.4907537 
  194000    2304.1195    17901.621    3499.7627    408.32605   -5311.2867      7.50014 
  195000    2309.0297     18012.24   -2068.2359    409.19622   -5295.9701     7.454079 
  196000    2325.8338    17811.427    1815.8718    412.17417    -5339.171    7.5381191 
  197000      2353.74     18053.68   -10339.321    417.11959   -5312.7947    7.4369693 
  198000    2262.1567    17990.936   -8070.6675    400.88959   -5317.9124     7.462906 
  199000    2259.3272    17902.554    3017.7954    400.38816   -5309.6352     7.499749 
  200000    2312.2802    17854.799    3346.1753    409.77226    -5325.348    7.5198082 
Loop time of 178.779 on 8 procs for 50000 steps with 1372 atoms

Performance: 24.164 ns/day, 0.993 hours/ns, 279.674 timesteps/s
127.7% CPU use with 2 MPI tasks x 4 OpenMP threads

MPI task timing breakdown:
Section |  min time  |  avg time  |  max time  |%varavg| %total
---------------------------------------------------------------
Pair    | 110.87     | 110.91     | 110.95     |   0.4 | 62.04
Neigh   | 1.9355     | 1.9365     | 1.9375     |   0.1 |  1.08
Comm    | 7.6495     | 7.8055     | 7.9614     |   5.6 |  4.37
Output  | 0.0023786  | 0.0034048  | 0.0044309  |   1.8 |  0.00
Modify  | 57.564     | 57.754     | 57.945     |   2.5 | 32.30
Other   |            | 0.3689     |            |       |  0.21

Nlocal:    686 ave 688 max 684 min
Histogram: 1 0 0 0 0 0 0 0 0 1
Nghost:    3014 ave 3025 max 3003 min
Histogram: 1 0 0 0 0 0 0 0 0 1
Neighs:    48394.5 ave 48664 max 48125 min
Histogram: 1 0 0 0 0 0 0 0 0 1

Total # of neighbors = 96789
Ave neighs/atom = 70.5459
Neighbor list builds = 993
Dangerous builds = 0

unfix out_file_1
unfix 1
# # clear
# write_data after_cooling_$T.in
# write_restart after_cooling_$T.lmp
next loopVar
# # thermo_modify flush yes
jump in.lmp ensemble



variable T equal 2500-${loopVar}*100
variable T equal 2500-3*100
velocity all create $T 123123
velocity all create 2200 123123
reset_timestep 0
fix 1 all npt temp $T $T $(dt*100) iso 0 0 $(dt*1000)
fix 1 all npt temp 2200 $T $(dt*100) iso 0 0 $(dt*1000)
fix 1 all npt temp 2200 2200 $(dt*100) iso 0 0 $(dt*1000)
fix 1 all npt temp 2200 2200 0.10000000000000000555 iso 0 0 $(dt*1000)
fix 1 all npt temp 2200 2200 0.10000000000000000555 iso 0 0 1
print """
<--------------------------------------------------------------------->
<------------------ Equilibrating at temperature $T ----------------->
<--------------------------------------------------------------------->
"""

<--------------------------------------------------------------------->
<------------------ Equilibrating at temperature 2200 ----------------->
<--------------------------------------------------------------------->

run 150000
Last active /omp style is pair_style eam/alloy/omp
Per MPI rank memory allocation (min/avg/max) = 6.162 | 6.162 | 6.162 Mbytes
Step Temp Volume Press KinEng PotEng Density 
       0         2200    17854.799    2155.8398    389.87445    -5325.348    7.5198082 
    1000    2256.0766    17847.408   -452.13987    399.81211   -5334.9627    7.5229222 
    2000    2248.0381    17913.188   -10197.762    398.38756   -5343.9296    7.4952969 
    3000    2171.0712    17884.901   -1784.0869    384.74782    -5323.548    7.5071516 
    4000    2254.8603    17806.736     3458.111    399.59656   -5331.5719     7.540105 
    5000     2204.951    17790.315    2876.4492    390.75185   -5337.5794    7.5470648 
    6000    2154.6772    17917.612   -2687.1645    381.84254   -5324.6408    7.4934464 
    7000    2191.3381    17690.084    1381.5294    388.33943   -5363.8656    7.5898262 
    8000    2137.8217    17852.713   -2827.7208    378.85549   -5329.5878    7.5206867 
    9000    2198.6947    17738.474    3616.5851    389.64313   -5348.6803    7.5691213 
   10000    2251.0941    17710.927    5415.9871    398.92912    -5355.483    7.5808939 
   11000     2212.502    17934.624    -4879.214       392.09   -5324.6445    7.4863381 
   12000    2258.0851    17813.462   -2589.0171    400.16804   -5349.5023     7.537258 
   13000    2179.7427    17860.345   -561.46686    386.28454      -5334.5    7.5174731 
   14000    2188.3404    17813.203   -1233.6066    387.80818   -5345.1864    7.5373675 
   15000    2198.9701     17732.29    3942.9668    389.69194   -5347.5025    7.5717611 
   16000    2275.7391    17820.333    2771.2309     403.2966   -5329.9894    7.5343521 
   17000    2199.9041    17862.137   -5578.1824    389.85746   -5342.3564    7.5167187 
   18000    2168.8747    17810.096   -2115.9181    384.35856   -5349.1442    7.5386825 
   19000    2200.0129    17720.797    4413.1865    389.87674   -5351.6153    7.5766716 
   20000    2129.8824    17768.146    365.11487    377.44851   -5349.2351     7.556481 
   21000    2219.7256    17906.209   -7026.1022    393.37013   -5338.3556     7.498218 
   22000    2155.2767    17710.881    4836.7557    381.94877   -5348.5389    7.5809136 
   23000    2169.9331    17972.478   -6789.8637    384.54612   -5320.6329    7.4705705 
   24000    2117.3376     17821.25    3154.3363    375.22537   -5327.8182    7.5339644 
   25000    2252.6647    17840.335   -412.24014    399.20747   -5334.9461    7.5259048 
   26000    2252.4641    17704.488    4860.7841    399.17192   -5356.7045    7.5836511 
   27000    2200.0232    17851.221    -2125.011    389.87856     -5333.81    7.5213155 
   28000    2209.0203    17946.283   -8428.2452    391.47299   -5323.8209    7.4814747 
   29000    2221.7447    17770.525   -183.23019    393.72795   -5356.2488    7.5554697 
   30000    2223.6239    17843.251   -6064.1794    394.06097   -5354.0209    7.5246748 
   31000    2280.5651    17821.455    2020.2943    404.15185   -5336.6777    7.5338775 
   32000    2193.4939     17846.38   -3189.9435    388.72146   -5342.0806    7.5233555 
   33000    2167.2884     17934.39   -8256.5519    384.07744   -5331.5683    7.4864358 
   34000    2225.5131    17875.404   -2863.0657    394.39577   -5336.9832      7.51114 
   35000    2121.4977    17862.037   -7277.7309    375.96262   -5347.8863    7.5167608 
   36000    2211.9619    17831.143   -350.57415    391.99428   -5339.4141    7.5297842 
   37000    2292.6987     17740.92    5412.4579    406.30212   -5345.5494    7.5680777 
   38000    2196.6088    17829.403   -1892.7844    389.27347    -5338.342    7.5305192 
   39000    2121.9292    17901.103   -7235.4419    376.03907   -5338.6039    7.5003567 
   40000    2282.8254     17819.09   -700.62668    404.55241   -5344.6294    7.5348777 
   41000    2200.8693    17632.331    12265.926    390.02851   -5346.4285     7.614686 
   42000    2184.6309    17842.202   -1380.0977     387.1508   -5333.5947    7.5251174 
   43000    2243.6934    17884.943   -6028.8005     397.6176   -5338.7299    7.5071338 
   44000    2219.6084    17676.586    3782.8066    393.34936   -5367.7804    7.5956216 
   45000    2197.5145    17848.965   -1380.3562    389.43398   -5339.5841     7.522266 
   46000    2195.0562     17863.25   -7759.9624    388.99832   -5351.0299    7.5162506 
   47000    2196.0906    17989.111   -3979.7079    389.18164   -5308.9804    7.4636628 
   48000    2226.1119    17750.131    8030.5682    394.50189   -5331.3101    7.5641505 
   49000    2159.9958    17895.498   -2502.2565    382.78508   -5324.4977    7.5027059 
   50000    2181.0139    17959.702   -13439.652    386.50982   -5346.9433    7.4758845 
   51000    2232.1332    17758.915    1505.3004    395.56896   -5355.0137     7.560409 
   52000    2233.2056    17826.488    190.13324      395.759   -5338.0737    7.5317505 
   53000     2185.184    17784.606    2216.0679    387.24883   -5334.7345    7.5494877 
   54000    2146.8322     17888.34   -4612.3248    380.45229   -5335.0439    7.5057083 
   55000    2218.4841    17853.012   -2707.7191    393.15013   -5339.0588    7.5205606 
   56000    2240.5587    17694.027    6470.2405    397.06209   -5352.3001    7.5881347 
   57000    2300.7538    17873.795    1348.3004    407.72961   -5331.2787    7.5118161 
   58000     2221.212    17866.816   -8526.1713    393.63355   -5353.4102    7.5147504 
   59000    2152.3613    17885.495   -5748.4964    381.43213   -5337.4525     7.506902 
   60000    2210.5915    17836.238   -2569.6771    391.75143   -5343.3514    7.5276336 
   61000    2288.5354     17886.49   -4864.9477    405.56431   -5338.3605    7.5064847 
   62000     2182.809    17797.263   -800.46987    386.82793   -5351.1141    7.5441184 
   63000    2222.2474    17875.307   -4180.5929    393.81704   -5339.9014    7.5111806 
   64000    2245.8368    17722.907    9058.9103    397.99744   -5335.2551    7.5757697 
   65000    2124.1476     17769.95    2779.8635    376.43222   -5343.6991     7.555714 
   66000    2177.1361    17785.298     1528.589    385.82261   -5341.5873    7.5491938 
   67000     2269.807    17831.189   -8515.2409    402.24534   -5362.8849    7.5297649 
   68000    2175.6063    17891.977   -4053.2242    385.55151   -5331.3146    7.5041824 
   69000    2198.5784    17786.967    1891.1297    389.62253   -5345.8031    7.5484853 
   70000    2242.2073    17814.062   -358.88991    397.35425   -5339.1129    7.5370042 
   71000    2197.4707    17836.529   -737.54184    389.42621   -5341.1865    7.5275105 
   72000    2235.7555    17857.457   -2347.6016    396.21088   -5340.0269    7.5186887 
   73000    2175.7406    17745.121    1879.7872    385.57531   -5347.7791     7.566286 
   74000    2246.0569    17828.012   -2314.7282    398.03646   -5346.4746    7.5311068 
   75000    2218.4779    17733.961     4884.203    393.14903   -5351.3375    7.5710476 
   76000    2168.6262    17923.148   -7674.0037    384.31453   -5334.8477    7.4911318 
   77000    2177.4056    17771.863   -1119.7941    385.87037   -5352.9395     7.554901 
   78000    2248.0402    17772.696    992.87677    398.38793   -5347.5219    7.5545465 
   79000     2242.938    17647.167    11197.053    397.48374   -5348.8573    7.6082843 
   80000     2211.044    17825.635    517.82626    391.83161   -5337.4225    7.5321112 
   81000    2143.2376    17917.207   -6596.1855    379.81526    -5327.747    7.4936158 
   82000    2209.9546     17847.72    -100.8603    391.63857   -5330.9208    7.5227908 
   83000     2171.644    17738.413    2179.1061    384.84933   -5347.6387    7.5691472 
   84000    2117.3375    17985.765   -5371.4818    375.22537   -5311.1354    7.4650514 
   85000    2240.9795    17772.932   -919.43763    397.13666   -5349.3973    7.5544464 
   86000    2223.8744    17804.579   -2343.5403    394.10537   -5349.3912    7.5410186 
   87000    2222.2943    17911.898   -2322.8109    393.82535   -5320.3961    7.4958366 
   88000    2153.3904    17866.655   -5492.1416    381.61449   -5337.2304    7.5148181 
   89000     2274.104    17732.272    5631.5251    403.00684    -5347.958    7.5717686 
   90000    2258.1876    17794.548    5288.2025     400.1862   -5329.4561    7.5452694 
   91000    2047.9197    17855.637   -6324.9446    362.92345   -5345.9196    7.5194553 
   92000    2212.4467    17906.421   -2758.6615     392.0802   -5328.6347    7.4981292 
   93000    2229.6838    17793.662   -942.63617    395.13488   -5350.6265    7.5456452 
   94000    2165.0164     17786.93   -6620.0178    383.67481   -5363.6453    7.5485012 
   95000     2285.332    17741.184    2961.3746    404.99662    -5351.405    7.5679651 
   96000    2215.3879    17772.675    6114.3632    392.60142   -5335.1213    7.5545554 
   97000     2158.883    17826.083   -4286.5929    382.58787    -5348.512    7.5319217 
   98000    2120.9829    17811.355    943.34473    375.87138   -5330.6342    7.5381496 
   99000    2202.4963    17927.461   -7248.0773    390.31684   -5331.1255    7.4893295 
  100000    2303.1797     17861.85   -364.13563    408.15951   -5330.8229    7.5168394 
  101000    2139.3625    17798.445   -3313.7357    379.12854    -5355.877    7.5436176 
  102000    2251.3094    17808.927    1083.6346    398.96728   -5338.6313    7.5391774 
  103000    2205.7547    17871.675   -5035.2299    390.89428   -5339.2495     7.512707 
  104000    2131.1124    17836.163     170.4317    377.66649   -5329.1788     7.527665 
  105000    2223.8523     17690.97    7731.1767    394.10145    -5355.002    7.5894459 
  106000    2133.8173    17781.773   -895.02435    378.14583   -5350.8406    7.5506901 
  107000    2182.0349    17875.511   -2602.5807    386.69076   -5329.9723    7.5110949 
  108000    2219.4925    17845.327   -2364.2425    393.32882     -5337.17    7.5237993 
  109000    2265.1595     17687.16    8428.3603    401.42173   -5344.7989    7.5910809 
  110000    2195.6099     17782.56    1481.7299    389.09645   -5340.3362    7.5503562 
  111000    2241.1658     17924.35   -2695.8731    397.16968   -5322.6712    7.4906295 
  112000     2198.349    17788.277    3078.2703    389.58186   -5339.7084    7.5479296 
  113000     2202.298     17738.33    5889.3029     390.2817   -5344.9426    7.5691826 
  114000    2218.8298    17892.041   -6090.7709    393.21138   -5341.9183    7.5041558 
  115000    2157.9269    17790.215   -315.86402    382.41844    -5345.653    7.5471075 
  116000     2130.277    17705.466    6995.4414    377.51844   -5342.3161    7.5832323 
  117000    2206.5956    17847.524   -864.92913    391.04329   -5336.3514    7.5228732 
  118000    2193.2505     17852.65   -3982.5871    388.67833   -5348.5408    7.5207131 
  119000    2236.8121    17849.552     3354.628    396.39813   -5324.3579    7.5220185 
  120000    2236.9355    17735.345    829.79469    396.41999    -5351.858    7.5704569 
  121000    2250.6456    17848.593    3497.3254    398.84965   -5326.2806    7.5224227 
  122000    2208.8366    17785.905    2577.7404    391.44044   -5341.9208     7.548936 
  123000    2189.8226    17892.115   -4204.6787    388.07086   -5338.2088    7.5041246 
  124000    2146.9591    17894.298     -5659.03    380.47477   -5335.6596    7.5032092 
  125000     2296.102    17668.536    9068.6592    406.90524   -5351.2502    7.5990823 
  126000    2269.4879    17842.323   -2103.8466    402.18879   -5341.7007     7.525066 
  127000    2166.6325    17740.578   -816.26021     383.9612   -5359.5712    7.5682237 
  128000     2209.186    17812.836   -1094.0787    391.50236   -5342.0144     7.537523 
  129000    2266.2837    17667.093    16846.898    401.62095   -5330.8287    7.5997032 
  130000    2150.0787    17764.129    3744.7672    381.02761   -5341.7361    7.5581899 
  131000    2227.5036    17852.437   -2047.6746    394.74851   -5337.3991     7.520803 
  132000    2229.2028    17811.832    6666.6851    395.04963   -5323.7413    7.5379479 
  133000    2267.9565    17753.255    4571.6736     401.9174   -5348.7327    7.5628195 
  134000    2128.4118    17860.712   -5357.1922     377.1879    -5339.254    7.5173186 
  135000    2127.5006     17841.66   -4397.2281    377.02642   -5338.6065    7.5253459 
  136000    2313.8764    17704.783    6295.9687    410.05513   -5355.4607     7.583525 
  137000    2230.7843    17824.503    1265.8721     395.3299   -5336.7511    7.5325892 
  138000    2159.0387     17866.18   -5490.0891    382.61546   -5344.1053     7.515018 
  139000    2219.1803    17945.546     -8139.58     393.2735    -5335.063     7.481782 
  140000    2191.8929    17775.124     3315.568    388.43775   -5345.4003    7.5535148 
  141000    2147.4144    17778.293    -3219.258    380.55546   -5356.7292    7.5521683 
  142000     2252.007    17746.422    5737.8262    399.09091   -5339.7708    7.5657315 
  143000    2259.4378    17767.712    1562.7595    400.40776   -5350.7177     7.556666 
  144000    2103.7098    17953.488   -13244.682    372.81033   -5344.3237    7.4784724 
  145000    2238.9767    17797.088   -562.89058    396.78172   -5345.8116    7.5441926 
  146000     2128.184    17712.987    5430.7961    377.14753   -5348.7313    7.5800123 
  147000     2247.148    17874.329   -4131.8136    398.22982   -5341.7867    7.5115917 
  148000    2229.3987    17659.861     8326.889    395.08435   -5357.8818    7.6028154 
  149000    2233.7843    17865.858   -1262.9198    395.86156   -5333.0789    7.5151533 
  150000    2193.1536    17885.174   -5968.9567    388.66115   -5341.1301     7.507037 
Loop time of 537.074 on 8 procs for 150000 steps with 1372 atoms

Performance: 24.131 ns/day, 0.995 hours/ns, 279.291 timesteps/s
127.0% CPU use with 2 MPI tasks x 4 OpenMP threads

MPI task timing breakdown:
Section |  min time  |  avg time  |  max time  |%varavg| %total
---------------------------------------------------------------
Pair    | 331.9      | 332.11     | 332.33     |   1.2 | 61.84
Neigh   | 5.5923     | 5.5977     | 5.6032     |   0.2 |  1.04
Comm    | 23.078     | 23.461     | 23.843     |   7.9 |  4.37
Output  | 0.0087729  | 0.0096662  | 0.010559   |   0.9 |  0.00
Modify  | 174.17     | 174.77     | 175.36     |   4.5 | 32.54
Other   |            | 1.123      |            |       |  0.21

Nlocal:    686 ave 693 max 679 min
Histogram: 1 0 0 0 0 0 0 0 0 1
Nghost:    3011 ave 3016 max 3006 min
Histogram: 1 0 0 0 0 0 0 0 0 1
Neighs:    48432 ave 49099 max 47765 min
Histogram: 1 0 0 0 0 0 0 0 0 1

Total # of neighbors = 96864
Ave neighs/atom = 70.6006
Neighbor list builds = 2910
Dangerous builds = 0

fix out_file_1 all print 1000 "$(step) $(temp) $(press) $(vol) $(ke) $(pe) $(density)" file one_phase_cooling_$T.txt screen no title  "step temp press vol ke pe density"
fix out_file_1 all print 1000 "$(step) $(temp) $(press) $(vol) $(ke) $(pe) $(density)" file one_phase_cooling_2200.txt screen no title  "step temp press vol ke pe density"
# dump 3 all custom 1000 traj_npt_new.lammpstrj id type x y z
run 50000
Last active /omp style is pair_style eam/alloy/omp
Per MPI rank memory allocation (min/avg/max) = 6.162 | 6.162 | 6.162 Mbytes
Step Temp Volume Press KinEng PotEng Density 
  150000    2193.1536    17885.174   -5968.9567    388.66115   -5341.1301     7.507037 
  151000    2165.0905    17824.816   -4218.3861    383.68794   -5350.1268    7.5324571 
  152000    2087.3614    17764.314    5858.0004    369.91313   -5332.2215    7.5581113 
  153000    2211.6321    17784.692    785.49155    391.93584   -5344.3644    7.5494509 
  154000    2275.6486    17770.332     773.5206    403.28057   -5354.9621    7.5555517 
  155000    2227.4229    17806.349   -1445.3611    394.73421   -5347.7495     7.540269 
  156000     2215.176    17914.319   -4199.3664    392.56388   -5326.6494    7.4948236 
  157000    2263.0331    17778.793   -1276.7163    401.04491   -5352.3974    7.5519558 
  158000    2169.9061    17822.316   -7070.7798    384.54135   -5357.8209    7.5335137 
  159000    2204.0134    17823.312   -2045.5078    390.58569   -5340.3417    7.5330928 
  160000    2303.8755    17865.625    -5237.925    408.28282   -5342.8804    7.5152512 
  161000    2279.6837    17931.917    -6833.823    403.99565   -5334.0251    7.4874683 
  162000    2272.7493    17729.103    3142.1516    402.76676   -5351.4296    7.5731221 
  163000    2206.7901     17810.08    4333.4143    391.07776   -5328.7345    7.5386894 
  164000    2159.1958    17790.658   -2222.9013     382.6433   -5353.1024    7.5469192 
  165000    2170.3557    17834.202   -1561.1823    384.62101   -5335.1482    7.5284927 
  166000    2173.1231    17606.985    12397.593    385.11145   -5356.5743    7.6256476 
  167000    2238.1499    17830.151    1697.0501     396.6352    -5328.449    7.5302034 
  168000    2134.0864    17846.027    1058.9573    378.19352   -5330.2419    7.5235044 
  169000    2108.4888    17767.866   -326.18838    373.65724   -5351.1503    7.5566004 
  170000    2228.0051    17846.016   -530.83603     394.8374   -5335.4299    7.5235092 
  171000    2169.0847    17710.443    7311.1548    384.39578   -5346.4264    7.5811011 
  172000    2130.1223    17772.255    1657.1237    377.49102   -5340.5373     7.554734 
  173000    2178.9361    17846.146    1765.0106     386.1416   -5330.0841    7.5234541 
  174000     2202.293    17762.276    10288.229     390.2808   -5324.9121    7.5589785 
  175000    2186.5527    17757.135   -2534.3992    387.49138   -5359.4722    7.5611669 
  176000    2220.1079    17692.845    3517.1059    393.43789   -5359.9358    7.5886418 
  177000    2210.5872    17928.524   -6094.7605    391.75066   -5330.0174    7.4888852 
  178000    2378.3742    17935.979   -5349.7034    421.48515   -5335.4199    7.4857727 
  179000    2214.4449    17780.968    774.63513    392.43431   -5343.0079    7.5510322 
  180000    2280.2704    17715.371    11578.156    404.09961   -5334.0752    7.5789923 
  181000    2237.2227    17754.082    1617.9889    396.47089   -5348.9357    7.5624669 
  182000    2307.2285    17891.819    867.50533    408.87703   -5317.7241     7.504249 
  183000    2176.4093    17848.054   -3041.9912    385.69381   -5344.4311    7.5226497 
  184000      2143.09    17881.611   -5065.5965    379.78911   -5336.4455    7.5085327 
  185000     2192.606    17794.262    4053.8552    388.56412   -5332.8469    7.5453908 
  186000    2224.4983    17828.709    1312.0223    394.21592   -5339.6935    7.5308123 
  187000    2256.7103    17785.434    4.1369472     399.9244   -5349.5332     7.549136 
  188000     2194.203    17689.985    7074.8913    388.84714   -5346.8346    7.5898684 
  189000    2221.5814    17900.703   -8086.3516    393.69902   -5341.3491    7.5005244 
  190000    2142.6179    17967.925   -6207.7463    379.70544   -5322.1785    7.4724635 
  191000    2149.6733    17739.644    7156.8112    380.95577   -5335.1444    7.5686219 
  192000    2314.5749    17812.914    1495.4196    410.17891   -5334.4639    7.5374901 
  193000    2184.8323    17897.474   -4835.2702     387.1865   -5336.4371    7.5018777 
  194000     2185.093    17787.054   -1163.8137     387.2327   -5350.6303    7.5484487 
  195000    2171.2439    17868.552   -6097.7396    384.77842   -5342.3938    7.5140203 
  196000    2206.6985    17895.365    522.44696    391.06152   -5321.0618    7.5027617 
  197000    2141.6914    17825.594    1284.7908    379.54124   -5329.0986    7.5321285 
  198000    2127.7195    17711.492    1662.9615     377.0652   -5359.8535    7.5806522 
  199000    2203.1689    17791.995    1380.8943    390.43604   -5342.5283    7.5463521 
  200000    2091.8277     17838.72   -6848.4534    370.70462   -5350.9356     7.526586 
Loop time of 177.975 on 8 procs for 50000 steps with 1372 atoms

Performance: 24.273 ns/day, 0.989 hours/ns, 280.939 timesteps/s
128.1% CPU use with 2 MPI tasks x 4 OpenMP threads

MPI task timing breakdown:
Section |  min time  |  avg time  |  max time  |%varavg| %total
---------------------------------------------------------------
Pair    | 110.74     | 110.79     | 110.83     |   0.4 | 62.25
Neigh   | 1.8619     | 1.8633     | 1.8647     |   0.1 |  1.05
Comm    | 7.539      | 7.6478     | 7.7566     |   3.9 |  4.30
Output  | 0.0026091  | 0.0036098  | 0.0046104  |   1.7 |  0.00
Modify  | 57.155     | 57.308     | 57.46      |   2.0 | 32.20
Other   |            | 0.3628     |            |       |  0.20

Nlocal:    686 ave 688 max 684 min
Histogram: 1 0 0 0 0 0 0 0 0 1
Nghost:    3024.5 ave 3026 max 3023 min
Histogram: 1 0 0 0 0 0 0 0 0 1
Neighs:    48513 ave 48779 max 48247 min
Histogram: 1 0 0 0 0 0 0 0 0 1

Total # of neighbors = 97026
Ave neighs/atom = 70.7187
Neighbor list builds = 974
Dangerous builds = 0

unfix out_file_1
unfix 1
# # clear
# write_data after_cooling_$T.in
# write_restart after_cooling_$T.lmp
next loopVar
# # thermo_modify flush yes
jump in.lmp ensemble



variable T equal 2500-${loopVar}*100
variable T equal 2500-4*100
velocity all create $T 123123
velocity all create 2100 123123
reset_timestep 0
fix 1 all npt temp $T $T $(dt*100) iso 0 0 $(dt*1000)
fix 1 all npt temp 2100 $T $(dt*100) iso 0 0 $(dt*1000)
fix 1 all npt temp 2100 2100 $(dt*100) iso 0 0 $(dt*1000)
fix 1 all npt temp 2100 2100 0.10000000000000000555 iso 0 0 $(dt*1000)
fix 1 all npt temp 2100 2100 0.10000000000000000555 iso 0 0 1
print """
<--------------------------------------------------------------------->
<------------------ Equilibrating at temperature $T ----------------->
<--------------------------------------------------------------------->
"""

<--------------------------------------------------------------------->
<------------------ Equilibrating at temperature 2100 ----------------->
<--------------------------------------------------------------------->

run 150000
Last active /omp style is pair_style eam/alloy/omp
Per MPI rank memory allocation (min/avg/max) = 6.162 | 6.162 | 6.162 Mbytes
Step Temp Volume Press KinEng PotEng Density 
       0         2100     17838.72   -6761.7365    372.15288   -5350.9356     7.526586 
    1000    2113.4279    17745.645   -1521.7406    374.53252   -5358.3811    7.5660624 
    2000    2117.8306    17714.397     1904.824    375.31274   -5357.4604    7.5794089 
    3000    2061.9842    17636.385    1785.4115    365.41589   -5378.1504    7.6129356 
    4000    2121.5525    17653.002    1530.4356    375.97233   -5371.6666    7.6057695 
    5000      2088.76     17715.82   -1567.2059    370.16098   -5369.7789    7.5788002 
    6000    2097.3995    17770.572   -6914.5227    371.69204   -5371.3418    7.5554498 
    7000     2104.384     17744.22    216.72443     372.9298   -5356.9684    7.5666702 
    8000    2065.5081    17702.761    2280.3406    366.04038   -5357.3824    7.5843912 
    9000    2037.7384    17682.453   -1912.6629    361.11915   -5371.9879    7.5931014 
   10000    2099.3569    17758.236   -298.94419    372.03892   -5355.5392    7.5606982 
   11000    2091.7517    17578.191    5471.1186    370.69115   -5378.0747    7.6381387 
   12000     2149.609    17752.028   -704.50966    380.94437   -5363.9286     7.563342 
   13000    2074.1058    17682.617   -3340.0506    367.56403   -5379.1344     7.593031 
   14000    2078.5067    17656.052   -681.55984    368.34393   -5375.7908    7.6044553 
   15000    2105.3325    17728.047   -2216.9878    373.09789   -5365.5038    7.5735733 
   16000    2084.4992     17623.93    5338.1647    369.40591   -5365.3564    7.6183156 
   17000     2128.421    17712.398    2890.8691    377.18953   -5354.7869    7.5802646 
   18000    2021.1603    17748.683   -3848.2504    358.18125   -5369.5851    7.5647675 
   19000    2087.9616    17645.758    4964.3913    370.01948    -5366.184    7.6088918 
   20000    2147.2928    17689.149    4392.7323    380.53391   -5356.3702    7.5902272 
   21000    2094.4161    17660.363   -1079.7096    371.16334   -5382.6387    7.6025991 
   22000    2065.4449    17713.955    2980.5133    366.02918   -5356.5282     7.579598 
   23000    2094.7846     17738.59   -1310.7753    371.22862   -5361.6016    7.5690719 
   24000    2178.1731    17756.271    1254.6386    386.00638   -5351.7916    7.5615347 
   25000    2026.0272    17829.675   -11512.278    359.04374   -5365.3262    7.5304041 
   26000    2050.5525    17703.513    1217.2181    363.39001   -5360.9074    7.5840688 
   27000    2134.7068    17626.057     907.8986    378.30346   -5386.9333    7.6173961 
   28000    2077.5433    17603.788    8025.2194     368.1732   -5366.5245    7.6270324 
   29000    2134.0044    17737.252    230.11521      378.179    -5357.656    7.5696427 
   30000    2121.2196    17693.689    1613.2204    375.91333   -5361.7654    7.5882799 
   31000    2159.6132    17678.506    665.10912    382.71727   -5371.9889     7.594797 
   32000    2108.7216    17771.346   -7859.9852    373.69849   -5367.9238    7.5551207 
   33000    2081.5833    17671.684   -694.45869    368.88916    -5374.482    7.5977286 
   34000    2096.9883    17711.583   -1104.4665    371.61917   -5369.2642    7.5806132 
   35000    2214.7918    17611.145    4912.8926     392.4958    -5381.158    7.6238463 
   36000    2002.7484    17821.933   -4872.7079    354.91838   -5347.0053    7.5336755 
   37000    2097.4631    17616.652    4916.8234    371.70331   -5375.5675    7.6214628 
   38000    2172.6322    17709.214   -4186.8956    385.02445    -5377.708    7.5816275 
   39000    2142.7893    17780.092   -2247.0988    379.73581    -5354.883     7.551404 
   40000    2094.5769    17645.371    2731.9155    371.19183   -5368.4617    7.6090584 
   41000    2183.0609    17724.717   -778.78467    386.87258   -5368.0999     7.574996 
   42000    2016.9739    17820.971    -8066.401    357.43937   -5357.2314    7.5340824 
   43000    2097.6125    17764.637   -6685.4279    371.72979   -5371.1672     7.557974 
   44000    2073.6158    17742.341    4895.4872     367.4772   -5338.8219    7.5674715 
   45000    2054.1047    17658.831    3243.6444    364.01951   -5364.4248    7.6032589 
   46000    2150.3532    17694.033    1761.6899    381.07627   -5361.6966    7.5881321 
   47000    2123.6595    17721.016   -1769.8122    376.34572   -5366.3323     7.576578 
   48000    2101.8079     17719.48      77.8202    372.47327   -5364.3415    7.5772348 
   49000    2046.4341    17834.811   -12801.723    362.66018   -5367.7909    7.5282359 
   50000    2141.0673    17632.174    5400.3603    379.43065   -5370.0935    7.6147535 
   51000    2147.0208    17677.413    2702.3353    380.48571   -5367.8417    7.5952662 
   52000    2071.3593    17616.265    4742.8409    367.07729   -5369.6141    7.6216305 
   53000    2077.1256    17687.165   -2574.8408    368.09918   -5375.7954    7.5910788 
   54000    2106.2139    17731.595   -726.36797    373.25409   -5364.4171    7.5720577 
   55000    2162.4905    17742.253    766.24418    383.22718   -5354.4334    7.5675089 
   56000    2065.8553    17811.811   -2836.9079    366.10191   -5348.0806    7.5379568 
   57000    2121.2661    17731.329   -3521.0867    375.92157   -5369.7332    7.5721715 
   58000    2158.7077    17605.473    7877.5566    382.55682   -5365.9842    7.6263024 
   59000    2084.9978     17686.53   -3300.6171    369.49425   -5376.8005    7.5913513 
   60000    2143.8279    17841.455   -6290.9832    379.91987   -5351.9555    7.5254324 
   61000    2042.0411    17676.212   -1296.0926    361.88166   -5373.1103    7.5957826 
   62000    2133.6028    17706.531    3107.0718    378.10783   -5355.5476    7.5827761 
   63000    2129.9851    17722.993   -1760.9273    377.46671   -5368.6238     7.575733 
   64000    2117.5367    17687.536    -568.8234    375.26066   -5370.0564    7.5909193 
   65000    2161.2989    17724.073   -4825.4003    383.01601   -5379.7213    7.5752711 
   66000    2065.8242    17668.674   -123.63368     366.0964   -5375.1275     7.599023 
   67000    2101.3848    17777.927   -3553.1028    372.39829   -5357.6157    7.5523237 
   68000    2108.1253    17656.886    1611.5983    373.59282   -5374.4011    7.6040963 
   69000    2050.8652     17744.46    470.53795    363.44542   -5351.2694     7.566568 
   70000    2100.8649    17689.176   -1482.7824    372.30616   -5376.1686    7.5902157 
   71000    2095.7157    17693.163    1983.7944    371.39364   -5361.3725    7.5885054 
   72000    2104.2504    17649.704    5265.3455    372.90613   -5362.0247    7.6071907 
   73000    1971.8562      17800.7   -8496.9516    349.44379    -5364.035    7.5426617 
   74000     2119.153    17730.339   -1788.1833    375.54709   -5362.0938    7.5725942 
   75000    2170.8002    17672.294    1021.0298    384.69978   -5373.2048    7.5974666 
   76000    2078.8331    17742.891   -10400.003    368.40179    -5386.129     7.567237 
   77000    2130.6356    17763.454   -3883.8723      377.582    -5365.659     7.558477 
   78000    2103.4278    17727.858    1813.5462    372.76035   -5356.3264    7.5736541 
   79000    2161.2388     17838.96   -6729.7842    383.00536   -5356.5983    7.5264848 
   80000    2078.7945    17660.061    4368.5603    368.39493   -5368.5317    7.6027291 
   81000    2175.0838    17746.231   -2543.9719    385.45891    -5361.177    7.5658127 
   82000    1995.6632    17656.618    2716.7414    353.66278   -5366.5149    7.6042118 
   83000    2003.6956    17683.725    1378.7479    355.08624   -5366.3275    7.5925553 
   84000    2110.0348    17627.224    7279.5166    373.93121   -5363.3731    7.6168919 
   85000    2126.3133    17798.028   -4763.7144    376.81601   -5358.1054     7.543794 
   86000    2071.2976    17710.094   -5976.8281    367.06637   -5382.1548    7.5812506 
   87000     2149.765    17701.703    1532.9167    380.97201   -5361.7164    7.5848443 
   88000    2092.2165     17652.89    2466.5371    370.77352   -5370.2809    7.6058175 
   89000    2011.1767    17799.196   -9540.2521    356.41201   -5365.3534    7.5432992 
   90000    2151.9433    17640.515    2536.4819    381.35804   -5376.2199     7.611153 
   91000    2210.7366    17659.714    4125.1102    391.77713   -5372.6319    7.6028787 
   92000    2129.0333    17832.758   -7709.3592    377.29804   -5361.9161    7.5291024 
   93000    2108.0783    17694.552   -4505.1506    373.58448   -5383.9852    7.5879098 
   94000    2063.4417    17649.051    7544.0352    365.67419   -5358.4155    7.6074718 
   95000    2126.9782    17590.723    6175.5224    376.93384   -5377.7566     7.632697 
   96000    2084.3008     17705.46    1883.6484    369.37073   -5358.4916     7.583235 
   97000    2113.5003    17704.757   -2854.7459    374.54535    -5377.703    7.5835361 
   98000    2158.9506    17671.985    3361.1727    382.59985   -5366.6809    7.5975993 
   99000    2108.0227    17671.307    2975.8322    373.57463   -5363.9648    7.5978908 
  100000    2111.5524    17753.786   -3314.3086    374.20014   -5363.5144    7.5625931 
  101000    2148.7388    17665.409    790.94897    380.79016   -5375.5004    7.6004274 
  102000    2074.8087    17744.594   -3286.8948    367.68859   -5364.9481    7.5665109 
  103000    2078.3544    17693.491   -4829.4135    368.31695   -5378.0101    7.5883648 
  104000    2133.4166    17678.267    3867.9487    378.07483   -5362.3493    7.5948996 
  105000     2058.181     17702.92    3696.9384     364.7419   -5355.1081    7.5843229 
  106000    2115.5074    17851.469   -9172.5083    374.90105   -5358.1064    7.5212108 
  107000    2148.0304    17787.569   -2668.4373    380.66462    -5362.412    7.5482302 
  108000     2119.387    17821.906   -5729.6145    375.58856   -5351.3845    7.5336871 
  109000    2070.1333    17702.891   -3563.4725    366.86004   -5374.6271    7.5843353 
  110000    2027.7693    17676.115    7313.1355    359.35247   -5350.8558    7.5958241 
  111000    2131.8274    17693.379   -997.11382    377.79319    -5370.212    7.5884128 
  112000    2078.7124    17701.433    652.47042    368.38038    -5367.583    7.5849601 
  113000    2150.3103    17626.822    1882.5312    381.06866   -5382.4277    7.6170657 
  114000    2203.1179    17631.803    1582.3221    390.42699   -5382.9587     7.614914 
  115000    2050.5009    17772.775   -4167.5299    363.38088   -5358.7384     7.554513 
  116000    2150.5688    17749.407    -5015.374    381.11447   -5373.3512    7.5644588 
  117000    2090.9055     17632.38    1086.3485     370.5412   -5380.9124    7.6146648 
  118000    2060.7106    17726.761   -3617.4919    365.19019   -5368.0826    7.5741228 
  119000    2139.1425    17741.242   -4466.4134    379.08955     -5373.45    7.5679402 
  120000    2049.9217    17713.975   -2479.4249    363.27823   -5371.3203    7.5795898 
  121000    2090.0853    17636.873    3851.2823    370.39585   -5372.0811    7.6127248 
  122000    2151.8569    17694.116    4142.0193    381.34275   -5360.7999    7.5880964 
  123000    2156.6652    17739.015   -1681.3283    382.19484   -5359.6654    7.5688904 
  124000    2038.3081    17758.235     -5106.89    361.22011   -5361.1106    7.5606984 
  125000    2077.7737    17619.486    4751.7402    368.21404   -5369.0305    7.6202372 
  126000    2110.0176    17723.291   -1497.7274    373.92816   -5367.5053    7.5756056 
  127000    2096.4112    17621.707   -837.77208     371.5169   -5387.3813    7.6192766 
  128000    2056.3972    17594.671     6927.463    364.42578   -5372.3956    7.6309844 
  129000    2107.2626    17657.881   -373.65792    373.43994    -5383.033    7.6036677 
  130000    2086.1744    17539.435     8931.366    369.70277   -5379.9836    7.6550165 
  131000    2108.3254    17609.856    4849.5066    373.62827    -5372.987    7.6244041 
  132000    2103.2267    17708.429    1177.9953     372.7247   -5363.0072    7.5819635 
  133000    2131.1747    17736.217   -4953.0001    377.67752   -5373.0035    7.5700846 
  134000    2132.4448    17633.264    5080.2774    377.90261    -5369.278    7.6142829 
  135000    2035.0861    17629.386    1371.4534    360.64912   -5381.8922    7.6159581 
  136000    2168.2503    17717.983   -3075.5104    384.24791   -5370.2475    7.5778751 
  137000    2086.4215     17524.33    9884.8412    369.74655   -5380.8647    7.6616147 
[...]
    9000    397.12104    15497.884    1244.2539    70.376067    -5940.504    8.6634188 
   10000    411.63288    15532.568   -1779.1712    72.947792   -5937.6853    8.6440737 
   11000    399.97512    15453.833    6167.0336    70.881855    -5942.517    8.6881137 
   12000    398.02065     15536.57    -3676.916    70.535492   -5939.0513    8.6418469 
   13000    406.58419    15525.161   -767.19479    72.053084   -5937.2339    8.6481975 
   14000     396.1541    15488.713    2400.3503     70.20471   -5940.0687    8.6685483 
   15000    401.67883    15539.046   -2959.9356    71.183778    -5938.946    8.6404702 
   16000    391.56026    15499.886    631.68289    69.390609   -5940.8833    8.6622997 
   17000    405.12178    15508.697    496.06086    71.793924     -5938.67    8.6573787 
   18000    385.07021    15532.987   -4232.5672     68.24047   -5942.4269    8.6438405 
   19000    403.24179    15479.589    4549.2256     71.46076   -5938.2551    8.6736581 
   20000    391.27747    15514.522   -1622.8094    69.340494   -5941.5411    8.6541284 
   21000    402.80482    15509.212    1042.4871    71.383321   -5938.0209    8.6570909 
   22000    388.83313    15508.662    1305.7461    68.907319    -5936.447    8.6573983 
   23000    403.98639     15507.52   -781.72761    71.592715   -5940.8076    8.6580354 
   24000     402.5938    15501.529    181.12839    71.345925   -5942.1628    8.6613819 
   25000    401.49806    15497.954    614.25804    71.151743   -5940.5796    8.6633799 
   26000    386.65186    15527.664   -1605.0074    68.520764   -5937.7069    8.6468035 
   27000    406.72695    15485.643    3239.6997    72.078384   -5940.0131    8.6702668 
   28000    400.11988     15518.57   -1477.1346    70.907508   -5938.7324    8.6518708 
   29000    395.09999    15534.289   -2367.3018    70.017905   -5936.5478    8.6431158 
   30000    396.44249    15444.807     7810.276    70.255817    -5939.374    8.6931913 
   31000    406.06179    15549.248   -4853.5284    71.960507   -5938.6823    8.6348007 
   32000    390.86859    15500.797    219.70838    69.268035   -5941.1043    8.6617906 
   33000    409.09464     15512.04   -494.72392    72.497975   -5940.1733    8.6555131 
   34000    383.16468    15517.008   -1007.5352    67.902781   -5940.1053    8.6527416 
   35000     406.9371     15471.46    4229.8322    72.115627   -5939.6593    8.6782152 
   36000    391.89581    15562.322   -6592.4699    69.450073   -5939.8259    8.6275467 
   37000    397.14109    15500.464    2138.2854     70.37962   -5935.9305     8.661977 
   38000    402.28518    15487.916    3008.2717    71.291234    -5940.297    8.6689946 
   39000    398.71601    15537.399   -2699.2038     70.65872   -5937.3684     8.641386 
   40000      406.098    15492.812    942.91292    71.966924   -5941.8209    8.6662548 
   41000    400.90797    15510.991    877.40536     71.04717   -5937.5972     8.656098 
   42000    390.07234    15555.364   -5722.0877    69.126926   -5938.9853    8.6314059 
   43000    401.69212     15479.88    2965.1241    71.186134   -5942.1632     8.673495 
   44000    419.26287    15524.572   -1686.2671    74.299945   -5940.1173     8.648526 
   45000    392.82457    15505.834    1281.6965    69.614665   -5938.0163    8.6589769 
   46000    393.98573    15534.224   -3171.4442    69.820441   -5938.8731    8.6431523 
   47000    400.08377    15507.776    788.67311    70.901108   -5938.7498     8.657893 
   48000    378.16775    15476.443    3237.6612    67.017248   -5940.6266     8.675421 
   49000    391.01036    15532.311   -2224.9906    69.293158    -5938.361    8.6442169 
   50000    409.72772     15494.25     1932.324    72.610169   -5938.4327    8.6654511 
   51000    399.16439    15510.183   -390.99236    70.738181   -5939.5395    8.6565491 
   52000    385.84614     15509.93    -534.5496    68.377979   -5940.1031    8.6566904 
   53000    412.63203    15473.467     4023.587    73.124856   -5940.6491    8.6770898 
   54000    404.87504    15549.483   -4974.1084    71.750196   -5939.9516    8.6346703 
   55000    407.81345    15493.778    1329.9239    72.270929   -5940.8248     8.665715 
   56000    398.31065    15499.488    716.58393    70.586885   -5941.1372    8.6625221 
   57000    396.17751    15521.115   -970.85911    70.208858   -5936.5277    8.6504521 
   58000    396.30741    15480.697    3345.6046    70.231878   -5940.7001    8.6730372 
   59000    395.18921    15518.516   -2143.2734    70.033716   -5940.9091    8.6519009 
   60000    410.40956    15514.536   -1352.4083       72.731   -5940.9755    8.6541201 
   61000    395.66802     15489.69    2929.9039    70.118569   -5938.1056    8.6680016 
   62000    386.69161    15538.736   -3637.5336    68.527809   -5939.0268    8.6406424 
   63000    403.05767    15494.272    1501.3944    71.428131   -5939.4932    8.6654384 
   64000    394.99704    15502.936   -148.15974    69.999662   -5941.6215    8.6605957 
   65000    399.27357    15519.416    -1622.626     70.75753   -5938.8576     8.651399 
   66000    417.83294    15484.235    1674.1067    74.046539   -5943.8826    8.6710558 
   67000    417.33454    15524.748   -1487.5879    73.958216   -5938.7348    8.6484279 
   68000    404.76414    15496.603    630.17893    71.730544   -5941.0596     8.664135 
   69000    401.37994    15509.246    86.790971    71.130811   -5939.0485    8.6570719 
   70000    395.22192    15512.297   -284.49184    70.039514   -5938.6327    8.6553697 
   71000     386.2652    15509.374   -773.07471    68.452241    -5941.055    8.6570008 
   72000    400.08893    15517.634   -724.32787    70.902024    -5936.957    8.6523927 
   73000    398.02449    15503.353   -206.49509    70.536172   -5941.5531    8.6603625 
   74000    410.11426    15511.562    696.62322    72.678669   -5937.2002    8.6557794 
   75000    391.76725    15521.059   -1614.1048    69.427291   -5938.8553     8.650483 
   76000    410.29334    15494.834    3007.9207    72.710404   -5939.5065     8.665124 
   77000    394.22999    15566.245   -6104.2944    69.863728   -5939.1166    8.6253727 
   78000    383.96027    15496.094    2436.9925    68.043772   -5938.0429    8.6644195 
   79000    407.34884    15508.918   -701.03602    72.188594    -5941.501     8.657255 
   80000    400.99812    15527.615   -1848.0741    71.063146   -5938.9799     8.646831 
   81000    388.52516    15492.046    2311.3017    68.852743   -5939.3347    8.6666834 
   82000    417.40743    15517.482    132.37307    73.971133   -5937.4763    8.6524775 
   83000    401.55534     15517.19    -1282.302    71.161893    -5941.516    8.6526401 
   84000    400.64976    15495.023    2043.1983    71.001411   -5940.0997    8.6650184 
   85000    400.46325    15506.948    275.11224     70.96836   -5938.4295    8.6583552 
   86000    393.54329    15525.085   -2570.4865    69.742033   -5939.4165    8.6482399 
   87000    411.97562    15494.487    1256.4887     73.00853   -5941.0457    8.6653185 
   88000    386.74826    15498.189    1089.8953    68.537847   -5941.2219    8.6632486 
   89000    394.68646    15527.089    -1963.285    69.944621   -5938.0048    8.6471241 
   90000    393.85242    15484.951    3594.5782    69.796815     -5938.63    8.6706544 
   91000    380.69517    15534.347   -2883.9531    67.465145   -5938.5759     8.643084 
   92000    400.61291    15522.361   -685.06753    70.994881   -5937.1165    8.6497578 
   93000     395.4453    15455.996    5498.4899      70.0791   -5942.3416    8.6868981 
   94000    399.78479    15542.237   -4089.3545    70.848125   -5938.7973    8.6386958 
   95000    388.72949    15488.872    2681.4071    68.888952   -5937.9717    8.6684594 
   96000    409.64838    15527.279   -2164.6161    72.596108   -5940.3269    8.6470178 
   97000    397.97083    15494.231    1929.3503    70.526663   -5940.9696    8.6654613 
   98000    412.31126    15485.433     2792.999    73.068011   -5939.2636    8.6703849 
   99000    384.01827    15547.875   -4532.9742     68.05405   -5939.3895    8.6355634 
  100000    398.57424    15490.019    1994.3916    70.633596   -5938.5835    8.6678177 
  101000    399.61171    15510.275   -355.07072    70.817452   -5940.4224    8.6564976 
  102000     394.1251    15533.811   -2847.3416    69.845139   -5938.1443    8.6433821 
  103000     385.3132    15485.863    2979.9692    68.283533   -5939.1763    8.6701439 
  104000    404.86913    15533.655   -2881.5733     71.74915   -5939.0812    8.6434684 
  105000    399.77948    15517.221   -1001.9498    70.847185   -5940.1722    8.6526231 
  106000    391.74692    15464.544    5394.6625    69.423688   -5938.3449    8.6820966 
  107000    400.51725    15528.809   -1046.8267    70.977928   -5936.1873     8.646166 
  108000    401.44697    15516.903   -1429.5094    71.142689   -5940.2583    8.6528002 
  109000    405.89433    15495.536    1288.1737    71.930831   -5942.0468    8.6647316 
  110000    403.77642    15489.842    2396.3437    71.555503   -5939.2691     8.667917 
  111000    392.81151    15558.101   -5957.1412     69.61235   -5940.5994    8.6298873 
  112000    414.97489    15480.154    2783.4567    73.540049   -5941.9875    8.6733412 
  113000    398.84892    15502.073    883.96976    70.682275    -5940.561    8.6610781 
  114000      413.111    15531.562    -1638.755    73.209739   -5938.1485    8.6446336 
  115000    402.81525    15488.289    2486.1741     71.38517   -5940.0538    8.6687861 
  116000    400.88816    15505.333   -105.02896     71.04366    -5939.747    8.6592566 
  117000    401.93468    15543.209   -4354.4111    71.229119   -5941.1202    8.6381557 
  118000    404.75781    15480.156    3488.2356    71.729421   -5939.7361    8.6733401 
  119000    403.31333     15508.01   -254.25559    71.473438   -5940.1851    8.6577623 
  120000    395.21574    15526.889   -1727.5933    70.038417   -5938.7916    8.6472355 
  121000    397.75639    15501.652    1297.1353    70.488661   -5937.3013    8.6613131 
  122000    401.08394    15502.894    682.30453    71.078355    -5941.135    8.6606193 
  123000    404.44208    15523.762   -1626.3323     71.67347   -5938.0993    8.6489772 
  124000    391.15331    15479.283    3708.8353    69.318491   -5940.1249    8.6738295 
  125000    414.80795    15541.712   -3354.4588    73.510463   -5937.2361     8.638988 
  126000    403.35139     15531.11    -2429.416    71.480181   -5940.5902    8.6448849 
  127000    409.97059    15496.301    1887.7436    72.653208   -5939.1968    8.6643039 
  128000    394.79631    15513.463   -498.50672    69.964088   -5938.2969    8.6547192 
  129000     392.9691    15527.247   -1547.6501    69.640277   -5940.2619    8.6470357 
  130000    390.15839    15489.238    2179.4234    69.142176   -5939.2737    8.6682545 
  131000    395.97653    15508.813    442.90737    70.173241   -5939.8279    8.6573138 
  132000    397.26666    15507.341    1108.8114    70.401873   -5936.8081    8.6581355 
  133000    392.15494    15482.409    3554.9123    69.495997   -5938.5712    8.6720785 
  134000    397.46698    15537.971   -3545.5893    70.437372   -5939.1249    8.6410677 
  135000    407.92996     15511.32   -887.01062    72.291576   -5941.5169    8.6559146 
  136000    395.44376    15498.433    1619.0108    70.078827   -5938.4185    8.6631119 
  137000     397.2948      15517.1   -1116.2329     70.40686   -5940.7984    8.6526903 
  138000    405.73819    15494.855    1983.4177     71.90316   -5940.0445    8.6651125 
  139000    403.45047    15527.164   -1719.9527    71.497741   -5938.4951    8.6470823 
  140000    401.84586    15495.441    569.26889    71.213379   -5941.6009    8.6647845 
  141000    400.95959    15496.311    2789.3422    71.056318   -5935.8252    8.6642985 
  142000    413.90344    15533.973   -2615.0325    73.350171   -5939.2885    8.6432915 
  143000     387.0204    15489.517    1921.3262    68.586074   -5940.9613    8.6680986 
  144000    404.86507    15510.174   -147.85766     71.74843   -5939.4831     8.656554 
  145000    401.09575    15532.711   -2158.2592    71.080448   -5940.8577    8.6439943 
  146000    397.44542    15471.049    5639.4944    70.433551   -5936.9623    8.6784457 
  147000    384.55548     15527.85    -1338.973    68.149253   -5938.8902    8.6466999 
  148000    395.42092     15502.31    1494.4918    70.074779   -5936.4582    8.6609455 
  149000    402.06931    15500.383    1000.2565    71.252979   -5940.9089    8.6620223 
  150000    396.33365    15523.495   -1344.2853    70.236528   -5938.5365    8.6491259 
Loop time of 544.223 on 8 procs for 150000 steps with 1372 atoms

Performance: 23.814 ns/day, 1.008 hours/ns, 275.622 timesteps/s
128.2% CPU use with 2 MPI tasks x 4 OpenMP threads

MPI task timing breakdown:
Section |  min time  |  avg time  |  max time  |%varavg| %total
---------------------------------------------------------------
Pair    | 345.64     | 345.87     | 346.1      |   1.2 | 63.55
Neigh   | 0.09203    | 0.093842   | 0.095654   |   0.6 |  0.02
Comm    | 23.105     | 23.378     | 23.65      |   5.6 |  4.30
Output  | 0.0085215  | 0.0095351  | 0.010549   |   1.0 |  0.00
Modify  | 173.53     | 174.02     | 174.51     |   3.7 | 31.98
Other   |            | 0.8514     |            |       |  0.16

Nlocal:    686 ave 686 max 686 min
Histogram: 2 0 0 0 0 0 0 0 0 0
Nghost:    3257 ave 3259 max 3255 min
Histogram: 1 0 0 0 0 0 0 0 0 1
Neighs:    55910.5 ave 55976 max 55845 min
Histogram: 1 0 0 0 0 0 0 0 0 1

Total # of neighbors = 111821
Ave neighs/atom = 81.5022
Neighbor list builds = 50
Dangerous builds = 0

fix out_file_1 all print 1000 "$(step) $(temp) $(press) $(vol) $(ke) $(pe) $(density)" file one_phase_cooling_$T.txt screen no title  "step temp press vol ke pe density"
fix out_file_1 all print 1000 "$(step) $(temp) $(press) $(vol) $(ke) $(pe) $(density)" file one_phase_cooling_400.txt screen no title  "step temp press vol ke pe density"
# dump 3 all custom 1000 traj_npt_new.lammpstrj id type x y z
run 50000
Last active /omp style is pair_style eam/alloy/omp
Per MPI rank memory allocation (min/avg/max) = 6.162 | 6.162 | 6.162 Mbytes
Step Temp Volume Press KinEng PotEng Density 
  150000    396.33365    15523.495   -1344.2853    70.236528   -5938.5365    8.6491259 
  151000    386.62636    15533.207   -1861.7899    68.516245   -5937.1589    8.6437181 
  152000    392.73085    15483.181    3136.9876    69.598057   -5940.0072    8.6716457 
  153000    398.78251    15516.383   -660.64088    70.670506   -5938.6548    8.6530904 
  154000    395.15951    15493.414    1860.4577    70.028453   -5940.2647    8.6659185 
  155000    402.20575    15485.975    3822.0054    71.277157   -5938.0088     8.670081 
  156000    387.66476    15542.204   -3507.9714    68.700265    -5937.376    8.6387141 
  157000    402.17878     15497.61    1786.0524    71.272378   -5939.0137    8.6635723 
  158000    402.30512    15503.696    549.59507    71.294767   -5939.0896    8.6601714 
  159000    392.16088    15535.746   -3895.7143    69.497048   -5941.2085    8.6423055 
  160000    403.89585    15472.042    5475.8753    71.576669   -5937.6413    8.6778889 
  161000    397.56317    15517.133   -1491.8241    70.454418   -5941.8173    8.6526721 
  162000    392.18238    15520.488   -1492.8703     69.50086   -5938.5322    8.6508015 
  163000    411.85525    15494.642    1449.3613      72.9872   -5939.7935    8.6652314 
  164000    397.63937    15520.364   -1236.8249    70.467923   -5939.9488    8.6508708 
  165000    417.63191      15523.4    -2037.121    74.010913    -5939.164     8.649179 
  166000     401.5027    15503.106    2026.5253    71.152566   -5937.0763    8.6605008 
  167000    401.17962    15516.095   -999.86325    71.095311   -5940.1565    8.6532507 
  168000    401.00805    15482.257    3096.5619    71.064905   -5939.6017    8.6721633 
  169000    406.38052    15553.535   -2935.4836    72.016991   -5937.0379    8.6324209 
  170000    406.45611    15505.864   -652.96213    72.030387   -5941.2985    8.6589606 
  171000    416.69572    15483.693    3601.3655    73.845006   -5937.7018     8.671359 
  172000    398.30594    15533.473   -3167.0785     70.58605   -5938.6602    8.6435702 
  173000     389.1732    15492.118     1494.497    68.967585   -5942.9091    8.6666433 
  174000    401.63667    15527.169   -2019.4004    71.176307   -5939.4842     8.647079 
  175000    400.46189     15462.76    4499.6845    70.968117   -5942.5657    8.6830983 
  176000    400.99952    15545.312   -4059.6191    71.063393   -5938.4223    8.6369875 
  177000    395.74003    15514.564   -2.2647005     70.13133   -5938.9261    8.6541047 
  178000    388.67763    15487.589    2122.8512    68.879763   -5939.3994    8.6691779 
  179000    404.13943    15533.808     -3024.65    71.619836   -5937.4546    8.6433834 
  180000    416.66799    15508.299    915.64088    73.840093   -5939.2145     8.657601 
  181000    389.98242     15483.37    2593.8314    69.110991   -5939.4017    8.6715399 
  182000     402.4487    15554.363    -4414.986    71.320211    -5938.264    8.6319615 
  183000    406.50264    15491.921    1635.9135    72.038633   -5940.8801    8.6667537 
  184000    396.58643    15492.644    1024.9468    70.281325   -5940.3707    8.6663488 
  185000    405.93685    15525.375   -1823.5418    71.938367   -5938.4479    8.6480783 
  186000    387.36211    15500.243    320.28936    68.646632   -5941.5235    8.6621004 
  187000    411.76864     15490.29    2188.1559    72.971852    -5939.091    8.6676658 
  188000    390.26452    15500.143    2354.7431    69.160984   -5938.4999    8.6621562 
  189000    401.37984    15545.173   -4281.3451    71.130793   -5939.5023    8.6370643 
  190000    412.98933    15481.007    4037.1941    73.188176   -5939.3256    8.6728635 
  191000    400.69454    15535.262   -2774.5042    71.009346   -5938.2774    8.6425744 
  192000    399.21493    15506.598    1451.0756    70.747136   -5935.9241    8.6585505 
  193000    391.01542    15493.608     2015.746    69.294054   -5939.0184    8.6658097 
  194000    406.19644    15524.665   -974.54775    71.984369   -5937.4328    8.6484738 
  195000    397.27079    15510.637   -225.03151    70.402605     -5938.87    8.6562959 
  196000    401.77315    15489.774    2946.4699    71.200494   -5937.9914     8.667955 
  197000    417.32779    15544.208   -4356.8206    73.957019   -5939.8768    8.6376008 
  198000    399.89927    15487.103    2084.8813    70.868413   -5941.6676    8.6694495 
  199000    391.28265    15510.824    543.93529    69.341413   -5938.4124    8.6561917 
  200000    407.01025    15533.767   -1577.1737    72.128589   -5936.8982    8.6434065 
Loop time of 182.065 on 8 procs for 50000 steps with 1372 atoms

Performance: 23.728 ns/day, 1.011 hours/ns, 274.628 timesteps/s
127.4% CPU use with 2 MPI tasks x 4 OpenMP threads

MPI task timing breakdown:
Section |  min time  |  avg time  |  max time  |%varavg| %total
---------------------------------------------------------------
Pair    | 115.07     | 115.13     | 115.19     |   0.5 | 63.24
Neigh   | 0.035774   | 0.036655   | 0.037536   |   0.5 |  0.02
Comm    | 7.7598     | 7.9063     | 8.0528     |   5.2 |  4.34
Output  | 0.0027532  | 0.0037792  | 0.0048052  |   1.7 |  0.00
Modify  | 58.507     | 58.701     | 58.894     |   2.5 | 32.24
Other   |            | 0.2858     |            |       |  0.16

Nlocal:    686 ave 689 max 683 min
Histogram: 1 0 0 0 0 0 0 0 0 1
Nghost:    3250 ave 3261 max 3239 min
Histogram: 1 0 0 0 0 0 0 0 0 1
Neighs:    55897.5 ave 56068 max 55727 min
Histogram: 1 0 0 0 0 0 0 0 0 1

Total # of neighbors = 111795
Ave neighs/atom = 81.4832
Neighbor list builds = 20
Dangerous builds = 0

unfix out_file_1
unfix 1
# # clear
# write_data after_cooling_$T.in
# write_restart after_cooling_$T.lmp
next loopVar
# # thermo_modify flush yes
jump in.lmp ensemble
# jump ensemble


# write_data after_cooling_.in
# write_restart after_cooling_.lmp






















Total wall time: 4:14:37
