ITEM: TIMESTEP
0
ITEM: NUMBER OF ATOMS
500
ITEM: BOX BOUNDS pp pp pp
-6.4316108663319937e-02 1.7784316108663305e+01
-6.4316108663319937e-02 1.7784316108663305e+01
-6.4316108663319937e-02 1.7784316108663305e+01
ITEM: ATOMS id type x y z 
3 1 1.62802 0.0129893 1.68792 
4 1 0.00568662 1.86906 1.62961 
8 1 3.48606 1.80233 1.79645 
23 1 1.73481 3.59877 1.79302 
102 1 1.59007 1.68299 3.49919 
105 1 3.47049 -0.00666981 3.42457 
121 1 -0.0258429 3.4327 3.52114 
125 1 3.5602 3.71743 3.55939 
7 1 5.29648 0.0965894 1.83254 
12 1 7.09064 1.70219 1.78996 
27 1 5.19315 3.49478 1.87765 
29 1 7.1042 3.48393 0.0878069 
106 1 5.35801 1.81309 3.54381 
129 1 7.15947 3.56576 3.56998 
10 1 8.80854 1.80436 -0.0263628 
110 1 8.79935 1.74654 3.53025 
11 1 8.92822 -0.0304913 1.67111 
13 1 10.6805 -0.0354106 -0.00169965 
16 1 10.5651 1.9215 1.80774 
31 1 8.88604 3.55194 1.67198 
35 1 12.49 3.6623 1.66818 
113 1 10.6274 0.0511623 3.41031 
114 1 12.2949 1.89619 3.57577 
133 1 10.6641 3.59085 3.50567 
101 1 17.6746 -0.0146061 3.40008 
19 1 16.0868 0.135164 1.62216 
20 1 14.112 1.81886 1.6564 
39 1 15.9806 3.5168 1.84414 
117 1 14.129 -0.0315802 3.39316 
118 1 15.9034 1.6298 3.54684 
137 1 14.1313 3.59883 3.51859 
28 1 3.62257 5.36494 1.6361 
43 1 1.86671 7.19385 1.83226 
45 1 3.56906 7.07999 0.0937181 
122 1 1.75094 5.3533 3.60679 
141 1 -0.0503723 7.11503 3.48301 
145 1 3.58035 7.16044 3.49487 
26 1 5.47133 5.17622 -0.0337124 
32 1 7.17399 5.3879 1.77318 
47 1 5.40137 7.08212 1.78467 
49 1 7.17753 6.99835 -0.0638772 
126 1 5.29924 5.46868 3.5546 
149 1 7.14405 7.10464 3.44709 
52 1 7.21895 8.80872 1.83632 
50 1 8.80278 8.81187 0.000890558 
34 1 12.4918 5.33641 -0.0346139 
36 1 10.6016 5.25206 1.73988 
51 1 9.0465 7.12281 1.74168 
55 1 12.4615 7.10455 1.67841 
130 1 9.04343 5.35718 3.66993 
134 1 12.3562 5.31566 3.53577 
153 1 10.6506 7.15246 3.48308 
24 1 17.7784 5.22101 1.77065 
41 1 17.7738 7.15736 -0.0463458 
40 1 14.2117 5.32499 1.79458 
59 1 15.9424 7.22467 1.79872 
138 1 16.0064 5.33066 3.71712 
157 1 14.1514 7.08742 3.49889 
44 1 17.7793 8.73496 1.7467 
48 1 3.58996 8.88752 1.74965 
63 1 1.75589 10.6671 1.72048 
65 1 3.5497 10.62 -0.0351556 
68 1 3.471 12.4126 1.66563 
142 1 1.80938 9.04765 3.58887 
162 1 1.78475 12.4116 3.53124 
165 1 3.61535 10.6707 3.5552 
66 1 5.21161 12.4236 0.0179181 
67 1 5.46827 10.5488 1.78439 
72 1 7.10165 12.4592 1.65323 
146 1 5.26971 8.88688 3.73827 
166 1 5.30345 12.3849 3.35054 
169 1 7.07555 10.5554 3.60896 
71 1 8.84805 10.5623 1.75998 
150 1 8.8121 8.8887 3.62559 
170 1 8.66485 12.6009 3.60798 
56 1 10.6193 8.90531 1.76871 
73 1 10.6606 10.5985 -0.0614607 
75 1 12.4564 10.3923 1.5915 
76 1 10.7479 12.3232 1.69209 
154 1 12.3379 8.88829 3.60836 
173 1 10.4496 10.6319 3.54451 
174 1 12.4361 12.5465 3.49941 
61 1 17.6923 10.5406 0.172626 
64 1 17.7397 12.4398 1.66704 
161 1 17.7466 10.7004 3.57849 
58 1 15.9072 8.88016 0.038778 
60 1 14.2117 8.90727 1.73116 
78 1 15.8804 12.2425 -0.0488807 
79 1 15.9825 10.6135 1.77767 
80 1 14.1402 12.1386 1.81884 
158 1 16.0063 8.94258 3.47324 
177 1 14.1765 10.646 3.63969 
178 1 15.9735 12.4499 3.55549 
82 1 1.63473 15.8176 0.0255515 
83 1 1.84609 14.1309 1.89413 
88 1 3.55456 16.1026 1.59153 
182 1 1.64356 16.1654 3.35864 
185 1 3.60337 14.3229 3.62482 
9 1 6.97912 17.7029 0.0753127 
109 1 7.16957 17.7613 3.53261 
86 1 5.29625 15.8524 -0.00292971 
87 1 5.17204 14.3332 1.73856 
89 1 7.01351 14.1955 -0.0244826 
92 1 7.08087 15.904 1.7542 
186 1 5.32149 16.0852 3.27806 
189 1 6.96896 14.2352 3.5356 
15 1 12.3643 17.7751 1.82832 
91 1 8.86692 14.0949 1.69128 
94 1 12.3574 16.0589 0.00237471 
95 1 12.4557 14.2526 1.52173 
96 1 10.5861 15.9951 1.73169 
190 1 8.98443 16.0001 3.64441 
193 1 10.5301 14.0681 3.39914 
194 1 12.3433 15.905 3.49046 
81 1 17.6756 14.0849 -0.0161124 
84 1 17.6755 16.0035 1.64749 
181 1 17.7139 14.2156 3.3903 
97 1 14.172 14.3133 -0.0497747 
99 1 15.9581 14.049 1.58461 
100 1 14.2713 15.9396 1.71974 
197 1 14.3415 14.1666 3.38526 
198 1 15.7893 15.8784 3.53838 
108 1 3.54097 1.72801 5.09144 
123 1 1.72864 3.3592 5.31479 
202 1 1.66601 1.55525 7.04021 
205 1 3.51883 -0.0285342 7.00079 
225 1 3.53876 3.33296 7.05111 
208 1 3.50873 1.64864 8.83583 
223 1 1.67611 3.32481 8.77873 
107 1 5.30949 -0.0563664 5.11781 
112 1 7.08081 1.67449 5.25061 
127 1 5.25956 3.45514 5.28579 
206 1 5.34836 1.62306 6.97882 
209 1 7.0676 -0.0510227 7.18646 
229 1 7.0215 3.48329 7.08364 
111 1 8.81438 -0.0362228 5.38963 
115 1 12.3471 -0.0162492 5.35661 
116 1 10.6671 1.70647 5.41744 
131 1 8.9447 3.45013 5.38214 
135 1 12.4655 3.51807 5.38453 
210 1 8.86554 1.76886 7.08163 
213 1 10.6267 -0.0243115 7.182 
214 1 12.4966 1.56439 7.30304 
233 1 10.6612 3.47797 7.22325 
104 1 17.6461 1.63705 5.32619 
221 1 17.7314 3.4414 7.1084 
120 1 14.2163 1.63783 5.26251 
139 1 15.8701 3.46278 5.29883 
218 1 15.9383 1.77408 7.0989 
237 1 14.1712 3.4605 7.17386 
220 1 14.3133 1.70486 8.8012 
124 1 0.013922 5.25143 5.27862 
128 1 3.51224 5.2667 5.2353 
143 1 1.77353 7.16796 5.2943 
222 1 1.78816 5.26692 6.9236 
241 1 0.12677 7.05987 7.14052 
245 1 3.52371 7.03848 7.06159 
224 1 0.0408524 5.2499 8.77218 
228 1 3.4497 5.12011 8.73612 
132 1 7.18975 5.36843 5.22994 
147 1 5.32426 7.03578 5.36952 
226 1 5.20949 5.20455 7.06264 
249 1 7.13713 7.04199 7.04388 
152 1 7.01861 8.81794 5.41111 
247 1 5.18112 6.97817 8.7243 
136 1 10.6234 5.23744 5.45903 
151 1 8.96715 7.20763 5.37699 
155 1 12.3695 7.08524 5.26941 
230 1 8.88536 5.23629 7.3567 
234 1 12.5055 5.27892 7.10292 
253 1 10.7405 7.08009 7.15165 
254 1 12.4642 8.80992 7.01486 
256 1 10.7858 8.80934 8.76049 
140 1 14.071 5.37265 5.17903 
159 1 16.1387 7.08799 5.30507 
238 1 16.1061 5.27145 7.08039 
257 1 14.25 6.95948 7.00156 
240 1 14.3687 5.39124 8.71818 
259 1 16.232 7.24674 8.70522 
260 1 14.2979 8.82238 8.78497 
144 1 0.144828 8.99623 5.25864 
148 1 3.62384 9.05011 5.42359 
163 1 1.80297 10.7992 5.32117 
168 1 3.62139 12.4659 5.30191 
242 1 1.88451 8.94747 6.93663 
261 1 0.0179601 10.75 6.94982 
262 1 1.83287 12.4792 7.12037 
265 1 3.56524 10.7117 7.12337 
244 1 0.0556741 9.01494 8.72244 
263 1 1.68459 10.815 8.78295 
167 1 5.41447 10.7101 5.35129 
172 1 7.02878 12.5587 5.37344 
246 1 5.29715 8.93762 7.08893 
266 1 5.22334 12.3881 7.2065 
269 1 7.04438 10.6575 7.23732 
171 1 8.64469 10.6744 5.3617 
250 1 8.81836 8.97249 7.07496 
270 1 8.74129 12.3653 7.06593 
156 1 10.6646 8.95908 5.29339 
175 1 12.4337 10.6757 5.32209 
176 1 10.5562 12.3394 5.28179 
273 1 10.5187 10.7771 7.05251 
274 1 12.3365 12.5285 7.09183 
275 1 12.5603 10.5714 8.85213 
276 1 10.6849 12.4298 8.81773 
164 1 17.7228 12.5301 5.33138 
160 1 14.1893 8.87674 5.28364 
179 1 15.9613 10.6596 5.26327 
180 1 14.2086 12.4199 5.30016 
258 1 16.0535 8.95757 6.93235 
277 1 14.1637 10.6819 7.09363 
278 1 15.873 12.4826 7.14991 
279 1 16.0344 10.6212 8.73403 
280 1 14.1618 12.4446 8.81414 
103 1 1.6119 17.7833 5.13686 
183 1 1.70296 14.2822 5.33017 
188 1 3.44717 16.0968 5.25936 
282 1 1.63639 16.0841 6.94898 
285 1 3.4946 14.1798 7.11836 
283 1 1.6477 14.2228 8.8002 
284 1 -0.0280036 15.9848 8.80995 
288 1 3.42577 15.9872 8.85781 
187 1 5.22838 14.4009 5.38832 
192 1 6.94118 16.1164 5.32489 
286 1 5.3148 15.9849 7.2066 
289 1 6.99538 14.1593 7.22273 
191 1 8.89495 14.168 5.30315 
195 1 12.5225 14.1782 5.32323 
196 1 10.7272 15.91 5.24721 
290 1 8.93006 15.8807 7.07875 
293 1 10.7172 14.1571 7.07762 
294 1 12.3879 16.0311 7.00546 
296 1 10.663 16.0578 8.83793 
201 1 17.7274 17.6931 7.1004 
119 1 16.0434 17.7141 5.28186 
217 1 14.2006 17.7055 7.07317 
184 1 17.6323 16.0142 5.22285 
281 1 17.7609 14.1398 7.05894 
199 1 15.862 14.1945 5.26295 
200 1 14.1335 15.9926 5.24359 
297 1 14.0974 14.2051 7.05324 
298 1 16.0072 15.9234 7.03664 
299 1 15.9913 14.3139 8.85365 
300 1 14.2401 16.0045 8.85047 
203 1 1.69157 -0.0308046 9.01635 
302 1 1.73667 1.80454 10.7643 
303 1 1.86198 -0.0617487 12.4275 
305 1 3.51553 0.00668227 10.6226 
308 1 3.5408 1.73539 12.3861 
321 1 -0.0555568 3.59596 10.6084 
323 1 1.68639 3.49906 12.5399 
325 1 3.49418 3.46904 10.6014 
212 1 7.0667 1.69039 8.88219 
227 1 5.28754 3.35725 8.87706 
306 1 5.32417 1.70394 10.7419 
312 1 6.98165 1.69903 12.3537 
327 1 5.2682 3.52524 12.4423 
329 1 6.93518 3.53242 10.5915 
231 1 8.69793 3.47796 8.92274 
331 1 8.75087 3.51327 12.3427 
216 1 10.6482 1.73718 8.88214 
235 1 12.4325 3.55814 8.91507 
310 1 8.89426 1.85838 10.6035 
311 1 8.89984 -0.00414081 12.3094 
314 1 12.484 1.78868 10.5988 
316 1 10.6824 1.82287 12.3743 
333 1 10.6571 3.5499 10.5352 
335 1 12.5326 3.46162 12.3095 
204 1 17.6992 1.62522 8.92089 
304 1 17.6878 1.66911 12.4072 
239 1 16.0157 3.60133 8.90292 
317 1 14.2248 -0.0376713 10.7768 
318 1 16.0167 1.72309 10.5899 
319 1 16.1292 -0.0633908 12.4457 
320 1 14.3698 1.70109 12.4131 
337 1 14.2844 3.56013 10.5238 
339 1 16.0778 3.50467 12.4669 
243 1 1.71213 7.08245 8.87135 
322 1 1.70265 5.16233 10.6587 
324 1 0.0353322 5.39752 12.4867 
328 1 3.59113 5.34744 12.3329 
343 1 1.83672 7.09272 12.5693 
345 1 3.47288 7.00423 10.5612 
348 1 3.65347 8.81812 12.297 
232 1 7.0556 5.27084 8.87091 
326 1 5.18552 5.28763 10.5407 
332 1 7.02602 5.36581 12.327 
347 1 5.26978 6.97364 12.429 
349 1 6.89748 7.02628 10.6955 
251 1 8.82381 7.14762 8.91877 
330 1 8.79548 5.35793 10.4944 
351 1 8.85576 7.06415 12.3483 
252 1 6.95964 8.70881 8.90896 
346 1 5.23839 8.82868 10.5719 
350 1 8.81353 8.84021 10.5732 
236 1 10.6723 5.31094 8.94089 
255 1 12.523 7.04429 8.88634 
334 1 12.5003 5.41274 10.654 
336 1 10.6177 5.21568 12.445 
353 1 10.5994 7.16012 10.7439 
355 1 12.4218 7.11575 12.4033 
354 1 12.4742 8.78859 10.6596 
341 1 17.7582 7.18962 10.6283 
338 1 16.1027 5.28373 10.6167 
340 1 14.1832 5.20875 12.4265 
357 1 14.3265 7.07801 10.6242 
359 1 16.0086 7.04607 12.4623 
344 1 17.7822 8.7403 12.4566 
358 1 16.0428 8.85924 10.6362 
248 1 3.47243 8.97755 8.89278 
264 1 -0.0191601 12.3664 8.91879 
268 1 3.566 12.5216 8.99995 
342 1 1.74335 8.88904 10.6603 
361 1 0.00253818 10.6368 10.7113 
362 1 1.74178 12.4117 10.7124 
363 1 1.62306 10.5475 12.4973 
365 1 3.44021 10.6527 10.6658 
368 1 3.44955 12.4245 12.4886 
267 1 5.15325 10.6499 8.88231 
272 1 7.15381 12.3585 8.92451 
352 1 7.10196 8.99811 12.4235 
366 1 5.25428 12.5036 10.5324 
367 1 5.36273 10.6906 12.3887 
369 1 7.02407 10.646 10.4988 
372 1 7.07536 12.2949 12.4296 
371 1 8.83543 10.7723 12.3352 
271 1 8.91575 10.6002 8.95543 
356 1 10.5306 8.96262 12.4387 
370 1 8.88373 12.471 10.5867 
373 1 10.639 10.5172 10.4948 
374 1 12.4289 12.5398 10.6226 
375 1 12.3494 10.5771 12.3289 
376 1 10.6479 12.3697 12.4564 
364 1 17.744 12.4459 12.476 
360 1 14.3058 8.93633 12.2159 
377 1 14.2889 10.6191 10.5635 
378 1 16.0127 12.4309 10.7071 
379 1 15.9791 10.5816 12.3116 
380 1 14.1438 12.2815 12.4457 
381 1 -0.0508807 14.1228 10.6869 
382 1 1.66336 15.9627 10.6816 
383 1 1.71722 14.2025 12.5899 
384 1 0.0127282 15.8707 12.5126 
385 1 3.44429 14.3635 10.6358 
388 1 3.45205 15.999 12.4816 
207 1 5.24182 17.7644 8.95849 
307 1 5.28555 17.5816 12.4715 
309 1 7.10919 17.6647 10.718 
211 1 8.75525 17.7824 8.94464 
287 1 5.32024 14.3154 8.97336 
292 1 7.22628 15.9284 9.03712 
386 1 5.27301 15.8981 10.6987 
387 1 5.22403 14.0703 12.3591 
389 1 7.14116 14.2306 10.6021 
392 1 7.13952 15.9612 12.4451 
215 1 12.5792 17.653 8.91236 
313 1 10.6461 17.7437 10.5753 
315 1 12.3014 17.7597 12.4288 
291 1 8.95537 14.2243 8.89944 
295 1 12.3462 14.4282 8.86488 
390 1 9.05248 16.0696 10.6743 
391 1 8.98576 14.1331 12.4052 
393 1 10.6477 14.3291 10.6411 
394 1 12.4492 16.0868 10.7141 
395 1 12.4106 14.3061 12.7408 
396 1 10.6381 15.9799 12.4538 
301 1 17.6356 17.6416 10.6409 
219 1 15.9695 17.713 8.91853 
397 1 14.1512 14.1858 10.7128 
398 1 15.7459 15.9146 10.7307 
399 1 15.7922 14.1991 12.4962 
400 1 14.1332 16.0461 12.5409 
1 1 0.126037 -0.0582129 17.7324 
2 1 1.79224 1.764 17.6315 
25 1 3.59329 3.49835 17.7162 
402 1 1.78949 1.55899 14.2399 
404 1 -0.0497991 1.72922 16.0019 
408 1 3.35766 1.7227 15.89 
421 1 -0.0502156 3.3469 14.2457 
423 1 1.75894 3.64684 15.9508 
425 1 3.38216 3.47309 14.1504 
6 1 5.23896 1.68433 17.6604 
406 1 5.35724 1.64484 14.2266 
409 1 7.13026 -0.00343151 14.1227 
412 1 7.1078 1.59675 16.092 
427 1 5.29063 3.33671 15.9307 
429 1 7.07096 3.52954 14.27 
410 1 8.6476 1.77155 14.3085 
431 1 8.77822 3.59202 15.9095 
14 1 12.3793 1.89868 17.646 
33 1 10.5903 3.52666 17.6172 
413 1 10.5162 -0.0141522 14.0929 
414 1 12.3816 1.78155 14.2124 
415 1 12.4729 -0.0178234 15.921 
416 1 10.6054 1.67546 15.8633 
433 1 10.6833 3.50979 14.2425 
435 1 12.3834 3.56198 15.949 
21 1 17.7685 3.56238 17.7613 
17 1 14.3164 -0.028667 17.7216 
18 1 16.136 1.70176 17.6655 
37 1 14.3031 3.58926 17.6254 
417 1 14.2384 0.0367702 14.1368 
418 1 15.9768 1.71969 14.2436 
419 1 16.0148 -0.0153793 16.009 
420 1 14.2255 1.77144 16.0774 
437 1 14.176 3.62835 14.261 
439 1 16.0465 3.59356 15.9758 
22 1 1.74836 5.31546 17.764 
422 1 1.66951 5.30164 14.1451 
424 1 0.0414365 5.3313 15.9278 
428 1 3.66058 5.31431 16.0583 
443 1 1.80414 7.14422 16.0931 
445 1 3.57556 6.97836 14.2874 
442 1 1.58477 8.82606 14.2759 
448 1 3.51025 8.80943 15.9792 
426 1 5.17674 5.19151 14.1795 
432 1 7.02273 5.246 15.9803 
447 1 5.48814 7.04237 15.9615 
449 1 7.09055 7.02809 14.1945 
430 1 8.72896 5.22517 14.0579 
451 1 8.82111 6.99484 15.8545 
452 1 7.19179 8.85658 15.7376 
30 1 8.96408 5.23042 17.7235 
53 1 10.6045 7.12271 17.7374 
54 1 12.4592 8.76697 17.6241 
434 1 12.426 5.31174 14.1641 
436 1 10.636 5.42667 15.8017 
453 1 10.5458 7.06701 14.0641 
455 1 12.3523 7.07411 15.9567 
454 1 12.4638 8.75764 14.1833 
38 1 16.0561 5.29782 17.7239 
57 1 14.2827 6.94241 17.7765 
441 1 17.6249 7.15115 14.3459 
438 1 16.0862 5.30728 14.1915 
440 1 14.2898 5.34068 15.9564 
457 1 14.3835 7.06404 14.2029 
459 1 15.9746 7.05441 16.0687 
458 1 15.9057 8.82568 14.2686 
460 1 14.1779 8.79605 16.0343 
42 1 1.82833 8.94179 17.7139 
62 1 1.63457 12.4082 17.776 
462 1 1.58519 12.3648 14.2241 
463 1 1.65066 10.5596 15.9516 
465 1 3.31451 10.656 14.1492 
468 1 3.33673 12.3841 16.0488 
46 1 5.38669 8.87553 17.6825 
69 1 7.1898 10.4749 17.6318 
446 1 5.24592 8.88862 14.1623 
466 1 5.32831 12.3856 14.2339 
467 1 5.43292 10.7239 15.9563 
469 1 7.10103 10.679 14.1188 
472 1 7.1793 12.4884 15.8636 
70 1 8.93543 12.3912 17.6935 
74 1 12.6085 12.4143 17.7043 
450 1 8.92606 8.99425 14.1633 
456 1 10.5075 8.87247 15.8868 
470 1 8.99035 12.332 14.2755 
471 1 8.92188 10.6291 15.8743 
473 1 10.802 10.7099 14.1782 
474 1 12.4592 12.3565 14.2021 
475 1 12.2841 10.5974 15.9058 
476 1 10.7642 12.4364 16.032 
77 1 14.0723 10.5949 17.5705 
444 1 17.7195 8.88027 16.1205 
461 1 17.7225 10.4806 14.1403 
464 1 17.6887 12.3454 16.1057 
477 1 14.0885 10.5277 14.2731 
478 1 15.9193 12.3234 14.1313 
479 1 16.0574 10.6684 15.936 
480 1 14.0442 12.3604 15.867 
5 1 3.44049 17.7533 17.7515 
85 1 3.44312 14.2708 17.769 
403 1 1.72213 17.5975 15.9748 
405 1 3.70086 17.7554 14.188 
482 1 1.68383 15.8794 14.2959 
483 1 1.62418 14.1159 15.9579 
485 1 3.41034 14.1022 14.3205 
488 1 3.43179 16.0705 16.0648 
90 1 8.7934 15.8449 17.7151 
407 1 5.42396 17.7442 16.0852 
486 1 5.28477 15.8192 14.2688 
487 1 5.31531 14.133 15.9985 
489 1 7.28476 14.2246 14.1038 
492 1 7.08649 15.9043 15.9246 
490 1 8.84184 16.0569 14.1659 
93 1 10.6989 14.2333 17.6897 
411 1 8.86188 17.6257 16.0534 
491 1 8.9031 14.2841 15.952 
493 1 10.7074 14.1382 14.2915 
494 1 12.4404 16.0552 14.3294 
495 1 12.4329 14.2515 16.0159 
496 1 10.8502 16.1202 16.0176 
98 1 15.9727 16.0631 17.7588 
401 1 17.7803 17.6869 14.3249 
481 1 17.5176 14.1885 14.3988 
484 1 17.6391 15.8982 16.0285 
497 1 14.2731 14.2525 14.3085 
498 1 15.9354 16.0434 14.1863 
499 1 15.9021 14.1135 15.9923 
500 1 14.2635 16.1264 15.9777 
ITEM: TIMESTEP
1000
ITEM: NUMBER OF ATOMS
500
ITEM: BOX BOUNDS pp pp pp
-6.2804746887897167e-02 1.7782804746887855e+01
-6.2804746887897167e-02 1.7782804746887855e+01
-6.2804746887897167e-02 1.7782804746887855e+01
ITEM: ATOMS id type x y z 
3 1 1.76118 -0.169493 1.7433 
4 1 0.0717869 1.48384 1.66566 
8 1 3.40797 1.72158 1.75364 
23 1 1.72825 3.50296 1.74393 
102 1 1.86287 1.79808 3.64502 
105 1 3.59966 0.0256631 3.44251 
121 1 0.0390278 3.34994 3.49894 
125 1 3.43748 3.61006 3.42675 
7 1 5.36105 -0.0177522 1.76959 
12 1 7.1032 1.69066 1.69696 
27 1 5.26884 3.47881 1.64323 
29 1 7.00793 3.4528 -0.123424 
106 1 5.35481 1.8196 3.45842 
129 1 7.18345 3.50638 3.51065 
10 1 8.85062 1.70118 -0.240335 
110 1 8.87759 1.82905 3.48728 
11 1 8.77164 -0.267795 1.78087 
13 1 10.5004 -0.0704423 0.00295258 
16 1 10.6939 1.69248 1.71557 
31 1 8.80282 3.44157 1.68887 
35 1 12.4853 3.42358 1.57078 
113 1 10.5157 -0.23107 3.47495 
114 1 12.4114 1.74773 3.44505 
133 1 10.6602 3.41225 3.47988 
101 1 17.7867 -0.163914 3.46715 
19 1 16.1379 -0.0490146 1.71228 
20 1 14.2577 1.55584 1.69378 
39 1 15.9906 3.43636 1.67835 
117 1 14.3144 0.012557 3.53352 
118 1 16.1132 1.63176 3.48049 
137 1 14.1684 3.52793 3.49435 
28 1 3.51068 5.21995 1.60971 
43 1 1.62825 7.14341 1.75273 
45 1 3.46896 7.10062 0.086978 
122 1 1.61308 5.29715 3.51468 
141 1 -0.0552012 6.97224 3.585 
145 1 3.4392 7.0032 3.39933 
26 1 5.1714 5.20358 -0.122642 
32 1 7.05596 5.22552 1.56204 
47 1 5.27903 7.08847 1.6711 
49 1 7.06308 7.08013 -0.00650757 
126 1 5.29976 5.30214 3.42156 
149 1 7.01682 7.14997 3.39931 
52 1 6.95351 8.93611 1.82132 
50 1 8.84721 8.899 0.00909444 
34 1 12.4511 5.20981 -0.0609775 
36 1 10.5396 5.15119 1.73975 
51 1 8.89335 7.21495 1.68606 
55 1 12.3783 6.87377 1.85878 
130 1 8.86434 5.40085 3.33304 
134 1 12.5643 5.18522 3.49922 
153 1 10.499 7.12539 3.55513 
24 1 17.8081 5.09942 1.68044 
41 1 17.6447 6.99201 0.00147751 
40 1 14.2353 5.21375 1.7358 
59 1 15.9395 7.09617 1.67192 
138 1 16.0526 5.22151 3.50721 
157 1 14.234 7.0044 3.5072 
44 1 17.7292 8.87229 1.89993 
48 1 3.48262 8.92912 1.66008 
63 1 1.70259 10.6285 1.75984 
65 1 3.49455 10.6308 -0.13775 
68 1 3.58026 12.4077 1.6724 
142 1 1.80241 8.94235 3.48861 
162 1 1.85534 12.4551 3.50503 
165 1 3.3458 10.6572 3.52905 
66 1 5.24498 12.2889 -0.0381437 
67 1 5.20294 10.5886 1.80269 
72 1 6.99007 12.3349 1.87208 
146 1 5.27429 8.68824 3.61115 
166 1 5.29775 12.4372 3.52261 
169 1 6.9843 10.5881 3.49187 
71 1 8.75596 10.7272 1.78539 
150 1 8.86732 8.90992 3.50361 
170 1 8.901 12.5247 3.58158 
56 1 10.7189 8.85553 1.6691 
73 1 10.5782 10.5852 -0.0279347 
75 1 12.4912 10.8166 1.82172 
76 1 10.675 12.4545 1.73404 
154 1 12.5333 8.84162 3.54316 
173 1 10.5511 10.639 3.49429 
174 1 12.4656 12.4831 3.65687 
61 1 17.8024 10.6515 -0.0248966 
64 1 17.9164 12.3271 1.82121 
161 1 17.794 10.5741 3.65516 
58 1 16.0132 8.95058 -0.0329286 
60 1 14.1785 8.86162 1.74503 
78 1 15.9646 12.4627 0.0857914 
79 1 16.1052 10.7615 1.77538 
80 1 14.2056 12.6003 1.86803 
158 1 15.8852 8.71116 3.51279 
177 1 14.25 10.6823 3.51195 
178 1 16.051 12.4206 3.59684 
82 1 1.72685 15.9621 -0.0725865 
83 1 1.79971 14.2079 1.64455 
88 1 3.56142 16.0227 1.6479 
182 1 1.85864 15.911 3.51465 
185 1 3.58298 14.1936 3.47124 
9 1 7.12189 17.784 0.110636 
109 1 7.0315 17.7737 3.4823 
86 1 5.21424 16.02 -0.194119 
87 1 5.22873 14.21 1.67712 
89 1 6.96801 14.1604 -0.0661442 
92 1 7.03257 15.9788 1.73932 
186 1 5.16868 16.0402 3.45112 
189 1 6.9803 14.2016 3.50787 
15 1 12.4534 17.7041 1.6588 
91 1 8.907 14.1496 1.87645 
94 1 12.4312 15.8417 -0.0700175 
95 1 12.3868 14.2312 1.90373 
96 1 10.6462 15.983 1.60199 
190 1 8.86423 15.9059 3.48324 
193 1 10.7354 14.2544 3.66085 
194 1 12.4814 15.9977 3.70193 
81 1 17.8419 14.1906 -0.189475 
84 1 17.8294 15.976 1.63422 
181 1 17.864 14.1183 3.47005 
97 1 14.2176 14.3757 -0.0425291 
99 1 16.0576 14.2432 1.66346 
100 1 14.3147 16.0337 1.77631 
197 1 14.2179 14.3333 3.59668 
198 1 16.1207 15.8592 3.51414 
108 1 3.67393 1.81606 5.25861 
123 1 1.72408 3.52298 5.24545 
202 1 1.64589 1.77614 7.08696 
205 1 3.60711 -0.0398842 7.2445 
225 1 3.52575 3.4888 7.0347 
208 1 3.57993 1.87779 8.78508 
223 1 1.64899 3.52565 8.92474 
107 1 5.31921 -0.0325949 5.2994 
112 1 6.99081 1.82647 5.35717 
127 1 5.36336 3.68774 5.31194 
206 1 5.40366 1.80851 7.02546 
209 1 6.95435 -0.0630636 7.23188 
229 1 7.17597 3.61063 6.97379 
111 1 8.74337 -0.0620798 5.30633 
115 1 12.5046 0.0188869 5.34746 
116 1 10.6601 1.56017 5.29478 
131 1 8.93344 3.50212 5.2282 
135 1 12.5105 3.29954 5.26008 
210 1 8.7523 1.70517 6.97797 
213 1 10.7705 0.0837269 6.99262 
214 1 12.5474 1.76751 7.12033 
233 1 10.744 3.51519 7.07099 
104 1 17.813 1.76666 5.32278 
221 1 17.7622 3.49579 7.02424 
120 1 14.2824 1.67012 5.32383 
139 1 16.094 3.48119 5.30257 
218 1 15.9613 1.65952 7.09974 
237 1 14.1875 3.55426 7.06993 
220 1 14.086 1.68792 8.81183 
124 1 -0.178519 5.44159 5.27327 
128 1 3.35513 5.33999 5.30058 
143 1 1.62641 7.14521 5.20459 
222 1 1.66842 5.25465 7.14582 
241 1 0.0152938 7.08244 7.08602 
245 1 3.4465 7.02351 7.05458 
224 1 -0.161113 5.40035 8.74807 
228 1 3.55604 5.31917 8.89594 
132 1 7.2568 5.36381 5.12362 
147 1 5.19351 6.88682 5.32752 
226 1 5.43253 5.23937 7.03813 
249 1 7.19946 7.05986 7.01034 
152 1 7.07676 8.82879 5.21162 
247 1 5.39944 6.98921 8.69621 
136 1 10.6858 5.295 5.29272 
151 1 8.86663 7.20114 5.18524 
155 1 12.4398 7.04932 5.21249 
230 1 8.89375 5.30519 7.03825 
234 1 12.5161 5.20805 6.98332 
253 1 10.7461 7.04312 7.07946 
254 1 12.4294 8.86926 7.11412 
256 1 10.6495 8.91288 8.88158 
140 1 14.245 5.22492 5.39895 
159 1 15.8963 7.00057 5.39317 
238 1 15.8983 5.37155 7.0616 
257 1 14.0389 7.15409 7.1025 
240 1 14.1244 5.3197 8.7989 
259 1 15.9454 7.11314 8.84209 
260 1 14.1256 8.94952 8.95082 
144 1 -0.0529171 8.90403 5.27973 
148 1 3.51959 8.77667 5.16936 
163 1 1.81834 10.5452 5.37741 
168 1 3.62183 12.3713 5.24521 
242 1 1.77247 8.88404 7.04123 
261 1 -0.00199803 10.6259 7.03314 
262 1 1.74222 12.2562 7.07387 
265 1 3.6254 10.5509 7.06987 
244 1 -0.208386 8.88183 8.85286 
263 1 1.7749 10.5571 8.95171 
167 1 5.39725 10.5652 5.24408 
172 1 7.19382 12.4003 5.22755 
246 1 5.35855 8.74184 6.94932 
266 1 5.25578 12.3654 7.25447 
269 1 7.02446 10.6908 7.06248 
171 1 8.83441 10.5568 5.27686 
250 1 8.87107 8.9161 7.01059 
270 1 8.74102 12.442 7.14107 
156 1 10.7582 8.95231 5.3089 
175 1 12.4185 10.673 5.32661 
176 1 10.6228 12.3617 5.33721 
273 1 10.6514 10.7039 7.06079 
274 1 12.4433 12.3868 7.20731 
275 1 12.309 10.6561 8.96108 
276 1 10.6239 12.4136 8.87792 
164 1 17.8006 12.4523 5.31615 
160 1 14.1161 8.90098 5.21612 
179 1 15.9824 10.6917 5.3032 
180 1 14.3423 12.4451 5.28796 
258 1 15.9692 8.9037 7.07932 
277 1 14.2426 10.7347 7.07382 
278 1 16.0585 12.3962 7.00966 
279 1 16.0263 10.6545 8.89762 
280 1 14.2536 12.3783 8.84705 
103 1 1.83468 17.8369 5.23908 
183 1 1.80983 14.2846 5.31371 
188 1 3.54848 16.0618 5.36402 
282 1 1.88212 15.9933 7.11927 
285 1 3.41702 14.0984 7.0813 
283 1 1.75303 14.1307 8.96361 
284 1 -0.045706 16.0435 8.63565 
288 1 3.49174 15.964 8.81628 
187 1 5.21004 14.1774 5.23344 
192 1 6.80362 16.012 5.31771 
286 1 5.18627 16.0016 7.1904 
289 1 6.98599 14.2582 7.15091 
191 1 8.86589 14.2152 5.37906 
195 1 12.4797 14.1393 5.4252 
196 1 10.6607 16.0231 5.42894 
290 1 8.84274 15.92 6.95671 
293 1 10.6278 14.1003 7.09499 
294 1 12.4429 15.8634 6.95563 
296 1 10.4703 16.0706 8.70983 
201 1 17.8481 17.8004 6.93163 
119 1 16.0984 17.7316 5.30371 
217 1 14.254 17.7081 7.1184 
184 1 17.9139 15.9279 5.15312 
281 1 17.8699 14.2421 7.10925 
199 1 16.1032 14.2453 5.32595 
200 1 14.2802 16.216 5.29419 
297 1 14.3096 14.1682 7.09319 
298 1 16.0823 15.9979 7.03313 
299 1 16.1084 14.2275 8.81662 
300 1 14.1896 15.8437 8.80558 
203 1 1.75631 -0.0176006 8.81968 
302 1 1.68402 1.7615 10.5062 
303 1 1.69533 -0.0709145 12.3965 
305 1 3.47044 0.0115006 10.574 
308 1 3.43336 1.76237 12.3389 
321 1 -0.237965 3.56589 10.6451 
323 1 1.69542 3.52662 12.3795 
325 1 3.5283 3.60747 10.686 
212 1 7.13366 1.82448 9.02118 
227 1 5.36764 3.61323 8.79616 
306 1 5.19949 1.88667 10.6468 
312 1 7.09722 1.78096 12.2528 
327 1 5.2982 3.63211 12.4177 
329 1 7.0604 3.63912 10.6787 
231 1 8.94394 3.43437 8.84973 
331 1 8.97686 3.46766 12.4186 
216 1 10.6563 1.69985 8.81307 
235 1 12.3472 3.55324 8.8378 
310 1 8.83062 1.77002 10.6929 
311 1 8.97789 0.00942986 12.5038 
314 1 12.3675 1.57099 10.5168 
316 1 10.7988 1.68864 12.3621 
333 1 10.6172 3.41931 10.607 
335 1 12.5272 3.3987 12.4412 
204 1 17.7271 1.68595 8.7966 
304 1 17.7449 1.7241 12.33 
239 1 16.0167 3.46537 8.74995 
317 1 14.2273 -0.0714734 10.5636 
318 1 15.931 1.83281 10.454 
319 1 15.9743 -0.0949807 12.2107 
320 1 14.2705 1.66504 12.3555 
337 1 14.1178 3.51321 10.5886 
339 1 15.8303 3.44084 12.5032 
243 1 1.80879 7.15461 8.78608 
322 1 1.60255 5.35003 10.7263 
324 1 -0.0503951 5.40266 12.4762 
328 1 3.49856 5.40192 12.4123 
343 1 1.71926 7.22841 12.3804 
345 1 3.46396 7.10589 10.6578 
348 1 3.59002 8.80901 12.4663 
232 1 7.27976 5.28269 8.88136 
326 1 5.26747 5.50989 10.6912 
332 1 7.12907 5.38803 12.4774 
347 1 5.43579 7.08034 12.4916 
349 1 7.16113 7.11467 10.7149 
251 1 8.90903 7.19628 8.99952 
330 1 8.92244 5.22601 10.7343 
351 1 8.95532 7.06426 12.4585 
252 1 7.03263 8.77414 8.82416 
346 1 5.34042 8.66948 10.7284 
350 1 8.81632 8.92821 10.7606 
236 1 10.6378 5.3423 8.86197 
255 1 12.3638 7.09858 8.95524 
334 1 12.4909 5.24293 10.6823 
336 1 10.8044 5.20273 12.3524 
353 1 10.5833 6.95475 10.713 
355 1 12.4356 7.11229 12.6516 
354 1 12.1978 8.86359 10.8011 
341 1 17.6799 7.13281 10.5982 
338 1 15.8776 5.31094 10.6417 
340 1 14.2361 5.3107 12.4139 
357 1 14.1792 7.0516 10.6582 
359 1 15.9235 7.06732 12.3206 
344 1 17.8503 8.94057 12.443 
358 1 15.9785 8.84225 10.6697 
248 1 3.574 8.77334 8.77962 
264 1 0.0848494 12.2986 8.90577 
268 1 3.49028 12.303 8.81494 
342 1 1.78098 8.8717 10.5488 
361 1 -0.0221179 10.6174 10.6553 
362 1 1.76581 12.4653 10.6941 
363 1 1.90177 10.6562 12.3915 
365 1 3.6677 10.6572 10.6841 
368 1 3.4522 12.5378 12.4533 
267 1 5.40214 10.4999 8.94653 
272 1 6.96848 12.4537 9.02215 
352 1 7.06257 8.96153 12.5853 
366 1 5.37976 12.3651 10.7017 
367 1 5.339 10.6779 12.4299 
369 1 7.11805 10.5727 10.7422 
372 1 7.0929 12.3891 12.5126 
371 1 8.99593 10.6428 12.6042 
271 1 8.85516 10.6286 8.92576 
356 1 10.5655 8.73865 12.614 
370 1 8.94739 12.4543 10.5487 
373 1 10.7286 10.5943 10.6298 
374 1 12.4298 12.4905 10.6683 
375 1 12.3615 10.6472 12.5577 
376 1 10.6574 12.442 12.5142 
364 1 17.7895 12.4742 12.2849 
360 1 14.3475 8.74212 12.3833 
377 1 14.0891 10.5821 10.7353 
378 1 15.8754 12.2995 10.6385 
379 1 16.0078 10.6881 12.3415 
380 1 14.1635 12.4632 12.5487 
381 1 -0.0411283 14.2523 10.6426 
382 1 1.706 16.1944 10.6291 
383 1 1.70632 14.2871 12.3911 
384 1 -0.0132409 16.0232 12.3388 
385 1 3.49152 14.1962 10.5536 
388 1 3.51793 15.989 12.3142 
207 1 5.37971 17.9211 8.97136 
307 1 5.33549 17.8764 12.3173 
309 1 7.074 17.6956 10.703 
211 1 8.80492 17.8277 8.91335 
287 1 5.18576 14.1531 8.95172 
292 1 7.03994 15.8834 8.90714 
386 1 5.17425 16.0364 10.6162 
387 1 5.24033 14.2423 12.4062 
389 1 7.1192 14.1816 10.685 
392 1 7.10875 16.0043 12.3232 
215 1 12.424 17.5727 8.80379 
313 1 10.5853 17.7791 10.6233 
315 1 12.5379 17.7566 12.4565 
291 1 8.63241 14.2245 8.83989 
295 1 12.3773 14.2081 8.92595 
390 1 8.73863 16.0114 10.6832 
391 1 8.89444 14.095 12.3988 
393 1 10.5789 14.2575 10.565 
394 1 12.2955 15.9084 10.5424 
395 1 12.3798 14.1995 12.4839 
396 1 10.569 15.9352 12.3997 
301 1 17.731 17.8745 10.5894 
219 1 15.9056 17.8884 8.86334 
397 1 14.0936 14.1432 10.5968 
398 1 15.952 15.8696 10.6344 
399 1 15.8239 14.2066 12.3443 
400 1 14.1274 15.9315 12.3904 
1 1 -0.138411 -0.111697 17.5852 
2 1 1.6197 1.86603 17.7487 
25 1 3.47289 3.42163 17.7149 
402 1 1.67539 1.6744 14.1431 
404 1 -0.0129302 1.59467 15.9733 
408 1 3.55751 1.81313 15.8928 
421 1 -0.0987454 3.59247 14.1651 
423 1 1.5861 3.42294 15.89 
425 1 3.4861 3.53979 14.1771 
6 1 5.24948 1.78345 17.7675 
406 1 5.43584 1.84387 14.0673 
409 1 7.05741 -0.00252293 14.1464 
412 1 7.01501 1.60326 16.0767 
427 1 5.34178 3.53385 15.864 
429 1 7.25975 3.49923 14.1959 
410 1 8.83871 1.63003 14.2383 
431 1 9.02623 3.57118 15.813 
14 1 12.3661 1.57347 17.7403 
33 1 10.6869 3.50276 17.8293 
413 1 10.6035 -0.234614 14.1579 
414 1 12.3532 1.49139 14.2899 
415 1 12.3879 -0.235052 16.0936 
416 1 10.613 1.79398 16.0375 
433 1 10.7101 3.45968 14.115 
435 1 12.5008 3.58521 15.8999 
21 1 17.7709 3.58258 17.6771 
17 1 14.2522 -0.126107 17.8342 
18 1 16.0391 1.81454 17.7837 
37 1 14.1814 3.45678 17.7439 
417 1 14.1999 -0.173534 14.2574 
418 1 16.0322 1.64282 14.1245 
419 1 16.0076 -0.122162 16.0137 
420 1 14.1745 1.66804 16.0051 
437 1 14.2347 3.41414 14.2539 
439 1 16.1073 3.46365 15.8844 
22 1 1.67335 5.24943 17.712 
422 1 1.75462 5.39612 14.2076 
424 1 -0.169687 5.39945 15.8332 
428 1 3.33851 5.33674 15.9908 
443 1 1.59331 7.14445 15.9833 
445 1 3.59088 7.07508 14.1509 
442 1 1.72926 8.93248 14.2453 
448 1 3.39472 8.81805 16.0771 
426 1 5.31543 5.36878 14.2854 
432 1 7.15844 5.41347 16.0422 
447 1 5.20212 7.14555 15.9589 
449 1 7.03926 7.20238 14.1572 
430 1 8.94034 5.22101 14.1238 
451 1 8.77132 7.13702 15.9801 
452 1 6.96941 8.82771 16.0588 
30 1 8.84815 5.29882 17.6775 
53 1 10.5882 7.0452 17.8829 
54 1 12.4821 8.86186 17.862 
434 1 12.49 5.3342 14.2328 
436 1 10.7061 5.26723 16.132 
453 1 10.6914 6.91787 14.3429 
455 1 12.4677 6.98303 16.0564 
454 1 12.3274 8.88245 14.308 
38 1 15.9124 5.26917 17.7101 
57 1 14.1555 7.06487 17.8223 
441 1 17.8122 7.15608 14.096 
438 1 15.8311 5.50914 14.2457 
440 1 14.2646 5.27255 15.8978 
457 1 14.2715 7.24129 14.3424 
459 1 16.0855 7.16943 16.0016 
458 1 16.011 8.96225 14.271 
460 1 14.2722 8.84427 16.0911 
42 1 1.60595 8.89483 17.7996 
62 1 1.83701 12.4837 17.8323 
462 1 1.63537 12.5095 14.18 
463 1 1.70995 10.6902 15.9979 
465 1 3.47441 10.7836 14.1841 
468 1 3.48668 12.4811 15.97 
46 1 5.23464 8.70945 17.7715 
69 1 7.02309 10.5163 17.7617 
446 1 5.28334 9.01418 14.2802 
466 1 5.26511 12.4647 14.2578 
467 1 5.15464 10.6329 15.9883 
469 1 7.07981 10.7345 14.2866 
472 1 6.93637 12.4277 16.0362 
70 1 8.82618 12.4291 17.7734 
74 1 12.4965 12.3917 17.7988 
450 1 8.85328 8.875 14.2701 
456 1 10.7845 8.84947 16.0352 
470 1 8.82159 12.4949 14.2924 