LAMMPS data file via write_data, version 29 Oct 2020, timestep = 150000

2016 atoms
1 atom types

0.7028639573530331 20.561136042647572 xlo xhi
0.7028639573530331 20.561136042647572 ylo yhi
1.6400159004926351 47.97598409950422 zlo zhi

Masses

1 58.933

Atoms # atomic

233 1 1.4449802417638629 2.0774496390578343 4.645154642033596 1 1 0
1356 1 3.4007886467316353 1.7239407489576617 3.616825720092371 -3 2 1
2003 1 0.8880220952465671 4.561416481917121 2.2973227706344685 0 4 1
521 1 2.5194640324624658 3.213368985959985 2.978852443351206 0 1 0
300 1 0.9733453196173234 4.187043249929255 5.175413716248553 1 0 0
1410 1 3.5405558961341166 4.106788601883471 4.776637456718117 -3 -1 1
672 1 4.793102817602467 3.4622255311814523 3.045603305889732 1 0 0
292 1 5.342108493150417 1.9967366119863343 4.647030502838661 0 1 0
2008 1 7.286850904601817 2.381834477727315 4.185243174537289 0 6 1
1103 1 5.7150899823033425 4.5407799482255005 5.125772771327174 1 1 1
1998 1 7.790937403079804 0.8293717753205456 2.2625929988679934 0 0 0
1293 1 5.729516623616746 1.500107797615959 2.439705461831295 -3 5 1
5 1 7.026502065214234 3.5980480163175095 2.5047792292271405 1 -1 0
376 1 8.892400539199379 1.0803673345959501 4.288912979661139 0 1 0
305 1 9.017245297064902 4.575624302996799 4.362064292308451 1 0 0
1489 1 10.412447885750538 4.199929859129144 2.569456420224792 -1 2 1
1977 1 10.595420450949941 2.817603057134372 4.245957503560106 -2 3 1
508 1 8.990538332596847 2.4623865246943444 2.7555670401802033 1 0 0
1109 1 11.305471241117173 1.7366344838146799 2.407125175809799 -3 2 1
1252 1 12.559813579656309 3.422907034662872 3.2889575961917643 4 1 1
373 1 12.452242909285706 1.4277161308732869 4.133310453038079 1 1 0
230 1 15.35976298485531 3.594964905404232 3.5522104612455125 0 0 0
104 1 13.757460448175246 1.9690105332058536 2.3326749790052945 0 1 0
1316 1 15.706041635985377 1.0607712333598034 2.818676072513984 -4 1 1
1118 1 13.298574059770075 2.919090577951506 5.2991373025059865 0 0 1
1548 1 19.271966168096036 3.195835684379921 3.6069982503877105 1 1 1
27 1 17.40665844572697 2.0470183703469673 4.773910613299742 0 0 0
200 1 17.077526354709214 2.600163360961929 2.9862605426753035 -1 0 0
1389 1 17.69919659559784 4.610796139444978 3.3951662707170476 4 4 1
1266 1 20.465504640118944 2.2512066559962203 2.1655842687727818 -2 3 1
644 1 19.48500998340497 1.137485352805261 3.9264348325331264 0 1 0
330 1 17.15504978326534 3.9141461693076898 5.3108178486723805 0 1 0
547 1 2.1944672514917487 5.644306968564234 3.979049381148291 1 1 0
1521 1 4.594607268101946 5.930003870198981 4.098747328975948 -1 0 1
1362 1 4.450466709289432 7.171048413334901 1.988083341409078 -4 3 1
414 1 2.1951600905846 7.506205886044638 1.8143798257654207 0 1 0
719 1 3.4484085382115537 5.271906946649432 2.3961901007602053 1 1 0
652 1 4.3506779467494106 7.901677587211711 3.9553701097752096 0 1 0
1347 1 0.7164993859698653 7.428863357546204 4.060591513584871 -1 -2 1
88 1 6.497146485457397 7.146728160053656 3.171601382095507 0 0 0
1074 1 7.063286008025087 5.206107679070803 3.866726522684991 0 -3 1
471 1 8.387523479727257 7.8062721833104405 3.81656320117425 0 0 0
1334 1 5.678933188683523 5.245421876515883 2.0390988928743083 -2 0 1
1886 1 6.358004657761461 7.13986136237169 5.415646608822707 1 2 1
1514 1 8.833914601776838 6.426566055075976 5.290013521876227 -2 1 1
1927 1 10.848766071486805 5.679349177518507 4.212498273735648 -1 3 1
1904 1 8.955744680611902 6.095133587981418 2.9594638219487672 1 -1 1
1062 1 10.81147922183361 7.797793844026354 3.7081053881642148 0 4 1
1775 1 12.53449257339481 5.3055131264693625 2.8316780656342475 -1 0 1
263 1 10.960140965967929 6.281598408475448 1.9542532427737154 1 0 0
30 1 11.212567532522218 8.511535769516813 1.7281455135624668 -1 0 0
556 1 14.62344629989263 5.226215729000755 3.6640208785628383 0 1 0
774 1 12.983752071352457 5.589873771612806 4.947084507506726 0 1 0
1647 1 12.743996231984678 8.007962179163743 5.102084625622848 -2 0 1
226 1 14.661903024921928 7.293598460812146 4.4118447822778 -1 0 0
425 1 12.98265857708406 7.456367130575519 2.9092453635512907 0 0 0
245 1 16.345876414968536 5.182119087826845 2.1145291440557057 -1 0 0
1767 1 15.257023138956814 7.593607574525967 2.104006825014437 1 1 1
1931 1 16.71394729167769 6.021455234070413 4.616418235359442 -2 0 1
102 1 19.780509451486225 5.326835773528626 3.708075481840629 0 0 0
1666 1 20.21119849429533 6.833109791101922 2.1990018625418535 -3 1 1
187 1 18.035279620563877 6.792507066644842 2.8587108022087984 0 0 0
528 1 18.89447350155961 5.2278775946752845 5.420198960315574 -1 0 0
1148 1 18.583823430296235 7.537027255213727 5.132202616902927 0 1 1
1248 1 1.2824942781694362 9.137616036262704 2.7435929552575526 2 3 1
382 1 2.45722937685949 8.73011777198007 4.592196921342913 1 1 0
715 1 4.129196363519846 9.974820078520368 4.55215832125827 1 0 0
595 1 2.4565576658006294 10.859701222379949 3.0572711414703795 1 -1 0
557 1 4.425999605453101 12.524341312455817 4.9799083305571825 1 0 0
1542 1 4.470194266057993 9.539434946904242 2.4064334271453314 1 2 1
593 1 2.587872446497449 11.306452733179714 4.992491364998092 1 0 0
1740 1 4.964067101019855 11.443641537942888 2.79521724954596 -1 -1 0
129 1 6.497871183105427 9.379571746642936 3.417962414656981 -1 0 0
74 1 8.236679075245515 9.845959606073254 4.839911411671187 0 0 0
466 1 6.152718133878607 11.270670994770636 4.655033247145906 1 1 0
544 1 8.277823367331981 11.240458916320126 3.2075221948781207 0 1 0
326 1 6.631010159735556 10.892397823131745 1.7667569142281052 0 0 0
1984 1 9.621844575078862 9.58786049025552 2.9923624033576575 1 4 1
1745 1 11.129810550476783 10.592790698514857 1.7626147547832605 1 -2 1
253 1 10.315034546361515 11.166722859676135 4.475964220581361 0 0 0
961 1 11.667814776689225 12.08247415801997 3.17148983718388 -1 0 0
1655 1 12.351360767261665 9.502257009210915 3.4030085533332834 -2 -1 1
1936 1 10.219332574045724 8.833583377166223 5.4996058862844714 -4 0 1
1094 1 12.563405926607384 10.404242247599717 5.113532663447298 1 3 1
1247 1 11.541080957942238 12.558707178619898 5.469736786169353 1 1 1
1685 1 15.54191942915047 10.784727601710916 2.2359365272936964 2 1 1
8 1 14.667442906841796 9.34286412086279 3.756069123681568 -1 0 0
1497 1 15.86497824300383 11.086849145935592 4.335772491828774 1 1 1
191 1 13.683805370531397 11.499974957315004 3.4157920465904956 1 1 0
626 1 13.159648963084974 10.445052685314044 1.7016234017691627 0 0 1
1704 1 16.85909763987462 12.598881138674717 2.104958227542983 -2 -1 1
126 1 20.232662318216967 9.763343353169764 5.249015796092693 1 0 0
270 1 18.627611153692584 11.139459426756428 4.240458129949691 0 0 0
814 1 16.924328624799593 8.95560285169463 3.581094350969993 0 1 0
169 1 19.162011748929565 8.920034916448305 3.3792692484067457 -1 0 0
740 1 20.400948407995628 12.1136529117131 4.906519090650582 0 0 0
255 1 20.398788221996313 11.212838647026153 2.6116125854046617 0 0 0
1082 1 18.043180503497183 10.472915550943833 2.2191956922712794 -2 -1 1
40 1 1.0619920643285246 13.455637931621897 3.2948359981723456 1 0 0
633 1 3.1748849345047585 13.28632997960673 3.2115358523325708 0 0 0
1640 1 2.5274324607809024 15.535090806801431 3.774983865836558 -1 2 1
181 1 2.307147085336198 13.404202942946295 4.864138654806819 0 -1 0
291 1 0.9970634343377278 15.448178866031682 2.512543683113277 1 0 0
1087 1 4.424426460216445 14.730832219647654 5.102323373775873 -1 5 1
1208 1 7.062802935635424 12.989291119134217 2.1372248074425317 -1 -2 1
1394 1 7.300208689240972 15.322094436897476 2.870866395532544 0 -3 1
833 1 7.999771122805111 13.192707435471684 4.1043793687472725 1 0 0
830 1 5.64920613522483 13.646016010263871 3.730552680237364 0 1 0
1372 1 6.123127976941762 15.790111992177476 4.612058092733179 0 0 0
366 1 7.7363000056835025 15.015614248612959 5.3747906197872934 0 0 0
1614 1 4.76160485059674 15.628111479195171 2.6786932595185418 1 -2 1
385 1 9.898169024356127 13.395307644447568 3.638578454933554 -1 0 0
1762 1 9.875598700158363 15.39985948930532 3.112162786579539 -4 -2 1
680 1 10.243579809146512 14.246041779974233 5.441960534265211 0 0 0
356 1 11.648995522768995 14.438489443998646 2.9642359866277213 0 0 0
1230 1 13.004686149256358 12.91100874506616 1.7479793802524493 -4 5 0
943 1 14.978769522572096 14.419427811835185 2.033524171749728 0 0 1
1693 1 13.121378247497685 13.450764676625719 4.169088533020904 1 3 1
299 1 15.091115578650536 13.192807077494253 4.147077878801775 0 0 0
635 1 13.487295438009703 15.497385590550696 3.872396922404627 0 0 0
1286 1 15.684677781161458 15.5193467949925 4.133314142546686 0 2 1
1803 1 17.129179498206412 16.161676401126353 2.4521805923698468 0 2 1
681 1 18.890678542691248 12.997106461024018 3.1539993161273414 0 -1 0
1367 1 20.38948945575202 14.974646322029857 5.029181817241724 1 1 1
323 1 17.02574571716646 13.78943338663047 3.7772333270651437 0 0 0
112 1 18.82712636151586 14.94611314217844 3.0417022727797383 0 1 0
188 1 17.61448202052553 15.7163486369739 4.763716371847748 -1 -1 0
36 1 18.7915828987015 13.690205132191199 5.188477975678884 -1 -1 0
325 1 3.147024155833707 19.437140550582285 3.585130278421865 2 -1 0
1880 1 0.7062364278411053 19.65560798466128 2.578554680801653 1 3 1
789 1 1.9826643395269652 19.85874852407543 5.1392375216608315 1 -1 0
1814 1 4.361676763482253 20.02084209560416 1.6635809414078753 0 3 1
1467 1 2.542813980812562 16.959571365688703 2.102875091969662 -4 2 1
333 1 4.151037621895952 17.593389955317825 4.121384375593098 2 0 0
1635 1 1.5173629010468632 17.72923834386686 4.094571336176916 -2 -1 0
139 1 4.463012839343508 17.661653907956826 1.8064468455645102 1 0 0
59 1 5.777859265135319 19.57309174037787 3.4675177811268787 1 -1 0
182 1 8.622561964309417 18.268003832204123 2.002786700707815 0 -1 0
1672 1 8.380126864638761 16.63326811979114 4.11695101433649 1 3 1
1858 1 7.813468530834535 19.1142877865951 4.187803123165086 0 -2 1
337 1 7.109878685682121 20.531626699292914 5.429959464473935 0 0 0
1827 1 6.372825396471238 17.5550361200102 3.2413314881222517 2 2 1
792 1 10.621484338208205 17.383427405307266 1.8033730349961186 0 0 0
1736 1 9.903950422637372 19.970852165789744 2.775622535391508 2 -1 1
1518 1 10.118378453171829 18.30347585019716 4.040503934332065 0 4 1
1732 1 12.067617743206691 19.446839589391566 2.366735545923366 0 0 1
1822 1 11.657944676886967 16.764974686660764 3.8856595861977565 -2 3 1
944 1 12.433977032063945 18.736357871405218 4.682875589694478 -1 0 0
467 1 10.115548899751113 16.61130684049418 5.40989854833877 0 -1 0
415 1 10.97784300013993 20.306883873500546 4.804634081006217 0 -1 0
240 1 12.756491717097722 16.969018860416618 2.20570272797714 1 0 0
293 1 14.03252018167377 17.58586347429511 3.751563384366893 1 -1 0
1291 1 15.78408906532491 18.483934284440494 3.143005525816589 1 2 1
438 1 16.33069368376778 19.734665491678896 5.18619644507746 0 -1 0
4 1 14.094263031276638 19.20909861441259 2.4871083975550543 0 -1 0
651 1 14.393464783415574 20.490475324119025 4.3567834706396615 -1 0 0
1093 1 15.09405792841725 16.783043227892477 1.7730005089920102 -1 3 0
1022 1 18.26592511590414 17.99551877556845 3.073606174596354 -1 0 1
584 1 16.74963431927587 17.62936559101896 4.8581845034184115 0 0 0
105 1 19.295435777875596 18.92488121919108 4.534286278567428 0 0 0
666 1 19.34526603113399 16.68171437607102 3.7053733631085843 0 0 0
451 1 20.385888371824144 17.53940813892597 2.0324142591573033 -1 0 0
140 1 17.94139277078687 20.136176790922228 3.3136312692613434 0 -1 0
331 1 2.6998476935742604 3.8484473382220807 6.864399401482094 0 0 0
1193 1 1.5266846650743058 2.1211991140702873 6.87455908563066 1 2 1
1898 1 3.9980319058003886 1.9798600588271558 7.760767031546707 -5 5 0
460 1 1.3823795816213824 0.7984551039533139 8.641711423961782 1 0 0
532 1 3.4080221909264012 1.8949219892914626 5.633448602195526 1 1 0
679 1 2.445479962586418 2.95305524060381 8.870401502135557 0 1 0
149 1 6.975335288710472 3.039360008095118 6.54330817251906 0 -1 0
276 1 5.573368936750475 3.2758646044849726 8.59572215070716 0 0 0
28 1 7.96343039176759 4.071611748345541 8.192423291640793 0 0 0
388 1 5.687411605338017 1.4927810592011719 6.621132856944689 0 1 0
515 1 7.526460348399246 1.674333783129828 8.015780976040958 1 0 0
585 1 4.7420483141562695 3.7642819743609457 6.71483134912848 0 1 0
1010 1 5.390719216027586 1.371008028783998 9.263176486166692 -1 -1 1
20 1 9.074882233396872 0.8294816561169642 6.8580476140092745 1 0 0
1585 1 9.002084160422061 2.7542489571438376 5.688148334328031 -1 1 1
26 1 11.48602765327515 4.146046526317017 5.951906277568431 0 0 0
1734 1 11.724380468983163 3.156244131065715 7.6275563877401575 -1 4 1
313 1 10.847669793933047 0.8252352332605772 8.03587070427448 0 0 0
31 1 9.562907358557892 2.683740858460704 7.950764212936903 0 0 0
581 1 11.074663536503175 2.017399015970576 5.993744413074277 0 0 0
1750 1 12.990356538712456 4.165186723182444 8.736733088500849 2 6 1
869 1 15.807294855418544 3.5747967587097857 7.207826616388258 -1 0 0
1799 1 15.25936905521311 2.10072869923541 5.758208830684563 -2 3 1
1324 1 13.596480007064272 2.585171158694962 7.249481192101501 -1 1 1
860 1 15.03596334960845 4.6458569690791895 5.554850294956035 0 1 0
1522 1 12.785674891818854 1.0322766545892625 8.457684734282903 1 1 1
387 1 14.94369331297684 2.869292615404081 8.808609327299205 0 0 0
1601 1 16.586523775484903 4.2419774373865655 9.338111254374347 -2 1 1
294 1 17.19570569973095 1.9883483167224898 9.011582932314973 -1 0 0
673 1 19.31010909431385 2.7237337073417702 5.687837826899815 0 1 0
1952 1 20.164344098616674 3.8030042497727217 7.160243046999321 2 1 1
1624 1 18.17910174391553 3.611512102716837 7.155193931008203 0 1 1
478 1 18.826119535058446 1.5213542745753923 7.8555757672834226 0 1 0
714 1 16.65172900538615 1.1102184024207893 7.289909341157984 0 1 0
811 1 18.745063412168797 4.6038038201054015 9.055047412501487 -1 0 0
864 1 1.3283500442492726 4.874962597247467 8.500283591804624 1 0 0
482 1 3.780601176652335 4.93676726554485 8.65933694569355 0 0 0
1731 1 2.6879217748162043 6.74922381772751 5.569141645887706 -4 -1 1
637 1 2.5945945879378693 6.346948300582253 7.550971678352647 0 1 0
840 1 4.620477115215616 6.36531984164385 6.028725409975262 0 1 0
413 1 0.7904724292680285 7.992967196855127 8.417423865804388 1 1 0
190 1 2.729130412596126 8.252111586569447 8.783686398533744 1 0 0
310 1 4.093686445644522 8.39673433545446 6.223592226671754 1 -1 0
96 1 7.794251020189523 8.330752950610258 6.342416341013183 1 0 0
136 1 7.378430415389125 5.060749061209859 6.244572927784264 1 1 0
949 1 5.902524596190129 5.1706056721773175 7.517104654106509 0 0 0
311 1 6.448577911006199 7.470158121568399 7.814872908959789 0 0 0
1523 1 7.964305156575207 6.064450040579762 8.24946207035325 5 3 0
409 1 4.798799835822027 6.751561151025628 8.845655726853668 0 0 0
48 1 8.315643718809703 8.551422993705565 8.52702817660521 0 0 0
764 1 10.89308794768935 5.000605208441479 8.175223367420891 1 0 0
820 1 9.490545987653 4.759089168992587 6.610348112961072 0 0 0
103 1 11.80061748082176 8.627519930616169 6.73088707988966 0 0 0
1942 1 9.635658165229064 7.359488183842683 7.06054460330116 -1 -1 0
39 1 11.314417532275833 6.706907038554886 6.133609867207838 1 -1 0
280 1 11.1067149753625 8.49559514413004 8.566857736039227 -1 0 0
341 1 12.88023034203729 5.31811376057146 6.865462852750792 1 1 0
1214 1 13.803439031040721 7.663519499796121 7.021777928228274 -4 3 1
1634 1 12.727535544536291 6.445361360152634 8.608402178946784 1 2 1
613 1 15.21338989734312 6.158493343430234 6.9524476649856695 0 1 0
1425 1 16.127113959154283 8.362083485387915 5.536437926437954 1 1 1
954 1 16.140655337206532 7.9232936174610815 7.4769562531304965 0 -1 0
1517 1 14.596007871962728 7.325649500790228 9.297719138156857 -1 -1 1
1083 1 14.73442528588982 5.322572099863992 8.810468901115701 -2 2 1
1702 1 17.391057188294347 5.681939420320648 6.883507005609802 1 3 1
328 1 16.86700816160706 6.178653049283551 8.742154482280645 0 0 0
101 1 20.54256584856887 7.148528977127145 5.989155688799741 -1 0 0
241 1 19.770262918884782 6.043635474756966 7.398006352214189 -1 1 0
1255 1 18.113152436072568 7.778780645218 7.096546189672162 2 3 0
369 1 1.7083951059450402 9.115979559045998 6.780753156085658 0 0 0
564 1 1.3916640492497745 9.954124475905038 8.71613964249087 1 0 0
1038 1 3.414662615569656 10.225677837737683 7.091210713684364 -1 3 1
72 1 4.581174357054014 11.682965311566894 8.446595291203153 1 0 0
238 1 4.659664687979836 8.756719685624914 8.31010567452715 1 0 0
1839 1 1.0184723116291885 11.099090604847813 6.686945600605183 2 2 1
1326 1 3.0771535336554474 12.4467039492242 6.634723627757358 -3 3 0
1785 1 2.2147341577074746 11.755554344001562 8.625401628220098 2 1 1
257 1 5.9001421870199895 9.254849730862077 5.744111127425503 1 0 0
1920 1 6.430300653666896 9.6496129523828 7.744682589999532 1 1 1
397 1 7.483115074318927 10.927283379336451 6.589009171966113 1 0 0
1842 1 5.738152190915562 10.35053382185236 9.362266380197198 3 2 1
473 1 5.182853899324152 11.373412067344216 6.567337710284686 0 0 0
165 1 7.788662044563689 10.460142628419732 9.304203123532108 0 0 0
1023 1 6.579277257862465 12.355022413638926 8.214086325632861 0 -1 1
152 1 9.424426886706904 10.237708887664661 7.38202578466617 -1 0 0
1370 1 8.778346956422311 12.092871091619754 8.703996460799317 1 -1 1
1677 1 11.689308519764255 10.932442599848907 7.157257886369812 1 2 1
375 1 9.424168458759654 12.09150035990092 6.311159518053216 0 0 0
1232 1 10.700396050907415 11.50089313665038 9.10685720108173 -2 2 1
271 1 14.517149748656381 12.023579919284265 5.896380625958971 0 0 0
287 1 12.890242540796393 12.391701639126575 8.721293018397265 1 0 0
282 1 12.714902895585885 10.052906730262313 9.302770452783857 0 0 0
628 1 15.070611702663962 11.239378045176368 8.695291710688661 -1 1 0
1423 1 15.909107706525408 10.492637763094152 6.65987422091143 0 4 1
1054 1 14.29107793674185 9.398760396471516 6.050418719198798 0 4 1
578 1 13.654608838732198 10.770900586171358 7.434468560853345 -1 0 0
1081 1 14.606084904347489 9.192228772207864 8.369172024978509 -1 -2 1
1965 1 16.987109397277287 12.220964189356708 5.589173618890528 0 0 1
1569 1 19.422880660407294 9.401158242800921 7.412469901637736 2 1 1
545 1 18.90612748704377 11.50027916313348 6.241438687101512 0 0 0
146 1 19.217084048948678 11.484919383145337 8.177865506344721 -1 -1 0
555 1 17.92379534975605 9.79423291849998 5.99381937554973 -1 0 0
131 1 16.996485263695874 9.930372872744694 8.382411738269877 0 1 0
1156 1 17.088607947874465 12.112264337559239 7.849036368600909 -4 0 1
1493 1 2.6767857457856246 16.36783002028104 5.602866465398617 0 1 1
125 1 2.818347570674765 14.580546254863851 6.606378764292069 0 0 0
217 1 3.1117608663962466 13.746933615205633 8.40816964597068 1 0 0
1069 1 4.307607475852064 15.564428692571315 7.792356810298082 3 -2 1
476 1 0.9809379246861026 13.599589665657346 6.5315659903389784 1 0 0
456 1 2.5221030072566757 16.464431477352996 8.04535731264439 1 -1 0
289 1 4.815144984172227 13.480298602727819 6.884307550123462 0 -1 0
343 1 7.4550715814610795 14.79886527774269 8.61017675126715 1 -1 0
522 1 6.175873249395576 15.424048585696495 6.94270986290132 0 0 0
1462 1 6.684636115154022 12.947292848660606 5.875745811780688 0 -4 1
320 1 8.473969247111118 13.887693321375195 7.177487538722068 0 0 0
1478 1 5.869724560293726 16.24185974698319 9.339448012986676 0 1 1
506 1 5.634746954769442 14.065741366985574 8.911132568495436 -1 -1 0
69 1 12.116949111280556 15.105992732833702 5.503643397892814 0 -1 0
360 1 10.314519071717472 13.631562763587182 7.617070254987296 0 0 0
404 1 9.164374273752793 15.979616134890204 6.962674940471811 1 0 0
1205 1 11.751203257298208 14.569696746353893 9.334289425188258 1 1 1
355 1 9.330866470046235 15.822753711461875 9.103294076253793 0 0 0
494 1 11.23981100986128 15.557848329635917 7.3236303789639114 0 1 0
1227 1 14.329189133894564 14.306460338425874 6.013846521492285 1 4 1
70 1 16.582616287103725 14.31635606692112 5.995015008014422 0 0 0
1879 1 14.922973723752532 13.173217095528848 7.546308204565885 -1 4 1
793 1 13.638371674392591 15.659037438647102 7.694684214878863 0 0 0
1921 1 12.70196112102589 13.639375707608494 7.143175488540455 2 -4 1
99 1 16.46093046678932 16.434315964015408 6.924969027292621 0 0 0
991 1 13.773474388345486 14.296266888862665 9.229161264260181 -1 0 0
695 1 15.579037182715865 15.61929638810423 8.73402937750786 1 1 0
543 1 20.28984271818252 13.404278430187128 8.56849753942647 0 0 0
52 1 18.6497604303158 15.571275752250395 6.714403570947122 -1 0 0
1696 1 16.755473342957224 14.026816618298293 8.116408928776343 0 0 1
1836 1 18.41659230661857 15.129909102145975 8.824451024772527 0 1 1
1222 1 18.700256351928942 13.388286900792593 7.226597152202596 -1 0 1
1872 1 20.535630785615638 15.25071002613998 7.903300739488433 -1 5 1
1841 1 0.8007866951236764 16.88371630987958 6.580240644865828 2 2 1
286 1 2.91367501605862 20.26647748612615 7.23038128482369 1 0 0
987 1 3.449672146350616 18.063413631946958 7.018934069736315 0 1 0
224 1 4.280282846500119 19.718131500223315 5.756680467652531 0 -1 0
690 1 1.318155136876055 18.21401702949091 8.67428629354028 1 0 0
787 1 1.711986737632759 18.576999942116046 6.34140189577208 1 -1 0
884 1 3.3683893877472415 18.335394565307205 9.112889819686748 1 -1 0
1889 1 4.917292628582248 16.654467703229944 5.819146451731002 -2 -2 1
65 1 7.5026052319550764 16.86161362468399 6.007933427862703 1 0 0
332 1 6.042877212824794 18.402842471869583 5.533572887978103 1 -1 0
739 1 4.811059599042732 19.69028220330064 7.929204943405997 1 -1 0
349 1 5.522626703913372 17.623406323091892 7.922636664386203 2 -1 0
446 1 7.039400423190141 19.355476986167815 7.1512008665871925 0 0 0
485 1 7.534203027007259 17.06567765539318 8.152911800239202 0 0 0
237 1 6.774182712953757 19.581812983301788 9.184850195225035 1 0 0
1676 1 12.446540178784119 17.133779099233635 6.055055960134574 1 1 1
907 1 12.489691088186547 20.400186565325207 6.301688628375042 1 0 1
386 1 8.805540029583808 18.62156591930848 6.184774883296372 0 0 0
114 1 10.866194937773605 18.82952930909135 6.357502339781217 1 0 0
202 1 10.28685438282233 17.3855738605847 7.894542615687752 0 -1 0
1784 1 12.518837189764506 17.106945857469086 8.762251039873277 3 3 1
304 1 8.80358797950774 18.938795770212266 8.384986994632651 0 -1 0
156 1 11.003162399098242 19.287477118184576 9.207847291671303 0 -1 0
275 1 14.669800668223377 16.63743943081841 5.7656347393435485 0 0 0
1165 1 14.520780185297964 18.506599237980836 5.872756873567058 0 3 0
1361 1 14.865468931633684 17.773907569550175 7.936676365540443 0 4 0
2002 1 15.630848525622659 19.53293961127146 8.816926305189405 2 0 1
598 1 14.68195088782701 20.42353005884797 7.207868279069635 0 0 0
284 1 13.002319771733456 18.75325011004182 7.320834788444444 1 1 0
1348 1 18.80924349494188 17.51223287327032 5.888142339314942 1 -1 1
215 1 18.295290237283645 20.299607649077373 6.080937751371537 0 0 0
1499 1 20.23964452809161 20.241274386136034 6.251811900818466 -2 1 0
500 1 17.005806271878832 18.606385124519356 7.203931651827147 0 0 0
847 1 17.849968507091184 19.704324779265825 9.1246368611445 0 0 0
1620 1 18.911787305605834 17.13582899868848 8.040574548570607 1 -1 1
726 1 19.82390534826284 19.136768858285734 7.809764667267977 -1 0 0
1147 1 16.92860747084066 17.10619770766352 9.094597077338115 -5 -2 1
1850 1 3.927752840983456 2.809737450999688 10.073252089929595 -2 3 0
778 1 3.1267715842067894 0.7137622178503662 9.508106841158376 0 0 0
203 1 2.368187772027959 4.252328820270506 10.46467976829034 0 0 0
1866 1 2.160787425454965 3.813867286968711 12.567465759540447 -1 1 0
504 1 4.065239260212172 3.6153968218523964 12.105456094889224 1 1 0
34 1 2.047638940113898 2.0370216732147925 11.312754653626573 2 0 0
458 1 3.57684407316264 1.789308586981064 13.116041564834791 0 1 0
441 1 7.387839771620922 1.3663886962654037 10.365799191906746 -1 -1 0
1726 1 6.321198450499532 3.0130143743155116 10.627678702276638 1 2 1
1211 1 5.8816822989742255 2.3663493220545746 12.517537371098138 0 3 0
296 1 8.165481029337045 3.4499945164991073 12.015526759443606 0 0 0
406 1 8.590604286209448 2.845002819277119 9.787273208667001 1 1 0
443 1 4.736695196811041 4.5933479332264255 10.264860164704427 1 0 0
527 1 6.0529934560512935 4.625675834859699 12.24926865026424 1 0 0
38 1 9.210911031249898 0.7682110590942628 9.387639789773647 1 1 0
1162 1 9.072470657476858 1.1681621260431778 11.796690674410394 1 2 0
930 1 10.110671837892829 3.5267141094088554 11.650906729380846 0 0 0
239 1 10.893850807098097 1.65049764651974 10.112839466463043 1 1 0
177 1 11.455514481333244 3.553035964911472 10.044505546129193 -1 0 0
402 1 12.209298967473527 3.4930210379180346 12.254215022159574 0 2 0
436 1 12.314854481961866 1.2634738243330688 12.400872237801027 0 0 0
1718 1 13.291063330167566 2.3936452871338236 10.442520966100913 -2 0 1
351 1 14.573425536872634 1.0655425556072537 9.9777755640167 0 1 0
675 1 14.432874779921933 3.8650765237691176 10.761374951863102 -1 0 0
842 1 16.222716115469076 2.8136598279002967 10.850582809265886 -1 1 0
535 1 15.925956989668993 4.389732565296683 12.042879716585151 0 1 0
121 1 14.497486324943315 2.0817172014671237 12.348553679512401 0 1 0
1037 1 16.23459009249126 0.7900519590492809 12.924860677612422 -2 -1 1
724 1 19.88479275382703 4.373647478481793 11.20429574244497 -1 -1 0
1860 1 18.144342533606284 1.2801881303555986 11.738023625642382 -3 2 1
1101 1 19.75250902923223 1.1316915491446906 10.265980346582941 1 2 1
645 1 20.352221432473634 3.087135666388394 9.389372686838573 1 0 0
567 1 18.348104531679454 3.0430301866787564 10.326373400491736 0 1 0
1487 1 17.94979178609502 3.6654668158954116 12.57247033390599 0 1 0
871 1 19.79109092695407 2.5528419436742906 12.513547285777381 -1 1 0
252 1 2.9334709044056866 6.311982755367438 9.99169306965903 1 0 0
23 1 0.7920452678915169 6.258029832669072 9.747036955443892 0 -1 0
779 1 1.606732267463935 5.75966130563824 11.851661741657662 0 0 0
321 1 4.621284273157429 8.152442516388561 13.075821236576578 0 -1 0
882 1 1.899813221550926 8.049433298276986 10.792872312641817 0 -1 0
1300 1 3.5768589883072917 6.208796103207199 11.950856103478369 3 4 0
161 1 4.036258015755767 8.139640937002506 10.688297396962495 1 0 0
92 1 8.061033240778723 5.639568822569989 11.840299521837384 0 1 0
236 1 6.278510470550156 8.141899469579222 9.777803712424474 1 0 0
533 1 5.7765313776507 6.384090515231917 10.889186154905158 1 0 0
1873 1 6.54222656772997 7.063642419847903 12.746954286386226 0 3 1
417 1 7.271029322357651 5.033126623871622 9.792852029981937 0 0 0
662 1 7.875105642083475 6.980704291679016 10.244308920991228 0 0 0
1154 1 8.866268127570391 7.400060674491625 12.329279090175184 -1 1 0
599 1 11.677142226319793 5.349281715926225 10.346407825984501 0 0 0
511 1 12.565435698124286 8.080953462996451 10.122839724243196 0 0 0
985 1 9.93709996787207 6.867213103415639 9.430835798999357 0 0 0
586 1 9.297670497025866 4.748857884333236 10.001198569940136 0 0 0
1919 1 10.309624772540472 5.734727040915761 11.735780118815443 -1 2 0
783 1 12.280757797690299 6.581406378099234 12.065936667630409 0 1 0
618 1 10.707868837318047 7.872553068204299 10.989588195759774 1 0 0
805 1 14.06082350124639 5.730655963367168 13.092560555559306 0 0 0
400 1 13.784586359660866 5.632663507924378 10.601711781045214 0 1 0
565 1 15.831430025911638 5.968936993231602 10.489911650009791 0 1 0
155 1 14.19229356147707 7.452767776477473 11.529038992236162 1 0 0
917 1 16.06335794885637 6.924096988121449 12.796026175171903 0 0 0
246 1 16.376372199623685 8.136436792121348 9.903290374324655 -1 1 0
1461 1 17.807082673179288 5.186885104846944 10.904424269568898 1 -1 1
836 1 17.662209206556867 7.153046190862846 11.6131137872046 0 0 0
123 1 18.619236247527553 6.943447563681123 9.669184703751167 -1 1 0
612 1 19.838868937141967 6.9066288580378385 11.756283421777386 0 0 0
520 1 18.076856027190857 5.755315463600104 13.071285796939447 0 0 0
78 1 2.8291343038071233 9.055296127046534 12.491596491699754 1 0 0
1786 1 3.4439446877651063 9.987068431287602 9.77075449516675 2 1 1
716 1 2.249072966351651 10.795899231905032 11.423687153027242 1 1 0
424 1 3.5156843594603653 12.576592437448406 10.173318458986 1 0 0
713 1 4.469560425269367 10.796022186616728 11.470785100867756 1 0 0
625 1 4.58915402525058 12.50599311378101 12.893783513301853 0 0 0
530 1 5.698240144162908 9.040337263207638 11.696298206588445 0 1 0
1512 1 7.118366555851846 10.976010582604092 11.59989936700445 0 -3 1
73 1 8.015612289939622 8.940902931918457 11.096814856518654 -1 0 0
1318 1 5.669905404754288 12.13168257957147 10.29004927183788 2 4 0
247 1 8.630010673794143 11.424493510250963 13.068802402907858 -1 0 0
1783 1 9.75049957805862 9.65667041440967 9.943478955398302 0 0 1
2014 1 11.027899022984743 11.834153102780036 12.533765794306236 2 3 0
541 1 11.44839645018791 10.345124538500723 11.006780161077799 0 0 0
929 1 11.751380469498338 12.524123110305501 10.64112460806432 -1 0 0
483 1 9.114002786433753 11.465157421948858 10.955684419636777 0 0 0
1771 1 9.76726537805975 9.438543742430621 12.424045228610723 -3 1 1
283 1 11.831079441676804 8.849039340445186 12.829392445411361 0 0 0
82 1 13.586368187740723 9.4188885981255 11.76081501693638 0 2 0
865 1 14.754719719728755 9.577188682353647 10.2231361725202 -1 0 0
1017 1 16.010821701208947 8.763066515968724 11.858181518252078 0 1 1
624 1 13.76546331915693 11.702277012356204 10.473230518686714 0 0 0
179 1 15.978585119009384 11.414106213373156 10.986652465820898 0 0 0
607 1 14.946852906198552 12.43619897363342 12.308920451022294 0 0 0
347 1 12.868194427074409 11.410712229092752 12.40628430699205 1 0 0
602 1 15.277900627532231 10.316241003841906 12.89659204090018 -2 0 0
1519 1 17.223134914308588 11.098651825619966 12.612463734208621 -3 0 1
329 1 20.460824334961266 8.850728620087601 12.465528682159588 0 0 0
727 1 20.300257257356584 9.439211118328824 10.310596866233723 -1 0 0
1133 1 19.777572483543118 10.961444517496423 12.01070748190771 1 4 1
950 1 18.45209999531952 9.00900556351872 12.104048404054367 0 1 0
148 1 18.463998569472622 8.92808451315842 9.52384936120345 -1 -1 0
277 1 20.161872644769467 11.591412688816012 10.011482560963053 0 0 0
767 1 18.01515194226456 10.979466861389009 10.447075814664888 -1 0 0