LAMMPS data file via write_data, version 29 Oct 2020, timestep = 250000

2744 atoms
1 atom types

0.16821608261385812 24.63978391738536 xlo xhi
0.16821608261385812 24.63978391738536 ylo yhi
4.238210806815058 55.4276861459184 zlo zhi

Masses

1 58.933

Atoms # atomic

762 1 2.265998292013802 1.0627420776596346 6.683745394816672 0 1 0
1761 1 0.6701406726116049 1.3072286219661402 4.4418066801027285 2 1 0
61 1 4.117791610448729 2.7078426900822627 6.459125635083188 0 0 0
1678 1 4.116740537542653 1.2067145884706747 4.733654776548992 1 2 1
8 1 0.41221189700530236 1.2160828459623079 8.375775933143032 0 0 0
131 1 2.4131835405163464 2.9519532663490002 8.257749767991914 0 0 0
36 1 0.8142631727332215 2.925051954486242 6.516509977520889 0 0 0
104 1 4.324077449241593 1.2653424955912624 8.419940403033857 0 0 0
2287 1 2.3170891565660505 2.6156327969933937 4.934577654102475 1 1 2
12 1 5.7243211236245735 1.2913305007499354 6.911588625275419 0 0 0
41 1 7.416166834252955 3.044444622973331 6.388455646143409 0 0 0
2508 1 5.662266133301831 3.0576029596736065 4.804091913963692 -1 0 0
1472 1 7.414190828117328 1.33197331066217 4.567213145177809 -1 2 1
39 1 7.753792027308328 1.3743297232851046 8.466989178513666 0 0 0
44 1 9.320092785707923 1.1876121318997985 6.620890636020269 0 0 0
2107 1 11.120556610174154 2.6754324041357886 6.612822104764943 2 1 -1
139 1 9.248141210344741 3.0599867478965694 8.319983859516416 0 0 0
47 1 10.752414647037737 1.1180818992992778 4.56944989283598 0 0 0
1029 1 23.798241259847664 24.0435847495852 15.634967464773851 0 0 0
1504 1 13.090515678553684 1.5145272492715662 6.351675948186276 0 0 -1
1563 1 14.801395358795189 3.1117109300589023 6.368547073007106 0 1 1
2126 1 18.132601710305288 18.755778360766925 4.871719901635698 1 2 0
1898 1 14.730465478326602 1.3443617583978322 4.616422032817947 -2 1 0
116 1 14.665544727542844 0.8521917594120035 8.949136959042853 0 0 0
56 1 16.353846087220404 3.197296077127181 4.601346051231629 0 0 0
48 1 12.726872392160605 4.513766628790049 6.174012125475773 0 0 0
14 1 15.785718761120357 0.9512447728104199 6.775007351988793 0 0 0
1916 1 17.722195118314445 1.715428923790849 4.960460458737354 0 0 1
2169 1 17.791760119020744 3.102785598380327 6.681492278853801 1 0 0
152 1 19.695622895035086 1.4756072815689347 6.648038818673234 0 0 0
32 1 19.550477004019115 2.7156405965057986 4.885686739341773 -1 0 0
126 1 17.78219308352665 1.3765762597024407 8.286685784351928 0 0 0
130 1 19.79058981450094 3.5315086144421532 8.099162291814846 -1 0 0
150 1 15.980746084823119 2.9416661679262726 8.616219991414786 0 0 0
2401 1 23.629174573328278 1.4245175459013948 6.546658645262022 -2 1 2
1660 1 21.526271075619 3.2671486354983643 6.491878630106411 1 0 2
129 1 23.368468038921343 2.97895320769334 4.946953577467264 -1 0 0
4 1 21.6344680201561 1.6041750759923705 5.099970627555422 -1 0 0
151 1 21.388806135122913 1.6644682037256529 8.318786431150308 0 0 0
225 1 23.305531492559524 3.0699184930694363 8.613658342201012 -1 0 0
2196 1 2.333614376686859 4.544873655551366 6.710454685749366 -1 1 -1
687 1 0.9148878474763725 6.571391996051649 6.59143100786029 0 0 0
2319 1 0.8822405557154006 4.433399662668214 4.627774261799119 0 1 0
63 1 3.9133440097546877 6.624220172862369 6.439198263018579 0 0 0
159 1 0.9338524194708485 4.765754915053281 8.537722876352575 0 0 0
1957 1 3.9690670834336017 4.709817712895302 4.829077846371319 -1 1 2
2606 1 2.3998209104981063 8.56016299845682 6.6475357363515 1 1 2
128 1 2.4849903430697986 6.814695974601565 8.216568189766017 0 0 0
692 1 4.120563676675758 8.531258272148989 8.590251313653983 0 0 0
1497 1 2.317968523146158 6.568377675195708 4.572861161779806 1 1 1
2089 1 16.354540144118666 9.94410116930821 4.763331005466943 1 0 1
37 1 7.639275672854592 4.842004271427166 4.793573021845717 0 0 0
67 1 5.816712212396946 4.625328089616059 6.604120035997627 0 0 0
72 1 7.833419171935515 6.509615036196295 6.409328333659539 0 0 0
68 1 5.621472598133128 8.275592846264814 6.673462093662806 0 0 0
38 1 7.453344924103036 4.848738966006472 8.333626889368064 0 0 0
163 1 5.548136779320627 6.428573167004961 8.05665341186084 0 0 0
167 1 7.803921049401537 8.06435790164949 8.182091451608114 0 0 0
2190 1 5.923972589683148 6.481868177881503 4.995282636779735 0 0 0
132 1 4.058081848340705 4.531425309496975 8.361063901329416 0 0 0
1823 1 9.615997569673786 4.526480915039103 6.161149399186594 -1 0 1
71 1 11.457763211708116 6.522354471338745 6.662582231612534 0 0 0
140 1 11.117531576401886 4.824789960330806 8.270990401731806 0 0 0
69 1 11.330066941120231 4.932308607847822 4.4911247909937435 0 0 0
136 1 9.328799448902792 6.638390696399445 4.753548924226169 0 0 0
2148 1 9.46970170578773 8.346960101658333 6.582379003555304 1 0 0
42 1 11.13515297100061 8.036647170177332 4.709399948517748 0 0 0
168 1 9.49460542680102 6.1430631658338966 8.22707507079295 0 0 0
2368 1 12.834027818738228 6.464394733473654 4.812193061638192 1 3 0
2615 1 16.057672447501744 4.968937537508045 6.727998738331836 1 0 0
144 1 14.29555604516344 6.582426626565193 6.459914994602695 0 0 0
143 1 14.039562268338411 4.854020730279729 8.061182535564658 0 0 0
736 1 23.49534904310316 16.868255432660582 5.012800125959845 -1 0 0
52 1 15.927813125899673 6.588377779107132 4.68803723322668 0 0 0
172 1 14.497820525023608 8.48949260721764 8.507684258502731 0 0 0
171 1 12.906546737049315 6.897019796037739 8.593194685121528 0 0 0
175 1 15.946204330599414 6.443213891480812 8.526134574289006 0 0 0
76 1 12.985209796123542 8.355497705691347 6.501286052978276 0 0 0
51 1 19.737186962972046 5.147489567275373 6.291241026663508 0 0 0
84 1 17.82893398307599 6.486978392042166 6.190604963865231 0 0 0
2113 1 17.952643754120857 4.556293581443952 4.6330376707590535 -2 -1 -1
147 1 19.85286482846297 6.666921991135409 4.78813378759883 0 0 0
148 1 17.720379976893938 5.107393283674201 8.162133554945743 0 0 0
98 1 18.36716205386262 7.8619892547716965 8.03211818451268 0 0 0
179 1 20.173092384329877 6.30725857588729 8.198231989261195 0 0 0
57 1 21.608144190304692 4.415834017315303 4.674159706383388 -1 0 0
2120 1 23.422008728491946 4.822763996955652 6.345508332013326 -3 -1 -1
1971 1 21.633975092336705 6.42286651931964 6.4951949079007 -1 -1 1
1551 1 14.378423628006136 4.619865533199243 4.563865596300787 1 1 0
1834 1 23.484165139164006 7.775864168716574 6.332013998292963 0 1 0
100 1 23.50018764278029 6.529510044756532 8.489489925189798 -1 0 0
29 1 21.670260187454126 4.9241353687623075 8.322002393479654 -1 0 0
1464 1 4.42127693967796 11.811791139066255 4.805021713517777 1 -2 0
88 1 0.864800878274872 8.47696834198228 4.887773829725976 0 0 0
2164 1 2.183358325548328 11.619859448167421 6.554083280804045 0 0 0
1412 1 0.5348750967556024 10.0438539814976 6.57808375968942 -2 0 -1
2503 1 2.6198328732497314 23.950827890063266 4.637462433053568 1 -1 0
804 1 4.219223320624484 11.702189028013379 8.348858957118733 0 0 0
64 1 2.7223784551890744 10.189223489820934 4.8154659814747385 0 0 0
2426 1 0.5101200390731433 11.873049121344694 8.539264600392338 1 2 1
787 1 2.4263546922330357 10.198560434066321 8.106798766922354 0 0 0
2723 1 4.206659980416301 10.222632166117442 6.615453737131235 -2 0 2
1809 1 7.372875764947501 8.413788089136842 5.034491280688634 0 -2 0
164 1 7.785155182632203 10.186425923715008 6.752942720356415 0 0 0
789 1 5.970029170175663 11.75090501584203 6.712157942446211 0 0 0
160 1 6.003961578581533 9.834445778217017 8.323016445554803 0 0 0
1730 1 7.426441181880713 11.523626947750234 5.046301388918438 -1 -2 1
1567 1 5.531708068005049 9.876598755624755 4.898219343222948 1 0 -2
811 1 7.682700621309067 11.727742729992348 8.43500587890325 0 0 0
189 1 10.713821418751424 7.985042029179364 8.433588628674318 0 0 0
92 1 10.747911618365293 10.11084977258293 6.292203428838973 0 0 0
2635 1 9.432095221784847 12.006205350039489 6.829709115395996 2 1 -1
793 1 11.254842831474635 11.786960993940388 8.36427735621487 0 0 0
73 1 11.01785466356144 11.88148052443689 4.9817676341770785 0 0 0
791 1 9.558586164304307 10.124411815353103 8.640155494438481 0 0 0
1797 1 9.125606923849137 9.62608545609046 4.4152110710863335 2 0 1
2435 1 14.800083642610332 8.482391555087945 4.542861219534075 0 1 1
715 1 12.684280526301345 11.84592925411737 6.636066339694745 0 0 0
1997 1 14.615045654982548 10.152995259670956 6.524769160200847 -1 0 1
698 1 16.323042078797677 11.58798616032174 6.61153660449752 0 0 0
75 1 12.830493218806499 10.023833025854238 4.874490435455443 0 0 0
193 1 16.539372357799778 9.47106483505406 8.347511461225547 0 0 0
94 1 12.654537229295116 9.891637703307248 8.135622539742869 0 0 0
80 1 16.15975952383195 7.899468350029124 6.642511486669368 0 0 0
2344 1 2.1857139601139077 16.745304676936804 4.333896301397669 -1 0 0
93 1 14.321297373612028 12.151626066880329 4.72226974783988 0 0 0
1633 1 18.188298999607504 8.329494362423535 4.762148382283563 -1 0 -1
96 1 19.922834441684664 8.132348352950277 6.637394241191909 0 0 0
1954 1 9.165544422019183 2.7833316568481785 4.875079885147992 -2 0 1
819 1 19.845255832484085 9.944360499933733 4.53332561136774 0 0 0
2483 1 18.144544713368447 10.112044184087305 6.488330168411924 1 2 0
700 1 20.046076177025213 11.70922805446481 6.376324698859394 0 0 0
795 1 17.864854111199037 11.621796065521465 8.474526751703507 0 0 0
1535 1 21.582140146589957 8.134362484419087 4.71959055356169 -1 2 1
156 1 21.630490919064812 9.78169754032908 6.5183601951074435 -1 0 0
688 1 23.1213161956736 11.39285233713343 6.43027382059878 -1 0 0
97 1 21.561033302986573 11.889623619353854 4.626215138612662 0 0 0
1446 1 23.66933820007241 10.091012260772695 4.32770586506921 2 1 2
799 1 21.458659667528302 11.428126009308844 8.432953356075616 -1 0 0
1432 1 23.36801621057255 9.72597682829895 8.401835524204877 -2 0 -1
706 1 2.542666724587198 15.27567040482892 6.279520969626713 0 0 0
755 1 2.758275146298194 13.284405283404661 5.076607991127477 1 0 0
703 1 0.2910171363248291 13.359414114174816 6.5516788399912445 0 0 0
1463 1 0.7053793902175745 14.938226018544078 4.731836035278132 0 0 -2
800 1 0.6693335765710153 15.114365380833217 8.315251102511425 0 0 0
705 1 4.359283418547795 13.343696150917383 6.654797327758883 0 0 0
758 1 3.9967587472242037 15.17423302713713 4.430979123668566 0 0 0
712 1 5.62344390293859 15.584321503469898 6.401740081196241 0 0 0
711 1 7.681724120029871 13.695358723134751 6.538610387665801 0 0 0
2205 1 7.5358002561913935 15.284632525365554 4.551512338857233 2 -1 -1
1620 1 6.24768777249977 13.444458682399679 4.823404067823688 3 -1 1
807 1 7.527627666551054 15.378235810332669 8.290787272711174 0 0 0
2490 1 9.23239717384171 13.069412249426476 4.929159326848175 0 1 0
739 1 10.97449400769102 13.92434562265897 7.07148820976373 0 0 0
737 1 9.183257401462498 15.108104604058704 6.3818816971985335 0 0 0
716 1 11.021620417198164 15.006445623327938 5.0329203036553105 0 0 0
843 1 11.084305657884004 15.746008249933594 8.314274430833054 0 0 0
771 1 16.503525013083063 13.365286422249167 4.911131535608757 0 0 0
1491 1 18.210309833549594 11.68913230949888 4.796662090964715 -1 0 1
815 1 12.76150881748201 15.180752410010514 6.527845381315432 0 0 0
720 1 14.623267890347785 13.416529920650504 6.643828025813052 0 0 0
748 1 16.460754119837937 15.167451752975628 6.4518677124408566 0 0 0
1655 1 14.718576373219056 15.316386299203511 4.823985155307894 -1 -1 1
847 1 14.888081158502025 15.34269735496544 8.189922432289784 0 0 0
719 1 16.39235559806211 13.209256041666716 8.632930220247466 0 0 0
728 1 17.897473056414306 15.164308513476504 4.781695342870703 0 0 0
721 1 18.30420629905612 13.10111409518499 6.588580643413804 0 0 0
824 1 19.70947542447135 14.865202081881167 6.999670516691267 0 0 0
820 1 18.033306412896103 14.910903096033753 8.504957055958695 0 0 0
2178 1 19.73597010863947 13.7199930936511 4.87138121105998 -2 0 -1
2211 1 23.601386089428885 15.3357610565524 6.718479789910159 -1 -1 0
86 1 21.812489530333423 13.52350605768996 6.596953927549164 -1 0 0
2273 1 21.701942350300257 15.23648494982433 4.732579959625206 -1 -1 0
219 1 18.4000833820961 24.43729453125284 13.568657616485057 0 -1 0
704 1 21.46407878710317 15.080260505285915 8.565104786827344 -1 0 0
223 1 21.6404039850758 24.46716789562018 13.61530866508779 0 -1 0
735 1 2.3551733637546586 19.192044308917026 6.4501443482138665 0 0 0
856 1 0.5896362087105933 18.947803811588358 4.781906125215449 0 0 0
831 1 2.319299713894764 16.796656002114673 8.790948215729514 0 0 0
708 1 1.0265387805396626 17.11937926647321 6.410470846971714 0 0 0
1524 1 2.5486860489254974 20.316485704250525 4.402451833821611 1 -2 0
2530 1 3.616087109175467 17.2427452457844 6.561584658222532 1 1 1
2499 1 0.6137820495048336 20.98390918153047 6.873730720778636 -1 -1 0
857 1 2.5347192796296687 20.70757416284757 8.41868981869797 0 0 0
2617 1 4.116461340193405 18.74652383850274 4.694088218393382 2 2 2
31 1 4.098999673631875 20.586315384380384 6.761691998166404 0 -1 0
2676 1 5.784848953442809 17.053153113015654 4.6515531202546265 1 0 0
744 1 7.465145679030849 17.17665026296408 6.636650679734429 0 0 0
808 1 5.859892323001257 18.99333535709976 6.1936016119625865 0 0 0
835 1 7.555994366952663 19.113701007059277 8.230343507616851 0 0 0
765 1 5.852691095691167 20.695605024368838 4.592785769460011 0 0 0
1553 1 7.601643435321345 20.52342296974591 5.97974126448708 1 -2 -1
863 1 5.4322054378427325 20.39977050179 8.742087086978314 0 0 0
861 1 5.828685796420363 17.308117201988104 8.245899872560758 0 0 0
2155 1 3.834546201667095 22.062806051576523 4.815008315139028 1 0 0
2622 1 11.208857150003379 18.909846261001015 4.892222668826187 -1 0 2
741 1 10.934397981374044 17.22294205726267 6.421630552059243 0 0 0
836 1 9.178838092784632 18.76022320975688 6.697448156131307 0 0 0
11 1 9.246364198950854 17.10024242399222 4.650835149572944 0 -1 0
108 1 9.232897422029504 20.497282377790995 8.254272365382251 0 -1 0
864 1 10.781305294154894 20.357807297434547 6.56697369255526 0 0 0
871 1 12.918141506418351 18.51872326885391 6.419773228821108 0 0 0
769 1 9.204248425381506 20.264242084749164 4.420591834048122 0 0 0
766 1 12.72996387826537 16.568340484427303 4.841391223231602 0 0 0
2629 1 14.226504070333528 18.429437894642298 4.512751040140645 -1 0 2
840 1 14.680679853289977 17.134083064866452 6.2941637403276705 0 0 0
1765 1 12.802395333960884 20.600610325591127 4.961776093037555 -2 -3 1
773 1 14.468775323105646 20.315088001859742 6.665666304556041 0 0 0
710 1 16.296883970806114 18.770285779071436 7.018672822301431 0 0 0
2719 1 12.713466347898962 13.464682623125269 4.864843915655946 -2 1 -1
752 1 16.25258728299962 20.25466380034142 4.784747885313756 0 0 0
776 1 12.714186879685107 20.037919762714466 8.053119503276424 0 0 0
816 1 13.010197114346084 16.870498232842202 7.9365417597203205 0 0 0
848 1 16.547142268725104 16.852212458234497 8.171476519756771 0 0 0
775 1 16.240288840553504 20.63024773542218 8.47902058292177 0 0 0
2299 1 19.680795228172734 20.35845705777465 4.61374390471809 -1 1 0
723 1 16.220785808865557 16.83687407531483 4.859635801912073 0 0 0
875 1 18.237588246598094 16.999437470799712 6.3633183475922905 0 0 0
844 1 20.092979284363764 18.430861839790367 6.7668470441400626 0 0 0
797 1 20.301767618859643 16.71660852202617 4.715030374468062 0 0 0
854 1 19.591444115450543 17.02693361597288 8.518876193976425 0 0 0
751 1 18.06980290686274 20.560762301179345 6.465949705366448 0 0 0
727 1 23.059110133514615 13.560209602107909 4.698756116437631 0 0 0
756 1 23.13677027330379 20.532549532237283 5.1861326738075215 0 0 0
2177 1 21.829689926906852 18.482957152351645 4.7603123557015845 0 0 -1
1973 1 21.504712717380755 16.433784596150765 6.791474517025322 1 -2 2
1552 1 22.882358945614314 18.693835989875446 6.764708197707453 1 0 -1
802 1 23.62753691508761 17.14449670569156 8.0543688942305 -1 0 0
852 1 21.43905634117275 18.702659798080234 8.937511208686567 0 0 0
759 1 21.218031311683156 20.80727143965197 6.240628203127825 -1 0 0
2373 1 0.7312897564705514 11.84775875871741 4.84463732856851 1 -1 -1
2283 1 2.6336920052818997 22.623622162928307 6.777326143428592 -2 -1 0
782 1 0.5444579250854762 23.992460936328747 6.766090709721132 1 0 0
768 1 4.217132727754767 23.970192497922156 6.804902643106029 0 0 0
295 1 20.33875372149499 22.712594320263044 13.931894047618057 -1 -1 0
2430 1 0.8003956653244766 22.009462739590994 5.235567714205151 0 -1 2
740 1 4.026199439535157 22.785054667484637 8.69886919563595 0 0 0
5 1 0.4981464013552461 22.414436172548932 8.528363988789078 0 -1 0
2362 1 5.977425390386924 23.79784518768829 4.686890272671276 0 1 0
9 1 7.6406931120000054 24.153398656767322 6.620095660806336 0 -1 0
783 1 5.921165278536566 22.027951915316557 6.467597555606309 1 0 0
7 1 7.685443509340241 22.401214658770662 5.0228633961753575 0 -1 0
135 1 5.9541954517039475 23.97944457149638 8.408974050442698 0 -1 0
10 1 7.426024611049434 21.91038545668112 8.543888563932708 0 -1 0
770 1 10.845196333047175 22.13526013352363 4.558179314962433 0 0 0
772 1 11.352997869472956 24.340755261682276 6.584735449617126 0 0 0
867 1 9.786916200223283 22.577845971784598 6.6130155893515745 0 0 0
115 1 11.453944742057256 21.89969368914685 8.469330925561664 0 -1 0
111 1 9.531198473617236 23.679937828974126 8.67788972543148 0 -1 0
1830 1 9.245910583377082 23.90600300923643 4.766510010195169 -1 -1 0
16 1 13.925333997396429 22.57277497070377 4.381280627983607 0 -1 0
2263 1 12.135980569194956 22.047430683897836 6.3429138516063865 0 -1 0
1810 1 14.12199371484899 23.861643341372563 6.422711241827011 -2 -3 1
19 1 16.189662624950955 22.144228342149624 6.620552050265433 0 -1 0
777 1 13.898165293381794 22.15460411042328 8.245450486241584 0 0 0
18 1 15.947398579881769 23.8907578528256 4.958623161188491 0 -1 0
784 1 12.51113078934086 24.105354134845456 4.584742578505566 0 0 0
119 1 16.497040465641284 23.535792738454866 8.44447490048233 0 -1 0
760 1 17.861049319539866 22.101751092131273 4.7953200785630745 -1 0 0
24 1 17.696118824898626 24.017481622969306 6.53859762239048 0 -1 0
851 1 19.655765981894874 22.23927448271826 6.260643749469471 0 0 0
23 1 19.92656536170064 24.483158179248868 8.222082891535587 0 -1 0
880 1 19.079249110455848 24.161578560842827 4.713145274035028 0 0 0
828 1 22.909820892489023 20.763642785279842 8.175269614596639 -1 0 0
732 1 23.440025970109986 24.03613267808627 4.5235303977517765 -1 0 0
1523 1 21.281271095968428 23.94691876327898 6.47596873414539 0 -3 -1
862 1 23.20668239667021 22.67434457253851 6.40204125685908 -1 0 0
753 1 21.216052928504403 22.265332853087777 4.6018291046364865 0 0 0
125 1 21.099622360588718 22.507294344583812 8.042765646291732 0 -1 0
124 1 22.972805845560828 24.305503118991055 8.172914743331802 0 -1 0
106 1 2.1221218727996662 1.0760868896929043 10.710955081168727 0 0 0
229 1 2.3586336193562527 3.216549032404247 11.992383111416533 0 0 0
198 1 0.8631269624102491 2.8192923856652405 10.02628110197632 0 0 0
199 1 0.5871684629231968 1.5510781694355618 11.94101043539332 0 0 0
202 1 4.206134716494005 1.8651914436599202 11.956822595522556 0 0 0
134 1 2.5765351998678905 4.931024091850642 10.18014219279063 0 0 0
35 1 5.824173543868872 3.1353835007698065 8.236774627723513 0 0 0
133 1 4.066390810775896 3.228257088383859 10.212984359684786 0 0 0
110 1 5.827224077384642 1.9711328689821663 10.129083289329197 0 0 0
233 1 6.009952502117029 3.5118812046154826 12.116799978290814 0 0 0
206 1 7.531845645663963 1.705268684001639 12.204813003131537 0 0 0
137 1 7.804631211744887 3.193512059444615 10.364682682126354 0 0 0
112 1 10.79419001792628 1.534298667015446 9.082045879888007 0 0 0
114 1 9.004484323534063 1.1136959242554427 10.449378038815514 0 0 0
237 1 8.957455241057612 3.119749235182178 12.382084398476225 0 0 0
141 1 10.58083377714277 3.499441253629415 10.048905336156462 0 0 0
210 1 10.35591518027467 0.9862088474904046 12.124711831959948 0 0 0
1666 1 12.755105976097374 2.6765042468845 8.49910886236969 -1 2 0
241 1 12.330117427394406 3.145729862595997 12.17960106836792 0 0 0
118 1 12.29446577745675 1.5894347146287608 10.741027761855264 0 0 0
145 1 14.31428758850667 2.9149084964458867 10.363268375429799 0 0 0
214 1 14.5667453653104 1.419758818807353 12.005960915147185 0 0 0
245 1 16.625689072263015 3.384322738208471 11.751398989383425 0 0 0
117 1 16.758841262622497 1.3333710790991817 10.286356851355485 0 0 0
149 1 17.995826631583647 3.125061924566044 9.76346490138316 0 0 0
218 1 17.985236619198673 1.4664836572934647 12.143691570091013 0 0 0
120 1 19.78002860335279 1.5707748336810112 10.109048360445257 0 0 0
249 1 19.440094226475708 3.4494582298928513 11.84770952993086 0 0 0
3 1 23.178740747014295 1.4830004722815235 10.034553110605515 -1 0 0
222 1 21.704220141018972 1.7974539420281694 12.115455269719408 0 0 0
153 1 21.115603358965757 3.2876373791288525 9.916593505024906 0 0 0
251 1 23.813299057832424 3.383469514884334 11.973395735089476 0 0 0
185 1 0.5969408439163737 8.326665435942918 8.079895268063296 0 0 0
230 1 4.024206307423469 4.8332017910145435 12.333320635981728 0 0 0
257 1 2.4971810892469843 6.765977824693935 12.136329131291753 0 0 0
226 1 0.9211944900548954 5.30559391227586 11.83700694856278 0 0 0
157 1 0.6413774037815787 6.611498508402413 9.942007024418702 0 0 0
162 1 2.0568254069063325 8.330430473979526 10.047839891475089 0 0 0
161 1 4.202953124019015 6.768172273441763 10.288977358262358 0 0 0
254 1 0.7952933286300456 8.331736543957172 12.017793402283965 0 0 0
258 1 4.16285297716825 8.6768899952596 11.82250712326458 0 0 0
138 1 5.813969340139445 4.9820697138102945 10.046825218562859 0 0 0
261 1 5.910158826063666 6.882817290789608 12.220703423344737 0 0 0
234 1 7.379193908742117 5.170850773669822 12.213471571746318 0 0 0
165 1 7.303666842243773 7.0405975960663145 10.293583407069951 0 0 0
166 1 5.888533446404037 8.826645142408076 10.438755675497873 0 0 0
262 1 7.574045802834959 8.63494215198249 12.13649376052084 0 0 0
238 1 10.495884743799328 4.912372065215717 11.94492700424177 0 0 0
142 1 9.056795606944974 5.339491895111921 10.405254264751491 0 0 0
265 1 9.028355001067625 6.815368704933923 12.101129711140889 0 0 0
169 1 10.959052568444237 6.500631086896736 10.176082542247638 0 0 0
266 1 10.98180374828418 8.75797835351088 12.344556912293816 0 0 0
242 1 14.7736105361525 4.922308024414693 12.197001922055499 0 0 0
146 1 12.871330580299823 4.629436363500361 9.909986685581757 0 0 0
173 1 14.574667624668976 6.8413645558966385 10.403478043269661 0 0 0
177 1 15.898909427385338 4.574063545970029 9.921756287728762 0 0 0
269 1 12.636808902536556 6.3053741093836555 12.056474727355308 0 0 0
174 1 12.351346000045233 8.242594494808191 10.59167206492555 0 0 0
270 1 14.371734900419126 8.605997322462272 12.164468897086618 0 0 0
178 1 16.230044731659724 8.226507242108225 10.480543797782856 0 0 0
273 1 16.10568408967547 6.843446463923467 12.163630692637453 0 0 0
246 1 17.833724657203362 5.390782521306034 11.653046525240146 0 0 0
154 1 19.34479138966381 5.046729938427826 10.00030076589103 0 0 0
176 1 17.765440452649585 6.834067611805859 9.983845609715948 0 0 0
277 1 19.73864067005917 6.313322741509949 11.871087927423943 0 0 0
182 1 19.610890661644646 8.313506354317845 10.246275474014112 0 0 0
180 1 21.587443206859227 8.23170035103801 8.224175185811013 0 0 0
250 1 21.49822631144619 4.683767814581665 11.804828856760732 0 0 0
102 1 23.571667076964133 4.553796297715974 10.038306556790936 -1 0 0
181 1 21.623937631738315 6.375400866006804 10.14380454390376 0 0 0
158 1 23.427377273434296 6.431297001264342 11.869182068037976 -1 0 0
183 1 23.620894493245707 8.31179785851041 10.200907023119516 -1 0 0
283 1 2.1974546481741632 10.06206261254761 11.805080525184149 0 0 0
788 1 2.279295431098815 11.987692452943588 10.170904978805442 0 0 0
883 1 0.40522619668004556 11.657004173718017 12.234865823020193 0 0 0
184 1 0.6316041833762394 9.89318092863435 10.053727955623748 0 0 0
186 1 3.8071038984936236 10.253818870753584 9.991168998905323 0 0 0
885 1 4.05512366806191 11.459643137403004 11.995150639494241 0 0 0
285 1 5.986034184580451 10.560670834731985 12.224315559421669 0 0 0
188 1 7.927248408328168 9.792234363168514 10.140389720503265 0 0 0
790 1 5.9529464194687405 11.620027112971444 9.971499494678502 0 0 0
887 1 7.541279908526211 11.80588273488729 11.486221597211495 0 0 0
170 1 9.60303256733959 8.487758672755449 10.528739190241415 0 0 0
190 1 11.226975887334703 10.12192618382156 10.322932796918288 0 0 0
287 1 9.538980349546206 10.35173284193403 12.09693022381921 0 0 0
792 1 9.387296715031363 12.069836595925162 10.295207043323963 0 0 0
889 1 11.003191390911427 12.022348679972023 12.260412316092673 0 0 0
191 1 14.438931026994931 11.628362340419036 8.39075992836912 0 0 0
794 1 12.634008794060174 12.158559049879267 10.08485908408663 0 0 0
289 1 12.788100366876465 10.317263941738958 11.930552423857613 0 0 0
192 1 14.011387735059936 10.243614912287258 10.12129095995168 0 0 0
891 1 14.525571278268403 11.816974822735173 11.985110949669671 0 0 0
796 1 16.032087984270206 11.580794412213697 9.941935365511874 0 0 0
291 1 15.990401155210636 9.924377654822953 12.143454562739892 0 0 0
699 1 19.647911111709135 9.85139412069943 8.237936588721313 0 0 0
274 1 17.94942490556904 8.49935449964449 12.000316144414088 0 0 0
194 1 18.08095666922295 10.060964108906107 10.297626847235826 0 0 0
893 1 17.961857895352836 11.736361316600386 12.290170043227265 0 0 0
293 1 19.88638742287177 9.947675061098924 11.836033745771608 0 0 0
798 1 20.023995778802416 11.680247415935563 10.302475301692054 0 0 0
278 1 21.676296617432328 8.367378728358181 11.957262426974049 0 0 0
196 1 21.390824845791528 9.737057436192039 10.14594326367218 0 0 0
281 1 23.41399152062339 9.832543861114194 11.935531403597519 -1 0 0
895 1 21.561030486891447 11.810779282176757 12.340111247140863 0 0 0
786 1 23.13456896477021 11.441759950844455 10.47819354632028 -1 0 0
832 1 3.9523215119167436 15.093973847952 8.138158495756464 0 0 0
803 1 2.426329283341729 13.43520915172671 8.142836578124527 0 0 0
806 1 2.2637786425392754 15.019789084859463 10.196013447922883 0 0 0
901 1 2.3305241247398647 13.632994438661965 12.128928229231136 0 0 0
898 1 24.56949910558191 15.593381195561047 12.090636640981376 -1 0 0
785 1 0.5463323021389972 13.383664458597162 10.694738582127417 0 0 0
902 1 3.9047524566058964 15.112458257150294 12.53603161825621 0 0 0
805 1 3.8822684046274016 13.551105356430458 10.231975208172331 0 0 0
187 1 5.797011957693783 13.585864203311376 8.333440250639988 0 0 0
810 1 5.664620833311068 15.10038062186294 10.409481523944608 0 0 0
905 1 5.935434242677525 13.428966026209087 12.061273955783113 0 0 0
809 1 7.540162643034915 13.444789023591488 10.030597124757456 0 0 0
906 1 7.677692760757317 15.350563083860218 12.18183498882177 0 0 0
812 1 9.352331738638073 13.556307949414428 8.462184551553921 0 0 0
814 1 9.484640917707512 15.443721201621974 9.949548526035173 0 0 0
909 1 9.331092153958918 13.401675321364323 12.08813822170303 0 0 0
813 1 10.764923012437043 13.77959141894869 10.319975355815687 0 0 0
910 1 11.430642507682517 15.10494964419498 12.4497972575812 0 0 0
696 1 13.116803462539254 13.754708794595198 8.268477040948921 0 0 0
913 1 12.856937742563707 13.397628559104662 12.077988479825581 0 0 0
818 1 12.666272652713346 15.57816956374169 10.361060889631087 0 0 0
817 1 14.388234133882532 13.810712798828465 10.24064439455774 0 0 0
914 1 14.522190978589325 15.34015376968069 12.057267619193581 0 0 0
917 1 16.115024922587885 13.627006946814669 11.996666589614112 0 0 0
822 1 16.505375906206275 14.995452834170875 10.005838618208957 0 0 0
823 1 19.75461461844673 13.215636895368172 8.440579642861321 0 0 0
821 1 18.10785442167122 13.041462292410806 10.453310670237858 0 0 0
918 1 18.02844065354094 15.219120048067348 11.839565871611185 0 0 0
826 1 19.947858016004055 15.41692072473321 10.058699106351394 0 0 0
921 1 19.89734131935127 13.784739208539126 12.028302758211503 0 0 0
690 1 22.969380928413685 13.135289294465418 8.540168800799478 -1 0 0
801 1 23.519057652939196 15.630100810797446 10.158395434488938 -1 0 0
825 1 21.768290167409575 13.706144580108813 10.464838801291602 0 0 0
897 1 23.02130588818973 13.488236894450718 12.32915627125823 -1 0 0
922 1 21.36640529730345 15.514890122877958 11.918176519845687 0 0 0
827 1 0.7665674777954169 19.151180145616998 8.264966213348233 0 0 0
860 1 3.8954066200164115 18.766338064208895 8.48585955296997 0 0 0
829 1 0.771221292374331 17.57806933949496 10.223697621243984 0 0 0
929 1 2.5206295685452216 16.95483279687401 12.047526631562889 0 0 0
834 1 2.5171974289653543 18.894875865073473 10.427057226684393 0 0 0
926 1 0.770357851605352 18.816515864986414 11.917436042213673 0 0 0
930 1 4.4649503360327785 18.403365326663305 12.038732277953745 0 0 0
833 1 4.122784300521564 16.942312795734104 10.165553659193048 0 0 0
855 1 0.4816523827724399 20.715901225105043 10.413996622271032 0 0 0
933 1 5.838820106676221 16.613906980725822 12.454269570427432 0 0 0
837 1 7.605061313201213 17.12294546038264 10.364818380852824 0 0 0
838 1 5.805035043441107 18.476000716454017 10.134369210004824 0 0 0
934 1 7.267626244126205 18.452439898699602 12.26270129780055 0 0 0
961 1 5.928213342005071 20.244210081255815 11.995036909947515 0 0 0
868 1 11.115179172044954 18.61260824611972 8.33311470947567 0 0 0
839 1 9.14749612094579 17.096391023311043 8.209469504360985 0 0 0
841 1 10.940299979588854 17.299944865598967 10.404483248929068 0 0 0
937 1 9.606590570264997 16.820735766843477 12.124371737819432 0 0 0
842 1 9.389863796599109 18.795745373055702 10.225854332903113 0 0 0
938 1 10.940034933250615 19.144708187829693 12.215718725525143 0 0 0
869 1 11.20634361419735 20.67604956907529 10.392581486357825 0 0 0
965 1 8.732064651400576 20.438907594246878 12.139112193115615 0 0 0
774 1 14.603848152259356 18.98651197419607 8.846745190700497 0 0 0
941 1 12.755260396865134 17.069456865374498 12.182798116221182 0 0 0
845 1 14.632611399093653 16.978593176865296 10.035530420808676 0 0 0
846 1 12.705690790120112 18.544449389751385 10.263011839961006 0 0 0
942 1 14.39202464774882 18.3981967263286 11.853672213074493 0 0 0
850 1 16.275326939162028 18.86217650422261 10.723464678767595 0 0 0
945 1 16.26730227911854 16.496694012784445 12.24314104965834 0 0 0
969 1 12.800617342221006 20.488090431143654 12.0919364995948 0 0 0