LAMMPS data file via write_data, version 29 Oct 2020, timestep = 150000

2016 atoms
1 atom types

-0.164696048698719 21.428696048698786 xlo xhi
-0.164696048698719 21.428696048698786 ylo yhi
-0.3842907802945845 50.000290780293085 zlo zhi

Masses

1 58.933

Atoms # atomic

3 1 1.655381727121487 0.2598973590802138 1.6670518649669863 0 0 0
149 1 3.531122200705118 0.39455922087551165 3.1841321045086737 0 0 0
8 1 3.5225660622513852 1.988206247160217 1.3548649485075501 0 0 0
4 1 -0.12331142385240479 2.3341467908556464 1.4600279559681602 0 0 0
173 1 3.588949989252622 4.051933606170405 3.542799912824209 0 0 0
169 1 0.45817530834057196 3.932861706816791 3.2668351480842577 0 0 0
145 1 -0.08330723483375323 -0.011685826591292997 3.4200109667969154 0 0 0
146 1 1.569769076007397 1.997096458307082 3.3065841578539095 0 0 0
27 1 2.2790464047896863 3.6716956044235607 1.4753590008082167 0 0 0
1 1 21.35632910912239 0.3902945584036478 -0.20984142582175208 -1 0 0
573 1 18.089042390477314 18.332119809323387 10.621544789479065 0 0 0
45 1 18.070480137330765 4.06934806656258 -0.06448857711549966 0 0 0
12 1 7.2872609365134835 2.28312216357746 1.1143889588928388 0 0 0
7 1 5.505082192618611 0.12114428948159739 1.6819657495951827 0 0 0
153 1 7.152231889914292 0.022082150855572413 3.497574998343222 0 0 0
150 1 5.349507504839279 2.111252436470387 3.0271367716413997 0 0 0
177 1 6.837678530896928 3.9753467628419683 2.9549266769613216 0 0 0
31 1 5.451525977532364 3.8089483782730253 1.279661790094643 0 0 0
137 1 14.505512457308296 18.539083810808545 0.017253084510112204 0 0 0
503 1 19.70293694013793 18.276336496711757 8.904965009256346 0 0 0
1161 1 0.11208829865462733 14.520813574278257 -0.11026615819401053 3 0 1
11 1 9.046657755907182 0.5155332588533971 1.6637217457708369 0 0 0
16 1 10.961244199758085 2.1231978899601467 1.4330325201405951 0 0 0
158 1 12.394753011095412 1.9595829905245616 3.4433340388864324 0 0 0
35 1 8.769321228640399 3.681412074591094 1.5551735385853682 0 0 0
157 1 10.675439874960976 0.34387468794843234 3.350535120524814 0 0 0
154 1 9.190597762834145 2.04640841646244 3.230260847311147 0 0 0
15 1 12.6379232444469 0.18927430825480251 1.4411896364210253 0 0 0
181 1 10.654938804967033 4.1925834045908825 3.35162226893904 0 0 0
39 1 12.925710890260962 4.136112132546098 1.6525737101883524 0 0 0
25 1 0.08068240747752456 3.9085297170365383 -0.17096652304243073 0 0 0
42 1 17.758253967346107 7.778521740062178 -0.198315975616848 0 0 0
116 1 12.58123760653088 16.073244742976133 0.01755852025520288 0 0 0
19 1 14.603473429363827 2.3402305086737583 1.7922848479459432 0 0 0
286 1 15.95908997730502 0.3661444692412029 1.7317675277304354 0 1 0
162 1 16.510454536836317 1.934755491593509 3.3258677336102163 0 0 0
161 1 14.236394647717963 0.7230036889540593 3.2481387282852916 0 0 0
20 1 14.499670949167843 3.840137017360088 3.3833938847242413 0 0 0
43 1 16.49960804779058 3.8115424282495165 1.7852559950275535 0 0 0
106 1 9.033403788915816 16.466228735655264 -0.35513146545405044 0 0 0
24 1 18.211042996594834 1.9978442388761914 1.764318909368003 0 0 0
165 1 17.782695980499657 -0.07810239932164585 3.404782864244927 0 0 0
23 1 19.725379119968835 0.10484576014825386 1.7079937909625245 0 0 0
166 1 20.12762143460914 1.9807100269304065 3.2742480391115674 0 0 0
432 1 18.261893437180362 20.226291417987287 8.855194880357068 0 0 0
189 1 17.913199478774278 4.020430443152937 3.443758959318707 0 0 0
47 1 19.790854204918706 4.172764315466728 1.974970067240697 0 0 0
105 1 7.2343924996029845 14.665195109187055 -0.14518685478854945 0 0 0
194 1 1.7340114367357613 7.66463149278822 1.6382158382043661 0 0 0
26 1 3.3647470923716303 5.8300907423507 1.2886613814510068 0 0 0
197 1 3.4399523598950674 7.594842699663297 3.0376946454880516 0 0 0
170 1 1.9063903172573737 5.726781120882965 3.013529757794994 0 0 0
28 1 21.42084993211403 5.939274901173902 1.5883244866148438 -1 0 0
71 1 -0.06988650757031459 7.579347618397102 3.075095280478057 1 0 0
504 1 20.17193284327941 20.390799422232988 10.566615205285254 0 0 0
428 1 14.367380001873274 20.241932470869063 8.882878568448152 0 0 0
1074 1 1.9756613903629012 9.209948860212842 -0.33527212983455024 0 -2 1
36 1 7.346835322948724 5.765811489537515 1.5766926168720932 0 0 0
55 1 5.557416991612683 7.340849819160836 1.6050166526159997 0 0 0
32 1 5.6187689123622 5.894018608984419 3.4751621703946296 0 0 0
201 1 7.284955629478444 7.664603513611593 3.5117082250698726 0 0 0
178 1 9.049014139686063 5.920117925466069 3.420340007274986 0 0 0
59 1 8.998888709008684 7.793044627742998 1.7181441344145223 0 0 0
40 1 10.973974888471748 6.080187858386648 1.6426679111993372 0 0 0
182 1 12.65325976854952 5.593174515939556 3.308597289875088 0 0 0
63 1 12.613357192072638 7.561211077744776 1.585876234931875 0 0 0
502 1 16.123290190861812 20.528172940021776 10.879407367500638 0 0 0
78 1 4.936753633618818 13.042309827369849 -0.28013204273562264 0 0 0
205 1 10.847500558863569 7.477207699346682 3.4867262411199462 0 0 0
51 1 3.8161642532546827 7.631547655254293 -0.269195730969464 0 0 0
130 1 9.073248436643974 20.42010219422057 -0.3596579772897854 0 0 0
44 1 14.249553318575654 5.761081784317337 1.6895009212246905 0 0 0
67 1 16.010195255560856 7.60610725844298 1.6403778936062614 0 0 0
186 1 15.96042804359017 5.668673365594768 3.438399280774805 0 0 0
185 1 14.457543727486597 7.599090829978822 3.598448017270036 0 0 0
86 1 12.45323369064597 13.023170118298049 -0.05727734272792773 0 0 0
69 1 19.366210819238926 7.467703324002345 1.7311744148078798 0 0 0
48 1 17.923576862778482 5.661936314144154 1.7977641369184165 0 0 0
213 1 17.600889670203205 7.3904879087217035 3.334454470271433 0 0 0
190 1 19.707627946667976 5.82576171475486 3.8016318775684903 0 0 0
1734 1 1.5978862287811955 2.0695875139482873 -0.13332123829489317 -1 4 1
56 1 4.086469536694097 9.16998106559951 1.6223485187718163 0 0 0
50 1 2.0266969377540502 10.875236786092469 1.4348825664331328 0 0 0
193 1 1.686174255444652 9.242522917753586 3.270506906264124 0 0 0
221 1 3.7075911475871512 10.972047838286553 3.4324754167569798 0 0 0
52 1 20.99851852916242 9.31310891599404 1.6065840584864786 -1 0 0
70 1 19.73303784394566 9.147741814992523 -0.29809990468712183 0 0 0
217 1 0.39563545004761713 11.166249820699303 3.202087801611386 0 0 0
501 1 14.723839337112592 18.7605335105275 10.94233304149629 0 0 0
60 1 7.356935918217107 9.409587256365755 1.588031074124349 0 0 0
79 1 5.428072877255913 11.10590398125283 1.80367947322706 0 0 0
198 1 5.799810407362516 9.471206666117027 3.500944060565324 0 0 0
225 1 7.2563353845477705 11.602349608619033 3.600253567115741 0 0 0
222 1 5.288310784511958 13.36552751061535 3.741051072835652 0 0 0
84 1 7.141199561569567 12.80553169853454 1.4226348926047618 0 0 0
427 1 16.117282936276123 18.60989749279017 8.874252739936434 0 0 0
61 1 10.760230018337994 7.640826014102394 -0.14549303707629152 0 0 0
68 1 12.544642190148561 9.111696758242772 -0.35416074934268843 0 0 0
64 1 10.516760147254994 9.4208493860233 1.6450726803552462 0 0 0
83 1 8.941590694923956 11.1110787182292 1.6313092851698223 0 0 0
229 1 11.015405116947013 10.877187039651565 3.330682236089444 0 0 0
202 1 9.239211647607728 9.619665150891853 3.4736152716917075 0 0 0
206 1 12.418829599699437 9.09767155270519 3.3187653789102414 0 0 0
87 1 12.791517933009045 11.165613895904272 1.449143373250769 0 0 0
33 1 7.556073371923927 4.319560989195252 -0.15733522235728523 0 0 0
209 1 14.550298947590212 9.163906551314373 1.2188424036309173 0 0 0
91 1 16.16495164542172 10.541999285944796 1.6043921014393356 0 0 0
210 1 16.062888056103567 9.231604994466126 3.6035269066979847 0 0 0
233 1 14.406870800044059 11.069431097208373 3.082049852136227 0 0 0
500 1 12.540361073899012 20.40482561865764 10.452859769570887 0 0 0
9 1 7.178148680587564 0.5237642671285757 -0.2648824500304593 0 0 0
93 1 18.119678111588915 10.794048940591793 -0.17641338807989523 0 0 0
102 1 5.61538507544253 16.708211780706534 -0.1942489064440419 0 0 0
72 1 18.159919972859782 9.371065723610231 1.7783167431023568 0 0 0
95 1 19.70426933746136 11.201595782187143 2.096073831296751 0 0 0
214 1 19.45381687556387 9.07928921010904 3.4787628562359543 0 0 0
237 1 17.773673275771504 11.027259787409236 3.757718124670191 0 0 0
498 1 9.08251163557392 20.15197712587895 10.61080087669335 0 0 0
76 1 0.010474854602985473 12.752509993798734 1.272356033505257 0 0 0
218 1 1.8127112403893675 12.96601660959418 3.514957635849561 0 0 0
80 1 3.4500438469194887 13.305119046026544 1.7171605451530856 0 0 0
99 1 1.7384613582830817 15.268310495598092 1.6464614871964502 0 0 0
104 1 3.6489841456002776 16.584431412696986 1.3698077030399411 0 0 0
245 1 3.508671145688068 15.0691011701769 3.3984111054660606 0 0 0
242 1 1.7954598910336406 16.812400501622367 3.4669085983625334 0 0 0
100 1 21.274397170303278 16.77422869039679 1.5381775476237205 -1 0 0
241 1 0.1690557740865241 14.770926763706271 3.5334500575287957 0 0 0
141 1 17.95954522847684 18.236252834981187 -0.2772299729773818 0 0 0
424 1 10.990885203910276 20.278954451557837 8.618485292766021 0 0 0
103 1 5.619709357568563 14.605387280076648 1.6403372399751581 0 0 0
108 1 7.234756486268944 16.45756276981847 1.4865188445974518 0 0 0
246 1 5.500343887756152 16.76348389920931 2.993919062113621 0 0 0
249 1 7.269086045227729 14.408284799884234 3.224704767964794 0 0 0
129 1 7.313229375626551 18.636768585894767 -0.32645741678370904 0 0 0
101 1 3.3034118745676624 15.079479791285502 -0.15050308349295857 0 0 0
226 1 9.29477858653359 12.891152405866348 3.381976576298446 0 0 0
107 1 8.949171672309232 14.618651431955863 1.4467135636015824 0 0 0
88 1 10.855690975601943 12.79101059392069 1.733772780841453 0 0 0
112 1 10.852316452045198 16.50034878444673 1.673931273058367 0 0 0
250 1 9.160085417729466 16.526835155657317 3.194908825645668 0 0 0
253 1 10.869603772860975 14.706235286983729 3.3080479539101963 0 0 0
111 1 12.54611069607945 14.65171231001648 1.866390916494629 0 0 0
230 1 12.38037831157876 12.774458426032654 3.6117910378429445 0 0 0
254 1 12.475801784482332 16.30513526927267 3.6109476750280094 0 0 0
82 1 9.219100516272615 12.779912482582464 -0.1400801784695004 0 0 0
92 1 14.513909409621476 12.793210278099556 1.434683591107545 0 0 0
115 1 16.02471559020152 14.735814219047002 1.4448054683688658 0 0 0
114 1 14.504044075574711 16.22522877622102 1.490781362630065 0 0 0
258 1 16.143380465841723 16.072259630277276 3.5143667470692073 0 0 0
257 1 14.403584283085289 14.399330576560482 3.1032649902273786 0 0 0
77 1 3.9069811663440177 10.934835897997422 -0.07610505293714359 0 0 0
118 1 19.893335833538245 16.176335986303865 -0.23548999206694077 0 0 0
73 1 0.24904184820953157 10.849812082285702 -0.1561596844654278 0 0 0
142 1 19.503309790354958 20.243073097012537 -0.2672115326929245 0 0 0
96 1 18.205999534658297 12.739177212148839 1.6472589150608061 0 0 0
238 1 20.151977770770436 13.056842101329183 3.4796197959048807 0 0 0
119 1 20.11678205139999 14.432599132504688 1.669055764081592 0 0 0
120 1 18.065766840686567 16.172023199062444 1.8477071896743067 0 0 0
261 1 18.05814788315575 14.41000037322521 3.8217123910103714 0 0 0
262 1 20.026555464509727 16.461476390731306 3.425388021475929 0 0 0
46 1 19.49338773796933 6.175190915692996 -0.37106352363541517 0 0 0
123 1 1.5674704258078178 18.356191220278696 1.388829843606907 0 0 0
128 1 3.6886197647238674 20.30336838370932 1.350012130256054 0 0 0
269 1 3.7096731898166877 18.495561261183802 2.82411800022178 0 0 0
124 1 21.189883825601825 20.090806037182848 1.4107866555921207 -1 0 0
265 1 -0.10965961928151202 18.444925272579315 3.2429695477156324 0 0 0
266 1 1.606792300229386 19.836600774983445 3.076877436718458 0 0 0
122 1 21.21667641262492 18.3010488202283 -0.2582379148491031 -1 0 0
125 1 1.6671484540939452 20.061982739881753 -0.15320973031067098 0 0 0
127 1 5.798670736687073 18.30685655988254 1.4196450322595162 0 0 0
132 1 7.408791186212593 20.078889882615872 1.3102925219925952 0 0 0
270 1 5.53776034092023 20.021940947765355 3.26318547614071 0 0 0
273 1 7.104773486921561 18.38400992356758 3.3894779307454663 0 0 0
423 1 12.673608139135647 18.696266130855253 8.758835176000359 0 0 0
22 1 19.80765511488342 2.192610094751122 0.04199681680797568 0 0 0
274 1 9.095982382381765 20.05310606539434 3.1921111667319457 0 0 0
131 1 9.1844879800867 18.59573628227318 1.1239418537265395 0 0 0
136 1 10.786956653289328 20.177985612487525 1.6276015327302842 0 0 0
277 1 11.154762161779455 18.28024662268233 3.292138886728306 0 0 0
135 1 13.059079932780357 18.546885299748766 1.772041684724563 0 0 0
278 1 12.896966449134903 19.965289498183356 3.276615720684003 0 0 0
419 1 8.99541976784448 18.82580780780919 8.74759234172766 0 0 0
139 1 15.888521709424687 18.199954946472623 1.7602417823485461 0 0 0
140 1 14.537510432216486 20.26147334982698 1.3658004303297522 0 0 0
282 1 15.921786281040848 20.192741164059644 3.314340648346133 0 0 0
281 1 14.652248911690489 18.044746128134875 3.5624824575724023 0 0 0
1378 1 16.092896931383162 5.653213078019892 0.013084839883051369 1 1 1
1672 1 16.240935742271894 2.1735052150285163 -0.3486278320659358 0 4 1
143 1 19.63456189860796 18.55220858423627 1.4985441974975637 0 0 0
144 1 17.765239177454834 20.55546348116801 1.171214782877994 0 0 0
287 1 19.64975832635231 20.01910272743752 3.2943969459655773 0 0 0
285 1 17.75035640051788 18.647097139681325 3.3220423419159597 0 0 0
1642 1 3.980598406263966 18.23117056889384 -0.11924177104070632 2 4 1
290 1 2.0846780421248474 2.537613627486284 7.312446931780551 0 0 0
293 1 3.4642261812371147 0.37589117218570545 6.893383769844969 0 0 0
147 1 2.074620604393112 21.070809757532608 4.964961261288086 0 -1 0
152 1 3.2615395061166526 1.8158028683645882 5.012881153678647 0 0 0
148 1 0.2775439612562084 1.7424035580480322 5.307139134266803 0 0 0
171 1 1.7578811640649878 3.6074917733870593 5.276617814354562 0 0 0
317 1 3.5619707380374526 4.200168665616074 6.830878350979616 0 0 0
156 1 6.964825655134376 2.054935371973295 5.155176600555744 0 0 0
294 1 5.036043758811318 2.112994912044235 7.208787942662678 0 0 0
297 1 7.060950212222867 0.30068721050885355 6.9599058025656415 0 0 0
151 1 5.212415162231249 0.3038852953517468 4.901988761225256 0 0 0
175 1 5.1697162657905285 3.7974971266595188 5.078370228336714 0 0 0
321 1 6.8424153769684075 3.6561992960532446 6.81348011981435 0 0 0
298 1 8.930173780462153 2.075228728103924 6.734690724924697 0 0 0
160 1 10.856284328043877 2.555298363406391 5.026254657785979 0 0 0
301 1 11.179812362447311 0.7240643094010629 7.0385694878320475 0 0 0
155 1 9.138442227091307 0.40461014361864556 5.077011871644671 0 0 0
159 1 12.844432729415477 0.7079661757775634 5.288650015946936 0 0 0
302 1 12.67056656301528 2.372351696679429 7.068177409686761 0 0 0
183 1 12.616495712747362 3.827463999381038 5.357093735177262 0 0 0
179 1 8.921840190107774 3.9085206434672353 5.343394886224455 0 0 0
325 1 10.591958624239313 3.972931637464411 7.261199414218248 0 0 0
164 1 14.569402316147686 2.7293097791102423 5.420543673318008 0 0 0
306 1 16.31571851329672 2.3929837260847964 7.409424980924701 0 0 0
305 1 14.277452160803564 0.5163102062731708 7.277704180151252 0 0 0
163 1 15.671581613696777 0.5105033887026246 5.557933890632066 0 0 0
329 1 14.399428408872248 4.111458809987097 7.107714666620358 0 0 0
289 1 -0.10832589234775988 0.5555651809191205 7.1672281789568855 0 0 0
168 1 18.189705652957908 2.2149664303752057 5.086748097122597 0 0 0
310 1 19.749886580686137 2.4976438247158543 7.131323481029765 0 0 0
309 1 17.81107260986671 0.5707684243150519 7.1642092669258854 0 0 0
333 1 18.0407570065808 4.151720364351134 7.2273562256809 0 0 0
167 1 19.643510070757138 0.277924609517847 5.250915873617703 0 0 0
191 1 20.305807004005494 3.775336234668898 4.928001784421642 0 0 0
313 1 0.4664231473177336 4.342359357625352 7.10907693472352 0 0 0
176 1 3.685014024681954 6.0838793474628 4.889898207710948 0 0 0
195 1 1.8862915695920872 7.499793890298472 4.814751733516547 0 0 0
314 1 1.9782965037326665 6.0382182298902825 6.719916958338607 0 0 0
341 1 3.746729123561974 7.758330741140498 6.8218187952075615 0 0 0
172 1 0.379188522898376 5.926362065643712 4.852815321609056 0 0 0
337 1 0.16618422436499847 7.34546340737112 6.66346172360038 0 0 0
174 1 7.015875697181825 5.685739425070442 5.1681600574113835 0 0 0
199 1 5.415936240833464 7.7010100569943605 5.100713396476548 0 0 0
318 1 5.37219466292827 6.0036607734208065 7.106137765524237 0 0 0
345 1 7.120791544676035 7.504841253249992 6.644135540896042 0 0 0
180 1 8.798594958861555 6.113773094143686 7.149653262889848 0 0 0
184 1 10.684971751131908 5.580393665859163 5.5789632738933985 0 0 0
349 1 10.587569425278808 7.358310139439087 7.118645513918427 0 0 0
203 1 8.87840008211484 7.481486907016269 5.122614771781856 0 0 0
207 1 12.56250030275484 7.353472740870485 4.944072216091984 0 0 0
187 1 16.25420479740358 4.204385488995271 5.377664746346709 0 0 0
326 1 12.767462512169235 6.023220860914589 6.997228947421781 0 0 0
188 1 14.221261513096222 5.662140264303713 5.277637778045415 0 0 0
353 1 14.482320587446138 7.502813953668077 6.875290389897374 0 0 0
211 1 16.125289058639442 7.704895556135372 5.498606765982682 0 0 0
330 1 16.24578835762265 5.928775704596914 7.156456071384168 0 0 0
192 1 17.87587055903439 5.623898416345942 5.345903346908124 0 0 0
357 1 18.436414882769178 7.308690524007996 6.942775808001097 0 0 0
215 1 19.786511719196763 7.4012767858286 5.181085106649079 0 0 0
334 1 20.137526168882648 5.345678837044175 6.481470455087207 0 0 0
338 1 1.910877898948156 9.070686168478852 6.689861284492461 0 0 0
200 1 3.444712195751314 9.326475171991557 4.8564486829447775 0 0 0
219 1 1.7382709080673269 11.148748593690248 5.130020497639501 0 0 0
365 1 3.338285484596332 11.34839842297866 6.644717782412982 0 0 0
196 1 21.391357575230934 9.192921234671612 4.728585664960343 -1 0 0
361 1 0.09452578534963635 11.183862019623474 6.747640215408222 0 0 0
220 1 0.0007680850959250196 12.989425139781906 5.3993419648670224 0 0 0
342 1 5.333936155039197 9.479246396949733 6.674319166414728 0 0 0
204 1 7.224722300209571 9.531473627901516 4.96153432644928 0 0 0
223 1 5.504401176116864 11.430537215981671 4.920685358511747 0 0 0
369 1 7.066523082752021 11.264563026028476 6.904046445277494 0 0 0
228 1 7.0954280338109905 13.149819521478301 5.550688340265761 0 0 0
227 1 9.020289922746358 11.327577377120594 5.229276210004409 0 0 0
346 1 8.797118580358115 9.249058521305567 6.59080846304984 0 0 0
208 1 10.973367285245011 9.085288021635371 5.472058079374762 0 0 0
373 1 10.671742464143776 11.085403375087877 6.8912592136490005 0 0 0
231 1 12.441769069615404 11.058092717406911 5.1129988919795455 0 0 0
350 1 12.495607044233477 9.104207016630312 7.327796658521432 0 0 0
234 1 16.189363600289727 12.909540584569438 3.2138381656897597 0 0 0
212 1 14.252096048561375 9.464323548692798 5.299655858327298 0 0 0
354 1 16.229578598584723 9.223155185848276 7.09027328286807 0 0 0
377 1 14.438367917837342 11.189738437942536 7.203834698614166 0 0 0
235 1 15.811246783344181 11.023580590957565 5.4460136588492905 0 0 0
236 1 14.258384710948725 12.819713911031117 5.238947429376929 0 0 0
216 1 17.91338367013955 9.30115514253133 5.485643622318246 0 0 0
381 1 17.470611710634962 11.348715018068905 6.9050590940871714 0 0 0
239 1 19.957757583166394 11.341369028594798 4.8115735799176145 0 0 0
358 1 19.96551067918464 9.39336959220043 6.677513115497077 0 0 0
240 1 17.993285962294973 12.91546553618417 5.305409353513391 0 0 0
362 1 1.8775072777560147 13.030702746439363 6.924263962247474 0 0 0
224 1 3.639545794390845 13.122062018877575 5.409534030175694 0 0 0
243 1 1.743941013686657 14.699942831418578 5.301641288697649 0 0 0
248 1 3.746426926363782 16.93523118607769 4.87987430376942 0 0 0
389 1 3.4597221374812577 15.212422525777589 6.735489405560055 0 0 0
386 1 1.8347575014668942 16.821584338997468 6.790719213932988 0 0 0
385 1 -0.019696355395097204 14.911722689035916 6.880696528816719 0 0 0
366 1 5.399119634351408 13.167943496484524 6.978920370817987 0 0 0
247 1 5.365233353281912 15.255827028441779 4.959192478727593 0 0 0
393 1 6.784038448563616 15.091627370415013 6.992122058046493 0 0 0
252 1 7.470173864206678 16.55663395747068 5.173657992155954 0 0 0
390 1 5.147999696605783 16.74118392358454 7.015456773209843 0 0 0
370 1 9.109479799894602 13.327599710293079 6.777868305090217 0 0 0
374 1 12.594784663110813 12.990234390002392 7.112186189948314 0 0 0
232 1 10.951029297228168 12.998505809969032 5.125527086362381 0 0 0
251 1 8.98489928471042 14.707812461070992 4.950466788568531 0 0 0
394 1 8.808382882815822 16.600256273344648 6.993083381619229 0 0 0
397 1 10.798577952210723 14.879443032348984 6.739065326971979 0 0 0
256 1 10.645445361172513 16.510594175504384 5.161001521108004 0 0 0
255 1 12.94755797326069 14.848755902626321 5.497308605756038 0 0 0
398 1 12.884910519457115 17.00558258513919 6.916785838122453 0 0 0
378 1 16.198292636057083 13.14407303977887 7.027008425440852 0 0 0
401 1 14.416293246850936 14.894217402015885 7.460089012054498 0 0 0
259 1 16.081473290013545 14.535341743855398 5.193228690399424 0 0 0
260 1 14.781792576565447 16.55885469732001 5.405849989650197 0 0 0
402 1 16.303280114304854 16.659484993675225 7.065620176733009 0 0 0
244 1 0.18571510443470718 16.727906919140047 4.993111601502622 0 0 0
382 1 19.717006970005784 12.946701671796312 7.0274723893319635 0 0 0
405 1 18.221221541600123 14.812567560557884 6.78515406048174 0 0 0
263 1 19.907397568932105 14.935058548611723 5.184238646890003 0 0 0
406 1 19.724035854996377 16.890602957438325 6.553930134747091 0 0 0
264 1 18.070742049321836 16.568835457296867 4.895823648900297 0 0 0
267 1 1.874517042666648 18.595879412935226 5.0195421728237175 0 0 0
413 1 3.4577198186109093 18.94412805713584 7.0654763166668015 0 0 0
410 1 1.6579559544957634 20.35157207283278 7.421778645306328 0 0 0
268 1 0.08799760149464253 20.239599257006464 5.367082667441253 0 0 0
272 1 3.9973038097768017 19.680154046825873 5.084931002449002 0 0 0
271 1 5.6581323112707995 18.017057612831778 5.354355337453824 0 0 0
417 1 6.966757564295887 18.22188435095203 7.267374472335882 0 0 0
276 1 7.352382048984789 19.984683152227863 5.13709551092123 0 0 0
414 1 5.399722623135084 20.188743167220228 6.807981804914538 0 0 0
275 1 9.16160189526122 18.54235295094468 5.289025042138809 0 0 0
418 1 9.051227211220175 20.549076709891377 6.996842221682242 0 0 0
421 1 10.94949712343669 18.106416597327204 6.996976017390948 0 0 0
280 1 10.728923851406996 20.252170817587537 5.1648057476695985 0 0 0
279 1 12.547166302010714 18.506225601163084 5.092305087817705 0 0 0
422 1 12.880169687453641 20.363768310888066 6.837429417684608 0 0 0
283 1 16.281212805488327 18.269390401326987 5.280427048384953 0 0 0
425 1 14.556676344984313 18.517666590844733 6.819625353904352 0 0 0
284 1 14.557120575188934 20.321423160344345 4.941069812385645 0 0 0
426 1 15.886984809530627 20.13186204317679 7.1702922935697035 0 0 0
431 1 0.058275863973805464 18.364804659568144 6.491223751958476 1 0 0
409 1 19.776371336060087 18.41201223495557 4.931258856380044 -1 0 0
429 1 17.797617327414237 18.17309084911418 6.952933589609383 0 0 0
288 1 17.695756708681888 20.328534433553212 5.375404162717494 0 0 0
430 1 19.770579248412737 20.13012987840136 6.867628117616799 0 0 0
291 1 1.8512208922411637 0.5127040015982436 8.76681176979427 0 0 0
296 1 3.636488790021374 1.8489916966544642 9.275025619189877 0 0 0
434 1 2.2781083425377795 2.9763377754193145 10.757680198024026 0 0 0
435 1 3.694541670802653 0.4375244665022554 11.171776831347412 0 0 0
315 1 2.2243570500255054 4.3045884188641965 8.881143571614581 0 0 0
445 1 0.24311775089610882 4.218500612212425 10.299172947752254 0 0 0
292 1 0.22359047063044246 2.477144693533693 8.683588569130505 0 0 0
437 1 7.209454201935294 0.1480407492149558 10.607314504530857 0 0 0
295 1 5.336362551657537 0.27647334499495285 8.493455622414787 0 0 0
300 1 7.248719379108403 2.149365645297959 8.557927074526878 0 0 0
436 1 5.649297352651366 1.9377183647459693 10.664174880161905 0 0 0
449 1 6.887323629904266 4.090470220973596 10.46580164251304 0 0 0
319 1 5.12264465147661 3.701887637284915 9.099182375815806 0 0 0
499 1 11.101282072681151 18.628132631348134 10.428467116105509 0 0 0
304 1 10.855874607105392 2.3772678826192735 8.856846001447453 0 0 0
438 1 8.656089253909483 2.332766985168306 10.753611676260203 0 0 0
439 1 10.403686508716998 0.47690944794096257 10.581954267053012 0 0 0
299 1 8.926411332825898 0.5389658635632228 8.72935635908992 0 0 0
440 1 12.484813907957502 2.2282717877207183 10.870540176516386 0 0 0
303 1 12.83296515602815 0.4950201464061853 9.024912063710405 0 0 0
323 1 8.821917244696971 4.078982219769279 8.831255759654997 0 0 0
327 1 12.421288049653281 4.047226806232434 8.997297284459298 0 0 0
451 1 10.452365349854656 3.633430346255395 11.020510965048613 0 0 0
420 1 7.075464245738083 20.245998512295056 8.677677964540967 0 0 0
441 1 14.34778861336244 0.2622756764335071 10.830893176766505 0 0 0
307 1 15.979546577296311 0.40762381334948206 9.144997103125737 0 0 0
308 1 14.209292519359238 2.4190368123757713 8.749290013550118 0 0 0
442 1 16.28038592145473 2.1770795933184695 10.77720981442378 0 0 0
452 1 14.239602470021744 3.820620883880874 10.688920772534928 0 0 0
331 1 16.460398898627677 3.8938892096105233 9.04395656569908 0 0 0
433 1 0.23581187866621228 0.8358199601370373 10.721091441379372 0 0 0
443 1 18.20441374258686 0.39576011321869775 10.61347131427023 0 0 0
311 1 19.80848967271897 0.5219389238215757 8.816999263784725 0 0 0
312 1 18.327410526002144 2.489395096588648 9.06765890681248 0 0 0
444 1 20.198328950553147 2.4514065900066897 10.708908923195795 0 0 0
335 1 20.15799492946199 4.374413416987682 8.829568423042517 0 0 0
447 1 4.220705607302619 4.217828948064118 10.85541690238223 0 0 0
320 1 3.959579622087407 5.871921808825577 8.97930454404232 0 0 0
339 1 2.2896276798249633 7.371745351893059 8.64295062743896 0 0 0
446 1 2.2316828802235498 5.937254225891564 10.668219401279199 0 0 0
459 1 3.5877423200476874 7.81894835257866 10.490241046620028 0 0 0
316 1 0.3665365830122371 6.1867224529836635 8.896740861218824 0 0 0
550 1 14.417588468870798 13.297772350112256 11.806554502245831 0 0 0
343 1 5.361525920148539 7.919888860251097 8.861171583097551 0 0 0
324 1 7.310157802431588 6.243152999530068 9.05437536584864 0 0 0
448 1 5.435436205509078 6.0252880715703 10.644103772595672 0 0 0
461 1 7.275425388455426 7.786770077883518 10.840068824381376 0 0 0
347 1 9.229736890932838 7.543179162722626 9.08089354036852 0 0 0
322 1 10.654467176407133 5.650149466013807 8.923685228273666 0 0 0
450 1 9.04193252876411 5.648119196669986 10.650899008178285 0 0 0
463 1 11.096650223812706 7.87898997980083 10.893980448418116 0 0 0
351 1 12.64215116117121 7.244730261230145 8.927609920742894 0 0 0
328 1 12.5398695778173 5.687433698448924 10.739443747952807 0 0 0
332 1 14.339032218992942 5.6922473705968635 9.08606719524986 0 0 0
465 1 14.14984142944329 7.493432920288272 10.499057502490553 0 0 0
355 1 16.001069559291924 7.147642052891324 8.993175306302362 0 0 0
454 1 16.169516935292293 5.725747546991726 10.746024493614629 0 0 0
455 1 18.0953322717189 4.279353309416512 10.7309239648873 0 0 0
457 1 0.45137236534191627 8.138918205583707 10.619663883091318 0 0 0
359 1 19.96147959381823 7.760789551287724 8.88650685099056 0 0 0
336 1 18.173773429947865 5.921754824038297 8.888393205801012 0 0 0
467 1 17.957996206078853 7.738213577329613 10.694573746997925 0 0 0
456 1 20.397989189323347 6.270105713518086 10.857352826109814 0 0 0
496 1 5.431081888005178 20.045926154466297 10.54581377466581 0 0 0
458 1 2.258399820809857 9.610873302269074 10.172215665777754 0 0 0
344 1 3.454464422889663 9.621394610878156 8.275547239173825 0 0 0
363 1 1.9113837351616416 11.246462950279728 8.69005569935058 0 0 0
471 1 3.4820149392973856 11.397562988130707 10.47126095863576 0 0 0
340 1 0.23757090073621767 9.346833611550421 8.500938834524218 0 0 0
469 1 21.40598854906303 11.296480556287001 10.227285314743147 -1 0 0
415 1 5.007432387775135 18.43136350933888 8.753040218504179 0 0 0
348 1 7.293966094024471 9.263373597706055 8.54020922207765 0 0 0
460 1 5.724315552877482 9.427188173348943 10.525644620539966 0 0 0
367 1 5.223126470694758 11.205987484078793 8.431139552362236 0 0 0
473 1 7.266664516746809 11.487467280404134 10.404769849415182 0 0 0
371 1 8.902033442094414 11.497564354001419 8.673860835924824 0 0 0
462 1 8.928432711517159 9.43465892456722 10.605056153956498 0 0 0
352 1 10.6975240637211 9.263727695428074 8.744147369408193 0 0 0
475 1 10.951653099351123 11.098395034431114 10.441935814371899 0 0 0
375 1 12.846556361084463 10.983596650040935 8.879954972113483 0 0 0
464 1 12.588682436305316 9.333479770536778 10.49426868208756 0 0 0
474 1 9.151043807530726 13.168721062135507 10.418820681522114 0 0 0
466 1 16.34639806195781 9.458321723810695 10.409442215464793 0 0 0
356 1 14.520262196136585 9.211710377630766 8.801694989419515 0 0 0
379 1 16.136628260248994 11.220780422847707 8.784910525030137 0 0 0
477 1 14.490998424429614 11.087350537279844 10.479067842192599 0 0 0
360 1 18.095044766472697 9.292573040836507 8.553515913089912 0 0 0
468 1 19.66291803990906 9.637435070601994 10.435145779678606 0 0 0
383 1 19.75318589774028 10.91183147881398 8.308520717009687 0 0 0
479 1 18.107917933449762 11.205963920277167 10.729058052841832 0 0 0
497 1 7.150275940126171 18.40380336984707 10.515326760474274 0 0 0
481 1 -0.06036992073150933 14.70298830973203 10.435844379971353 0 0 0
364 1 0.05794161352937832 12.958013811105454 8.413097563163435 0 0 0
470 1 1.7132199197606057 13.430209222865619 10.24856127585886 0 0 0
368 1 3.5009726820655294 13.433353273326295 8.777543652278013 0 0 0
483 1 3.562320425069366 14.897709645077875 10.731114581956456 0 0 0
482 1 1.7090888020417077 16.428081255814902 10.666566185063264 0 0 0
387 1 1.7096054697592216 15.037505863408514 8.19997031565574 0 0 0
392 1 3.5716778621298695 16.625359933503155 8.840229529596558 0 0 0
372 1 7.092169107175271 13.008557376853826 8.728734153903746 0 0 0
472 1 5.375623231228456 12.879772518854645 10.588309067418093 0 0 0
484 1 5.349292457659244 16.877156558598113 10.648799695098516 0 0 0