LAMMPS data file via write_data, version 29 Oct 2020, timestep = 150000

2016 atoms
1 atom types

-0.12583044961295187 21.389830449613783 xlo xhi
-0.12583044961295187 21.389830449613783 ylo yhi
-0.2936043824282244 49.909604382429876 zlo zhi

Masses

1 58.933

Atoms # atomic

276 1 0.8638717703594683 0.8008568233836731 0.9062466631508632 0 1 0
1400 1 3.456114167646302 3.671790540519222 2.035089712950139 -4 3 1
166 1 0.5295271373985042 3.1090257610364906 2.1098472908250416 1 0 0
367 1 3.505050273169202 1.7663722999683262 0.9980314212650292 0 1 0
208 1 1.8887926272007176 0.9880275753720855 2.9371138988908227 1 0 0
178 1 20.322702161470335 0.24848223762681726 1.1926926957227502 -1 0 0
1222 1 7.075446606140679 2.454507065869247 3.6539701352207334 0 1 1
1848 1 5.642109621590872 2.429511163048176 1.3061583855673249 -3 1 1
1636 1 7.811353379991375 2.2422367192588553 1.7371780463845732 -2 1 1
1262 1 7.9382625013844095 4.51389085006443 1.0270830822223924 3 0 1
1403 1 1.5424345968803166 2.7384433693349717 0.05419151801831451 -2 -1 1
1427 1 4.823912941623002 1.724877694540202 3.245442593933345 2 3 0
310 1 5.075366683487386 3.849970397517228 3.9209933858651587 1 -1 0
145 1 9.592369660766563 3.3762363337802146 4.2451520637832525 0 0 0
1461 1 10.097496706663106 2.8968113905524553 1.7194509021243491 1 -1 1
349 1 11.877343321097152 1.161081828062024 0.9110653631231642 0 0 0
1094 1 10.667064106856214 5.2409985426319725 0.7218948688491242 1 3 1
427 1 10.101123055366156 0.7891171170258219 2.221632442390242 0 1 0
1784 1 13.470256363055904 2.694537190785175 2.5632272317871925 3 3 1
1843 1 15.863103714449759 2.04444879440526 2.704770336880564 0 0 1
197 1 15.42088828979933 4.308734676540579 2.1400233770015697 0 0 0
239 1 17.91290158965344 19.21733287047593 1.7671709862544418 0 -1 0
1382 1 16.64815083288831 1.716030450665236 0.2609768828186576 -4 -2 1
155 1 16.861528680870038 3.5843794249631302 3.9473952223667945 0 -1 0
1686 1 14.237675266077446 1.9048354640852092 0.4219028326267259 1 3 1
1549 1 18.041556662079326 0.24209264485390203 1.1784028163893978 3 2 1
1744 1 20.741057613073917 1.7747139463529058 3.284947077488581 -4 2 1
1924 1 18.232873675231925 1.7861943563783897 2.963265910618247 3 0 1
125 1 20.935180415300376 5.544045553526936 5.453794535052897 0 1 0
1672 1 17.954360804149687 3.353408947204554 1.5420999846589534 1 3 1
202 1 20.173862121473736 4.048733152232667 3.2250033881222113 -1 0 0
419 1 15.461214014903698 0.12360151848292994 1.579984490102496 0 0 0
1114 1 20.924568067316006 5.565223621517253 1.3141057423758642 1 1 1
88 1 1.9461393757308163 5.151211251970539 1.2819673711318975 0 0 0
1195 1 4.071069997129201 8.505616389017172 1.7252964550823315 -3 -1 1
1953 1 2.9010255349207785 3.4493278875827036 4.254765031946936 -4 1 1
167 1 1.4055702384428956 7.0529404634047035 4.894381666881337 1 0 0
172 1 0.7273743995889413 5.270906756247208 3.4263102032770147 0 0 0
247 1 2.067991314223947 7.237774619672902 1.0933494376093271 0 0 0
81 1 20.526972753874503 20.872221182782987 8.496258182541318 -1 -1 0
24 1 6.20817118102778 9.44627414783582 1.800389377965692 1 0 0
837 1 5.27416056252299 6.625177182477578 2.2724220195603193 0 0 0
1885 1 5.535469905255039 4.682627067664051 1.2060196282241755 -2 0 1
418 1 7.639172994367872 7.220389422157455 3.5589054079025373 0 0 0
1875 1 3.3094322690854545 5.841230743102092 3.0312365449265926 -1 1 1
1655 1 7.623420641918256 6.726555785351947 1.0247727501514017 -2 0 1
338 1 5.44479763569342 8.325103550539364 4.030389224543854 0 0 0
600 1 17.958507156596617 18.713198585909552 8.931296193449256 0 -1 0
1405 1 13.647218687738432 4.342008329749651 0.6493047241504293 2 3 1
1493 1 9.44571355975983 5.352794478959344 2.7594021933934663 -1 2 1
1059 1 9.739594105375152 7.178334518608016 0.5659442012502268 0 0 1
237 1 9.385984514336068 8.469096139264016 2.3517001825847244 1 0 0
221 1 11.64298965085954 4.254809799711868 2.8616620859371737 0 0 0
503 1 12.296662043537278 6.425051942029673 1.0680119903281406 0 0 0
1948 1 3.3473102593327453 12.802996560859237 0.13954437578378814 -1 2 1
1115 1 11.10223150999722 7.068013437038598 2.9162096113843483 1 -2 1
158 1 13.337790096711059 5.64986515341368 3.2727847396151577 0 0 0
1307 1 16.15062388734582 6.107073829693377 2.9962098871845035 -2 0 1
1792 1 14.54913614006556 6.311242122052256 1.112449864278644 -2 0 1
135 1 16.72757212038906 5.801056112936376 0.03904741507163456 0 0 0
224 1 2.972727780315333 20.649768898876914 1.3406707412657426 0 0 0
1831 1 4.58071549714152 10.949442599988073 1.0069443580916875 -2 1 1
667 1 0.5407328148268449 7.865078410644348 2.4798094736545484 1 0 0
621 1 18.52942337820786 6.071471523862314 1.9998479621746514 0 -1 0
1985 1 6.702890794838153 12.227848047026374 1.430420966087769 -1 0 1
1542 1 20.07161013943068 7.593609861757361 1.4208921442060312 1 1 1
1790 1 20.17045276822607 3.128689521776902 1.1115114705737925 -1 0 1
1468 1 2.7160898888059277 8.907367470554997 3.5256930131519395 0 -1 1
397 1 2.873799062060582 11.838426011315585 3.0915393706690777 0 0 0
1392 1 2.5211669356103625 10.03287002181735 1.0420524285473036 2 0 1
110 1 1.1403766630868193 11.834572882286285 0.6060995943516136 1 0 0
74 1 5.008487171876215 12.864178052611122 2.7359211074162215 0 0 0
1561 1 1.1273330063961176 10.29340617796086 2.8203744090115324 0 2 1
298 1 7.6369324786618895 9.915851529659038 3.51773639483717 0 0 0
4 1 8.317647809196787 9.072154305738806 0.7410996643641423 0 -1 0
53 1 4.688291584346228 10.469811005160238 3.1626242330960648 0 0 0
1032 1 6.556623542727841 11.708291805430262 3.9237355536199603 -3 1 1
1753 1 4.688721731478018 12.096615279056193 4.894585273130699 -2 -1 1
51 1 11.815732381253008 8.787274163105305 0.7723329581468035 0 0 0
1023 1 8.697610448793569 11.223814481834946 1.78867275075577 0 -2 1
121 1 10.894823837059986 10.887219413708177 0.9804630908194196 -1 -1 0
1839 1 8.846462244028498 10.198696853483662 5.468560662304745 3 1 1
1537 1 10.190588674019766 10.42347948749259 3.6360593618465606 -1 0 1
392 1 13.162121163260993 8.125012179894584 2.7303398110529837 0 0 0
264 1 11.55783819073447 2.0491814786161586 11.787391382021514 1 1 0
1683 1 4.967288249094137 14.16242039950129 0.5305913155733306 -4 1 1
582 1 14.405042179996917 8.810546708586427 0.8466746301727872 0 0 0
1425 1 13.142839909144643 10.787423996051078 1.3690552559668419 1 0 1
2 1 15.04286460134672 9.578238589861494 2.7282436665997847 0 -1 0
1927 1 16.51726813808972 7.982660707966513 1.9544300752328048 0 3 1
1718 1 14.821495988300656 12.693852900548471 0.6021600638109925 -2 0 1
400 1 20.21528186661786 18.60582430441984 7.507958502022578 0 0 0
532 1 16.868634156531765 10.652915861258291 1.138938135196028 0 0 0
68 1 18.312194533778168 11.14055020763279 3.3809865682624047 0 -1 0
189 1 19.25663309834132 8.897772414369172 3.7052591836879216 0 -1 0
833 1 20.460325307023755 11.272408748344972 2.7104366895224983 -1 0 0
1898 1 -0.06392430779840197 9.378663822394833 1.023250646657205 -5 4 1
118 1 18.05069382649632 20.964092785983652 8.537102211161587 0 0 0
114 1 2.7532298645757733 15.163761994563991 0.6232297444529625 1 0 0
374 1 4.862581895768735 15.869397390342499 2.3148818678053886 0 0 0
47 1 3.187741154321915 14.238277759284651 2.517361351274448 1 0 0
556 1 0.9646493699148999 15.803726679330564 1.8305128459856101 0 0 0
270 1 2.0017029965822513 16.053429263178938 3.88991091786652 0 0 0
1240 1 0.8242870781044477 14.6438079803587 -0.1702419463662459 2 1 1
859 1 21.02939107219765 18.584666723295324 9.666860824973032 0 0 0
122 1 6.406775374639569 16.972751909220953 0.6350225021133298 0 0 0
1163 1 6.823496241257127 14.753812592128336 1.8571093813457682 -2 1 1
249 1 6.237300656947968 14.15729802870872 3.964890635817132 0 0 0
226 1 8.853609733262223 16.178311821580895 1.1827723896921547 0 0 0
685 1 6.673794345628768 17.27707313239124 2.9562354947279985 0 0 0
253 1 9.05756417331924 13.271605032107708 0.8830996778727818 0 0 0
479 1 8.175464418465788 15.668731394112598 3.886907715801483 0 0 0
368 1 17.74478022849172 16.630214715067666 9.901341219179349 -1 0 0
1089 1 11.352356788683327 13.57703947044963 0.9559759660232645 -1 -2 1
244 1 10.560184188839974 12.593819706029914 3.0424218579046 0 1 0
1893 1 11.118710789472345 16.115861525781774 0.6704268284751743 2 -2 1
85 1 10.080602342947117 14.790336812710175 2.5969970696730655 0 0 0
1062 1 12.367114852194982 15.818783374630714 2.6358091684500122 0 3 1
848 1 7.933794657738186 8.759540154664593 11.995316324566248 0 0 0
1348 1 15.767044301291234 14.726937817425046 -0.046413557476139594 1 0 1
282 1 20.978366782733733 19.49146545641305 12.225539749144602 0 0 0
1931 1 13.504612676656674 14.684137730301876 0.07496896682787985 -2 0 1
58 1 14.457945758644394 14.79717058018782 2.3394421019975242 -1 0 0
354 1 16.583869919738092 13.563321905335105 2.014991073582491 0 0 0
1887 1 14.332043816945534 16.644452082649373 0.7733735578196692 -1 1 1
1148 1 14.777946472422943 11.647562203117937 2.7043910996470206 1 1 1
205 1 0.1437603249020324 13.676373709256184 2.189888103013207 1 0 0
173 1 17.924338504990647 14.813303910973946 0.2772804587770422 -1 -1 0
778 1 0.9584680656225508 10.937730708198433 4.870554663699195 0 0 0
80 1 17.766179468113474 12.759781159956129 0.23113991443676163 -1 0 0
477 1 19.274584128025413 13.305079055571387 1.9224052262393827 -1 0 0
1908 1 3.2861396184527765 3.8440162976353656 -0.239352275259849 -4 2 1
712 1 16.346947328142335 15.489379018840808 3.6821812349717944 -1 0 0
470 1 19.595695616304774 15.452608212506975 2.688452219240469 -1 0 0
1717 1 20.129330345859312 15.20636022565182 0.5188938888864052 -2 0 1
142 1 2.2142484039989148 20.404718824706126 3.524381780324781 1 0 0
1945 1 2.8140686759912428 17.146624588044876 2.421114737563873 0 -1 1
185 1 1.1262784503703471 18.30650247114685 3.479362807582771 1 0 0
402 1 0.23769228518405644 20.10544276555142 2.1561039269081754 1 0 0
347 1 1.7488106737762459 18.66618544884782 0.9905370794571788 0 0 0
1918 1 5.636245836879887 0.09329975773146656 1.1066122264818679 1 0 1
319 1 11.447917566841339 19.093355620291806 11.151073577231468 -1 -1 0
741 1 13.586285137963822 1.279556155039997 11.496834540590624 0 0 0
238 1 11.948963151215104 3.2728352247094636 -0.04075779753420983 1 1 0
1779 1 8.238231965046689 21.141091112232793 0.9620574005683935 -1 0 0
86 1 6.5915737195057424 19.37220433722979 1.3804574290661042 0 0 0
1583 1 6.673503324942601 0.23534908769334212 2.833108724646923 1 2 1
872 1 4.370782429220248 18.660317587725487 1.8466854085487174 0 -1 1
1722 1 5.527604609810288 19.24654362121433 4.61108689949745 3 0 1
436 1 4.519734826576986 20.70070976582126 3.2048811424208545 0 -1 0
97 1 10.181688427377406 20.241974820407982 1.12115050147029 0 -1 0
673 1 12.680107228784252 19.227967369498707 0.15102933856246092 -1 0 0
1029 1 10.474029934115514 18.19500214634704 0.22311472364552676 2 1 1
214 1 12.798085471195805 17.996148896333196 1.8306739575903888 1 0 0
314 1 10.44459979009098 17.043993706353955 3.001773178230647 0 -1 0
1124 1 4.711229220295287 19.971585899721145 -0.11159023886060429 -3 -1 1
752 1 4.010583179982226 19.220171698656266 11.276637467819924 0 -1 0
585 1 6.899897505329298 0.8822191656496756 12.021670523633158 0 0 0
223 1 12.017854863687637 20.285381108072855 2.3344465764390074 0 0 0
169 1 13.547932306255598 21.19197769077809 0.24406968717846367 -1 0 0
1393 1 14.292232862396475 19.563487524848423 1.8964036621088574 -1 1 1
421 1 16.7524784285834 16.154168482494377 1.392114139275893 0 0 0
196 1 15.400200764979298 17.58081623746322 2.957480153845695 0 0 0
651 1 2.03109170525238 12.454307601366434 11.737873324976494 0 0 0
46 1 15.93443855489874 18.36276187084028 0.6739805202597302 0 -1 0
551 1 19.50021455356828 21.389778390841247 3.6226389162100383 1 -1 0
1297 1 18.529015076734883 15.520601914880848 11.999227550719244 2 -1 1
186 1 18.177866091995647 17.410230696842852 3.2627131750294707 0 -1 0
1902 1 19.799562160745104 19.525855364836932 0.7606345068540701 -1 1 1
45 1 18.940445372563804 17.355459248951743 0.46515637354955053 1 -1 0
183 1 20.753623715501142 17.71923729725937 2.483671226519917 0 -1 0
115 1 0.6832257371265147 3.139916864149345 4.588056974235366 1 0 0
1380 1 2.0329984951401205 1.5385080955475836 5.160030443454813 -1 -2 1
1560 1 4.227265941077005 2.8192911740729905 8.481069875095331 0 3 1
705 1 4.371580021815399 1.7784852480931341 5.574745539009302 0 1 0
1285 1 3.5291171308028217 21.179967139210827 5.056591027068165 -3 -3 1
8 1 0.1446568096180071 -0.04771968958880493 4.337675227662526 0 0 0
1002 1 0.5057168535905644 1.6577138381748586 8.514666964757787 0 1 0
1575 1 5.898489293482823 1.6424521553159037 7.247970538984926 -2 3 1
614 1 6.747240113133844 0.11100673241515643 5.1865993666760355 0 0 0
972 1 8.269531774988968 1.787216120026459 6.147802561820628 0 1 0
490 1 9.426770693295305 3.981706468495429 6.475536111389297 1 1 0
424 1 6.48900734804053 3.470140940513191 5.630858224558879 0 1 0
574 1 10.085299783054632 0.28654842304299544 6.412391795391017 0 0 0
513 1 8.776490700585422 0.6863750532820938 3.6223669494301602 0 0 0
512 1 11.537736805862883 2.1115841077688717 3.283229079520864 0 0 0
1760 1 12.368616384106724 3.8991978440667996 5.472259706378426 -5 -1 1
432 1 11.185728530778299 2.8392158065278643 7.240296559198005 1 1 0
439 1 11.977274011099185 1.6210892613912846 5.4693645270836 0 -1 0
1724 1 13.266356733437446 2.668680823904225 7.849847325807554 3 5 1
414 1 10.967851301883522 -0.04963279537963 4.1311936036169605 0 1 0
346 1 13.286345664613602 0.5075572040331917 2.7982439100952887 0 0 0
296 1 10.035144190992947 1.422060697367338 8.541386605649084 0 -1 0
403 1 14.191341916598928 1.8747528044751944 4.558341025540658 0 0 0
521 1 14.475432550152032 3.9471051508589676 4.215050507407557 0 0 0
184 1 17.319864529118323 21.001366036899896 3.0657575482859603 0 -1 0
357 1 15.126002569039038 3.5188253801633844 6.404336640653318 0 0 0
200 1 14.538550312843824 0.8152650623471012 6.6109605411490815 0 0 0
159 1 17.300684276590257 0.9723420903763318 7.077985537673015 0 0 0
373 1 16.788987488466574 1.5642583181036316 4.870286862370961 0 0 0
1168 1 14.894801290771786 20.99275915602071 3.7028245255385532 1 1 1
1430 1 19.25199029241738 2.6697617057147465 4.815483064979578 -2 0 1
386 1 20.624032946282682 20.38932711076975 6.178170249735477 -1 -1 0
417 1 -0.1160289709239315 1.5009246221213641 5.919305356541557 0 1 0
390 1 19.48052693048782 1.4617268287988285 7.767009477122155 -1 0 0
590 1 19.77880915601845 4.036235264854822 6.559181515410986 0 0 0
409 1 16.1160310610974 21.022278788406226 5.539332856383673 -1 0 0
1911 1 19.06014875210911 0.7922232909490681 5.560131344339287 0 1 1
445 1 20.459950090421373 3.5830379899076155 8.885638115542617 -1 0 0
329 1 2.102280256027589 2.973620895781532 7.119854854912177 1 0 0
351 1 1.836159777650857 6.375238933137308 7.54336353727529 0 0 0
1551 1 3.5588875062359007 7.214211866947524 4.61165461057606 1 2 1
1934 1 2.0510755616686303 4.920591238810802 5.981116020551841 0 2 1
271 1 3.1547529777351557 4.768054750924288 8.264613325426494 0 1 0
664 1 4.428504635286183 3.9418129919306173 6.231088666116523 0 0 0
236 1 6.831872629156249 4.857041543654214 3.1559450044612642 1 0 0
1448 1 6.489338606636562 5.751763525697933 6.642253433003035 1 2 1
113 1 5.44760518703254 5.966106622225137 4.647237826186086 1 0 0
525 1 5.995338203435587 4.100540790566053 8.087880000135172 1 0 0
1788 1 4.216896380523685 6.099725614068871 6.729813606379201 2 -1 1
1936 1 7.711763290026361 8.013587861989945 5.8497170616597005 -3 0 1
410 1 7.710561819030021 7.5457399365132005 7.704688596243445 0 0 0
690 1 9.651004263519804 7.406574360127384 4.585449869058685 0 0 0
469 1 10.690185558601485 5.594012297012452 4.933723132695187 0 0 0
468 1 11.13832496950337 5.023658694346565 7.804841646518566 1 0 0
1491 1 8.185265636176034 5.411599584843773 5.0086499813736385 -2 3 1
230 1 12.722256767001651 6.932377869017613 7.109335082935797 0 0 0
388 1 9.684298493208768 6.585202637928168 7.08201260263633 0 0 0
139 1 17.422156100709618 3.199404500416727 6.440223108989467 0 1 0
1346 1 13.382991112378933 4.806389259085924 8.03493402782183 -4 -1 1
38 1 14.984273440537256 6.414237387627289 7.4483044187477825 0 0 0
11 1 16.303584069930185 5.642330864661443 5.542899549596854 0 0 0
182 1 14.254603477942617 8.092535278836301 6.368946137638245 0 0 0
1133 1 13.717069588234157 5.893266773942705 5.485540520220867 2 3 1
634 1 13.583056029116701 8.925482067947629 8.454864564525149 -1 1 0
1263 1 20.298062867137993 6.854425264937403 3.5993936585621014 0 -1 1
369 1 18.660904836134705 4.776154618719107 4.618483963404047 -1 0 0
233 1 17.938643257779166 6.893943797869471 4.336821497712104 0 0 0
1251 1 17.354142730972463 5.432707144126903 7.539188658254941 0 3 1
543 1 0.21319688948815596 4.880343468446033 7.583203425507806 1 0 0
77 1 19.127908116996213 6.505235740016801 6.379477953782832 -1 0 0
454 1 17.853494373214154 7.524215220196666 8.090346636298445 0 0 0
1308 1 -0.09059619379096873 7.55124843792453 6.651289764641203 -3 1 1
209 1 1.77724984725354 9.122273604642787 5.838682715372969 0 0 0
384 1 3.5784706477893624 10.14475854951726 5.528185591593161 0 0 0
231 1 3.663186645921739 8.677478792601212 7.078180427846641 0 0 0
395 1 2.8261185094224497 12.200011819414334 5.474801567964625 0 0 0
562 1 3.623833340707703 11.769630354322025 7.383288671763684 1 0 0
714 1 1.7491450986877441 10.755028880231748 7.424788347059714 1 0 0
678 1 6.3107734163901235 9.72316706607599 5.304843085017025 0 0 0
533 1 5.292895854895343 10.428526252790526 7.036709429277986 0 0 0
316 1 5.670662750614156 7.598140816963591 6.18647478759906 -1 0 0
284 1 8.057635842293719 13.181981998022486 3.151038672039302 1 0 0
636 1 6.992058698017189 12.34247723532413 8.096609683840327 0 0 0
642 1 5.549920873949581 8.827032476764632 8.541439042206154 0 0 0
228 1 7.598525217220127 9.82589161050075 7.305640397452815 0 0 0
665 1 6.946921032869871 12.187563993390322 5.874079962653512 0 0 0
150 1 10.514117469979059 8.752777542518201 6.418169493762186 0 -1 0
335 1 11.594339489097864 10.725708004525004 7.605468326080169 0 -1 0
330 1 12.136265293679413 7.458205792400043 5.05685799284989 0 0 0
251 1 11.046183632771442 11.739339201812852 5.255214302933189 0 0 0
1232 1 16.333653765403096 12.333443265792983 4.54022383949911 -2 3 1
147 1 12.625910717118147 10.398101370039505 3.8090284695886893 0 -1 0
343 1 14.95913542041172 10.37879760353506 4.981848187254553 0 0 0
31 1 15.042085100537669 7.39560243775969 4.203687076508253 -1 0 0
796 1 15.530420562185684 12.555921808360686 6.970694332727639 -1 0 0
459 1 16.865657925829456 9.177014693035293 3.946826221226461 -1 0 0
425 1 13.324933906259032 12.136489197353285 5.949835326903605 0 0 0
662 1 16.69266758580344 8.321487098561969 6.081456010829752 0 0 0
382 1 -0.017672165342737856 8.839496097055394 4.581769131804939 1 0 0
164 1 18.939618060459477 8.862940594298808 6.154878005561403 0 0 0
423 1 0.16304160030281478 12.517971550626395 6.462295636696879 1 0 0
321 1 19.686108748408937 11.625977260559466 5.3004301998934675 -1 0 0
302 1 20.864975383405902 10.141884067080484 6.703130916248562 0 0 0
235 1 17.409916804373132 10.799710847170285 6.215638684889715 0 0 0
1126 1 4.103126877796036 14.569015128492081 4.47565563042188 0 -1 1
269 1 4.445509169780226 16.79220811903935 4.533323294356659 0 0 0
476 1 21.027100613862142 15.727009984888632 4.219900439019804 -1 -1 0
1693 1 1.1582945357386711 15.267801221452697 5.664179562646679 1 4 1
59 1 3.017361466070647 14.187606415004675 6.497319488937424 0 0 0
268 1 1.2651821836302646 13.532603052880821 4.225119506094323 0 0 0
156 1 0.7344656876869783 14.330652624118764 10.252980837958528 1 -1 0
204 1 2.6207600866503897 17.109554399686573 6.384501372010867 0 -1 0
120 1 1.4109843757552867 13.488953690112934 8.108629597683297 1 0 0
170 1 4.4865993261877115 13.582940468014025 8.498789621399629 0 0 0
103 1 8.608062848224675 18.291928236741143 1.8179071198496857 0 0 0
460 1 4.8016865288467 15.723837503214883 6.703495678140009 0 -1 0
288 1 6.621938996167327 14.772690807330244 8.446939635646363 0 0 0
210 1 5.343392402987709 13.607741125244617 6.6846005448428585 0 0 0
733 1 6.667731605973147 17.117951216582735 5.383135334675918 0 -1 0
324 1 7.714509660918688 14.523081982009451 6.2722061285580395 0 0 0
240 1 8.94073284956849 12.79171375403918 4.950443818735462 1 0 0
404 1 11.70246470259751 13.649136456331949 6.761663718279996 0 0 0
2007 1 9.99202645466262 14.79708356347499 4.770759690616826 0 1 1
765 1 9.29674694124865 16.441983488637984 6.251356021183673 -1 0 0
1759 1 9.542808534589089 13.919979115971842 7.6505281175289195 -3 1 1
478 1 11.920671471159965 15.877709240434893 6.500243228283486 0 0 0
340 1 14.06287716982888 14.490655657637737 6.453642798473676 -1 0 0
353 1 14.497013879932108 13.998452170041357 4.385343901956008 0 -1 0
108 1 12.87024709073906 13.10651593665038 2.8641435668168604 0 0 0
612 1 13.525539879850378 16.296066285760283 8.36798952782243 0 0 0
175 1 13.794367388156743 16.27637402545844 4.49122957516531 0 -1 0
79 1 16.656380620664912 15.362448974316658 5.7112198482686765 -1 0 0
323 1 12.357203123941279 14.111739911650337 4.6564358864236395 0 -1 0
1508 1 18.048895485993576 13.744330979594993 4.128059141242796 0 3 1
639 1 19.469907946612725 12.536313501187454 7.241256352177072 -1 0 0
60 1 17.67637670866129 13.377835961499132 6.5786915701814515 0 0 0
293 1 20.15626229007828 14.237952338253717 5.823966120908105 -1 -1 0
1226 1 18.736325042298823 15.960709065960202 4.878067965494938 0 1 1
933 1 20.331634038321393 13.11567985070518 3.981062206686829 -1 0 0
1700 1 1.1679407231442425 19.871305649545572 5.351932938284015 1 0 1
43 1 0.08466382105741371 17.772908600812695 5.495922904929335 0 -1 0
165 1 20.28625712527866 19.127724111621447 4.163498070468679 0 -1 0
1642 1 2.9430475929022486 17.853254117185617 8.830131153138698 2 4 1
650 1 0.867871806923786 18.188905055344975 7.934501216047387 0 0 0
260 1 3.0829797245959636 18.45295815656016 4.399498398586935 0 0 0
401 1 2.750670338801587 19.388134057510797 6.910689035382762 0 0 0
550 1 6.816746947079907 19.367153759090428 6.47647859187101 0 0 0
1352 1 7.6672578955397395 19.979680141928426 3.244054788116576 0 1 1
70 1 4.593029571667052 18.201167323863928 6.8294657303337205 1 0 0
1189 1 4.680985260765832 20.81605538741265 6.823715439217297 -2 2 1
157 1 5.256685677667858 19.407289945855503 8.74796087629296 0 -1 0
1592 1 7.894070767317832 -0.0723512044006327 7.295995886516207 -1 0 1
16 1 10.018322758037975 19.521223801450216 3.4187294758253053 0 -1 0
1383 1 9.1534859025147 20.41910391940078 5.199094754605929 -3 1 1
304 1 8.607011228307456 17.9944206402332 4.348000714541554 0 0 0
458 1 10.630732961143694 17.53798446614566 5.1220999932698765 -1 0 0
242 1 11.3631250415634 19.488071595615093 6.516565028439786 0 0 0
161 1 8.794407900929636 18.59974887839771 6.877961757573298 0 -1 0
548 1 10.841292716358264 17.33425891584069 7.767320571865541 0 0 0
1698 1 12.883987416474099 20.98165661741887 5.0840335626988935 1 0 1
211 1 12.5870996709383 18.614563721089016 4.211846927223115 1 -1 0
494 1 14.978111597308539 16.482987486379074 6.507583205360462 -1 0 0
1883 1 14.706873553200538 19.171995989635867 5.320790257656482 -1 -3 1
191 1 13.141954739213055 17.895014481931682 6.487265828274227 0 -1 0
48 1 19.351747936869845 17.9471687162368 5.557368054637575 0 0 0
1986 1 18.110203576710287 19.339386843981845 4.297787057011296 -2 0 1
1203 1 20.564504708932578 16.380176605437306 6.817669372865733 -2 -4 1
325 1 16.09992373657619 18.908829164280156 7.021954294809551 0 -1 0
361 1 16.503186043923407 17.555413230313494 5.122317044279145 -1 0 0
428 1 18.512953648560803 20.148467195360233 6.4085840046359035 0 0 0
613 1 11.12406256787881 16.951318204935674 11.886565941162852 0 -1 0
381 1 0.6205765217767736 21.268163006893143 9.985052702366866 1 0 0
273 1 3.3140544209387324 0.9746279318907165 7.449094697866034 0 1 0
141 1 6.005074088209028 2.457388186888439 10.085997949987638 0 0 0
461 1 0.24341908976154558 2.420047265800639 10.927406540370995 0 1 0
777 1 1.2443635402528699 3.8705457464796584 9.406739365765493 0 0 0
608 1 2.069030297845391 0.5177937400498202 11.776508807632759 0 1 0
1324 1 2.508745146601441 1.4249941896954577 9.653635466392226 -1 1 1
297 1 8.141606266374424 2.577382181941175 8.653170172457745 0 -1 0
457 1 5.921949984167772 0.31184973362795565 9.098468384818625 0 0 0
1492 1 4.522910083628295 0.1115542633834316 10.865549195174072 -1 3 0
583 1 8.075517151089121 3.0543174043973225 11.040258201185027 0 -1 0
921 1 6.464577090683889 11.056697954388365 11.816240356599726 0 0 0
806 1 20.568429666911598 10.067683381884155 10.703281392578234 0 0 0
326 1 8.052687232646187 21.363205207800537 9.547924365904011 0 -1 0
480 1 11.874370601961912 0.14890199739835647 7.819322455111141 0 1 0
130 1 9.476535228291393 1.3498537776645623 10.54636646794012 0 1 0
563 1 11.941488766390297 2.198036397631634 9.634327756191846 0 1 0
90 1 4.084589029425852 6.068288408649918 0.21606810990929137 1 1 0
738 1 10.191865061298499 3.6238333965852476 9.358219654758772 0 0 0
441 1 10.113344306805025 4.094813249548257 11.469089164261776 0 0 0
69 1 15.828642869002064 2.28792602943791 8.200801081179334 0 0 0
493 1 13.866860248134651 0.5656267830712725 8.865751676498652 -1 1 0
411 1 14.477480342422401 2.9130106550407953 10.18545990108263 -1 1 0
153 1 16.68475028313408 3.909917703162578 10.869138074595844 -1 0 0
576 1 15.569745045245543 0.6816790796943759 10.531745672440538 0 1 0
661 1 15.58799064165065 4.392461960736799 9.007258095063388 0 0 0
1969 1 18.495917428602052 9.227890037649564 1.342027640583546 -1 3 1
495 1 18.287146473754287 3.6766241561826565 8.707805887685291 -1 1 0
1360 1 19.953520267710392 1.2451595445144445 9.982594650829213 -2 4 1
160 1 17.84078365392921 1.6561930748714269 9.727503298931751 0 0 0
295 1 19.191849715784628 0.2868788540072511 11.669542267000644 -1 0 0
308 1 18.985945826127633 3.4845926101069167 10.683771675258908 0 0 0
19 1 9.926297068603903 20.661840241551676 8.529842691126305 1 -2 0
394 1 3.828861670145135 7.03611242451559 9.02942310804068 0 0 0
922 1 3.9786378815741337 2.8497043465647653 11.492282185707845 0 0 0
492 1 2.1825423408748046 5.781135601474908 10.211600449332995 1 0 0
924 1 0.5737668166956714 8.243762444918598 10.934784694107835 0 0 0
1802 1 4.432892431205708 4.819229590558705 10.221605851082582 -1 -2 1
657 1 1.6778927365709992 8.39631289800278 8.474527290391945 0 0 0
694 1 6.3889164490464285 4.605793876781603 11.008897477693985 1 1 0
535 1 6.00961847346119 6.094874570571594 8.814192728228168 0 0 0
218 1 8.344105741788097 4.954696029996039 8.26583265950608 0 0 0
510 1 6.79624874641611 7.5355430880556415 10.338591729913928 0 0 0
466 1 8.925620279983365 7.800739572635073 9.628560861349927 0 0 0
811 1 8.23063971783366 5.616233641506421 10.337571058919513 0 0 0
1008 1 4.793339712264887 6.953005632177377 11.420668796187478 0 1 0
305 1 13.950542952171434 20.387374557525973 10.590439049477935 0 -1 0
44 1 12.941072377665908 6.556065831019593 9.598381559684583 0 0 0
281 1 10.578866044331965 5.944728608561296 9.8467045205088 0 1 0
660 1 12.350325968595413 4.290404796448512 10.419798319291578 -1 1 0
243 1 11.188182640392176 8.050411409213469 8.460787529016223 0 0 0
522 1 11.516310464037247 7.994071271043898 11.474634826346557 0 0 0
1016 1 13.617612508676967 8.470524854633199 10.87238284359307 0 3 1
591 1 9.189884958676899 19.80276116231505 11.238303758697047 0 -1 0
263 1 15.230565138774262 6.937885439954535 11.818226630764661 0 1 0
100 1 14.604057977502421 5.314075065385417 10.768934241089758 0 0 0
839 1 18.27251915501956 5.68301622085619 10.089438167075146 0 1 0
830 1 15.947128317990131 8.694772407758801 8.305544742156966 0 1 0
1605 1 16.157716028878717 6.7567055226855866 9.74286580963638 0 2 0
355 1 17.970935966231952 7.4240119703979355 11.526521466396384 0 0 0
1243 1 0.19962472838259232 6.647436809809206 9.152434065148217 -3 2 1
292 1 19.800122645812092 5.763066271142162 8.329755728401627 -1 -1 0
174 1 20.896432611817534 5.086096928797874 10.596503672799221 -1 0 0
168 1 19.984105609928836 7.450994866768196 10.463614680983758 0 0 0
87 1 15.605423604516597 3.678475442612501 -0.058047025438736966 0 1 0
1977 1 9.364540738495853 6.874077443930818 11.94077040979216 -1 3 1
2009 1 19.438605736872997 19.944884304450653 10.329239237316969 0 1 0
529 1 2.7705783410893825 8.457265941139962 10.90306589333775 -1 0 0
5 1 0.9951981301692383 10.426953220945627 9.809883237460868 0 -1 0
526 1 2.668325355832644 12.203230092035602 9.700903983249493 1 0 0
929 1 3.255197244927742 9.790265244031378 9.138048391704398 1 0 0
152 1 16.07171945243471 18.650177781091852 10.341877080304855 -1 -1 0
894 1 -0.030232060118262183 12.060394841412673 10.937975551629329 0 0 0
713 1 16.89537146266347 11.094227789591068 11.639409200687691 -1 0 0
475 1 9.861000852145683 17.98264217291815 9.872297274970563 0 -1 0
225 1 19.616436166013603 17.85652992334778 11.226561880221512 -1 -1 0
1641 1 5.199964378575737 9.141652245601184 10.756339659180142 2 1 0
1922 1 8.517435166989202 11.660582395020901 9.353647415492274 -2 -1 0
433 1 5.048748567258359 11.265459761360015 9.5446915353875 0 0 0
952 1 6.998957409436614 10.219118856525393 9.91355895125811 0 0 0
1961 1 11.563622610104183 5.746997858641844 11.974526553978517 -2 2 0
1452 1 9.72851909776698 9.400769566549565 10.723280430829982 -1 2 1
416 1 9.169395909162919 11.702930654651926 6.873245984705315 0 1 0
958 1 17.350094957704435 17.7418084268534 11.99246137910332 -1 0 0
290 1 9.456964119235515 9.674025774656405 8.305376550563109 0 -1 0
640 1 12.006540264775424 9.789359604174553 9.838509336888274 0 0 0
598 1 10.927929390791428 12.83015687328135 9.092859968393098 0 -1 0
179 1 10.694770945379918 11.30796662393869 11.058282685319842 0 0 0
472 1 14.792599623068199 10.321633704040696 7.168926342436662 -1 0 0
232 1 15.3413344338222 12.68886415037432 10.25223388931986 0 0 0
96 1 15.871826446421082 8.77592772352321 10.545495806197465 0 0 0
485 1 14.663028007312368 10.389638087260561 9.896304800662755 0 0 0
413 1 13.447204115986349 12.037589811897142 8.39928373352946 0 0 0
462 1 17.01614944498471 10.600385801922528 9.234314086547966 0 0 0