LAMMPS data file via write_data, version 19 Mar 2020, timestep = 500000

864 atoms
2 atom types

4.4200045491461282e-02 1.7283211954504203e+01 xlo xhi
4.4200045491461282e-02 1.7283211954504203e+01 ylo yhi
8.8400090982922563e-02 3.4566423909008407e+01 zlo zhi

Masses

1 58.71
2 26.982

Atoms # atomic

87 1 2.9440533804056526e+00 2.7594489947805916e+00 2.7948180748720155e+00 0 0 0
2 2 1.3757634611310585e+00 1.4645539917867658e+00 1.5209770614643461e+00 0 0 0
85 1 1.4047994563259891e-01 2.7543233757642529e+00 2.9211978525831124e+00 0 0 0
16 2 4.3603727468365916e+00 4.2884038034505689e+00 1.3463153599527651e+00 0 0 0
73 1 1.9616581286705781e-01 1.7011241741960660e+01 2.8228780830137441e+00 0 -1 0
86 2 1.6212222913658443e+00 4.2755388913497159e+00 4.5530916356975064e+00 0 0 0
75 1 3.0178350793871096e+00 1.7232340912106373e+01 2.8733514759542960e+00 0 -1 0
74 2 1.7191703831578611e+00 1.4821110512036042e+00 4.2479322346283093e+00 0 0 0
371 1 1.4486972283125811e+01 1.3022598541978425e-01 1.4317848621875696e+01 0 0 0
360 2 1.5917120124735401e+01 1.5370122495771531e+01 1.3037152049790427e+01 0 0 0
4 2 4.2890207375730887e+00 1.4968801861121834e+00 1.3501819142556037e+00 0 0 0
89 1 5.9468400785540734e+00 3.0245513543297093e+00 2.7762227840037332e+00 0 0 0
6 2 7.2790001712878887e+00 1.3916788336409489e+00 1.7970732692564386e+00 0 0 0
90 2 7.3497350037452840e+00 4.3703361281400896e+00 4.0852789347848084e+00 0 0 0
78 2 7.4539670684597752e+00 1.5439220197149268e+00 4.3091354369191457e+00 0 0 0
91 1 8.6983875648115845e+00 3.0969703284358712e+00 2.5974699332715248e+00 0 0 0
77 1 5.6715378466547159e+00 1.7174185084889725e+01 2.9252654129862359e+00 0 -1 0
432 2 1.5962234760220484e+01 1.6021035195144989e+01 1.5889522833906948e+01 0 0 0
93 1 1.1478147540112078e+01 2.8955026196049349e+00 2.7564686180350519e+00 0 0 0
8 2 1.0158600690770504e+01 1.6756348498811713e+00 1.3645451587339694e+00 0 0 0
20 2 1.0174217915048157e+01 4.4303885386856541e+00 1.2005772358343636e+00 0 0 0
94 2 1.3214015880807182e+01 4.3297849038174494e+00 4.4824654593728264e+00 0 0 0
431 1 1.4222118844519173e+01 1.4610824304470819e+01 1.4378104091040397e+01 0 0 0
82 2 1.2903480857597566e+01 1.4737881238017683e+00 4.3240623957845656e+00 0 0 0
22 2 1.2931465917686509e+01 4.3257954428436003e+00 1.5799222347836999e+00 0 0 0
10 2 1.3013144975584716e+01 1.5438618191232361e+00 1.4333962808684750e+00 0 0 0
95 1 1.4338792483575165e+01 2.9176223594767237e+00 2.9237979571579205e+00 0 0 0
12 2 1.6190918426839136e+01 1.3385478617201860e+00 1.5359071718207917e+00 0 0 0
83 1 1.4301427939131067e+01 1.1092648941198036e-01 2.9604644915905229e+00 0 0 0
84 2 1.5784617422436796e+01 1.1574371599250952e+00 4.4206327221665012e+00 0 0 0
14 2 1.4885160116116467e+00 4.2083108391539152e+00 1.6169028594760615e+00 0 0 0
99 1 2.7824603883407470e+00 5.4105333512979543e+00 3.0350037488558939e+00 0 0 0
26 2 1.4680450002312522e+00 6.9841309274779526e+00 1.6495729558084049e+00 0 0 0
28 2 4.2148007385921824e+00 7.2191601960827123e+00 1.7494791397202394e+00 0 0 0
97 1 2.4435254842033061e-01 5.5107015356339906e+00 2.9610114078644476e+00 0 0 0
109 1 1.7266008586692180e+01 8.6022683977667747e+00 3.0401837601649215e+00 -1 0 0
98 2 1.6042298932971510e+00 7.0751804511116374e+00 4.3181994036209703e+00 0 0 0
346 2 1.2970303730255573e+01 1.2855620735209191e+01 1.3023120266568267e+01 0 0 0
18 2 7.3786958373520983e+00 4.3028751993264915e+00 1.2052712076860750e+00 0 0 0
101 1 5.6135608130036649e+00 5.6115836114291069e+00 2.8290403573401228e+00 0 0 0
30 2 7.1684449019729968e+00 6.9128430900001563e+00 1.3657230480142515e+00 0 0 0
115 1 8.6494399463432998e+00 8.2914681895925249e+00 2.8136561496272816e+00 0 0 0
25 1 1.7269789215879030e+01 5.6800850006225527e+00 1.1731159525903880e-01 -1 0 0
113 1 5.7349694514997669e+00 8.3401357461270678e+00 3.0852465292668994e+00 0 0 0
102 2 7.3361813812616630e+00 6.9531313115792646e+00 4.4613501968045046e+00 0 0 0
103 1 8.8515990309262342e+00 5.7548079540354289e+00 2.9018073773134048e+00 0 0 0
105 1 1.1390781026778850e+01 5.7804273372877901e+00 2.6864922682600962e+00 0 0 0
32 2 1.0052313297911061e+01 7.0794627505066003e+00 1.3476108504493378e+00 0 0 0
117 1 1.1610156485979124e+01 8.6886115289353043e+00 2.6763859109964838e+00 0 0 0
92 2 1.0120007998483285e+01 4.2597782946357343e+00 4.2285019254361824e+00 0 0 0
106 2 1.3012929131033037e+01 7.1309181908787913e+00 4.1173379092266957e+00 0 0 0
24 2 1.5654198608311775e+01 4.2327573052879286e+00 1.6837861967287233e+00 0 0 0
34 2 1.3039450957256465e+01 7.2412029900020327e+00 1.3987559020144797e+00 0 0 0
107 1 1.4276343028189153e+01 5.6001264793983934e+00 2.9048568080969157e+00 0 0 0
36 2 1.6038633283695425e+01 7.1641395285591987e+00 1.5449374206674829e+00 0 0 0
96 2 1.5891684399162717e+01 4.2228516718457074e+00 4.2871399274807356e+00 0 0 0
108 2 1.5789897904788495e+01 7.0403910377194805e+00 4.1125781469812654e+00 0 0 0
111 1 2.7357516382296527e+00 8.5293185778322780e+00 3.1231714685859244e+00 0 0 0
123 1 3.1379153311069476e+00 1.1550755038902757e+01 3.0777645656065920e+00 0 0 0
38 2 1.6064731316412242e+00 1.0154900910788426e+01 1.5083409245210269e+00 0 0 0
112 2 4.3518132645464034e+00 9.8697378902960473e+00 4.3399366507211798e+00 0 0 0
121 1 1.1024460386306600e-01 1.1633633796427572e+01 3.1053622944366106e+00 0 0 0
428 2 9.9978858229085716e+00 1.5952545413394965e+01 1.5907839089011990e+01 0 0 0
124 2 4.6310175654866521e+00 1.2866826626259096e+01 4.5564689618764502e+00 0 0 0
429 1 1.1447745819559868e+01 1.4527646416776983e+01 1.4381784117782686e+01 0 0 0
356 2 1.0070115869792060e+01 1.5713940374004810e+01 1.2834250447764022e+01 0 0 0
40 2 4.3451923262982337e+00 9.9786674968905977e+00 1.5773538934102416e+00 0 0 0
125 1 5.8244344528856047e+00 1.1630750276443598e+01 3.0499114521649573e+00 0 0 0
42 2 7.1488761824996701e+00 9.9880672023353689e+00 1.5025711169503229e+00 0 0 0
127 1 8.7188561569072789e+00 1.1452081913008810e+01 3.1382014117323469e+00 0 0 0
53 1 5.8422646668938816e+00 1.1570572408923876e+01 2.8667582932707641e-01 0 0 0
41 1 5.7003312367830548e+00 8.8247528612353356e+00 2.4737678841207156e-01 0 0 0
416 2 1.0171708351188474e+01 1.3120580350005422e+01 1.5855599352365580e+01 0 0 0
129 1 1.1393907241647083e+01 1.1445880375637206e+01 2.9721881112555235e+00 0 0 0
44 2 9.9505876617586715e+00 1.0025110853100026e+01 1.6433202389604815e+00 0 0 0
430 2 1.2692248642099894e+01 1.5975902159586701e+01 1.5814524964301780e+01 0 0 0
344 2 1.0131979043130071e+01 1.2688330220265879e+01 1.2942268460835349e+01 0 0 0
116 2 1.0140651389531373e+01 9.8726635293790839e+00 4.3928147044020429e+00 0 0 0
46 2 1.2919842718284425e+01 1.0040585159507923e+01 1.5313759850436923e+00 0 0 0
119 1 1.4440907851655085e+01 8.6655123380721424e+00 2.8040869122785619e+00 0 0 0
131 1 1.4359696653999601e+01 1.1356672818697138e+01 3.0643847839419656e+00 0 0 0
48 2 1.6072978846560837e+01 1.0115149281094386e+01 1.6454884812868891e+00 0 0 0
120 2 1.5839021681959164e+01 9.8889072735992016e+00 4.3161674124796319e+00 0 0 0
58 2 1.2921031753414557e+01 1.2659113234626641e+01 1.7060610522821003e+00 0 0 0
122 2 1.8071125853407888e+00 1.3003790133065349e+01 4.4865021885223486e+00 0 0 0
50 2 1.7569978938277571e+00 1.2984475544575167e+01 1.7699998377498252e+00 0 0 0
135 1 2.9659245977879087e+00 1.4487855116869321e+01 2.5938862289929578e+00 0 0 0
62 2 1.5004730637225014e+00 1.5797452835738850e+01 1.4463997759483083e+00 0 0 0
133 1 1.4880019571833714e-01 1.4336774464907407e+01 3.0555874805998906e+00 0 0 0
63 1 2.8717989049834913e+00 1.4343667472584663e+01 1.0191018668315269e-01 0 0 0
79 1 8.9241133268449975e+00 2.0668062533061685e-01 2.9425367889527516e+00 0 0 0
52 2 4.5092693062166536e+00 1.3092205355519996e+01 1.6106169373967654e+00 0 0 0
64 2 4.3043108850235949e+00 1.5889439576956054e+01 1.2965134327694834e+00 0 0 0
54 2 7.3473002771801132e+00 1.3078172479055116e+01 1.7183921931892261e+00 0 0 0
137 1 5.9177512761486541e+00 1.4314577139389323e+01 3.2561300276787333e+00 0 0 0
66 2 7.2823209400364357e+00 1.6131836010367262e+01 1.5801086841220222e+00 0 0 0
139 1 8.6449921515657238e+00 1.4766650439644675e+01 2.9238261716499334e+00 0 0 0
67 1 8.5925310139753215e+00 1.4357977001983151e+01 2.9136683258926949e-01 0 0 0
418 2 1.2748394597769048e+01 1.3172544768101226e+01 1.5770116734439014e+01 0 0 0
81 1 1.1589048299527185e+01 6.5546804227077468e-02 2.8826089518323106e+00 0 0 0
56 2 9.8645302313898160e+00 1.2977733606177676e+01 1.5670559375645889e+00 0 0 0
141 1 1.1490228736931543e+01 1.4602127281856912e+01 2.7802933712502278e+00 0 0 0
68 2 9.9981902219926440e+00 1.6138690624856011e+01 1.5123789607019469e+00 0 0 0
424 2 4.4113837111135270e+00 1.5493721190342070e+01 1.5723279048918643e+01 0 0 0
60 2 1.5828753825356850e+01 1.3222261784550014e+01 1.7120630386909710e+00 0 0 0
142 2 1.2889766272892413e+01 1.5809584993123019e+01 4.4677392210419660e+00 0 0 0
70 2 1.2942162299730610e+01 1.5948988234932070e+01 1.3860430564884212e+00 0 0 0
143 1 1.4286447497655470e+01 1.4479880907516495e+01 2.9714528173107242e+00 0 0 0
72 2 1.5690970931998526e+01 1.5780203964893758e+01 1.5040029435638229e+00 0 0 0
132 2 1.5713386916379815e+01 1.2941385518286422e+01 4.4298391739393921e+00 0 0 0
144 2 1.5876153273277898e+01 1.5639336338598596e+01 4.2016817276193779e+00 0 0 0
130 2 1.2926166917113838e+01 1.3100441008818169e+01 4.2791088657335097e+00 0 0 0
159 1 2.9033438031333771e+00 2.8154145224067779e+00 5.7790501849393046e+00 0 0 0
146 2 1.1630584807103699e+00 1.6794097455251447e+00 7.0750794134453905e+00 0 0 0
157 1 1.7172896688773875e+01 2.8406872411345558e+00 5.6882688633622305e+00 -1 0 0
147 1 2.8015909544048117e+00 2.2184828344234120e-01 5.8586414372319906e+00 0 0 0
76 2 4.6385902096109595e+00 1.3430637622512456e+00 4.3372430775048585e+00 0 0 0
148 2 4.2606663526734527e+00 1.4603866759268918e+00 7.3764121183654385e+00 0 0 0
161 1 5.9570358911117758e+00 2.9263500632963222e+00 5.6772694258204375e+00 0 0 0
150 2 7.4147284104725246e+00 1.4649877718106257e+00 7.2947360670523436e+00 0 0 0
160 2 4.4908112497069652e+00 4.0972273420552696e+00 7.1931696328098171e+00 0 0 0
162 2 7.2465285836930038e+00 4.1159401896619707e+00 7.1248106759051009e+00 0 0 0
221 1 5.9018457057967257e+00 9.8709665161759830e-02 8.7120691204565475e+00 0 0 0
149 1 6.0843715066444348e+00 6.7887100057909405e-02 5.9067898335618585e+00 0 0 0
163 1 8.6705733129454821e+00 2.9055969736319005e+00 5.6321758104396640e+00 0 0 0
80 2 1.0227217160077776e+01 1.5469346199848419e+00 4.3528325157386183e+00 0 0 0
165 1 1.1485937015295232e+01 3.0045087437672073e+00 5.8009891740946804e+00 0 0 0
152 2 9.9333902962451912e+00 1.7713019331073685e+00 7.4394539698484632e+00 0 0 0
237 1 1.1454409892000562e+01 2.9018366438972998e+00 8.7268693853341439e+00 0 0 0
154 2 1.3077409239518225e+01 1.5151832332447468e+00 7.3061010514854834e+00 0 0 0
167 1 1.4449373464090888e+01 2.7383744405176187e+00 5.6760314730645662e+00 0 0 0
156 2 1.5888110132000120e+01 1.2641741521935550e+00 7.1863570839218305e+00 0 0 0
155 1 1.4168396916594038e+01 1.7061928733961366e+01 5.7935858861372633e+00 0 -1 0
145 1 1.3367867616205942e-01 1.7135161745901517e+01 5.4859226757355453e+00 0 -1 0
217 1 1.7222445195371463e+01 1.7118450461181990e+01 8.7607101716169851e+00 -1 -1 0
229 1 1.4398451828552439e-01 2.9058338979021041e+00 9.0522568313599336e+00 0 0 0
158 2 1.4440690882582301e+00 4.2048632421360326e+00 7.3202650096852322e+00 0 0 0
100 2 4.1728658294701217e+00 6.8722772461443773e+00 4.4898514775730636e+00 0 0 0
171 1 3.1384096500264769e+00 5.4838334984913084e+00 5.9447003504265439e+00 0 0 0
170 2 1.3930894563437006e+00 7.0774954463397242e+00 7.2309618621407932e+00 0 0 0
169 1 1.7047878021974327e+01 5.6056448894395929e+00 6.0829944633264690e+00 -1 0 0
172 2 4.4462751709672910e+00 7.1239692545260613e+00 7.2073536790609145e+00 0 0 0
183 1 2.6605344518939988e+00 8.6130327808128282e+00 5.8339204508723048e+00 0 0 0
255 1 2.9804206699476454e+00 8.5404766040658000e+00 8.6185313429243742e+00 0 0 0
88 2 4.4903597444205285e+00 4.3038395181703759e+00 4.2993890033550022e+00 0 0 0
173 1 5.7215936962173046e+00 5.7115259142340147e+00 5.8613792187626945e+00 0 0 0
174 2 7.2412920015645641e+00 6.9299786182260110e+00 7.2382910566447691e+00 0 0 0
245 1 5.4690278534798757e+00 5.4430798665745908e+00 8.6817383889276716e+00 0 0 0
185 1 5.7973542466895376e+00 8.4218638788120028e+00 5.6967572224298761e+00 0 0 0
175 1 8.7229907585627213e+00 5.6647080899437778e+00 5.8816204542640325e+00 0 0 0
247 1 8.8582558252651964e+00 5.7723563332642414e+00 8.7436933719265095e+00 0 0 0
259 1 8.5643861630173923e+00 8.4127853513252440e+00 8.7475747667785750e+00 0 0 0
166 2 1.3281556204383408e+01 4.3306760152450972e+00 7.3522945764978296e+00 0 0 0
164 2 1.0242527674486908e+01 4.4890334704315293e+00 7.2860757288052715e+00 0 0 0
104 2 1.0447001992222111e+01 7.1121469776984458e+00 4.2278340499337173e+00 0 0 0
177 1 1.1751016602636554e+01 5.7225899905534190e+00 5.8321002006527873e+00 0 0 0
176 2 1.0241542046111594e+01 7.2687940989142552e+00 7.2580091043061108e+00 0 0 0
189 1 1.1420642323005008e+01 8.5762769395513487e+00 5.6909226071461534e+00 0 0 0
249 1 1.1675101323348093e+01 5.8096771034801939e+00 8.5781775417590751e+00 0 0 0
187 1 8.4251780256460886e+00 8.4777394709299472e+00 5.7838642922811863e+00 0 0 0
168 2 1.6058509764800345e+01 3.9683445627126965e+00 7.6492929909550744e+00 0 0 0
178 2 1.3042682051725928e+01 7.0993083596733655e+00 7.3176792732032458e+00 0 0 0
179 1 1.4778296772684371e+01 5.7093459890514957e+00 6.1320269855628382e+00 0 0 0
180 2 1.5889721168548034e+01 7.2656012603894977e+00 7.5541934833847941e+00 0 0 0
191 1 1.4366462772430332e+01 8.7302034339797032e+00 5.6790847059636329e+00 0 0 0
181 1 1.7195538731668591e+01 8.5061423648335417e+00 5.8634636444443018e+00 -1 0 0
110 2 1.4216367412601751e+00 1.0042831370681505e+01 4.3185074351741344e+00 0 0 0
195 1 2.9198917184747839e+00 1.1220443255118976e+01 5.7262418094213299e+00 0 0 0
182 2 1.4840711189158664e+00 1.0062925503510749e+01 7.4460947128162145e+00 0 0 0
184 2 4.4071143438200524e+00 9.8166596497250165e+00 6.9758511551194946e+00 0 0 0
193 1 1.7142949443174832e+01 1.1395664086225903e+01 5.6149541029744947e+00 -1 0 0
267 1 2.7852530854506670e+00 1.1558544661365303e+01 8.7308771893602817e+00 0 0 0
114 2 7.2650488135324052e+00 9.7643382120595295e+00 4.3143994047809517e+00 0 0 0
197 1 5.8674287588213767e+00 1.1188177883473104e+01 5.7703455782603355e+00 0 0 0
186 2 7.1762210134774422e+00 9.8664345618875782e+00 7.3892315323533770e+00 0 0 0
199 1 8.7348748603742177e+00 1.1400941960488286e+01 5.7330221139973938e+00 0 0 0
126 2 7.4264543148005053e+00 1.2822188874298130e+01 4.5128037737604680e+00 0 0 0
198 2 7.2034951390385045e+00 1.2923562200424104e+01 7.1575866621385673e+00 0 0 0
257 1 5.5784149158106784e+00 8.6097456629371258e+00 8.7062757391153056e+00 0 0 0
269 1 5.7974157022003299e+00 1.1430573926593585e+01 8.3482639465954200e+00 0 0 0
118 2 1.2910988818642602e+01 1.0110966229813824e+01 4.2590098454691274e+00 0 0 0
261 1 1.1711448520428165e+01 8.6265731604250799e+00 8.7331044548073287e+00 0 0 0
271 1 8.7600843986798420e+00 1.1412178820510329e+01 8.7742365352860379e+00 0 0 0
201 1 1.1443478580755423e+01 1.1654146013191273e+01 5.5476529885101424e+00 0 0 0
188 2 9.9657911426008852e+00 1.0079638446891927e+01 7.0985519314499514e+00 0 0 0
273 1 1.1521685026654815e+01 1.1346863244779200e+01 8.7288811801131807e+00 0 0 0
190 2 1.3081317706385185e+01 1.0000589907824054e+01 7.1851284274884453e+00 0 0 0
203 1 1.4487659940590380e+01 1.1279844981636522e+01 5.7922605360944024e+00 0 0 0
192 2 1.6031947457855907e+01 9.8813744668816188e+00 7.1616279778245131e+00 0 0 0
194 2 1.5131178443547459e+00 1.2933961537402302e+01 7.0318678931448133e+00 0 0 0
134 2 1.6478053046702341e+00 1.5716146801994300e+01 4.4604134666389657e+00 0 0 0
207 1 2.9561937628907442e+00 1.4283774365887178e+01 5.8482273203630220e+00 0 0 0
206 2 1.4829796949076959e+00 1.5876564506779376e+01 7.0752508487244459e+00 0 0 0
205 1 1.7126757180347610e+01 1.4362950010054069e+01 5.8547326165852667e+00 -1 0 0
208 2 4.3964036982526702e+00 1.5926629650502383e+01 7.1998079025026183e+00 0 0 0
279 1 2.9119136592616730e+00 1.4409850437858102e+01 8.3992032779635952e+00 0 0 0
136 2 4.1426547465068566e+00 1.5937356129573658e+01 4.4124402952447674e+00 0 0 0
196 2 4.3548397982437166e+00 1.2793687261080716e+01 7.1248142918583577e+00 0 0 0
138 2 7.1482398245317889e+00 1.5888369556852556e+01 4.1395361769260832e+00 0 0 0
209 1 6.1221658397114789e+00 1.4594494615939558e+01 5.8710110536254758e+00 0 0 0
210 2 7.5917567522808849e+00 1.5969447108940955e+01 7.1940329780786838e+00 0 0 0
151 1 8.7701774306410449e+00 2.4513613407942611e-01 5.8698363422420439e+00 0 0 0
281 1 5.9936617597226753e+00 1.4584838270410708e+01 8.5086690916114556e+00 0 0 0
211 1 8.7222045205536123e+00 1.4363438219546966e+01 5.7085705385728902e+00 0 0 0
140 2 1.0117373243886115e+01 1.5940372673689261e+01 4.6071855610631065e+00 0 0 0
128 2 1.0137440895602563e+01 1.2995021455885382e+01 4.2480797277966591e+00 0 0 0
153 1 1.1581063204370547e+01 1.5816001542429020e-01 5.8986693269153463e+00 0 0 0
200 2 9.8814800328927124e+00 1.3048422793660775e+01 7.4248453520100766e+00 0 0 0
213 1 1.1567660326711206e+01 1.4339689477472048e+01 5.8339783859896484e+00 0 0 0
212 2 1.0102403447750955e+01 1.6037359992166159e+01 7.2441473420833518e+00 0 0 0
214 2 1.2928213250602397e+01 1.5701754190190670e+01 7.4478181831614281e+00 0 0 0
223 1 8.8332876253576131e+00 2.6273630599481379e-01 8.8636064069851592e+00 0 0 0
202 2 1.2814987998087261e+01 1.2926421134655071e+01 7.3819726812071682e+00 0 0 0
204 2 1.5523633926437393e+01 1.2876388825240296e+01 7.2340702532606000e+00 0 0 0
215 1 1.4300380292182780e+01 1.4441347770657403e+01 5.9178261233174556e+00 0 0 0
216 2 1.5825713008378727e+01 1.5827565800861700e+01 7.2734116748634081e+00 0 0 0
277 1 6.2755024498157480e-02 1.4200811666100359e+01 8.4638505206881973e+00 0 0 0
231 1 2.9476379433333988e+00 2.8315504498362851e+00 8.8089090107196650e+00 0 0 0
303 1 3.0148946206926950e+00 2.6235975385023518e+00 1.1776487347007796e+01 0 0 0
218 2 1.5398889310517458e+00 1.2713393626806424e+00 1.0185768925828601e+01 0 0 0
290 2 1.5469077111081906e+00 1.1686921970530992e+00 1.3123014770591332e+01 0 0 0
230 2 1.4451187842457773e+00 4.1339061122412311e+00 1.0484795639780385e+01 0 0 0
220 2 4.2737401265774446e+00 1.3665475121729511e+00 9.9297181651041360e+00 0 0 0
291 1 3.1891848013498945e+00 9.5651973806674562e-02 1.1673671173910025e+01 0 0 0
219 1 2.7322504821571649e+00 7.0617291375356217e-02 8.4166767360082861e+00 0 0 0
304 2 4.4003019848453953e+00 4.1746542174640116e+00 1.3000002880106665e+01 0 0 0
233 1 5.8722836647862096e+00 2.8565245162291228e+00 8.7320474038329738e+00 0 0 0
305 1 5.8852529227912802e+00 2.8115661497986966e+00 1.1532855634706220e+01 0 0 0
222 2 7.2429051467451728e+00 1.2760818388965887e+00 1.0149851521253300e+01 0 0 0
234 2 7.1369668715483918e+00 4.1822673692041921e+00 1.0271054854591249e+01 0 0 0
307 1 8.5167807131808821e+00 2.8628915515372579e+00 1.1654371530783319e+01 0 0 0
232 2 4.3174589260126055e+00 4.1150067514095525e+00 1.0362442979048900e+01 0 0 0
294 2 7.0126571331159866e+00 1.3910350860406548e+00 1.2982327366188088e+01 0 0 0
235 1 8.8407745484980129e+00 2.7697075372848836e+00 8.8558022694884393e+00 0 0 0
309 1 1.1744751643453837e+01 2.9867732280252670e+00 1.1638761316772046e+01 0 0 0
224 2 1.0130583567717743e+01 1.7022593807309401e+00 1.0260434140482346e+01 0 0 0
297 1 1.1512209371451760e+01 1.0275846822639778e-01 1.1594452463232855e+01 0 0 0
296 2 1.0111769008905533e+01 1.4713201793456014e+00 1.2952547485867349e+01 0 0 0
226 2 1.3111798275547732e+01 1.4143393199222380e+00 1.0185348362163348e+01 0 0 0
239 1 1.4516644615250938e+01 2.8375417879962654e+00 8.8099892086071065e+00 0 0 0
301 1 1.3159754214055042e-01 3.0008847519747817e+00 1.1721317141676789e+01 0 0 0
311 1 1.4607711463072910e+01 2.6714988628358083e+00 1.1706629113492470e+01 0 0 0
228 2 1.6063584093734786e+01 1.5677847503191966e+00 1.0256237630182875e+01 0 0 0
299 1 1.4387235426864478e+01 1.7202838070912883e+01 1.1642022579685095e+01 0 -1 0
240 2 1.5884133208535971e+01 4.4587839862530538e+00 1.0367076532077675e+01 0 0 0
243 1 2.9088104632260237e+00 5.6636667254457480e+00 8.6425690506975617e+00 0 0 0
253 1 1.7280824077774842e+01 8.4413918462119550e+00 8.8980034477415550e+00 -1 0 0
315 1 2.8769343693216656e+00 5.7846524487099309e+00 1.1803644165025023e+01 0 0 0
242 2 1.4388382647908886e+00 6.8697998523127897e+00 1.0074937106072205e+01 0 0 0
327 1 3.0510751551382302e+00 8.4070205752618055e+00 1.1626357518583935e+01 0 0 0
306 2 7.0429806161664557e+00 4.2251907740848464e+00 1.2910746648678872e+01 0 0 0
244 2 4.1775532986365640e+00 6.9167641198437995e+00 1.0190857123154988e+01 0 0 0
317 1 5.6329681980999817e+00 5.7879076702443140e+00 1.1575490145232619e+01 0 0 0
246 2 7.1146961245790736e+00 7.0345991580521776e+00 9.9936547931713378e+00 0 0 0
318 2 7.3185046674481793e+00 7.2638224113210743e+00 1.2950593606797840e+01 0 0 0
329 1 5.6566166825677122e+00 8.7118761690220214e+00 1.1564445776826357e+01 0 0 0
236 2 1.0325308287787534e+01 4.5820510331673940e+00 1.0071550247232143e+01 0 0 0
238 2 1.3142766210391637e+01 4.1983587212395159e+00 1.0194746550556957e+01 0 0 0
319 1 8.5960962156312402e+00 5.6633201148551127e+00 1.1517766190945405e+01 0 0 0
321 1 1.1721209400317502e+01 5.7903162780298656e+00 1.1769506609692643e+01 0 0 0
248 2 1.0354198990229197e+01 7.1772052857357851e+00 1.0249651741504726e+01 0 0 0
333 1 1.1672207374766636e+01 8.7348514164812983e+00 1.1798430806331057e+01 0 0 0
331 1 8.7193063751977355e+00 8.5219960377251471e+00 1.1488147485976851e+01 0 0 0
251 1 1.4312287077381601e+01 5.6704678604280829e+00 8.7767918628660375e+00 0 0 0
241 1 1.4766437239411445e-01 5.7777168631021221e+00 8.6462254814800517e+00 0 0 0
250 2 1.2855225151269117e+01 7.1051563080720328e+00 1.0270242836564099e+01 0 0 0
322 2 1.3140508047022720e+01 7.3806410472594619e+00 1.3022441733786451e+01 0 0 0
313 1 1.2805362638657719e-01 5.6048965818568304e+00 1.1795909542417743e+01 0 0 0
323 1 1.4479844290955510e+01 5.6995781911797341e+00 1.1832114293425347e+01 0 0 0
252 2 1.5787838823719047e+01 7.2430137703313537e+00 1.0362033043416558e+01 0 0 0
324 2 1.5762344764546357e+01 7.2156201776097957e+00 1.3149857499434249e+01 0 0 0
265 1 1.7279002285553272e+01 1.1412537820740917e+01 8.5742000906295566e+00 -1 0 0
339 1 2.7870469193443372e+00 1.1371023651181074e+01 1.1734442542771655e+01 0 0 0
254 2 1.5365591418396716e+00 9.9720666329432959e+00 1.0293351696107912e+01 0 0 0
256 2 4.2792969028976291e+00 1.0209772461266615e+01 9.9089793388483276e+00 0 0 0
328 2 4.2345937649312280e+00 9.9227390111145422e+00 1.3117147984405982e+01 0 0 0
337 1 2.1417520058648570e-01 1.1505165437947285e+01 1.1449288266477977e+01 0 0 0
341 1 5.9624049611425276e+00 1.1410202685295085e+01 1.1610479926514065e+01 0 0 0
258 2 7.1667400739790823e+00 1.0004355225939735e+01 1.0153751722354642e+01 0 0 0
270 2 7.2056929356219710e+00 1.2945659282556520e+01 1.0128444303590136e+01 0 0 0
330 2 7.5564209433605178e+00 1.0022432887023664e+01 1.2992410008891731e+01 0 0 0
343 1 8.8176658750577666e+00 1.1509114559453511e+01 1.1506958616937279e+01 0 0 0
345 1 1.1472620372445748e+01 1.1355767661221368e+01 1.1726708156242482e+01 0 0 0
260 2 1.0132631888983990e+01 1.0041415874686788e+01 1.0106253749494890e+01 0 0 0
262 2 1.3009467920121470e+01 1.0187222125380952e+01 1.0158736242450578e+01 0 0 0
334 2 1.3188656846399892e+01 9.8775139299878152e+00 1.3048531066036890e+01 0 0 0
272 2 1.0113560661307480e+01 1.3051287255918796e+01 1.0197726609571882e+01 0 0 0
263 1 1.4681326814995536e+01 8.5724987454520001e+00 8.9073028152249201e+00 0 0 0
325 1 9.0504224162021529e-02 8.4419641283368438e+00 1.1748448313210215e+01 0 0 0
335 1 1.4432949333751635e+01 8.8118571058537913e+00 1.1501070585632137e+01 0 0 0
275 1 1.4433915720792202e+01 1.1289612971727735e+01 8.6878149699175840e+00 0 0 0
347 1 1.4624931474002521e+01 1.1477483053028319e+01 1.1379565150499737e+01 0 0 0
264 2 1.6063624341631098e+01 1.0008759480354328e+01 1.0317821738548561e+01 0 0 0
276 2 1.5931379115300226e+01 1.3010266130690573e+01 1.0134282075229091e+01 0 0 0
274 2 1.3016818463873589e+01 1.2939134428181555e+01 1.0000651126135821e+01 0 0 0
266 2 1.3014794313714999e+00 1.3177962754713773e+01 1.0149647187938024e+01 0 0 0
268 2 4.3294345200907305e+00 1.3075593284842185e+01 9.9522238559843981e+00 0 0 0
340 2 4.2773869409942202e+00 1.2690907205350502e+01 1.2829071477648746e+01 0 0 0
351 1 3.0934474346734149e+00 1.4671220221852526e+01 1.1532844113313889e+01 0 0 0
278 2 1.7184206718837534e+00 1.5801030101761267e+01 1.0111317291828030e+01 0 0 0
349 1 1.4523199943230630e-01 1.4487816699756157e+01 1.1575137967970834e+01 0 0 0
283 1 8.8249547502705301e+00 1.4721087843060870e+01 8.7624992899027792e+00 0 0 0
293 1 5.7213880135591513e+00 1.7066822967555645e+01 1.1326640467609742e+01 0 -1 0
280 2 4.3545261936160991e+00 1.5874467749000864e+01 9.9241886224429070e+00 0 0 0
353 1 5.7770995529995712e+00 1.4454263705470265e+01 1.1722298356569377e+01 0 0 0
282 2 7.3281898929376537e+00 1.5844887821354760e+01 9.9710516286061388e+00 0 0 0
355 1 8.3790599168788109e+00 1.4325827511940465e+01 1.1664118063180400e+01 0 0 0
342 2 7.3486421416513847e+00 1.2845800877132520e+01 1.3068084190510746e+01 0 0 0
285 1 1.1308424250467304e+01 1.4529150138722400e+01 8.6026502192240368e+00 0 0 0
225 1 1.1700161305234449e+01 2.1083242980231987e-01 8.5217709453599095e+00 0 0 0
295 1 8.6123269590090175e+00 1.7111006002229420e+01 1.1631486268611898e+01 0 -1 0
357 1 1.1599591136559910e+01 1.4299994188542536e+01 1.1675730888073881e+01 0 0 0
284 2 1.0315187006274195e+01 1.5998330138421450e+01 1.0285385468869695e+01 0 0 0
286 2 1.2844666592411015e+01 1.5852287965878858e+01 1.0070966033457536e+01 0 0 0
358 2 1.2953122048937759e+01 1.5759826605946017e+01 1.3067738920902123e+01 0 0 0
289 1 1.7232275053397188e+01 1.7071129744669292e+01 1.1639026593877494e+01 -1 -1 0
227 1 1.4511889976857351e+01 1.0681237953037837e-01 8.7738352082602713e+00 0 0 0
348 2 1.6070305883793253e+01 1.2794568802862612e+01 1.2804356278636661e+01 0 0 0
287 1 1.4640079529837676e+01 1.4579708770797827e+01 8.6795132869708169e+00 0 0 0
359 1 1.4297960425863408e+01 1.4343915591211381e+01 1.1628716589335289e+01 0 0 0
288 2 1.6019262834838266e+01 1.5723746784137511e+01 1.0462558601068661e+01 0 0 0
375 1 2.8099959841544013e+00 2.7990745699995676e+00 1.4561892305125864e+01 0 0 0
362 2 1.5093386105142348e+00 1.6473635494106595e+00 1.5892532627068835e+01 0 0 0
373 1 1.7163729055359305e+01 2.5820774932095505e+00 1.4417027886937216e+01 -1 0 0
361 1 1.7223900823036029e+01 1.7158042422157166e+01 1.4388281284597092e+01 -1 -1 0
364 2 4.3329679265402588e+00 1.4303115657422176e+00 1.5807239557351194e+01 0 0 0
374 2 1.2683549946273152e+00 4.3274900029067611e+00 1.5917221261075357e+01 0 0 0
363 1 2.8275783585991210e+00 1.7160700495112675e+01 1.4615905960668115e+01 0 -1 0
426 2 7.2504766198127291e+00 1.5740424983826509e+01 1.5901100976808101e+01 0 0 0
365 1 5.7287121898262399e+00 1.7056255551895056e+01 1.4634084261445325e+01 0 -1 0
39 1 2.6749041949185601e+00 8.5316466817458529e+00 3.5562881678180341e-01 0 0 0
292 2 4.5271818486004403e+00 1.3484891279038855e+00 1.3187879133967936e+01 0 0 0
377 1 5.7801262881106830e+00 2.9907919721074512e+00 1.4479287607139190e+01 0 0 0
366 2 7.0711758834011800e+00 1.3783521193043524e+00 1.5809826969476411e+01 0 0 0
379 1 8.5239125385529988e+00 3.0780237789445555e+00 1.4536693330296375e+01 0 0 0
378 2 7.0614158910386342e+00 4.4374981096986579e+00 1.5919460277077267e+01 0 0 0
376 2 4.0064548047947390e+00 4.4593560903954392e+00 1.5778406397896878e+01 0 0 0
367 1 8.6748362502529908e+00 1.7124114244767405e+01 1.4370320079816587e+01 0 -1 0
310 2 1.3020492029945480e+01 4.2934300423945420e+00 1.3031281974126525e+01 0 0 0
369 1 1.1358884508216468e+01 1.7198228589274805e+01 1.4385270281044761e+01 0 -1 0
381 1 1.1597358040403959e+01 2.9924532970869278e+00 1.4607714353994787e+01 0 0 0
368 2 1.0114731998632321e+01 1.6341849045630523e+00 1.5510292500474245e+01 0 0 0
370 2 1.2936339662951781e+01 1.2597790056651101e+00 1.5831649454084745e+01 0 0 0
380 2 1.0074703947150415e+01 4.5608091481132798e+00 1.5988889425933495e+01 0 0 0
425 1 5.7780482531195423e+00 1.4237763942511796e+01 1.4412773409904192e+01 0 0 0
312 2 1.5795849902110994e+01 4.2029042112617638e+00 1.3243738519392053e+01 0 0 0
300 2 1.6006951548974648e+01 1.4420816856157816e+00 1.3089579600518714e+01 0 0 0
298 2 1.2905812587389386e+01 1.5089447825245133e+00 1.3075756202348305e+01 0 0 0
354 2 7.0814003812060848e+00 1.5786776126825517e+01 1.2984011427968465e+01 0 0 0
383 1 1.4596357263618769e+01 2.8102463442762065e+00 1.4457674689675528e+01 0 0 0
372 2 1.5860023993585576e+01 1.3872971864424783e+00 1.5944035014916286e+01 0 0 0
302 2 1.4218101864613908e+00 4.3558186639666348e+00 1.3207904035806278e+01 0 0 0
314 2 1.4435668222049298e+00 7.1493792884158509e+00 1.3207188879958386e+01 0 0 0
387 1 2.8257262508377012e+00 5.8181548767082072e+00 1.4470737743868645e+01 0 0 0
386 2 1.3881552664841146e+00 7.0504073904477664e+00 1.5882388248840394e+01 0 0 0
316 2 4.3797755739536610e+00 7.3668326574142764e+00 1.3100591159984166e+01 0 0 0
399 1 2.8466715051092502e+00 8.5436065441792266e+00 1.4714850019217598e+01 0 0 0
397 1 1.7281873902683692e+01 8.6517160135618898e+00 1.4568124181915154e+01 -1 0 0
388 2 4.3341431270379944e+00 7.1753241952913989e+00 1.5733768955881393e+01 0 0 0
389 1 5.9118464182393309e+00 5.9044352791109622e+00 1.4415177941536875e+01 0 0 0
390 2 7.1741832619597226e+00 7.2830348626543904e+00 1.5796906095433542e+01 0 0 0
401 1 5.8063880591024146e+00 8.7948654461772282e+00 1.4374963517925048e+01 0 0 0
391 1 8.6014985694886121e+00 5.7199752914186623e+00 1.4551250291741422e+01 0 0 0
49 1 5.8742591227737298e-02 1.1676485971402103e+01 4.4482582727989289e-01 0 0 0
403 1 8.6062246145988315e+00 8.5440242117889884e+00 1.4618255907700753e+01 0 0 0
352 2 4.2393452329819912e+00 1.5822293130118462e+01 1.2993637542715804e+01 0 0 0
308 2 9.8905797311523820e+00 4.2417059045805185e+00 1.3046659435229678e+01 0 0 0