LAMMPS data file via write_data, version 29 Oct 2020, timestep = 250000

2744 atoms
1 atom types

0.027824933675551833 24.78017506632558 xlo xhi
0.027824933675551833 24.78017506632558 ylo yhi
3.944541463482132 55.72135548924917 zlo zhi

Masses

1 58.933

Atoms # atomic

827 1 1.2733310994712235 2.0655235761132182 7.215279390640973 -1 1 0
2426 1 1.5338185706214158 1.8307651400456157 4.7744790878637735 1 3 1
811 1 3.8086774562405097 2.4889823820814465 5.7970256698673 0 0 0
2058 1 2.314182193391998 4.096786877177747 4.068252402196436 2 0 2
840 1 2.9848885868003348 0.7343930335534564 7.102250624281309 0 1 0
2350 1 6.080624712548738 2.9283708344045265 5.82389317993202 2 0 -1
2433 1 5.3752072540957645 2.305878993477694 7.933961581026727 2 0 0
708 1 7.234298182444941 4.020581055792567 7.659596710776372 0 0 0
686 1 5.1020009998803015 0.5359377822854466 6.480950225244202 1 0 0
832 1 7.94379845336981 1.2670434153062113 7.6926389736329295 -1 1 0
185 1 7.36963236944556 0.8435941130032198 5.599387276007633 0 0 0
2290 1 5.88108451203813 0.7478156223451169 4.198564856905932 0 0 -1
2357 1 10.30197942520822 2.4154424975210205 6.95791169098332 1 1 0
298 1 8.425056978808009 3.0069291287306616 5.679955528018594 -1 0 0
1474 1 11.055624004351236 2.2346474168499237 4.85493251903932 1 1 0
2510 1 9.961712957015482 0.09312386454872885 5.942637538085998 2 0 2
2724 1 12.541877161319631 2.470480557596415 6.974287922903192 2 1 2
154 1 14.227772375820956 2.4421782311896396 4.472278183315753 0 1 0
688 1 15.817195521752074 2.8307399806065487 6.158582246194393 0 0 0
46 1 15.99911853832682 1.0873135465625654 7.935782976068566 0 0 -1
812 1 12.736944275862387 0.6307780573587833 5.249218942296377 0 0 0
1928 1 13.9897435183143 0.3467821415160657 7.663747182205299 0 0 3
460 1 15.152050692992095 0.3463614716118336 5.577888562979991 -1 1 0
226 1 17.229534645393258 1.181009158510726 5.506946123314645 -2 1 0
352 1 20.07303965735847 3.196171665885321 7.281041357761092 -1 -1 0
714 1 18.02252259349781 3.63380305759098 6.397949569769581 -1 1 0
93 1 20.628265744840014 1.2133984217503857 7.781559922399193 1 1 0
699 1 18.10757599057878 1.8323763596513987 8.208295447933398 1 0 0
1093 1 19.228968440795754 1.4754323104389861 5.985286186655168 -1 0 0
956 1 24.441825299843934 4.0433216298056855 7.90542402678664 -2 1 0
2136 1 24.62431161291017 0.10100551113968405 7.824742667296279 -2 2 1
2042 1 21.8282847983443 0.4731998742310197 4.30905661706181 0 1 1
228 1 24.038365466879895 1.341865029429868 5.6546868793284 -1 1 0
1339 1 22.965214234355265 1.5084285719675645 7.748439126024053 1 1 0
1481 1 24.705845409938277 3.5196963977045805 5.45370814003011 -1 0 0
1595 1 21.691630963214237 1.8926297351518033 5.943204537558552 -1 0 0
2499 1 22.385166352520642 4.13701160744807 6.611020918506547 -2 0 0
360 1 22.665241881339227 2.961704515626905 4.490552968837993 -1 -1 0
615 1 1.9951318069097315 4.269824072894223 6.798207481677888 1 0 0
1956 1 0.6339472724348377 7.182332794964265 5.232031132362085 3 0 1
1793 1 0.5648987876835541 6.091816526713283 7.019553918817625 0 0 2
193 1 1.7151337124301518 8.13597543952092 7.063316598810433 1 0 0
2162 1 2.860344587950036 6.224147303316568 7.777777992245807 1 -1 1
1062 1 4.1349192188778785 8.156483973438602 7.661088704833965 1 0 0
2201 1 3.1576712398801106 5.776176794554678 5.514551117981647 0 2 -1
1079 1 4.213718556995882 4.270176682772616 6.990268071086033 0 1 0
2123 1 5.486707697246617 5.366577074652077 5.506099193967561 1 0 1
364 1 6.9857726708716505 7.797617312119418 5.925923336000394 0 0 0
1053 1 7.934361838210217 5.600124418386597 6.033708514788745 0 0 0
260 1 4.762298964162007 7.479769592091263 5.428818982061199 0 0 0
1712 1 6.355376206847701 8.202693070718801 7.918821651097466 -2 0 3
146 1 5.982818332933522 5.950994889323167 7.921250790668401 0 0 0
747 1 6.587444622425008 4.403104200772876 4.053382386051652 0 0 0
557 1 11.40051639787572 4.241648772268229 5.959970898930491 -1 1 0
2687 1 9.074446388422361 7.39832570996832 4.351821591767269 1 0 1
760 1 8.774067057180803 7.181235156939374 7.093765276200782 -1 1 0
2686 1 9.7095684223502 4.725623674707679 7.365883098759772 0 1 0
2574 1 10.618875446458697 6.408540576070091 6.075312941496456 -1 -2 3
573 1 9.706186801922488 4.400443467226424 4.395751922491365 1 0 0
612 1 10.824628723636806 7.361106788812637 8.057862762072443 0 1 0
1530 1 11.067085164115294 6.292861711816352 4.080352071623672 1 1 1
242 1 13.885246086502136 4.191426653652456 5.920275014702617 0 0 0
521 1 16.133212494381077 5.669741691424282 6.636852394871871 -1 0 0
261 1 12.558099974032523 4.7823101153588174 7.966069508921137 0 1 0
373 1 12.75802985353123 6.428679126550348 5.91827256628625 0 0 0
931 1 14.323501784238982 6.117524773825204 7.728958895260919 -1 2 0
1066 1 15.504909003769747 8.015515253364317 6.2711522466261 -1 1 0
546 1 14.1176830175177 6.289851746507171 4.329249332674121 0 0 1
1438 1 15.263052452728743 4.493639077835929 4.245399582873493 -1 1 1
2388 1 13.099731399460437 8.17823152202249 7.5897802279441215 0 1 0
52 1 18.244372428168397 5.929829937624422 6.5633339312574455 0 -1 0
848 1 19.130231442689244 7.311743232914402 4.77218013067441 0 0 0
1850 1 20.350098263920422 4.3025049246424745 5.458041840762208 -3 1 1
1098 1 17.483738916216133 4.890733950642766 4.543481066818662 -1 1 0
1227 1 20.41359896102425 6.085208914184851 7.208877983746228 -1 0 0
115 1 16.54306056671794 6.843700376619103 4.510270152171413 0 0 0
2128 1 22.846455050874944 7.847355073037531 4.534940893009002 1 1 0
1437 1 21.3507307883514 6.173590217833948 4.638911984986013 0 -3 1
741 1 23.88251837983963 5.49258597699467 4.711858314466971 0 0 0
282 1 22.93185276865055 6.388332852669569 6.452496722728763 -1 0 0
1957 1 2.7525845207428667 8.759288254257969 5.1698926188562915 -2 1 2
1539 1 3.7864627144431937 10.527852111487467 6.815270319938893 0 0 1
1610 1 3.0624040504530337 11.11835723657146 4.477451382780343 0 -1 1
1469 1 0.49069519599620887 8.93721358906875 4.081330252891571 2 0 0
2734 1 0.9216011389242149 11.522067588754672 4.085052363376733 3 2 1
1004 1 1.1606721386245353 10.230543564225057 6.4758904375480775 0 1 0
378 1 0.7993018087901689 11.975666769146581 8.047144692134374 0 1 0
914 1 5.447883154949368 9.36130603952451 5.96133665543001 0 1 0
440 1 6.689937209799496 10.996287356397435 5.621182531307747 0 0 0
206 1 6.973876320837825 9.127854723527655 4.09067989365812 1 -1 0
2522 1 10.95250602313488 8.595257444300971 4.441625857216711 1 1 1
1007 1 8.982860658936493 9.34650313127586 5.689219824224844 0 0 0
767 1 11.046161818599915 9.607155440869109 7.0338004567031875 0 1 0
1088 1 10.86625822879951 11.055823846143259 4.870377878480372 0 1 0
880 1 10.507588578346466 11.428267910704779 8.21070639968082 0 1 0
176 1 8.375815758014706 9.51824444679973 7.759305909795091 0 0 0
1064 1 8.971899410743797 11.676858801570653 6.231563116793984 -1 0 0
711 1 14.978091468641265 9.19026490828139 4.2779353762248435 0 0 0
723 1 14.81091704634638 9.922486058206157 7.159397107814444 -1 0 0
1543 1 14.521396327625656 12.01788305258512 7.210407465612597 -1 0 0
1522 1 12.968409275584623 10.919997933082582 5.894153666175725 -1 0 0
709 1 12.84219713088535 8.807061260452999 5.356916383983898 0 0 0
2031 1 14.561835248066384 11.153138582768884 4.854819862568498 1 3 3
1233 1 17.144642620138896 9.307151170198345 4.331363988608249 -1 0 0
817 1 17.808702460134874 8.28192898140816 6.668401652719902 0 0 0
1263 1 20.163791340753463 8.419531637197458 6.595060158029559 0 0 1
1113 1 18.759174310095666 10.271401090944035 5.934798849806987 0 1 0
318 1 17.157155511194155 11.925225737945533 4.385136401042175 0 0 0
196 1 16.535488178007377 10.754933971399531 6.162505718466933 -1 1 0
1201 1 20.251550018132683 11.119328149627352 6.945669937825707 -1 0 0
837 1 22.207103992043635 8.518130756886869 7.840015620611818 -1 0 0
2374 1 21.884215235303834 9.836760017086673 6.158597244929741 0 1 -1
1225 1 24.164799681566606 8.651552594797826 6.2998375558428386 0 1 0
872 1 22.98438353769 10.869671828998115 7.660703139229428 0 0 0
2381 1 23.361244339548314 10.271990742054296 4.595068426711763 0 1 1
2092 1 20.885038210637674 9.231066751469385 4.386233631143909 -2 0 2
2407 1 1.6030333649717594 14.296385716589235 4.6807223277917505 0 0 1
103 1 2.4289336794618537 12.416378528291677 6.092473162556558 0 -1 0
363 1 2.9699060937622836 14.99329140282617 6.066726991147625 0 0 0
798 1 3.2743773131591083 16.296028903887184 8.054005071028206 1 0 0
1506 1 1.1650256718101946 16.366560353384855 7.109518687073736 -1 1 1
1061 1 0.8729799620995918 14.180677704021972 7.222845749960116 1 1 0
480 1 7.7629486708081625 14.554475542322605 4.061389606848003 -1 0 0
2606 1 7.18048613978184 13.422944855936105 6.354200460994397 1 2 2
2517 1 5.4328139412884004 14.787567818920923 4.952246444908863 0 0 0
2188 1 4.6892122494277135 12.60034155773756 5.860011999317991 1 0 0
5 1 4.534327908427444 14.173852768312974 7.622820266226878 -1 0 0
1397 1 5.2748135034842525 16.412957126144875 6.7016824968932935 1 0 -1
1078 1 7.471132438639643 15.870415868236684 6.006268253265828 0 0 0
1678 1 6.083622837304976 12.95407398519397 4.0526362141398025 1 2 1
401 1 9.812879434211476 13.712901168445969 4.618574112270823 0 0 0
1491 1 11.004730445856042 12.77157099900691 6.640879160777019 0 0 1
2307 1 9.220310773406101 14.45830170284532 6.593971042398621 -3 3 0
770 1 11.91628618772398 14.709061343125123 7.672327965122673 0 0 0
887 1 11.800719898532744 14.658791889588317 5.341072033135578 0 1 0
147 1 9.612205605303162 15.972227787065123 4.6057414295643415 0 -1 0
2509 1 13.553655556435602 13.365525949282404 4.9728768219274135 1 -1 2
1399 1 16.220522519738616 13.255593532860269 6.135948558076733 2 -1 2
2045 1 15.630712115347597 15.262725917017361 5.0686954712159835 -1 -1 0
1990 1 14.068059896312754 14.266021620521517 6.995427270818039 1 0 2
2312 1 16.4528995901017 15.289705062931663 7.5893410292741414 0 0 1
1457 1 14.665296675447081 16.446041614875654 8.171716075357804 -1 -1 -1
692 1 13.757309309215136 16.187735349909552 4.315317822507539 -1 0 0
863 1 20.249348022998937 12.508793424559773 5.28399672557482 -1 0 0
791 1 18.330081234268455 12.859031795382263 6.647828602952588 -1 0 0
1620 1 19.999796595420783 16.39437521416783 5.931685493528656 2 -1 1
1844 1 19.49359211722321 14.403018461246214 4.877061542793279 -1 -1 0
813 1 19.225669432109584 14.69008474540989 7.475759868116814 0 -1 0
1949 1 17.766594237546315 16.273194815879464 6.108884987840496 0 -1 0
581 1 16.77647956697343 12.566599748567898 8.182690000253515 0 0 0
1424 1 17.531671996175085 14.963104024381412 4.124866943079375 -1 -3 2
1114 1 24.778448466202548 12.4489761691448 6.003256969331916 -1 1 0
1497 1 22.570516721076103 12.480186505548279 5.9215342485002616 1 0 1
329 1 24.506861602941477 16.288530619426936 5.1534337215477795 -1 1 0
2341 1 23.932376252681422 14.066958826129587 4.992912100017408 -2 1 -1
1435 1 21.353333660681812 14.161116298773562 6.763050210015917 0 -1 1
466 1 22.005740215728594 15.163273142789905 4.602454376902553 1 -1 0
2447 1 23.746012986390234 15.411782844906089 7.063214348672588 1 -2 2
436 1 21.017149812839335 16.171245297849246 8.080487559735372 -1 0 0
1344 1 23.461594670148585 13.361434603873295 8.010314873869174 0 0 0
1730 1 3.125438621220956 17.383730885085193 5.366724145347336 0 -2 1
2158 1 2.1910706865552654 19.614308933268987 5.7256341099892865 0 -1 1
824 1 1.2416433764384813 18.525428874114468 8.115584092903244 1 1 0
243 1 3.25674448787229 18.35155784860074 7.503094294713077 0 -1 0
2688 1 1.827507939985458 18.42185709118769 3.9801292007324207 2 0 2
831 1 4.625320829084687 19.102715921387713 5.573071947573439 -1 0 0
1070 1 5.30346275449675 17.272121676663446 4.42429935680735 -1 0 0
2563 1 7.827799008545488 18.97027083134263 5.005423278924339 -2 1 0
61 1 6.442162363564539 18.386759684593528 7.077761450216158 0 0 0
2338 1 10.554005886486133 20.29452796730402 4.207036887589719 -2 1 2
1736 1 8.869778902740531 17.482391549667838 6.908982686498184 1 1 1
267 1 11.920605495358982 19.036293276311667 5.437630805326307 0 -1 0
1806 1 9.940339545896279 19.891422663002366 6.7667028740061 1 -1 2
1133 1 11.157328742352714 16.679041492385068 6.590727955593515 0 0 0
1810 1 11.678562410083446 17.03511471671687 4.16722542242968 -2 -2 1
355 1 9.869793504688264 18.10932628217897 5.123855110671042 1 0 0
1400 1 15.619820967260738 17.588985148204912 6.084841571071347 0 -1 0
720 1 13.271203622684071 17.116913551098982 6.06844103271664 0 1 0
903 1 14.37695906946251 19.844733648095577 6.072269239797526 0 0 0
119 1 12.450053579210298 19.5730495213568 7.458371983699903 0 -1 0
574 1 16.237016368232894 19.457597714686365 4.369836499218796 0 -1 1
657 1 16.52555999897958 19.904862040673954 6.7835672114386 0 -1 0
58 1 15.008032656219424 18.769403876440627 8.066362043872449 0 -1 -1
1429 1 13.973383422429764 18.568575669637312 4.182696795596364 -1 1 -3
2467 1 18.01803366010487 18.437823195355612 5.628882081680405 -3 1 0
159 1 19.748950408256313 17.958821420869278 7.60804818187303 -1 -1 0
2296 1 19.284370068872633 20.064724547140408 7.047011829865456 1 -2 0
2630 1 20.30656859563654 18.565218017181678 5.442692680927969 -1 1 2
1132 1 17.54287131662975 18.019191938031618 7.968942819102715 -1 0 0
1242 1 22.300625888756407 17.16504889569064 6.051570003244996 0 0 1
197 1 24.60488545712279 18.405751016697558 5.83273680531011 -2 0 0
2482 1 23.816564487110604 17.7477079287438 7.747309464870911 0 1 0
619 1 22.091060479991874 19.51048166916207 6.824370333622577 -1 -1 0
622 1 22.343317510549447 19.222192459417165 4.284774110914403 -1 -1 1
1972 1 1.1816727964019853 24.621572321870524 5.929673080697303 0 0 1
2317 1 3.452559229084878 24.623304275525342 5.080541515978689 1 0 -1
1796 1 0.43195586584560297 20.72992001568163 6.0523989775565346 0 0 2
818 1 2.2470429288865086 22.573879106576626 5.811642993476725 0 0 0
2185 1 3.9642961146424986 20.687464564287858 7.3336655274528395 0 1 -1
1808 1 1.9455080465723873 20.892199189398873 8.143868224127708 2 0 1
2270 1 0.31931054201142967 22.851136822999578 7.0522695717583925 0 0 0
862 1 0.07356998859425479 21.956616934257738 4.085501418650166 0 0 0
1428 1 4.344072025386963 21.383184621345933 5.2489654082029 -2 -1 1
1979 1 5.140051492156001 23.460774816325298 4.3199159282001585 2 -1 0
351 1 6.377937075428611 20.950421697440085 6.707178812144489 1 -2 0
2490 1 4.2181790343833505 23.225468036808152 6.836006242002825 1 2 0
1708 1 6.75903158981696 23.14857469737383 6.084748551520152 -1 -2 1
805 1 6.453271552259087 21.641428498663814 4.064597802192195 1 -1 0
1188 1 10.145699610114892 22.57288843838461 4.2092329789337235 -1 -1 0
494 1 8.484139748111025 21.626304178833422 5.672214626698016 -1 -1 0
638 1 12.396745050844991 21.30370159561884 5.672205899937154 1 -1 0
2116 1 12.030412872163804 23.651338618707705 4.1598135280760475 -1 2 -1
3 1 10.755047462038414 22.445379188119418 6.550273108559148 -1 -1 0
1228 1 8.448065384046357 23.803529025232173 7.32671437211552 0 0 0
468 1 8.641348865346396 21.745607190563703 8.24418431135657 0 0 0
324 1 11.751314669195777 24.724050608868243 7.115770626788013 -1 0 0
991 1 15.201557613033094 21.15763526495826 7.7932828837383585 0 0 0
2504 1 14.058362326669842 23.40336724229784 5.356773835625421 -2 0 1
2432 1 15.509573205389746 21.64192554355732 4.917164861436904 1 0 2
447 1 13.235007206237803 22.90894184971961 7.197065786619545 0 -1 0
493 1 16.030202942884785 23.36749485241932 7.131462586076706 -2 -1 0
2616 1 18.228041931322345 21.223567706520086 5.43204339247877 0 2 3
761 1 20.571265521037475 20.695086038320532 4.848499207851926 -1 0 -1
309 1 17.737263762434154 21.95987004184429 7.724127871581178 0 -1 0
1175 1 17.501353554873702 23.52623937995844 5.421683174610626 0 0 0
1829 1 19.864935128043747 24.095632439968398 5.817844317244173 -2 -1 1
874 1 18.332363877048536 24.597895992933456 7.39236218727426 -1 0 0
249 1 23.488717092649907 23.840565412795556 5.405913271304615 0 -1 0
2692 1 22.830845558512465 21.553639189700633 5.511216547822702 -2 -3 1
2364 1 20.757463169713077 21.868110571263053 6.813992596696757 0 1 1
1158 1 21.934684560977573 24.089785819292743 7.22727920442143 -1 0 0
515 1 22.782159389280935 22.23625355461205 8.022184809490902 0 -1 0
1267 1 21.56522916879053 23.09353959251093 4.4165646793135895 0 0 1
1843 1 3.2852254909164817 2.917850778141579 8.486113635053787 1 -2 2
839 1 1.4004543285662467 3.9902950667055648 9.201395634367941 0 0 0
2195 1 2.0053251208039953 1.2213942345223268 9.44379903215238 1 0 1
942 1 2.6288435491562603 3.2697917999117667 11.406170810665198 0 1 0
1591 1 3.866407407584435 1.6989964762610184 10.319379828843115 1 0 1
966 1 0.38601836775481213 1.7390504589526383 11.351725570955224 2 2 0
2632 1 6.086096564255062 2.1450993115223667 10.110517025095163 0 2 -1
16 1 6.617522809966645 2.4815115913340433 12.372853287018133 0 1 0
1861 1 5.67880705214316 0.03658770289376556 8.702534082974342 1 0 2
2429 1 5.179609556422285 0.296313654314368 11.154311891577011 -1 3 0
1991 1 7.207548604935694 0.07332038567189603 12.051583000342381 2 0 2
145 1 10.15963325813437 0.559339411156308 8.654570307109722 0 0 0
1758 1 9.009553823385335 3.2886377440736925 8.96206187017529 1 -2 0
372 1 10.06221041259376 3.5383648436348905 11.0671730510627 0 0 0
348 1 8.622088029973966 1.368144244835975 10.245823429207936 0 0 0
1048 1 11.192474287284329 2.463258096333575 9.259927012871477 0 1 0
787 1 11.205571835991783 0.961975829269919 11.04321578110801 0 0 0
214 1 9.318498377788975 1.2054751411435471 12.424777242832516 0 0 0
1954 1 11.965960470049257 3.1746928143160225 12.159732391317007 -2 -1 1
2713 1 14.891285732481174 2.61896677187902 8.63721732195243 0 3 -1
50 1 15.514346146931528 0.5261878425880724 10.042633395981808 0 0 -1
2353 1 15.954820979429245 1.4280125035427969 12.242659647317192 0 0 2
2416 1 13.930356301343918 2.0583166342791035 10.957592199545122 -1 0 1
421 1 16.33244791715348 3.8229910069900828 12.56613916254958 -1 1 0
385 1 15.274644770326786 4.068233659518653 10.563138708220245 0 0 0
584 1 12.467944894835608 0.2529607799388658 9.389374299499071 -1 1 0
2474 1 19.722931644341543 3.0313450923914034 9.476014556041868 1 1 2
2681 1 17.14738224582453 2.08645746037399 10.482294800128242 1 2 1
1380 1 18.626801417192226 3.767164193912063 11.253293838785048 -3 3 -1
2284 1 20.055245976817844 1.5589978486276093 11.116615695471323 -1 -1 -1
1834 1 18.491999366129313 0.5244669608195951 9.751637307997257 0 2 0
936 1 24.403652354535943 2.0860618134602853 9.266773368735965 -1 2 0
1563 1 22.141118054972175 3.277297830988095 9.118980514107466 0 2 1
1519 1 23.395453254157104 3.871526136035861 10.859531558794458 -1 2 1
1748 1 22.56718148133227 1.0169684692646244 10.553269803543618 -1 0 1
270 1 21.973115395141086 2.3139977770035656 12.341982710639993 0 0 0
2106 1 3.2499837786899444 4.935676461293857 10.230789947052404 1 2 -1
427 1 0.8129026177121697 4.5146979363011965 11.979546035960947 0 0 0
1629 1 2.3320490474413664 6.655335107169978 11.617631925219682 -1 1 0
290 1 0.10727141066956244 5.55143059725056 9.84409993764223 0 1 0
1251 1 1.721866426117954 7.209226340686869 9.302722428962511 0 1 0
2189 1 4.031183816559928 7.477569326483845 9.999489112333421 2 1 0
660 1 0.26682793974986635 7.742397190415113 10.96060200219658 0 0 0
2676 1 5.062132262200311 4.1901238406463595 9.196173122446634 1 -1 0
371 1 5.031562914000499 4.1722499147046035 11.638023470299382 0 1 0
393 1 4.724982636687991 6.75376783072346 12.507415685223418 -1 0 0
334 1 7.363997328161268 4.269276641401983 10.599805032433917 1 0 0
2398 1 5.969904037363267 6.344390638231653 10.24598539074811 1 1 1
1480 1 6.984914661734416 6.254275731075264 12.559220172616117 1 2 1
1779 1 8.025339728642102 7.7123874336674225 9.540550099284271 -1 -1 0
845 1 10.738084759804613 5.304784992819114 9.652364830726535 0 0 0
2091 1 8.338624612548712 5.631286128523347 9.099255065471773 0 0 -1
1653 1 8.975020678083842 5.591294282536054 11.446752278898904 -2 0 1
752 1 12.340330502794368 5.835645363541683 11.69992497945771 1 1 0
2285 1 10.55478806416834 7.28565909774287 10.982257586749938 0 0 1
2322 1 16.023826739421786 4.595463395363318 8.504994900925297 0 0 2
250 1 12.704013424461685 6.577391070141971 9.53053404234571 0 0 0
1190 1 12.657557699917472 4.380493785147974 10.169049859422302 0 0 0
315 1 15.004873125502298 6.572557893967272 9.985668643472074 0 0 0
326 1 16.038352497551678 7.832058393235111 11.800217003513334 -1 1 0
497 1 16.372515957870768 7.147909531069594 8.334767310587639 0 -1 0
304 1 14.521965974061468 5.790898383194132 12.165247832851575 0 0 0
2146 1 13.60658672921578 7.863227231151428 11.408437721248614 2 1 1
1030 1 19.333349357675154 6.24985724240396 11.106522580326956 -1 0 0
2140 1 18.22687964746438 4.892213232386276 8.737935891351409 1 1 -1
1441 1 20.592164528147556 5.1785184264697754 9.283096099507773 0 0 0
789 1 17.00026355709535 5.415890439194727 10.681717276829488 -1 1 0
1141 1 19.24492721173803 7.159911749977028 8.705117199160732 0 1 0
2454 1 22.701178727908385 5.537465981776634 8.82785381397353 -2 3 1
349 1 21.089441862633628 4.32792429516896 11.586670216595417 0 0 0
1910 1 23.151880843875233 6.190679590595561 11.130505275281035 1 1 0
2427 1 24.03703420950623 7.340037009035271 8.400912619948523 -3 1 2
273 1 23.06133431282698 8.033820409051811 10.398418661958644 0 0 0
588 1 21.010424262488698 7.080193587833626 10.158067122329317 0 0 0
1628 1 21.37148603966162 6.792349424728524 12.56207879929025 -1 1 -1
628 1 2.2358472641405216 9.03926507886625 11.086460643064232 0 0 0
820 1 3.5320351359689077 11.2405945140304 10.95114018325468 1 0 0
2251 1 1.1271818086685972 11.102642485400795 11.027701227518541 0 -1 0
866 1 2.323176571723055 9.789770908188798 8.552287634906383 1 0 0
1574 1 3.4814425335120416 12.191176241640065 9.024518403004837 0 0 -1
1322 1 8.200753177100914 12.313333106409207 8.289609991911707 0 1 0
1884 1 4.7058683709656375 10.065116636487655 9.244516821192974 -2 -1 0
705 1 5.903269799984465 11.755350591777972 11.124375218352256 0 0 0
1377 1 4.730946619711693 8.964306149663035 11.580588765314959 0 1 0
1319 1 5.8773996542405165 12.012017567963664 8.538087720737915 1 0 0
2302 1 7.4454959232020075 9.98404155998886 9.886304592145201 3 1 0
1395 1 7.015342276538659 8.323770347807812 11.636779259872437 2 -2 4
605 1 9.87333510443758 9.409375213178766 9.575460308926306 0 0 0
834 1 12.192383253003525 8.898195151110613 9.93890130228521 0 1 0
1165 1 9.382549179053566 11.620680545372617 10.383165769302051 0 1 0
623 1 11.5078144993505 11.000986927374653 10.136415932337808 -1 0 0
849 1 9.618465689699065 9.419465466146518 12.05074330964685 0 1 0
357 1 11.64075613137622 8.936787160323052 12.318453735062079 1 0 0
11 1 11.349051886237262 11.829481633884413 12.369524019468795 0 0 0
1721 1 14.872555106024897 8.663709113983357 9.042270464745977 -1 -2 -1
2486 1 13.310966371735464 10.029835521179972 11.31859720554676 0 -2 1
1786 1 12.900781361391125 10.24877255845951 8.338939133697117 -1 -2 1
739 1 14.939347929195693 10.981359591841358 9.190160515692106 0 1 0
399 1 15.811087916407748 10.07531794869526 10.913650843229785 0 0 0
1057 1 19.65215498819235 9.439990623748871 8.46404824175087 -1 1 0
981 1 18.11407650488578 8.796111810420166 10.314708607152534 -1 0 0
179 1 20.53151915229015 8.678478691577508 11.696562349442102 0 0 0
906 1 17.11120766620858 10.018458716195546 8.356967561744082 0 0 0
422 1 17.633506152347543 11.224026991613261 10.436847721355385 0 0 0
613 1 19.225739240783057 12.169159487320705 8.989212179405772 0 -1 0
793 1 17.3490660106049 11.986161502893653 12.420876162498997 0 0 0
1783 1 17.740730819487858 9.685348870318412 12.128179964131299 0 -1 1
184 1 19.990978197885795 10.661467445889054 10.535368532989038 0 0 0
1566 1 21.599278335439934 12.163477712184852 8.479775801308257 0 -1 -1
2321 1 24.60107892711884 9.441503453259473 8.873616346315671 -1 3 1
979 1 21.937022774831036 10.113954397715151 9.861977978452366 -1 1 0
808 1 23.850285921312917 10.185449033415205 11.404197115962479 0 0 0
268 1 23.325107685659574 11.766169692015842 9.799497145136343 0 0 0
1414 1 21.48257796558027 12.219613206290663 11.830122760437789 0 -3 1
2675 1 23.98861653607569 12.393818490120466 12.426453006045278 -3 1 1
2722 1 0.7741782743867377 15.757968073756185 9.13859694735107 0 -2 2
2420 1 0.653737764095874 13.134069795418071 10.103308410884726 1 1 3
1264 1 2.458284057867152 14.038772149236307 8.939071365469385 1 0 0
188 1 2.9614013811967346 15.453240893798322 10.785837045998566 1 0 0
2639 1 3.6604071596840564 13.38167595962474 11.3978155271943 0 1 -1
140 1 1.532257522094543 12.890377239304602 12.38968634091151 0 0 0
755 1 6.665636365546801 14.304363922176917 8.333030946367709 1 0 0
1248 1 7.654397441823284 12.88719082031831 10.237496442720303 -1 1 0
221 1 5.000599379405777 15.582757800876971 11.94709904429601 1 -1 0
1231 1 5.6264930563589655 13.857934980592944 10.299238045037388 0 0 0
2065 1 5.118406239132726 15.860508680256006 9.171770150336625 1 0 1
1997 1 6.799579162068225 16.295330102872754 10.740605142864663 0 0 1
120 1 7.48475648058687 14.547627060427896 12.110897275038273 0 0 0
229 1 10.179252217128324 13.742028882274788 8.851835247803027 0 -1 0
772 1 10.276427294584954 15.949556192138687 8.393043959063037 0 0 0
2295 1 8.361099717548994 15.086669119024986 9.568867758904801 1 2 2
1452 1 9.730743885286147 13.465832857576608 11.843277983333639 0 1 -1
1144 1 11.670123408270252 13.57993150783296 10.650130164784013 0 0 0
2030 1 11.660824418490991 15.916013779637357 10.385256832909954 0 2 2
1606 1 9.73093594060104 15.707234342741247 11.349853414580943 0 -1 1
332 1 16.013152477646273 12.496619663190064 10.4820830351454 0 0 0
746 1 12.518715596975186 12.593808578355137 8.710395341613275 0 0 0
2124 1 15.125874704616903 13.69637846653828 8.915784287769306 1 0 -2
384 1 16.06915296386709 15.440972510736362 10.285957426164453 1 -1 0
403 1 13.637991501851236 14.807882107180962 9.649932058490272 0 -2 0
247 1 13.655665931492868 12.768660610692557 10.94804388406299 1 0 0
1823 1 16.02361110606127 16.136005095583762 12.320199218250782 -1 0 1
959 1 13.838933136218635 14.959018052126554 12.02085632674145 -1 1 0
347 1 20.097301992527747 14.191172988071807 9.385562055198942 -2 -1 0
788 1 17.724688326361623 14.02097383965655 9.883451865575452 -1 0 0
2046 1 16.911543535816065 14.105686223671649 12.075064253299065 -1 1 1
168 1 18.340794980057645 16.386905020560718 9.187436860195511 0 0 0
183 1 18.528024738791487 15.728521036022675 11.236291888914877 0 0 0
471 1 19.259056282684348 12.99258611394836 11.238913597380307 0 1 0
510 1 22.827693071123107 14.163596424082355 10.68044510092135 -1 0 0
450 1 20.815737514064594 14.583196797057852 12.022254411332039 0 -1 0
1010 1 23.143533708584357 15.679983026298135 9.325221577328325 0 0 0
437 1 24.68835368296763 15.124992570631434 11.287197137607125 0 1 0
2294 1 21.40046766564562 16.503269233784003 10.645773742192581 1 1 1
1514 1 0.2892488673735562 17.59238684042078 9.984360335537394 0 -3 -2
432 1 1.3194320859640192 16.831468911855147 12.300614450484897 0 0 0
2273 1 2.9807945577154666 17.582290840631707 9.927636695524265 0 -1 0
982 1 3.58105518245019 20.0033817698547 9.606318760227229 0 0 0
1143 1 3.1333376677088993 19.29804821258262 12.18694730149637 1 0 0
847 1 1.4226089283429597 19.553857709677246 10.495046315629779 1 0 0
833 1 8.275130298650181 19.491432720313135 8.331420708285727 -1 1 0
737 1 7.096708302522379 16.76458777268669 8.63519431929138 0 0 0
2327 1 5.260321415974812 18.042969127112897 11.805094596786187 2 0 0
155 1 5.066628669866415 18.094428584352315 8.962881097377245 0 -1 0
2337 1 6.9375408873456035 18.781015088501817 10.220767621221658 0 -1 -1
1654 1 5.799431646001833 20.445975536488717 8.74932927716964 -1 -2 0
1569 1 5.437094991587366 20.215869770256383 11.396063038670768 -1 -2 0
1136 1 8.316089365531717 17.759482892742923 11.999812495718599 0 0 0
882 1 8.937644964793886 17.40295023694903 9.930901823454601 0 0 0
1922 1 10.764635694185738 17.894969932460207 11.320244122425517 -1 0 0
163 1 10.9555286141069 18.187298410645695 8.837230552749507 0 -1 0
1036 1 11.514355293431239 20.57858744103649 11.216293445709336 1 0 0
213 1 9.415455155400963 19.606289180205394 10.20686159409246 1 -1 0
2096 1 12.74193073269201 17.115573954305113 8.522777584996298 1 -1 0
1859 1 13.97685765441155 17.08796315981884 10.58542726136051 0 -2 3
356 1 12.827798765778095 19.090131929054536 9.89242291929262 0 -1 0
281 1 14.987775418481156 19.616557512322338 10.124937255632444 -1 0 0
86 1 12.717529146895076 17.108849766515227 12.563145712131112 0 0 0
1809 1 13.762383418037453 19.251425629404352 12.249222452869276 1 -3 0
650 1 15.836651918311821 18.451478961569023 11.997976506470218 0 -1 0
1450 1 19.564493179829164 18.208451168111466 9.905072949786268 2 2 0
333 1 16.7174337477539 17.7942248873253 10.066853845866126 -1 0 0
302 1 20.101063104857616 18.132281894989895 12.097676562765862 -1 -1 0
2349 1 17.402447639461982 20.05017399757628 9.26305965215067 0 -3 0
627 1 17.88688322945987 19.82004235276802 11.311078806691532 0 -1 0
98 1 20.066742115278707 20.47005822592928 12.499191228193078 1 -1 0
287 1 23.702804434269602 19.616180365094245 10.44016176593485 -1 0 0
172 1 21.927414918197115 18.031727486331334 8.972129677453026 0 0 0
2120 1 24.033288013821576 20.001230504257848 8.265807685973321 -2 -1 -1
799 1 21.265590972309234 20.612223242273956 8.905174181688693 -1 -1 0
2122 1 23.32439168184178 17.17369175956798 11.45924351100899 2 1 0
637 1 21.552183045829686 19.227049530293783 10.870277606285278 0 -2 0
2493 1 2.2853562829962173 23.62657446489071 8.396077419284868 1 -1 1
125 1 0.6364366820051824 24.329703287709187 9.780840633103804 1 0 0
1130 1 2.81324386401693 24.31633559675757 10.893506118298934 0 0 0
1312 1 2.008646426570449 22.173912906616913 10.364749373842418 1 0 0
621 1 3.58976100167526 21.27277061991952 11.837279376747489 0 -1 1
428 1 0.7965161845976588 21.298600295090274 12.223325853857405 -1 1 0
346 1 6.144850017708018 22.736393200501894 8.311732338401054 -1 -1 0
1370 1 8.035980296297875 23.531335942194488 9.387504569986973 1 1 0
92 1 4.175861061325803 22.802292805007824 9.29455396394741 0 0 0
1594 1 8.19312485595833 22.53272613780768 11.8101616238353 -1 -1 2