LAMMPS data file via write_data, version 29 Oct 2020, timestep = 300000

2016 atoms
1 atom types

-0.6745225672321826 21.938522567232695 xlo xhi
-0.6745225672321826 21.938522567232695 ylo yhi
-1.573885990206719 51.18988599020532 zlo zhi

Masses

1 58.933

Atoms # atomic

1 1 -0.6745225672321826 -0.6745225672321826 -1.573885990206719 0 0 0
2 1 1.2098978606396804 1.2098978606396804 -1.573885990206719 0 0 0
3 1 1.2098978606396804 -0.6745225672321826 0.31053443766517885 0 0 0
4 1 -0.6745225672321826 1.2098978606396804 0.31053443766517885 0 0 0
5 1 3.0943182885115434 -0.6745225672321826 -1.573885990206719 0 0 0
8 1 3.0943182885115434 1.2098978606396804 0.31053443766517885 0 0 0
25 1 -0.6745225672321826 3.0943182885115434 -1.573885990206719 0 0 0
27 1 1.2098978606396804 3.0943182885115434 0.31053443766517885 0 0 0
29 1 3.0943182885115434 3.0943182885115434 -1.573885990206719 0 0 0
145 1 -0.6745225672321826 -0.6745225672321826 2.1949548655370767 0 0 0
146 1 1.2098978606396804 1.2098978606396804 2.1949548655370767 0 0 0
149 1 3.0943182885115434 -0.6745225672321826 2.1949548655370767 0 0 0
169 1 -0.6745225672321826 3.0943182885115434 2.1949548655370767 0 0 0
173 1 3.0943182885115434 3.0943182885115434 2.1949548655370767 0 0 0
6 1 4.9787387163840355 1.2098978606396804 -1.573885990206719 0 0 0
7 1 4.9787387163840355 -0.6745225672321826 0.31053443766517885 0 0 0
9 1 6.8631591442552695 -0.6745225672321826 -1.573885990206719 0 0 0
12 1 6.8631591442552695 1.2098978606396804 0.31053443766517885 0 0 0
31 1 4.9787387163840355 3.0943182885115434 0.31053443766517885 0 0 0
33 1 6.8631591442552695 3.0943182885115434 -1.573885990206719 0 0 0
150 1 4.9787387163840355 1.2098978606396804 2.1949548655370767 0 0 0
153 1 6.8631591442552695 -0.6745225672321826 2.1949548655370767 0 0 0
177 1 6.8631591442552695 3.0943182885115434 2.1949548655370767 0 0 0
10 1 8.747579572128002 1.2098978606396804 -1.573885990206719 0 0 0
11 1 8.747579572128002 -0.6745225672321826 0.31053443766517885 0 0 0
13 1 10.632000000000254 -0.6745225672321826 -1.573885990206719 0 0 0
16 1 10.632000000000254 1.2098978606396804 0.31053443766517885 0 0 0
35 1 8.747579572128002 3.0943182885115434 0.31053443766517885 0 0 0
37 1 10.632000000000254 3.0943182885115434 -1.573885990206719 0 0 0
154 1 8.747579572128002 1.2098978606396804 2.1949548655370767 0 0 0
157 1 10.632000000000254 -0.6745225672321826 2.1949548655370767 0 0 0
181 1 10.632000000000254 3.0943182885115434 2.1949548655370767 0 0 0
14 1 12.516420427872086 1.2098978606396804 -1.573885990206719 0 0 0
15 1 12.516420427872086 -0.6745225672321826 0.31053443766517885 0 0 0
39 1 12.516420427872086 3.0943182885115434 0.31053443766517885 0 0 0
158 1 12.516420427872086 1.2098978606396804 2.1949548655370767 0 0 0
17 1 14.400840855742722 -0.6745225672321826 -1.573885990206719 0 0 0
20 1 14.400840855742722 1.2098978606396804 0.31053443766517885 0 0 0
41 1 14.400840855742722 3.0943182885115434 -1.573885990206719 0 0 0
161 1 14.400840855742722 -0.6745225672321826 2.1949548655370767 0 0 0
185 1 14.400840855742722 3.0943182885115434 2.1949548655370767 0 0 0
18 1 16.285261283618375 1.2098978606396804 -1.573885990206719 0 0 0
19 1 16.285261283618375 -0.6745225672321826 0.31053443766517885 0 0 0
43 1 16.285261283618375 3.0943182885115434 0.31053443766517885 0 0 0
162 1 16.285261283618375 1.2098978606396804 2.1949548655370767 0 0 0
21 1 18.16968171149071 -0.6745225672321826 -1.573885990206719 0 0 0
24 1 18.16968171149071 1.2098978606396804 0.31053443766517885 0 0 0
45 1 18.16968171149071 3.0943182885115434 -1.573885990206719 0 0 0
165 1 18.16968171149071 -0.6745225672321826 2.1949548655370767 0 0 0
189 1 18.16968171149071 3.0943182885115434 2.1949548655370767 0 0 0
22 1 20.05410213935931 1.2098978606396804 -1.573885990206719 0 0 0
23 1 20.05410213935931 -0.6745225672321826 0.31053443766517885 0 0 0
47 1 20.05410213935931 3.0943182885115434 0.31053443766517885 0 0 0
166 1 20.05410213935931 1.2098978606396804 2.1949548655370767 0 0 0
26 1 1.2098978606396804 4.9787387163840355 -1.573885990206719 0 0 0
28 1 -0.6745225672321826 4.9787387163840355 0.31053443766517885 0 0 0
32 1 3.0943182885115434 4.9787387163840355 0.31053443766517885 0 0 0
49 1 -0.6745225672321826 6.8631591442552695 -1.573885990206719 0 0 0
51 1 1.2098978606396804 6.8631591442552695 0.31053443766517885 0 0 0
53 1 3.0943182885115434 6.8631591442552695 -1.573885990206719 0 0 0
170 1 1.2098978606396804 4.9787387163840355 2.1949548655370767 0 0 0
193 1 -0.6745225672321826 6.8631591442552695 2.1949548655370767 0 0 0
197 1 3.0943182885115434 6.8631591442552695 2.1949548655370767 0 0 0
30 1 4.9787387163840355 4.9787387163840355 -1.573885990206719 0 0 0
36 1 6.8631591442552695 4.9787387163840355 0.31053443766517885 0 0 0
55 1 4.9787387163840355 6.8631591442552695 0.31053443766517885 0 0 0
57 1 6.8631591442552695 6.8631591442552695 -1.573885990206719 0 0 0
174 1 4.9787387163840355 4.9787387163840355 2.1949548655370767 0 0 0
201 1 6.8631591442552695 6.8631591442552695 2.1949548655370767 0 0 0
34 1 8.747579572128002 4.9787387163840355 -1.573885990206719 0 0 0
40 1 10.632000000000254 4.9787387163840355 0.31053443766517885 0 0 0
59 1 8.747579572128002 6.8631591442552695 0.31053443766517885 0 0 0
61 1 10.632000000000254 6.8631591442552695 -1.573885990206719 0 0 0
178 1 8.747579572128002 4.9787387163840355 2.1949548655370767 0 0 0
205 1 10.632000000000254 6.8631591442552695 2.1949548655370767 0 0 0
38 1 12.516420427872086 4.9787387163840355 -1.573885990206719 0 0 0
63 1 12.516420427872086 6.8631591442552695 0.31053443766517885 0 0 0
182 1 12.516420427872086 4.9787387163840355 2.1949548655370767 0 0 0
44 1 14.400840855742722 4.9787387163840355 0.31053443766517885 0 0 0
65 1 14.400840855742722 6.8631591442552695 -1.573885990206719 0 0 0
209 1 14.400840855742722 6.8631591442552695 2.1949548655370767 0 0 0
42 1 16.285261283618375 4.9787387163840355 -1.573885990206719 0 0 0
67 1 16.285261283618375 6.8631591442552695 0.31053443766517885 0 0 0
186 1 16.285261283618375 4.9787387163840355 2.1949548655370767 0 0 0
48 1 18.16968171149071 4.9787387163840355 0.31053443766517885 0 0 0
69 1 18.16968171149071 6.8631591442552695 -1.573885990206719 0 0 0
213 1 18.16968171149071 6.8631591442552695 2.1949548655370767 0 0 0
46 1 20.05410213935931 4.9787387163840355 -1.573885990206719 0 0 0
71 1 20.05410213935931 6.8631591442552695 0.31053443766517885 0 0 0
190 1 20.05410213935931 4.9787387163840355 2.1949548655370767 0 0 0
50 1 1.2098978606396804 8.747579572128002 -1.573885990206719 0 0 0
52 1 -0.6745225672321826 8.747579572128002 0.31053443766517885 0 0 0
56 1 3.0943182885115434 8.747579572128002 0.31053443766517885 0 0 0
73 1 -0.6745225672321826 10.632000000000254 -1.573885990206719 0 0 0
75 1 1.2098978606396804 10.632000000000254 0.31053443766517885 0 0 0
77 1 3.0943182885115434 10.632000000000254 -1.573885990206719 0 0 0
194 1 1.2098978606396804 8.747579572128002 2.1949548655370767 0 0 0
217 1 -0.6745225672321826 10.632000000000254 2.1949548655370767 0 0 0
221 1 3.0943182885115434 10.632000000000254 2.1949548655370767 0 0 0
74 1 1.2098978606396804 12.516420427872086 -1.573885990206719 0 0 0
76 1 -0.6745225672321826 12.516420427872086 0.31053443766517885 0 0 0
80 1 3.0943182885115434 12.516420427872086 0.31053443766517885 0 0 0
218 1 1.2098978606396804 12.516420427872086 2.1949548655370767 0 0 0
54 1 4.9787387163840355 8.747579572128002 -1.573885990206719 0 0 0
60 1 6.8631591442552695 8.747579572128002 0.31053443766517885 0 0 0
79 1 4.9787387163840355 10.632000000000254 0.31053443766517885 0 0 0
81 1 6.8631591442552695 10.632000000000254 -1.573885990206719 0 0 0
198 1 4.9787387163840355 8.747579572128002 2.1949548655370767 0 0 0
225 1 6.8631591442552695 10.632000000000254 2.1949548655370767 0 0 0
78 1 4.9787387163840355 12.516420427872086 -1.573885990206719 0 0 0
84 1 6.8631591442552695 12.516420427872086 0.31053443766517885 0 0 0
222 1 4.9787387163840355 12.516420427872086 2.1949548655370767 0 0 0
58 1 8.747579572128002 8.747579572128002 -1.573885990206719 0 0 0
64 1 10.632000000000254 8.747579572128002 0.31053443766517885 0 0 0
83 1 8.747579572128002 10.632000000000254 0.31053443766517885 0 0 0
85 1 10.632000000000254 10.632000000000254 -1.573885990206719 0 0 0
202 1 8.747579572128002 8.747579572128002 2.1949548655370767 0 0 0
229 1 10.632000000000254 10.632000000000254 2.1949548655370767 0 0 0
62 1 12.516420427872086 8.747579572128002 -1.573885990206719 0 0 0
87 1 12.516420427872086 10.632000000000254 0.31053443766517885 0 0 0
206 1 12.516420427872086 8.747579572128002 2.1949548655370767 0 0 0
82 1 8.747579572128002 12.516420427872086 -1.573885990206719 0 0 0
88 1 10.632000000000254 12.516420427872086 0.31053443766517885 0 0 0
226 1 8.747579572128002 12.516420427872086 2.1949548655370767 0 0 0
86 1 12.516420427872086 12.516420427872086 -1.573885990206719 0 0 0
230 1 12.516420427872086 12.516420427872086 2.1949548655370767 0 0 0
68 1 14.400840855742722 8.747579572128002 0.31053443766517885 0 0 0
89 1 14.400840855742722 10.632000000000254 -1.573885990206719 0 0 0
233 1 14.400840855742722 10.632000000000254 2.1949548655370767 0 0 0
66 1 16.285261283618375 8.747579572128002 -1.573885990206719 0 0 0
91 1 16.285261283618375 10.632000000000254 0.31053443766517885 0 0 0
210 1 16.285261283618375 8.747579572128002 2.1949548655370767 0 0 0
92 1 14.400840855742722 12.516420427872086 0.31053443766517885 0 0 0
90 1 16.285261283618375 12.516420427872086 -1.573885990206719 0 0 0
234 1 16.285261283618375 12.516420427872086 2.1949548655370767 0 0 0
72 1 18.16968171149071 8.747579572128002 0.31053443766517885 0 0 0
93 1 18.16968171149071 10.632000000000254 -1.573885990206719 0 0 0
237 1 18.16968171149071 10.632000000000254 2.1949548655370767 0 0 0
70 1 20.05410213935931 8.747579572128002 -1.573885990206719 0 0 0
95 1 20.05410213935931 10.632000000000254 0.31053443766517885 0 0 0
214 1 20.05410213935931 8.747579572128002 2.1949548655370767 0 0 0
96 1 18.16968171149071 12.516420427872086 0.31053443766517885 0 0 0
94 1 20.05410213935931 12.516420427872086 -1.573885990206719 0 0 0
238 1 20.05410213935931 12.516420427872086 2.1949548655370767 0 0 0
97 1 -0.6745225672321826 14.400840855742722 -1.573885990206719 0 0 0
99 1 1.2098978606396804 14.400840855742722 0.31053443766517885 0 0 0
101 1 3.0943182885115434 14.400840855742722 -1.573885990206719 0 0 0
241 1 -0.6745225672321826 14.400840855742722 2.1949548655370767 0 0 0
245 1 3.0943182885115434 14.400840855742722 2.1949548655370767 0 0 0
98 1 1.2098978606396804 16.285261283618375 -1.573885990206719 0 0 0
100 1 -0.6745225672321826 16.285261283618375 0.31053443766517885 0 0 0
104 1 3.0943182885115434 16.285261283618375 0.31053443766517885 0 0 0
242 1 1.2098978606396804 16.285261283618375 2.1949548655370767 0 0 0
103 1 4.9787387163840355 14.400840855742722 0.31053443766517885 0 0 0
105 1 6.8631591442552695 14.400840855742722 -1.573885990206719 0 0 0
249 1 6.8631591442552695 14.400840855742722 2.1949548655370767 0 0 0
102 1 4.9787387163840355 16.285261283618375 -1.573885990206719 0 0 0
108 1 6.8631591442552695 16.285261283618375 0.31053443766517885 0 0 0
246 1 4.9787387163840355 16.285261283618375 2.1949548655370767 0 0 0
107 1 8.747579572128002 14.400840855742722 0.31053443766517885 0 0 0
109 1 10.632000000000254 14.400840855742722 -1.573885990206719 0 0 0
253 1 10.632000000000254 14.400840855742722 2.1949548655370767 0 0 0
111 1 12.516420427872086 14.400840855742722 0.31053443766517885 0 0 0
106 1 8.747579572128002 16.285261283618375 -1.573885990206719 0 0 0
112 1 10.632000000000254 16.285261283618375 0.31053443766517885 0 0 0
250 1 8.747579572128002 16.285261283618375 2.1949548655370767 0 0 0
110 1 12.516420427872086 16.285261283618375 -1.573885990206719 0 0 0
254 1 12.516420427872086 16.285261283618375 2.1949548655370767 0 0 0
113 1 14.400840855742722 14.400840855742722 -1.573885990206719 0 0 0
257 1 14.400840855742722 14.400840855742722 2.1949548655370767 0 0 0
115 1 16.285261283618375 14.400840855742722 0.31053443766517885 0 0 0
116 1 14.400840855742722 16.285261283618375 0.31053443766517885 0 0 0
114 1 16.285261283618375 16.285261283618375 -1.573885990206719 0 0 0
258 1 16.285261283618375 16.285261283618375 2.1949548655370767 0 0 0
117 1 18.16968171149071 14.400840855742722 -1.573885990206719 0 0 0
261 1 18.16968171149071 14.400840855742722 2.1949548655370767 0 0 0
119 1 20.05410213935931 14.400840855742722 0.31053443766517885 0 0 0
120 1 18.16968171149071 16.285261283618375 0.31053443766517885 0 0 0
118 1 20.05410213935931 16.285261283618375 -1.573885990206719 0 0 0
262 1 20.05410213935931 16.285261283618375 2.1949548655370767 0 0 0
121 1 -0.6745225672321826 18.16968171149071 -1.573885990206719 0 0 0
123 1 1.2098978606396804 18.16968171149071 0.31053443766517885 0 0 0
125 1 3.0943182885115434 18.16968171149071 -1.573885990206719 0 0 0
265 1 -0.6745225672321826 18.16968171149071 2.1949548655370767 0 0 0
269 1 3.0943182885115434 18.16968171149071 2.1949548655370767 0 0 0
122 1 1.2098978606396804 20.05410213935931 -1.573885990206719 0 0 0
124 1 -0.6745225672321826 20.05410213935931 0.31053443766517885 0 0 0
128 1 3.0943182885115434 20.05410213935931 0.31053443766517885 0 0 0
266 1 1.2098978606396804 20.05410213935931 2.1949548655370767 0 0 0
127 1 4.9787387163840355 18.16968171149071 0.31053443766517885 0 0 0
129 1 6.8631591442552695 18.16968171149071 -1.573885990206719 0 0 0
273 1 6.8631591442552695 18.16968171149071 2.1949548655370767 0 0 0
126 1 4.9787387163840355 20.05410213935931 -1.573885990206719 0 0 0
132 1 6.8631591442552695 20.05410213935931 0.31053443766517885 0 0 0
270 1 4.9787387163840355 20.05410213935931 2.1949548655370767 0 0 0
131 1 8.747579572128002 18.16968171149071 0.31053443766517885 0 0 0
133 1 10.632000000000254 18.16968171149071 -1.573885990206719 0 0 0
277 1 10.632000000000254 18.16968171149071 2.1949548655370767 0 0 0
135 1 12.516420427872086 18.16968171149071 0.31053443766517885 0 0 0
130 1 8.747579572128002 20.05410213935931 -1.573885990206719 0 0 0
136 1 10.632000000000254 20.05410213935931 0.31053443766517885 0 0 0
274 1 8.747579572128002 20.05410213935931 2.1949548655370767 0 0 0
134 1 12.516420427872086 20.05410213935931 -1.573885990206719 0 0 0
278 1 12.516420427872086 20.05410213935931 2.1949548655370767 0 0 0
137 1 14.400840855742722 18.16968171149071 -1.573885990206719 0 0 0
281 1 14.400840855742722 18.16968171149071 2.1949548655370767 0 0 0
139 1 16.285261283618375 18.16968171149071 0.31053443766517885 0 0 0
140 1 14.400840855742722 20.05410213935931 0.31053443766517885 0 0 0
138 1 16.285261283618375 20.05410213935931 -1.573885990206719 0 0 0
282 1 16.285261283618375 20.05410213935931 2.1949548655370767 0 0 0
141 1 18.16968171149071 18.16968171149071 -1.573885990206719 0 0 0
285 1 18.16968171149071 18.16968171149071 2.1949548655370767 0 0 0
143 1 20.05410213935931 18.16968171149071 0.31053443766517885 0 0 0
144 1 18.16968171149071 20.05410213935931 0.31053443766517885 0 0 0
142 1 20.05410213935931 20.05410213935931 -1.573885990206719 0 0 0
286 1 20.05410213935931 20.05410213935931 2.1949548655370767 0 0 0
147 1 1.2098978606396804 -0.6745225672321826 4.0793752934089875 0 0 0
148 1 -0.6745225672321826 1.2098978606396804 4.0793752934089875 0 0 0
152 1 3.0943182885115434 1.2098978606396804 4.0793752934089875 0 0 0
171 1 1.2098978606396804 3.0943182885115434 4.0793752934089875 0 0 0
289 1 -0.6745225672321826 -0.6745225672321826 5.9637957212808725 0 0 0
290 1 1.2098978606396804 1.2098978606396804 5.9637957212808725 0 0 0
293 1 3.0943182885115434 -0.6745225672321826 5.9637957212808725 0 0 0
313 1 -0.6745225672321826 3.0943182885115434 5.9637957212808725 0 0 0
317 1 3.0943182885115434 3.0943182885115434 5.9637957212808725 0 0 0
151 1 4.9787387163840355 -0.6745225672321826 4.0793752934089875 0 0 0
156 1 6.8631591442552695 1.2098978606396804 4.0793752934089875 0 0 0
175 1 4.9787387163840355 3.0943182885115434 4.0793752934089875 0 0 0
294 1 4.9787387163840355 1.2098978606396804 5.9637957212808725 0 0 0
297 1 6.8631591442552695 -0.6745225672321826 5.9637957212808725 0 0 0
321 1 6.8631591442552695 3.0943182885115434 5.9637957212808725 0 0 0
155 1 8.747579572128002 -0.6745225672321826 4.0793752934089875 0 0 0
160 1 10.632000000000254 1.2098978606396804 4.0793752934089875 0 0 0
179 1 8.747579572128002 3.0943182885115434 4.0793752934089875 0 0 0
298 1 8.747579572128002 1.2098978606396804 5.9637957212808725 0 0 0
301 1 10.632000000000254 -0.6745225672321826 5.9637957212808725 0 0 0
325 1 10.632000000000254 3.0943182885115434 5.9637957212808725 0 0 0
159 1 12.516420427872086 -0.6745225672321826 4.0793752934089875 0 0 0
183 1 12.516420427872086 3.0943182885115434 4.0793752934089875 0 0 0
302 1 12.516420427872086 1.2098978606396804 5.9637957212808725 0 0 0
164 1 14.400840855742722 1.2098978606396804 4.0793752934089875 0 0 0
305 1 14.400840855742722 -0.6745225672321826 5.9637957212808725 0 0 0
329 1 14.400840855742722 3.0943182885115434 5.9637957212808725 0 0 0
163 1 16.285261283618375 -0.6745225672321826 4.0793752934089875 0 0 0
187 1 16.285261283618375 3.0943182885115434 4.0793752934089875 0 0 0
306 1 16.285261283618375 1.2098978606396804 5.9637957212808725 0 0 0
168 1 18.16968171149071 1.2098978606396804 4.0793752934089875 0 0 0
309 1 18.16968171149071 -0.6745225672321826 5.9637957212808725 0 0 0
333 1 18.16968171149071 3.0943182885115434 5.9637957212808725 0 0 0
167 1 20.05410213935931 -0.6745225672321826 4.0793752934089875 0 0 0
191 1 20.05410213935931 3.0943182885115434 4.0793752934089875 0 0 0
310 1 20.05410213935931 1.2098978606396804 5.9637957212808725 0 0 0
172 1 -0.6745225672321826 4.9787387163840355 4.0793752934089875 0 0 0
176 1 3.0943182885115434 4.9787387163840355 4.0793752934089875 0 0 0
195 1 1.2098978606396804 6.8631591442552695 4.0793752934089875 0 0 0
314 1 1.2098978606396804 4.9787387163840355 5.9637957212808725 0 0 0
337 1 -0.6745225672321826 6.8631591442552695 5.9637957212808725 0 0 0
341 1 3.0943182885115434 6.8631591442552695 5.9637957212808725 0 0 0
180 1 6.8631591442552695 4.9787387163840355 4.0793752934089875 0 0 0
199 1 4.9787387163840355 6.8631591442552695 4.0793752934089875 0 0 0
318 1 4.9787387163840355 4.9787387163840355 5.9637957212808725 0 0 0
345 1 6.8631591442552695 6.8631591442552695 5.9637957212808725 0 0 0
184 1 10.632000000000254 4.9787387163840355 4.0793752934089875 0 0 0
203 1 8.747579572128002 6.8631591442552695 4.0793752934089875 0 0 0
322 1 8.747579572128002 4.9787387163840355 5.9637957212808725 0 0 0
349 1 10.632000000000254 6.8631591442552695 5.9637957212808725 0 0 0
207 1 12.516420427872086 6.8631591442552695 4.0793752934089875 0 0 0
326 1 12.516420427872086 4.9787387163840355 5.9637957212808725 0 0 0
188 1 14.400840855742722 4.9787387163840355 4.0793752934089875 0 0 0
353 1 14.400840855742722 6.8631591442552695 5.9637957212808725 0 0 0
211 1 16.285261283618375 6.8631591442552695 4.0793752934089875 0 0 0
330 1 16.285261283618375 4.9787387163840355 5.9637957212808725 0 0 0
192 1 18.16968171149071 4.9787387163840355 4.0793752934089875 0 0 0
357 1 18.16968171149071 6.8631591442552695 5.9637957212808725 0 0 0
215 1 20.05410213935931 6.8631591442552695 4.0793752934089875 0 0 0
334 1 20.05410213935931 4.9787387163840355 5.9637957212808725 0 0 0
196 1 -0.6745225672321826 8.747579572128002 4.0793752934089875 0 0 0
200 1 3.0943182885115434 8.747579572128002 4.0793752934089875 0 0 0
219 1 1.2098978606396804 10.632000000000254 4.0793752934089875 0 0 0
338 1 1.2098978606396804 8.747579572128002 5.9637957212808725 0 0 0
361 1 -0.6745225672321826 10.632000000000254 5.9637957212808725 0 0 0
365 1 3.0943182885115434 10.632000000000254 5.9637957212808725 0 0 0
220 1 -0.6745225672321826 12.516420427872086 4.0793752934089875 0 0 0
224 1 3.0943182885115434 12.516420427872086 4.0793752934089875 0 0 0
362 1 1.2098978606396804 12.516420427872086 5.9637957212808725 0 0 0
204 1 6.8631591442552695 8.747579572128002 4.0793752934089875 0 0 0
223 1 4.9787387163840355 10.632000000000254 4.0793752934089875 0 0 0
342 1 4.9787387163840355 8.747579572128002 5.9637957212808725 0 0 0
369 1 6.8631591442552695 10.632000000000254 5.9637957212808725 0 0 0
228 1 6.8631591442552695 12.516420427872086 4.0793752934089875 0 0 0
366 1 4.9787387163840355 12.516420427872086 5.9637957212808725 0 0 0
208 1 10.632000000000254 8.747579572128002 4.0793752934089875 0 0 0
227 1 8.747579572128002 10.632000000000254 4.0793752934089875 0 0 0
346 1 8.747579572128002 8.747579572128002 5.9637957212808725 0 0 0
373 1 10.632000000000254 10.632000000000254 5.9637957212808725 0 0 0
231 1 12.516420427872086 10.632000000000254 4.0793752934089875 0 0 0
350 1 12.516420427872086 8.747579572128002 5.9637957212808725 0 0 0
232 1 10.632000000000254 12.516420427872086 4.0793752934089875 0 0 0
370 1 8.747579572128002 12.516420427872086 5.9637957212808725 0 0 0
374 1 12.516420427872086 12.516420427872086 5.9637957212808725 0 0 0
212 1 14.400840855742722 8.747579572128002 4.0793752934089875 0 0 0
377 1 14.400840855742722 10.632000000000254 5.9637957212808725 0 0 0
235 1 16.285261283618375 10.632000000000254 4.0793752934089875 0 0 0
354 1 16.285261283618375 8.747579572128002 5.9637957212808725 0 0 0
236 1 14.400840855742722 12.516420427872086 4.0793752934089875 0 0 0
378 1 16.285261283618375 12.516420427872086 5.9637957212808725 0 0 0
216 1 18.16968171149071 8.747579572128002 4.0793752934089875 0 0 0
381 1 18.16968171149071 10.632000000000254 5.9637957212808725 0 0 0
239 1 20.05410213935931 10.632000000000254 4.0793752934089875 0 0 0
358 1 20.05410213935931 8.747579572128002 5.9637957212808725 0 0 0
240 1 18.16968171149071 12.516420427872086 4.0793752934089875 0 0 0
382 1 20.05410213935931 12.516420427872086 5.9637957212808725 0 0 0
243 1 1.2098978606396804 14.400840855742722 4.0793752934089875 0 0 0
385 1 -0.6745225672321826 14.400840855742722 5.9637957212808725 0 0 0
389 1 3.0943182885115434 14.400840855742722 5.9637957212808725 0 0 0
244 1 -0.6745225672321826 16.285261283618375 4.0793752934089875 0 0 0
248 1 3.0943182885115434 16.285261283618375 4.0793752934089875 0 0 0
386 1 1.2098978606396804 16.285261283618375 5.9637957212808725 0 0 0
247 1 4.9787387163840355 14.400840855742722 4.0793752934089875 0 0 0
393 1 6.8631591442552695 14.400840855742722 5.9637957212808725 0 0 0
252 1 6.8631591442552695 16.285261283618375 4.0793752934089875 0 0 0
390 1 4.9787387163840355 16.285261283618375 5.9637957212808725 0 0 0
251 1 8.747579572128002 14.400840855742722 4.0793752934089875 0 0 0
397 1 10.632000000000254 14.400840855742722 5.9637957212808725 0 0 0
255 1 12.516420427872086 14.400840855742722 4.0793752934089875 0 0 0
256 1 10.632000000000254 16.285261283618375 4.0793752934089875 0 0 0
394 1 8.747579572128002 16.285261283618375 5.9637957212808725 0 0 0
398 1 12.516420427872086 16.285261283618375 5.9637957212808725 0 0 0
401 1 14.400840855742722 14.400840855742722 5.9637957212808725 0 0 0
259 1 16.285261283618375 14.400840855742722 4.0793752934089875 0 0 0
260 1 14.400840855742722 16.285261283618375 4.0793752934089875 0 0 0
402 1 16.285261283618375 16.285261283618375 5.9637957212808725 0 0 0
405 1 18.16968171149071 14.400840855742722 5.9637957212808725 0 0 0
263 1 20.05410213935931 14.400840855742722 4.0793752934089875 0 0 0
264 1 18.16968171149071 16.285261283618375 4.0793752934089875 0 0 0
406 1 20.05410213935931 16.285261283618375 5.9637957212808725 0 0 0
267 1 1.2098978606396804 18.16968171149071 4.0793752934089875 0 0 0
409 1 -0.6745225672321826 18.16968171149071 5.9637957212808725 0 0 0
413 1 3.0943182885115434 18.16968171149071 5.9637957212808725 0 0 0
268 1 -0.6745225672321826 20.05410213935931 4.0793752934089875 0 0 0
272 1 3.0943182885115434 20.05410213935931 4.0793752934089875 0 0 0
410 1 1.2098978606396804 20.05410213935931 5.9637957212808725 0 0 0
271 1 4.9787387163840355 18.16968171149071 4.0793752934089875 0 0 0
417 1 6.8631591442552695 18.16968171149071 5.9637957212808725 0 0 0
276 1 6.8631591442552695 20.05410213935931 4.0793752934089875 0 0 0
414 1 4.9787387163840355 20.05410213935931 5.9637957212808725 0 0 0
275 1 8.747579572128002 18.16968171149071 4.0793752934089875 0 0 0
421 1 10.632000000000254 18.16968171149071 5.9637957212808725 0 0 0
279 1 12.516420427872086 18.16968171149071 4.0793752934089875 0 0 0
280 1 10.632000000000254 20.05410213935931 4.0793752934089875 0 0 0
418 1 8.747579572128002 20.05410213935931 5.9637957212808725 0 0 0
422 1 12.516420427872086 20.05410213935931 5.9637957212808725 0 0 0
425 1 14.400840855742722 18.16968171149071 5.9637957212808725 0 0 0
283 1 16.285261283618375 18.16968171149071 4.0793752934089875 0 0 0
284 1 14.400840855742722 20.05410213935931 4.0793752934089875 0 0 0
426 1 16.285261283618375 20.05410213935931 5.9637957212808725 0 0 0
429 1 18.16968171149071 18.16968171149071 5.9637957212808725 0 0 0
287 1 20.05410213935931 18.16968171149071 4.0793752934089875 0 0 0
288 1 18.16968171149071 20.05410213935931 4.0793752934089875 0 0 0
430 1 20.05410213935931 20.05410213935931 5.9637957212808725 0 0 0
291 1 1.2098978606396804 -0.6745225672321826 7.8482161491533535 0 0 0
292 1 -0.6745225672321826 1.2098978606396804 7.8482161491533535 0 0 0
296 1 3.0943182885115434 1.2098978606396804 7.8482161491533535 0 0 0
315 1 1.2098978606396804 3.0943182885115434 7.8482161491533535 0 0 0
433 1 -0.6745225672321826 -0.6745225672321826 9.732636577024694 0 0 0
434 1 1.2098978606396804 1.2098978606396804 9.732636577024694 0 0 0
435 1 3.0943182885115434 -0.6745225672321826 9.732636577024694 0 0 0
445 1 -0.6745225672321826 3.0943182885115434 9.732636577024694 0 0 0
447 1 3.0943182885115434 3.0943182885115434 9.732636577024694 0 0 0
505 1 1.2098978606396804 -0.6745225672321826 11.617057004896287 0 0 0
506 1 -0.6745225672321826 1.2098978606396804 11.617057004896287 0 0 0
508 1 3.0943182885115434 1.2098978606396804 11.617057004896287 0 0 0
517 1 1.2098978606396804 3.0943182885115434 11.617057004896287 0 0 0
295 1 4.9787387163840355 -0.6745225672321826 7.8482161491533535 0 0 0
300 1 6.8631591442552695 1.2098978606396804 7.8482161491533535 0 0 0
319 1 4.9787387163840355 3.0943182885115434 7.8482161491533535 0 0 0
436 1 4.9787387163840355 1.2098978606396804 9.732636577024694 0 0 0
437 1 6.8631591442552695 -0.6745225672321826 9.732636577024694 0 0 0
449 1 6.8631591442552695 3.0943182885115434 9.732636577024694 0 0 0
507 1 4.9787387163840355 -0.6745225672321826 11.617057004896287 0 0 0
510 1 6.8631591442552695 1.2098978606396804 11.617057004896287 0 0 0
519 1 4.9787387163840355 3.0943182885115434 11.617057004896287 0 0 0
299 1 8.747579572128002 -0.6745225672321826 7.8482161491533535 0 0 0
304 1 10.632000000000254 1.2098978606396804 7.8482161491533535 0 0 0
323 1 8.747579572128002 3.0943182885115434 7.8482161491533535 0 0 0
438 1 8.747579572128002 1.2098978606396804 9.732636577024694 0 0 0
439 1 10.632000000000254 -0.6745225672321826 9.732636577024694 0 0 0
451 1 10.632000000000254 3.0943182885115434 9.732636577024694 0 0 0
509 1 8.747579572128002 -0.6745225672321826 11.617057004896287 0 0 0
512 1 10.632000000000254 1.2098978606396804 11.617057004896287 0 0 0
521 1 8.747579572128002 3.0943182885115434 11.617057004896287 0 0 0
303 1 12.516420427872086 -0.6745225672321826 7.8482161491533535 0 0 0
327 1 12.516420427872086 3.0943182885115434 7.8482161491533535 0 0 0
440 1 12.516420427872086 1.2098978606396804 9.732636577024694 0 0 0
511 1 12.516420427872086 -0.6745225672321826 11.617057004896287 0 0 0
523 1 12.516420427872086 3.0943182885115434 11.617057004896287 0 0 0
308 1 14.400840855742722 1.2098978606396804 7.8482161491533535 0 0 0
441 1 14.400840855742722 -0.6745225672321826 9.732636577024694 0 0 0
453 1 14.400840855742722 3.0943182885115434 9.732636577024694 0 0 0
514 1 14.400840855742722 1.2098978606396804 11.617057004896287 0 0 0
307 1 16.285261283618375 -0.6745225672321826 7.8482161491533535 0 0 0
331 1 16.285261283618375 3.0943182885115434 7.8482161491533535 0 0 0
442 1 16.285261283618375 1.2098978606396804 9.732636577024694 0 0 0
513 1 16.285261283618375 -0.6745225672321826 11.617057004896287 0 0 0
525 1 16.285261283618375 3.0943182885115434 11.617057004896287 0 0 0
312 1 18.16968171149071 1.2098978606396804 7.8482161491533535 0 0 0
443 1 18.16968171149071 -0.6745225672321826 9.732636577024694 0 0 0
455 1 18.16968171149071 3.0943182885115434 9.732636577024694 0 0 0
516 1 18.16968171149071 1.2098978606396804 11.617057004896287 0 0 0
311 1 20.05410213935931 -0.6745225672321826 7.8482161491533535 0 0 0
335 1 20.05410213935931 3.0943182885115434 7.8482161491533535 0 0 0
444 1 20.05410213935931 1.2098978606396804 9.732636577024694 0 0 0
515 1 20.05410213935931 -0.6745225672321826 11.617057004896287 0 0 0
527 1 20.05410213935931 3.0943182885115434 11.617057004896287 0 0 0
316 1 -0.6745225672321826 4.9787387163840355 7.8482161491533535 0 0 0
320 1 3.0943182885115434 4.9787387163840355 7.8482161491533535 0 0 0
339 1 1.2098978606396804 6.8631591442552695 7.8482161491533535 0 0 0
446 1 1.2098978606396804 4.9787387163840355 9.732636577024694 0 0 0
457 1 -0.6745225672321826 6.8631591442552695 9.732636577024694 0 0 0
459 1 3.0943182885115434 6.8631591442552695 9.732636577024694 0 0 0
518 1 -0.6745225672321826 4.9787387163840355 11.617057004896287 0 0 0
520 1 3.0943182885115434 4.9787387163840355 11.617057004896287 0 0 0
529 1 1.2098978606396804 6.8631591442552695 11.617057004896287 0 0 0
324 1 6.8631591442552695 4.9787387163840355 7.8482161491533535 0 0 0
343 1 4.9787387163840355 6.8631591442552695 7.8482161491533535 0 0 0
448 1 4.9787387163840355 4.9787387163840355 9.732636577024694 0 0 0
461 1 6.8631591442552695 6.8631591442552695 9.732636577024694 0 0 0
522 1 6.8631591442552695 4.9787387163840355 11.617057004896287 0 0 0
531 1 4.9787387163840355 6.8631591442552695 11.617057004896287 0 0 0
328 1 10.632000000000254 4.9787387163840355 7.8482161491533535 0 0 0
347 1 8.747579572128002 6.8631591442552695 7.8482161491533535 0 0 0
450 1 8.747579572128002 4.9787387163840355 9.732636577024694 0 0 0
463 1 10.632000000000254 6.8631591442552695 9.732636577024694 0 0 0