LAMMPS data file via write_data, version 29 Oct 2020, timestep = 300000

2048 atoms
1 atom types

-0.44347342109312216 28.79547342109583 xlo xhi
-0.44347342109312216 28.79547342109583 ylo yhi
-0.44347342109312216 28.79547342109583 zlo zhi

Masses

1 58.933

Atoms # atomic

35 1 1.4006535389414045 3.162832073450295 1.9114786157139307 0 0 0
130 1 1.0802439621284605 1.385093894079479 3.457832224222448 0 0 0
165 1 3.327080776073988 3.1240513308936104 3.4033356741040546 0 0 0
8 1 3.311148810623198 1.4134094723210848 1.5946407252541457 0 0 0
3 1 1.7321730289711468 -0.41408986074536025 1.5673352057801342 0 0 0
133 1 3.3173652510924048 -0.27642059351780934 3.5212512753851435 0 0 0
5 1 3.5658007293184717 -0.2594174093076518 -0.29202111820263355 0 0 0
2 1 1.1790073449642189 1.3326276943844153 -0.2505603757600383 0 0 0
12 1 6.653933332432212 1.7319282579836561 2.0748280306089946 0 0 0
39 1 5.062909401584291 3.414689652909078 1.6005968908437405 0 0 0
134 1 4.946189426322626 1.236394695372528 3.8537674205712804 0 0 0
169 1 7.0943562168521925 3.7758113984040946 3.273348462404991 0 0 0
41 1 6.812596425506961 3.0975082636222333 -0.18012570332545458 0 0 0
137 1 7.002906134053766 -0.24471017970836328 3.4778109863121007 0 0 0
7 1 5.0977573171964705 -0.06467836510242347 1.4137291428814152 0 0 0
16 1 10.211392758933922 1.091448409250926 1.0361650622880145 0 0 0
43 1 8.454153904545166 3.2297865108127497 1.667773223846773 0 0 0
138 1 8.875963632795651 1.399065751017337 3.494192699639318 0 0 0
173 1 10.616893605686437 3.586831225263868 3.265469225391589 0 0 0
142 1 11.80031898365605 1.5448104334001902 3.0230741856477628 0 0 0
45 1 10.514156216501714 3.317535295229263 -0.329146832524461 0 0 0
11 1 8.116930519413314 -0.15152133736187778 1.1692569744305783 0 0 0
141 1 10.410391741066384 -0.4260123176905288 3.0647282788182175 0 0 0
14 1 12.037587607142854 1.6404466790692993 -0.2786424382823185 0 0 0
47 1 12.318356416770394 3.3733341000543806 1.3690221498983473 0 0 0
20 1 13.898557965960757 1.6659471194318343 1.080994352265217 0 0 0
177 1 13.979027320977107 2.996716437985787 3.197902734285579 0 0 0
146 1 15.796363437619556 1.508422393723955 3.0406375651894195 0 0 0
51 1 15.609704280690837 3.116362817279065 1.4565615103266676 0 0 0
15 1 12.324491781814368 -0.29355851102805586 1.4995217267479164 0 0 0
145 1 13.704658756295881 -0.18721796606114738 3.08133271888041 0 0 0
24 1 17.669318014341634 1.8906658782458323 1.393128272734728 0 0 0
55 1 19.62565784219585 3.3503536907410565 1.3999333118008703 0 0 0
150 1 19.329711766638454 1.63446059368572 2.9026683109382962 0 0 0
181 1 17.494376866948564 3.3694270481017354 3.299735785836312 0 0 0
185 1 20.43531262789736 3.4805938903019666 3.57479145682814 0 0 0
21 1 17.720911072560753 -0.10498542907041453 0.026081444618533123 0 0 0
149 1 17.754123419587295 -0.24343634005691128 3.2517480829172114 0 0 0
23 1 19.78910828682467 -0.12393865061548742 1.391399025076763 0 0 0
22 1 19.780269399107183 1.8601340694895878 -0.42683602199905835 0 0 0
28 1 21.5676765246208 1.462039727040642 1.0420165207439478 0 0 0
59 1 23.89932180387106 3.2569032494927685 1.5051006560197286 0 0 0
154 1 23.29044051711587 1.0827567156994404 3.65396103635758 0 0 0
57 1 21.88775208702107 3.383412994116297 -0.1690308755519116 0 0 0
31 1 26.883041436782207 -0.36510966157520386 1.3923377184478158 0 0 0
30 1 26.70051444320945 1.3513866150076024 0.043958708741809904 0 0 0
161 1 28.765638700797417 3.0524220364699532 3.4133477340441023 -1 0 0
4 1 28.529955733540596 1.3992894541577905 1.452690903926943 -1 0 0
32 1 24.73932958348854 1.1095500637409967 1.3256439599724303 0 0 0
189 1 24.78959756511849 3.2764677418152894 3.5098818706104162 0 0 0
63 1 27.394270050059802 3.5727451867409385 1.2081331839485838 0 0 0
158 1 26.574326644907707 1.5562014874381174 2.8416965698025676 0 0 0
1 1 28.5693549144799 -0.32863894535757254 -0.2520702036646747 -1 0 0
129 1 28.755088313799707 -0.24300653967339514 3.4080488043738177 -1 0 0
61 1 25.37484549663757 3.099276937781361 -0.3007661278806098 0 0 0
162 1 1.5633315624865003 5.334835263689768 4.045521821104563 0 0 0
67 1 1.4832456832167125 6.780571273524376 1.41885008636537 0 0 0
194 1 1.2254776581848676 8.600648626661288 3.166950194144178 0 0 0
197 1 3.1572113085448343 6.980172385424072 3.119294816719485 0 0 0
72 1 3.1900074361844526 8.612260702319213 1.5912383797479492 0 0 0
40 1 2.972570172004571 4.8396702536509135 1.3075691630084116 0 0 0
68 1 -0.061987707231105194 8.461622435935585 1.0019230812836126 0 0 0
36 1 0.03331062316185124 4.960485801825385 2.2876295295883775 0 0 0
69 1 3.5690103223321943 6.850638385527012 -0.19064960767618455 0 0 0
66 1 1.6252908168588012 8.737150264715124 -0.42993194686990677 0 0 0
34 1 1.147861309473573 4.536167127796274 -0.12138926006097961 0 0 0
44 1 7.021891413792159 5.340638368237689 1.4876075105149733 0 0 0
166 1 5.1383302881805 5.202690595931778 3.193234701993403 0 0 0
71 1 5.1907889669240355 7.077102048740042 1.5836349815030868 0 0 0
76 1 6.922296226199 8.696062402502644 1.256560652227341 0 0 0
198 1 4.596330645722442 8.952507204103531 3.1922288300947503 0 0 0
201 1 6.548844574673293 7.559981906585705 3.431629819212793 0 0 0
38 1 5.14508401553666 5.076605861775674 -0.16299176060609694 0 0 0
70 1 4.8810175770762445 8.715902474082931 -0.2908203719953112 0 0 0
170 1 8.60845972221259 5.547294383164965 3.2018198096557056 0 0 0
48 1 9.997074319818262 5.11949224227682 1.3438982606215837 0 0 0
75 1 8.737453376046952 7.110475077177973 0.941237824263311 0 0 0
205 1 10.779204914462921 6.934460694917085 2.846534552897038 0 0 0
80 1 10.583842714825435 8.59530917989469 1.059615938419273 0 0 0
202 1 8.783731600686945 8.544169131031104 2.866704742350148 0 0 0
79 1 12.361214079535783 7.048787897148164 1.1028182612621473 0 0 0
206 1 12.159093748736813 8.96238418982863 2.859660377455919 0 0 0
174 1 12.483614862917905 5.392694672020538 2.968731012713885 0 0 0
52 1 14.19996808488887 5.180090514455826 1.361697219492443 0 0 0
209 1 14.34280526767354 7.054130272751135 3.124513207710536 0 0 0
210 1 15.77075626255098 8.933505862929046 2.627686907636807 0 0 0
83 1 15.386640246519034 7.216744167274346 1.041542343467405 0 0 0
178 1 16.03950186046682 5.316367023184166 3.148941525077228 0 0 0
46 1 12.184484227346566 4.98752331728401 -0.4287460014893725 0 0 0
182 1 19.043071001398673 5.431077222122201 2.683186712670082 0 0 0
56 1 17.361605397811545 4.834935164636751 1.0721439593423867 0 0 0
87 1 19.704293658238896 7.1440821990816215 1.6231414011473704 0 0 0
213 1 17.447051810314584 7.208782649893529 2.713821634852478 0 0 0
88 1 17.989389315273023 9.06356144593314 1.1716566527527414 0 0 0
214 1 19.71359770711802 8.757114556240875 3.1649184719259686 0 0 0
54 1 19.750010856351714 5.110926220330699 -0.24107557471676408 0 0 0
85 1 17.897850499808143 7.015305446184069 -0.14196597229650193 0 0 0
90 1 23.186348729112538 8.6835616381515 -0.19983968496467694 0 0 0
89 1 21.327452876948286 7.044165300209954 -0.33498491821885606 0 0 0
186 1 22.996224862449438 4.965701014956497 3.1643045435543824 0 0 0
60 1 21.6648643740968 5.4552103537393775 1.331908851448218 0 0 0
91 1 23.537861245442592 7.147669151019981 1.5080792775100007 0 0 0
217 1 21.552385735133328 6.783257286916611 3.2904232800527358 0 0 0
92 1 21.750494293931077 8.751203774754186 1.8186369469456887 0 0 0
218 1 23.573503774915324 8.646906836643533 3.341971495402631 0 0 0
58 1 23.25053702461024 5.407866705667713 -0.38076367589372095 0 0 0
193 1 28.725318338661832 7.154300994354982 3.2475786931839536 -1 0 0
221 1 25.002346148721898 6.473626080615308 3.2248811707986844 0 0 0
64 1 25.043621321929727 5.12790830623559 1.1415905752951117 0 0 0
190 1 26.852681383215746 4.456131408405088 3.411251689702521 0 0 0
95 1 27.028321937305762 6.502188279915245 1.7325548186071047 0 0 0
96 1 25.314868815501953 8.773831126849606 1.5880059997128875 0 0 0
222 1 26.75869722835457 8.710599744315136 3.44202125220198 0 0 0
99 1 1.6569495074513911 10.301536052332299 1.2716241181893215 0 0 0
226 1 1.3590063615117332 12.538057363118837 3.3801807665784556 0 0 0
229 1 3.078026789742979 10.956125564865923 3.165461945748484 0 0 0
104 1 3.324447971885888 12.41594598460779 1.3889474602801446 0 0 0
100 1 -0.2455148742995732 12.238413154222789 1.2514818370760943 0 0 0
1157 1 3.4405789269264093 14.048264161152142 3.1339792738258354 0 0 0
1027 1 1.394559651989587 14.166655571043067 1.2087199044980215 0 0 0
98 1 1.3801046819601752 12.05421588122026 -0.24831001362829141 0 0 0
103 1 5.095386731015934 10.501897831537745 1.3908068273428178 0 0 0
108 1 6.540554645541348 12.388843936213418 1.3058795007757724 0 0 0
230 1 5.297764421548492 12.379036043597582 3.3879100236594457 0 0 0
233 1 6.878047202478523 10.18614087555576 3.389654677684308 0 0 0
1031 1 5.101291024009534 14.051690810496316 1.2541502968492262 0 0 0
1165 1 10.239353987946375 14.041304816678048 3.0873618061559225 0 0 0
107 1 8.635936297337997 10.685213348851857 1.354202376697715 0 0 0
112 1 10.853382549044735 12.350288108185014 0.9606208645380654 0 0 0
234 1 8.516967946707602 12.2098769432156 3.0793231975617057 0 0 0
237 1 10.478136779798271 10.656500638977253 3.4363392564211543 0 0 0
111 1 12.04818420499577 10.48122725129055 1.3437052264550575 0 0 0
1035 1 9.089710194982777 13.971731849670382 1.1955057557078066 0 0 0
84 1 14.007007244824992 9.314951492403754 1.0060075277923282 0 0 0
238 1 12.236125937067731 12.45088293424963 3.0795214770634445 0 0 0
116 1 13.530861753160949 12.426063037575062 1.239901387762013 0 0 0
241 1 14.143096813302721 10.779198096498494 3.094084187714266 0 0 0
242 1 15.839727533526949 12.254625520911688 3.020544267548409 0 0 0
115 1 15.89826307004151 10.557825127806842 1.1568550540122249 0 0 0
1043 1 16.03976238245044 13.8856651048277 1.1451478467846992 0 0 0
119 1 19.7553189875253 10.113326499301978 1.453872967267138 0 0 0
120 1 17.80673533460073 11.858539862898859 1.4732206031621615 0 0 0
245 1 18.124960750119165 10.363963678220472 3.388084837218254 0 0 0
246 1 19.80984614554354 12.338645338388165 3.324197748625368 0 0 0
1173 1 17.797148610869648 13.5855817303556 3.0564974261848024 0 0 0
1047 1 19.692649550389625 13.737657753714117 1.7192517646104797 0 0 0
1045 1 17.741381598901242 13.76364981037816 -0.1320153112402654 0 0 0
118 1 19.837911648689072 11.968309505500468 -0.06849366306519045 0 0 0
1051 1 23.170389579073877 14.129194994758553 1.6071711030150015 0 0 0
123 1 23.212516729514938 10.498297213844035 1.7043600304486555 0 0 0
124 1 21.687436714867275 12.099975038275502 1.4031159958378792 0 0 0
249 1 21.80973613852011 10.464249335647413 3.614811256253117 0 0 0
250 1 23.505652740014916 12.533003682579174 3.5814507732333185 0 0 0
1177 1 21.628687864731674 13.877001903421306 3.4166850937221294 0 0 0
121 1 21.53598931146599 10.582271001630964 -0.2686499515033631 0 0 0
122 1 23.499234715925205 12.187618972572702 -0.2706817647288844 0 0 0
1153 1 28.472149930806317 13.906232924384328 2.9943892730395003 -1 0 0
225 1 28.78729467097398 10.672633441528282 3.1806570066549185 -1 0 0
253 1 24.844599707307374 10.77856328328195 3.7278256320930305 0 0 0
128 1 24.89041229664197 12.217137059803104 1.1866132010548252 0 0 0
127 1 27.345756905518748 10.08395155267555 1.256770426421817 0 0 0
254 1 26.719609712281887 12.066127338453562 2.772467840434062 0 0 0
1055 1 26.978797245603857 13.909714367539367 1.4581237237090696 0 0 0
126 1 26.714549610552645 12.2134709587689 -0.23457015896750022 0 0 0
131 1 1.5155750941404527 -0.18907892894306377 5.47859979820517 0 0 0
257 1 -0.33738571007323515 -0.3811002972947577 6.8501053144056465 0 0 0
136 1 3.172552429413276 1.5531266762364746 5.234787808256046 0 0 0
163 1 1.2740956491911815 3.106996500413489 5.221358886899908 0 0 0
258 1 1.329505583016244 1.5577025565677203 7.176111928483455 0 0 0
293 1 3.158868715632036 3.544289972227488 6.7199460650373295 0 0 0
264 1 3.3661513316422513 1.843548357425957 8.440385396562483 0 0 0
291 1 1.5958942785364103 3.3777660151170505 8.890349878881784 0 0 0
260 1 -0.396042846814149 1.6045939354888867 8.958190859332083 0 0 0
289 1 -0.2909594835795105 3.332345138219779 7.072683334555934 0 0 0
259 1 1.3157598698067103 -0.15834903864009214 9.007190721628799 0 0 0
261 1 3.1262063895037313 -0.21069847596698044 7.092503869878536 0 0 0
265 1 7.221936372151372 -0.3128051690236656 6.842398068457191 0 0 0
140 1 6.99597126944254 1.68330699366871 5.1634977534353625 0 0 0
167 1 5.0499587229506275 3.330940760245302 5.141649573520266 0 0 0
262 1 4.98731857138027 1.6040474177009485 6.661286113083891 0 0 0
297 1 6.999308713891283 3.75255960776001 6.568864724369577 0 0 0
268 1 6.496825130805924 1.348911760603351 8.641046328846251 0 0 0
295 1 5.437029190921608 3.5959614526852413 8.804359214558025 0 0 0
267 1 8.987532728281497 -0.20119915151831796 9.016988172308496 0 0 0
144 1 10.625377642891253 1.5017484028679413 5.36016599831691 0 0 0
266 1 8.450772035804984 1.647938782310994 7.026839492963862 0 0 0
171 1 8.850396928584834 3.5863216749509226 5.266281148597828 0 0 0
301 1 10.838385129648454 3.6289949991432424 6.9508767963575835 0 0 0
299 1 8.120015762991137 3.451545318636886 8.833395965539133 0 0 0
272 1 10.597920520491448 1.4948710517298194 8.808515373008658 0 0 0
269 1 10.08226019617378 -0.221574950510279 7.090557533570962 0 0 0
139 1 8.56065743910901 -0.3047727064958191 5.098637029977882 0 0 0
275 1 15.673887197645735 -0.10330141127144543 8.543149122388966 0 0 0
175 1 12.22223901208094 3.437231230701714 4.796599775013668 0 0 0
270 1 12.314393496000362 1.6689536178820537 6.756650544151911 0 0 0
303 1 12.199247530879273 3.4852640071756498 8.777142588900308 0 0 0
148 1 14.089446340657647 1.5313905010885553 5.0790025523219215 0 0 0
305 1 14.132417379570347 3.435054682087884 6.780018565043751 0 0 0
179 1 15.630871247927756 3.330844421324755 4.756084553206714 0 0 0
307 1 15.805425014005108 3.3261286406449346 8.499814942240974 0 0 0
274 1 15.583361261444123 1.5112101680165722 6.951802246349913 0 0 0
276 1 14.012665790361591 1.5315164790930051 8.550798699221305 0 0 0
143 1 12.202763313829962 -0.15783155924215464 4.903667635852503 0 0 0
151 1 19.475796607333187 -0.2720038849530937 5.207253331190901 0 0 0
152 1 17.600888123318377 1.219501785080562 5.252283835243109 0 0 0
183 1 19.30055453884765 2.8932667485089936 5.8530223801786265 0 0 0
309 1 17.60856808290893 3.145015995955762 7.0924664539149065 0 0 0
311 1 19.44361599080031 3.2073949788292193 9.145626482640262 0 0 0
278 1 19.400978597828946 1.197089052583841 7.342087766644856 0 0 0
280 1 17.590096477185227 1.4122495103930943 8.692548078872816 0 0 0
281 1 21.43614994120601 -0.3819900723058325 6.732371809698562 0 0 0
283 1 23.146781298153172 -0.28590393611165155 8.494476336929042 0 0 0
156 1 21.143607301114656 1.339167347413638 4.82159221361648 0 0 0
187 1 22.57628002393004 3.1005142067640494 4.997428723110423 0 0 0
282 1 23.116559721891093 1.2652730481721728 6.545216486372842 0 0 0
313 1 21.110382728902408 2.935290137374007 6.978633755290203 0 0 0
284 1 21.188045813093133 1.2387561012628971 8.954106970908853 0 0 0
315 1 23.505704325734726 3.127112515791274 8.886739430407248 0 0 0
159 1 26.86222321415125 -0.2662265659550509 5.002182795120064 0 0 0
285 1 24.716458257022772 -0.3671963770994977 6.899467293447121 0 0 0
132 1 28.662424361071558 1.4655965239318542 5.0997440933558025 -1 0 0
288 1 24.958452496892434 1.2350960929860018 8.70354617831145 0 0 0
317 1 24.856126658639845 2.936163765293625 6.494776386603907 0 0 0
160 1 25.120097734834765 1.0862637493564546 5.0252377392137815 0 0 0
191 1 26.91469079477107 3.0516904084632106 5.069070698549937 0 0 0
286 1 27.06818137484739 1.2653897224692057 7.137765104818836 0 0 0
319 1 27.203173915443095 3.2572109251048587 8.855792923110494 0 0 0
168 1 3.521796012742995 5.15526890214093 5.058198110187365 0 0 0
296 1 3.2721733307451957 5.214643946599475 8.538504945062204 0 0 0
195 1 1.4313133536919183 7.107398805256945 5.625106965221198 0 0 0
290 1 0.6387456527324988 5.44157762963568 7.119412840571709 0 0 0
323 1 1.1823801346667684 7.044234135630508 8.761630558269161 0 0 0
200 1 3.3077065269173143 8.8464103929817 4.993785948018495 0 0 0
325 1 3.208366532124326 7.445005918311736 7.0401262938821185 0 0 0
322 1 1.5546754859978849 9.278021804363853 6.999019552899212 0 0 0
328 1 3.017469747997706 8.784662562005796 9.09803526712782 0 0 0
196 1 -0.3855987620664283 8.526980043827523 5.025144676515475 0 0 0
300 1 6.986041139534181 5.52394160014697 8.957566520763669 0 0 0
172 1 6.705779090129717 5.517706689414176 5.053037090990244 0 0 0
204 1 6.960455978571528 8.767159185026129 5.16292183277642 0 0 0
199 1 4.978315072795029 7.147608560145387 4.925707880014675 0 0 0
294 1 4.867781466707655 5.244762559049635 6.851176757902139 0 0 0
329 1 6.538285007678565 7.2730816881891736 6.800680262369542 0 0 0
327 1 4.999530036293342 7.064293651295985 8.735901977602856 0 0 0
326 1 5.2140727606130275 9.195957455683468 7.304284851984788 0 0 0
176 1 10.397006564604448 5.5683044006154905 5.056766855434686 0 0 0
203 1 8.527825836289844 7.117582260034924 5.1413991975029925 0 0 0
298 1 8.602968137276843 5.422223684016813 7.135498310676169 0 0 0
333 1 10.484544195233859 7.087605051095824 7.412367995135781 0 0 0
331 1 8.801815262986018 7.232469669041722 9.047312581680325 0 0 0
304 1 10.552827125311023 4.899019676307708 8.866439843952152 0 0 0
330 1 8.689708615110847 8.877576494602728 7.1553282200553 0 0 0
336 1 10.545021666470731 8.842974859792267 8.911061164358106 0 0 0
208 1 10.761920287737512 8.232316040374759 5.370406585998969 0 0 0
334 1 12.31883945645164 8.606232522501445 7.121969903061442 0 0 0
302 1 12.339484939388065 5.347481893710925 6.621141857556148 0 0 0
207 1 12.514704179242091 6.714456777831272 5.01263052124555 0 0 0
335 1 12.602944636350218 6.405799574429313 8.679419445666563 0 0 0
212 1 13.994642452685728 8.850141460428793 4.982396992290135 0 0 0
180 1 14.265796993565695 5.275522758509589 4.64325547155436 0 0 0
337 1 14.423179448805188 7.090628140573451 6.7679044007478275 0 0 0
308 1 14.490867628931959 5.2210406305633645 8.551596604849605 0 0 0
340 1 14.275759806553989 8.961417228680777 8.713810963162961 0 0 0
338 1 16.08050410420082 8.726863630206903 6.72228862268005 0 0 0
211 1 15.978960599655666 6.96613619929565 4.906636270330927 0 0 0
306 1 15.940485677623196 5.1650561987649946 6.6668940836848645 0 0 0
339 1 16.10669731757541 6.963156267512934 8.526230131445226 0 0 0
312 1 17.51291386819574 5.26812433997402 8.393580125339618 0 0 0
184 1 17.91853569927963 4.806147190031479 5.24104323547784 0 0 0
215 1 19.620002219505018 7.00822177637685 4.897007208674363 0 0 0
310 1 19.746235382663635 4.791688156868364 6.76211803518037 0 0 0
341 1 17.99062289172707 6.942444956602431 6.447509002381778 0 0 0
342 1 19.926483577915818 8.603236875523761 6.696676336722383 0 0 0
216 1 17.68131887776501 8.570220368409778 4.763555610737746 0 0 0
343 1 19.599161342288603 6.856590841628889 8.751366913498128 0 0 0
344 1 17.949731985506467 8.367194526462455 8.449919000268823 0 0 0
314 1 22.908989030667833 5.115897324196516 6.884944490624312 0 0 0
188 1 21.273791682886028 5.0481611442415195 4.996217016209892 0 0 0
219 1 23.194052275071364 6.8245345115786815 5.102123733109156 0 0 0
345 1 21.188867218758404 6.757614128852844 7.001272435166028 0 0 0
347 1 23.37928760965635 6.520713918825529 8.600061529678532 0 0 0
316 1 21.35560472137672 4.8515954967749595 8.898287272130071 0 0 0
348 1 21.587600079669052 8.237200903797254 9.025501355905012 0 0 0
346 1 23.08772718485737 8.391910847177797 6.7599655099809794 0 0 0
192 1 24.57940674814428 4.949557622773695 5.3005642509203375 0 0 0
220 1 21.430313772409505 8.536759084971592 4.83795608111221 0 0 0
164 1 28.517103416656255 4.953277464819056 5.128229614788898 -1 0 0
292 1 28.60038328499009 5.281434278430984 9.027031490391368 -1 0 0
321 1 28.540579842022375 7.0350915921573876 6.922908808073668 -1 0 0
349 1 24.93104435872261 6.660974770360458 6.879017197619295 0 0 0
352 1 25.118635748956315 8.417151045476041 8.461110140190026 0 0 0
320 1 25.59245150413065 4.741757240471559 8.647053295727297 0 0 0
224 1 25.115792869204924 8.243700164834832 5.012314679803307 0 0 0
223 1 26.901865903754462 6.730530577184217 4.917604031934328 0 0 0
318 1 26.702470223896476 4.748186689036007 6.381452147237551 0 0 0
351 1 26.653122010541985 6.851113305889868 8.697413644565083 0 0 0
350 1 27.537563179526515 9.104589355506306 7.178003002638699 0 0 0
1155 1 1.5144585316896588 14.123906843546564 5.094107721446453 0 0 0
1283 1 1.5028824408953299 14.01955939525151 8.663143643208873 0 0 0
227 1 1.3241343816785722 10.502418800038882 4.659800687463826 0 0 0
354 1 1.3852785801776495 12.2672100511316 6.5093812098554045 0 0 0
232 1 3.4068175590686387 12.454759523418296 4.983678269312388 0 0 0
355 1 1.120750345793343 10.59928559773625 8.698227631018831 0 0 0
360 1 3.0879194916936052 12.06412150272709 8.512117307447513 0 0 0
357 1 3.190994760335681 10.714742568940189 6.693384023126456 0 0 0
356 1 -0.22734261979825549 12.629525123269698 8.856835702611324 0 0 0
353 1 -0.3554144986222775 10.90169471346979 6.591901421360376 0 0 0
1287 1 5.168877937976799 13.979786834701079 8.56263377378967 0 0 0
236 1 6.977703574295034 12.622890460127682 5.110547993604849 0 0 0
231 1 4.923585686810765 10.640055224808256 5.160719336678238 0 0 0
358 1 5.362958664926419 12.260412012676415 6.763029388551533 0 0 0
361 1 6.893662440476218 10.781120346246343 6.63576367760925 0 0 0
359 1 5.120315926640198 10.945101842283732 8.981136748338397 0 0 0
364 1 7.1085050627186845 12.527107752658061 8.500236883076257 0 0 0
1163 1 8.555391663540012 14.175769412728702 5.071597351117337 0 0 0
235 1 8.577018787714175 10.665782545489733 5.088159817285552 0 0 0
240 1 10.248975506452712 12.484777649838563 4.783184688583373 0 0 0
362 1 8.869624168816793 12.448237928338054 6.932601039531308 0 0 0
365 1 10.5354357182158 10.517050661362829 6.869318479152436 0 0 0
363 1 9.088652888331959 10.960682053637491 8.687651887360115 0 0 0
368 1 10.678806436638853 12.749942245812298 8.678406268181103 0 0 0
1167 1 12.02951877782465 14.013635315557725 4.899810956795949 0 0 0
1171 1 15.629583733384704 14.168584319590991 4.817559880119718 0 0 0
367 1 12.305851351506846 10.75618092306338 8.582924047572323 0 0 0
239 1 12.414051429158857 10.603125671411568 4.672254475835118 0 0 0
244 1 14.112114147150372 12.219323496969677 5.098909902608107 0 0 0
366 1 12.15979304182419 12.441738034021046 6.389193580630575 0 0 0
369 1 13.910949056776419 10.375658784202784 6.686514560862136 0 0 0
372 1 14.00767015450525 12.40588130900715 8.13451979879112 0 0 0
370 1 16.043901952221624 12.56633196723156 6.395032837905587 0 0 0
371 1 15.835850256662953 10.569696362583338 8.353051611118076 0 0 0
243 1 15.90412389078548 10.204886613621525 4.678819934915862 0 0 0
1303 1 19.46060667292901 13.869876673666711 8.740870896459457 0 0 0
1175 1 19.842098465033516 14.013970327624934 5.120054627045191 0 0 0
1301 1 17.845133485438254 14.143517894076753 6.747114955029384 0 0 0
376 1 17.66370941832465 12.30113476082703 8.809086445501158 0 0 0
248 1 17.679444206739603 12.04308834002762 4.820315020832468 0 0 0
247 1 19.767491598408228 10.149079811843295 5.035583857457693 0 0 0
373 1 17.75656605513673 10.499046458225253 6.601050863955158 0 0 0
374 1 19.41242203182989 12.030165282826987 6.7174936869716415 0 0 0
375 1 19.74213322672867 10.155447226836419 8.642623282306001 0 0 0
1305 1 21.37398849285016 13.994239715139448 6.985331801053381 0 0 0
1179 1 23.082289964541168 14.01378098832508 5.1523569528560005 0 0 0
252 1 21.640619081135462 12.1674585971347 5.283470634311809 0 0 0
379 1 23.170589118112957 10.572271907069762 8.785860121820228 0 0 0
380 1 21.12273322025878 12.030340776131474 8.936504227284965 0 0 0
251 1 23.235989520248104 10.497290444323905 5.490470836537957 0 0 0
377 1 21.423279576745095 10.378360663569728 6.804656703960542 0 0 0
378 1 23.01300956334977 12.380133485878321 7.161678817097745 0 0 0
1309 1 24.678994178746144 13.96462642457765 7.54155073361595 0 0 0
228 1 28.523130703797115 12.222780487448023 4.973459156321522 -1 0 0
384 1 24.92630432732758 12.138188566813323 8.87516298831846 0 0 0
381 1 25.226800433907023 10.498996491916115 6.9803182925233145 0 0 0
256 1 25.305269576319525 12.560093915297333 5.443282706595274 0 0 0
255 1 26.703364074710407 10.331687608022975 5.342525495781304 0 0 0
382 1 27.02899665813814 12.372182729028085 7.090975030199484 0 0 0
383 1 27.126813373548785 10.811162645183114 8.68002884795613 0 0 0
389 1 3.6320950538861956 0.10159765738103488 9.654725179827542 0 0 0
386 1 1.6657582939014062 1.5882944840627187 10.616464377293964 0 0 0
419 1 1.7221963515329954 3.853600892718932 12.310392784850407 0 0 0
392 1 3.072576136896326 1.435968990970347 12.338833683301257 0 0 0
421 1 3.2829902881289015 3.207595763487525 10.421601679918057 0 0 0
417 1 -0.20724040137070152 3.3769959213746668 10.605366885167694 0 0 0
549 1 3.0502390872437437 3.162133559721133 14.002750455094397 0 0 0
513 1 -0.27869928328185267 -0.2754133710775083 14.098198111942366 0 0 0
545 1 -0.4081490945872636 3.1957490288101327 14.08705805389164 0 0 0
393 1 7.043697597886482 0.06382422556695377 10.592445487699926 0 0 0
391 1 5.138659392450486 -0.4230885810751979 11.985716530680294 0 0 0
390 1 5.030318134935426 1.7254791352315868 10.64266625748798 0 0 0
396 1 6.95088124472677 1.645597745948336 12.403898100402623 0 0 0
423 1 5.1491212843322804 3.288578318954358 12.673720071260057 0 0 0
425 1 7.086541218835063 3.5405508055637234 11.026158785129905 0 0 0
518 1 4.823243998950011 1.330653090746115 13.735883104615185 0 0 0
553 1 7.181015015731161 3.6884687125777402 14.173295403204602 0 0 0
395 1 8.83293333634189 -0.2575197358699749 12.006543432629762 0 0 0
522 1 9.194439248635359 1.2677190465638686 14.033162824175305 0 0 0
394 1 8.541112460576041 1.8885064608948312 10.747474949910634 0 0 0
400 1 10.839417829254227 1.3753049477377388 12.01788557097162 0 0 0
427 1 8.999910219857878 3.4542462607824067 12.468528331535781 0 0 0
429 1 10.437881062693242 3.4299937208297813 10.725023746682803 0 0 0
397 1 10.695444556820249 -0.38799609209900093 10.442977652540483 0 0 0
526 1 11.990957176039672 0.7634517308671283 14.070499015457834 0 0 0
557 1 10.75993881938716 3.349518839146095 14.110351024181565 0 0 0
530 1 15.750707423872052 1.1035435506417188 14.068625431125229 0 0 0
431 1 12.310789650023656 3.24347086521879 12.34776919500879 0 0 0
398 1 12.405940650330333 1.6749924372514058 10.335802349905135 0 0 0
404 1 13.965377038718797 1.220492932729116 11.852205395194176 0 0 0
433 1 14.288365281400171 3.3921680668606347 10.49334804665548 0 0 0
402 1 16.020212154390002 1.1339512988682467 10.348058720881555 0 0 0
435 1 15.809140436702778 2.836906023038583 12.117065401502515 0 0 0
561 1 14.025598028385057 2.901472199705634 13.913892089193816 0 0 0
406 1 19.48989641263981 1.0418726165236756 10.564766032789874 0 0 0
408 1 17.43613913273162 0.9332269870565115 12.208712883606765 0 0 0
437 1 17.45496627481735 3.5795142706940775 10.459755654354003 0 0 0
439 1 19.11012438880538 2.690964689361378 12.257255893127239 0 0 0
405 1 17.736838143962146 -0.37121857058282154 10.155856253751296 0 0 0
565 1 17.558433931566647 2.832471279079495 13.952005114199489 0 0 0
534 1 19.795486979701707 1.125374227138225 14.066580750794143 0 0 0
538 1 23.249176707997727 1.5051144164450898 14.046838477052868 0 0 0
410 1 23.17725391435451 1.0421600860310412 10.799119969725373 0 0 0
412 1 21.554904229723213 0.8269383441811498 12.262868117514206 0 0 0
441 1 21.460502561448287 2.7914650429757133 10.730592582143254 0 0 0
443 1 23.33017168873524 3.0859341930807154 12.070134769100637 0 0 0
569 1 21.03834662087381 2.831780738021613 13.907165289162892 0 0 0
573 1 25.120742051788667 3.235785700992291 14.018730587534533 0 0 0
388 1 28.661576251699135 1.6130170927721754 12.624881728368692 -1 0 0
445 1 25.279006381473373 3.3867646994337157 10.397197784507933 0 0 0
416 1 25.057332859982168 1.2356741241875704 12.185002979834964 0 0 0
414 1 26.674464828806187 1.4023026779035044 10.480140323528639 0 0 0
447 1 26.743601489350816 3.172059532468759 12.142745408417056 0 0 0
418 1 1.711389821142295 5.274285086055217 10.581924897679187 0 0 0
451 1 1.4660931165298583 7.1311830407216075 12.350736656829328 0 0 0
424 1 3.550126128922529 5.48493729532402 12.546689512448983 0 0 0
450 1 1.2442086111647617 8.86823773126384 10.643935283245593 0 0 0
453 1 3.3998857182429063 6.848981148470807 10.308496135936464 0 0 0
456 1 3.493541755499479 8.620630777761809 12.384036880816236 0 0 0
449 1 -0.21598848940865167 6.9019026759222015 10.829710920504025 0 0 0
546 1 1.3281523937875248 5.074932895168326 14.008335956925903 0 0 0
581 1 3.2582492551700053 7.064154201736372 14.158840020318063 0 0 0
332 1 6.932833567229569 9.020771991454723 9.351180222048628 0 0 0
428 1 6.973425008295314 5.240672841126264 12.576953228599839 0 0 0
422 1 5.2165990364329184 5.191264506645692 10.61033047216228 0 0 0
454 1 4.968899345257056 9.047239054667175 10.453187753741336 0 0 0
455 1 5.090260463374628 7.116435390154576 12.47521925464767 0 0 0
457 1 7.012728026273259 7.033439485855821 11.013161041139094 0 0 0
460 1 6.570809325656297 8.730009845558529 12.316769000337404 0 0 0
432 1 10.731228670838105 5.069051611862213 12.16378925116739 0 0 0
426 1 8.900977527562103 5.205882633940783 10.43869845822473 0 0 0
459 1 8.92644808685527 7.311384876344093 12.356947034318692 0 0 0
461 1 10.62958521295075 6.999639396070079 10.472289267047099 0 0 0
464 1 10.61498335959715 8.90957026445415 12.748684448308763 0 0 0
562 1 15.648989330761543 4.607643519412808 13.851396452377637 0 0 0
590 1 12.63541016214186 8.511106333372485 14.070897795216332 0 0 0
594 1 16.011835538404227 8.416159663806761 13.932186920231407 0 0 0
462 1 12.29657705891825 8.594506058978485 10.569464463421609 0 0 0
430 1 12.652203738637477 5.223226025116976 10.456262126298165 0 0 0
463 1 12.289986966507554 7.037168478858641 12.29188785499619 0 0 0
436 1 14.004795115037119 4.925217618973432 12.382530026931066 0 0 0
468 1 14.251599050563991 8.774763762671423 12.331867236648717 0 0 0