LAMMPS data file via write_data, version 29 Oct 2020, timestep = 300000

2048 atoms
1 atom types

-0.4875236150619635 28.839523615065403 xlo xhi
-0.4875236150619635 28.839523615065403 ylo yhi
-0.4875236150619635 28.839523615065403 zlo zhi

Masses

1 58.933

Atoms # atomic

35 1 1.1877162037328726 2.8663606475924994 1.7893592068773065 0 0 0
130 1 1.1291260870711133 1.0975813386422921 3.206824267660733 0 0 0
165 1 3.204471318190471 2.798475205288688 3.382941761198251 0 0 0
8 1 3.076885886149294 0.8658214507603443 1.446502673234119 0 0 0
161 1 28.380617028608615 2.8240366133375643 2.8538438697680384 -1 0 0
4 1 28.578133398275483 0.9867732104209948 1.0008355133539095 -1 0 0
395 1 8.768366748013076 -0.3469852396932288 12.650333898109558 0 0 0
69 1 3.5108959869836656 6.85039547890966 -0.31490376394437714 0 0 0
12 1 6.808284697467502 1.4651848778155445 1.7276787790867134 0 0 0
39 1 5.021368413637964 2.6736749020907684 1.3335002997694145 0 0 0
134 1 4.865857671372264 1.3496732430811087 3.293636397662021 0 0 0
169 1 6.718366764497221 3.0908427251839017 3.1797213737852945 0 0 0
34 1 1.4525208163078154 4.613688844442735 -0.16018192672580317 0 0 0
141 1 10.308049721951607 -0.2579491346492058 3.1742692839598856 0 0 0
269 1 11.05715633077014 -0.12991408407327454 6.954561040851715 0 0 0
138 1 8.81604658881518 1.6688811548270226 3.2834150405653237 0 0 0
16 1 10.26678078441646 1.410812681060832 1.2531188924836751 0 0 0
43 1 8.402207887983291 2.9161519297909875 0.7929486871642983 0 0 0
173 1 10.504207273681049 3.520486141858531 2.9811381641673567 0 0 0
542 1 27.117045929276923 1.198952880326392 13.97464687129841 0 0 0
578 1 1.3647289686451252 8.58104078418478 13.988919682590153 0 0 0
1055 1 26.720556223505202 14.146482871474579 1.176988291875138 0 0 0
1437 1 24.886568441996026 13.92485610506876 10.390492847666346 0 0 0
1291 1 8.670202955633744 14.096557472143216 8.526576010689787 0 0 0
142 1 12.019895221350819 1.6829091858517216 3.1810432508127793 0 0 0
15 1 12.293287050716765 0.057572268671125415 1.3684224639193738 0 0 0
47 1 12.230085361809962 3.170210872003009 1.3391845570954637 0 0 0
20 1 14.512179504218713 0.8059325240796311 1.093510686108929 0 0 0
177 1 13.79729588638003 3.2187641284919133 2.852879080163142 0 0 0
51 1 16.28564233763925 3.379370826327417 1.413437642990347 0 0 0
146 1 15.766609139976453 1.6643422543120274 3.131911883980644 0 0 0
65 1 -0.21108739816990135 7.003883100912525 -0.20712315591913655 0 0 0
1537 1 28.561038201265873 14.12488695367818 13.887944138541354 -1 0 0
102 1 4.650862719338181 12.683710907852019 -0.019681035668570268 0 0 0
117 1 18.118976256146986 10.797866111908618 -0.43853697584284845 0 0 0
24 1 17.774776069090688 1.2990769251246073 0.7639933291481509 0 0 0
55 1 19.491632288235586 3.806523874288036 1.2612831947299032 0 0 0
150 1 19.428150863796226 1.2791155306437576 2.654058826720834 0 0 0
181 1 17.550725132614108 3.3690205890678144 3.8188784761128343 0 0 0
66 1 1.2386176120192087 9.009481244430187 -0.05910452611250905 0 0 0
105 1 6.7104422691075705 10.65374563434257 -0.4489936647436086 0 0 0
1169 1 14.135975147491605 14.016831892437045 3.3175709687398607 0 0 0
185 1 21.538819708645043 3.3415721988236555 2.556445815371335 0 0 0
28 1 21.54263935481405 1.5091948552592864 1.1633577903245114 0 0 0
59 1 23.122097321897414 3.1260623846478133 0.8457635968540689 0 0 0
154 1 23.09097067011837 1.2450210009297702 3.100315394635193 0 0 0
77 1 10.616580436420936 6.891164929420364 -0.1987173197279945 0 0 0
1433 1 21.186910701541134 13.770247331959137 10.14772213667667 0 0 0
597 1 17.99741884965987 7.1163164859683095 13.8983692747329 0 0 0
32 1 24.877857103864255 1.3198522757716402 1.3749446718919809 0 0 0
187 1 24.777485353971684 3.686160452263411 2.6210617744647493 0 0 0
63 1 26.819137862374927 3.091484468369988 1.0213832851520632 0 0 0
158 1 26.842200482741458 1.1643370634465091 2.9003828323542704 0 0 0
510 1 26.75707051295295 12.549350548507395 10.010550373974885 0 0 0
1549 1 10.41994339567973 13.989277589874613 14.006883598786589 0 0 0
614 1 4.8238613507133055 12.12264057816899 13.950557053072327 0 0 0
151 1 19.543461559453625 -0.16983002772001332 4.854760320934278 0 0 0
162 1 1.7199587825254419 5.012608112715722 3.474707181658827 0 0 0
67 1 1.8573350981080066 7.061490817985489 1.416980965496722 0 0 0
194 1 1.3226498163552878 9.209187552386915 3.695694719372775 0 0 0
197 1 3.3195318668949882 6.913665707547279 3.4791013120841 0 0 0
40 1 3.077680999726385 5.0516000987551966 1.640440221409102 0 0 0
72 1 3.1995938287063317 9.055294982730267 1.8503463666439077 0 0 0
193 1 0.011478034912324575 7.042879404371705 3.1649942527019705 0 0 0
68 1 -0.2394925713632904 8.628210673674923 1.6132468775579851 0 0 0
101 1 2.963536012266143 10.89135508185739 -0.26904146450427247 0 0 0
121 1 21.372249520458094 10.354707472814061 -0.3404809334434547 0 0 0
1047 1 20.598567651570153 13.34580068758384 1.2713711513594015 0 0 0
44 1 6.349850978407068 4.782266120302846 1.513464409887141 0 0 0
166 1 5.104691605383391 5.019115377237159 3.2626505921814113 0 0 0
71 1 4.636474102538656 6.74415305039888 1.4979116752031394 0 0 0
76 1 6.880071277886449 8.67750286576121 1.2667061123847805 0 0 0
201 1 7.083979853409373 6.671700120737541 3.1237639187462314 0 0 0
198 1 5.226433968045947 8.666271482242156 3.3251758422999673 0 0 0
387 1 1.0796976071704527 -0.36751405331901943 12.552274733501518 0 0 0
205 1 8.369228960008058 4.713609659258095 2.637434809794173 0 0 0
48 1 10.58906496104379 4.970232743110085 1.0674165792222274 0 0 0
75 1 8.77925231777671 7.341217916371452 1.5440105722914188 0 0 0
80 1 10.70665992334251 8.593120536352357 1.9039927433489696 0 0 0
202 1 8.307779646948257 8.858461643756865 3.1874094757906253 0 0 0
206 1 10.162237122515597 6.197225558600544 3.1158970061665388 0 0 0
212 1 12.492656214633246 8.54159984150252 3.03794474715173 0 0 0
94 1 27.46486267625931 8.443568936912843 -0.36302465236463266 0 0 0
585 1 6.755992818189906 6.669563650767855 13.877979319326927 0 0 0
267 1 9.226882605828484 -0.47589497903795025 8.927144274487683 0 0 0
79 1 12.300871262935608 6.671888793779451 1.2309098454728995 0 0 0
174 1 12.294345265956128 5.260306625706977 3.1534125350636617 0 0 0
209 1 14.279895076118052 5.29169011813554 0.9889943287928993 0 0 0
84 1 14.339032613407102 8.88930850503689 1.316967291527725 0 0 0
241 1 14.632772554168346 6.781332275921499 2.793310665792365 0 0 0
210 1 16.138667010418065 8.821343578461342 3.230307074204702 0 0 0
178 1 15.612649672390308 4.721026249109208 3.149932853286383 0 0 0
170 1 8.520210698352404 5.139580008520189 -0.10320459339345639 0 0 0
273 1 13.885685197355413 -0.26871078844745033 6.823652994216714 0 0 0
546 1 1.3479561856840983 4.856940962688845 13.826111584911823 0 0 0
83 1 16.07309621958556 6.929425196747881 1.0517270213553032 0 0 0
56 1 17.807647323763863 5.579293074560279 1.0152144739696058 0 0 0
182 1 19.56769018834106 4.841022215726064 3.363890071207734 0 0 0
87 1 19.812674305365647 7.055794083679517 1.1998638389878522 0 0 0
213 1 17.428236914605023 6.731904579043072 3.4237366305365353 0 0 0
88 1 17.37687874173824 8.78992249628386 0.922217866412808 0 0 0
214 1 19.736752403266678 8.590448193094394 3.1210833853560334 0 0 0
11 1 8.500948400454678 -0.2853121688753848 1.2765657010594234 0 0 0
1541 1 3.306280031839582 14.017770699967878 14.000606831972368 0 0 0
60 1 21.449037136166343 5.221761781930591 1.167991012137952 0 0 0
186 1 23.452672371636147 5.439552958605724 2.9633519916444016 0 0 0
91 1 23.320187581919964 6.679002534116938 0.9737841773070239 0 0 0
217 1 21.10646396735144 6.627515954908143 3.2018024026653764 0 0 0
92 1 21.33822976585812 8.855476540856442 1.632102923210852 0 0 0
218 1 23.011038082366095 8.231372591011953 3.178690156350614 0 0 0
565 1 16.02852375694168 4.969763768269749 13.951994708011823 0 0 0
1297 1 12.143627428828971 14.083932762669455 5.076894553765392 0 0 0
36 1 -0.26707789467610477 5.360236420369446 1.5983338952209092 0 0 0
64 1 25.270515493506686 5.323058151632232 0.5983946826140047 0 0 0
96 1 25.16641391212564 8.474229166292067 1.3569190806815896 0 0 0
221 1 25.326695734414454 6.778332405389977 3.116450757407652 0 0 0
190 1 27.01216283967972 4.74646644823157 2.5329908624346515 0 0 0
95 1 27.295541414752186 6.990351040321985 1.379956298167347 0 0 0
222 1 26.978499905701664 8.601466951405426 3.0899351667774217 0 0 0
73 1 6.763148883591747 6.653186922182727 0.011341462846396089 0 0 0
634 1 22.953710574187625 12.052019345172658 14.056915451044917 0 0 0
99 1 1.422905090216559 10.59682389887088 1.7615030077963056 0 0 0
226 1 1.2079026395385235 12.458683209026951 3.053703274243522 0 0 0
229 1 3.3754584283749205 10.567571892460046 3.907178223277871 0 0 0
104 1 3.397704250128915 12.497086672720991 1.954327176281081 0 0 0
100 1 28.564317510842212 11.994983236013228 1.6029783748180613 -1 0 0
225 1 28.429250095466585 10.225776310956018 3.4258671023249048 -1 0 0
159 1 26.934731454102423 -0.46881353592113184 5.036662391308645 0 0 0
484 1 28.45289884965098 12.276117588287866 12.158964647379001 -1 0 0
1177 1 22.020354624920706 13.622064524354643 3.4210863513541154 0 0 0
103 1 5.203739346710492 10.609112339669563 1.705605726912435 0 0 0
108 1 7.067242246397581 12.368854334653843 1.5938651160726756 0 0 0
230 1 5.213885386129248 12.44161956581083 3.151742541069856 0 0 0
233 1 7.092321785489568 10.809344931232078 3.38748132507029 0 0 0
107 1 8.844872840101797 10.516482082717204 1.0946027054703107 0 0 0
112 1 10.368963412010233 12.321848750527685 1.3625944357269515 0 0 0
234 1 8.748445624173296 12.471611785026372 3.3952592542273794 0 0 0
237 1 9.973730347498893 10.639919676083368 3.1771080607718734 0 0 0
238 1 12.355792411653814 12.254695343220554 3.396566830067263 0 0 0
511 1 26.73409397997645 10.670934867004819 11.933864572504483 0 0 0
111 1 12.206187877729644 10.62522389665136 1.5822165855394865 0 0 0
113 1 14.257027381527807 12.429272601106172 1.4327027406900925 0 0 0
116 1 14.144035246723334 10.623103721782762 3.5255008527769602 0 0 0
242 1 15.950750696672728 12.41617187620019 2.98257491026856 0 0 0
115 1 15.861640853484339 10.703086246739518 1.4608634328574497 0 0 0
122 1 22.911813219081246 12.061470451435195 -0.3195197208776555 0 0 0
494 1 12.138813754424104 12.8047710829679 10.451063806782313 0 0 0
509 1 24.90725162255811 10.798226873713286 10.172529736468395 0 0 0
119 1 19.570585283113278 10.842479832987964 1.431162841811717 0 0 0
120 1 17.795667109463743 12.47211333202866 1.3175990053696205 0 0 0
245 1 17.811778645893718 10.39998953801888 2.800869783089577 0 0 0
246 1 19.90533918554271 12.218467139890475 3.0655990314832677 0 0 0
935 1 4.776563070587356 1.2050942372029982 -0.4789603677373804 0 0 1
573 1 25.37137790159175 3.130197093845029 14.126772484843233 0 0 0
391 1 4.743580279991543 -0.16536929501999448 12.571709533817838 0 0 0
495 1 12.276188428883463 10.731600887118885 12.447270222121263 0 0 0
123 1 23.531563373595752 9.971894447692325 1.225595470776778 0 0 0
124 1 22.206478490805797 11.939599200604187 1.9759592359742357 0 0 0
249 1 21.603074056278242 10.15237810241302 3.5178378016479384 0 0 0
250 1 23.988440763797374 12.44566710222812 3.656751888472039 0 0 0
512 1 24.5371645808212 12.291835143062416 12.487279635846013 0 0 0
49 1 14.480483979029035 3.2558145321929657 -0.18839996834371914 0 0 0
33 1 28.645208791141993 3.3934256180209434 -0.22291710534519127 -1 0 0
507 1 23.270575650642378 10.224289330476722 11.989221546365286 0 0 0
508 1 21.808259025062565 12.571305015886043 12.072153880453001 0 0 0
253 1 24.95737454005071 10.090176596438932 3.517505383324713 0 0 0
128 1 25.212970735090117 12.055424267433965 1.3678977589130787 0 0 0
127 1 26.878633378296485 10.26725877610523 1.2256701871208346 0 0 0
254 1 26.606071519138798 11.946979817853192 3.186580091992541 0 0 0
255 1 26.903638598124427 10.219099952801521 5.096054787256825 0 0 0
277 1 17.89735625116335 -0.26422240658467355 6.764630887064085 0 0 0
477 1 25.61615708099589 6.707650692206651 10.289894433963378 0 0 0
271 1 12.443174945404628 -0.4046577918500779 8.57831861072891 0 0 0
163 1 1.2367153147941161 3.124419295633953 5.091108407080077 0 0 0
258 1 1.2164862274571322 0.9362886587681605 6.344298605682803 0 0 0
293 1 2.8869807207874074 2.8972391809221008 6.828813597833965 0 0 0
291 1 1.4934707627136752 3.0158368876425783 8.712192277628269 0 0 0
136 1 2.828710965029918 0.8451951065099621 4.959900049976803 0 0 0
264 1 2.803137125952825 1.033690111675905 8.377115669559329 0 0 0
260 1 0.0023154032812303105 1.0675570564039623 8.932158217209123 0 0 0
289 1 28.82332954641436 2.8966095204559874 7.567632974300384 -1 0 0
38 1 4.7272966558035705 4.739528216496913 -0.36523853048166155 0 0 0
140 1 7.028912993564263 1.4815754914216523 5.026758298988201 0 0 0
167 1 4.671280022698418 2.898185958964511 5.1732605699591225 0 0 0
262 1 4.788553501385641 1.19128362191668 6.923224972909296 0 0 0
297 1 6.847440230802714 2.3519072942226216 7.460260248251125 0 0 0
295 1 4.674064887800152 2.754170019570256 8.567985849987465 0 0 0
268 1 7.335155883940366 0.7996857583725567 9.07589856078625 0 0 0
81 1 12.153357582166262 8.90106183344629 -0.3052899469685167 0 0 0
143 1 12.009497633662685 -0.2653041601343421 4.733754464236769 0 0 0
171 1 8.81495764433824 3.6644283941647355 4.744430206542795 0 0 0
144 1 10.302805755123819 1.706834688804669 5.0756115484165525 0 0 0
425 1 8.9809484026215 2.5877719127141985 9.019644640811444 0 0 0
266 1 9.10155596840245 1.2737139186712108 7.038035385139748 0 0 0
301 1 10.695250772562567 3.4248240227409696 7.09482697405589 0 0 0
299 1 11.062481842180473 1.4917921000582146 8.737696351712174 0 0 0
448 1 24.951904394401343 5.228395926748348 12.164604305164502 0 0 0
98 1 1.4968065256130842 12.628209508306842 0.34438417226460505 0 0 0
479 1 26.837641235739007 6.919663846480281 12.382460298005915 0 0 0
175 1 12.55033729553048 3.33001328188721 4.988950985670756 0 0 0
303 1 12.545237354076733 3.2593667995755884 9.247018583925868 0 0 0
276 1 12.457532175497684 1.7972655917826588 6.857009233240186 0 0 0
148 1 14.143645262021037 1.276621336447833 4.828854742804558 0 0 0
305 1 14.464845830853811 3.4026523799634054 7.246619421574939 0 0 0
401 1 14.065667541724537 1.3068897398902148 8.725176880077333 0 0 0
274 1 16.065439354900473 1.3580433481000274 6.825266026550435 0 0 0
179 1 15.577472228717973 2.834589429534065 5.077074008332973 0 0 0
307 1 16.07777907781857 2.717103925141773 8.543636950184421 0 0 0
446 1 26.87748581810632 5.147984719116596 10.664993256013059 0 0 0
506 1 23.21879627855978 12.246569414746194 10.357440889073208 0 0 0
152 1 17.77161793912542 1.359271840539726 4.9949023664117425 0 0 0
183 1 19.515519252258574 3.0160084656614443 4.9793736154833255 0 0 0
309 1 17.588170829727442 2.944648542789626 6.610408113263321 0 0 0
278 1 19.601000999932424 1.571155929002868 6.811319431491701 0 0 0
311 1 19.559875475785347 3.3625678608904455 8.675550255066693 0 0 0
280 1 17.997017596825124 1.583713386097072 8.760882644867024 0 0 0
6 1 4.9376653155126 -0.4361303181275424 1.8178403223259845 0 0 0
478 1 27.06289278393277 8.375925091320218 10.267534222047189 0 0 0
487 1 4.789340191756512 10.560019803238683 11.909064355304373 0 0 0
156 1 21.329864086111314 1.4632272617868798 4.47422286084355 0 0 0
317 1 23.37909957400963 2.9602874828576913 4.777535551882003 0 0 0
282 1 22.433811816543635 1.2152206175291018 6.611017227875504 0 0 0
313 1 21.42276611447505 3.2257627317364537 6.8939824690406155 0 0 0
284 1 21.08583423907515 1.1780781407372891 8.502760047861907 0 0 0
315 1 23.04238405435327 2.999151900307767 8.963261503649813 0 0 0
132 1 28.130940794992593 1.3920015005478814 4.69467326929203 -1 0 0
480 1 25.337432180571323 8.62236287539975 12.298466211355503 0 0 0
160 1 25.136614667271854 1.1839702673847659 4.558052845629111 0 0 0
191 1 24.381024583945152 2.427028953812752 6.8869570562165165 0 0 0
189 1 26.34822320476505 3.1829813464310925 4.487969294710632 0 0 0
286 1 26.73902830324006 1.428361073189357 6.388585194531863 0 0 0
319 1 26.98180081884212 3.0957493823895774 8.816058752807514 0 0 0
288 1 25.03344089224798 1.3158812145525947 8.65076928509773 0 0 0
168 1 3.142269157630534 4.969341673737542 5.263303673003437 0 0 0
290 1 1.1222533802630787 4.682936852936019 6.901059475789697 0 0 0
195 1 1.5440007994112661 6.8177463004922085 5.195833872364053 0 0 0
322 1 0.913786222811819 8.655565230956372 6.675689861227422 0 0 0
296 1 3.10950177111041 4.678528014565867 8.594045034645196 0 0 0
323 1 1.460390239314234 6.5401049189873905 8.63640240852764 0 0 0
200 1 3.442472582183834 8.634653795944734 5.043203927543889 0 0 0
328 1 2.889811716219599 8.687843147685676 8.653805184027098 0 0 0
292 1 -0.33008741453104995 4.996030271420047 8.931135380313847 0 0 0
324 1 -0.38722333169658585 7.962643844688914 8.520122780852326 0 0 0
164 1 -0.30649229748042356 5.055366924723012 4.585918164524646 0 0 0
325 1 3.478129650173114 6.9494961822676125 6.984151123639974 0 0 0
199 1 5.047809885628879 6.909812227474164 5.149956845446713 0 0 0
172 1 6.643630259684989 4.079103650338915 5.5663095759882895 0 0 0
294 1 4.8297460595167525 4.799426301853352 6.7134811155440826 0 0 0
300 1 7.014059322965874 4.479946491452721 8.406679039993156 0 0 0
329 1 6.466514967996941 6.589591659837525 6.939165372230935 0 0 0
332 1 6.981753573345433 9.02849084242951 8.772324765049273 0 0 0
326 1 5.102907205670149 8.62054945318576 7.282132588676103 0 0 0
327 1 4.959611275065904 6.561390641553977 9.102974322903979 0 0 0
204 1 6.845651296468264 8.25963900723904 5.504402868752637 0 0 0
330 1 8.710558447895389 8.204910416935535 7.082510253918235 0 0 0
176 1 10.694479794175027 5.078990465587722 5.266474215113799 0 0 0
298 1 8.888788534826931 4.67032645778418 7.388813910809818 0 0 0
203 1 8.407982416330947 6.477095381065063 5.338048064049259 0 0 0
333 1 10.351468630280781 6.525091621072321 7.395607413005422 0 0 0
208 1 10.333942831556653 7.979369541080233 4.838393440560206 0 0 0
336 1 10.240514217377493 8.807682090669394 9.098620540380821 0 0 0
304 1 10.648911610215247 5.08047750145609 9.01223383481799 0 0 0
331 1 8.132485498296479 6.444591458710552 8.750304622814108 0 0 0
270 1 12.422018431674577 4.938617484219312 6.48715867121066 0 0 0
207 1 12.487354503411815 6.839887627967451 4.930840072247394 0 0 0
334 1 12.274385148379102 8.39983072413702 6.495344070969429 0 0 0
335 1 12.047892769338507 7.193244872305161 8.234088129738428 0 0 0
180 1 14.499079939907753 5.598021898211159 4.88687970348228 0 0 0
302 1 14.106025326406337 7.083704265110168 6.996133264165106 0 0 0
308 1 13.952442183444543 4.992899155883502 8.846801097574955 0 0 0
340 1 14.34386904304382 8.348058956003104 8.604400330828256 0 0 0
338 1 16.022845398001103 8.705987090877667 6.597438821076744 0 0 0
337 1 13.995614319109173 8.6383018381477 4.862766052238094 0 0 0
211 1 16.228110604879117 7.132753624557654 5.209080440375202 0 0 0
339 1 16.06250144092064 6.794311658606549 9.030192096704189 0 0 0
306 1 15.778238620704961 5.259128389128499 6.974367154979842 0 0 0
216 1 17.89318693304548 8.860762340215503 5.047572397174371 0 0 0
215 1 19.08244632539931 6.547098005054084 5.106327792831527 0 0 0
310 1 19.49028392663079 4.843007004863306 6.541592527092767 0 0 0
312 1 17.61625605852768 4.887597512932981 8.568402794286824 0 0 0
184 1 17.359345700863212 5.22000459390959 5.222907640003213 0 0 0
341 1 18.161278891471536 6.7537388790905455 7.219031782429491 0 0 0
342 1 19.586685059033453 8.517920541394028 6.7910512306757065 0 0 0
344 1 17.494931542601726 8.919966742459971 8.506012496745367 0 0 0
343 1 20.108133101229235 6.712178839015603 8.507856051034947 0 0 0
219 1 23.215740280360823 6.994946121840081 5.1350567187063945 0 0 0
188 1 21.579349084805795 4.416785930618771 4.916126203052515 0 0 0
314 1 22.942275427219215 5.090100955301148 7.148945204590241 0 0 0
220 1 20.975511129301548 8.58699613317832 5.175592135965128 0 0 0
345 1 21.419615858683116 6.679392352423538 6.347574770468289 0 0 0
346 1 22.891322092697113 8.516927726200686 6.912629313068918 0 0 0
348 1 21.422021302803994 8.634960211046511 8.850156009197002 0 0 0
347 1 23.033928914042512 6.883510526974461 8.624591234137153 0 0 0
316 1 21.700452329185474 4.9576619735899055 8.988184046661608 0 0 0
196 1 28.251701384153012 8.026480375869307 5.092935667399844 -1 0 0
321 1 -0.14816088140420192 6.591348713615738 6.668060258944896 0 0 0
320 1 25.48492900367845 4.79921735113956 8.272451718218713 0 0 0
349 1 24.878481356448457 6.580929832564212 6.868338469151325 0 0 0
223 1 26.95379631644006 6.19421559279262 4.98850732126336 0 0 0
192 1 24.756350041623815 4.807908948209296 5.249050354657356 0 0 0
318 1 27.24788741008441 4.3105553489216835 6.788097133339706 0 0 0
350 1 27.11109310809481 8.669937958911273 7.159840970598958 0 0 0
351 1 27.1923449881899 6.724392294788203 8.28724122320398 0 0 0
352 1 24.944251574443864 8.432321443922168 8.509892173866666 0 0 0
224 1 25.584297686621152 8.437599649176942 5.3086932193945175 0 0 0
232 1 3.31326739190431 12.526344520282807 5.059316136599166 0 0 0
227 1 1.2862835690628989 10.974395427057415 5.318586896248405 0 0 0
354 1 1.5577986731678477 12.742858034608362 6.720860000856903 0 0 0
357 1 3.1885462944409246 10.509447647511603 6.726487380574767 0 0 0
355 1 1.1877646576112246 10.311546797005159 8.77790219677466 0 0 0
360 1 3.2502892162275967 12.546227252342645 8.496277261800225 0 0 0
1051 1 23.45280948905754 13.855314041447949 1.347385990505682 0 0 0
489 1 6.791447204961814 10.813444026169845 10.632801526951253 0 0 0
285 1 24.784404728426555 -0.002533500767712027 6.425048783534302 0 0 0
505 1 20.958313290098566 10.542086185928472 10.82581516928147 0 0 0
359 1 5.0085755173466024 10.71843953436192 8.386175845653634 0 0 0
231 1 5.516194013007754 10.49730150959856 5.293850930967974 0 0 0
236 1 6.763950835764366 12.735109146414922 5.267013925732212 0 0 0
358 1 4.958223134635029 12.81554752228068 6.730735501761323 0 0 0
361 1 7.084705238572691 10.57358958220075 6.824473742024145 0 0 0
364 1 6.993171904134242 12.74719378475016 8.04442891890181 0 0 0
482 1 1.2883338491985301 12.449447547453936 10.446804756910552 0 0 0
240 1 10.565465528821894 11.93294589052971 5.166237893525729 0 0 0
235 1 8.521091789577717 10.462845782057057 5.209247024956291 0 0 0
362 1 8.69761652521804 12.355162226651887 6.782111454313885 0 0 0
365 1 10.201924515788065 10.162643579239882 6.722377581793514 0 0 0
368 1 10.819941522276965 11.98821583089269 8.723664959213668 0 0 0
363 1 8.65113303390749 10.771108507200264 8.649508520081977 0 0 0
239 1 11.838995462358664 9.979362336923177 4.900566370348824 0 0 0
367 1 12.440321887204163 10.470013310799747 8.481558014240418 0 0 0
486 1 5.175496767845193 12.577985018549422 10.390278335162293 0 0 0
473 1 21.372333786664345 6.698264748740325 10.548563083428977 0 0 0
504 1 17.695182227230106 12.431788290370646 12.711306475795025 0 0 0
366 1 12.453249852577812 12.180044496856139 6.671336277545499 0 0 0
244 1 14.35568183210379 12.491259716659341 5.163788168905709 0 0 0
369 1 14.03339316856728 10.437960487923915 6.653789006014474 0 0 0
372 1 13.950415829366262 12.584807740456197 8.67036181982376 0 0 0
243 1 16.216259209461683 10.581344504554341 5.024276408540369 0 0 0
370 1 15.919043255113102 11.92372188186791 7.056665677086129 0 0 0
371 1 15.118051894543983 10.520385153426915 8.88508999677597 0 0 0
475 1 22.941069894946477 6.823505528784881 12.314860698983399 0 0 0
500 1 14.381701495351287 12.005403543548487 12.528083894600668 0 0 0
474 1 23.575667137658925 8.133259637861011 10.595735174432043 0 0 0
492 1 6.789100349058635 12.020253816085635 12.363017994746002 0 0 0
37 1 3.0061828730624174 2.8375071772315232 0.2437350578208316 0 0 0
375 1 19.65001808913613 10.175705041273892 8.721578446348254 0 0 0
247 1 19.494272121094014 10.635273073968394 4.68376696871793 0 0 0
248 1 17.749435365953335 12.225275647878702 4.884650007747092 0 0 0
373 1 17.861243683042364 10.757177931062227 6.6637145353374265 0 0 0
374 1 19.68817882798086 12.010765702186944 6.723665565782061 0 0 0
376 1 17.76223110210557 11.961101727681402 8.858046273503923 0 0 0
554 1 8.682030548278643 4.64983933772185 13.753314705495002 0 0 0
1281 1 28.668435181118255 14.170221421458171 6.710354231074366 -1 0 0
251 1 23.49326515040596 10.259790939632055 5.303139019843397 0 0 0
252 1 21.46061319740185 11.961902884725422 4.887723437543336 0 0 0
377 1 21.194805534807678 10.3947844960148 6.738880361093445 0 0 0
378 1 22.831922492943495 12.120423798712913 6.883610170792486 0 0 0
379 1 23.14514534714233 10.3359159623788 8.523872426106541 0 0 0
380 1 21.168086288375136 11.789416930055342 9.174398717183333 0 0 0
502 1 18.989063560885253 12.300341045380915 10.802864114108816 0 0 0
1043 1 16.197011656462525 14.017326958939927 1.4711430635829705 0 0 0
353 1 -0.3622195954913541 10.81927164024724 6.967001761857732 0 0 0
356 1 -0.47791098207770943 12.831033777002252 8.61192089623008 0 0 0
228 1 28.456125753794097 12.106885455863836 4.707376807435084 -1 0 0
384 1 24.83802740126033 12.501916883374014 8.371671621772196 0 0 0
256 1 24.98269120966915 12.403479708957594 5.939782971888251 0 0 0
381 1 25.134770610254872 10.460280637665779 7.115439728346509 0 0 0
383 1 26.897429723610056 10.300465113907142 8.780135580399252 0 0 0
382 1 26.978886613095646 12.216677621038965 6.9225730531691285 0 0 0
476 1 21.818174524221003 8.597224472436624 12.468256293555635 0 0 0
444 1 21.39910789478085 5.027818350827684 12.632351297256955 0 0 0
386 1 1.771781233748066 0.9624824680209338 10.618926843504635 0 0 0
419 1 1.3219276090833467 3.041623975636678 12.150643699324352 0 0 0
421 1 3.202081761403118 2.929878449005602 10.399607110806631 0 0 0
392 1 2.9949196149498354 1.5429475420731125 12.380120031114336 0 0 0
388 1 -0.3579128136327334 1.4280820785190291 12.423061894665073 0 0 0
503 1 19.621575633165158 10.882986947409245 12.443998619020487 0 0 0
598 1 19.373016982882355 8.726029296296803 13.705195447963186 0 0 0
501 1 17.95672068223678 10.23176063651175 10.338159067536692 0 0 0
390 1 4.793873299047114 1.302267828925818 10.442242640386173 0 0 0
396 1 6.663778166223739 1.2912614246433525 12.389291047692707 0 0 0
423 1 4.81782119605136 3.0609156157318136 12.631916577481757 0 0 0
427 1 6.595438736731476 2.9533050391775544 10.358627332840982 0 0 0
1153 1 28.659718127032498 14.063744161983943 3.2945767380820583 -1 0 0
70 1 4.9451225877268365 8.872298505263302 -0.3775010177366975 0 0 0
272 1 8.8897935255342 1.4010279336912435 10.965934332108521 0 0 0
394 1 9.221566953948066 2.849927333074981 12.612561964136697 0 0 0
400 1 10.973046744040019 1.2401655648538141 12.698994227354573 0 0 0
429 1 10.947740655453057 2.8678991108063783 10.915099466169961 0 0 0
498 1 16.079308926188165 11.929246381604349 10.527085062271116 0 0 0
441 1 23.801124855522428 5.199022787202212 9.967201434916046 0 0 0
586 1 8.735645532687649 8.487346493544829 13.882146774317562 0 0 0
1426 1 15.998796460769327 13.628828801090474 8.71584462207042 0 0 0
431 1 12.52102972382462 3.0273348699247924 12.294851344971864 0 0 0
404 1 12.554495106190565 1.3463965891068232 10.419163753806256 0 0 0
433 1 14.577912188076334 3.0297746376286563 10.612692132693107 0 0 0
402 1 14.369323559669471 1.0224735376349687 11.89527322196768 0 0 0
398 1 16.397830231554043 1.1398937758405705 10.763307133056635 0 0 0
435 1 15.92967846271949 3.10677837511978 12.24919062519237 0 0 0
491 1 8.698243345877671 10.357495767174589 12.502265841957566 0 0 0
606 1 27.02196237571485 8.727880508084137 13.974125616772294 0 0 0
499 1 16.038472847896823 10.712030543701294 12.440649062399046 0 0 0
496 1 10.239696388776807 12.341192581188249 12.115326285364532 0 0 0
406 1 19.61990127197939 1.0838424286165025 10.752379371104057 0 0 0
408 1 18.137463326669888 1.3321770270057978 12.516300841143721 0 0 0
437 1 17.845191842091317 3.0858400952289515 10.67720524553736 0 0 0
439 1 19.8413069500603 3.2919067540584503 12.60746355369522 0 0 0
1171 1 16.25961062364268 13.867427765720237 5.32776126926639 0 0 0
488 1 3.2641380113636544 12.598842768646618 12.34744568192773 0 0 0
485 1 3.328767853864646 10.790801218294813 10.170458355278596 0 0 0
490 1 8.751628430991387 12.159993781532858 10.538143365776229 0 0 0
410 1 23.41106429226239 1.0034447635735526 10.45428688571319 0 0 0
412 1 21.488383277213444 2.8814272580279043 10.456521116653128 0 0 0
443 1 21.440531045264187 1.6377190974348488 12.778390889360494 0 0 0
442 1 23.201617075536674 3.2895538051183633 12.638127560759587 0 0 0
1173 1 18.070515136298102 14.153499709339798 3.2708581668296604 0 0 0
493 1 10.61566046706709 10.427970212700414 10.815698618967348 0 0 0
417 1 -0.3354835961514897 2.952355620628682 10.533307101277037 0 0 0
416 1 25.104347958198 1.4283493301010424 12.60905419298776 0 0 0
445 1 24.885549065794578 3.093072798812559 10.631297606447918 0 0 0
414 1 26.80473103073056 1.635808470676651 10.599637704585058 0 0 0
447 1 26.772750519645253 3.1635812748785663 12.27184023606688 0 0 0
481 1 28.477778544192816 10.817375101998199 10.272072636321603 -1 0 0
424 1 3.322280663960856 5.054212284263511 12.230971087904157 0 0 0
418 1 1.459579753758463 4.797934257173866 10.350694895509353 0 0 0
451 1 1.3251980517379367 7.06512246358376 12.115182894749518 0 0 0
453 1 3.0892206665404798 6.786789958326245 10.502524819356857 0 0 0
450 1 1.0583246564666209 8.503767301168478 10.399988042603965 0 0 0
456 1 3.0799538875993964 8.707522437173495 11.555368010657174 0 0 0
420 1 -0.44528938781500116 4.6442308937479835 12.347792626395705 0 0 0
449 1 28.774619167184298 6.760321899011879 10.77421924717389 -1 0 0
452 1 28.302328815956237 8.85965480274121 12.1693718956096 -1 0 0
483 1 1.2225682291580822 10.598847995471539 11.926482306093051 0 0 0
422 1 4.743580737615419 4.500187350712115 10.423628109844417 0 0 0
428 1 6.463899515772298 4.829384725190193 12.361379897383594 0 0 0
455 1 4.7706992641300605 6.784658239713135 12.296301793588658 0 0 0
457 1 6.854600130358503 6.650139459097598 10.740622416977107 0 0 0
460 1 7.009058323683513 8.799163702538193 12.182539485761065 0 0 0
454 1 5.0478962960493545 8.754639989724474 9.978687828160226 0 0 0
432 1 10.684458851380878 4.798605426776937 12.568612352759102 0 0 0