LAMMPS data file via write_data, version 29 Oct 2020, timestep = 300000

2048 atoms
1 atom types

-0.7850624157680279 29.13706241576965 xlo xhi
-0.7850624157680279 29.13706241576965 ylo yhi
-0.7850624157680279 29.13706241576965 zlo zhi

Masses

1 58.933

Atoms # atomic

719 1 2.9676305413796578 0.7360607660623444 0.17745440345034047 0 0 1
1854 1 1.4665395685214202 0.6592041901274956 2.9349495346022736 2 0 0
55 1 4.211431416145914 -0.12281727798083786 2.5739720491814704 2 -1 2
2034 1 1.8292556639442124 3.0512412380830756 -0.10675329702263425 -1 2 0
622 1 12.967432107529548 9.398774736625889 0.8800485256378496 -1 -1 -1
1365 1 -0.7797716106488082 0.057724275818009985 2.179840355451368 0 0 0
553 1 3.305705462565177 2.5139070101213914 2.476364384501896 0 1 2
293 1 0.386168134594302 0.9647644545501952 0.5323090970750388 1 1 1
1262 1 3.916384629070662 3.508427957146205 13.8949848554557 2 1 0
106 1 4.219965132970197 13.289065009621451 3.7206485093680746 -1 1 -2
479 1 8.369957593016446 1.669696815001882 2.502118976995464 1 1 0
934 1 7.715973090978414 1.043086934655292 -0.02702754762819648 -1 1 1
323 1 17.862620299889336 0.0037607924609389665 10.396915587083644 2 0 2
438 1 3.920572219785667 13.88476676125477 8.632565793937244 0 0 0
1731 1 5.272480053079 12.95447394462068 12.966415643791906 0 0 0
1323 1 5.784063139093697 1.9751164472011595 2.990290995913831 1 0 -3
538 1 12.016149396315667 13.326334476016175 5.944796111974578 0 0 1
1411 1 6.366686673773885 -0.15666255593735512 1.907092630979379 -2 1 0
1768 1 10.808997162536555 0.9875453459771042 3.767076430031012 -1 0 1
1381 1 10.587749494662782 1.6959954963938415 0.6179935989252499 1 0 1
1803 1 10.43880652823149 -0.7183797010684244 8.91507845089919 0 1 -1
957 1 12.683774735390543 3.9327388750177104 3.4592949916235094 2 1 0
1360 1 12.525807093250647 2.659554182073692 -0.05236199627197524 0 2 2
1675 1 21.855286921591464 13.839225891844343 10.760239958125483 -2 -1 2
1524 1 11.608717394395693 6.580929198369472 3.2320763721035073 2 2 0
1445 1 13.255965608862724 2.6275977028563196 13.06804781013563 -1 1 0
463 1 13.44675614856939 4.265383321009534 0.5842523901719687 0 0 1
1513 1 12.462936464473264 0.3435939891665394 1.7528185408771577 0 3 0
477 1 26.933277872070303 9.337753973234348 13.958296375890846 1 -1 -1
1502 1 14.863522976605552 0.1679182855774658 2.5312556058479747 2 0 1
1268 1 15.572767955814708 6.678099081695769 1.962382612953114 -1 1 -2
1418 1 2.5738591070227828 0.18459130206629815 4.700855334115561 0 1 1
1674 1 16.56317562009287 1.976162226869497 2.6175827820495496 -1 1 -1
2009 1 21.903113083958164 6.495487090663681 -0.19827428028503224 1 0 0
1836 1 14.254148427864727 2.465453915877748 2.3920076087531355 0 -1 0
337 1 5.523325085715828 -0.01582537805171258 10.459750053811899 1 0 2
311 1 18.86562244308314 1.0618661897904347 0.10973066069434301 1 1 -1
967 1 18.518714921658752 1.9881276144577305 3.7296891387218425 1 1 1
1357 1 20.018568120290436 3.010681585641693 2.3618510867073974 2 1 -1
839 1 17.961535990364858 3.587317123506147 0.14682882631217753 -1 1 1
1536 1 25.953431773286816 12.762396419731003 10.782136800645109 -2 -1 -1
58 1 26.293543608922633 11.809253008766538 13.184331648835094 0 -1 0
1926 1 26.495218805044473 2.0184169798976597 3.2316969188354747 -1 -1 1
1872 1 23.074350001627568 2.2179049162141706 1.681998961283425 2 1 2
1172 1 20.698723359545056 0.9575541615252292 1.6350684447574668 -1 3 2
312 1 25.201513320423135 0.7673453535653332 2.070717097087524 -1 0 1
1659 1 13.037901114631715 12.649074178202895 0.32186568268716087 2 -1 2
256 1 22.298990548004223 4.73271899032703 1.7853183549480072 0 1 2
1574 1 23.264599227310928 4.152297120652303 -0.11209055682618552 -2 -1 0
825 1 25.26714757357818 2.3016409372237194 0.32388541507530877 -1 1 1
706 1 22.530677840076233 3.2517568747774055 4.017148731129523 0 0 0
1393 1 7.297573022795792 4.92517685133518 13.7852085459975 0 -1 1
582 1 26.78289778016905 1.4189353311634672 13.762312881302245 -1 0 0
1799 1 -0.6664212932050997 2.03278862232248 3.3815544895948477 1 2 -1
468 1 27.914464165714858 2.7861518108887036 5.440529395656472 -2 0 1
234 1 25.736077502740464 5.188375045293085 -0.04176442548399806 0 -1 0
302 1 24.44385146935365 5.7463019379665 2.183446396977894 -2 1 0
982 1 26.34410849128662 5.732030900854155 4.025075707203243 -1 -1 1
233 1 28.054211929254304 3.743850998506818 2.1016210195068625 -1 0 1
1738 1 24.137435168434592 7.598498142577769 0.5348659752692908 -1 1 1
1511 1 -0.4596604857305606 -0.12966125291036967 9.155097316793343 1 -1 0
925 1 4.413361857989696 4.479525867910379 3.384290064723948 1 -1 -1
1281 1 11.93363922125845 -0.5382090644957683 12.150124890356004 0 0 -1
1252 1 3.0668155175975444 6.490432536151105 0.33478273078976417 -2 2 0
1941 1 1.8642077515768634 4.910566779053583 1.40806416787394 0 -1 1
75 1 1.3935447743775913 8.087119176532713 1.2213810032021937 -1 -1 0
875 1 -0.2507176279407247 4.596441379709826 0.36345128006672045 -1 -1 0
1710 1 1.0359259774911036 3.130258119575942 2.655532487764828 -1 -2 1
1246 1 20.614111013142246 14.164757320901787 4.4696724747980285 0 -1 0
964 1 5.668328146852296 5.589003260044384 5.495682757557594 0 1 -1
424 1 8.577480818611058 3.171099915933459 0.8931441810786378 -1 2 1
1356 1 5.054161254187403 1.8510851283418095 0.6772914204137155 1 4 -2
1593 1 5.5747481116021715 6.55728289932154 1.1472044988635939 2 1 2
1176 1 5.987757927204563 3.742531580329058 1.9225997985582115 -1 1 2
1741 1 5.942350966053423 6.661036519977923 3.40652675029237 0 -1 0
1270 1 5.113037496612588 8.580472019534964 -0.30878799717481054 2 1 1
1068 1 23.691805980769804 0.9826715175983842 11.786989670012655 -2 -1 0
1465 1 7.927741711842943 3.921189192754401 2.7871200373388043 -1 0 -2
912 1 9.41784972369903 11.268598157981865 -0.44865774973185724 1 -1 2
1085 1 9.609085763297463 8.616760761725708 -0.009335815366790734 2 1 0
1340 1 9.299949694256386 6.142581957178294 1.8879668541305676 1 1 1
38 1 9.729344981453023 7.357680477593947 4.212965289798492 -1 -2 -1
949 1 -0.010077153394945415 13.201589092244607 3.48687444209523 0 -3 1
190 1 11.766262200416389 12.881364905117257 10.255397517312176 0 0 -1
1289 1 11.757283190203403 7.200531748665345 5.780585521089547 0 2 0
1858 1 11.046723889288645 8.73538233168952 2.190083197762972 2 1 2
2020 1 10.914712594420743 4.362076947328411 1.11881268497458 2 1 1
301 1 27.20751719329258 12.76208275090377 8.756712772676028 0 -2 -1
820 1 13.726772488530822 5.722827866692269 2.075465848564147 1 0 -3
1133 1 14.715535053785374 8.37416848732338 -0.08833075972997984 1 2 -1
436 1 8.79803122781424 6.095880617023797 -0.4270965541622816 3 -1 0
1856 1 12.182375103930953 7.343509654443205 -0.01996685647150176 0 -1 1
1255 1 13.194677967229007 8.700243533969822 2.9811389208684256 -1 1 -2
2022 1 12.608583994789988 0.0896860262419833 -0.7545087245633493 2 2 1
1196 1 14.976345732077744 10.830609668900541 3.285148455430736 0 2 0
507 1 14.67061943822759 8.486697893456112 5.753906691066925 1 1 1
660 1 15.590377481734254 4.320965599085461 0.9061763092740789 -1 -1 0
667 1 2.2686909183892228 10.147682282712987 13.907767929654774 1 1 0
999 1 16.447671076736526 1.098452024613667 0.5873919135963075 0 -1 1
1561 1 16.87971980051404 8.512096811162792 1.1622863363252889 0 2 0
1863 1 18.386726288966585 6.64845590422928 1.2813911974705912 -1 0 0
1337 1 24.37754364504154 -0.2115377071771123 4.215224881869326 -1 0 1
1831 1 16.616743857804565 6.370048547483673 -0.18149787940988882 0 2 1
1157 1 19.182299889685474 8.931725013208359 2.45897063420159 -1 1 0
326 1 21.867189629246976 7.072762442325347 2.5621009298542634 2 0 -1
419 1 20.229172076542593 5.116231531602593 1.1175502774731387 -3 1 0
1234 1 17.92381406157378 4.453268966331952 2.6534453105628524 1 0 2
844 1 21.995781272553998 9.327380349561846 1.601832620946384 1 2 2
231 1 8.791389140820272 0.4908312087822557 13.058024944818417 0 0 -1
1698 1 20.831816063684805 8.598529550172968 4.085130573141512 1 1 2
1333 1 28.41128925407746 6.234541749416959 2.328713157172688 2 1 0
29 1 20.46568828267784 9.223387559180274 14.050498057701754 1 -1 0
71 1 26.101586073355207 7.649225748159068 2.5599978474015743 -3 -2 1
872 1 27.207684942104088 8.473633926750887 1.0021251736805183 -1 2 0
1474 1 4.737503407510041 -0.5661733677798466 13.01824477732222 -2 1 -2
400 1 24.622330757399258 9.396249929543755 2.227008162032514 0 -1 1
1765 1 23.048370021550554 1.6612405742840903 5.937130393674901 -1 2 1
1763 1 -0.5920932324360084 9.448673471801808 0.3330025273999826 0 2 1
227 1 3.0531426860525284 10.300599386405535 -0.018061854273346944 -1 2 0
74 1 1.6201445283878075 10.697631090378302 1.7364724589070941 0 3 1
1966 1 3.498765959675942 9.007297321387542 2.1583932727601485 0 0 0
1048 1 27.963145737345442 12.343909176288884 1.5354227086803647 -2 1 0
1667 1 2.1780533656488528 12.11476874262309 3.5091589939558823 0 -1 2
1883 1 7.202937731706206 9.977334082494561 13.026038322421343 1 0 0
1967 1 25.354614792622346 1.321472608616193 6.256934792404839 -2 3 0
1351 1 8.227547604694575 7.9656824328496665 2.4176416976582713 -2 1 3
1070 1 4.665295062033905 10.570674157804962 3.2393553253230616 0 -1 1
508 1 7.927380051917627 10.349443699118341 1.8631378712772495 1 0 0
1313 1 6.892542395083071 10.541896428787695 4.352983795856811 0 0 1
183 1 5.7195716309380344 10.15521119375747 0.9597707497902084 0 0 0
1003 1 3.7300081386375954 11.964958462915536 1.49595123866969 0 0 0
242 1 5.811588125338775 13.791538134762703 0.3393306904605462 1 -2 0
1424 1 8.180798502585299 12.291999404897053 3.18975547370106 -2 0 -1
1215 1 10.3918550435374 11.113992638945732 1.723136266496009 2 0 0
369 1 10.269231856248647 13.723013633254222 0.8986191513036752 1 0 1
39 1 12.97004007366023 11.127105364129042 2.4528917878989627 -1 1 1
304 1 11.075174980481004 12.373223061085874 3.63579398905025 -1 1 1
1226 1 9.415191751284778 9.72523341723111 3.77365999538016 -1 -1 1
518 1 9.322353165907577 11.409519148890057 5.211288971142425 0 -1 0
1494 1 2.7191432632916976 12.477715002676154 -0.7131625893115763 -1 2 0
57 1 1.2941536863317449 1.4761660683920361 7.544070633742598 1 1 0
163 1 14.52701599038967 11.17340727053318 5.6655924647692775 0 0 0
732 1 7.404968103382959 8.402751223010679 0.1180919024974938 2 2 2
1771 1 13.415884880600538 12.623087882677059 4.06970597130442 -1 1 1
1712 1 15.893019700411433 12.993826923272794 3.956621298662257 0 1 1
757 1 12.443732225842187 10.378895475736277 7.041171149113736 1 -1 -1
608 1 16.916978858581313 11.361045934342435 5.334360869590498 -1 -1 1
1650 1 15.068358178077094 7.023877670914709 14.164862275629185 0 1 1
672 1 15.117648343278475 10.797340465840012 1.07905316597 -1 -1 0
1989 1 0.1269157233839654 -0.6778251915412948 7.002394769477237 1 0 3
1921 1 7.033446854913382 4.871082020719156 0.1526290658976175 -1 1 3
785 1 3.9271531932516135 4.183693522752562 0.5886186331857366 -1 -1 -1
576 1 16.930086861097685 12.255634453921273 1.4737361424532858 -1 -1 1
823 1 18.702475986736506 11.461058781079696 2.6719711984854375 0 -1 0
780 1 19.7700442913896 10.67232642435798 0.1360326193106347 0 -1 -1
1850 1 16.87115387805564 10.208400706104745 2.7879765341926133 2 -1 0
1746 1 16.86202833637471 8.863798225097312 4.559256778497204 -1 0 0
9 1 20.47855525786702 11.437965702735797 3.9223173887305274 0 1 -2
543 1 18.831985524252712 13.205703341101977 0.46280648120468726 0 -2 1
1077 1 21.26191911888896 11.492491948056234 1.789183066265183 -1 1 -2
1140 1 22.72695496465379 10.160543565438955 3.776741181426371 0 1 -2
1005 1 24.308175889300973 11.720593989769386 2.6213367805306533 -1 -2 0
1592 1 22.3622534385972 13.302640529631182 3.3379022667628124 -1 1 1
1528 1 22.98132259924183 12.985218582108415 5.611180891865141 1 0 -1
1211 1 22.925432261885668 -0.5651113495948128 7.574363343610861 0 2 -1
1134 1 25.38522802427835 12.889740777644391 1.1271356251421991 0 2 -1
1775 1 27.94563829616337 12.191939242896828 4.1211705288432166 -1 0 0
629 1 26.43037782673448 10.850451122265012 1.0812543794203893 0 1 0
649 1 -0.1590331495233921 10.787708414261015 3.7692247547483317 1 -1 0
33 1 27.733927585892065 13.64726138650931 -0.4113624125844745 -2 0 2
1433 1 27.023686558275156 10.072674468606937 2.8949289643342753 -1 1 1
481 1 7.689631192246287 12.50550107720023 13.703353619487416 0 -1 1
1024 1 25.70449533743505 13.000269978525811 4.1024151457359554 0 1 0
355 1 28.667910742131944 4.017661968932723 10.198759248591518 0 0 -1
1875 1 1.0408355930750408 1.824802671661053 4.915122114481108 -1 0 1
16 1 0.3824801344133515 3.0717299714017567 9.007948122971776 1 -2 0
452 1 0.1330514566891572 3.2654563203622056 6.459679819059407 -3 1 0
1190 1 2.8641241013568486 3.5202303232942818 8.3352347250389 0 -2 0
1725 1 1.8212191658191377 3.98299605513665 4.808348289838399 2 0 1
243 1 20.162274635964454 8.2010466848564 0.5228236384177827 1 -1 -1
1730 1 6.01170110610731 3.026742151016542 5.438026757011928 0 2 0
359 1 3.218528343150986 0.7208497215822272 9.284619434019742 0 1 1
1335 1 4.091618270299122 2.060717579448434 4.353780006449216 1 0 0
1954 1 4.695513803644526 4.892876536830659 8.544749332434074 1 1 0
329 1 8.44552308637678 3.1783921987351493 5.826518463124275 0 -1 0
1681 1 5.033620164233095 2.0965939261703284 7.97414952079164 -1 2 1
275 1 7.129674856720036 3.506349700986373 7.7847042845626735 0 2 0
1266 1 4.493014852700499 3.0245583629299 10.231821788004854 -1 0 0
645 1 7.4042117573555775 1.85423844245239 9.625790470832044 -1 0 0
32 1 6.002518981813435 -0.3820161948158704 4.261206555217134 0 -2 0
1099 1 12.735265377207442 0.2234009430691033 4.451327495497117 0 2 -1
664 1 8.04004452558292 0.4042054546138867 5.320080137564659 2 1 1
1950 1 10.456552865566623 3.230448626078423 2.6093960515799606 0 0 1
1737 1 6.39045010755347 0.4907533396632089 6.558415582676472 1 2 1
299 1 9.66419597168706 3.909916937109169 7.811715078749616 -1 -1 0
1209 1 27.917404546704574 13.894143957669662 5.418196126571634 -2 -1 -2
1318 1 9.964924959050105 5.894915440803554 6.076422112763994 1 -1 -1
1532 1 12.223752474451702 4.134918803237459 6.753558634136047 1 -1 2
1166 1 10.333765287253351 1.7497186220319096 6.360227582348811 -1 1 1
995 1 15.279601601968853 4.288685960078316 3.3467969568661182 0 0 -1
994 1 15.839611997851122 0.17717590800830363 6.238143789919296 0 1 0
1832 1 13.511481700113054 -0.14802853258118231 8.208554576356354 0 1 1
1882 1 10.705310837505898 4.11902889929309 4.84698887133622 0 2 0
1752 1 14.502246795663151 1.9735044669700637 4.6383269268796505 -1 0 1
447 1 15.695456878826072 4.8449005755542816 7.545589492761497 1 0 -1
410 1 13.54218792218015 2.7085031934546735 8.548910212892311 0 1 -1
217 1 13.390517908580094 5.198851566062443 8.826513354207423 -1 2 -2
158 1 13.279815519629002 1.314782794086407 6.33010767598872 -1 0 0
634 1 15.344067548813353 2.297905556746324 6.8346131226908415 -1 1 1
1130 1 20.295440906796422 2.050309561158979 5.0018689046552804 -1 -1 1
818 1 14.639068638418316 0.1228617369587689 0.2901152449045836 1 0 1
1451 1 17.968389998849936 4.62889677414894 10.19763339033204 -1 2 2
1430 1 16.79312824614292 3.130786350472697 8.373697151088695 -1 0 0
636 1 18.465824513113766 2.7722820409266182 6.709809215320187 0 1 -1
290 1 18.54811936783424 0.5380483789453907 5.565141804761003 0 0 -1
138 1 17.138583666107593 0.775867146516666 8.030915968295314 0 0 0
988 1 22.19916101063978 1.8873398572767819 8.177315134794933 1 0 3
1577 1 20.996615671596643 3.1700552740296124 7.003621182981308 0 1 2
1689 1 26.807838065178522 1.182391272977558 10.838578276363913 0 -3 -1
1121 1 23.078851668702278 3.9685217994469015 6.304729206704205 -1 1 -2
413 1 22.1239619143116 0.9743872879861499 3.5076643459097037 -2 -2 -1
1835 1 21.424273495361216 5.076576887853083 4.456639215423159 0 -2 0
278 1 23.965195990289235 3.8400108765554393 8.202031503364585 -1 -2 -2
1964 1 25.456649648739315 3.822320039242048 2.001686144063566 0 3 -1
497 1 19.46323721412064 1.3114321172779713 7.892247597967025 0 -1 1
804 1 2.7001626661424134 0.6409746843297648 14.034296367504751 0 0 0
150 1 28.7323239328511 4.611234444858468 4.196418254889795 0 -1 -1
407 1 26.921937242336902 0.09923319956869736 4.830188771864654 2 -1 0
1434 1 28.898994002471753 0.939404380658883 6.00976956017118 0 1 3
196 1 25.115658392587953 5.0082126071985344 6.557236628720657 -2 2 1
1271 1 25.300974179782088 3.580929616247711 4.646822675379412 0 0 -2
1239 1 26.18127732245775 2.9842220748554653 7.279871027836725 0 1 0
401 1 27.84301038071937 4.198479255578472 8.038291019025488 1 0 1
385 1 3.107602921740865 5.57375816894479 4.696886991525076 0 0 -2
1377 1 0.9211926911118775 6.556147050675595 3.0112400943462525 0 2 0
837 1 1.8771935913421185 7.590038142062982 5.914801626057438 2 1 -1
1648 1 0.34841243466788185 5.807727095466754 5.707674135231022 2 0 2
899 1 3.411568137150967 6.787582815752444 9.07852208632637 1 -1 2
203 1 28.973700910113305 8.499209544542278 2.78095070304416 0 0 -1
1825 1 0.6333700120573047 5.282195312193953 10.078430270600348 1 0 -1
1643 1 27.990204925529873 8.398177476179583 7.421985936527458 -3 0 1
612 1 3.633574256759629 6.838390181941426 2.6385368919681405 2 1 3
1840 1 5.486651301746291 9.565466417347952 6.337598047709975 -1 2 -2
460 1 4.291694332118416 6.9645972254413575 6.781758736999867 0 -1 1
770 1 7.766221639125964 5.501006234841426 6.721244371065639 -1 0 1
1325 1 3.5027489212753915 3.4110048961106987 6.342908118249625 -2 3 2
209 1 3.736270065063156 9.151503675012108 7.406121128776299 1 0 -1
1378 1 3.8098207969246474 8.468237879488358 4.768215539217244 -1 2 0
698 1 6.607949056955921 7.768310960087149 6.70874427278348 1 2 0
26 1 5.906391937844713 7.911874946495578 8.86554863626361 1 1 0
763 1 8.034118804586862 5.830568715965012 4.499519649883385 -1 -1 0
1129 1 9.289774315242855 8.363254824851374 6.193645836448777 -2 -1 -2
1449 1 11.323752389558912 5.904225751456111 8.128531153327698 1 -1 2
1785 1 10.61613073960607 8.445585668974822 8.446728528174951 1 0 0
631 1 12.794459293442305 8.518579681138732 7.869193425871821 0 0 0
1706 1 9.203269625617402 6.43723022185406 8.256234661800452 0 1 1
1724 1 15.304352737457393 6.724869042128958 4.482284221299106 0 -1 0
1916 1 14.208589330062223 4.835466276040817 5.495150043421211 -1 2 0
942 1 16.254464218837846 6.189248864908727 9.721679043058758 -1 -1 1
171 1 13.483256465729838 9.455920484787088 10.840905540060255 0 0 -1
1590 1 16.572565025058793 7.103869189622104 6.8156843730007965 1 -2 -1
1047 1 13.862104159835324 6.711855392079208 6.9645478797686895 0 0 1
310 1 17.842412893622637 5.20064751806442 7.7421820321614945 -1 0 0
1810 1 14.966006426383508 8.217882312076075 9.325218546507497 -1 -2 1
219 1 18.940088211728117 4.3463077953216045 4.938938426582595 -1 0 0
1160 1 19.70741949568615 3.771948547086488 8.779455084413646 -1 1 0
1457 1 16.874880908454813 4.979740241516588 5.498784326806088 2 2 -1
689 1 19.75379711278177 6.407745689790404 3.329608134015862 -1 0 1
1611 1 19.630247173141814 5.831420946112032 6.57804399182648 0 0 -1
1291 1 16.84583544441732 2.704173272359278 5.089460618225677 -1 -2 1
2036 1 16.96249053897565 8.98258456813666 8.868304739196946 1 1 -1
1072 1 17.601810629282554 6.530117692309715 3.729306309033139 -5 2 1
1327 1 18.842577549071642 7.662168014308952 5.73787631509851 -1 -1 -2
856 1 21.86557591304333 4.732917331730242 9.65530690025266 1 0 -2
637 1 24.424175774308125 8.128917055487088 4.342976335905681 -2 2 2
1299 1 21.682559259392647 7.094323057775056 5.537246677844731 -1 1 0
711 1 23.74075019711311 5.5550795428560065 4.680884563750748 0 2 1
748 1 20.977507367580692 8.81041745329749 7.032954404448672 -2 0 1
974 1 23.570150903814675 9.139925208411928 6.304335403153547 1 2 1
1177 1 20.94762064053109 6.928196377927458 8.626446974791914 -1 0 0
554 1 23.161096522184415 6.07361674050093 7.476485030539308 -2 2 -1
1349 1 -0.3114960564410437 5.843239666555558 7.950404574501043 0 2 -1
787 1 -0.15835216230797455 8.929982750021109 5.477026146678085 3 1 2
1767 1 25.704860950822308 7.353828914684543 6.644557159811667 0 2 2
1520 1 25.731387757085738 9.930094383201405 6.718678695645337 -1 0 0
513 1 28.35837531079563 6.876632272837057 4.666719668319596 -2 -1 0
1439 1 26.70820873236204 8.328517834326249 4.6953047305869005 1 1 1
1988 1 28.71523732289013 7.7154962110707555 13.536982189745464 -2 1 2
685 1 4.7971592991692935 5.642748161275731 13.540061778738671 1 0 -2
1213 1 2.8446795318414813 10.641591425848578 4.996042840607856 -1 -1 -1
1161 1 1.4460766551310131 8.973406540799079 3.658919966125797 -1 1 -2
1032 1 1.6051636652018133 9.885054500337354 6.663897184259311 0 0 0
793 1 24.17987648463808 9.850194992735616 -0.042968535798270535 -1 1 -1
584 1 3.4026269209012074 11.57119219436104 7.062191991183991 0 -1 -1
594 1 21.590853819783106 -0.2876830904415865 5.9573774922894795 1 0 -2
1867 1 1.4160819129971554 12.658599163033763 8.268028125608692 -2 1 2
222 1 0.97925948215304 12.299934873687219 5.582958967193834 1 1 0
439 1 0.6958688122388321 8.152937152000092 7.912484654188219 1 0 -2
284 1 1.5372494710234106 10.083334332482575 9.54323116280722 1 0 3
678 1 5.8038685426943895 12.766516051626802 8.018785006414864 0 0 2
1576 1 5.96069816286625 10.621989340173672 8.896039888448675 0 0 0
1238 1 5.673208916665651 8.883398161220175 3.1719232214717836 2 0 0
362 1 7.504099333201905 10.494217407031519 7.014104727250162 -2 -1 2
606 1 7.069842816111418 12.610589903738916 5.828465987573903 1 -2 1
393 1 4.810171420705879 11.800107532415495 5.2955571357062485 -1 -1 1
690 1 2.5375939327379777 11.986601973587348 10.13505809503499 0 0 1
1946 1 26.384185774766163 10.671931792999713 11.011271341807095 1 -1 0
1847 1 7.3560736836092975 8.182488736488542 4.536341776105235 0 1 0
848 1 8.07304000751372 8.803961226338375 8.265531446609211 2 -2 -1
35 1 9.329685008644056 13.852100205325058 5.49138431437115 1 0 1
792 1 13.278688289856158 11.424564840559226 9.340565065887045 -3 -1 -1
731 1 11.583504813908961 9.638632919224634 4.610733494056131 1 -1 -1
857 1 7.840060973803851 11.640418589193592 9.325574774959897 -1 0 2
907 1 9.743064833352003 10.485686399795162 7.301765165465028 -1 -2 -1
1004 1 10.934670220736088 12.338397020694842 7.757275247824186 2 0 0
1210 1 8.266090801064145 13.4915168387595 7.7629707554403105 3 0 1
440 1 -0.6277031125243906 7.07888639160273 0.6790192360975549 1 1 2
1346 1 14.64932348323938 13.543907920848952 5.6837497043278224 0 -1 0
1389 1 15.75162253470766 9.685333301283459 7.234396708908706 -1 0 1
1471 1 15.383711286560459 11.031527068303022 9.39315227518328 1 1 1
121 1 14.930322581104145 12.14271612525885 7.577991509256401 2 -1 0
1829 1 17.236651065395762 11.220858908535648 7.982415094606798 0 0 1
1426 1 9.616992249129416 14.049138160043805 3.030834515186338 1 0 0
250 1 18.828334075621772 12.70536834062624 5.618205273490366 -1 -1 0
754 1 18.63949649481642 13.087147763499798 7.8160761788110165 1 -1 2
993 1 18.95250864969406 10.033950523600817 5.162479838220859 0 -1 -1
860 1 16.876600584584008 13.10317024578711 9.136455873644612 0 0 1
387 1 19.8379778946586 10.796032931877422 7.534714050821814 -2 -1 -1
1441 1 0.21193601448879706 -0.45173828154642515 4.549277730742715 -1 1 0
114 1 18.38944852310991 11.264037464447124 10.073958062538015 -1 -2 0
1364 1 21.7579084362203 10.950994342831512 5.747093998401391 0 0 0
2039 1 19.636314028201493 9.39495063941536 9.343553543217372 0 0 -2
1651 1 20.895695580174447 12.966585117410247 6.961100851884702 -1 0 0
262 1 22.294260814044033 11.252508846097927 8.269622548529217 1 -1 -1
1853 1 24.238157142937144 11.389527619492103 6.20634763974581 -1 -1 1
526 1 22.4973945579498 8.835419683486469 8.630679686068202 1 -1 0
151 1 20.428704039690654 12.442877084549076 9.016306193865304 -2 -1 -2
1388 1 24.434600694092904 12.854409105214764 7.941552114615687 -1 2 -1
1456 1 25.05168818228851 10.31301012831656 4.495805055150769 0 1 0
659 1 26.56548903604489 11.868012643709761 6.394232058900759 0 0 1
863 1 27.805337402731126 10.151372009006652 5.6163138864685935 0 0 0
684 1 24.68948562927741 10.62158110690479 9.13694641738783 -1 2 -1
245 1 27.16320094663498 10.50751963901253 8.513562355109796 -2 1 -1
1567 1 28.93979994454554 12.875858185537972 7.143533738954188 0 1 0
7 1 -0.2822650047850006 10.704260155967976 7.910306292260168 2 -2 1
1729 1 26.21868908325216 8.84368564746231 9.444696532853158 -3 0 1
109 1 29.101215456633696 1.753198238158328 11.035805022583585 -1 0 0
1900 1 2.254794775540743 3.7551224043061264 12.410260058552998 0 0 1
198 1 1.8422606127473857 2.294414440730694 10.423076389239828 2 -1 2
830 1 6.987649595910283 13.813339384262324 9.739607927688914 2 1 1
1329 1 20.250983059575475 13.384285396078365 2.0819897193715504 1 1 1
1690 1 23.30324856259506 14.02433689481699 0.13035480333170113 -1 -2 -1
620 1 2.279367553746663 5.601843747482051 7.337955472619262 2 -1 0
1065 1 13.005409228082629 13.859815140257707 8.215555658011343 -1 2 -2
2021 1 2.2707367183051677 5.347470766242611 14.158613052332456 0 0 0
143 1 5.93034320016716 12.397511483215128 2.337794452535323 -3 0 0
405 1 5.765256514192681 3.8571339699627707 12.488577160278044 0 -1 -2
627 1 3.030061708498065 4.818757486208793 10.12371306331489 0 0 2
739 1 7.78344929739494 2.772368105071978 13.002749843928664 -1 -2 0
1222 1 3.8997778383261767 1.9611317270582695 12.25244789051943 -2 1 -1
1904 1 28.297673838810883 2.2281478230261342 8.855281412179188 -2 -2 0
1877 1 27.30624672827089 1.39173076636036 0.9874506429859669 0 0 3
572 1 22.363886582572132 0.06646011697103449 10.12050910417962 0 0 1
714 1 8.281729342763207 0.9632479322260992 8.00074506259321 -1 -2 1
1075 1 24.718276679849655 2.59545937852815 13.91634958715508 0 1 -2
1908 1 11.025666408140552 3.9357841954884734 12.565209932190584 0 0 -2
1942 1 9.331552439490023 3.2284653538435846 10.738465998463708 -1 0 1
1747 1 9.357338937191841 0.6989176917310072 10.623822609613553 1 3 0
599 1 10.849855019546485 1.9083858128030058 11.795789005008219 1 1 0
1870 1 7.023031653616752 3.8690882780228915 10.445163442087186 0 -1 -1
300 1 10.443836325947546 1.8374181513719043 8.743750965404994 1 -1 0
1685 1 17.689702025993885 13.594068771398515 13.746916604070941 1 0 -1
546 1 13.446114755030413 2.688092943259406 10.795563549643227 2 1 -1
1818 1 16.25679187141121 1.6614284218998598 11.285199880923486 0 -1 0
1358 1 15.293651916540227 3.5193309850391126 13.343989655839616 1 -1 1
76 1 26.12617941564313 -0.6958459180590163 12.466663712789789 -3 -1 -2
285 1 12.833890103221101 5.454548692048566 10.848252786397682 0 1 -2
1125 1 12.185126446804471 0.8001834800476146 10.408797311410568 -2 0 0
597 1 10.939119158980189 6.361543831103344 12.825783593333885 2 2 -2
1469 1 18.147248237155914 2.232689566480163 10.126541197544862 1 2 2
444 1 4.761471606509656 11.610229817046287 -0.4956699636474211 -1 0 1
1679 1 15.510822379319567 4.108916510497217 10.23961733967733 0 3 -1
1450 1 28.859319975844127 14.027365337023225 9.736965516358882 -1 -1 -1
90 1 20.297208927937145 1.1422260579764896 10.478609106720679 1 -1 -1
34 1 18.6558461776158 0.7553815488359223 12.82975696784057 0 0 -2
1094 1 15.403466501861661 0.7237376411075318 9.817736809067043 -1 1 -1
1822 1 20.51136560082579 2.6013563083057245 13.713204767128238 1 1 0
43 1 21.218248604521246 0.969087158867481 12.470914703527464 0 0 -2
1208 1 19.977751228968298 3.6785734853268703 11.537974249133063 -1 -2 -1
1472 1 9.639181888340444 -0.15767971399486036 1.4222846573052577 1 3 1
1589 1 11.48474001756972 1.1007555202131096 13.859463789125284 1 1 0
229 1 22.335758588780738 2.5820864183936947 10.123063637511512 0 0 -1
882 1 25.50426711572478 5.602304812210016 8.78692978556515 1 -1 0
2011 1 22.449212405458898 3.756246137610181 12.725306096552268 1 1 0
1871 1 24.02488654219389 4.357762269186038 11.030936050247917 0 2 0
2025 1 28.108530117400466 12.8862350257827 11.572431835797104 0 1 2
838 1 26.985963559206876 2.904785067951274 12.366655126641293 -2 0 1
1011 1 25.255791903998 2.4975086872700283 11.251013123028994 1 3 1
929 1 -0.5825458620197494 1.314440180014933 13.308111290323344 0 -1 0
1583 1 -0.4739509324574749 3.3715473114549557 12.269683805542464 -2 1 1
349 1 25.954709714307256 3.1417589124384233 9.355389483978575 0 2 1
118 1 23.501815561358722 12.49159422112284 10.311549249747285 1 -1 1
306 1 25.185590717430134 4.785478965661185 12.946205919438276 -1 1 1
1971 1 3.581554202871792 1.0618624880816414 6.557154348329713 0 1 0
1587 1 1.5224501738860488 13.018348235465712 1.474278694113785 0 -1 0
84 1 2.844495301155895 13.61702239844593 5.59352956833993 -3 1 1
1642 1 1.1989178885832967 8.014000756377174 13.953223075368845 1 1 1
1812 1 0.6853210296511847 5.998224106504627 12.141772701777413 -1 1 -1
1665 1 0.04999582031290428 8.5666023911595 11.898459569514486 0 0 -1
483 1 2.896614258103836 5.878394627955003 11.97511884751458 -2 -1 -1
730 1 1.5893679656119652 7.541321578852568 10.441950830185606 1 -1 2
887 1 6.504266674904803 7.780245528047812 12.555346515344983 1 2 1
204 1 6.979769061758223 9.558733518520453 10.6019100635229 0 1 0
1138 1 6.099811359433894 5.766363212891925 11.129725554916739 3 1 -1
1261 1 3.8564497878111634 7.986992916533158 13.466450526056514 -1 0 1
1860 1 6.891498239651296 5.459812026743274 8.691833326079552 -1 0 1
1217 1 14.141773367281964 0.8411312260799213 12.529469381222373 -2 2 -1
1137 1 4.428065298511848 7.56387572260593 11.377526118166974 2 1 0
1614 1 16.797441513023507 1.9207879532809704 13.811676785408093 0 1 1
1201 1 8.090532060771158 7.299359082095238 10.371668873382092 -1 0 1
861 1 10.293835713278204 7.621660686967154 10.955501589920475 0 2 4
2048 1 8.630428203292233 5.236844444813553 12.148056694410082 2 3 1
1179 1 9.93960936187504 5.4230697833339105 9.884622060946025 2 0 -1
1702 1 11.404239754175377 3.4519585916047015 9.531325762355099 -2 2 1
1755 1 8.825072938277245 7.5009730764498475 12.892204193089453 0 0 -2
1905 1 15.560271867963248 5.907424302490504 12.057719068222582 1 2 0
166 1 13.560484483612335 5.362405814200016 13.085730900725641 0 -1 1
891 1 12.2464296422297 13.855759133141623 12.833367977838035 2 0 2
1559 1 12.213501740769871 7.38032187643676 9.942162420235984 1 -1 1
1488 1 15.481054045561166 8.055119947429475 11.625456531975702 0 0 0
42 1 12.907191438113129 7.42261209197571 12.457089994444981 -2 1 0