LAMMPS data file via write_data, version 29 Oct 2020, timestep = 300000

2048 atoms
1 atom types

-0.2968805422492231 28.648880542251135 xlo xhi
-0.2968805422492231 28.648880542251135 ylo yhi
-0.2968805422492231 28.648880542251135 zlo zhi

Masses

1 58.933

Atoms # atomic

35 1 1.4852171517370107 3.358222883430159 1.6653072983902162 0 0 0
130 1 1.2994398359966721 1.399476857569136 3.203439951836861 0 0 0
165 1 3.513505407445825 3.269673388978116 3.189180526494839 0 0 0
8 1 3.554163990532487 1.229131045737822 1.453499908077868 0 0 0
4 1 28.598965381085275 1.1567683026342788 1.7349949092776562 -1 0 0
161 1 28.57560603321957 3.3440623467804973 3.3262995267145024 -1 0 0
601 1 21.494648251750355 6.96055420614866 14.068305211027056 0 0 0
637 1 25.017093407837052 10.745818277989681 13.724142220010242 0 0 0
389 1 3.4219798357269284 -0.2687713300409744 10.58649002800208 0 0 0
1537 1 0.04010896736109909 14.084267408181129 13.805538271683902 0 0 0
12 1 6.924083506375641 1.5741260921621183 1.5358632509373853 0 0 0
39 1 5.204237242905195 3.3913007635547583 1.3861570424309553 0 0 0
134 1 5.168732398671521 1.206188961635008 3.1932884361202767 0 0 0
169 1 6.970006043081832 2.9578889822691568 3.575532440426119 0 0 0
387 1 1.3597703055916543 -0.2323101636621609 12.277307000850977 0 0 0
138 1 9.093042522213551 1.0833557445305395 3.2478529318811136 0 0 0
16 1 10.599380786852553 1.2149464268653756 1.1663657545961306 0 0 0
43 1 9.032740614856072 3.2068662162219184 1.559663245770982 0 0 0
173 1 10.355561253743705 3.1898984802911596 3.725773877949175 0 0 0
89 1 21.271466770573422 6.687468335762706 0.018692774044800686 0 0 0
78 1 12.080100783641413 8.517046484986512 0.3368866901679116 0 0 0
142 1 11.955571605718013 0.9546474286052378 3.2933146238394726 0 0 0
47 1 12.277738930631664 3.036326237658126 1.9600843989135255 0 0 0
20 1 13.933631029698901 1.5467150933540952 1.7149902563364487 0 0 0
177 1 14.13654000965982 2.9799469468277935 3.6184992510084326 0 0 0
146 1 15.916604046426322 1.274525245559753 3.4368184736895118 0 0 0
391 1 5.194878707729779 -0.1661595922450841 12.364849831199157 0 0 0
51 1 16.156372338178553 2.957255975733402 1.965844985231215 0 0 0
24 1 17.897580837670063 1.105052500617645 1.8674972182352367 0 0 0
55 1 19.326992042049145 2.975077940146921 1.471460659437089 0 0 0
181 1 17.72354773502968 3.1174444375756853 3.3837318931105074 0 0 0
150 1 19.902363174100454 1.3333706862369 3.4308686109111113 0 0 0
126 1 26.706332342965048 12.19635917347233 -0.17823103174295607 0 0 0
49 1 13.73939220732117 3.044889853019767 -0.10016743590147498 0 0 0
28 1 21.20438619348446 1.5961342288817328 1.301782567417077 0 0 0
59 1 23.347313811481335 3.218003947360629 1.4262356674661498 0 0 0
154 1 22.679706653040345 1.32409235828389 3.3396122698555066 0 0 0
185 1 21.456068624820794 3.256362802527857 3.2880199927474307 0 0 0
57 1 21.4234581252139 3.2331603167914613 -0.21976569994717376 0 0 0
23 1 19.45216160841695 -0.27405626457225907 1.271989202280026 0 0 0
102 1 4.983730286604989 12.450668106279133 -0.014355825700841596 0 0 0
94 1 26.87625334623438 8.592446520068874 -0.14014829722348446 0 0 0
484 1 28.615397618175674 12.557121472253787 12.05960015343084 -1 0 0
101 1 3.376192338898467 10.41208714332571 -0.25011570329230715 0 0 0
189 1 24.626158266837503 3.3888015455098777 3.7024125376345522 0 0 0
32 1 24.822352831623622 1.5542629111444655 2.132995306728395 0 0 0
63 1 26.649626402780736 2.972719441867249 1.9574763022964148 0 0 0
158 1 26.691237336613668 1.14833885991346 3.5837514972625795 0 0 0
41 1 6.903327803302778 3.1993004487087173 -0.11381956961898232 0 0 0
1035 1 8.76636984805356 13.975923157712256 1.1567540697450787 0 0 0
40 1 3.5397615950212 5.3851761564212195 1.5147904906502327 0 0 0
162 1 1.5701035661453198 5.348603761327102 3.290907463242577 0 0 0
67 1 1.581612433138365 7.19271906986466 1.5710562821829368 0 0 0
194 1 1.5381036419154965 8.813297890612171 3.238277286994934 0 0 0
197 1 3.546000893501637 6.805263058410234 3.275076890841187 0 0 0
72 1 3.169135381261246 8.598660284627815 1.8017066555692511 0 0 0
193 1 28.350080561679565 6.885769525871338 3.370193588045415 -1 0 0
36 1 28.53056561105675 5.3756758096283495 1.6338996926371607 -1 0 0
617 1 6.91682011509689 10.881793004413206 14.030500689463171 0 0 0
166 1 5.435329017907459 5.131460531507776 3.3270685947172973 0 0 0
44 1 7.005149597800478 4.7589325940060805 1.5369527243715786 0 0 0
71 1 5.53567906928138 6.758530783557858 1.893683155368246 0 0 0
201 1 7.0819230502081085 6.852598372819204 3.5773413371706257 0 0 0
198 1 4.979153246160088 8.686610343008635 3.269750306181967 0 0 0
76 1 7.10861432449708 8.347832393751426 1.7488296659962077 0 0 0
1153 1 -0.023652836271009947 14.085523673061163 3.088847352573047 0 0 0
597 1 17.60931591106313 6.705501691054969 14.05066469257808 0 0 0
1173 1 17.706584456876428 13.927432974994487 3.2556710664978636 0 0 0
170 1 8.578699346212808 4.9983708415212025 3.5664170456550077 0 0 0
75 1 8.706813024993378 7.0383078888307 1.4464538747743962 0 0 0
48 1 10.750643176314735 4.839581692849955 1.5602530717851686 0 0 0
205 1 10.074025113113356 6.679385886362673 3.2929984567056825 0 0 0
80 1 10.336405137931672 8.49375295230861 1.432249487580431 0 0 0
202 1 8.54780323412806 8.608648159460078 3.7316364493883984 0 0 0
1293 1 10.300332055785365 14.086409238983313 7.13461935789302 0 0 0
206 1 12.457571690952658 8.760680802189565 3.1019824393692628 0 0 0
174 1 11.896228236141337 4.954071955543919 3.567291476372215 0 0 0
79 1 12.247849575229726 6.52328270943326 1.809319968556958 0 0 0
52 1 14.079575816945985 4.6462458339119665 1.6188850864819648 0 0 0
209 1 13.97840112630815 6.663942808637183 2.9776150516631246 0 0 0
84 1 14.304872834761202 8.686477282112456 1.756757216053407 0 0 0
83 1 16.005895263859287 6.897843951788837 1.460723197942283 0 0 0
178 1 16.075496515513358 5.220454922699891 3.4142100817445837 0 0 0
210 1 15.91381192923794 9.035708764699168 3.081903897336188 0 0 0
6 1 5.357079666735491 1.3316661888616717 0.23610705650969144 0 0 0
56 1 17.719265295742414 4.85554420627774 1.6028705448677079 0 0 0
182 1 19.667764509587474 4.611883721908558 3.080951410231897 0 0 0
87 1 19.441999601671235 6.692128756488928 1.8810629034284316 0 0 0
213 1 17.715182278154593 7.080597314779408 3.5687375574861897 0 0 0
214 1 19.496288131552333 8.536674613951952 3.5118809157309134 0 0 0
88 1 17.930885113606205 8.668302699715206 1.512604174219552 0 0 0
60 1 21.262459483154824 4.723221937962156 1.3169012728781306 0 0 0
91 1 23.276349328251055 6.516771039005048 1.445634884260321 0 0 0
186 1 22.85820155497706 5.238839684171882 3.3534037118693325 0 0 0
217 1 21.52081522632581 6.944632418882324 3.5160365614427183 0 0 0
218 1 22.97563666047461 8.499260580396864 3.3282946325780727 0 0 0
92 1 20.96907218685007 8.78189741444773 1.4996374445253955 0 0 0
609 1 28.481006858985353 10.475678851049562 13.92456730232811 -1 0 0
68 1 -0.2955483624524432 8.761496077022747 1.3186570927406118 0 0 0
30 1 26.86987425352877 1.1983795185692983 0.16846168129778583 0 0 0
221 1 24.88205640584522 6.40771519399369 3.2814383689796083 0 0 0
190 1 26.7962850093114 4.769926363929548 3.3775030832766935 0 0 0
64 1 24.948124335295226 5.176174847420938 1.482927808922479 0 0 0
96 1 24.309850520732283 8.893810432281263 1.476964513598653 0 0 0
95 1 26.573528383913484 6.941687838607382 1.4934084449685041 0 0 0
222 1 26.849605708312183 8.513283099245037 3.3678523693198867 0 0 0
34 1 1.5925993775480884 5.067529295165047 0.34472870274510403 0 0 0
1175 1 19.911910449624877 14.02749471717987 5.212541683387105 0 0 0
574 1 27.197240388486165 5.280293634875732 14.16126795278022 0 0 0
99 1 1.794268937416244 10.674457973096713 1.6254900276847652 0 0 0
226 1 1.6519265797840634 12.217813617297239 3.3377662326676836 0 0 0
229 1 3.362437085586466 10.41980760006129 3.648806890179245 0 0 0
104 1 3.325354656416029 12.491279354262053 1.6742655326314064 0 0 0
415 1 26.640287783918055 -0.17079792466066662 12.252356469925886 0 0 0
100 1 -0.11978506167527841 12.205182854894252 1.2694430752116814 0 0 0
630 1 19.6616009465699 12.607023880968073 13.897222797007492 0 0 0
538 1 23.350584860081486 1.9382835645285774 13.926656264478849 0 0 0
62 1 26.783735638644515 5.384212672632535 0.004165354024063206 0 0 0
103 1 5.415651318555436 10.58438584935413 1.221245248556731 0 0 0
108 1 6.983455614390654 12.42736437921356 1.362730806792789 0 0 0
230 1 5.406364492173307 12.092642377502104 3.1504291912792146 0 0 0
233 1 6.948255722579415 10.20861397846765 3.231286903727395 0 0 0
401 1 14.208601459975513 0.049530657240035136 10.9666418239267 0 0 0
602 1 23.6267137555031 8.818377160756308 14.162054537471768 0 0 0
107 1 8.556261648375074 10.517587973250814 1.5648799625636225 0 0 0
112 1 10.489694463645389 12.35163909348176 1.6361764265532932 0 0 0
234 1 8.527391873318434 12.143823697914243 3.4115058228556845 0 0 0
237 1 10.406288912424145 10.398789053990445 3.169104304253814 0 0 0
634 1 23.23434504611407 12.353477340754683 13.70845434642362 0 0 0
111 1 12.12402985810145 10.510612101273242 1.4826700705393479 0 0 0
238 1 11.893545395964455 12.228685087047392 3.527506726651459 0 0 0
116 1 13.945156321440347 12.211011131580035 1.3681682405819093 0 0 0
241 1 14.208869264810803 10.867779283606122 3.2358938963308495 0 0 0
242 1 16.17616604398254 12.191157479662158 3.713773649046434 0 0 0
115 1 15.68738774685824 10.839973047101564 1.496089164511286 0 0 0
1159 1 5.531382243060085 13.92119393481386 4.580788844337134 0 0 0
553 1 6.82769081279733 3.497378523004179 14.0902255930835 0 0 0
69 1 3.504177220514206 6.885963001001925 -0.2004908147130035 0 0 0
118 1 19.21185598861143 12.56674508816704 -0.1565159600900585 0 0 0
119 1 19.36032220078779 10.788891754614815 1.3773470966346681 0 0 0
120 1 17.673801082930446 12.545918789753822 1.5962850474804118 0 0 0
245 1 17.922528479983672 10.380606907111634 3.279864909668428 0 0 0
246 1 19.91120105177756 12.510321021499125 3.316347708298598 0 0 0
512 1 25.22241025090788 12.466142537113365 12.136890512663575 0 0 0
585 1 6.782105948054816 6.908552524226426 13.779341470999224 0 0 0
81 1 14.228037224455978 7.087358939732131 0.11957930281249451 0 0 0
123 1 22.946258052054397 10.555980992084418 0.9366245138736686 0 0 0
124 1 21.409221330241127 12.357287705130823 1.377016811013677 0 0 0
249 1 21.146218924826428 10.553908342627713 3.036711406288282 0 0 0
250 1 23.253479463207373 11.993022445637822 2.844714654759116 0 0 0
1157 1 3.3447331046394098 14.023117329310214 3.3405066781585724 0 0 0
85 1 17.764027599955416 6.633364908751808 -0.23589541409731404 0 0 0
225 1 -0.21722921185024902 10.525292751888154 3.2544133321036033 0 0 0
128 1 25.050382007313818 12.064999184746215 1.5637771219262449 0 0 0
253 1 25.18887631927122 10.270745356382994 3.028184838504824 0 0 0
127 1 27.095833601241743 10.397215875271655 1.4893338570161052 0 0 0
254 1 26.92057731543567 12.665891159050954 3.0471163615092696 0 0 0
133 1 3.1102965442431674 -0.22886597867310599 3.3988204733000766 0 0 0
633 1 21.333442125009352 10.697663138597443 13.929324866797998 0 0 0
131 1 1.4240856131970907 -0.2425777749146596 5.0629022709617075 0 0 0
257 1 28.263884634246647 -0.2645378977887525 6.81463636870878 -1 0 0
638 1 27.039778754329866 12.316680498758195 13.821489897864911 0 0 0
510 1 26.88316239160691 12.361685566368877 10.621890778979871 0 0 0
399 1 12.464223550297813 -0.2819515642451478 12.583654889348093 0 0 0
136 1 3.145873698791158 1.423716057689834 5.108760500629998 0 0 0
163 1 1.4024212643716611 3.0202522234603175 4.650432637888033 0 0 0
258 1 1.6121202074709629 1.3582160435455821 7.102315607479461 0 0 0
291 1 1.6184616507323306 2.980051652323365 8.830169304987553 0 0 0
264 1 3.2602798230058547 1.3778826848782026 8.923819695782985 0 0 0
293 1 3.5022016542436694 3.003492543504732 6.849888552469059 0 0 0
289 1 -0.22563061346930624 3.104441682418312 6.4555773126111955 0 0 0
132 1 28.574559485045274 1.3297130856823998 4.700600901439213 -1 0 0
260 1 -0.19414047496958275 1.165854835894867 9.013076872921063 0 0 0
82 1 15.94621275949514 8.95845856012042 0.019963182038043426 0 0 0
140 1 7.225198577726893 1.452237566511318 5.103897455197596 0 0 0
167 1 5.222550118471622 2.7304739073989444 5.099225117893832 0 0 0
262 1 5.199966647690142 1.3963477269099065 6.912070301076502 0 0 0
268 1 7.605098120372723 1.3733149766626298 8.84874804053814 0 0 0
297 1 7.039466646415476 3.0597370155081474 7.25597518023311 0 0 0
295 1 5.423693556044783 2.902722444425895 8.746653146744656 0 0 0
1311 1 26.958292206998053 13.92660986380043 8.43837597929016 0 0 0
266 1 9.439195938483707 1.5086325246864607 6.900141721175966 0 0 0
144 1 10.68175015863938 1.50832073787926 5.3611610264056235 0 0 0
171 1 8.627599184907126 3.5993067802143495 5.471531326205026 0 0 0
301 1 10.857456440411728 3.533227399282907 6.99878532570306 0 0 0
299 1 8.645719678878278 3.2910982817218595 8.655587418188212 0 0 0
272 1 10.752936303152925 1.541321083659941 9.016371860541392 0 0 0
511 1 27.003883362016367 10.711129527981576 11.994715813346891 0 0 0
270 1 12.486549142793331 1.3535754739628734 6.845060815728268 0 0 0
175 1 12.141727133312772 3.2785659040635444 5.312830078009837 0 0 0
303 1 12.79554242717794 3.2173201037695445 8.513219131234138 0 0 0
148 1 13.999918360057011 1.123620538508651 5.221246178455878 0 0 0
305 1 14.369266251608993 2.9328094032113365 6.699950551646399 0 0 0
276 1 13.96850040254267 1.189844608946539 8.857323822018593 0 0 0
274 1 16.11171663376716 1.2825702880499235 6.793480355603048 0 0 0
307 1 15.716349737757092 2.796585319657082 8.979637873566736 0 0 0
179 1 16.209153256853217 3.1574516519424485 5.31351301312874 0 0 0
110 1 12.283440101084183 12.216531099566767 -0.15966067841879023 0 0 0
183 1 19.685109853955407 3.3464444783084377 5.1899311976461115 0 0 0
152 1 17.695308033336723 1.2962313722738898 5.008790755274672 0 0 0
278 1 19.413446481389848 1.2402694718806013 7.060060193431664 0 0 0
309 1 17.86522555397931 3.316372960555645 7.099745245169478 0 0 0
311 1 19.37057634338331 3.0297586756028907 8.915170452106995 0 0 0
280 1 17.82582102898577 1.4602286534446427 8.89405354688696 0 0 0
1561 1 21.72120846861451 14.142154486664408 13.953559127351413 0 0 0
509 1 25.13434931283009 10.478184459449972 10.52798750226825 0 0 0
1423 1 12.371128251691472 13.83433368960596 12.919595809300166 0 0 0
156 1 21.37854673728176 1.1583093533503388 5.207684433106814 0 0 0
282 1 23.149981229315586 1.3481759584406738 7.40572439624224 0 0 0
313 1 21.322705670974074 3.0833577085960124 7.354786204924048 0 0 0
315 1 23.45069344266127 3.076654300383337 8.758476107095431 0 0 0
284 1 21.13396590794562 1.2722722193978995 9.025107142916042 0 0 0
187 1 22.910267868928617 3.040191896814062 5.044501412398783 0 0 0
33 1 28.117023634084518 3.178959227535762 0.36164121647740866 -1 0 0
160 1 24.74770577801262 1.2193716860040884 5.478043431927753 0 0 0
288 1 25.108761527266406 1.0658057825032754 8.48248498810652 0 0 0
317 1 25.058312464120185 3.321394643968802 6.884435118389039 0 0 0
191 1 26.647371152225148 3.1136529157699857 5.067668672601164 0 0 0
286 1 26.856097188621618 1.6929168467122377 7.1317322682494 0 0 0
319 1 27.00785136415819 3.235761406006336 8.839461966267104 0 0 0
290 1 1.5309386997249002 5.10916298727022 6.935154865756598 0 0 0
195 1 1.3965961095376782 6.719678233562314 5.167755881849266 0 0 0
322 1 1.4793069020905525 8.51147420079163 7.028001208792425 0 0 0
323 1 1.5439298125638 6.996740691932846 9.014040013865783 0 0 0
200 1 3.1741327333040013 8.840302648806846 5.2435346092024515 0 0 0
168 1 3.3694247807724667 5.055077900478072 5.087652663290907 0 0 0
296 1 3.4574138739981968 4.62641166946388 8.53113817483927 0 0 0
325 1 3.6876522067786413 7.0441576811336 7.04802094767993 0 0 0
164 1 -0.08789754611216735 5.169450333537959 4.988837738924288 0 0 0
328 1 3.4144863356364348 8.737573800192807 8.949855544925848 0 0 0
292 1 -0.19757075358753226 4.910778575610139 8.86526151731847 0 0 0
321 1 -0.08337126772877698 6.7789564376369285 6.758692446347539 0 0 0
199 1 5.381255098581994 7.103419308083505 5.300491578023891 0 0 0
172 1 6.53292001433095 4.827205865850698 5.189740283142101 0 0 0
300 1 7.002191052718112 5.181897300324424 8.847932569538933 0 0 0
294 1 5.375899638747324 4.783356469699945 7.141200397627706 0 0 0
329 1 6.740380938304118 6.996353023122514 7.020985489276186 0 0 0
326 1 5.133696394042382 8.739376722154777 7.006180537803472 0 0 0
327 1 4.983555339316766 6.925425668503004 9.535473616851709 0 0 0
204 1 7.050413795470303 8.868309189898994 5.729927511204578 0 0 0
332 1 6.953963026315106 8.574194011418689 8.942341182798225 0 0 0
298 1 8.599308335262714 5.243596738553262 7.386719335458292 0 0 0
176 1 10.352536156972741 5.259174902206031 5.279356337931008 0 0 0
203 1 8.452255246564272 6.87261628794202 5.392230132644733 0 0 0
333 1 10.426793011741113 6.949659964041817 6.839405572246354 0 0 0
208 1 10.733047112477271 8.794298695614254 5.306840756757428 0 0 0
331 1 8.893917020802416 7.14150240407918 8.82743327098793 0 0 0
304 1 10.800025749766816 5.154304482150623 8.594121199165224 0 0 0
336 1 10.815192726585368 8.690058559358583 8.74274688594485 0 0 0
330 1 8.830840478130474 9.034345761642658 7.138643772873851 0 0 0
334 1 12.494617474020705 8.5374509567836 6.813079763420775 0 0 0
302 1 12.38997633248093 5.04744409798826 6.844574948279612 0 0 0
207 1 12.86576346188977 6.978801517106131 4.953934775374832 0 0 0
335 1 12.783888529221064 6.889998374093731 8.393824500219537 0 0 0
180 1 14.327746242180845 4.684588895292171 5.2373674923512095 0 0 0
337 1 14.380019921655173 6.760603054923196 6.66578679621006 0 0 0
212 1 14.213839882269168 8.96791958908773 4.562360787167874 0 0 0
340 1 14.215214075380938 8.65062317266855 8.410487253708116 0 0 0
308 1 14.254655526072133 5.063641508194639 8.807160966957829 0 0 0
306 1 16.22581030381967 4.985494940646821 6.774551316312993 0 0 0
338 1 15.854796384237865 8.893606596563446 7.093830092991707 0 0 0
211 1 15.620381877811008 7.027873742379382 4.7179840155210115 0 0 0
339 1 16.01133474767445 6.908720956695308 8.709921047802192 0 0 0
310 1 19.766539788594212 4.831122047135187 7.236153232369001 0 0 0
215 1 19.263103786102683 7.093096236090066 5.680120968822786 0 0 0
184 1 17.780118210394512 5.115147329249599 4.981962875578887 0 0 0
341 1 17.90451484353457 6.607517347804171 7.686379838448873 0 0 0
342 1 20.077163478263692 8.515218571224217 7.442389269421739 0 0 0
344 1 17.798539874635964 8.837860325739065 8.688502937245817 0 0 0
216 1 17.75766352936115 8.891469731163609 5.161599396501723 0 0 0
343 1 19.798864735421937 6.49768918301305 8.9816887588503 0 0 0
312 1 17.661868040504476 4.813408823900933 8.765448209032405 0 0 0
316 1 21.610655841486867 5.070740426187886 8.883281787645325 0 0 0
220 1 21.52149283563335 8.458061696137733 5.22335366406191 0 0 0
314 1 22.89395015238789 4.748501701929873 6.957737988333707 0 0 0
219 1 23.01048695556583 6.791243899975403 5.501782943809916 0 0 0
188 1 21.366040688298696 4.965583118893387 5.13263081679537 0 0 0
345 1 21.52818096949134 6.808509981603938 7.428340323080738 0 0 0
346 1 23.025036463526373 8.9316676121679 7.123796975755646 0 0 0
348 1 21.590954214821835 8.787746007571958 9.017338993440015 0 0 0
347 1 23.785127283619637 7.160694345057833 8.575401976345976 0 0 0
320 1 25.037996184659917 4.875073834638011 8.683406642143456 0 0 0
196 1 28.537101559658822 8.821774127708688 4.994826936156673 -1 0 0
324 1 -0.27181540421261313 8.6436607253462 8.93222805040702 0 0 0
349 1 24.906137876473146 6.463702207237927 6.915871051618167 0 0 0
192 1 25.058684107358534 5.06771710750618 5.428675587360872 0 0 0
224 1 25.16689593358319 8.246118824262794 4.909805441822842 0 0 0
223 1 26.838313496253413 6.990796761229628 5.030488694539075 0 0 0
318 1 27.23795578942877 5.081416812222188 6.995759804174287 0 0 0
351 1 27.189969587946134 6.899707759772637 8.808326256272652 0 0 0
350 1 27.0972315749566 8.712543526177415 6.799574517972177 0 0 0
352 1 25.18756947132171 9.050794803613176 8.690016195078433 0 0 0
1417 1 6.529491089926781 14.158321246129994 10.549580450660242 0 0 0
227 1 1.374594242541292 10.35135268388398 5.398150014489395 0 0 0
354 1 1.6212475009519942 12.406460169102154 6.615238455096033 0 0 0
357 1 3.6921160176664483 10.710738659121745 7.123894668001889 0 0 0
232 1 3.3784468677464883 12.472998374735276 5.210201591772279 0 0 0
355 1 1.5318781334661467 10.437360439168247 8.352861518168728 0 0 0
360 1 4.0318847208551745 12.466049573576214 8.68643179010582 0 0 0
353 1 28.631677424946 10.942112004025272 7.247419408023665 -1 0 0
77 1 10.723453506358817 6.7428881244011745 -0.25302831862698777 0 0 0
231 1 4.948246789244673 10.624296807451415 5.037020325940702 0 0 0
236 1 7.109272801423962 11.820754464604871 5.222530318652332 0 0 0
358 1 5.294430158716144 12.601942752640815 6.654755867558913 0 0 0
361 1 6.686336034455409 10.522528833158704 7.075209405405614 0 0 0
364 1 7.254257778006931 12.554823027688569 8.522250427698253 0 0 0
359 1 4.919152252127976 10.4974894740372 8.828556857546777 0 0 0
1301 1 17.586769878456614 14.1672329387719 7.051967592077916 0 0 0
481 1 -0.19981369655756087 10.412648722642063 10.196571135706668 0 0 0
235 1 9.072697501243997 10.377965577594233 4.935093190586819 0 0 0
240 1 10.294928400888818 12.400267425345328 5.166726195108301 0 0 0
362 1 8.890986851287288 12.398913570120474 6.865981956130199 0 0 0
365 1 10.723188615817064 10.578485723574724 6.722574009235867 0 0 0
368 1 10.266163027116404 12.053246691436764 8.913015075459683 0 0 0
363 1 8.54050581778377 10.42162757188642 9.059153567773185 0 0 0
239 1 12.34946922521662 10.68515318548568 5.115466027274143 0 0 0
1163 1 8.56636123131959 14.063887398464596 5.018741954238172 0 0 0
1433 1 21.252838106177876 13.905872464654056 10.178967463744586 0 0 0
367 1 12.538094503393772 10.453251250451482 8.933840869884936 0 0 0
366 1 12.033806137122891 12.485783129250343 6.811989478599754 0 0 0
244 1 14.177053251790355 12.413717854475227 4.961851122980147 0 0 0
369 1 14.403048091235714 10.598434469505738 6.857220676799034 0 0 0
372 1 13.879799384938323 12.821480881931326 8.436816620779656 0 0 0
370 1 15.908633832356514 12.677019270429748 7.146401951376818 0 0 0
243 1 15.990582594828066 10.416229973871891 4.881939050266474 0 0 0
371 1 15.920368473228073 10.859401835490353 8.642059241388477 0 0 0
474 1 23.35255073935062 8.824672899465744 10.66286889242443 0 0 0
65 1 -0.16170988202246406 6.76455859081236 -0.17135655285324639 0 0 0
1179 1 23.577342392367164 14.16644631384913 4.876308220389423 0 0 0
375 1 19.608769353041993 10.229203316514365 8.94578802371062 0 0 0
247 1 19.82738002096365 10.058394442468066 5.385509767138471 0 0 0
376 1 17.71827270432729 12.375792363378803 8.610818852420719 0 0 0
248 1 17.952861470513177 12.663919335758004 4.943622777202057 0 0 0
373 1 18.179811529278815 10.630555333755176 7.09555527173801 0 0 0
374 1 19.87516284600569 12.35862800758131 7.052037518711465 0 0 0
403 1 15.933860015338048 -0.09513574453923032 12.535740662464992 0 0 0
507 1 23.371486087092467 10.603234711574057 12.087288377389099 0 0 0
505 1 21.516968206154825 10.677028142133942 10.63090844977551 0 0 0
506 1 23.474035421731948 12.44167643115997 10.375657466516675 0 0 0
256 1 24.95746317310157 12.135009386944517 4.577588713271341 0 0 0
1565 1 24.781977797255276 14.026601153625462 13.908254288489 0 0 0
379 1 23.607018366106455 10.789521619663008 8.766185650919706 0 0 0
252 1 21.31395534192065 12.301630046982439 5.114310960678233 0 0 0
251 1 23.18438973064973 10.554072883232182 4.9240899702460545 0 0 0
377 1 21.444380605539827 10.80467147825365 7.460336816310319 0 0 0
378 1 22.92864449686546 12.195098397953027 6.384956656458672 0 0 0
380 1 21.486448158394445 12.859877853777798 8.49397172758651 0 0 0
1281 1 28.515748345082308 14.026318392273474 6.888298249763631 -1 0 0
1429 1 17.99471849828173 14.046511604225534 10.571481809928128 0 0 0
255 1 26.679639353640916 10.659047296254894 4.894606926742104 0 0 0
228 1 0.0013084864724210998 12.15171499927342 4.984084788166363 0 0 0
356 1 28.605880039815467 12.445119012905527 9.063249285151963 -1 0 0
381 1 25.28059701340618 10.38421194276677 6.449255873052751 0 0 0
384 1 25.336767274363837 12.520750515670104 8.355512364127664 0 0 0
382 1 26.63513138828778 12.317409648304075 6.528095462549478 0 0 0
383 1 26.90396144607699 10.63352641858501 8.811367486864327 0 0 0
508 1 21.406904393691786 12.60767030471342 12.228172692321568 0 0 0
386 1 1.7051632213433043 1.2948451603002047 10.617818716240905 0 0 0
419 1 1.440281636973114 3.335861724254321 12.14538563422181 0 0 0
392 1 3.118809754786652 1.6806973924895712 12.277843265777657 0 0 0
421 1 3.447857832195084 3.2475040967581097 10.336473168106112 0 0 0
1421 1 10.38921670227257 13.929589432198222 10.63784811243781 0 0 0
606 1 26.8716818934282 8.626723789078032 14.058045850473501 0 0 0
70 1 4.8339307515599605 8.697959478085501 0.01544072944775593 0 0 0
504 1 17.655518818540504 11.965647378974433 12.583558518663263 0 0 0
390 1 5.3056702208778415 1.4690486514216852 10.677838975797302 0 0 0
396 1 7.194911392703901 1.6352160466575547 12.156702810449385 0 0 0
423 1 5.251096356651491 3.178752705034261 12.229977281936632 0 0 0
425 1 7.158784098795247 3.6338204444659485 10.53382155687848 0 0 0
503 1 19.683938221269603 10.160962532076727 11.853444108189311 0 0 0
581 1 3.372245873780633 7.176522199106974 13.786192622244487 0 0 0
155 1 23.231801783460185 -0.2575393446262466 5.682652065212829 0 0 0
394 1 8.973373493307424 2.065894776646901 10.864566980171654 0 0 0
400 1 10.833531322613695 1.5495908854586198 12.267463531860678 0 0 0
427 1 8.802162236132121 3.481631430085422 12.459892990432554 0 0 0
429 1 11.042852782468483 3.6067543165596496 10.629440392867492 0 0 0
582 1 5.2240386594528605 8.861047636676588 14.114540120982433 0 0 0
398 1 12.403104029489118 1.331919978857813 10.839114278851167 0 0 0
431 1 12.569564932123608 3.6096550277372974 12.515011006815906 0 0 0
404 1 14.593015551629062 1.6571172430618324 13.088904450585126 0 0 0
433 1 14.21338240878941 3.3633806076587494 10.738379100523185 0 0 0
402 1 16.387529198261372 1.4478886504596378 10.814977565515674 0 0 0
435 1 16.002142676272236 3.568311428631582 12.691368786658385 0 0 0
500 1 13.88288068261646 12.229493039709787 12.072391217588738 0 0 0
501 1 18.00184713602987 10.651879686080948 10.49125730441591 0 0 0
1283 1 1.561301300062611 13.992439327128897 8.859692487318185 0 0 0
408 1 18.155267575346542 2.0372053650874262 12.744702905897332 0 0 0
437 1 17.893661502620773 3.2679729710138554 10.762071638235534 0 0 0
439 1 19.85075566211485 3.41716593530422 12.194953135627198 0 0 0
406 1 19.94778134302598 1.159167143757916 10.855987044581141 0 0 0
93 1 24.990558157708847 7.027152275472091 -0.07045778588352297 0 0 0
281 1 21.372841827205583 -0.19503587941605668 7.228967400070764 0 0 0
1415 1 4.7820162126434935 14.143469597848902 12.563269411585598 0 0 0
410 1 23.169492516312143 1.4311151887755067 10.211407203785434 0 0 0
412 1 22.017655700762 1.5071289212739443 12.287173916267202 0 0 0
441 1 21.736931234141963 3.0393780953491243 10.473049897872368 0 0 0
443 1 23.60912581500286 3.5755756697710015 12.234262145252025 0 0 0
2 1 1.4192409455876376 1.26545714506483 0.19569844205752168 0 0 0
494 1 12.517104440540935 12.587545956328325 10.501481479485182 0 0 0
502 1 19.489514624207416 12.608919472934007 9.979182911940248 0 0 0
388 1 -0.2079497954210593 1.4964603558903853 12.193993314903988 0 0 0
417 1 -0.15258262803112288 3.0008646565910952 10.275450602790427 0 0 0
445 1 24.86628647116492 2.9700468684280965 10.24768824152898 0 0 0
416 1 25.1124330916911 1.656989621339862 12.40804574923162 0 0 0
414 1 26.653426238675767 1.3597179404915865 10.567626917997853 0 0 0
447 1 27.022164442923607 3.1814819615705994 12.257086810490794 0 0 0
418 1 1.517622912697082 5.256759147067343 10.70573461674901 0 0 0
451 1 1.6668046464870985 6.958350269022588 12.254150078370442 0 0 0
424 1 3.568633773273059 4.992144056176986 12.358474461285448 0 0 0
450 1 1.4624222205915958 8.667019576569412 10.901008135572054 0 0 0
453 1 3.2664519845089286 6.962305170716839 10.580070800646155 0 0 0
456 1 3.3205103704593975 8.89533548249946 12.427679777719797 0 0 0
420 1 -0.08290326961294725 5.025267645015695 12.37717619072256 0 0 0
495 1 12.418742964155989 10.342751221693714 12.350730963073886 0 0 0
422 1 5.133865426349728 5.1401471627548165 10.84183843604851 0 0 0
428 1 7.086502939806865 4.87487149156389 12.42493960924232 0 0 0
455 1 4.970522716905149 6.7642390754401625 12.090361803058205 0 0 0
457 1 7.034197534306293 6.783554055853282 10.730641611106266 0 0 0
460 1 7.0615808928825885 8.814139738799087 12.226868605287326 0 0 0
454 1 5.075990221817578 8.906053864371236 10.955202829336326 0 0 0
1169 1 14.226998833959719 14.031862845625374 3.357177909982486 0 0 0
19 1 15.614175091986919 -0.08173995260521863 1.613767071206623 0 0 0
26 1 23.516862644725347 1.3510590985630886 -0.09152068045056075 0 0 0
432 1 10.67258765142086 5.303865155871751 12.250137565870673 0 0 0
426 1 9.014897078977548 5.025375179908617 10.306482442586537 0 0 0
459 1 8.661137464970729 7.048560004000745 12.58188759560768 0 0 0
461 1 10.59613130971229 7.09844745336972 10.55353147322429 0 0 0
464 1 10.275507895006857 8.734224888318275 12.338010103651564 0 0 0
458 1 8.612221950734375 8.650356300412792 10.55252970053152 0 0 0
46 1 12.68638314814103 5.093219742201206 0.12078876811739664 0 0 0
463 1 12.231302353238181 6.8093151443852715 12.197063819680245 0 0 0
462 1 12.045197033507485 8.593757464618024 10.876585886185826 0 0 0
430 1 12.437904625131655 5.217484358199985 10.330177639163526 0 0 0
436 1 14.108103676179134 5.431840655648589 12.547661024761105 0 0 0
465 1 13.96638839657807 6.918796599499192 10.636998530005009 0 0 0
468 1 14.398625180271823 8.434969516720765 12.035935326193611 0 0 0
434 1 15.900648784968709 5.122888392542547 10.61259514070906 0 0 0
467 1 16.059338837455705 6.816077767358136 12.269532101506478 0 0 0
466 1 16.024269516473467 8.527574362939575 10.35255291452369 0 0 0
37 1 3.515128046303847 3.1427171229198563 -0.037925719126196245 0 0 0