LAMMPS data file via write_data, version 29 Oct 2020, timestep = 300000

2048 atoms
1 atom types

-0.5956703577314517 28.947670357732264 xlo xhi
-0.5956703577314517 28.947670357732264 ylo yhi
-0.5956703577314517 28.947670357732264 zlo zhi

Masses

1 58.933

Atoms # atomic

1970 1 1.954883220870955 0.8842141978374554 2.431707501976217 3 2 1
728 1 1.3227062733621378 3.2400198361606685 3.7389657134529664 1 0 0
1866 1 -0.5484400381591712 2.587520140192005 1.82076945419674 0 0 -1
1840 1 8.704399694265168 -0.5608823750189595 12.190360019054552 0 1 1
1597 1 1.5176688232001352 2.9850221833475126 0.6769322922382561 2 0 1
657 1 -0.47916464449716906 0.6788878375591492 0.5240658415092763 1 0 1
1783 1 7.069171130694814 3.6462804181236335 13.554561830999502 1 1 1
1723 1 6.527190463535656 1.155888147438866 -0.41719838660624275 0 0 2
1877 1 4.305129923792205 2.596005191903957 0.5849755288424499 1 0 1
1076 1 5.257483689082657 0.1921152952301337 1.1454768139698337 1 0 -1
1044 1 5.6097363258255495 3.9933540870120687 4.040789008536372 0 1 1
534 1 14.775193732990795 10.272431303340593 13.45707875305275 1 -2 0
346 1 7.838019678390408 0.6470537039192628 1.9801595828072247 1 0 1
1632 1 19.379727377267137 0.20127633798152766 1.0897963981781196 -1 1 0
423 1 6.0789207575909865 0.35738949884835847 10.69876147829743 1 1 0
1858 1 5.217977749670816 1.2054503575855586 3.2948536449773362 1 1 -1
397 1 21.135371594040727 5.5840970970589705 0.029733943995112977 -1 -1 1
758 1 2.1506870396211584 0.9954946980457522 -0.09266686547862069 0 1 1
2003 1 8.92735593538554 3.3816375412212656 1.1021527666730238 2 1 1
1501 1 6.449812254144581 2.5041117797667236 2.143864363334025 1 1 0
1401 1 8.812081616113536 0.5053132838058845 -0.1691975014943759 1 1 1
1327 1 25.557490270451517 1.042684474219434 2.7823504037161304 0 1 1
314 1 9.747831637307245 1.5458154719827681 2.9295340073081935 1 0 -1
277 1 12.16201583283694 1.2472378382061753 5.353566373235595 1 1 -1
1704 1 23.60942128022618 0.1679738543086039 3.330838298138014 0 2 1
1198 1 10.626926421071243 -0.45278325687982934 1.0093426551694542 0 1 -1
1187 1 12.179510865001541 0.5376160089998814 2.210348864140223 0 1 -2
1376 1 9.49205048423307 3.9084292282346524 3.753137646256416 0 1 -1
772 1 15.540624385225245 5.305812974181549 1.7131994985606438 0 1 -1
1541 1 10.887332017441732 1.8996413449756786 1.0173678685709087 0 1 1
629 1 13.849889104753755 2.2704845061273167 0.6946664461171532 1 1 1
1725 1 4.210518485013938 1.0446692965955002 7.733262517104379 1 1 -1
928 1 16.28407186927896 3.2389663317408313 0.8029402579035214 -1 -1 -1
978 1 17.715309936945438 0.6540222024525277 -0.0854767685422746 -1 -1 0
386 1 17.292461730550045 4.570075917106059 2.701460985508945 1 -1 1
1730 1 19.637014070423348 3.531533730262396 0.4359634242150796 -1 1 2
1345 1 26.675582604291 -0.13439103429083876 13.588865118041445 -1 1 1
1968 1 18.266726514377986 2.0902600139863505 1.956557866235423 -1 2 2
1213 1 26.058359604082874 0.9418774081072656 7.230085907728468 -1 1 1
543 1 11.836967907076167 6.537871304184818 1.5264246066385714 0 0 1
1502 1 6.671426609154322 9.712461566489193 0.08367054177950706 1 1 0
715 1 23.623239900683465 10.528559250873021 11.969322066330253 0 -1 1
2017 1 21.615652459398603 6.588348177895071 2.1153210400475513 -2 2 1
1579 1 20.659131924103356 2.3885929941361246 2.678231239165422 0 2 0
201 1 17.321973471711395 -0.5747665910690429 9.431293735404754 -1 0 -2
419 1 22.662165944765214 2.0008743009073697 2.481713843485567 1 0 1
93 1 20.842501772384352 1.5240589805457319 0.19303179245722768 1 1 -1
765 1 16.775488637342484 5.618579139010763 -0.17048669774933606 0 0 1
244 1 15.715040325397913 -0.14238131529473397 5.24405665995201 -1 -1 0
113 1 27.655160485612434 0.3310187687316356 3.1187355327043265 -1 1 0
1768 1 24.473272228171332 3.483666680893724 3.3994892020217313 -1 1 0
216 1 26.543410190060314 3.1721722496200706 1.6640328761715666 0 3 0
1513 1 27.08989480977658 8.27498798954923 14.047283751882407 -2 1 0
957 1 21.945358693689236 1.4534326367599792 4.685370346506253 0 -1 1
1143 1 28.25553119242126 3.6788786207463993 -0.15611859211636725 0 1 -1
1081 1 3.934002328026393 -0.3327990160357719 11.807132337651359 1 2 -1
102 1 27.51512474219028 13.369569268018521 12.13715415964349 -2 1 0
555 1 26.691169665978272 1.1505445108919365 0.6979276380388113 0 -1 0
286 1 17.003801928615815 -0.33773444611892384 3.330200344765169 1 1 1
1638 1 -0.37490473453964906 10.583508928323926 8.106964569298132 1 1 -1
235 1 0.37057359555854097 5.691269398368627 4.373980434869487 -1 0 0
1249 1 0.10748982948150365 9.885592314403477 5.317959617699373 -3 2 -1
581 1 2.8217527488934495 4.658585409716743 1.262382109088542 0 1 1
1883 1 -0.5553447296752481 7.371022777568403 2.119105770812478 0 0 1
1338 1 1.7061461168681449 7.045613454883571 1.410519711702884 0 1 -1
1573 1 0.5213086650991039 7.928815475499631 4.078054249723653 0 -1 -1
1146 1 6.4280578166707585 0.11330315153325177 13.618446310414386 0 2 1
300 1 5.622233031323557 5.097227949038717 1.6062723401442587 1 0 1
1354 1 7.2927744867393764 5.288619282553563 0.1626328356677914 0 1 -1
795 1 6.431420280628884 7.4092592281968095 1.5863328687782356 1 0 3
1692 1 3.3631527956185296 2.7946072727211066 3.4132458851256935 1 -1 2
1570 1 4.409432754896888 6.023304627565763 5.1309159030116644 0 0 1
476 1 6.641546639491861 6.65148292802477 4.471938057302596 2 1 1
1 1 10.926388913475622 4.433880339908417 1.8630937359832438 -1 0 1
33 1 14.555209795571018 -0.550868133521419 9.274635606449742 -1 0 0
94 1 10.163921002757352 9.20123386438699 0.8801862477490547 1 1 0
1729 1 9.617381348141766 6.146583162014455 0.9765860244049729 0 1 1
530 1 7.8193077625067655 8.275867956894437 2.997813399889666 0 2 0
1357 1 12.438662703744642 9.171334341739316 2.5328684001678923 -1 1 0
45 1 3.647453414648245 7.862493628156438 0.35328521928183987 -1 0 -1
335 1 7.574060756214175 5.3041344494059555 2.5635066493873073 0 0 2
1462 1 11.598168677007479 13.035896474749732 9.764618820794853 -1 0 0
1871 1 14.292204609508715 7.4164385744324495 0.9296891443454101 -1 1 1
276 1 10.341242472680579 7.914844988510328 2.883617909105338 1 1 0
32 1 22.902358936707174 14.122298267392825 9.866715579792935 1 0 -1
227 1 12.622617192330916 8.415129995322891 -0.12252959100751165 0 0 1
1910 1 15.389958940645611 8.706021923636213 2.9957479402281995 -1 -2 1
1801 1 13.749313229968106 13.216156765444977 -0.10123164773685683 0 1 2
625 1 19.399328048627872 13.48170843666964 1.0617992383086614 -1 1 0
1503 1 13.300751783920912 11.507447937342771 5.580056702754329 1 0 1
1410 1 18.81975597079655 5.956871414984046 1.1621775557369602 0 1 0
918 1 19.558359379009246 4.716819348712877 2.849082136874377 -1 0 1
1947 1 20.179180924854414 7.33097200326158 3.955862463337092 0 1 2
1615 1 18.286665709258685 9.229719194476983 2.6259554931991493 -1 -1 1
1880 1 18.657322317511934 5.227813466245259 5.097244818645697 1 0 1
832 1 16.472062364952812 11.00687317489366 3.622123391868244 1 0 0
407 1 16.72879968533004 7.621965308549186 1.040893768426677 -1 -3 0
1683 1 -0.20758345741850526 14.166646313027812 -0.1643225503317649 0 0 2
730 1 22.212446222364584 4.044976767673154 1.0622634176116743 0 0 0
1534 1 23.871973654587528 6.216763771927413 2.635123442350576 0 0 0
1973 1 24.514726997922416 8.461670331289904 0.8901253076218207 2 0 1
977 1 23.104903954599884 8.5375135641613 2.7460329921864015 -2 0 2
136 1 23.633914484565913 10.763097712704413 0.18261329882462318 -1 1 1
1134 1 23.33461840537941 6.52672180325513 0.39084890675113915 -1 -1 -1
1642 1 23.870610535958882 11.093034798948143 2.8544658509508953 -1 1 2
1193 1 20.99509792380453 5.611141684525704 5.069336344732451 1 0 0
415 1 25.559545978357782 5.207627618762521 1.227916966825014 1 0 0
369 1 27.247245323828274 7.184572837584564 4.011766295896878 0 2 1
143 1 0.5890043852114248 5.326079426850292 2.0575579162550692 2 -1 0
1881 1 26.259640571338522 7.2076738496944825 1.7440941261958955 0 0 1
158 1 26.026732509804816 5.33204042861788 3.6110789121365325 1 1 1
568 1 28.4064726809929 4.003015460750434 3.5866999262891994 0 0 0
1328 1 19.327256284197034 11.088877116879182 11.640639835033452 0 0 0
570 1 1.8103713888320896 13.79553508973869 2.8639634050736986 1 0 1
191 1 2.5903515431474897 5.2593555829036704 3.7375085027104396 1 1 1
479 1 2.704383423332291 8.716960320348836 2.6831895528592673 1 1 -1
746 1 0.19394942965000028 12.010974643250591 3.32426392981409 2 1 1
312 1 0.15121593608980666 9.921751669001473 2.009268477288533 1 0 1
1074 1 4.397864224104765 12.62221835270883 1.2179044257720548 0 0 0
1532 1 28.729310134728664 7.964038884335007 0.07591416129570361 -1 0 2
1647 1 2.3019672385978227 11.905454589806114 1.8649957215470376 1 1 0
478 1 4.114474920371096 6.693718624938579 2.773036035549665 0 2 1
1056 1 20.402899411085485 13.670956644682654 11.381617675955193 1 -1 0
744 1 4.281732564925333 10.600399390822599 0.12225349463051016 0 1 2
1786 1 6.345245584032998 11.70364999692353 1.073544541968531 2 2 0
1624 1 3.9358949768990907 10.757848303702204 2.8854023242574383 0 0 -1
1309 1 6.60192998422318 10.894454908989115 3.465092763891125 1 1 -1
1256 1 5.220942386156393 9.060994850099812 2.367317834323828 -1 1 -1
179 1 7.301042500382982 13.080904118418918 3.128085086705693 0 -1 1
2006 1 0.676394124476078 12.124677231935395 -0.21686786920857554 1 -1 3
1114 1 17.91581351366272 1.1560001856604272 6.083990902965856 1 2 -1
1451 1 21.535603594707347 10.440897372577487 9.410312150750388 1 0 0
229 1 8.052171979764928 10.335223919177702 1.847453404120266 1 -1 0
933 1 15.301328341374276 12.110720582650883 1.5914178714872178 -1 0 0
1778 1 9.290702049240211 11.239819695489617 -0.3675060365505206 1 2 0
755 1 10.27272467434586 11.17549714903841 2.3045989675914824 -1 0 1
42 1 12.905775955719966 11.078871200727646 1.4951538617432885 -1 0 -1
1803 1 11.921419296571544 13.06983135675404 3.562780297504543 0 1 1
1043 1 9.47989221544563 13.59853696518465 1.5777286306362184 0 1 -1
537 1 7.561844885075574 13.245434442809142 -0.2645010442258938 1 0 -2
1230 1 25.40664405498977 13.50829267573996 11.010913205743499 0 0 -1
1526 1 14.940275456138059 9.940839036987176 0.43935686613192426 1 1 -1
1932 1 6.121323108232884 14.025393910007832 1.3857828242889636 1 1 2
1321 1 14.067544999331048 11.103638661408327 3.5351463834450536 0 -1 1
367 1 5.687177831354227 1.9317787349322977 12.329004687191064 0 1 -1
598 1 -0.23788028802181482 8.67449596999365 13.813759314033657 1 0 1
1245 1 14.613554561628069 13.24976659706373 4.147608791712297 -1 1 0
1517 1 17.110834339102723 10.01043147999415 0.45479939832054717 0 1 2
98 1 17.85262714517072 12.17312112900512 2.12525981906349 0 0 -1
923 1 19.610835887151694 11.116283421226994 1.0269653407903616 0 0 0
1745 1 24.075063027798144 0.13620152373832117 1.2256629937756391 0 2 0
467 1 20.888772292404518 9.588843176249627 2.7379329959370633 0 0 -2
1240 1 19.464049637212803 11.254699611611489 3.68415533930627 1 0 0
1063 1 19.602411283312357 12.055126577070467 5.738262921685793 0 0 1
1422 1 20.36867704725747 13.370234109731793 3.8182704228125512 -1 -1 0
254 1 16.058617398378374 12.182200945403505 5.79790812193192 2 0 0
8 1 17.687636159797663 13.076715109908797 4.280130184006083 0 0 -1
703 1 24.952859357938415 8.918773491843403 13.53123578037217 0 0 1
1691 1 22.108847089994704 12.229309609216356 1.6718230392586797 0 0 0
1596 1 21.825469756021945 11.526071095805975 3.851870122774609 0 0 2
1592 1 23.53938296234169 13.884849276626316 0.9209951074627043 -1 0 2
2025 1 22.44280077256473 9.875172495361292 13.91550014048029 0 -1 -1
1870 1 4.6181466283108765 13.740812835951479 3.2296660667429697 2 1 0
1270 1 7.316897800742944 11.593683313925375 13.914543551389507 1 0 0
1220 1 21.529249185637624 9.765813277950647 11.742845544037259 0 1 -2
1159 1 27.841199535842563 10.943226310873184 1.440110706934096 -1 0 -1
1952 1 27.54888942415444 9.116649447384761 2.7256378717575265 0 1 1
1441 1 25.975039061053963 12.249452239628091 3.0594482983968403 0 0 0
808 1 25.28412320900412 8.740914193806718 3.3127150940377557 1 0 2
1362 1 27.906851040776964 11.885414381946358 4.149785571253242 0 0 0
531 1 25.659868757165626 13.022346137579667 1.0001001652758184 0 -1 1
209 1 21.198099444921773 12.985253808446089 9.319810119495704 -1 -1 -2
1490 1 3.058551644394597 1.1543578266538352 5.114504365116192 0 0 1
1378 1 0.8162812521292273 0.33312914372693714 5.17006107173707 0 2 0
911 1 3.4695513425000772 3.5203610236742033 8.434365657402854 -2 -1 0
1051 1 1.4217746181313897 2.0974163358826443 7.173078911096883 0 0 0
222 1 2.1546356406292166 -0.0006073846084894141 8.235986771974314 1 -1 0
1684 1 24.762544046912808 12.389900763740071 12.971995876677761 0 0 1
290 1 0.6783503714053996 1.57704934337779 9.491582085048082 2 0 0
993 1 7.3173423958987005 1.7873257580744313 4.927950393057237 -1 0 1
342 1 11.576419350878774 13.128063039976007 0.9213710272839253 0 1 -1
1896 1 3.21689990642793 1.3901757927597596 10.512443984649348 1 -1 1
1749 1 7.413973393833793 3.147632205604483 7.066716791319509 1 0 1
788 1 9.444419050589037 2.702552740550638 8.01348707179395 1 -1 0
395 1 7.690262278221072 3.9743802456900497 5.098788558411528 -1 -1 0
1456 1 27.12107000317377 13.079644403837847 9.377349639961409 -2 -2 0
650 1 6.25940766164829 1.4392320466925104 8.019418445890084 1 0 0
1349 1 4.642720742797366 2.6504874592684775 5.920372560055286 0 -1 0
1979 1 26.2310867815483 11.005981268157369 11.19100809435108 1 1 1
482 1 9.719875331270165 2.3086814051789752 5.6530969481082325 0 0 0
1254 1 11.255280824267594 4.192870887706885 8.047244520321609 -1 1 0
1766 1 9.17836149096379 4.8052287058261385 6.712427346208114 0 1 2
1344 1 9.53025241093331 0.6390299651106344 8.514051107690817 1 2 1
1953 1 11.785024515165167 2.024331916226023 7.682027003198899 -1 1 0
1844 1 12.59617020855054 5.57186104370746 6.235251727471423 0 1 0
1957 1 12.154255033505217 2.893454943122457 3.0629490605448 1 1 2
147 1 16.43378115213192 1.9438198011207075 2.935029559710358 0 -1 -1
1447 1 13.58582240990217 5.158084611550912 8.293249842808441 0 0 -1
595 1 13.678961442183258 2.843478074067423 8.623443685352784 -2 2 2
1654 1 14.090048006362792 1.7382109591588049 3.9339310234983067 1 1 -1
1060 1 13.90856795852536 3.556077670657084 6.420513359695843 1 1 -1
164 1 14.563853521933948 6.028343995323224 5.7931029787376564 -1 1 0
2005 1 16.093668772472874 2.1825805506007674 5.308864878040498 0 1 0
1713 1 15.953375257312485 0.9349904867029439 7.528383589013874 0 -1 2
524 1 15.242224537426345 3.719808185211889 3.3027188503617193 -1 -1 2
654 1 18.29712264615248 3.0078142586697503 4.459828466055956 -1 0 1
1769 1 5.75216354568542 -0.2303764996963239 5.351262686671408 0 1 0
412 1 20.533135654587397 3.18438278229201 4.969497464542918 -1 -1 1
565 1 20.45861241416418 3.011173803542691 7.980439439103979 -1 -1 0
451 1 19.307972160338423 0.6868166212072051 4.346489176061858 1 1 1
1962 1 17.383280344246707 9.268782538450184 9.927980969071955 0 -1 0
663 1 18.49046183832936 3.081727422378965 7.127232530318493 1 -1 0
384 1 20.369955987433947 5.473762500679931 7.517767558240729 1 0 1
197 1 21.379197238270848 0.23574026111776236 2.240932406690379 0 1 0
693 1 25.09883368491601 1.9605949991144502 9.32615418224454 1 1 0
1281 1 22.922002990092473 0.5143356812731055 7.488896989434798 -1 0 -1
1843 1 22.169610121332326 3.855286526735373 6.955464607091223 -1 2 0
438 1 24.097478594457016 2.647334196693561 6.976723441414 0 -1 -1
960 1 18.126942528619438 5.487659786953539 8.126489521454088 -3 0 1
1141 1 11.764322273311054 13.132259194740174 13.683440415949818 -1 0 -2
879 1 27.814234518667284 0.20463333927501248 5.817680483966364 -1 1 0
1257 1 -0.49734086840585034 1.7488684174476732 3.779713661230004 -1 1 1
695 1 24.82644671317867 1.3017760560996638 4.748794006823956 0 0 2
855 1 26.43296500456801 2.7172319112059524 4.237013555895224 0 0 1
1172 1 28.6767701834668 2.325443143213386 7.562059113396458 -2 1 -1
701 1 26.500076469846725 2.918550325962812 6.8236209973271365 1 1 0
1770 1 26.46143311601366 4.301783762820478 9.704211658855598 -1 3 2
454 1 1.349344983239349 4.314147650549503 7.800159446721416 -1 -1 0
1444 1 8.35651088565359 1.6479714732276816 13.449111019831337 0 1 -1
1208 1 -0.14618682024231772 3.4428823041280605 5.779830468222407 0 0 0
47 1 2.318061467259451 3.9796645817058325 5.723208988916642 0 -2 0
1776 1 3.5415488832664606 7.968831902401206 7.378346259505191 -1 0 -1
177 1 2.451491853717958 7.670631168477797 5.1364386757550395 2 0 -1
1194 1 -0.052534907560626065 7.320556657073724 9.422250782527406 1 1 2
712 1 0.5580385975139257 6.1788775360945545 7.328605982082541 1 0 -1
1867 1 0.8789474810861369 8.625808764190621 7.680404449304509 1 -1 -2
1543 1 3.0038857392357707 5.93851216716816 8.402897725873096 0 -1 -1
842 1 4.738533184789235 8.141242018022758 4.727535564605318 0 0 2
623 1 7.952726766948059 2.889441206318745 9.531015099010405 0 1 0
1470 1 5.955083556772179 4.93470167210085 6.522298022087223 2 1 1
65 1 8.807868618613224 5.848000835462574 4.606350667641953 1 1 0
1155 1 5.980690960075018 3.8619311571964614 8.454578832387256 1 -1 0
579 1 6.707223912431913 9.062461456253674 5.082601445782328 -1 2 0
512 1 6.611310317172219 6.530537974809122 11.011848978195022 1 -1 0
729 1 4.936658923114399 5.626485316097197 9.576513021250571 1 0 1
1800 1 5.509432785977951 6.801422085177113 7.656745685730328 -1 0 2
920 1 11.517621337284352 3.6201299286229993 5.557438622844374 -1 -3 3
21 1 8.883864569833934 8.527413071406711 5.798797197843088 1 -1 0
189 1 10.608901059435942 6.516654141387081 9.121621130145304 1 -1 -2
444 1 11.147155851913162 8.465311605328164 5.241861993331957 0 -1 -1
1703 1 7.496100040696454 7.0038441601574855 6.441712189633781 0 0 1
1950 1 10.588434096043603 6.6373447888996 6.238629992620305 1 -1 0
1101 1 7.679956603416189 7.689143287759055 8.497745425679463 -1 0 -1
1162 1 13.260807091313394 7.454347951154183 9.771924038135213 0 0 -1
513 1 13.295056739663384 4.422650414646622 1.7206308521571514 -1 -2 1
1246 1 12.905653588826942 4.99198934248929 3.8723094482221923 1 -1 -1
1386 1 10.93494592756648 6.055719746215757 3.953787042715655 0 1 0
322 1 12.98963700029548 7.293526257717835 4.075244963990658 0 1 -1
243 1 15.325413241054216 6.225595378944782 3.594719161443116 -1 -2 0
1173 1 14.795934009034259 7.509890545137864 7.37053652278947 1 1 0
502 1 16.281585173282657 4.399422323196605 5.9600217890452365 -1 0 1
1080 1 16.66836459360205 6.884988974236294 5.483145532216831 -1 0 1
1548 1 15.631901298360903 5.807286670996028 8.74414111712583 -1 -1 1
1047 1 18.62696331789727 8.985335187894629 5.420538170314742 0 2 1
813 1 17.39152238736638 6.946057153017459 3.1417743331139065 0 -1 0
849 1 16.961604405568643 7.114876516251185 9.876898660740022 -1 2 -1
694 1 18.968105029008285 6.969777439994369 6.557495932703571 0 -1 0
321 1 21.43407888999709 7.654580876923127 6.160222078050966 -1 1 -1
666 1 20.255995740420076 5.460537291408261 9.97619875301646 2 -2 1
1096 1 23.28327874971285 6.111861324134038 5.2131594525916825 -1 2 0
1232 1 23.236062822445767 8.535723648505712 7.221165866870899 -1 1 0
159 1 23.846236597610996 4.405285736366894 9.09359175730931 0 1 0
1163 1 23.119768789577613 8.422229479248411 4.789891011210712 -1 -1 0
357 1 22.0341574437159 4.387461273829647 3.31793447809552 0 0 -2
740 1 22.63489555523546 6.590203464228532 9.782495409974267 -2 1 2
470 1 21.44651856034018 8.497938373796737 8.345567970477607 -1 1 1
944 1 23.259771340201866 6.196977500896224 7.390870511710143 0 0 0
1419 1 21.098376933258557 11.488788399751572 7.653253163028655 -1 0 0
1551 1 25.486918107093068 8.107502865648568 8.237506935443504 -1 0 1
1702 1 27.622092948333247 5.4873877766032 5.675683768132681 -2 1 0
1165 1 -0.38816343581485313 7.829394864986069 5.838788875707548 -1 1 -3
1320 1 24.491298352501182 4.132114059099292 5.570783065677398 -1 0 0
10 1 27.643796916010665 7.269213124244648 7.897380494698966 0 -1 0
456 1 25.6929767444038 7.423373901642073 5.740902543735494 -1 0 0
2036 1 25.615417095912278 5.37583156876077 7.451933616538067 -2 1 0
1832 1 27.91402074131524 11.869529812196484 6.292332447308998 -1 0 1
1942 1 27.996942997116676 9.28201674724802 9.501333754880028 -1 1 0
984 1 1.9149462688181886 10.471531586716644 4.019169470268038 0 0 0
789 1 1.8488067527935934 11.852502599374459 7.597169396149589 1 -2 0
618 1 1.048224897570799 12.378780717179852 11.901678881930053 0 0 2
351 1 0.7535565977740735 12.607787050398722 5.504993711496231 2 -1 2
1160 1 28.15062828250121 13.797262626044645 5.6161678937078054 -2 0 -1
1699 1 15.461442178785179 -0.006119720821640251 -0.2332347008585689 -1 -1 -1
3 1 1.278856334584448 10.475562083962913 9.622094302905019 0 -1 -1
1530 1 5.999205436938422 11.598091660431322 7.915587116693054 -1 0 -1
1838 1 3.1473872317209577 12.256397105338612 4.758807786874325 0 -1 1
1628 1 24.40479758724446 2.693229397633248 0.9235706065164122 0 0 0
483 1 4.957111903179288 8.244267474331297 9.905211922567624 0 -1 1
1010 1 5.325461779799807 9.49030234391899 7.616618850444521 1 0 1
263 1 2.5984106240816374 9.890755424241597 6.146524273356478 1 -1 0
392 1 5.2263826251915795 10.693966111004054 5.644383976238095 0 -1 1
355 1 4.025515960059474 13.399445387239522 6.419652737074784 0 1 0
503 1 7.5727692824651776 11.311544661148599 6.173565208674696 -1 1 0
69 1 4.23561328450533 13.000968025687756 8.821588688041263 0 -1 1
784 1 3.5275396626551414 10.12600565950097 8.55940241554691 0 1 1
1846 1 6.754794917246256 12.633080179669426 10.19518922074316 1 2 2
1387 1 10.051373804766252 10.6764102779367 6.480483930964043 -1 0 -1
239 1 8.884376279608801 10.050685548915805 4.211737654408889 -1 1 -1
1261 1 9.160290930794329 12.321596474781256 4.293384060370178 -1 0 -1
1028 1 11.527154440248385 10.625230332966677 4.16493796312487 -1 2 1
803 1 6.049741909559282 12.875965148825188 4.982395441255705 1 -2 0
292 1 12.671104056027724 12.880730220969584 7.477380669158272 0 0 -1
935 1 8.35798100495593 8.125149140354038 0.46643715592105117 0 -1 1
1975 1 14.082012273822086 9.113193920438317 4.838613883112936 -1 1 1
304 1 10.289344328525585 8.307037644365018 7.8963220958202225 -1 0 1
1834 1 17.612166925911005 8.894211326334114 12.459540962376881 2 -1 0
1544 1 12.463430207109912 9.863674905595092 6.772786281811011 0 0 1
1339 1 14.06259086317946 13.00795848165168 9.526302204834007 0 0 0
375 1 15.613726758011447 11.481575925397316 8.107601703106933 -1 2 0
929 1 14.88408166420903 9.768497795535872 6.7646217377685485 0 1 0
810 1 17.739387892434515 11.253232982124235 8.596210606162384 -2 0 -1
1724 1 16.277848237098723 9.235997107052434 5.155345284207918 1 0 3
485 1 17.479849011309433 10.592535182199759 6.4349723446825005 0 1 -1
1384 1 16.905997332811864 8.458987676653377 7.4242808544936665 -2 2 0
991 1 19.508386402369048 13.200408851773295 7.496982508158585 0 0 0
366 1 19.199630773493645 9.419512911134069 7.62013129112824 1 -1 -1
1528 1 -0.3089991395705524 0.23053397319922175 7.783983724448255 2 2 1
1917 1 9.40815543191711 13.681108771271584 10.213479760298457 1 0 0
1791 1 21.75667216841716 13.09653068859721 5.6858238668894145 2 -1 -1
1741 1 23.57133620359513 11.927071371854606 10.018041238340748 0 -1 0
109 1 23.61050317169552 12.994735799741218 7.782236823789832 0 0 -1
915 1 24.200891478701934 12.817555475782829 4.696307205810779 1 0 1
1751 1 20.829265363413676 10.046316861158955 5.5711114900366825 0 0 -1
442 1 10.836667118500838 13.04449609394613 5.826899132805067 0 0 0
1885 1 26.363641232485342 7.509049214372503 -0.5544477488468893 -1 -2 1
1443 1 23.128272275720114 -0.3771900367030694 5.422437595856983 -1 1 0
25 1 17.77514724792359 13.269442606558378 11.779237438282925 2 -1 -1
692 1 24.98176986526618 10.620436174187642 5.244617703170697 0 0 0
141 1 27.16482652121259 9.453712485260922 4.888153462238381 -1 0 0
1617 1 26.07190827397544 12.772141084636258 6.447293760352949 0 2 1
1620 1 26.664184482604092 9.837340494886917 7.408146692419701 0 1 1
764 1 28.590282593767938 11.681067866399474 10.43345395563 0 1 1
1514 1 25.634132631698648 11.795074330655288 8.57841497065007 0 1 0
1149 1 22.89490603724343 11.148504521524393 6.006714885319881 0 0 1
1150 1 4.507932819744562 4.388479123525824 13.55388398048815 1 1 0
325 1 23.74248935190591 0.41882790532767245 10.604339810517553 -2 -1 0
174 1 28.405610974392644 13.193909086310848 1.8797733676018589 1 0 0
1411 1 1.3051427791555257 1.603572192989041 13.52271253750743 1 0 1
1178 1 1.6966348862480785 3.909321023367153 10.001933663612308 -1 0 -1
1128 1 0.9911278396748426 3.9333377178451734 12.090549722693094 0 1 -1
1237 1 2.528380827635384 5.75147213218653 12.686223338736069 1 1 -1
1648 1 21.114370330311424 11.686217368045812 13.676267981301585 0 3 -1
883 1 17.10032901848993 11.278593088600035 11.045574457303317 0 1 1
1664 1 5.228385586142563 7.044033692009218 13.444910370520654 -1 1 0
814 1 3.314305345496051 2.7207216498244775 12.411313576208006 2 0 1
1288 1 5.431077839277035 2.6869423230082057 10.071647328474867 -2 -1 -1
753 1 7.436914966505039 5.317038839945941 9.16092755740101 1 -2 0
468 1 8.380433110092588 1.0692151629913227 10.64865628286166 0 1 0
1853 1 1.7813740562271891 10.232274431957986 0.4818480604297781 1 1 1
1485 1 14.917409915052597 0.10869612516222638 2.3283101957963495 0 2 -1
459 1 15.067636020848427 13.847398978775344 11.255911316407206 -1 0 1
1564 1 10.720961544498739 -0.31722131839916134 10.160096179672419 1 -1 1
874 1 9.468029178546713 2.9960996335484484 11.764232642330263 0 1 0
1559 1 8.36068731266545 -0.2275200639718163 4.397142866920527 -1 0 -1
1239 1 7.748439199854211 0.0327552867975035 6.771944828677192 1 1 1
1353 1 9.494570011976302 4.503827814249899 9.749468168051216 0 2 2
458 1 10.441268221387286 1.0231105530238167 12.142801322888717 0 0 0
1845 1 7.920585253558002 4.114768370861505 11.35214481798368 1 1 1
1382 1 12.513967365707941 1.3459053826548926 10.019542596246245 0 0 0
1226 1 10.612995286478185 2.5762939215993583 10.046891765882933 -2 -2 0
1553 1 14.52757429095653 1.4500886626155056 11.995151579070791 1 1 -1
756 1 12.52585407867134 0.6677599814792867 12.689049713372414 1 2 0
1372 1 12.589771859456004 3.1401804318763578 11.802814563664318 1 1 -1
985 1 16.05601670262957 3.2385022514676574 8.585201743302637 -1 1 0
1627 1 18.731608409638525 3.6211906730243166 9.53633376836286 0 1 0
221 1 23.35495232520831 5.517805718246001 13.411197532426446 1 0 -1
2009 1 18.428301335886324 1.3705457783724957 9.31611033470675 1 1 1
1926 1 16.206004901897977 1.8508138571516954 10.429738427667958 0 0 0
987 1 18.456777341117267 2.5288924959868484 11.404622251223556 1 0 1
493 1 21.710879996318702 3.4585422145956795 12.750318898388695 0 2 0
907 1 17.617837210254578 3.148810297703478 13.44415748053633 -2 1 1
171 1 24.72223491595623 3.607737934383765 13.745290535126607 0 1 0
1009 1 22.620357987540373 2.248282285252052 9.166940633405385 0 1 1
838 1 20.36354819671552 1.8645768821970994 10.731367024769757 -1 0 1
1732 1 23.799072752159972 3.089377349701816 11.591858567212121 1 1 0
538 1 22.02756651231715 1.12613858639397 12.620831619301187 -1 0 -1
457 1 21.234186367797506 -0.17390125326777423 10.865696055432009 0 1 -1
319 1 26.76493237541527 2.263990043886206 13.447162189042295 1 -1 -1
1282 1 20.94122099511292 0.5493856232184524 8.67787316458746 -2 1 1
836 1 20.02265550100293 9.40663271448565 13.36477190659772 -1 0 2
812 1 19.594041401138526 9.574810279480282 10.32246066300144 0 1 0
446 1 28.35563162971919 0.8851740091355889 12.092127216273914 -1 0 0
1397 1 25.746277739249557 4.7567125454460815 11.698945575327535 0 1 0
1943 1 23.940726291029407 10.164687579083468 8.433872064569172 0 0 1
1757 1 17.460238114128295 0.1729869232849086 11.611474956084177 -1 -1 1
66 1 14.817343621199973 14.128880820079454 6.616206707644642 -2 0 0
119 1 27.12731594477094 0.6868317742222096 9.367652279831793 -2 0 1
757 1 26.092375832228406 2.306139001176729 11.254514177660056 0 1 1
769 1 27.91667189708697 4.143792079987269 12.524401399401713 -1 1 1
807 1 28.43723848127486 3.0578177833902904 10.514410796356369 0 0 1
7 1 3.052249294011239 9.829336112140934 11.058602248063204 2 -2 0
1964 1 3.4855457370421288 4.410067983949505 10.87965757483805 -1 1 0
1848 1 2.114817427663278 6.449352536172246 10.44603201644063 0 0 1
1859 1 0.3087576440479908 6.174348945065122 -0.39009508836304474 -2 -1 -1
1457 1 0.21305686166955107 5.829605431453806 13.261658911129741 0 -1 0
2014 1 -0.18600192818758515 9.727192361907424 10.993569786583768 1 1 1
2043 1 3.0083989008326473 8.083397435789191 12.402026671865924 0 0 2
1119 1 0.3498967821169727 7.331219298654106 11.732916327540963 0 0 1
575 1 5.687289409696276 4.3497255539450626 11.80137061797048 3 0 0
869 1 6.5223541500918305 8.739920412957936 11.539332055458386 0 0 1
1874 1 4.159491348320452 6.543581890875191 11.38476914212316 0 0 0
843 1 7.510756977673449 10.590334527316227 10.292419319399512 0 0 2
1789 1 2.424031252751101 8.382226551984747 9.23723929195896 1 1 0
205 1 5.269236922984388 10.853033473052088 12.25072936909921 1 -2 1
1605 1 13.045661070369652 2.3685849744307843 13.963568866938553 -2 0 0
1646 1 11.026111316818156 4.7459064981360735 12.327406109706814 -1 1 -1
1614 1 9.617022658863393 6.836878451268223 13.356479077227023 -1 2 0
1524 1 7.356062315900544 5.927990496725933 12.990382125871703 0 1 0
1073 1 8.741869878651428 8.597364152874034 10.474992302997643 0 0 -1
1728 1 9.06013331488627 6.156716330908129 11.166187025109126 2 2 0
144 1 12.154595985694133 4.878921085966104 10.032099225261398 1 1 0
1694 1 12.833867341319783 13.702684419601082 11.652928242820254 0 1 1
344 1 12.585925283527741 7.252967474221468 7.617870257040435 1 0 1
1809 1 13.661604012932509 6.226885268943413 11.629592572444073 1 0 1
688 1 11.339661959081536 7.0799749013036095 11.70556563082179 0 0 0
946 1 15.674074904908961 3.5761448314789517 12.108165236283954 -1 1 0
1467 1 14.725121263553914 7.376423548718232 13.924842570964525 0 1 0
1115 1 13.787932380564223 4.730191171416788 13.372158675840897 -1 1 -1
107 1 15.044574483172603 8.832044230940918 9.223846725594404 1 1 0
1941 1 14.26308435900252 3.9662965985792047 10.471801712856703 -1 0 1
1396 1 12.922166524070896 8.63906890233307 14.018175412812468 -1 0 -1