LAMMPS data file via write_data, version 29 Oct 2020, timestep = 300000

2048 atoms
1 atom types

-0.7541380621451381 29.106138062147267 xlo xhi
-0.7541380621451381 29.106138062147267 ylo yhi
-0.7541380621451381 29.106138062147267 zlo zhi

Masses

1 58.933

Atoms # atomic

1635 1 -0.45062248526562554 3.636843510746978 2.1344319412246215 0 0 2
664 1 0.6038965245393881 0.29882285278485643 -0.32495938816092435 1 0 0
445 1 28.73393435117102 4.0186112058413075 4.346614049554771 0 0 0
894 1 12.674345829310107 -0.6158557965605046 2.079746339184419 1 0 1
810 1 2.263490092915872 3.4218159128462773 2.1165550470484633 -1 0 0
1129 1 27.78154759931669 1.9189182918962593 4.082347126488414 0 -1 0
822 1 3.498419741659813 2.5338136002328557 0.09025699264144527 1 1 1
811 1 5.05579591876443 1.8484985430331946 1.9804755284963447 1 0 2
1570 1 6.365224712247753 0.10496787068827751 3.4445891114116076 0 0 1
1793 1 3.069183540304244 0.3991930810675335 1.4321914877952429 0 1 0
1303 1 6.605858097309877 -0.15286557052167826 0.9967439417348913 1 0 0
437 1 3.22775685116061 2.7002964120982007 4.322096967666675 1 1 0
472 1 25.47226052177331 4.099762047511732 0.09031842640700682 -1 -1 1
1083 1 5.2132583265546195 4.044412436379218 0.8348135721411498 2 1 0
825 1 26.888712308066456 6.1429746002128915 0.5948148167254974 -1 0 1
1750 1 9.389569094316265 3.0464880028076617 2.3245074218075823 0 0 1
2 1 11.335591390575404 1.541899758273762 2.2746300725470374 -1 1 0
1885 1 20.490519034924773 0.35855385896638303 6.216657290030855 1 1 1
1920 1 9.02466861725779 1.0737431720864452 -0.18721042410060396 1 1 0
1217 1 12.577835207271347 4.226010458227337 0.5337864659639462 0 0 -1
2029 1 5.111523037007031 9.07678588387065 0.25978461327457825 0 0 1
411 1 8.689532226649913 -0.747428952575851 2.403919577076865 1 1 1
378 1 14.304918571275678 11.54267884048698 13.902717327741708 0 0 -1
1664 1 17.845261605645717 6.420518285586894 13.976612650036223 1 0 0
1357 1 10.042122122617355 7.146368316360037 13.682782804847196 1 1 0
1323 1 26.22510091080541 10.636690093624908 -0.1493299502532608 0 0 -1
355 1 17.086949585582087 2.0663999794531853 0.28185066111207124 0 0 0
1693 1 14.187350310466162 0.5099720340577449 2.7237275208946343 1 0 1
1344 1 16.593080291462016 0.5606302403864065 3.957137864999945 1 0 0
680 1 13.840755111063714 1.431314264992054 -0.1690360130193469 0 0 2
2039 1 17.756695024756482 13.619789819933619 -0.020522366347511367 0 1 0
2040 1 17.97359722088229 3.5203384362379966 1.8469507027577614 0 0 1
1915 1 15.6346027414276 5.266878407293555 13.901706082930204 1 2 0
182 1 19.973024695497497 2.089450409993019 1.4895319506900546 0 0 0
1186 1 18.471863343667508 2.09683882076777 3.5496952622692994 0 0 1
1110 1 20.850825282871813 1.7456254275271 3.869740726615359 0 1 0
1670 1 1.2959068581728665 13.956461756825936 13.376855149361111 0 0 0
478 1 17.526939082284105 -0.010981221254224738 12.57798080113376 1 1 -1
612 1 17.960286043745626 4.628421489989002 -0.5841176167222726 0 1 1
1845 1 15.592290822327115 0.1329250157472841 0.5469066861769336 1 0 1
1950 1 19.016916506251345 1.1959857952580675 -0.634549288652911 0 0 1
1910 1 7.386865373391677 2.17273564275951 0.5358136413617687 1 1 1
433 1 22.407593080040805 1.941698059116053 1.4656316932131626 -1 2 -1
41 1 21.56044606206199 14.143114372054903 7.644032438648212 -1 -1 1
893 1 3.741747572248819 4.199323714964475 12.022837147547808 1 2 1
995 1 22.621752821498184 3.4803732162334837 2.9157573869054483 -1 0 1
1757 1 1.0243379418036365 -0.18033586916820066 4.374143349101174 1 0 1
103 1 3.5009457827238535 1.241243736088863 13.268586267329324 0 1 0
1638 1 25.316901842152543 3.9262923929702325 4.150961070694128 0 2 0
737 1 19.84865236129304 13.229217752075584 1.5214634500030293 -1 1 1
1731 1 27.89752586991951 3.8020070703060753 0.48498465481746367 -1 0 1
1312 1 26.659444830057357 3.4506098515732297 2.45595309961128 0 0 1
98 1 25.986047554939397 0.9281920179715886 4.558416145265571 -1 1 0
1364 1 26.53152876293187 5.886772101993695 5.456130990581879 0 1 0
237 1 26.098985638409058 0.24700227140088815 2.391209405230215 -1 0 0
418 1 23.30893529241442 -0.36712867886889583 1.358001841177222 -2 -1 -1
50 1 0.658115410031666 5.634218628155611 3.384792923465408 1 0 0
1055 1 0.6268626752089315 4.712258487436664 0.33165555472098074 1 0 0
388 1 2.6134381284065653 5.312831945554881 1.3130512934600818 1 0 0
734 1 12.020577885941286 9.883290260765481 13.409266621299016 1 0 0
52 1 0.5869896689249814 7.874792639512753 3.2068990027680035 0 0 0
279 1 3.025568470505101 6.897017986661052 3.391841886060118 1 0 0
1780 1 0.5470348121354252 6.707974598009489 1.1457894103958997 0 0 0
898 1 2.5314540539989756 8.133452364021219 1.6287164223178703 0 0 1
444 1 1.4566752368235347 13.815831564736037 10.431487162210926 0 -1 -1
1092 1 7.781932615680439 7.796663103037906 4.014389983034884 -2 0 1
1273 1 7.501991873397385 10.994920821169067 1.1951524534769506 0 1 0
1243 1 7.461529561216201 5.457789456243269 2.115998961181063 1 1 0
2015 1 6.973592715365241 7.8452608643261 1.5564399979595516 0 0 1
540 1 4.538284863715848 6.696452817416341 0.9881288940705117 0 0 0
775 1 4.269975248196492 4.107130734340215 2.858589649950406 0 0 -1
1937 1 4.447430095860477 8.646704978149138 2.292562985779828 0 0 1
497 1 19.74440223674864 2.9704792826533084 13.826336579751796 0 0 0
1248 1 5.155957970926049 6.739140300259609 3.2422540096480668 1 1 0
1859 1 7.256666408434256 2.3073783647918966 2.861463571213894 0 -1 1
1826 1 8.521270752102955 4.277175822689551 0.46397226819690074 0 0 0
462 1 10.322269950452162 9.93247693848779 0.6833930656979694 0 0 0
473 1 20.17024024419069 13.451189022022142 12.297872235232735 -1 0 0
1990 1 11.118711919172776 8.806227188852976 2.986831563972027 -1 1 0
672 1 10.163520992322066 5.648098804938997 1.3181527243798725 0 0 0
856 1 8.920629333943609 8.94532893434937 1.9132120763402356 1 0 1
836 1 13.548862697028298 5.999874762057951 -0.45383507893948566 0 0 1
1169 1 11.19161199899407 4.107264974814106 2.5655166212630465 -1 0 0
1625 1 8.836863242772358 -0.5595945480928459 11.217402220084967 0 1 0
1968 1 12.780801414905751 8.287045078012977 0.6097839716626807 1 1 1
2037 1 13.312883913982597 4.638546701007172 3.000225122799956 0 1 1
1051 1 13.792700950692598 2.6387229814322612 1.8380270486058081 1 0 -1
1140 1 14.673345689030146 6.282366093786601 2.0587868063698282 1 0 -1
1788 1 23.98537332351 1.1368301666480531 12.333081345587354 0 0 1
1891 1 15.890369590506666 3.2140928608026056 4.524177469412162 0 1 0
1623 1 13.91707986865985 8.520949254524496 2.5944801092120096 -1 0 0
1911 1 15.103250797852201 5.397348907378545 4.224642473545485 0 0 1
294 1 4.277219603593597 14.167034888062883 7.5697971616176964 0 0 0
1754 1 17.763283616507497 10.073312276432784 0.5299189407708707 0 1 0
1008 1 19.32727329027238 6.158575224573701 0.5536398404463816 1 0 0
171 1 15.814111207295092 3.049817098479764 2.3440718403388203 0 0 0
1011 1 17.269110515034104 8.038128089854553 1.7559402577227754 0 1 1
827 1 18.722169991513066 7.219114841706257 4.35152544838301 0 0 0
1590 1 20.211877307854568 4.2671278591248365 3.7936892597624343 0 -1 -1
571 1 19.863671945505473 8.645984873476744 0.9167494358823618 0 0 2
341 1 17.6451169328543 6.529746935469959 6.56560646654114 0 0 0
19 1 17.6180047946981 5.085431216217736 4.477798779502855 0 0 1
1672 1 17.55158163589021 5.9092088006219425 2.3811162043073346 -1 0 1
636 1 16.1078002435172 7.443403540252842 3.8288355391856603 0 0 0
1192 1 24.78104941010932 2.4528557274442155 1.8724145925654105 0 0 0
720 1 16.11263567382326 6.067702713279315 0.019183242025706204 0 1 0
521 1 20.112257276362875 6.844963981659274 2.638129084650128 -1 0 1
130 1 20.925836689338546 4.250135865700834 1.624929039442129 0 -1 -1
1411 1 22.183864417895535 8.684922938469773 0.8151758491964309 -1 1 0
1667 1 22.416588367109377 6.237464174361875 1.5576159814335524 -1 0 1
979 1 23.244128354688907 8.522866047712425 2.643620894863071 0 0 1
585 1 26.229914068474088 6.732678752071022 2.8337430669044283 -1 0 1
465 1 -0.5985590376795475 8.189544389111488 13.24015268568079 1 0 -1
1792 1 24.183259245017382 10.004370319072416 1.301812339752816 -1 1 0
391 1 27.553460697887235 8.624823778173562 4.00853506870156 0 -1 0
208 1 28.22143140129416 7.86294442086659 1.8818978293055006 -1 1 0
600 1 28.151189058732733 5.532669134108982 2.6507589513150305 -1 1 1
187 1 23.477465293147834 3.992581893521683 0.793622538573864 0 -1 0
30 1 12.365133737192354 6.60306253974622 2.6319892382614625 0 0 0
176 1 4.165049258106553 12.24234717360829 0.5176125521622881 1 1 0
71 1 15.021522095938147 14.162699060121643 1.1045363123609255 -1 -1 1
1034 1 5.2874835177524036 10.714377015312186 1.9865428299447143 0 1 -1
732 1 -0.06702555398257393 9.896264048277807 1.7363037590183024 1 0 1
1193 1 3.288235143106295 12.558218288423948 2.8030749833825683 2 0 -1
715 1 1.3405598790237043 12.103445853923148 1.6135919461448052 0 0 1
892 1 0.27948833802012873 11.95313043016096 3.794111601065085 0 0 2
1329 1 5.621792554042062 13.032321579667913 2.7771609283484384 1 0 0
738 1 17.05609001767632 3.031675501353713 13.956028407742146 -1 1 -1
1952 1 8.247816247022977 7.9870269410542996 -0.42434636642884166 0 0 1
1430 1 7.927049828054283 13.104717466425228 2.1353216830862483 0 0 0
876 1 6.909228985112381 9.606229045206403 3.1927194819164697 -1 0 0
851 1 26.852420105398377 13.508434644151416 13.812346533957383 0 -1 1
1524 1 6.648762463257959 12.953345932896422 -0.09862152004843383 1 1 1
417 1 9.529498862305585 11.110610120054512 2.822909682898206 0 0 0
717 1 9.34628039419017 12.089566844491197 0.23696642503476095 0 0 1
1113 1 7.328773413456579 11.617879135617212 3.8868776975174226 1 1 1
1816 1 11.21321293812055 12.39328638914425 2.148871070964252 0 0 1
1049 1 9.886193422874886 14.154771082756586 3.190795552478287 1 -1 -1
2035 1 10.6922191601623 11.753032509228 4.631604399101391 1 0 1
755 1 12.230544387907278 11.245290131611954 0.6545556608503251 2 -1 1
451 1 19.906778569689845 10.893149869914398 -0.11128569233472363 0 0 0
1434 1 12.710019031394314 10.974509040232341 3.2700430679212165 0 1 2
117 1 23.147882924595766 5.929626873643793 13.62156069919395 0 1 -1
1096 1 13.630476122800284 12.828280007760103 0.12212578074126634 -2 -1 1
1394 1 12.771065865820384 13.517693381019711 3.4621964881018643 0 1 0
1397 1 14.66774147399036 11.912231759696555 2.806984617437639 0 0 0
1630 1 28.41768588409731 9.784901009580675 -0.26835693581680475 1 0 0
986 1 3.482777920717484 0.253221365897484 4.013995632052965 1 1 0
913 1 18.817598177700685 9.351744293467265 3.018117747486842 0 1 2
1109 1 14.643766700163022 10.204396311263956 0.5561098750663402 -1 0 -1
155 1 20.285590331409388 11.29213737648834 3.6531369537754754 -1 0 0
1541 1 5.291972381986356 13.304802982712358 11.402618009070977 -1 0 0
90 1 16.321118949626342 10.192190561656755 2.22118281718784 1 0 0
428 1 16.265389103252122 11.972473743496517 0.5812023306318421 0 -2 1
1538 1 3.016250673939415 10.210320529392185 0.5893096747099653 -1 0 1
1787 1 24.699698914990677 0.22334303563020497 6.119274217311129 1 1 0
1065 1 21.293208726699515 10.981811692211634 1.895189805234459 0 1 -1
785 1 23.17077259035665 10.794543003763923 3.4403976027489938 -2 -1 0
265 1 23.69901637476685 12.910088105933523 5.089189370137877 -1 -2 0
902 1 21.08062798454738 8.958361877500826 3.1638563538898326 1 0 0
1643 1 24.393241970631095 12.662304408413151 2.1876353589199087 -1 0 1
1016 1 18.352566312131486 11.730183619757797 2.2602746800544637 1 0 0
283 1 24.92546236694494 7.639492144443183 1.1694023143122052 -1 -1 1
34 1 27.217190512960133 9.980786346302164 1.6367500896759157 -1 0 0
1199 1 26.582300018518286 12.663375142006576 1.0163986735765138 -1 0 0
1943 1 2.1777893518595786 12.753465969949948 -0.44337328610735177 1 -1 1
1770 1 26.837791074882258 11.816093803852809 3.378914356000716 -1 1 1
1196 1 28.88819880795572 10.404628552357702 3.893587042898967 -1 1 0
989 1 27.96033508346016 13.065662809929133 4.423505199631834 0 0 1
1480 1 28.728102378223117 11.729056200815478 1.4582242890538324 -1 0 1
1366 1 0.040796630138029144 8.345065348238247 -0.6270750689575862 1 1 2
639 1 11.214966318630108 -0.5861195906860941 10.977408782930963 2 1 0
578 1 0.9281436813830286 1.983469941796999 3.127902206641121 0 0 0
1352 1 28.69165882729186 2.7916917332242503 6.539356551657767 -1 0 0
1849 1 0.9258161988584837 3.8630306035417252 7.572066182294638 1 0 1
2046 1 1.0896055205036863 3.771911816998016 4.945849186478926 2 1 0
1687 1 -0.13366743915808865 1.3194448330144648 8.148878803220963 0 0 1
1459 1 14.768400571927144 -0.5253521613389652 11.11212206689343 1 0 0
173 1 27.56524406836737 0.7841764566915288 9.154370878809944 0 0 0
40 1 26.285986699317327 12.797266583586454 9.603671248120143 0 0 0
1848 1 8.025800005117532 2.257472554980124 5.354872821979965 1 2 1
576 1 26.730238289309714 10.405976172366234 9.509958326832741 -1 -1 1
1548 1 3.6820287818830932 2.7807882314540597 6.500153192224917 1 0 0
1373 1 1.3217782650334455 1.7150303701286962 5.785570437641955 0 1 -1
658 1 5.65006604920143 2.069046690375608 4.783135878282543 1 1 0
935 1 7.2846659375221705 2.5618095114887196 8.110838270600734 -1 0 1
1669 1 6.957861566994484 0.49312560296935315 6.908837969107844 0 1 0
780 1 3.628409013463272 3.62811567465741 8.920957189572713 0 -1 0
1119 1 9.964343160627813 0.28777422524493157 3.6851376316174234 1 1 0
1939 1 12.24187548537948 1.287363211625551 4.556037313177401 0 0 2
1740 1 9.21200937546184 1.915146552452884 7.428844332752812 -1 0 0
1417 1 9.097401774969812 3.9464079032309636 6.3896940735311825 -1 0 0
435 1 7.284971710216629 3.0074836589254033 11.14198003876919 0 0 0
1521 1 10.249101667333282 2.281539270237672 5.24848223983723 1 1 0
1863 1 9.648242236464299 3.663142782598853 8.757105598022513 0 0 0
1798 1 11.565468256216198 2.6435627508522774 7.451704522964086 -1 0 0
978 1 13.17107653712728 3.2796015487158776 5.064762635917646 -1 -1 0
1913 1 10.96433736082901 -0.14469956134583073 6.443464597063596 0 1 1
736 1 13.044031019104775 0.8598088341243988 6.760563763894196 1 0 1
330 1 2.9397589162237887 6.347625467110611 13.744806211505663 0 -1 0
1316 1 10.185126734642678 6.372463528515645 7.6355772484524245 -1 0 0
1854 1 13.30307702504294 2.7695630355007936 8.570103597353883 2 1 0
798 1 15.459236451653219 2.518340743016931 8.91615370005844 0 0 0
1066 1 4.194588786385457 0.40011591620468456 6.081279066991333 0 0 -1
592 1 18.09113410580263 0.1561861703478118 5.607756154417585 0 0 0
1812 1 16.733987071207377 1.7412814821203937 6.6568851635843265 0 1 -1
1879 1 15.622562191303267 -0.24000514708685594 7.50890089462783 0 1 1
137 1 18.788228852789217 1.368905435587013 8.197973853170154 0 1 -1
1719 1 23.544072909460176 1.881081793701091 4.126147496880475 1 1 2
1936 1 22.373763753189216 -0.35635042800584743 4.3324352902119685 -1 1 0
1739 1 20.222531874272903 2.6179432592917076 6.000349372489739 1 0 1
744 1 22.413972013310666 3.666940473837286 5.347374051873886 -1 -1 0
1465 1 23.18340667962254 3.8089276322657097 9.472524705693292 -1 -1 -2
1487 1 22.483081474960287 1.5922822234329082 6.884591188601614 -1 0 0
356 1 25.405130042516603 1.8980824986158122 8.601596626494885 0 0 1
2018 1 25.818448224842857 1.7301856056688205 10.817404688069443 -2 1 0
820 1 24.69379262758993 2.639401633984051 6.3886972811983105 0 0 0
1658 1 26.96037221366754 1.3051536966936972 6.654842673049357 0 1 1
643 1 28.93140080527317 -0.04079287661986297 6.367699473762994 -1 1 0
1389 1 26.767149481831478 3.756015227881326 6.18713534527062 0 1 0
1426 1 27.47782164260402 3.532210240317423 8.424060076106326 0 0 1
288 1 -0.3822370879875199 3.0825080476215514 9.674876968265675 1 0 0
1888 1 28.348345677880623 5.331337838430265 6.817093668080288 0 0 0
656 1 4.091843776029221 5.015039430310927 5.323475157448708 1 0 2
1363 1 28.75558692714061 6.6430423700454755 4.862228727994435 0 1 0
1378 1 2.0448582849976384 8.179824811839186 4.810949199456542 0 1 0
551 1 2.0615204744116324 5.900764864111958 6.1041676229461626 0 0 0
1007 1 3.9023624754371093 7.588118222648189 7.004395100720264 0 1 0
1420 1 1.7914454375022388 8.428973665446668 10.528756687291432 0 1 0
1035 1 0.5158920113851508 6.426595851781229 7.370182134034712 1 1 0
964 1 -0.44606054049086324 8.15431869353189 10.241430843099414 1 1 0
2047 1 -0.39808995841609635 8.908891772771078 5.840376591648575 1 1 0
1001 1 2.9302409161529765 5.747991691634733 8.575335270863564 1 -1 0
657 1 6.260133141471361 3.926727527143556 6.568532443664523 1 0 0
846 1 5.932808027478531 6.756440587940555 5.659231062465137 1 0 1
460 1 6.73420181486683 4.003672140927824 4.113078427206976 -1 0 0
234 1 6.451458308818844 8.132900130194193 8.398791861580344 0 0 0
257 1 4.531123922975844 9.573256713046215 4.595644435317974 -1 0 -1
1991 1 5.401424046223911 5.543779594438265 8.19964360248339 0 1 1
409 1 13.252114375425153 5.48867899182611 5.642492140494269 0 -1 0
1603 1 8.515318987961054 5.77896889224917 5.278440456822927 0 0 1
1799 1 9.866349588780064 6.75216319952318 3.4017838606063258 0 0 0
126 1 11.20145677113428 5.178378228355443 9.559143068036024 0 0 0
1179 1 7.729522886628594 5.249080791560088 7.7295448101120385 1 0 0
1245 1 9.414908189621846 8.977522499395969 4.395872604123889 0 0 0
1572 1 9.781565178795207 9.417663490770353 9.333707565900557 0 0 0
1997 1 11.84098171914809 9.883521049155467 5.345106626132006 0 1 -1
1868 1 8.663178637181074 7.55380564711435 9.00318476532451 0 0 0
280 1 10.721435086344677 7.530274712951464 5.6323073052402 -1 0 0
1591 1 11.1231532856945 4.84999110528757 4.776024449448894 -1 0 0
1188 1 12.658740930949433 4.874773394573099 7.920267313936689 0 1 1
129 1 11.317984115877202 7.522165510153162 9.165286433462523 -1 0 0
9 1 15.8418695693368 4.5392017648961795 6.331720154319475 0 0 -1
1994 1 14.905997934320778 4.497687194863761 8.973108021098309 -1 0 1
1646 1 14.563302891489043 6.5807394509032875 7.328728900063274 1 0 1
1191 1 14.727566869537602 2.9794293106682153 6.73379490751268 0 0 0
793 1 13.88154290754766 8.38548991174933 5.1421217038790905 0 -1 0
1222 1 14.597435462518028 1.3979860589977773 5.110687810461133 -1 1 -1
455 1 19.299762364143774 3.710273821985819 9.361725528239626 -1 0 1
1091 1 18.890767485509922 8.787558215604209 10.0702648420289 0 1 0
1917 1 18.298379307704906 3.6043426391979523 6.151110472648657 0 1 1
491 1 19.53574452364507 6.31952289473772 8.194056037923147 -1 0 -1
113 1 18.789366073309296 8.462576133269623 6.550776378985003 1 0 -2
907 1 19.682929870618732 5.746092299535453 5.746546589212501 0 -1 0
1163 1 17.64268970082831 5.109393645573422 8.515845010895523 0 0 -1
1244 1 16.16580491589636 8.615215255252794 8.375243328467512 0 0 -1
626 1 21.248459352169462 4.708608809908857 7.364211192827016 0 -1 1
2034 1 22.353339105378762 5.810108185041179 3.8994358297383442 -2 1 1
1252 1 20.689301066252415 7.862440521296813 4.966873376999869 -2 1 1
2016 1 22.448278112895025 6.390523552908747 5.894106513853608 0 1 0
1308 1 24.965806178460742 4.453819804178297 8.049400475467436 0 1 1
243 1 24.17051004024255 5.016804931382037 5.991458222887897 0 0 0
1166 1 21.141427844065372 8.326095820803518 7.072393086401684 0 1 0
1264 1 23.00899739996822 8.677673935972514 5.173428452023328 -1 1 0
877 1 24.39621182419653 8.972552853734083 9.646615526443352 0 0 0
1713 1 21.097467536136108 8.148490856874792 9.529163159098749 -1 0 0
1869 1 26.53608765246863 6.32718810222859 7.759490700646767 0 0 2
2003 1 24.598182653931456 7.163951777355162 4.545047845843203 0 2 0
796 1 26.79440031765411 8.054871940904343 6.056972715617164 0 -1 1
692 1 24.303296914416894 5.190294172107768 2.26981022840362 -1 0 0
1830 1 28.689447044951702 10.504122020926374 7.651512529766682 -1 1 0
513 1 24.23971264475005 7.3846481191056785 7.06121644291879 -1 0 1
325 1 28.35963119394058 8.301084763822645 7.932105711852431 -1 0 0
1755 1 25.303215473797238 9.529019757317057 3.3439381350056063 0 0 0
1333 1 28.599111775160686 6.1688943499841375 8.962734235982307 0 1 0
763 1 24.859013485926084 6.4675070004675 9.333328939808442 -1 0 2
35 1 28.644987403877973 12.568387452476653 6.473920609694506 0 -1 0
1242 1 28.54473421586838 -0.5910692446875601 3.0316494577747664 0 1 0
1444 1 1.937563887391689 12.005935094958883 9.18713175300779 0 0 0
1340 1 1.8024613410132333 10.037217960196372 3.0628261608343714 0 0 0
866 1 2.6242607241216107 9.64371322256705 6.651303064186826 0 1 1
721 1 2.6953381580627407 11.495585490095303 4.8079266747146585 -2 -1 0
524 1 1.1140089244203761 11.236823884892168 6.763570820532424 0 -1 1
874 1 0.2048986845290346 12.903659885975486 8.427421000192913 0 0 1
823 1 3.4365191475585704 12.157777289975337 7.152983286523225 0 0 0
78 1 10.351817329323831 7.541960387270109 -0.4987289651925783 0 0 1
1020 1 5.012090523904353 11.49765529165907 4.667258955026777 1 0 1
2014 1 5.160731174351479 9.706281806231393 7.166882998124753 0 0 0
1181 1 7.168748329931024 9.753472770054024 5.78407924576056 0 0 1
601 1 6.180601504889551 13.508923602093436 8.830498777740681 0 -1 0
384 1 6.035490160007447 11.733649102237933 7.00313417430162 0 0 1
661 1 7.679890993147708 10.047520229342936 8.021107123064388 0 0 0
190 1 25.175913142036176 13.984788437372464 12.176282174417992 -1 -1 0
1003 1 27.83896551400211 -0.27329420246504443 0.8419212181577467 0 0 1
2028 1 9.595020026650763 10.394728870881634 6.241508784373027 0 0 1
86 1 8.450686227627425 8.159677098604615 6.595759023809964 0 0 0
153 1 8.183194278086376 12.6418796146788 6.526507005370478 0 0 0
770 1 10.791778032200071 12.831498375413673 6.71112219431353 0 1 1
1663 1 11.224277096902995 10.866331913750775 10.895627224825304 2 0 1
1955 1 11.214570590430643 9.620297673058644 7.548802776355741 0 1 1
1501 1 0.8991473287125153 -0.6127337551598424 1.8893024641170455 1 1 -1
1737 1 15.617576746817036 13.529711256184282 3.8448690254718265 1 1 1
934 1 12.96749805908941 11.954561930871852 5.813774843218462 0 1 1
1304 1 28.555960990827714 13.952686980607611 1.7894980986124693 -1 0 1
965 1 17.052067406607186 13.24346446970265 6.9909839350279315 0 0 1
1534 1 15.059566100699863 10.622715748604994 4.909474673685782 0 0 0
1622 1 12.784660454171291 11.691796705673095 8.277554379739204 0 0 1
1573 1 14.5921546106691 13.233280243507147 7.236226467942121 -1 0 0
1717 1 12.385569215351275 7.711580513192992 7.025972482175656 -1 0 -1
834 1 19.243761605392738 13.155171317117626 7.732748515648495 -1 0 1
1847 1 20.795834464958087 12.657779643818893 5.637438100011019 0 0 0
1673 1 19.185519637107102 13.469517022520241 3.924037125914672 -1 0 0
858 1 17.17719015679163 9.359464433672025 5.011551212528701 0 0 2
1284 1 17.05950179524338 11.811225238448937 4.406173760433818 -1 0 0
855 1 19.02406850275786 11.151856220432995 5.920535614617907 0 1 0
1103 1 13.927739584771507 9.376263891344493 7.2431097527837185 0 0 -1
1180 1 22.834918236650957 12.427916990835767 7.21604772434867 0 0 0
1617 1 21.584047701217216 10.407275234025743 5.231039612251452 0 0 0
347 1 22.19254244282847 10.171873609294439 7.485485129676954 -1 0 0
32 1 22.18427970813561 13.30030871428019 3.638037411780779 0 -2 -1
1130 1 19.934138549983942 10.101821825177332 7.903708119649913 -1 0 1
84 1 23.771626443784427 13.152093757754107 9.596752101562252 -1 0 1
461 1 25.248785318322255 11.682258291442547 4.3954767495689495 0 0 -1
1235 1 24.36982111772566 11.221330416145413 8.613540624163882 1 1 0
49 1 24.632535033498453 0.09083367061753478 9.527841321409369 0 -1 1
1246 1 21.575691129934363 -0.7517710709614569 10.897001939847737 1 0 0
772 1 25.996250155966013 12.944026557291025 6.850190992823371 -1 0 0
487 1 23.97364405192351 10.592015485864875 6.0946590896401265 -1 0 0
1494 1 25.52073493926919 9.292250176791853 7.436420417307382 0 0 0
319 1 26.939361009504143 10.700731630807127 5.661341438114859 0 -1 0
839 1 21.79170469563294 7.990799069648617 13.485354507637506 -2 0 0
1815 1 26.545383235996812 1.8972139056697261 0.73444138143685 0 0 0
835 1 13.420297724590613 13.327237115776512 10.271929488438964 -1 -1 1
1688 1 22.071338013591376 13.096899832630976 1.3376735777980229 -1 0 1
1724 1 1.9183099690268328 2.8646743987308554 12.85048102945668 1 0 0
1098 1 0.6670067812217826 0.7776414773603548 10.331987832638811 -1 1 0
1054 1 2.0391697203195904 2.851241487327365 10.28994878406238 2 1 0
1605 1 -0.735639332290323 4.973500996551061 11.783445214596165 0 1 1
958 1 1.4836977992761633 -0.2366329623688781 6.7727851392843315 1 1 1
1405 1 4.536388137859904 -0.0811177747515538 -0.4421601889752861 0 2 0
1637 1 24.93370155908286 10.170780884453139 13.985338346142555 -1 1 0
777 1 0.8615468135653026 2.5562865767791174 -0.2853308699840994 1 0 2
1190 1 4.996051091237475 0.8202998429152901 8.365095906342965 0 0 0
992 1 10.514025991888838 3.240485677571151 -0.02642884354340913 1 -1 1
1932 1 2.780259147905344 1.1425853662091876 8.436146744504065 1 1 0
1616 1 6.434878033790749 0.8978382317811424 12.003210488248627 0 0 0
1677 1 2.4412390688496792 0.8948413867869218 11.609574681981789 -1 1 -1
1116 1 4.215596680311542 2.0966839399500765 10.916239666600658 1 -1 -1
1278 1 6.077972427007786 3.5852804403741176 9.688481346435868 1 0 0
406 1 9.273320074753885 1.4534689574189268 10.594080607915311 0 0 0
1022 1 7.60688929769649 -0.6399072260040841 13.529498665371047 2 0 0
1860 1 8.91413214203346 1.3684412870078302 12.888795732657867 0 1 0
1536 1 11.111363473153748 3.069059797987284 10.752462416162512 0 1 0
1599 1 9.43607288005518 4.106899288216134 12.167648309694965 0 1 1
1081 1 12.0228002672284 3.7259342253249192 12.867306839010354 0 1 -1
871 1 26.310705547748675 14.15049899897181 2.8915433855106905 -1 0 1
1029 1 11.30303854012264 1.0079536705244119 8.957190274488537 0 0 0
1413 1 15.443702164585666 2.4315471490471787 11.25087426550534 -1 1 0
469 1 11.141995250424998 14.014536879015118 11.709763582113926 0 0 0
1292 1 11.21912114750764 0.9263630993113052 12.85151417222848 -1 0 0
760 1 14.471546332701323 3.1281219664251134 13.176262635948659 0 0 1
776 1 13.161388223890285 1.2141683579345908 11.080065753315289 1 -1 1
568 1 5.23957525746467 13.649481847063482 5.2981686240365855 1 0 1
1608 1 22.419714063612865 10.805931147326968 -0.3568790165070926 -1 0 1
501 1 21.259307472942112 2.5778035323085566 8.484131217921027 1 0 -1
821 1 21.67844905642133 0.6472575852793099 12.51990412322795 0 0 0
1260 1 19.63281459212147 0.5181644076175849 10.425018686881295 -1 1 -1
373 1 18.017087915134837 2.101878066381904 11.901107454141327 0 1 0
1117 1 20.881452387694626 -0.24014649799681054 8.257974125630254 0 1 -1
559 1 16.8235453395546 0.2904711523017871 9.782333087879572 0 0 0
933 1 20.567273693807838 2.75745225063074 11.07340167930564 0 1 1
1043 1 22.67591890090219 1.211793768447451 9.664712716502272 0 0 1
1276 1 25.12025933429349 3.745750163509534 10.864631116787946 0 1 0
336 1 19.857707197680753 13.62921322869165 9.979807829975867 0 -1 0
1976 1 22.772307650058245 2.7782638920789307 11.654245691489242 0 1 1
792 1 26.623173018669082 5.575233290652938 10.473741457541244 -1 0 1
1856 1 6.699037040545846 5.97246593420959 -0.1825083321469646 0 0 1
1873 1 28.2189605531625 10.035904682542347 11.683309744139809 -1 0 0
1165 1 14.917458621041995 4.360361096266426 0.4814745624488612 0 1 0
1611 1 -0.7207650479170222 2.6564997891794513 12.342703389995235 0 0 0
1431 1 28.027429435228502 0.5681338273708505 11.662361699625233 -1 0 1
631 1 26.991228582710036 12.180520751953706 11.867650549978439 0 0 1
291 1 26.193838257208654 1.673391571003481 13.196129094531859 -1 0 1
238 1 27.4888102245585 3.1994456177888724 10.944661927764397 -1 0 0
390 1 24.090342116111188 4.212121955498977 13.33015680894466 -2 0 0
1642 1 25.426681281310284 -0.5495162973891738 13.501764436854147 0 1 0
1086 1 19.974134720318638 0.040153814985043224 3.197795370965487 1 0 -1
104 1 5.5047375292181036 2.854167466918463 13.892020780904938 1 0 0
287 1 3.3986091131487157 8.69274162908725 12.138110704040928 1 -2 -1
1828 1 2.9040656027906833 6.361536644997597 11.300612900914972 -1 1 0
296 1 1.0320724624390982 5.347268683477291 10.297383799861656 1 1 0
63 1 0.9303892763615493 6.755916003097259 12.348899347197047 1 0 0
1032 1 1.137700950379585 4.826305349665161 13.460592675190785 0 1 0
1941 1 28.324589756202858 12.993287814417927 10.053458761488027 -1 -1 1
1314 1 4.865634905601094 5.274828819941998 10.227111149613913 -1 0 0
707 1 13.953837878605876 13.598675067374852 12.97373680062381 -1 0 0
878 1 24.0243848143871 8.132031448909531 13.37873386812708 0 -1 0
1527 1 4.941130905711347 6.963050411281062 12.269883937427444 1 1 0
1632 1 6.186793736008022 4.4561247695338215 12.333651576551205 1 0 1
28 1 4.384340228588341 7.497991962722905 9.37148257330229 0 -1 -1
490 1 7.626660170289343 8.3726243204451 12.784660424095588 0 0 0
535 1 7.85978563154384 9.248711521423216 10.808220082237527 0 0 -1
1368 1 6.629568673263075 7.181042669609835 10.840015713519062 0 1 1
703 1 8.158708970528464 4.9373466626333276 10.22279575256032 1 -1 0
1299 1 7.756442399006245 5.939511793392913 13.059981834084075 0 1 -1
421 1 9.353021226472773 7.182587388377086 11.098470380465935 0 0 0
1318 1 11.287817410062969 5.943409089800757 11.874740176504826 0 -1 0
767 1 12.12531987181593 8.073765336001058 11.930371823912026 1 1 0
1184 1 22.813381075642244 9.85787935059854 12.608833878506612 0 0 0
76 1 13.4093445739836 5.43538348782224 13.301365054258126 -2 0 -1
197 1 14.502387396468466 8.138479160487092 10.354669876798617 0 0 0
1561 1 13.112287656679051 6.2703341385799085 10.116677654930266 0 1 -1
1198 1 13.474766862931592 3.935496105037023 10.903242812289845 0 1 -1
322 1 18.61032539144034 4.549795683908633 12.401061897811653 0 0 0
1905 1 15.434387109776598 7.481488766021576 13.646444876066465 0 1 1
1508 1 14.955305660059372 5.678228601713215 11.69877701198577 -1 1 0
369 1 -0.5132504096248922 1.539377015688073 1.5866741240815037 1 0 0
1734 1 19.365188310320853 7.567756301901412 12.879670911862846 -1 0 0
1460 1 21.69901682779096 3.9891862639274187 12.89959179483504 1 2 0
1980 1 18.97589493736895 6.035237337198078 10.796068006166328 1 1 0
1226 1 16.89740665801426 4.514300508415868 10.899870641778639 -1 0 0
1791 1 16.18923974772594 6.447132799581741 9.5850927705529 0 1 0
185 1 19.715352679063862 10.997070954773909 10.063056857999928 0 -1 -1