LAMMPS data file via write_data, version 29 Oct 2020, timestep = 300000

2048 atoms
1 atom types

-0.48107431485202135 28.83307431485575 xlo xhi
-0.48107431485202135 28.83307431485575 ylo yhi
-0.48107431485202135 28.83307431485575 zlo zhi

Masses

1 58.933

Atoms # atomic

136 1 1.6033586730325382 0.839522156863622 3.3537261373316993 0 0 0
3 1 1.6290105221362898 2.5839593599542816 1.7343914649707597 0 0 0
161 1 3.1011384246369618 3.0975980605767175 3.357302001825957 0 0 0
158 1 -0.3185947497982036 2.725251842769281 3.2467952502676267 1 0 0
940 1 3.260230360263046 0.8188573988971306 1.0019204288780503 0 0 1
226 1 3.6836673632247887 13.681311605320307 2.895667451988499 0 0 0
15 1 12.347020819541727 -0.2902891832114194 1.5811707337024212 0 0 0
593 1 10.46365205242202 6.977708968688282 14.175933555344006 0 0 0
1536 1 -0.13587218544261698 -0.41206673489341483 10.624161874420555 1 1 0
12 1 6.857750545217009 1.004489840660806 1.8304446841432123 0 0 0
134 1 6.863904524483971 3.1097571909342365 3.3489658114733634 0 0 0
135 1 4.73930589753183 0.8896671644458967 2.950684240296296 0 0 0
935 1 5.053652439593835 2.6610383104753486 1.2601867986219741 0 0 1
1175 1 19.43383770268799 13.85365709682113 4.73716259931287 0 0 0
521 1 6.449545798419306 -0.4669636706717325 14.078783206313737 0 0 0
11 1 8.836526411124227 1.1464630527900401 2.9667700998471327 0 0 0
939 1 8.328494422132906 3.1774245362358053 1.6105830388068854 0 0 1
173 1 10.572471138487444 2.937409543980384 3.044950564774094 0 0 0
47 1 10.540265768704439 1.4971347666839456 1.2410075280762145 0 0 0
1027 1 1.82416201209996 13.788804566810006 1.2979061675786707 0 0 0
259 1 1.3635469441823023 -0.27004873823989617 8.447909083895565 0 0 0
518 1 5.027477597057065 1.6024566910863745 13.602763988850208 0 0 0
142 1 12.466128943641737 2.7305122964229627 1.3890907963510262 0 0 0
144 1 12.6936089000424 1.0251637388306134 3.582210735057714 0 0 0
20 1 14.205487407098316 1.546393524201667 1.6136863681384348 0 0 0
148 1 14.235898592611536 3.519212435990429 3.3435286272490536 0 0 0
19 1 15.975850663637564 1.3034430192063042 3.0265714671688415 0 0 0
51 1 15.974130625054231 3.3903385281345155 1.3573827759936918 0 0 0
564 1 13.983491548585823 6.769994924531361 14.124171020878382 0 0 0
126 1 26.999437031914383 12.704634860849291 -0.22384714400907652 0 0 0
24 1 17.403722273845098 1.5279204434329454 1.2547836845389564 0 0 0
55 1 19.666406760548682 3.2908229131704116 1.346195451595608 0 0 0
181 1 18.19236350808516 3.2610008770206176 3.151198962585087 0 0 0
150 1 19.37226339591252 1.4131735128912215 3.546487808672568 0 0 0
185 1 21.273642221011706 3.2226420659735924 3.5961329298284825 0 0 0
28 1 21.414072713182563 1.5683058515189017 1.4750042468821547 0 0 0
154 1 23.33144122163298 1.4419555929970789 3.3792759511878487 0 0 0
32 1 23.511070512351395 3.137637840480471 1.6859810946719591 0 0 0
41 1 8.640439804836863 4.74638351907129 -0.3411767733821248 0 0 0
123 1 23.41540940798705 13.853389580422961 1.7368934930006503 0 0 0
263 1 5.4005034233699725 -0.21436308834044177 8.543362510801861 0 0 0
4 1 28.5163901383511 1.2055308115430228 1.2956553510363396 -1 0 0
1256 1 5.02408776818251 -0.14904290228551742 5.005220725798898 0 1 0
590 1 8.767819962734903 8.60180995328652 13.844280046905457 0 0 0
187 1 25.36876724076999 3.094537418194672 3.535037479462379 0 0 0
27 1 25.466483831362652 1.716190592256071 1.6617520706017603 0 0 0
64 1 27.178467496326327 3.6316509521053657 1.6820709443192152 0 0 0
160 1 27.118705392668858 1.1226667728582174 3.3966801950924173 0 0 0
1184 1 25.06729729697293 13.867341483841749 3.527263764336986 0 0 0
277 1 18.034195897232635 -0.38350116952327995 6.831910045337525 0 0 0
1433 1 21.670591135645076 13.894222975758982 10.748398915053055 0 0 0
411 1 23.359264071938163 -0.4112066067312997 12.038889448572638 0 0 0
162 1 1.576106459485934 4.721719752518707 3.312242909404439 0 0 0
197 1 1.277716446403536 6.670060684184475 1.4572963682071243 0 0 0
103 1 3.373103989405553 6.320226634314331 3.3616577270130943 0 0 0
194 1 1.6482330559068528 8.165724021748586 3.026423029015532 0 0 0
40 1 3.2026743085339153 4.8681670995482635 1.1520240498418883 0 0 0
72 1 3.553420669647908 8.507253925367447 1.4150070271096462 0 0 0
67 1 28.63945165615703 5.129056313064422 1.449731336391276 -1 0 0
193 1 28.739529082604214 6.853068719199952 3.378895868390015 -1 0 0
1285 1 1.6430990676888078 14.011929693529924 4.783869094542064 0 0 0
1166 1 12.251214386000555 13.874611570604312 1.6358989353284237 0 0 0
1425 1 14.50226861937538 14.012489774072032 10.453422735013074 0 0 0
169 1 6.59715675366137 4.97395776785652 1.0155196508944553 0 0 0
166 1 5.294713661319392 4.735247029459902 3.089071428685814 0 0 0
201 1 6.875683036372959 6.732393115008215 2.963985190715213 0 0 0
198 1 5.08826484668281 6.668125935462892 1.5423663094463937 0 0 0
75 1 6.830785634527283 8.3476822417738 1.4226074943740217 0 0 0
70 1 5.042280331673458 8.531064262883078 3.3273297851506625 0 0 0
395 1 8.39422631412781 -0.3896187553808309 12.32145129200486 0 0 0
143 1 12.610416933216687 -0.1941137580802717 5.59701378075392 0 0 0
209 1 10.090109576548011 5.01550562665717 1.4176636311692803 0 0 0
206 1 8.610641494205108 6.610440146431628 1.4775493332527363 0 0 0
205 1 8.73761812450111 4.697877880291272 3.6009652536318804 0 0 0
212 1 10.501433756246362 6.696040065638388 3.129411948060806 0 0 0
80 1 10.300159667229881 8.579961151397294 1.280809252652337 0 0 0
202 1 8.520721126993534 8.582084037853749 3.171112989728421 0 0 0
467 1 18.005669019005644 10.508957955272667 13.76615196982802 0 0 0
522 1 8.981860938567774 1.625691528716402 14.088445676183918 0 0 0
1153 1 -0.2206490246018728 13.832112187061988 3.1182190028014256 0 0 0
1055 1 27.611936648265043 14.164795021716627 1.3476260453418285 0 0 0
52 1 11.967013821103183 6.586225592184781 1.3722668803478961 0 0 0
177 1 12.443982583545447 5.164622714551737 3.1582742119239127 0 0 0
81 1 12.374577953593136 8.4304325005196 2.934420924440125 0 0 0
146 1 14.015282306615783 5.0023411358691945 1.5303829108948395 0 0 0
241 1 14.145755459687113 6.944193296621685 3.241012024319558 0 0 0
84 1 14.056978549476591 8.601098772212477 1.3629385206033564 0 0 0
178 1 16.030605646895232 5.026434734205021 3.1910866132721485 0 0 0
79 1 15.926317559699415 9.009316033880918 3.037976781255501 0 0 0
21 1 17.736836681674582 -0.38156762825649226 -0.22682578835087258 0 0 0
83 1 15.935969230578943 6.247128269952035 1.0188902789763084 0 0 0
182 1 19.608211386839002 5.157311386166531 3.199585944130738 0 0 0
56 1 18.029095269483946 5.1190479772176545 0.9588240374281278 0 0 0
213 1 17.83033332192383 6.843942700098412 2.819954211109125 0 0 0
87 1 19.959664484214464 7.035584329445159 1.1215334072991259 0 0 0
88 1 18.17537409386489 8.578536187401175 0.9344378531379729 0 0 0
90 1 19.87177509127939 9.009268182214033 3.0562453252897606 0 0 0
60 1 21.82822564674342 4.91903893436896 1.1956314325581447 0 0 0
58 1 23.63377580655809 6.770737479834918 1.6000186033802177 0 0 0
186 1 23.634919061646173 5.045204522431012 3.3102028751449604 0 0 0
217 1 21.48999289213289 6.972435346790013 3.0486830435186496 0 0 0
221 1 23.591339470048034 8.710335572893127 3.4299544001906135 0 0 0
124 1 22.032351829861227 8.383576792746549 1.1081598680359195 0 0 0
91 1 -0.3462031595990398 8.543875635866472 1.4884765723390023 1 0 0
164 1 26.804348294708603 5.02635081704129 3.3872680161304287 -1 0 0
65 1 25.095103451386535 5.27536524307063 1.4278328581553728 -1 0 0
95 1 25.367906175609882 6.751612882854958 3.5103814908461213 0 0 0
190 1 26.905635042109154 6.8121675599175155 1.0123748534874435 0 0 0
222 1 27.077171682558664 8.678403542004371 2.849016744135336 0 0 0
218 1 25.219016569893313 8.695738132083743 1.3957759136214396 0 0 0
393 1 6.920498372794515 -0.2445642073451718 10.369774106663797 0 0 0
1413 1 3.266697862457308 13.806790916855453 6.931010638786337 0 0 0
374 1 18.066085682158857 13.948717191415176 6.599781712381321 0 0 0
389 1 3.1549242800471746 -0.43459144692607654 10.349345476312285 0 0 0
387 1 1.539893578194183 -0.4525783428031289 12.754949276520161 0 0 0
68 1 1.5291939234834255 10.701987199056848 1.211811267344418 0 0 0
104 1 1.4430621433971043 12.105763970357966 3.15983894250422 0 0 0
99 1 3.342248409825783 12.034818681785092 1.2620488892163646 0 0 0
229 1 3.056372336813691 10.287268478496982 3.369484775070411 0 0 0
225 1 -0.28748410233203237 10.17615448929047 3.4076755058077906 0 0 0
100 1 -0.056982088319977975 12.207087062843511 1.1993114640762117 0 0 0
1392 1 12.217715709027038 -0.4197427619447608 8.10839040860019 0 1 0
622 1 12.497515122296438 12.28283655258506 13.791983478460969 0 0 0
1281 1 -0.29998563387953064 14.167274854359935 7.093247550626688 0 0 0
76 1 5.598896382081868 10.628163802662764 1.493609417918126 0 0 0
108 1 7.297587941709203 10.611103664273372 3.2156542972229216 0 0 0
230 1 5.694691504006927 12.488412069056437 3.1173203444194972 0 0 0
1161 1 7.028067105767546 12.502782270219276 1.0047521895092644 0 0 0
130 1 1.221031771507016 -0.2734866707206862 1.3536089304386882 0 0 0
629 1 16.02357485338426 12.118727207051075 13.752427635049393 0 0 0
106 1 8.786800703115334 10.488799410510959 1.2667584800508893 0 0 0
112 1 8.848219564136798 12.454986490084531 3.1302560643512223 0 0 0
237 1 10.61989449828574 10.446196034431896 3.080061701857916 0 0 0
1041 1 10.41385225306228 11.976542975794558 1.2109960907664408 0 0 0
10 1 9.89405599828028 -0.4755958943578237 -0.3765467170053556 0 0 0
468 1 12.592666571503141 8.687790024214673 13.593978951221096 0 0 0
1537 1 1.8283063224612404 13.946742772285546 8.571191698242846 0 0 0
33 1 28.776981295746978 3.1012380430390665 -0.21199962974840408 -1 0 0
111 1 12.491570399285921 10.616512907934359 0.916069851969145 0 0 0
23 1 19.585949487421814 0.17001032424378337 1.168840245449519 0 0 0
238 1 12.211011210425692 12.334346038493699 3.317090496797357 0 0 0
113 1 14.20950448906216 12.30816574587357 1.337364898099727 0 0 0
116 1 13.985480693493678 10.354744037378852 3.2017264864018387 0 0 0
210 1 16.135078595728018 10.44015361973866 1.1285122212638183 0 0 0
242 1 16.301386370764945 12.104291716518764 2.9467179374411683 0 0 0
1037 1 10.371759489517878 14.140326044776808 -0.10099394898536884 0 0 0
153 1 21.675625350950625 -0.2271511350934503 3.150193918956365 0 0 0
119 1 20.027563330105643 10.823350695286118 0.9259393536460812 0 0 0
120 1 17.78243816175835 12.151169146783161 1.0516012118204732 0 0 0
245 1 17.930265097241985 9.9903927705959 2.7812025863479457 0 0 0
246 1 19.794934959932277 12.361100242647042 3.1117569573703046 0 0 0
1169 1 14.425513105946777 13.841132049678661 3.2001336781679455 0 0 0
484 1 -0.046976264570367965 12.55924179730981 12.804779286231195 0 0 0
594 1 16.171360883428882 8.628427050291997 14.124933440472685 0 0 0
1047 1 21.947748540435214 12.114109655524377 1.0765696385248904 0 0 0
121 1 23.611957911036818 10.446915443185071 0.6782268837691483 0 0 0
249 1 21.792567711560082 10.356780923772146 2.1869996643667258 0 0 0
1181 1 22.895552838412485 12.007799189504318 3.6012694108788974 0 0 0
415 1 26.801967236554056 -0.38189417766198375 12.453811090319217 0 0 0
507 1 25.379828399538987 10.491656257174254 10.677103381284589 0 0 0
128 1 24.993356360522753 12.348802382986218 1.3400380460432735 0 0 0
253 1 24.968746882890123 10.54845808642665 2.654036978062718 0 0 0
127 1 27.2942237513843 10.826403938006443 1.2737948137982789 0 0 0
254 1 26.95004474504021 12.456284617170226 2.8276142807090903 0 0 0
61 1 25.40604487384244 2.930387923384673 -0.28400598123483656 0 0 0
1157 1 5.182343093083619 13.928117052672327 0.9656466006551832 0 0 0
256 1 23.243743612129066 13.536856551309937 5.3258400017301275 0 0 0
1291 1 8.395438401155689 14.099393163053067 8.72345140931164 0 0 0
77 1 10.34527507914163 6.660034248333444 -0.42849556215439677 0 0 0
163 1 1.4225873024886957 2.941639597922296 5.330597108413888 0 0 0
258 1 1.7513495268083035 1.4484221908037023 7.0590971457194955 0 0 0
291 1 1.4772648801729407 3.067432490717496 8.526473961256142 0 0 0
264 1 3.4529782218167253 1.332503396569277 8.631055024605265 0 0 0
39 1 3.467114548888672 2.860289857287223 6.5513556015666765 0 0 0
260 1 -0.4577431850997096 1.0962098091197117 8.951474162588095 0 0 0
289 1 28.755480137970594 3.2492133406434243 6.583498154520862 -1 0 0
165 1 3.1502484680242153 1.4383255997720792 5.044481573687134 0 0 0
601 1 19.8606254449492 5.059904972388234 14.007983419185416 0 0 0
1429 1 17.94579101616644 14.078388583519 10.406268330390317 0 0 0
167 1 5.014965670856517 3.1899093955560165 4.7450231220020065 0 0 0
262 1 7.049109919871515 1.0984211066920764 4.740821033923347 0 0 0
138 1 5.070115339695921 1.3158241118146707 6.800978797353761 0 0 0
297 1 7.03093429493628 3.0316454345439703 6.84832259866655 0 0 0
295 1 5.1129754645726475 3.3751516266025674 8.407909863809422 0 0 0
268 1 7.249327488798717 1.235780351639589 8.51673391049305 0 0 0
171 1 9.135982233871283 2.7289397210775217 5.026568731753427 0 0 0
257 1 -0.4011789972575278 -0.44759660056362804 6.752912030357957 0 0 0
140 1 10.45080491239028 1.1935106823635975 5.1043830854437875 0 0 0
266 1 8.903191096765179 1.3452569887941663 6.932111417900159 0 0 0
301 1 10.885993925220303 3.1841374334897345 6.7222369200159 0 0 0
298 1 8.870442580133272 3.695998323518861 8.59695391524018 0 0 0
425 1 10.830976551322589 1.3995899228981095 8.610393117902056 0 0 0
276 1 12.985897721833574 2.139792797963169 6.774738815175498 0 0 0
175 1 12.166894956545649 3.5028847991456975 4.605858889766252 0 0 0
401 1 12.344144345844237 3.252189014629066 8.751428323357601 0 0 0
180 1 14.670405469560873 3.61103553819662 6.950657652016456 0 0 0
404 1 14.008481276061133 0.991908389793182 8.606598529718433 0 0 0
273 1 14.69458546501508 1.4211226954597356 4.906866107322918 0 0 0
179 1 16.084244922936534 3.2939453426268557 5.236505611462389 0 0 0
542 1 27.172298326851433 1.2478198121036077 14.117468158377996 0 0 0
1309 1 25.337041358973856 13.544461410523809 7.662708584693153 0 0 0
274 1 16.007332725657875 1.242446706933551 7.31104096285229 0 0 0
307 1 16.003615098732176 3.252172916480449 8.949757195282224 0 0 0
147 1 17.45873673249963 1.334817125266919 4.994856052157798 0 0 0
152 1 17.65959827548827 3.259394150239717 7.1931053219617835 0 0 0
280 1 17.78968512543016 1.48379086133539 8.818435884738298 0 0 0
311 1 19.80148662948202 3.6205398877571398 8.75823525281136 0 0 0
183 1 19.31175711698529 3.067330388971858 5.11015174300694 0 0 0
278 1 19.765098671032497 1.2929634304131057 7.2313387748020395 0 0 0
184 1 17.806453767947396 5.110872875458302 5.048255835812775 0 0 0
1156 1 27.368356485645855 13.993261475765456 5.068439773990385 -1 0 0
156 1 21.378259346278334 1.5123703294000868 5.532988689236065 0 0 0
317 1 23.429400636760356 3.349918183142677 5.1901218314861834 0 0 0
282 1 23.54369647586431 1.4201522133793374 6.731246019349324 0 0 0
313 1 21.63759482760016 3.3522456679099935 6.889773683382549 0 0 0
315 1 23.604865630016512 3.0468769784317713 8.79963109970317 0 0 0
284 1 21.8610785599125 1.5239891775054168 8.686613083282502 0 0 0
1289 1 8.521643770895349 14.115898297058685 5.318161986504129 0 0 0
66 1 1.1749643497405178 8.46134447377327 -0.479783732282808 0 0 0
132 1 -0.10266032658146934 1.0532670967640083 4.914945218801294 0 0 0
191 1 25.304322271898968 2.965555749939908 6.944846085356291 0 0 0
285 1 25.054822227435928 1.14881808016318 4.9846180916040375 0 0 0
189 1 27.193655642898634 2.8238142119236596 5.018055977331262 0 0 0
286 1 27.055708675316268 1.157446924023361 6.961233107902019 0 0 0
319 1 27.31266535227644 2.847727962025239 8.385579863589108 0 0 0
493 1 10.502972044705823 10.479355628962333 10.379852685867588 0 0 0
168 1 3.22844255340293 5.102836678746282 5.568763294134519 0 0 0
323 1 0.8067417564194317 4.958055850095905 6.776064843170919 0 0 0
322 1 1.4071646147490344 6.76130241737202 5.201185452106976 0 0 0
353 1 0.958605302222022 8.104478962440993 7.117444515072573 0 0 0
355 1 1.4497249093569144 6.503051387604104 8.536484558087674 0 0 0
328 1 2.6664677546126176 8.663294972822982 8.617068153712832 0 0 0
325 1 3.4673496553941376 7.090997739760963 6.677794917259154 0 0 0
195 1 3.105081704919845 8.354597846022232 4.861325220452745 0 0 0
324 1 -0.11954889469082597 8.475741362791316 9.471669357269084 0 0 0
293 1 3.355822812730915 5.084944728130205 8.250257876835962 0 0 0
292 1 -0.09319971037411534 4.630773963143681 8.605611123782197 0 0 0
290 1 -0.27176507234507813 4.876436372377182 4.584589474030202 0 0 0
329 1 6.815660149686182 5.198241638151512 4.84396639392994 0 0 0
294 1 5.4412366232802 5.197999190841496 6.91514106976339 0 0 0
231 1 6.886920550688848 8.826898667090644 4.662183636792286 0 0 0
199 1 5.261279976743496 6.849912192726895 5.047318440898206 0 0 0
300 1 7.149873480007263 5.314286296384549 8.772391036605304 0 0 0
327 1 6.7963529733665204 7.023031835352695 6.87956159940061 0 0 0
326 1 5.351804379812114 8.885102329675815 6.708971393370898 0 0 0
332 1 6.618073285510911 8.685203594540381 8.878016205820897 0 0 0
296 1 4.906410321999846 7.079186720970155 8.509927633708768 0 0 0
208 1 10.710795719580222 8.538497178640796 4.7583255897998225 0 0 0
174 1 10.657002536216227 5.056203759850182 5.292450616536838 0 0 0
176 1 9.170335173264586 4.801673913512449 6.694690356821086 0 0 0
461 1 10.77964572666204 4.940730319879768 8.686586189101192 0 0 0
203 1 8.636694016641187 6.8949849938675385 5.0299200034322205 0 0 0
235 1 8.530448146778983 9.128000702951734 6.966684098417563 0 0 0
303 1 10.376339268032607 7.275066450478885 6.629607628565356 0 0 0
331 1 8.642676840611287 7.23300155223225 8.666241788486056 0 0 0
330 1 10.418792149759756 8.723800482957454 8.770559941962555 0 0 0
335 1 12.023671388876863 6.897367010554709 8.176343428189792 0 0 0
306 1 16.381750804190034 5.258360446799918 6.714689518530784 0 0 0
334 1 12.651441451162793 9.003898014434947 6.669574001547659 0 0 0
270 1 12.389979468655978 4.911250272013188 6.829593132419569 0 0 0
48 1 14.344312665686793 5.151803234903521 4.917470338414433 0 0 0
207 1 12.55164775053393 6.68497822499701 5.430461838532318 0 0 0
308 1 14.067993956155956 5.271872140446839 8.682233583457286 0 0 0
302 1 14.371896415671179 6.680283907632546 6.818737490377008 0 0 0
338 1 14.078529791534626 8.481986616834575 8.395249695089936 0 0 0
211 1 15.900916923235007 6.86561991274153 4.82821413878677 0 0 0
337 1 14.478215793285916 8.526346817387822 5.250849417823382 0 0 0
216 1 15.831400124763695 8.832246629857543 7.25772974677513 0 0 0
92 1 17.724299413975736 8.251398626439155 4.921527201277514 0 0 0
339 1 15.996243769663868 6.673952380384602 8.77644494956844 0 0 0
310 1 19.29222583550891 5.6953093508206685 6.791652541207609 0 0 0
215 1 19.73736662446224 6.763842156550328 4.826598270217204 0 0 0
341 1 17.720531987885458 7.311000549814154 6.827663156139213 0 0 0
220 1 20.05570421723047 8.751370720065449 6.520808884912556 0 0 0
309 1 17.947309726404846 5.502333970770131 8.566642380248163 0 0 0
343 1 20.093607942201714 6.648112510751904 8.795405675535909 0 0 0
344 1 17.947515332202556 8.078491390945326 8.820682132679124 0 0 0
214 1 21.657038403245657 8.522493190346681 4.779939227960425 0 0 0
316 1 21.864903179886845 4.7185342277809665 8.59034866799043 0 0 0
188 1 21.228988407033327 4.9738467007489975 5.052928870709077 0 0 0
314 1 23.721458843147815 4.9761709951761555 6.633418256173598 0 0 0
219 1 23.3882550365337 6.517034900344574 5.1043317849481875 0 0 0
345 1 21.82265199531747 6.810579680655924 6.819188676019983 0 0 0
352 1 23.3702859967618 6.406402067466772 8.88074072205914 0 0 0
348 1 21.8433073633459 8.256967731822495 8.752283508670653 0 0 0
346 1 23.830156011069292 8.604498607425482 6.433134745823237 0 0 0
321 1 28.257685450857863 6.931844892766166 7.419823468134119 -1 0 0
196 1 28.511194244902967 8.608672939857218 5.714795008810679 -1 0 0
192 1 25.369721289029137 5.213432892113937 5.101172880270164 0 0 0
347 1 25.700095338946326 4.538343847936404 8.742881792377522 0 0 0
318 1 27.235641173546718 4.8259586726182295 6.62929825734125 0 0 0
223 1 27.367637157576233 6.6682893527995954 5.162722555507138 0 0 0
349 1 25.850796380946363 8.57510201099465 4.961823688992005 0 0 0
320 1 25.97234288171262 6.790261030333717 7.24378741619083 0 0 0
350 1 26.915700630369336 7.114882327679868 9.854250841126275 0 0 0
224 1 26.975067122736007 9.094354039638628 7.411340232052207 0 0 0
227 1 1.2967625585172513 10.046141614148056 5.02430615706777 0 0 0
232 1 3.175707685500831 11.943042718367023 4.802604215636326 0 0 0
200 1 2.87247582484171 9.949161563314918 6.797050636866931 0 0 0
354 1 1.9595628159815117 10.854961095975323 9.160813767990138 0 0 0
488 1 3.6397115288546313 12.231144902141002 8.828813738705515 0 0 0
383 1 1.8439879995480442 11.96252818840441 6.9248256584687296 1 0 0
1283 1 -0.11503154244110247 12.079735519308196 8.84540984068057 0 0 0
478 1 -0.28153983798159465 10.214243372771469 7.377370633100297 1 0 0
1293 1 10.430593699623838 13.849582007284814 6.791102959157362 0 0 0
145 1 15.891265979526386 -0.40902191238213703 1.4670682713207766 0 0 0
512 1 25.4994237472348 12.143794019987165 12.429233337508181 0 0 0
233 1 6.7646028130402645 12.145287133949699 4.885529374770671 0 0 0
357 1 4.945748638299448 10.46158596521821 4.731151075870978 0 0 0
204 1 6.999749916720669 10.829888161215763 6.660193899155118 0 0 0
236 1 4.785535138460577 11.733960191276012 6.807588527591713 0 0 0
364 1 6.347917291921188 12.522248019856164 8.668995491585607 0 0 0
359 1 4.696820099150821 10.22142235914381 8.757897571682816 0 0 0
234 1 8.835066258671839 10.250833069221917 5.041004487479613 0 0 0
240 1 10.55575878511761 12.447567492788298 5.191692635676484 0 0 0
362 1 8.784507854310295 12.132992557452475 7.278035481276135 0 0 0
365 1 10.565429567828284 10.447366361350154 6.929600982783243 0 0 0
363 1 8.340279371966439 10.665421458437503 8.945674927108271 0 0 0
368 1 10.805854946787303 12.369862514575571 8.740746125144117 0 0 0
621 1 10.618134737009818 10.369627234892532 13.453325102940356 0 0 0
399 1 12.304143976427577 -0.31324051929255514 12.77137240034137 0 0 0
366 1 12.598626101335542 12.124031968454002 6.800407461449548 0 0 0
239 1 12.240965757955616 10.533167939401245 5.096904847608534 0 0 0
367 1 12.508902273983006 10.349809668909247 8.556415052798345 0 0 0
244 1 14.353821992297245 12.505272384938127 4.928974377745884 0 0 0
369 1 14.522270113031746 10.795555968408772 6.470298654850291 0 0 0
372 1 14.81093642376956 12.12492290336874 8.790250929918933 0 0 0
243 1 16.32796915624219 10.131093813572678 4.825339693088097 0 0 0
371 1 16.489474171760634 10.403506440635223 8.965340484299215 0 0 0
34 1 1.0258642493948544 4.830134053479961 0.02593606510499402 0 0 0
511 1 27.515217656912625 10.688983244532922 12.57260390140997 0 0 0
1301 1 16.532107953928012 11.839297012801529 7.105965983988852 0 0 0
248 1 17.925121551841393 12.002245797461203 4.638691770436532 0 0 0
247 1 19.47109739509351 10.23641132277785 4.810054099938294 0 0 0
373 1 18.07473951734943 10.022194480993173 7.107627647066395 0 0 0
375 1 19.516434696327984 11.891794461201254 6.8045171828659505 0 0 0
342 1 20.33550873141315 10.18601235527352 8.178912723939087 0 0 0
376 1 18.38742659236089 12.19858186792446 9.114342422281855 0 0 0
380 1 21.469387260530908 12.545866743286366 8.817037770284164 0 0 0
379 1 23.28407893437975 10.599892363769554 8.8007582184193 0 0 0
252 1 21.38444886264911 12.13650584473365 5.4520309039292885 0 0 0
251 1 23.722372348184187 10.75505750054597 5.09784977746201 0 0 0
377 1 22.07053396704128 9.968401834606745 6.786307679101818 0 0 0
378 1 23.298888708439463 12.131294968647596 7.043044727003576 0 0 0
1295 1 12.787589176627305 13.973227540092582 8.0870721476735 0 0 0
509 1 24.84517904989034 8.626028969263594 8.606198026423263 0 0 0
228 1 -0.08897300037774847 12.587267148537844 5.2843308638848505 0 0 0
1183 1 25.492255710721793 12.119976002028817 5.099151246845657 0 0 0
356 1 26.995367288636494 10.98923045532264 8.932622199282546 -1 0 0
255 1 27.501400225612663 10.61437032787149 4.760164774098046 0 0 0
384 1 24.897349418153276 12.174238868967173 9.280849793967235 0 0 0
381 1 25.242874088255526 10.639438508791677 7.255471138264138 0 0 0
382 1 27.22631414142173 12.400461426348667 6.685278466731795 0 0 0
602 1 23.83643923955691 8.707864052617731 14.118463867486659 0 0 0
141 1 10.821626919604965 -0.47260213030963655 3.468461949850916 0 0 0
1419 1 9.093132943056835 14.111416506126014 12.365654765776796 0 0 0
386 1 1.6885163320992285 1.8674649017932259 10.588584779438147 0 0 0
419 1 1.783918180200763 2.972670515469004 12.500939451061846 0 0 0
392 1 3.4626452039950477 1.377175425523011 11.859347178667313 0 0 0
421 1 3.968522904158709 3.3716232295098827 10.33774306381997 0 0 0
417 1 28.553900366850172 2.9126065135052004 10.78176643745756 -1 0 0
388 1 -0.42280498867212823 1.1349626212257913 12.160678270904503 0 0 0
510 1 27.456851614081323 12.50488576207556 10.839804086051828 0 0 0
427 1 7.092826869750129 3.197898668738272 9.700333683440244 0 0 0
390 1 5.410672049008694 1.604849068913877 10.30314315878682 0 0 0
396 1 6.862619333935175 1.3373443340514914 12.169523904022908 0 0 0
455 1 5.7158431665965015 3.3542587666790307 11.936770204265521 0 0 0
287 1 25.18347899560286 -0.2520501475503849 6.49783373697235 0 0 0
361 1 6.752696840939466 13.448583315895565 6.5595050871935765 0 0 0
1435 1 23.574666964719356 14.00033209722664 12.213783209048076 0 0 0
508 1 21.41580402310575 12.415391849272199 12.57952382909262 0 0 0
633 1 23.49583844175391 10.564304152916671 12.350388056122274 0 0 0
272 1 9.190984355024012 1.3420120589358133 10.048529711031193 0 0 0
394 1 8.583411335580726 2.9165514284827396 12.04424063772798 0 0 0
304 1 10.831950755540976 3.107609573907846 10.59292358156093 0 0 0
400 1 10.389958426858596 1.4275880598698911 12.239130604917532 0 0 0
429 1 12.314504210034878 1.142870398312695 10.423224877503188 0 0 0
489 1 8.6796212901342 10.554434710869877 12.3575412182036 0 0 0
431 1 12.424347616562203 2.8827809488045824 12.259019337261257 0 0 0
433 1 13.861173397958396 3.2234859365088995 10.34191729328044 0 0 0
402 1 14.185007253311424 1.1310063139223479 12.611324310752655 0 0 0
435 1 16.14909255183396 2.8754987815931257 12.33520325017289 0 0 0
505 1 21.597893747992373 10.251488907280043 10.07904032597347 0 0 0
490 1 8.37564470132773 12.570150245670828 10.841325136577108 0 0 0
495 1 12.587980454044665 10.394623409882827 11.906900576150631 0 0 0
500 1 14.166803105752402 12.038377134193388 12.286874608385718 0 0 0
398 1 15.862196863304396 1.07476027944173 10.4001180741453 0 0 0
408 1 17.928136566017002 1.1561533975795002 12.133881199119052 0 0 0
437 1 17.85991871945029 3.192720384303745 10.590150102811988 0 0 0
439 1 19.64865193392071 2.8388246968929023 12.969351064324007 0 0 0
406 1 19.6840293545428 1.1576999756640236 10.044311494679928 0 0 0
397 1 10.549634236391052 -0.35607681104549727 10.067657463425508 0 0 0
562 1 12.413851201865183 4.700525619345888 13.890231772782682 0 0 0
506 1 23.25644954534897 12.178251395384969 10.70804298211125 0 0 0
494 1 12.43685314920205 12.202277582262775 10.242381513641067 0 0 0
410 1 23.45006594106261 0.6998327799983834 10.234837678496952 0 0 0
412 1 21.55910668921552 3.0818385034533904 10.535497393053664 0 0 0
443 1 22.41352948056076 1.6142701839539324 12.113575153852324 0 0 0
438 1 23.66716564198149 3.5489770918275934 12.427427883228406 0 0 0
599 1 17.814188573499656 6.786444353769306 14.021288907438327 0 0 0
499 1 16.49391773482664 10.26197405282733 12.012861498915024 0 0 0
288 1 24.89705067017391 1.0670961367794485 8.716524665336859 0 0 0
979 1 13.82305556112945 6.520050502986301 -0.24252974412598327 0 0 1
416 1 25.255113290868508 1.2470312293313623 12.494485597341974 0 0 0
442 1 25.19823481602741 2.9198359577566375 10.635016390026234 0 0 0
445 1 26.824675067738667 0.8770461260685276 10.308567362665752 0 0 0
447 1 27.053421906336908 3.331144845477352 12.59053208044987 0 0 0
581 1 1.3724786372778308 6.420916611583411 12.517082773785084 0 0 0
418 1 1.6940288620214368 4.570400787220561 10.468106994191675 0 0 0
450 1 1.7898580756315194 8.985008446075303 10.886697681867084 0 0 0
460 1 3.2523305398507114 6.949504840291705 10.451880233258132 0 0 0
458 1 2.8944213816484656 8.295610055664415 12.651221374252868 0 0 0
453 1 3.627459250108971 5.0366176297670915 12.361510812827884 0 0 0
351 1 -0.033515813324381305 6.408787285862377 10.891924752758742 1 0 0
423 1 5.095288718245732 6.744163055861395 12.715322773322606 0 0 0
428 1 7.03838248075661 5.061751759968843 12.02921525355077 0 0 0
422 1 5.2020986069590505 5.310234499898302 10.462212743632183 0 0 0
586 1 6.811245136763133 7.134795824213818 10.29428798270655 0 0 0
491 1 6.663544453021947 8.596923825672937 12.320673286799499 0 0 0
457 1 4.533096957274609 8.623939128212655 10.732449089576168 0 0 0
407 1 20.084601639947152 0.12367890642342749 12.439292171068185 0 0 0
504 1 18.325900456000255 12.506018232879745 12.009299654723051 0 0 0
426 1 9.049188625364593 5.150667506259629 10.542158201719005 0 0 0
464 1 10.648217415136129 8.497933862472694 12.064995811302287 0 0 0
432 1 10.261051995732268 5.182691386219809 12.445204346394664 0 0 0
459 1 8.56365224121424 6.978343692655567 11.952211414347898 0 0 0
333 1 10.437492035315953 6.9163176974673855 10.253067347602002 0 0 0
454 1 8.503710812602433 9.063999520639717 10.648124144955714 0 0 0
1148 1 23.05179589772183 -0.0206036434107712 1.3716851058380586 0 1 0
336 1 12.619286028014278 6.906273569919785 12.159306844786727 0 0 0
340 1 12.419373324911149 8.51886208506153 10.28337739025463 0 0 0
430 1 12.624680216559048 5.2143575985398165 10.524663208585764 0 0 0
436 1 14.304126459537713 4.431571158193209 12.424527065799099 0 0 0
463 1 14.277773320796351 6.9200940238325 10.645252345991375 0 0 0
462 1 14.606814372133782 8.662444551740135 12.185386442665553 0 0 0
434 1 16.207997127746133 4.898304192745184 10.596664857519825 0 0 0
465 1 16.05715869470115 6.569446523433718 12.356088256105789 0 0 0
466 1 16.46903569076661 8.319210584445837 10.61324350102354 0 0 0
501 1 18.51968443358406 10.01566840494775 10.131484087624342 0 0 0