LAMMPS data file via write_data, version 29 Oct 2020, timestep = 300000

2048 atoms
1 atom types

-0.5579051908438935 28.90990519084645 xlo xhi
-0.5579051908438935 28.90990519084645 ylo yhi
-0.5579051908438935 28.90990519084645 zlo zhi

Masses

1 58.933

Atoms # atomic

165 1 2.9217809549827356 2.0396265966017717 3.179950800962021 -1 0 0
1370 1 0.9265681490978774 0.8040480411939743 0.30524471568659084 0 0 1
758 1 7.152705448910382 13.607908795043313 12.913126422410071 -1 0 0
317 1 7.666873361173311 9.129430928204343 13.806699469182568 1 0 -2
1772 1 12.018010377363009 13.103780611354708 7.611222742396057 0 1 1
1036 1 2.2462474085246242 3.4149776033682744 1.1715577241674797 0 0 0
302 1 0.5352542499501207 2.2690860523857928 2.5108959631139336 1 0 0
1831 1 1.3549261304606441 -0.31404942928229307 2.115846002563012 0 0 1
1215 1 20.65573937743325 13.771029828978751 -0.2315351743701855 0 -1 0
1776 1 5.2897531710628245 2.1289908403332913 1.8416981485040163 -1 0 0
425 1 7.395966100283208 2.305282876606983 3.2110317498419545 1 1 0
1969 1 4.511959258598111 4.301837141177196 1.6086124197049476 0 1 1
1397 1 7.410300095785541 4.063221957725295 1.7049214507108426 1 1 0
544 1 5.19290453225099 2.0505379473040843 4.1282183979952 2 0 0
834 1 6.21181711656694 -0.15974183358240374 1.2686696957922294 2 0 2
482 1 3.82413046999691 3.9661951538502445 3.780384466552488 0 0 0
412 1 6.6276357687646295 -0.1112112551713953 3.505641711176489 -1 -1 0
723 1 8.53342935892361 0.9363801923817794 4.682390037969649 -1 0 1
187 1 9.602160465122735 3.1472436164789435 2.0875936059245372 -1 0 0
473 1 11.741222919086242 4.829806531462316 3.440412103141087 -1 0 0
197 1 11.594247420792096 1.9388976723984408 3.1656047528981652 0 1 0
1355 1 12.025432358249896 11.086850248196027 -0.04369975347406074 0 0 1
438 1 8.216319519482536 1.2882439214232906 1.3106500325050234 1 0 -1
53 1 8.406804745119073 5.06226668915271 3.91545115647416 1 0 0
58 1 26.90273735968299 11.92919039406886 10.334579622745771 1 0 -1
1672 1 0.38435276805924923 1.2951183095871346 11.318880481238699 -1 1 0
1068 1 0.023098859570121477 0.34653974652031583 13.758896135765479 1 1 -1
283 1 13.337529767496262 2.909559947237136 1.7614939829288918 1 0 0
1042 1 14.574926787382225 4.900711150723506 1.7377855810412792 0 0 -1
1264 1 12.534479796688746 -0.12003319465808404 3.616632042887435 0 1 0
1740 1 12.015451369327364 6.130034092092835 1.58905565166237 0 1 2
1529 1 15.97495460284297 0.447978785490893 0.7576175950662256 1 1 1
65 1 15.169968774483582 3.402084989772232 -0.10982359277400033 0 1 0
788 1 18.156062466516197 0.04768890659243763 0.7936007760747641 0 0 0
349 1 14.844899481030929 3.827817934612251 3.7742123942288694 0 0 0
619 1 20.389615858504047 0.8592013561072664 0.6258851689268201 1 0 1
994 1 15.96830860381742 1.8455235095954774 5.0310277551760185 -1 1 1
1252 1 16.9203954466675 2.6776528446618104 3.096454613171749 -1 1 0
1023 1 20.55135886484922 4.920146669642494 1.623813212581911 1 1 1
1204 1 19.446916603753674 3.0083925823104285 0.8595350121990166 1 1 -1
613 1 17.246152038074552 2.3142996831925213 -0.086540745061016 0 0 1
1546 1 17.954585312432798 0.41538217769701946 4.971430796882344 0 0 0
521 1 16.88969616117895 4.03586472198921 5.6119560157433055 -1 0 1
1427 1 22.47615017862111 0.6329326640638122 2.692571630684393 0 0 1
1274 1 28.355188776932476 10.079501035184649 12.300673351324864 1 0 0
2 1 21.970503270629415 2.514254432554262 1.0496788261608951 0 -1 0
247 1 20.179328079834196 1.1545837603230147 4.956461438039579 1 0 -1
325 1 24.255277931779176 2.2167695129338405 2.0913699023654777 -1 -1 0
219 1 23.08884901426527 0.5319187320314973 0.5371402977136253 0 1 0
911 1 16.679244150890394 -0.24108191122464684 9.886389842251086 -1 -1 0
1447 1 25.392995622246968 2.519828225042416 4.250202332066705 -1 0 0
1157 1 0.40110906227519905 3.38731581825542 -0.19297191257056895 1 0 -1
1393 1 -0.45085684754367583 4.233693874715365 2.4256433102329655 1 1 1
1239 1 24.41874775455154 8.08990719912371 0.22115566825123745 0 1 1
1899 1 24.698865680681095 0.269915062766412 4.669575547333855 -1 1 1
1031 1 26.776681917933857 1.799105051979315 2.8466017410044606 -1 1 0
1145 1 24.53493552352281 -0.09779247281767067 2.4714953646377498 -1 1 0
1015 1 27.674443445162538 2.4783153737140697 0.7999737273546097 0 0 0
1164 1 28.621453751477322 0.05998461515195985 2.053705552072727 -1 1 -1
663 1 27.136964832676284 3.677017278356403 4.533980869891869 0 -1 1
1316 1 1.8771727947747023 4.513674498942905 3.2107767820157473 -1 1 1
1898 1 15.467317759438014 6.436087642712512 0.292980020568789 0 1 1
1971 1 1.1545902549408216 5.221045912885579 0.9960998031318882 1 1 0
1269 1 3.5556106067683286 6.051161964067071 2.137038298900413 0 1 0
1368 1 3.394406781981199 7.46743015363027 0.599751789193006 1 2 0
848 1 0.6202707657098767 6.373401752990359 3.8370997872317707 0 1 0
1544 1 10.785069408943754 4.084351639053111 0.006588419813516988 0 0 0
1843 1 5.944647021418081 0.08917616322693511 12.712756905772038 1 1 0
465 1 3.8094865706280228 6.390415357866927 4.607264400238067 1 0 1
270 1 5.39242255598629 8.420732666681076 3.4927542938351532 0 0 0
953 1 6.177820356213805 6.638295841236867 1.9731660038391352 0 0 0
537 1 7.518637057604797 7.05230282970652 3.640596348244772 0 0 -1
965 1 3.149420625322754 5.351018853126895 -0.33934075402616615 1 -1 1
1060 1 6.843171590532161 9.917176163307747 3.395946200033736 1 1 1
1150 1 18.940893044541767 1.5937297916790416 2.8472786790775397 1 1 0
2035 1 20.22314865153959 11.616028563652169 13.222856934820358 -1 0 -1
1550 1 8.762988388538782 9.131098907967374 2.3606258384121546 0 0 0
2015 1 9.988647306519296 5.640767908897463 1.8794719897627172 0 0 0
500 1 12.100459976014184 8.911747697798274 5.745960039954859 0 1 0
636 1 10.760024241491665 7.885539048050738 2.651047885806645 1 -1 1
85 1 11.45966899006838 5.2823123171202075 6.213878975473291 -1 0 -1
566 1 7.8086894197673935 6.023618479736226 0.1611476567372706 -1 -1 1
484 1 6.966407473315769 8.371605530907981 0.5685067031097233 -1 0 0
809 1 24.175569439377966 13.575092057908442 0.9015859590064874 0 -1 0
1131 1 14.22559067552894 5.432231103390799 4.814238111793735 0 0 0
655 1 12.010312532100103 6.885722211348388 4.234368345841459 0 0 1
797 1 14.376341633461314 9.529806066670625 5.374734308413955 1 0 1
1505 1 15.232608648939955 7.230682826054251 5.395822499546326 -1 1 0
61 1 12.620862914847637 8.941547278405274 1.4562347292542337 0 0 -1
2029 1 17.23123469586778 9.35031613043309 5.365102092299062 0 1 1
463 1 25.07520423503722 4.157701738662426 -0.11218721255531267 -1 -1 1
791 1 14.170522958391961 7.431352659966155 3.1002773639285364 0 -1 1
30 1 16.19863603474446 5.885719149090987 3.2475640840190256 1 -1 0
635 1 21.09635447835784 8.47683581683714 -0.04148248598369464 0 0 2
1245 1 21.52521292504008 0.4784505644235897 9.350908018825875 0 1 0
1769 1 16.365335319599822 8.609954716718862 3.221475575783102 0 0 1
1523 1 17.701528663232057 6.445912895659585 0.9105721406331266 0 1 0
169 1 1.6326617915853725 13.004767714527267 1.7334203132990504 0 0 -1
1671 1 16.552488871084506 12.967516347420498 -0.41500851132174116 -1 -2 0
1624 1 21.471904600235227 7.851940924616622 4.195946109500585 0 0 0
1485 1 16.892548884696144 4.2362743708043435 1.6029238412620517 0 1 0
1045 1 17.33246111283927 6.7207093970640726 5.82336943991507 1 0 0
860 1 12.27247688997989 13.481857945258124 -0.37388034774478185 0 0 1
1828 1 22.966643597147115 8.144670007737895 2.1271252261325326 -1 1 1
971 1 23.036100179232843 4.323659413738308 1.1529024244268038 0 0 0
807 1 22.3199580409109 5.7980325314064585 2.640395522312905 0 0 1
1066 1 20.463572003696783 7.626440948203296 1.8969307740776014 1 2 0
1719 1 22.50252198538077 6.611637706688756 0.1353654062258114 0 1 2
575 1 24.134039515603817 9.236504225743595 5.330257885664268 1 0 0
1135 1 27.92579000871813 13.927699038661846 4.0866514864800285 -1 0 0
366 1 27.005163711924713 5.930935043358362 1.334521303490378 0 0 1
191 1 27.996009614739744 5.798231700564228 4.071836007858826 0 1 1
609 1 24.40995122025643 6.014551993224171 1.3839281325531299 1 1 1
571 1 26.038435125979454 6.768162156417174 3.641936778290998 1 0 0
653 1 26.809008532301476 8.188320315530243 1.2140412651956494 -1 0 1
1812 1 25.917176241696733 3.8634132138067496 1.9198848424815198 -2 2 0
394 1 26.308273506193995 9.017739330119745 4.9463952634555115 0 -1 1
1782 1 11.852978078136566 4.520256040059023 13.869339398736946 1 1 -2
1138 1 -0.21736716449333254 10.304841452976845 2.6260564778910127 0 1 0
1668 1 -0.30861456428899026 12.271651522203783 10.206585794576462 0 0 1
486 1 1.762053071207227 9.709508088947498 1.395391291405266 -1 0 0
1661 1 0.47898955468140114 7.819594137107565 1.5201814038350308 1 0 0
1609 1 26.56257023395462 0.5084256343493447 5.834425134297 0 1 0
1990 1 3.01654007486969 8.183415771894547 2.8494525390991607 -1 1 1
179 1 3.6610032784042055 11.636434764854139 1.8240950194913 0 -1 0
1434 1 28.52714899615235 12.380409866393748 2.2018824880070067 -1 -1 0
2033 1 1.971937208716429 0.11008768811007741 4.659525744103291 1 0 0
1734 1 6.34755468917515 11.039807166981035 1.675930670944541 0 0 0
1555 1 8.37438380066092 13.840116265649236 2.32598485012303 0 0 0
1126 1 8.84430023710256 11.622096420240021 2.7415936269510883 -1 0 0
734 1 5.0187103667232655 9.192481944391576 1.2049357325876655 2 0 1
1527 1 4.769353562952435 10.59390405844184 3.721067964406446 0 0 0
333 1 3.7188610488913154 12.883253906064306 -0.26643932999338804 0 0 1
35 1 3.3576706180324143 14.033636025367928 12.750395797216502 0 -1 0
1939 1 10.86635089292584 1.778991651558341 0.5767237440095396 1 0 1
673 1 10.922086201412787 10.312876122826548 2.065782315130833 0 0 0
831 1 9.22241738872256 11.689540677260569 5.399332670773184 0 0 1
926 1 8.094070154638757 12.335808302258698 0.054148239475714344 1 1 0
1403 1 12.258589350489213 9.96690954396673 3.823700477964173 0 0 1
1143 1 26.24984067985549 11.476810778985012 12.436669662812776 0 1 -1
1473 1 10.528195756782864 12.655368909047793 3.841787617499058 0 0 1
1637 1 7.844117759872718 13.453429817401991 6.440251132236617 0 0 0
1020 1 10.275133642328854 12.16575851799578 1.058280076351141 0 0 2
833 1 14.460762453347055 9.777154539676916 2.317314518937491 0 0 1
1788 1 12.491274967501935 11.990806714502567 2.0461765526070113 1 0 0
59 1 18.781218054951143 12.92846771273295 0.8940991869223516 1 0 1
693 1 15.564120438271289 13.130741982589095 1.7869830105688869 1 0 0
1275 1 17.760194356686736 12.68884777344519 2.9243005510993845 0 0 0
1766 1 13.366327336032779 12.799535128151467 4.11667985429969 0 0 1
1506 1 18.683402386224458 8.39763237723071 0.7349594801947577 -1 0 0
1662 1 20.425014927400653 11.580504891783995 2.3362775850894635 0 0 0
1581 1 16.824390800839456 10.587486665537114 0.7845270420388166 0 1 1
1536 1 18.06548120234511 10.122692051831 2.4807739263782347 0 1 0
1603 1 21.259836882916716 9.69723794840806 2.3752769084055587 0 1 1
464 1 14.606365668922468 11.359565863994726 0.46205623582950817 0 0 1
324 1 21.932951568516955 0.02468605365385279 6.373367739967761 -1 0 0
574 1 24.649619636424017 12.22183349523402 9.917867157355909 0 0 0
242 1 22.36494107697286 10.009629171608811 0.44054975572498556 0 1 0
442 1 8.455589810319825 0.7127672199988737 12.969678938082954 1 1 0
2032 1 17.557419529251835 -0.1862733623329646 13.68282672571766 0 2 1
231 1 19.72205255537252 10.377161366383676 0.05611633335005606 0 1 0
186 1 23.87984072780408 4.797517821346492 12.859587836297822 0 -1 0
447 1 23.399808217174204 10.657225099366817 3.6784705485392246 1 0 1
1084 1 22.34115468395128 11.976004353558576 1.1632497347406778 0 1 0
286 1 24.00318705376652 12.958143088375389 3.7402371125741904 0 0 0
148 1 24.41642993586271 10.436570490936951 0.9819586040372472 -1 -1 -1
701 1 9.248416144000844 7.539420935928391 0.8077478069671336 1 0 0
1673 1 -0.35007863376820825 9.782614879157709 -0.14366370054845423 1 0 0
1433 1 25.49837318214583 8.974185258211211 2.729744251214872 0 0 0
1712 1 27.242284342882115 10.426492702116466 1.4512224978461319 0 0 0
919 1 25.967813722359512 11.733597502071014 2.600330118575645 0 1 1
419 1 28.653342786642344 8.449919542810225 3.6781895885452016 0 0 1
641 1 18.173682160156176 8.94166098800242 13.492414217292948 0 0 1
990 1 9.675831658095111 -0.09609856049931975 2.921757602963538 0 0 1
1153 1 15.803866100037023 8.47150368358953 0.9798056178555516 0 1 0
744 1 4.3856914121982715 -0.08274406061651068 3.9412132659171 0 0 2
1078 1 -0.021165940124410754 0.28823347057675197 9.096490504680927 1 1 -1
1463 1 26.344910204272267 13.114655032025498 0.2798501573598864 -1 -1 0
358 1 0.9543451119418513 1.4068894517280308 6.775137927828915 0 1 -1
1106 1 0.22020792654071686 2.790125688707526 8.576017104266988 0 0 -1
1160 1 28.63414999033668 1.9425801349786638 5.306952932412181 -2 0 -1
1797 1 1.4173621822131013 2.6467515567395066 4.950607415923881 -1 1 0
1806 1 4.425760017712439 4.1455730892949845 6.364257395007065 0 0 0
2030 1 0.10276726582492912 4.318031343907933 6.735772073582164 0 1 1
502 1 2.3150779832302795 3.295117114418717 7.378524228495763 0 0 1
1539 1 3.9173294865948076 1.4088894126438398 8.042843451524522 0 0 0
137 1 5.805804314314817 4.575987174941896 3.6307547840514838 -1 0 0
770 1 5.944584688581573 2.5556672204326096 9.425483260839625 0 0 1
1159 1 3.43038765083274 1.7675483968661148 5.869009187628266 -1 1 -1
883 1 5.5874468895160785 1.5611733228241644 6.343393798589939 1 0 1
1321 1 7.8069752706428925 0.8067101020904295 10.606190780232758 0 0 0
1240 1 7.6815357312990145 13.317912484745246 10.511670067387639 0 0 0
2018 1 27.27205171184007 -0.03878148519088265 12.908357155889446 0 0 1
1787 1 6.951758099659408 0.9795790437730203 7.8679203321602 1 1 1
947 1 9.2008828334165 0.7236380239756139 8.905789380405134 -1 0 2
1908 1 9.775284835619022 3.372309194859792 4.973284601154155 -1 0 1
1134 1 8.95708498616846 1.8944969160692842 6.7168633024146125 0 0 0
1436 1 11.206388798264497 0.1710630611205669 7.6620573903702045 1 1 0
355 1 12.801208749326056 3.428266973624121 4.967640046114322 0 1 0
764 1 10.923378023555221 6.385159626328902 -0.3606113076115562 0 0 1
506 1 10.776740817203203 0.9488496545602711 5.075752205171943 0 0 1
1929 1 14.762869791763002 1.1020046560926808 2.8770126958752362 0 0 1
1030 1 15.858532381565734 1.1839135829906056 7.654033005052057 0 2 -1
1278 1 14.881061615063453 3.55735821822386 6.639189055762524 0 1 0
1975 1 5.359644250297486 6.4152297600027675 -0.05564202785575345 0 1 1
1168 1 13.55807208272814 1.8551141705420537 7.9416381005523995 0 0 0
774 1 17.39905036392807 2.415089570127188 10.299746664614197 -1 0 0
400 1 17.208346028684854 3.023050852096758 7.825355898629464 0 -1 1
669 1 19.94043330848163 3.2259171823311883 3.858130212134678 0 0 2
1699 1 18.450742031575555 2.4395613545591748 6.040631858070037 0 1 0
818 1 20.6752782606612 3.391454975536016 6.20966282433161 0 0 1
297 1 19.911132395745174 0.8016734938255139 7.450424470415797 -1 0 0
310 1 18.414195077082976 0.549819550638116 9.053341399292195 0 0 1
1938 1 18.900248195621362 4.974385774962656 5.932314671176471 0 0 0
106 1 28.762185705579 5.818118901933504 -0.04390935974491206 0 0 -1
1024 1 19.895799455866236 3.0947145915779357 8.354863946228134 0 1 0
1538 1 22.225396335605286 3.1098197880006744 3.190703581778064 0 0 1
45 1 23.675372268929955 -0.468533870630195 8.652731322262557 -1 0 -1
1786 1 25.246738149372064 1.2717273057875833 9.85511419922119 0 1 -1
449 1 22.61272156899438 1.9953360698802567 5.280051252222086 -1 0 0
404 1 13.17467038720281 2.7147152303111532 13.496021168967221 0 0 0
1387 1 21.97055364924465 1.987162572258153 7.731542841501705 -1 1 0
1930 1 27.330148917815592 13.213720776205259 13.3735773074889 -1 1 1
1080 1 25.828303705526878 13.879458030482805 8.294214227253724 -1 0 0
1658 1 26.551735894266233 2.958892595100132 6.624926747491974 0 1 1
1233 1 23.813575153695375 2.6988350627092306 8.061805006174213 -1 1 0
972 1 27.712177146253108 1.521221063863842 7.957189993710685 -2 -1 0
504 1 24.616278925248903 0.9410043817344671 6.998766510649487 0 1 1
1773 1 26.973318950786894 5.342713198625464 7.51482205147445 0 0 0
1660 1 2.2852894871600324 5.204371052456094 5.701880336681042 1 1 0
1645 1 0.14554699221156242 6.812687915542087 6.544827713597856 1 1 1
356 1 1.5112711496280093 4.795036188581317 8.996704250916602 0 0 1
564 1 3.968624298263304 8.075300250625734 7.94032154581488 0 0 1
515 1 1.556272507304616 8.066318229448049 4.799803746224393 0 -1 1
940 1 28.00626029216505 4.28643744936564 9.357298741546344 -1 -1 0
1915 1 2.3764783897767856 6.737347566762581 7.129335332952639 1 2 1
1739 1 0.7853259278234859 8.571817354509143 8.169221893424917 0 0 1
533 1 6.065245428546651 6.163261203252589 5.52557154048127 0 0 0
952 1 6.244225980781189 8.02096046995733 6.9268549353833775 0 0 0
1633 1 4.73665370736237 6.265953596221454 6.903198961112285 0 0 0
1959 1 6.552537503085158 4.6459449707313745 7.921105198457196 0 1 1
1718 1 3.8438349624402015 8.3979570948553 5.548887797646248 0 0 0
328 1 8.698825042865705 5.0159530321390875 6.843008034497823 0 -1 0
843 1 3.7744290659514297 3.7312258436500843 8.66802175103339 -1 0 1
900 1 7.157743256021697 3.71557699460112 5.584285800088083 0 0 1
1193 1 10.024490342563972 6.208449602918684 4.603253120140432 0 0 0
730 1 11.487793964564345 2.6744155470488025 6.837607481842052 0 0 0
1099 1 10.240949133824566 10.020402739703217 4.417802632994124 0 -1 1
507 1 12.016449646233509 6.47996934963073 8.84704668891804 0 0 1
726 1 10.57961584322145 7.380881014897942 6.793115557120401 1 -1 0
1692 1 10.296384688378565 4.482764452592862 8.288408112009238 0 0 0
467 1 13.353633453691225 5.022514465244059 7.367513807339091 0 1 -1
1052 1 14.643062345893053 3.5397695887720477 9.429812692743932 -1 0 1
1174 1 14.398852732781231 6.531896894575675 9.023365955829794 0 1 0
1488 1 13.12629482491263 6.8510018452772625 6.4123611071437185 0 1 1
44 1 15.934148097107656 5.580438418193712 7.38811917795788 0 0 0
1219 1 15.65567601865612 7.80416916187316 7.430876282604364 0 0 1
118 1 18.92649681487579 8.227743012792091 9.732072017736902 0 0 0
1374 1 13.733403423127207 11.385575929904581 8.846619739194917 0 1 1
16 1 13.270441012487128 9.123336457579143 7.971797477037166 0 -1 -1
13 1 18.038608667081103 6.867131475333429 8.017168429179373 0 -1 0
212 1 20.341860089224934 5.55921144807742 4.138925850870062 0 0 0
699 1 18.2156615064392 4.865151849422106 3.4423926114223065 0 0 1
2026 1 21.056896471496042 8.49788282993318 7.898473558889176 0 1 0
1451 1 18.478293435787027 9.879659447159028 7.553961288439831 1 0 0
1850 1 19.56200646178403 7.823728927897205 5.885643440059806 1 0 0
1803 1 18.701999173513624 7.036441745981696 3.7982258072304225 0 1 1
1987 1 21.04696530563278 9.987251451660335 5.554061617985761 -1 1 1
1698 1 24.55253743626287 4.581996480808703 3.7470086474877826 -1 1 1
1381 1 22.689852654694274 7.751491719674144 6.544383130207824 0 1 0
1972 1 24.92545863171432 6.91597137034852 6.405293030366793 0 -1 2
420 1 23.6360440460934 7.232848692513531 4.051867949491075 -1 0 0
352 1 22.416932743258638 4.8926358910957015 5.010007805203465 0 1 0
672 1 23.688096043320208 6.756898182547668 10.792735681200433 0 0 0
205 1 22.673885032803526 5.105347923843199 8.482438108848273 0 -1 0
1601 1 23.60777042597645 8.609354187989158 9.386239318600923 0 0 0
1121 1 24.76732513529712 8.851121369504915 7.503359108838945 -1 0 0
857 1 0.007818265028715854 4.164936041065347 4.71740560774952 1 -1 1
927 1 25.093592431203426 4.7354910864709066 5.85793274388407 0 0 1
1854 1 27.2162474081468 7.584607886240482 6.7617135806321205 0 1 1
522 1 26.631335923135754 8.33801204467963 8.829269473746688 0 -1 2
1716 1 24.821175903071193 5.936255059699649 8.877348874374919 -1 1 1
696 1 -0.38045326275777147 8.902947421873176 5.9374562006651805 0 -1 0
1728 1 -0.33938625225963015 6.271834396408123 8.728212432124343 1 0 0
779 1 26.157256529931214 4.564480090722031 10.980263845535438 -1 0 0
795 1 0.7078107642731184 12.126118248407744 4.1976446581252915 1 -1 3
824 1 1.5116719159558736 12.420407993323586 6.593541165109112 0 0 1
929 1 28.843905999770715 11.584869500663263 6.068637200299047 -1 0 0
1530 1 3.110826472996958 9.902272920183094 9.433460641100321 0 1 -2
729 1 2.1329196350839066 9.787343289028867 6.559668626003025 1 0 1
979 1 1.0211402393341638 11.20948174163015 8.738749325177992 1 0 2
152 1 5.5910045279882405 12.941688175664952 6.0135971696508195 1 0 0
215 1 1.872169104901253 10.26416360384245 4.260759089207569 0 0 0
1981 1 7.06130338618933 13.254336628075109 4.0106495748718105 1 0 1
109 1 5.329707332653729 9.94656762570073 8.043247901356642 0 0 0
1837 1 4.425837278252482 10.56341541189163 5.947952010250269 0 0 1
323 1 8.68842554262201 8.51282545080789 4.740867207564917 0 -2 -1
1115 1 8.021861108766965 10.580218872448084 7.620547225288183 -1 0 -1
1161 1 6.601114769283993 10.937728458181114 5.500954074674892 0 1 0
261 1 4.791135865043344 13.053107508442727 3.3725843743293726 0 0 0
1951 1 8.119131814600799 7.079366380118435 6.503862589916832 0 0 0
1221 1 11.652129166201764 10.992730360037411 7.904330929955506 0 0 0
168 1 11.589466377601353 11.800686251729877 5.682788417933472 -1 0 -1
1883 1 15.029868982800751 11.40661980842778 4.041666948873013 0 0 1
275 1 9.485239664806686 12.10095118296158 8.921814688958731 0 -1 0
1027 1 11.299387479972115 10.821493825420633 10.229389052327738 -2 0 1
524 1 12.63972206338698 12.794307261213971 10.11155641227322 0 -1 1
1079 1 13.698545604645652 1.326114699854918 5.145631967724536 0 1 0
859 1 9.824459209974819 9.903386505514039 6.809288812442637 1 0 0
1909 1 6.8437724831269 12.135824333271305 8.729460719025607 1 0 0
479 1 20.563383318080817 -0.3152538190304622 3.386345124716266 0 1 0
1333 1 15.01501624815544 9.265254328161063 9.50360677176462 0 0 -1
1082 1 16.307348306214024 12.714056859766117 5.619057966944784 1 0 0
1944 1 15.831301697592224 10.278275801741577 7.414585998116587 1 0 0
243 1 16.055735692751195 12.649285123315755 8.224965099327248 -1 -1 0
1328 1 14.057188144132363 11.932944578861406 6.672879251002031 0 0 0
829 1 26.569644060303553 -0.01883259420997163 1.0084094060854958 0 1 1
1872 1 19.49083545177927 9.14314913992083 3.9205621864126643 0 0 1
1846 1 20.953713853242288 11.75025551151265 6.859859642886501 1 1 1
131 1 19.025450635810007 13.97703315150021 4.6279422417578155 0 0 -1
267 1 18.429626481467018 12.507884617263342 7.060047159315462 -1 -1 0
443 1 17.908297978409173 11.401036055381663 4.812084849578121 0 0 0
1477 1 20.078522055704713 13.178153124737715 8.749397514810818 -1 1 0
1253 1 17.81630296367558 10.595462153637 9.447084124651832 -1 0 1
1681 1 25.505071905517656 11.104208948730472 4.948025843530069 -1 0 1
823 1 20.00965490903737 11.68065566761798 4.558324436986832 0 -1 1
581 1 20.352596800326886 10.482525255294334 9.30592466671872 -1 0 1
305 1 23.289494233269256 11.039803933383457 6.102633218858708 1 -1 1
385 1 8.53921560127699 9.664089496246232 11.351436911072433 0 1 0
236 1 22.114216970599493 12.770103178850228 4.962650673814109 -1 0 1
5 1 25.24147800853263 11.943629744600512 7.572908378434228 -1 0 -1
1513 1 20.763455744530113 14.032057585297222 6.413366119475488 0 0 -1
573 1 1.7066040097244928 11.90307347053951 13.769099281316079 1 1 1
578 1 28.64134992754435 13.892769739461773 0.2226177965083297 -1 -1 1
516 1 24.216752144582 13.632424362678105 5.921623793564624 -1 -2 0
916 1 27.06969241777484 9.987580083156761 7.1824295711191155 0 1 2
1119 1 28.366074816726712 10.20410266304113 9.36846130344159 0 1 1
39 1 27.733705588280557 11.272539359936449 3.9920807615178635 -2 1 -1
839 1 26.447649794290104 12.712658620826648 5.833916881285333 0 -1 -1
1752 1 22.08480255418251 10.216943449172007 13.645194944887672 -1 0 0
896 1 25.502483153455692 10.417787335319119 9.281785082058331 0 0 1
1480 1 27.618284175646238 12.4480151778662 7.94565483097014 -1 0 0
1663 1 10.10101289695543 13.935690676320627 7.114974340255663 1 0 0
1747 1 0.41382522269108224 3.823075700455826 11.034958639644174 0 1 1
272 1 1.9398180597365884 0.8713474343075085 9.537101984625258 1 0 0
248 1 1.5555560591655184 1.7613149283924021 12.931478056416152 0 0 1
1724 1 9.002824979710466 9.965889220867282 0.31405204422702115 1 1 2
229 1 0.4444555705008333 4.185298842019039 13.750542661496537 1 0 -1
1110 1 20.207940841700612 6.268486887009271 -0.21877857152085312 1 2 0
345 1 4.171117010731765 5.570853386484294 13.089183188751061 1 1 0
1852 1 3.7295140563366536 1.291738793617267 12.878280495927951 1 0 0
2020 1 5.971089050324262 2.1272141366523925 11.84647516155464 -1 1 1
512 1 7.170709321573138 4.226383646045409 10.979000287282927 1 0 0
314 1 7.698888119128757 5.719515481199298 12.969304856207483 0 0 0
935 1 4.336885989629185 1.2195084189092487 10.495932374310454 0 0 1
1070 1 19.89911127705919 12.733871604669714 11.045752769830646 -1 0 0
1765 1 5.989744246221488 4.302756626075875 13.38612033620554 0 1 -1
878 1 10.680615076375746 0.22642106371039816 14.05322169863301 0 0 0
738 1 11.088442856773703 8.554852363140169 -0.12029041530915235 0 0 1
1717 1 10.603989946626767 0.7262891632068857 11.340997525124687 1 1 0
1236 1 7.883019942303514 3.1250117864008775 8.532176976899397 1 1 0
440 1 12.161238882738912 0.850795753035273 9.75556556033967 0 1 0
743 1 7.992509826959839 2.9010891299543013 13.159528708020838 1 0 1
121 1 13.39090714549397 1.1856757856919975 11.908677540317637 1 1 0
1472 1 8.998239357681896 2.670084455521569 10.833659980993414 0 1 -1
1945 1 11.469335563411102 2.5123627805693465 10.792580442920583 1 1 0
252 1 10.310020150768382 2.3960275358785195 8.890337145355161 0 0 0
1132 1 17.148025086115467 0.13551896139241992 2.8431597579232704 -1 2 0
1721 1 15.058315180294054 3.013934402150713 11.563180785232104 -1 1 0
3 1 12.23867849655528 4.02389636542751 9.296756943213618 -1 -1 -1
589 1 8.87204361562048 3.002437728596747 -0.14862390622793986 0 1 0
852 1 14.692793843018967 0.7275757556370055 13.818184318500824 1 0 1
610 1 15.886896751659826 3.930252122832541 14.001259063469494 -1 0 0
814 1 14.842350523559684 1.3288399838739613 9.834586972477554 1 -1 1
1623 1 22.786648934191422 -0.27689900336108214 11.03844525156604 0 0 0
1809 1 26.85548818111916 -0.09237627560369471 10.219310286881647 0 0 0
1605 1 16.08710635040071 0.566561340804212 11.94889442119154 -1 0 0
432 1 2.5196663563796036 -0.3345039430703073 13.609293527804233 0 0 0
787 1 19.999979084854015 2.679294263277237 13.259467337066884 0 0 0
2048 1 18.845120726934233 0.7876060658084516 11.695859508257161 1 0 1
2025 1 17.521112414969146 2.4822955059864316 12.725411361649412 0 0 0
406 1 24.26643646740881 1.7676084272869557 13.571429992711762 0 0 0
1468 1 21.057817170061387 1.3016262118579218 11.463465421279501 0 0 0
1304 1 19.543012725850325 3.7493798292609393 11.063376600551743 0 0 0
1844 1 28.32476304580995 -0.43389484929140754 6.785089020211869 0 1 -1
1726 1 23.215398931539564 1.9873468613584087 11.28444778172127 1 0 2
1293 1 21.870355092250573 3.432115319271344 9.687557997642052 -1 0 1
450 1 6.673084642801935 2.425574397405594 0.020633108139032963 0 0 0
132 1 17.50966247442614 12.987014205788874 10.635939990825031 -1 0 0
351 1 3.421150866481233 12.722687630173715 5.525895493686338 1 -1 1
2043 1 23.950709638086597 4.133019872070085 10.736285534309015 0 1 1
897 1 25.333588019665612 1.0134705265515995 11.93796634667376 -1 0 0
1450 1 28.1437061669089 2.177559355710937 12.913104170044875 -1 2 0
480 1 27.592356820412217 2.2684662798405104 10.716327477863315 0 1 1
1608 1 26.13344360731899 3.1926304586715726 12.93826762612872 0 1 0
99 1 14.148120294142648 13.096127600484131 11.921320780167921 -1 -1 0
846 1 25.792803953809358 3.5696728541328753 9.027788358054345 -1 -1 1
551 1 28.104024263168863 5.0282106601387175 12.327329981360378 -1 0 0
119 1 0.48675115903755173 9.93875911359659 10.777817973415795 0 0 1
251 1 2.9437953513726365 3.6649030306486337 12.826488203196323 0 0 -1
1592 1 2.064906848887109 7.110419149071149 9.666589922077124 0 0 1
1974 1 28.535634639804908 8.156288314845044 10.366252033815908 0 1 0
1941 1 1.7127052167454213 5.97209881296811 12.384637613089795 0 0 1
277 1 3.0816015467900755 7.785918682449305 12.242972689645734 1 0 -1
172 1 3.1232793050897687 5.5459391080817415 10.873312336791637 0 -1 0
326 1 2.454055405604973 2.922289892571452 10.63449854060274 1 -1 -1
1977 1 0.20793889928107012 6.2176976550250345 10.80854247379112 1 0 1
1002 1 0.5723805570868532 8.056676919322342 12.219612667137579 0 0 2
1069 1 5.252781177111115 7.653540127420577 13.248473097255188 0 2 -1
346 1 8.28507355879696 5.271919941959875 9.323926939645622 1 0 1
1558 1 4.634301150816538 3.900979022723652 11.154422699105636 0 -1 1
1632 1 4.73185534999651 5.578920553637681 9.31954528519585 0 -1 0
1691 1 5.717170507028444 6.452073264482427 11.200670741672768 0 0 -1
803 1 5.658191703774261 9.934907966174139 12.88210394922377 0 -1 0
1231 1 6.118508175437829 7.450627180401632 8.955290431033516 0 1 0
1394 1 10.419811891898622 6.362545121505349 12.67445298101756 0 1 1
977 1 5.146996074392413 8.554088219634016 10.724490516439408 0 0 1
1954 1 10.510755772229242 4.760056312480012 11.176652843723819 -1 0 1
1351 1 11.14299639177164 2.3615809022568355 12.887491483242115 0 1 0
1535 1 26.666591017119416 -0.42746962796056753 3.2244456455267216 0 1 1
772 1 12.899444139794406 6.442311239907178 12.805546962080388 1 0 -1
290 1 13.117635450228672 8.352702553638597 10.047293787650586 0 0 0
2027 1 9.560936271116656 7.1836547292305815 9.787541299318987 1 1 1
1104 1 25.693725359466683 14.09368584926057 3.746279863965916 -1 0 0
1142 1 1.5067889950300812 9.414189892381987 13.875504318102072 0 1 -1
256 1 10.287661219590026 8.453667654569497 13.430397378932698 1 1 -1
1364 1 15.084304825997227 6.316803837948933 13.27573774870915 0 -1 0
1444 1 12.09156045365777 6.52025144360481 10.948466444230593 -1 0 0
937 1 15.24098525878826 5.793334794900757 11.229372318074944 0 -1 0
520 1 13.026623903861026 4.257804912723543 11.663378477050431 0 0 1
265 1 15.309803819444058 9.759311301244042 13.072880325156287 0 0 0
1336 1 12.607112861828565 8.96841164778949 13.157990905364601 0 -1 0
1763 1 14.442741630957794 7.906133007953768 11.761642836139188 -1 1 0