LAMMPS data file via write_data, version 29 Oct 2020, timestep = 300000

2048 atoms
1 atom types

-0.3256682698419642 28.677668269842382 xlo xhi
-0.3256682698419642 28.677668269842382 ylo yhi
-0.3256682698419642 28.677668269842382 zlo zhi

Masses

1 58.933

Atoms # atomic

35 1 1.2297493887479514 3.0902728216611512 1.3054860763668734 0 0 0
130 1 1.4823556979865598 1.560761779303868 3.5270572474439454 0 0 0
165 1 3.3976214919285637 3.4643419068599095 3.0909430207865327 0 0 0
1289 1 6.273694287587258 14.166012308977553 6.794461816750921 0 0 0
4 1 -0.27583524912643753 1.0838639623892825 1.8225456556513548 0 0 0
161 1 -0.18879855095173023 3.3358353784248065 3.216350647561039 0 0 0
34 1 2.21347995546678 5.348880200102288 0.267306446897723 0 0 0
533 1 17.048432472140007 -0.25643808366004944 14.055074302980557 0 0 0
8 1 3.670441203362694 1.3898996402818866 1.3455550695645722 0 0 0
12 1 6.929132226062569 1.7917380745163616 1.5812712484439373 0 0 0
39 1 5.222561055677858 3.366083107473861 1.4750714576809776 0 0 0
134 1 5.222727692789459 1.9544441402566748 3.3798935611212797 0 0 0
169 1 7.099174487779349 3.716014530757729 3.234571284220982 0 0 0
138 1 8.405627797479783 1.7608375077536667 3.342855991242643 0 0 0
16 1 10.295550017388843 1.232638563931896 2.0408971567170386 0 0 0
43 1 8.898930979379982 3.903604106898027 1.1175271853455435 0 0 0
173 1 10.421002352703528 3.0738665009141424 3.341734446356293 0 0 0
484 1 28.535374342269137 12.40782204797376 12.230017365626491 -1 0 0
22 1 19.658058657679135 1.419641396452528 -0.09257112371194157 0 0 0
3 1 1.5643038931053663 0.15052654145361172 1.5859045256689357 0 0 0
47 1 12.314051890794223 3.249831155145619 1.519948127724859 0 0 0
142 1 12.393202308733967 1.7711953926396489 3.5081477175223537 0 0 0
20 1 14.190782472228243 1.5083788982176625 1.5320893448201363 0 0 0
177 1 14.353355686678908 2.863559372232198 3.4418218192176044 0 0 0
51 1 15.734896849481158 3.2779398289584534 1.5226186233508832 0 0 0
146 1 16.492866653354312 1.7508166414491981 3.4270890747377405 0 0 0
263 1 5.04918035286213 -0.3013770970922512 8.731454534152924 0 0 0
53 1 17.851244993403213 3.079340686481761 -0.1661675921655959 0 0 0
149 1 17.7516754724626 -0.23197101624902097 3.3460370060705578 0 0 0
545 1 28.56455577698936 3.261699658862461 13.806009142247477 -1 0 0
24 1 17.587128224273712 1.5397468146207196 1.387680600302564 0 0 0
181 1 18.241367565746557 3.5981068860644863 3.8572151470038722 0 0 0
150 1 19.64639929053041 1.4754940693756398 3.3923108896607386 0 0 0
55 1 19.950901688607367 3.1878108843023125 1.7024304510933406 0 0 0
86 1 19.501785257039046 8.639646404861368 -0.18078541988223693 0 0 0
509 1 25.383890411735628 10.990912781303006 10.524328880354808 0 0 0
1167 1 11.953732686527239 14.10686004096205 5.308792768020613 0 0 0
1163 1 8.46986160249163 13.986646926586968 4.8803533566283575 0 0 0
28 1 21.859470471484194 1.3466191517782797 1.5048382215228793 0 0 0
59 1 23.189308608540202 3.2568852306184555 1.481030588406622 0 0 0
154 1 23.61423222550045 1.1296753687301189 3.099041051907537 0 0 0
185 1 21.4833178152466 3.2575635847049935 3.3899922334405317 0 0 0
512 1 25.216866857368984 12.769294940591088 12.422614776682547 0 0 0
32 1 25.15448712238141 1.4317623389413745 1.3629659239075569 0 0 0
189 1 25.162758619335037 3.391589567576758 3.4376584200378626 0 0 0
63 1 27.412465791833625 3.0928618187442596 1.110541285666383 0 0 0
158 1 26.877423446227787 1.505803241313809 3.166683203366336 0 0 0
510 1 26.820784526214773 12.689148196397108 10.265607660221997 0 0 0
511 1 26.74638114330321 10.94516568166375 12.397200570212084 0 0 0
162 1 1.6146070199070783 5.077890170870932 3.1853264618095873 0 0 0
67 1 2.002216234592635 7.198573364424656 1.5757294177595198 0 0 0
194 1 1.8322171054464267 8.647804051344124 3.016586707995513 0 0 0
197 1 3.6850466917761064 6.9229870574046455 3.425584635423574 0 0 0
72 1 3.56148891453784 8.984044385322528 1.5304088279467587 0 0 0
40 1 3.802658705598711 5.226470941248542 1.6701828949955568 0 0 0
36 1 0.009232710381567033 5.196713469914606 1.4527811176693453 0 0 0
68 1 28.661909929828205 9.282390535726288 1.04040416862224 -1 0 0
1173 1 17.949708699067678 14.057590909497053 3.5820761560387417 0 0 0
143 1 12.556673016576413 -0.14326867638085033 5.590084343896544 0 0 0
1035 1 8.572119389168224 13.890921951665465 1.5664807636168252 0 0 0
14 1 12.22043075624879 1.2750370208614485 -0.05176502116071863 0 0 0
166 1 5.2809002453564755 4.8853112497286855 3.7663757447104516 0 0 0
44 1 6.6074096581663735 5.037428063271429 1.5349527144012487 0 0 0
71 1 5.271857821660494 7.591691709444158 1.7215601389298283 0 0 0
201 1 6.660092192189267 7.233855988845829 3.1648617277682747 0 0 0
76 1 6.994777438823099 8.776650985620803 1.3366639032349548 0 0 0
198 1 5.272831013426503 8.985043821965007 3.6462214223817675 0 0 0
1140 1 15.8934520819746 -0.18781017766062547 1.3238621738586842 0 1 0
48 1 10.774062507523762 4.910805603189328 1.5940733578270736 0 0 0
170 1 8.829507169653962 5.17612914802253 3.4404446921370133 0 0 0
75 1 8.340670172640783 6.615155848385345 1.2488371075923534 0 0 0
205 1 10.762940116628428 6.7903310518220845 3.0282418382408482 0 0 0
80 1 10.987168995025094 8.785826321767692 1.0262693972428654 0 0 0
202 1 8.834314222986103 8.402624296072425 2.300089925775691 0 0 0
135 1 5.247513781490369 -0.26806693084128796 5.147947637894041 0 0 0
1311 1 26.318873290576846 14.106518848674844 8.48740391847128 0 0 0
585 1 6.613283664023213 6.915307058772713 13.810715535297653 0 0 0
174 1 12.542469530927216 4.3945369561957435 3.446166688902072 0 0 0
52 1 12.57082192132193 6.882404692337041 1.6922460218241833 0 0 0
46 1 14.100142515982524 4.765120471919865 1.6079436587992093 0 0 0
209 1 14.082738940871337 6.722319431650833 3.395238850907872 0 0 0
84 1 14.183146417867102 8.721576028126247 1.7460855974915863 0 0 0
178 1 15.944576167729553 4.853570592246187 3.455752689548714 0 0 0
206 1 12.57029521413922 8.779985133090845 3.325690434039933 0 0 0
83 1 15.80050567141807 6.564545450134551 1.4879734616949924 0 0 0
210 1 16.064124838196115 8.263480456434298 3.287071692278922 0 0 0
1169 1 13.94937215652882 13.692642068107663 3.336704793585955 0 0 0
1039 1 12.395718818644992 13.796080518793785 1.3413570766860838 0 0 0
182 1 19.891199660613736 5.141076479722395 2.9333945033283513 0 0 0
56 1 17.503096372585624 4.725182410774657 1.4577300754785065 0 0 0
87 1 19.480448639798873 6.819139917823326 1.2588265585906682 0 0 0
213 1 17.873421636987736 6.722413494697182 2.9241952815166345 0 0 0
88 1 17.70819826790398 8.768092699241695 1.2983393943079462 0 0 0
214 1 19.954015450968633 8.49655106037989 2.971679673181072 0 0 0
522 1 8.24646266389238 1.4186597248176198 14.041817175431524 0 0 0
275 1 16.358598916056692 -0.05573816859237729 8.711315489313563 0 0 0
1177 1 21.1233158997511 13.642919896082601 3.2691878792967235 0 0 0
60 1 21.619671103708242 5.096988902028905 1.2883931748475688 0 0 0
186 1 23.11166393508242 4.852144878186126 3.2809332582680852 0 0 0
91 1 23.345509983823398 6.54563932327273 1.5056259290097098 0 0 0
217 1 21.53833941892735 6.942258321193508 3.242973318504967 0 0 0
218 1 23.201690369519 8.871057306459047 3.1257073181081454 0 0 0
92 1 21.487342082668306 8.380817025277226 1.4543897126446248 0 0 0
1415 1 5.000268351299643 13.91301297985577 12.875406815086265 0 0 0
193 1 -0.10801183899897285 7.357318900928871 2.678116728374552 0 0 0
553 1 6.701395183689102 3.3750090895631204 14.083591128888514 0 0 0
64 1 25.2106045133061 4.804606660792588 1.4277191181017623 0 0 0
190 1 27.09655913950167 5.2959252346904755 3.121913879884224 0 0 0
221 1 25.15458150509729 7.060842254062521 3.0308460388345084 0 0 0
95 1 26.777942686656026 6.830882829868138 1.359682437589866 0 0 0
222 1 27.1138988190693 8.843912310278862 2.46288753873355 0 0 0
96 1 24.816308661675066 8.943586168759998 1.4625746172867053 0 0 0
2 1 1.600408699616889 1.6102793425393669 -0.27134297524603157 0 0 0
13 1 10.200416628037265 -0.21873181270788916 -0.1472723070408194 0 0 0
99 1 1.360007180619913 10.547198095935224 1.0913433654242388 0 0 0
226 1 0.953907195444913 12.520120484537657 2.9534308754264145 0 0 0
104 1 2.912692483616468 12.098912411979333 1.4001141362642726 0 0 0
229 1 3.4476329914128074 10.534945007691686 3.2923498776732494 0 0 0
225 1 -0.23529606416929916 10.363983893895025 3.3637437662167096 0 0 0
100 1 28.527139801583772 12.183154756455425 1.2811458860587046 -1 0 0
62 1 27.233588101850394 5.009962412558406 -0.1818932827314998 0 0 0
155 1 23.327282495480034 -0.2900729520330818 5.43924515472277 0 0 0
1287 1 5.16183802128059 14.12467467816914 8.733265650618172 0 0 0
37 1 3.459455313574706 3.3034091711441342 -0.1002028746751473 0 0 0
546 1 1.2841804293636676 5.550074125959667 14.109802322000244 0 0 0
103 1 5.307628083786349 10.311282379386977 1.5142889954628331 0 0 0
230 1 5.434795842539812 12.080973103347803 3.993131577195209 0 0 0
233 1 6.93314989641195 10.50945461395413 3.1291396085183583 0 0 0
234 1 7.186892511201276 12.101640628353733 1.1237182567992157 0 0 0
159 1 26.99978784582828 -0.24130240361785052 4.886057868432906 0 0 0
285 1 25.243599506997278 -0.12184191206127351 6.649862341096307 0 0 0
1161 1 6.6957731491286765 13.843565862954382 3.253934931996882 0 0 0
79 1 10.586327726109538 9.973745061816784 2.803062063496899 0 0 0
107 1 8.672779367514464 10.41921104651432 0.6909719991167251 0 0 0
112 1 10.561874610747555 12.274938183134816 0.9653457544485406 0 0 0
237 1 9.129650278221671 11.728216638975693 3.087491702926346 0 0 0
111 1 12.872618700238974 10.793603339930574 1.5038088402719392 0 0 0
238 1 11.938250882911564 12.307503209548468 3.0144220883713357 0 0 0
116 1 14.508621707171152 12.382288259492057 1.4350495817639435 0 0 0
241 1 14.3144347984123 10.802179389443108 3.2780054020946086 0 0 0
115 1 15.994366514211313 10.512943856693926 2.010094316334048 0 0 0
242 1 16.0687955737099 12.433061404751426 3.673595826773889 0 0 0
85 1 17.56320196671662 6.705382191496542 -0.15399592498568124 0 0 0
29 1 25.52930299487074 -0.17635070606757183 -0.19588252100582404 0 0 0
120 1 17.73253417410124 11.82976864381174 1.2829576889027554 0 0 0
245 1 18.350422884044512 10.194376976261735 3.245370346778124 0 0 0
246 1 19.29640466385677 12.382874029049987 3.0979943915110617 0 0 0
119 1 19.79636765204652 10.442466019963934 1.0446154726383925 0 0 0
123 1 23.06237862538854 10.434839155588726 1.4500570088378388 0 0 0
124 1 21.534324142934373 12.126606402230626 1.1774569576029914 0 0 0
249 1 21.22564766557239 10.606720041425906 3.35907893819491 0 0 0
250 1 22.986331913035706 12.20023310615515 3.0729297023436555 0 0 0
108 1 5.043326029107722 12.007612373510781 -0.12145640232766583 0 0 0
89 1 21.622248644735038 7.079713877522596 -0.3077725565204213 0 0 0
582 1 4.842732994966749 8.792597486961355 13.984339414906767 0 0 0
253 1 25.3035097663858 10.304176282678444 3.161687659621709 0 0 0
128 1 24.908780655377882 12.138664665410671 1.8657975002338758 0 0 0
127 1 26.640314950813007 10.614018300494486 1.3948035863637407 0 0 0
254 1 26.690408969977447 12.254737088345998 3.319330878941782 0 0 0
163 1 1.5828507188898524 3.332148720045523 5.209754887101431 0 0 0
258 1 1.1461499019065313 1.335266583003227 6.465862629358782 0 0 0
264 1 2.9491103071381013 1.0617957314177136 8.906031765099138 0 0 0
293 1 3.4426665904514273 2.7512296234913727 7.257974793035251 0 0 0
291 1 1.114931583685089 2.9396107527052195 8.740486953221788 0 0 0
260 1 -0.25317486638950015 1.1549924885589926 9.09786766597356 0 0 0
132 1 28.541045163501558 1.866251771670985 4.957140292995265 -1 0 0
136 1 3.389483735520929 1.4482077185640236 5.241423061928604 0 0 0
167 1 5.218367194885731 3.312649686617443 5.82468338485922 0 0 0
140 1 7.243376257061226 1.5777013778668179 5.241380209222984 0 0 0
262 1 4.934442523281811 1.1022020922875813 7.002322552628551 0 0 0
297 1 6.812019866502466 3.742207077813954 7.277464376489294 0 0 0
295 1 5.087376886976493 3.2771173703524363 8.899572716483673 0 0 0
268 1 6.790670646983884 1.7735953774814917 8.52564743671006 0 0 0
171 1 8.352059552677892 3.75169802174406 5.45816415781018 0 0 0
144 1 10.693494410952612 1.3670976355958107 4.883169288743037 0 0 0
266 1 8.531231593936168 1.335195253872914 7.3171431271075615 0 0 0
301 1 10.263872079069925 3.1201842064569476 6.625025189587992 0 0 0
272 1 10.721545356651326 1.72706442521429 9.17546489494731 0 0 0
299 1 8.825618505004707 3.303786591226409 8.896516821766541 0 0 0
1299 1 16.376714509822627 13.63460291559519 8.697138017168534 0 0 0
270 1 12.261214106545582 1.518105496461475 7.435628792478781 0 0 0
175 1 12.486664161924669 3.3696991892519317 5.4206731235010635 0 0 0
148 1 14.532388644630313 1.43821206170315 5.294235110784932 0 0 0
305 1 14.129782278441159 3.315974621731137 7.309809448319624 0 0 0
276 1 14.088049850716175 1.7400196852413568 8.930263420854487 0 0 0
303 1 12.434783555532903 3.2630633023180473 9.210901068678066 0 0 0
179 1 16.220348299002396 3.094419409684894 5.492787545381733 0 0 0
307 1 16.081661779287963 3.1224442262465324 8.885365413839166 0 0 0
274 1 15.984782797213244 1.5675422773248804 6.93063113923085 0 0 0
1047 1 19.48077017519504 14.02049563442533 1.536817956747199 0 0 0
152 1 18.304416309953723 1.3824482483842244 5.656702446224082 0 0 0
278 1 20.1703004916072 1.574429210186036 7.396648486209079 0 0 0
309 1 17.801169734342885 3.672143266347258 6.741696212302479 0 0 0
311 1 20.358081185980772 3.194767760212153 8.821011471239908 0 0 0
183 1 19.849178183267377 3.239932678151399 5.3701791112615265 0 0 0
549 1 3.289562804951335 3.144840895670302 13.840661138466126 0 0 0
1159 1 4.835088345470888 14.096803011282105 4.998312236010241 0 0 0
1421 1 10.647064524400728 14.043559887287286 10.499135294371822 0 0 0
156 1 21.302629529225918 0.9076023599260119 5.215845941143648 0 0 0
187 1 23.067106469934473 2.9246248348427635 5.006649881109919 0 0 0
282 1 23.250231523180055 1.121256272338573 7.329389664425926 0 0 0
313 1 22.012133835161436 3.252309760154933 6.95431646681679 0 0 0
315 1 23.125725208838446 2.9860531780975053 8.96526599282725 0 0 0
284 1 21.585132050805036 0.9628306272428235 9.121848636720836 0 0 0
590 1 12.540770917576692 8.690932698667636 14.101254686578057 0 0 0
289 1 28.550130193037027 3.498995367874222 6.935838867771209 -1 0 0
160 1 25.15458389915264 1.481787463467067 5.132914619103279 0 0 0
191 1 26.993681251034126 3.4696176889837296 5.067851782799125 0 0 0
317 1 24.81502418234235 3.113351273178439 6.614211451424663 0 0 0
286 1 27.168106290226397 1.3333210921565684 6.958405725164515 0 0 0
319 1 26.667440051463757 2.9197732309790396 8.489407233257056 0 0 0
288 1 24.847328040771046 1.5792235501708165 9.228996067190423 0 0 0
65 1 -0.05725555438207203 6.833314630112388 -0.0784116153351371 0 0 0
1171 1 15.80027059194513 14.162634748270715 5.090411993611224 0 0 0
168 1 2.735536273752799 5.067327560666535 5.067018473945901 0 0 0
296 1 3.2453385518263462 4.9423528680867435 8.850763824962188 0 0 0
290 1 1.756047078458407 4.892400802637083 7.1754064449810775 0 0 0
195 1 1.3110932804154598 6.850025681794332 4.9749255740990606 0 0 0
322 1 1.2857048284699495 8.789899339999616 6.541447452500726 0 0 0
325 1 2.9445600323222303 6.903567590941225 6.741060078469241 0 0 0
323 1 1.4377867517715286 6.899964501687195 8.323253186355917 0 0 0
200 1 3.3455674486322144 8.699943140578085 5.030378300653858 0 0 0
328 1 3.418333821875848 8.926591719370505 8.691647588551524 0 0 0
321 1 28.469900817534096 6.853535631278143 6.547481260121705 -1 0 0
164 1 -0.18349818335868048 4.811515162209769 4.881760868260801 0 0 0
292 1 28.09732239276277 4.9506139569354195 8.744558807782054 -1 0 0
324 1 28.614151927888912 8.602000638545633 8.90660701585969 -1 0 0
196 1 28.61150999590044 8.616425995682787 4.569800404815963 -1 0 0
294 1 4.719358876630334 5.196865044161473 7.25933595725886 0 0 0
172 1 7.010910227878266 5.528965669743181 4.971117862930454 0 0 0
199 1 4.9673149896408155 7.133661944151128 5.665403214904537 0 0 0
329 1 6.898015885381795 7.286811019113099 7.737765391968988 0 0 0
326 1 5.055013735886746 8.413997265929238 7.051622578143234 0 0 0
327 1 4.673500252095408 6.8707229709336985 8.9313707235839 0 0 0
332 1 6.073976802290055 9.120551410570602 9.128005128279364 0 0 0
300 1 6.615747498864712 5.409289574176625 8.961039142189454 0 0 0
204 1 7.026591524899262 9.273047126943073 5.45925143719183 0 0 0
298 1 9.13893726056686 5.455093963546271 6.978657278582252 0 0 0
304 1 10.749355203237807 5.330010102048216 9.195918322729222 0 0 0
176 1 10.476197018189685 5.134401754671878 5.2983204717698165 0 0 0
203 1 9.29209069783079 6.981202194711434 4.922542343535879 0 0 0
333 1 10.778722016861023 7.118727225799055 7.040486153267895 0 0 0
330 1 9.056354374178408 8.779425415989454 6.729550927241336 0 0 0
336 1 10.655522712627473 8.813798644537735 8.846408781683982 0 0 0
208 1 11.053904112224075 8.364091568002847 4.987759997023466 0 0 0
331 1 8.792430889091785 7.197748185401546 8.910934930142082 0 0 0
302 1 12.321401158956379 5.011321044584673 7.1115578151045025 0 0 0
212 1 14.190269191651476 8.544903299097422 5.100945672149337 0 0 0
207 1 12.376424331481545 6.608313266668443 4.965456168544644 0 0 0
334 1 12.618816480482765 8.754814819746176 7.107109447109649 0 0 0
335 1 12.21993035403436 6.854048767647638 8.96589071227269 0 0 0
180 1 14.425726619451085 5.135202166053292 5.361268348941137 0 0 0
337 1 14.21643588540344 6.929984503393694 6.706092310590011 0 0 0
308 1 14.04369028537273 4.863232704152567 8.870965507063962 0 0 0
339 1 16.238704454324093 7.1680290808255736 9.008785632464694 0 0 0
306 1 15.924339244828746 5.0475668859196166 7.22376478641868 0 0 0
338 1 16.319766306248503 8.668444189155341 7.092229169124106 0 0 0
211 1 15.92004250918991 6.930955671116423 5.18931956904795 0 0 0
340 1 14.37642281715679 8.232275149506137 8.939254185311734 0 0 0
216 1 17.880221601870844 8.39025504136385 5.486519376919366 0 0 0
184 1 17.743460138868812 5.39444312617426 5.1593276204590035 0 0 0
310 1 20.438139940616672 5.014752117617792 7.168486557715403 0 0 0
215 1 20.184096422765116 6.755497695218747 5.103514965400867 0 0 0
341 1 17.88992837922813 6.916608030787021 7.104111067724528 0 0 0
342 1 19.636901487061017 8.207247766755327 7.27925040467481 0 0 0
343 1 19.74424587569638 6.723520224903411 8.904276963274008 0 0 0
312 1 18.118820164935855 5.129553320510478 8.506563691232264 0 0 0
344 1 18.113281121176556 8.895645785388826 9.10440852761043 0 0 0
314 1 23.453262737052448 5.118496809129023 7.500423124247401 0 0 0
188 1 21.79058012387776 5.198091484015619 5.309944639970706 0 0 0
219 1 23.07962517141521 7.175093240728116 4.838772449833928 0 0 0
345 1 21.908876878646844 6.875920010542708 7.279984259338654 0 0 0
346 1 23.360305365054074 8.857369174945907 6.776965949860548 0 0 0
347 1 23.446777518777083 7.3529372917362865 8.775305831893318 0 0 0
348 1 21.481769743665538 8.648484242034062 8.686540283044575 0 0 0
316 1 21.645381462651386 5.223213803470548 9.075897149734066 0 0 0
224 1 25.026402020262047 8.569628729354331 5.088616106749885 0 0 0
223 1 26.911026813041033 6.912582687598731 4.802839726537864 0 0 0
352 1 25.003839655661373 9.092123274241363 8.705526175213782 0 0 0
192 1 25.129008965495878 5.17582817262978 4.831694193986934 0 0 0
318 1 26.608294646053842 5.628646959121418 6.844814274174063 0 0 0
349 1 24.775005597905405 7.241787686471144 6.992917894902118 0 0 0
320 1 25.242312662457465 5.174493084358608 9.163009360249655 0 0 0
350 1 26.714313039831794 8.52487790049363 6.748109184410758 0 0 0
351 1 26.544438565953662 7.071998124737666 8.668335788364375 0 0 0
153 1 21.870417765003857 -0.2135800153805314 3.240046354971114 0 0 0
227 1 1.2890216125757845 10.835091142776239 4.958320032089723 0 0 0
354 1 1.1858312447451218 12.446032963902436 6.79634717102322 0 0 0
360 1 3.0892003094889873 12.684277165618958 8.578233133559696 0 0 0
355 1 1.526105064847088 10.594836497786916 8.519447849128042 0 0 0
357 1 3.036787270463378 10.361293592452164 6.873929264303379 0 0 0
232 1 3.287828964933189 12.412640000427613 4.9325859671722805 0 0 0
228 1 28.627935798345796 12.402260589379546 4.733233853458876 -1 0 0
353 1 28.495208227953263 10.436912386911406 6.6235775012729565 -1 0 0
356 1 28.571940902108352 12.49863521763468 8.35964950138957 -1 0 0
133 1 3.299365982499029 -0.20085753563830164 3.3896356396689877 0 0 0
236 1 7.596808828735687 11.85566435289393 5.539771598897013 0 0 0
231 1 4.742892203327315 10.393250040287535 5.538110448503173 0 0 0
358 1 4.7367765814971925 12.336460282127193 6.825288864162433 0 0 0
361 1 6.533672012160976 10.641640015100485 7.170868591638234 0 0 0
359 1 4.716225002525461 10.875198337953297 8.660776441794432 0 0 0
364 1 6.5844345794514885 12.463379198881182 8.60832023201375 0 0 0
54 1 19.548784601345197 4.926109685797303 -0.09152988659917441 0 0 0
526 1 12.434281066665054 1.4466563734174092 13.513279857913505 0 0 0
235 1 8.974354953629986 9.80428071396474 4.322291992312216 0 0 0
240 1 9.744968451122688 11.737512194470098 5.235356714025546 0 0 0
362 1 8.459703243496211 12.151608627600261 7.50538992580407 0 0 0
365 1 10.889896796105884 10.370066445958393 7.020211014301772 0 0 0
363 1 8.087443284616135 10.172707722175137 8.47088127724972 0 0 0
368 1 10.549321630031342 12.128152723926313 8.737746691826043 0 0 0
401 1 14.353940608240004 -0.3183021045123457 10.258402093100473 0 0 0
287 1 26.699531472689493 -0.30593133312231013 9.060175194773699 0 0 0
565 1 17.655146477222146 3.284075612018537 13.899256522658215 0 0 0
366 1 12.96444937987933 12.559497932602818 7.356972293043766 0 0 0
239 1 11.965114096021427 10.630977928545088 4.912225838015569 0 0 0
244 1 13.63172213493419 12.186468223868973 4.927572393751332 0 0 0
369 1 14.220102389628789 10.454700524068869 7.303728816966632 0 0 0
370 1 15.649786340351973 12.261616862752323 6.6180173103402895 0 0 0
367 1 12.388882073922455 10.33031587176035 8.860081392480335 0 0 0
372 1 14.504601128932393 12.295481081258078 9.343841530221448 0 0 0
371 1 16.289321205811333 10.724818425351359 8.601903082996937 0 0 0
243 1 15.701997241724419 10.448551044341336 5.261823565918721 0 0 0
73 1 6.589780707424635 6.871672399365753 -0.07715031233655956 0 0 0
558 1 12.367729145217572 4.998961616508207 14.107042818211925 0 0 0
557 1 10.628194395505973 3.2107368830748504 13.824331376553683 0 0 0
247 1 19.761502467193246 10.645704374607824 5.266974180822132 0 0 0
248 1 18.028902271179923 12.039283926386323 5.421546233543424 0 0 0
373 1 18.419565196282704 10.416280030127453 6.988838215921155 0 0 0
374 1 19.794976927751144 12.49222646966394 6.822220554743337 0 0 0
375 1 20.12760056526443 10.802676497290028 8.871306911883204 0 0 0
376 1 18.24420451126003 12.71195408634715 9.245168309772575 0 0 0
1029 1 3.605905309423258 14.07440849220923 -0.3227687625151386 0 0 0
506 1 23.225763350580543 12.243592522382515 10.501055234003331 0 0 0
505 1 21.465579905902395 10.57648759075587 10.954164188316742 0 0 0
220 1 21.343072013095814 8.830282474666705 4.852264181916045 0 0 0
251 1 23.156901003199117 10.577590347772741 4.903205417522497 0 0 0
379 1 23.137613010004813 10.552478659773415 8.935262716132994 0 0 0
380 1 21.861687650687635 12.373902527352307 8.411388425853499 0 0 0
252 1 21.435796733070887 12.147224600545528 4.990503391304188 0 0 0
377 1 21.686369663927913 10.56850986005613 6.801154893627986 0 0 0
378 1 23.301204203280747 12.47377690214305 6.725007044534281 0 0 0
1055 1 26.861255504819113 14.111061510229868 1.5333319647842543 0 0 0
1043 1 16.342503613379208 13.979526191088267 1.5012159568374523 0 0 0
384 1 24.727829816316614 12.37213352373552 8.340303438962227 0 0 0
256 1 24.8432419642958 12.40425137984089 4.914176778743777 0 0 0
381 1 25.0975432357246 10.552212966237759 6.498367180820159 0 0 0
255 1 26.82986828501018 10.30947091566085 4.801086402932045 0 0 0
383 1 26.75504887760524 10.618695149384354 8.440483719283455 0 0 0
382 1 26.951344984851403 12.77011044436865 6.441310737076511 0 0 0
386 1 1.620079056808303 1.248832371540166 10.615381061539102 0 0 0
419 1 0.9940623999561473 3.315365589031966 12.379840827991528 0 0 0
421 1 2.9633408209222734 3.0533878195606654 10.667125018509958 0 0 0
392 1 3.2024358921678258 1.2858596283401331 12.617000575625033 0 0 0
388 1 -0.28034268387272426 1.3786662687168294 12.336703945570822 0 0 0
417 1 28.470949882775457 3.4082419959709753 10.528783957184407 -1 0 0
1157 1 3.2383097467678716 14.011986728833191 3.076579297147879 0 0 0
1155 1 1.4519284437815054 13.864248068238409 4.886870395574213 0 0 0
508 1 21.032693394568703 12.454181371922749 12.917211097832412 0 0 0
507 1 23.31901445970668 10.711664958039988 12.369815186605049 0 0 0
390 1 5.150989868878198 1.1849771733963517 10.49065334146611 0 0 0
396 1 6.650941227862821 1.7042409837102608 12.202897590397646 0 0 0
423 1 4.821983333693234 3.1858860325777023 11.945710861102997 0 0 0
425 1 6.932624189695753 3.3361103099719855 10.433453723637612 0 0 0
554 1 8.426712962930317 5.22634427335168 13.973084279490507 0 0 0
542 1 26.80434447638683 1.5009317251066907 13.973263897618356 0 0 0
561 1 14.291687446962056 3.223632477920681 13.909881747224444 0 0 0
427 1 8.52758255104502 3.603076109512474 12.21448080777718 0 0 0
394 1 8.810993015280525 1.5002709915921588 10.595360991333038 0 0 0
400 1 10.433510308075345 1.5254052171053205 12.482140358694991 0 0 0
429 1 10.402424592715258 3.4340603105491536 10.820760324385715 0 0 0
431 1 12.507203250619925 3.3273041497009825 12.179516862563505 0 0 0
432 1 10.283036837696873 5.143549546045652 12.401864067126807 0 0 0
501 1 17.926537892607286 10.680931546033873 10.329650296922484 0 0 0
581 1 2.9656478734354543 6.794443432890952 14.007205044349396 0 0 0
502 1 19.696814457532383 12.725655325009567 10.908284566931213 0 0 0
398 1 12.623827082813389 1.241928956567501 10.675701586858233 0 0 0
404 1 14.368098295847526 1.5098477662454453 12.27877781682194 0 0 0
433 1 14.420498977655274 3.0860421049409004 10.833556038836333 0 0 0
435 1 16.13909787186978 3.1404568877170007 12.148845691420563 0 0 0
402 1 16.189752455921138 1.3462604886144571 10.624773325797781 0 0 0
503 1 19.417416755406173 10.908149713785853 12.840974041373483 0 0 0
23 1 19.74980337894496 -0.23461062904845964 1.7091626186991085 0 0 0
1181 1 25.010112456366855 13.859968343467475 3.2851525037199125 0 0 0
280 1 18.08613741425689 1.660781006761385 8.55027951448935 0 0 0
408 1 17.760275781120065 1.0009077602200052 12.354241003681125 0 0 0
437 1 17.840667170745554 3.324655330738172 10.663361655776509 0 0 0
406 1 19.416909050092244 1.2419460011882455 10.637549905947246 0 0 0
439 1 19.440297746013265 2.9715487988309266 12.303642549881532 0 0 0
1437 1 24.8053556496266 13.946340327515815 10.658068460722083 0 0 0
497 1 14.387808244335773 10.352351711742307 10.504869162985875 0 0 0
1031 1 5.211810991855295 13.993061153835171 1.4183953622309364 0 0 0
410 1 23.04157661570568 1.3358155771406146 10.881081746563554 0 0 0
412 1 21.513267022146955 1.2954219841973422 12.444532561833764 0 0 0
441 1 21.510323619813676 3.4884529992908435 10.825339944481744 0 0 0
443 1 23.31859318571594 3.1479211550331185 12.583450528409925 0 0 0
504 1 17.81182656120287 12.353321176155395 12.740588717137744 0 0 0
500 1 14.465019000595676 12.387176896027324 12.400014404385542 0 0 0
416 1 25.01990810311868 1.3692988037899534 12.315437955980721 0 0 0
445 1 24.76728632958757 3.4347346622332453 10.645221260277632 0 0 0
414 1 26.946258984543483 2.0028048468543767 10.398734739001895 0 0 0
447 1 26.864607951698183 3.333453333106883 12.37347073759336 0 0 0
93 1 24.863665195172267 7.015047843712977 -0.20634694641446683 0 0 0
418 1 1.1863484929189896 4.903758086249183 10.420879931620023 0 0 0
451 1 1.0610062972306205 6.932825173063308 12.325910883540631 0 0 0
453 1 2.8950036977436278 7.063295441239569 10.39801517446371 0 0 0
450 1 1.241942142674445 8.556560401723331 10.463199480688445 0 0 0
456 1 2.966611420235841 9.151368611152765 12.400959184150109 0 0 0
424 1 3.017872473108293 5.072062265147359 12.455635322408146 0 0 0
420 1 28.52995090791559 5.4238820844071824 12.6367498402226 -1 0 0
452 1 27.9938175209887 9.072599053858331 12.338957613730019 -1 0 0
449 1 28.433882060873337 6.78611715925266 10.23129356586618 -1 0 0
1411 1 1.3543950068263728 14.122434740484282 12.450164295998892 0 0 0
1051 1 23.114126089396557 14.148703374498057 1.1529322378836846 0 0 0
422 1 4.759569107605795 5.12726057494496 10.50608236730331 0 0 0
454 1 4.6762141914092785 8.859750610129774 11.011528565927488 0 0 0
428 1 6.724931603232489 5.084921986269371 12.088271085968794 0 0 0
455 1 4.554382760328587 7.212468707533451 12.322972141564103 0 0 0
457 1 6.438071384618012 7.3465902440691035 10.820397241523569 0 0 0
460 1 6.791820040553475 9.139609894642566 12.200122649402633 0 0 0
1165 1 10.308885686119476 13.679782374157941 3.169666107233685 0 0 0
426 1 8.545128664957751 5.574924484223266 10.64470213451116 0 0 0
464 1 10.536643618690093 8.808127918773902 12.56382275454302 0 0 0
459 1 8.452959121395315 7.364246793245164 12.401470200192731 0 0 0
461 1 10.356880286536196 7.267136370897294 10.712605254495616 0 0 0
458 1 8.668727571567915 8.946452368180916 10.336426084587247 0 0 0
496 1 10.300848975083959 12.373099765088002 12.202470806242024 0 0 0
462 1 12.190073230518067 8.704487574216778 10.68650613198668 0 0 0
463 1 12.226058412160207 6.835183228838442 12.61700110689515 0 0 0
436 1 14.20650467290797 5.395692495305896 12.664274363004964 0 0 0
430 1 12.785362141608513 5.298746596634954 10.491313108358609 0 0 0
465 1 14.245501219859253 7.049671830664461 10.848489676319717 0 0 0
468 1 14.305004250814362 8.476589075562368 12.340093880163334 0 0 0
466 1 16.12879571853236 8.984459730137237 10.51534164564375 0 0 0
434 1 16.388651910890154 5.051561871340978 10.469437625626682 0 0 0
467 1 16.394861943235135 6.847359674126673 12.349973078150885 0 0 0
494 1 12.86695484640063 12.395842714919223 10.844708770361517 0 0 0
1301 1 17.713274739336264 13.895569428451603 6.726181000084327 0 0 0
438 1 19.619323443597466 5.080055105279429 10.708655183800426 0 0 0
440 1 17.665786211561155 5.0104476002797815 12.310672250311262 0 0 0
469 1 17.819430859963923 6.73839936843343 10.40684676895531 0 0 0