LAMMPS data file via write_data, version 29 Oct 2020, timestep = 300000

2048 atoms
1 atom types

-0.7532317311401098 29.105231731141558 xlo xhi
-0.7532317311401098 29.105231731141558 ylo yhi
-0.7532317311401098 29.105231731141558 zlo zhi

Masses

1 58.933

Atoms # atomic

142 1 0.9296226072470046 0.5460437147315964 1.529382239643978 1 -1 0
1404 1 4.452142944106938 0.6514335162159797 4.462004189055418 1 1 0
534 1 28.144398495880424 0.13616104200467838 0.9185285920306723 -2 1 1
1729 1 2.267729904680748 -0.16849491469413314 4.492490565125047 -1 0 1
1483 1 -0.14562119266194773 -0.7294298833383905 3.9297819628669632 -1 1 1
1993 1 2.0106290503527013 -0.4312022729624355 -0.4541477593489124 0 0 0
1301 1 4.597402237686567 3.7899293032633805 1.0261250086504037 1 1 -1
1158 1 4.365288454553204 2.831394069457871 3.230538019901733 -1 2 -1
896 1 2.373239213012401 4.820853073146918 5.253755657238636 0 -2 1
664 1 5.212537792228632 1.345417156220647 -0.09403363104506846 2 0 0
421 1 8.49871848832753 1.33842935102536 2.095930173010773 1 1 0
1670 1 5.773531068720049 0.28686172843632884 2.7610897766983866 -1 1 0
1680 1 5.562540000551706 5.209505316008395 2.6640512744719587 -1 1 -1
1786 1 6.152443175365607 6.187544109332782 0.5705408329688952 1 1 -1
913 1 7.052706628132671 1.7210566117680814 4.304680757090145 0 2 2
1885 1 7.004618111323153 3.8956249058739765 3.4462977963400503 1 0 2
1058 1 12.046345655724192 3.030829930816914 3.074769366031361 -1 2 -1
265 1 18.116304031411048 14.038617145324713 10.10533305930113 -1 -1 -1
1984 1 10.553590101536866 1.9146898407509338 4.812909738437598 2 1 2
1936 1 1.0552799902180905 -0.7035736979889797 8.46981068197408 0 1 -2
934 1 0.7610761836640156 -0.1763622059567581 12.090908251282308 0 2 1
1893 1 24.81387137767252 10.116482305207418 13.406997742332617 -2 0 0
555 1 10.556754397006092 2.202764661551764 1.3131529582538484 0 0 0
1858 1 14.444813507960305 2.9617619415262353 2.5600524829049047 2 1 2
1312 1 11.190195424067554 5.3874591322830705 3.0880536979153836 1 0 1
463 1 17.002224431740302 3.6076301067821586 0.9978882826415558 0 0 0
1861 1 14.305042560297219 4.213808834624613 0.21730493717984845 -2 1 3
1363 1 13.006800981824057 0.9544822434241282 2.1868418669485465 1 1 0
871 1 15.333246070657276 0.6283774222137253 3.234382202624958 -1 1 1
1214 1 14.75972259421893 1.9812393123094592 0.1598411347772125 -1 1 0
1232 1 13.229830723090682 1.4552940879222103 4.342843941874003 1 1 -1
257 1 2.776915948614648 1.7644479439410952 0.13197592310287543 -1 0 0
952 1 28.9165207874004 12.525281901103432 8.696150735942686 0 -1 0
1115 1 2.5962363709519507 11.099945173168509 13.65047093054321 2 2 0
1262 1 17.131270918849467 0.9402762453096511 1.680663222237008 2 1 1
1628 1 18.97385229801523 2.522208903089045 1.6453993383940784 0 1 1
658 1 19.365108305792646 1.8343543425034246 4.222386535179044 1 2 -1
393 1 21.157583110172105 1.8824893552686706 2.6688228697179204 -1 0 1
1077 1 20.32759939472161 0.6636787881753288 0.8054260125796115 0 1 -2
479 1 19.25209073751094 0.017096072959400965 2.4350857721412367 1 1 0
1054 1 16.528898331819477 2.6565291305687992 3.191442011444762 2 2 1
501 1 22.43745482161612 1.5479992841337706 8.369963196192 1 0 0
1690 1 13.363056343325407 0.0038437223116593033 5.961594345393293 -1 -1 -1
1267 1 22.69706800691725 3.5064498021070234 2.3901551515036883 -1 1 0
1108 1 23.189058650682448 1.453129730253401 0.7527708858714999 0 1 1
1702 1 23.26654957590317 5.075418569090772 4.033081638951546 0 2 1
1696 1 25.21255601426759 3.0628728628206776 2.170601369239094 0 0 0
1675 1 23.74345960436893 0.8871769481544718 3.169416760378236 -2 0 2
833 1 23.811882920517697 5.946317307239603 1.7570636971479532 0 0 -1
1049 1 21.43990077538342 0.4876051885844528 4.490311262234084 1 -1 -1
117 1 3.78155618524141 0.49335478495928364 1.8188622772319718 0 -1 -1
345 1 15.267812745190879 -0.5431223205387425 0.8953176834764185 -2 -1 0
656 1 27.8360630816559 11.731655556112026 -0.21950615269107265 1 1 2
1215 1 26.74018491527682 4.857106080173768 2.2438707542033858 1 1 -1
1650 1 28.750371342652755 2.3997362962546958 1.8972636381093828 0 2 2
1010 1 27.065701217575892 2.013064696687353 3.232345265375991 0 -1 2
1066 1 25.880136347305154 1.060330275453996 1.22462265713997 -1 0 1
1052 1 2.9271467281795616 0.44765041016777585 13.786856557783697 2 0 0
372 1 18.299737387176485 3.8820039158126782 13.648349971393321 0 0 0
977 1 1.4848467968220045 14.147403887761191 11.576136562075831 2 -1 1
689 1 2.1704109879163096 2.0789635076731905 2.708392929106954 0 -1 1
99 1 13.903583704314187 11.747280568495686 0.33364931277711407 -1 2 0
1784 1 28.498424910963337 7.053093313930806 1.2913302516903844 -3 1 0
845 1 26.617624187964992 -0.2137788796937885 2.817602418264165 0 1 1
1050 1 1.5831718585211805 10.277834568921408 -0.4429108535404855 1 0 0
468 1 2.413890280246203 4.554294334110537 0.17671046657473133 -1 0 1
1273 1 1.0463978938882204 4.2093647980879245 3.808669315554126 -1 1 0
1271 1 16.962406000342085 -0.23867657152407584 9.386136459759184 -1 0 -2
218 1 3.2626642582508403 4.833946219958714 2.3124340177264076 2 0 -2
385 1 3.3284783243311153 6.795194734092374 1.1693841817983242 0 0 -1
763 1 21.516757631512093 2.4059039090370886 14.010985888151005 -1 0 1
1909 1 7.891746053143985 7.471907510111404 0.2913532178667375 0 2 0
1843 1 6.017679427572255 6.677398737079349 6.825138709501376 1 -1 2
1387 1 1.3766299900391874 6.417100824409488 2.0105790419330574 1 0 0
803 1 24.058795329707294 8.409452542482846 -0.5475434393204264 0 -1 1
1662 1 22.504318937408215 13.493299304638338 9.128451847554624 1 0 0
428 1 21.54766035965457 13.156234661395352 11.557779354659141 -1 -3 1
91 1 11.777711673318265 5.0820778290565345 0.29067224105647327 1 -1 -1
925 1 8.310825011002464 5.8523442301916635 4.305553668931085 1 -1 0
987 1 8.336688405181862 5.741013676945323 2.042964952005249 0 0 2
1408 1 10.196325142251798 6.6557848344430734 0.8165201800185642 1 2 -1
999 1 10.29802796037556 4.984824848362231 5.492157046517439 0 -1 1
237 1 9.822398398472432 7.419545194208638 3.1388055895135385 1 0 1
520 1 9.451156662303818 9.114652781337119 1.630476421879841 1 -1 -1
1872 1 8.389527471694626 3.32548319240544 0.8126228986501367 1 0 2
386 1 8.120001363264013 8.975227308335334 3.9754222723386414 -1 0 0
1044 1 13.958824643896396 8.732277273781948 0.530399561401425 -1 0 0
1682 1 14.119692440011953 5.582995799710024 2.2639676700559743 -1 1 1
921 1 17.088699391908072 5.688535474675864 2.248787316889886 0 -1 1
1711 1 12.349562012434935 7.331775137677152 2.0812738244725675 0 1 1
1476 1 14.4743981870299 7.782183544836043 2.5658555894268136 -1 2 2
615 1 17.010943765481905 8.077189722167326 2.849467596208304 -1 -1 1
924 1 21.06413852956741 2.877533567216488 0.2148275538456469 1 -1 0
1686 1 14.946329397179923 6.599418186348194 4.764003965478751 -1 1 0
690 1 13.648996613438282 6.623202965744877 -0.14151476490905213 -1 0 1
923 1 25.434716638523646 5.138632137877602 0.242026943765681 0 0 1
217 1 6.432271561055623 13.711015012822607 8.945951160229829 0 1 -1
1071 1 19.232016123070572 4.335130648455864 3.018008357885939 1 -1 0
363 1 18.26995381979929 7.496789421080269 0.5180774243404089 1 -2 0
626 1 21.193911854754894 5.22019728494218 1.946352235314159 -1 -2 1
1000 1 18.15400558934897 6.280547135007531 4.336363245786374 -1 1 1
1524 1 18.898264333790372 5.158702805459049 0.5417011831108143 0 1 1
1600 1 18.129493626246244 -0.6589672366974543 4.62794290996069 0 0 1
1201 1 16.527482091315306 9.06591307159504 0.12010956605687273 -1 0 2
1096 1 17.05716114601335 9.604305616266846 13.65278161060437 -2 0 0
547 1 23.322518071285067 8.519940594009105 1.7491529687919742 -1 2 2
1694 1 19.59689087573041 6.828347268463202 2.2608686772230824 -1 -1 -1
671 1 22.015943861419522 7.46856444637692 0.22521306496488502 1 -1 1
1015 1 27.45315043236983 7.009675051357962 4.237835801229457 -1 0 0
60 1 27.740064179446918 4.614982046535753 0.4180257318677605 0 0 -1
888 1 0.4431656469127039 4.159251211567549 1.3654625558047462 0 0 0
1342 1 19.076279727336697 0.6082113834248679 10.493346850388717 1 0 -1
226 1 24.260903748251216 -0.056023170021841096 8.22444483254213 0 1 0
939 1 25.243482866928936 6.597375603035606 4.761623810375028 -1 1 2
957 1 25.600824652419533 7.4476280054121204 2.2053553782389623 2 1 1
1749 1 28.035651028527788 8.90591286719873 2.6642860883705195 0 1 0
1623 1 -0.4579195369840923 10.897172550224234 1.2689565390266178 0 -1 -1
527 1 3.944279719084798 13.923397144859432 3.039172308295336 0 0 -1
1833 1 1.8581512574274437 11.480064202418536 2.047672867763505 1 1 0
1828 1 0.5068918100413169 8.399742648706727 0.9469569779724807 -2 0 0
611 1 1.9870974676255169 11.583709554858563 4.572892633110246 -1 0 1
850 1 -0.39775084943718203 12.665470160667798 3.2895591690643764 1 2 0
351 1 1.7584831406858181 13.760179077936824 -0.39648857696344697 2 0 0
1167 1 3.866862904749264 12.53034182213821 0.8449846750274776 0 -1 0
1134 1 6.837928864514001 7.61250328242518 2.63699180365788 1 1 0
581 1 26.97062489439955 1.3322024996593123 14.105028350081719 -1 0 -2
1188 1 3.0387149831151388 9.201987177368586 0.7874752911592664 1 0 2
1572 1 6.010438143752386 11.773386576940108 0.993273997130981 1 -1 0
1588 1 5.923286455152474 9.427829552060395 1.3125615462550022 0 -2 0
1466 1 27.610081432785385 -0.5084191914523141 11.646004114308345 0 1 0
355 1 7.737568594505817 12.366783201010202 4.597424311391543 1 0 0
177 1 11.570653852141415 11.409216290842018 13.769019041839464 0 0 0
322 1 9.53660780382572 12.356942830558806 13.912523700920222 0 -1 0
1526 1 7.911085985878298 12.638836365104279 1.519555844600566 -1 1 1
897 1 11.097789761465753 9.708188254510295 3.124437963757285 -3 -1 0
796 1 9.766011640623027 12.795889617654584 2.573767005134273 1 -2 1
164 1 8.155825761152832 10.607475802788873 2.418041262440154 0 1 -1
1437 1 10.163009598098514 11.02577433127075 1.068225778905638 -1 1 -1
130 1 11.520847102354265 12.616761177418073 3.868508601853609 -1 -1 -2
568 1 10.099213456517553 13.528798401673775 0.12923467146773548 2 0 1
805 1 15.270978923755587 9.885563539633672 2.0289463767796656 0 -1 0
397 1 16.287631262711024 11.485627517338038 0.33626382043519 1 -1 1
2047 1 12.825673119881529 10.537015453728632 1.8963345329117667 -1 1 0
798 1 26.537489866402716 2.6759335519763794 -0.6854583871470239 0 0 0
1008 1 14.810066660696723 12.654345732313987 2.3350268532895515 1 0 0
1355 1 15.806633705569505 13.49796112439825 4.88976454601089 2 -1 -2
1451 1 14.795079366594132 10.90431439443857 4.356092639918695 -1 2 2
1726 1 20.712211023056717 11.131032679611375 1.605640067392645 0 1 2
1002 1 20.3139545080301 9.348931368010403 -0.620548830423347 0 1 0
1384 1 17.211375804859856 12.446717337925811 2.5117992383959735 1 1 1
1619 1 18.754179608408272 12.58643671175223 0.6592394242267245 -1 1 0
1417 1 18.681916629745068 10.147946207461175 1.283398885308027 -2 0 0
361 1 4.406694606031064 2.6011536326548006 13.281341090773015 -1 -1 0
1074 1 19.697245211174227 13.47057549844571 3.201557180921684 -1 -1 -1
698 1 23.57531747927237 3.6348842273038793 -0.3662764613488992 0 1 0
334 1 23.49399503547515 6.296229096952493 -0.5644194251628398 0 1 -1
1291 1 16.6292688845283 7.312677357800625 13.186489441216153 -1 -1 0
970 1 25.71543827050894 9.44450686188549 0.45931408461671785 -1 0 1
996 1 23.159541630473548 11.467839840130452 1.6565581592563023 1 2 1
255 1 22.750951855390227 9.930949605026221 0.14444489948608263 1 0 2
1380 1 21.877328259970362 12.013117861762858 -0.5015123297445581 -1 0 -2
387 1 22.1052684035714 9.720788993352437 3.59752242843438 -2 0 0
557 1 24.540974235549953 10.268299840520598 2.8158296365314084 -3 0 2
1313 1 20.778843473533243 8.791139763694899 1.8594885449399645 0 1 1
1140 1 28.80362979604375 12.40864358979178 11.915282771584728 0 0 -2
431 1 23.603519374038832 0.4686216668193459 10.743043970039361 -1 1 1
1035 1 28.348450829402857 9.062148663744335 0.047603645621307034 1 1 1
1119 1 25.91055896437981 8.988058337611557 4.170350527868662 0 1 -1
1219 1 25.49407298539981 12.651321370526976 1.7034245743753784 -2 0 1
1489 1 -0.5173728160987284 10.510295397287628 3.527049533910124 2 -1 1
231 1 26.788701322439664 10.803869989786401 1.6427315031554932 -1 0 -1
585 1 28.917860826018355 13.442155906279146 1.307344652350464 -2 0 2
340 1 13.508615229775849 -0.02818159931045161 -0.46308157192390303 0 2 0
619 1 22.278184406345055 11.200348928250113 9.945497231926064 0 -1 0
990 1 -0.13008837799806983 1.4446317842340544 3.644727152465858 2 1 1
1763 1 1.306804644589862 3.7296375326721813 6.757223322879922 0 1 0
481 1 15.50042591868599 13.745506419901938 0.2452481389218485 0 0 2
400 1 -0.7249004804753554 2.0964917631408517 5.85083343831291 1 -1 0
1400 1 1.1166930592741902 1.4296519280113338 7.059964753956124 0 1 1
56 1 3.4490107878121625 0.6685110939443073 7.918578119205602 2 0 -1
736 1 3.3100234035751868 2.502927003539224 5.869817659308448 1 -1 1
5 1 13.144108784329529 14.071500486395482 8.264084429448346 -2 0 1
475 1 8.234219463530048 4.5727599817100355 7.399631950207192 0 -1 0
170 1 5.821745660772339 0.7122116355281423 6.505702985669424 0 0 -1
1932 1 9.034039779944607 0.9236348377548367 6.406479343936429 2 1 -1
57 1 5.424826489390362 2.7003689966381463 5.57794577371071 1 1 0
1972 1 4.244640871542279 2.982295846240928 8.326956647671414 0 2 2
260 1 7.220970381053288 2.550697035901747 6.895957725345099 0 0 -1
549 1 7.630351033625422 0.6450309446846314 8.317786509404385 2 0 1
1889 1 15.377510037252891 11.17825643079967 13.711559841200849 -1 0 2
1462 1 6.588403785545651 4.580484646544775 5.734110175096364 1 0 -2
89 1 9.392932921375108 3.6647982578775773 2.8696389407989398 0 1 2
812 1 12.663730591391834 1.6252994826428218 8.136471797200716 2 0 -1
1616 1 8.617818105211734 3.241566484038367 4.998097168369049 1 -1 1
1260 1 12.64960280651648 3.1390060938307616 6.184720102006006 -1 1 -1
1099 1 10.485884964923477 3.1990874045876425 7.114758124804783 0 2 0
1626 1 9.412411394105767 1.8645711600988988 8.524906824425008 0 0 0
2034 1 10.991061068225722 0.5396751504669941 7.424756737665213 -2 2 1
1965 1 17.380354274610667 1.527418204612116 5.356388164959539 1 1 0
1179 1 13.661906176088939 4.4447544437442685 4.535868886221419 1 0 0
843 1 15.680498985822473 0.7505811146074022 7.449256383147699 1 0 2
1030 1 15.334750898887131 2.5359996022084332 5.210416100777073 -1 1 0
744 1 12.416553935222694 6.26631837470714 6.4400740709172934 0 -1 -1
81 1 22.052193115781606 1.3144858625913547 6.345043906237604 1 0 0
1228 1 20.91041012716982 3.878537584098525 4.4634926785539575 0 0 1
733 1 19.202356841890527 5.151179488605659 8.085934138487865 2 -1 2
1632 1 16.926226802429326 3.1915687570090663 6.825323633554377 0 1 2
1905 1 14.449097041513943 2.889483873348217 7.359813089397285 1 2 1
1006 1 19.69747159677143 2.455863257996834 6.102262358931256 0 0 0
1959 1 18.64907533405254 0.0945132173728751 6.70665947446773 -2 1 1
1020 1 21.29860295933441 4.196261250725474 6.640862283840769 1 0 0
495 1 23.115646979914324 2.898842963609015 4.6361941367255675 -1 -1 0
1517 1 25.9036237079113 3.9813191428141126 4.4004130189831985 -1 2 0
642 1 24.460630389571655 2.2184684194783664 6.735721257414639 -2 1 1
1779 1 20.57715450028016 3.1607668188504654 8.279756758730647 0 0 0
1281 1 25.111277874468584 1.8885288661165887 4.4610589246086025 -1 1 0
48 1 16.09537120107381 6.360882516001545 0.4110400398009362 1 -2 -1
893 1 20.39456430321728 0.8442897147920703 8.289994277223473 1 1 1
1494 1 28.263860350154673 3.7721321855695864 4.368372432389216 -1 0 -1
214 1 28.684032662704993 0.562083576630984 7.7616288280193135 0 -2 0
1975 1 27.019713591638997 2.6546530531276074 6.369655317813941 0 0 2
1177 1 26.996251674751022 1.7413790833874367 9.025898784998546 -1 0 0
1427 1 26.421618980576937 0.4874844509295553 6.796445388471052 -1 1 -1
1602 1 28.837169408401216 4.399246343288832 6.848566763044226 -1 0 0
1349 1 2.3754310145597697 7.076272618296321 4.15901392001222 0 1 0
1990 1 -0.5916300124560836 2.4573827472514345 8.764688236909022 -1 1 -1
1639 1 1.6130624913193206 9.303445105382282 3.3737130589663273 2 1 0
1490 1 1.2872994652205612 7.026940938070988 6.214271377683822 0 1 -1
1741 1 2.285036415291257 5.429480561050781 7.601543958791066 0 -1 0
1 1 4.558397496640202 6.348038014711723 5.051012880773187 0 -1 0
1409 1 0.8437495405985391 9.330263843071098 5.57527755591959 2 0 0
1097 1 0.05326076435893157 7.772484907927964 3.6082367789076963 2 1 -1
2028 1 1.8833533890909235 7.140072975059495 9.195406112452122 0 0 1
917 1 0.8973644202857141 9.090279908392676 8.1470585159033 1 -2 2
1029 1 3.392808931705864 7.801477845720587 6.7080367653098625 0 0 0
775 1 3.4779046780499288 8.906070398502381 9.281362977005333 -1 -1 -1
1048 1 8.728582139393893 6.922248361140733 6.096016082236523 -1 1 -1
1782 1 4.243794892558883 4.595023087058867 6.499452473915624 0 2 0
1584 1 3.585418951763696 9.419549102804748 4.926942257844386 0 1 2
1881 1 6.648536405238327 7.240229422481368 4.809441855689698 -1 0 2
1817 1 6.161526397475828 4.18496785800314 8.330885323451213 1 1 1
1781 1 5.399340440475723 8.683388143506141 5.76969959729709 1 1 0
189 1 4.430629134124336 8.586283416538535 2.89364797400765 1 0 -1
367 1 8.040265294369373 6.619916952289605 8.533795412020908 1 0 -2
984 1 10.737641602671394 8.313912550844485 5.066134380442048 0 1 1
1791 1 10.573194270146224 7.424052766178281 7.5855160084454845 0 0 0
1971 1 9.602991874928 9.541635038454537 7.371123205982203 1 1 1
64 1 12.381134618428726 8.609284151898265 7.2419102289372725 2 0 1
1732 1 13.128302343153301 9.062688906039606 3.9584665211949064 0 1 1
509 1 9.645137986859314 8.679288682024 9.71539512096153 1 0 1
1796 1 11.158644075467974 5.1310620672722855 8.563912935716914 -1 -1 0
191 1 15.052642805191704 4.836477622073561 6.420760300230432 1 -1 -1
940 1 12.437796900613236 7.200927705572956 4.472682562765078 0 0 1
1834 1 14.883647050346468 7.45196334942065 6.815888885830989 -2 -1 -1
213 1 15.742127058050338 8.86438246290191 4.493777097352698 -1 0 0
1392 1 17.43891725170885 9.541926381942066 8.41405925832315 -1 0 0
1452 1 14.518583558887164 9.691591885536415 6.713887545246451 0 0 0
253 1 14.990432432320553 6.188828978529995 8.712917635411712 2 -1 -1
243 1 17.269354124897163 6.475013140735062 7.803706918384881 1 0 -1
551 1 17.322754705639312 8.233789058826071 6.0758317992001505 -1 -1 1
1705 1 15.955514698574737 4.572500876748653 4.198854347353577 0 1 0
514 1 19.24323756866783 7.0318828535047055 6.29890982480976 0 -1 0
643 1 18.42692680053181 4.269689485341815 5.342199317115179 0 2 -1
997 1 21.302565283402615 6.576848856234033 7.864475410583072 0 0 0
1333 1 19.06875875107746 8.577588374568974 3.819865787453524 2 1 0
508 1 21.98520737956556 7.786863673430231 10.261021316017237 0 0 2
705 1 23.91874880903901 4.393922459423632 6.279203459471393 0 1 -2
948 1 24.645595965015232 6.261723656456461 8.19334850852786 1 0 1
795 1 20.749581057415746 6.508840965374477 4.432714099091353 1 2 0
1166 1 24.182623626672388 7.639137083202005 10.293369370985731 -1 2 1
764 1 22.299860162705855 7.448468492786409 3.0934085419026753 0 0 -1
1419 1 23.1467812255377 8.237950560799598 8.052480767047296 1 0 -1
1135 1 21.319831677286857 8.488755109646746 5.789381997295408 -1 1 0
1022 1 21.61996697598545 4.6201324680038125 9.575892642850267 1 0 1
465 1 22.732676035791428 7.0117991738428564 6.011275164274604 1 1 -1
1202 1 25.590886875333013 8.173950871595009 7.5684549773655885 0 1 -1
1407 1 27.058102137125083 7.040709277353866 6.514502100073507 -1 2 -1
870 1 25.65349351152257 3.6632663173708506 8.19208942480951 1 -1 -1
1960 1 26.49371536975493 4.880163464011888 6.210301498611411 -1 1 0
790 1 -0.22003167442236204 5.6979567150797115 4.626748223507303 -2 -1 0
264 1 27.12533398681159 9.192726902241981 9.097105425601221 -2 -2 0
187 1 26.851649871136814 6.44262015647557 8.535375485437145 0 -1 0
755 1 27.13979237575915 6.57318227635814 10.953377137015993 2 -1 1
1656 1 4.581898862679161 9.700070681962563 13.961795119316669 1 -1 1
678 1 28.944396828068477 11.34192665879804 5.722406164582343 -1 -1 1
766 1 0.7228466174719239 11.442024186542115 7.414633519773103 3 0 2
768 1 1.1502882383378155 13.586540925803682 7.09655341337989 1 1 1
1863 1 4.167063006203952 13.587046644740015 5.584060230373939 1 -1 -1
517 1 28.63228860034006 9.942559146884292 7.638575821190722 -1 0 0
1810 1 10.52657617360951 7.392738884939048 12.34634334769879 -1 -1 1
878 1 3.7343204463316653 10.882684724852279 2.866514915146907 0 -1 -1
1842 1 5.9434609981942605 10.371319208203182 3.689664192928486 0 1 0
1723 1 2.5858560937895576 10.405811382143535 6.45471154454566 0 0 0
1803 1 7.2236784923588075 10.447297468595115 5.870115020567278 0 0 0
1423 1 4.907571032391723 11.374948169100394 5.700636354971532 -1 1 1
1062 1 3.8785561002985522 12.75159688783633 8.351282971427496 0 1 0
1041 1 5.741875790840372 12.60827858638873 3.4342606066478023 0 1 1
203 1 6.517515498255767 13.971971185447437 6.0566899979671325 0 -1 -1
1004 1 10.519816508671248 11.799062336985928 6.940368197944698 2 0 1
1808 1 12.06537379761801 10.762965166238907 5.21158099830258 0 0 1
545 1 7.654192888278256 8.63844052163023 7.085964893133553 2 0 -2
1021 1 8.327077714915571 12.75959392444273 7.088589556116792 2 -1 2
149 1 9.735739487273126 13.820120831928312 4.854864461390731 2 0 0
1525 1 8.817264422220953 11.185739213796165 9.075724290874074 -1 0 0
30 1 9.50362576264683 10.594283807149663 4.729267036706552 -1 0 0
1873 1 8.31413357350988 13.236736863060083 10.561640481026705 0 0 1
991 1 12.183420733996083 13.493671117519346 6.169555357529578 2 -1 -1
1924 1 12.98075393307161 11.465573610182515 7.725799529811431 -2 0 1
802 1 11.320552025339076 10.553665198308623 9.17478134178718 1 0 0
336 1 28.493949305215622 -0.5524299704849797 13.996009333957822 1 0 0
278 1 14.934783546992266 8.554145833007851 9.181800333329132 0 -1 -2
306 1 15.448069273449425 11.186274937005654 8.425380968159015 -1 1 1
1377 1 14.371620360271924 12.387710284145456 5.8908915144720835 0 1 0
384 1 19.52033012460773 8.942642145776055 9.90033654037217 -1 1 2
1545 1 16.717165643435877 10.624917928016608 5.868569460315796 -2 0 2
1064 1 24.358548191841955 -0.6312064051092525 1.4169741744986224 -2 0 0
1882 1 26.969275710773907 11.392735327563829 9.442558190593473 0 1 0
825 1 1.1243007938560912 9.694175521026557 12.644524580264253 0 0 1
1012 1 17.16596543474882 10.32621112397371 3.8414395800951953 -2 -1 0
781 1 19.417273766016848 9.362010991483084 6.808843408477376 1 0 0
1800 1 16.421780304853492 12.980746184195528 7.500049655476289 0 0 0
1338 1 17.854072764090994 12.395165872676513 5.405679067963177 0 -1 1
1574 1 10.924855825607679 13.106685016343834 9.022590030167194 -2 -1 0
2005 1 18.899308265063958 11.542313007130966 7.2241856242770925 1 0 1
1629 1 20.412573791470123 13.012891339466176 5.4963029672909505 -1 0 0
657 1 19.807839827153565 10.988981892775545 3.673326087655231 0 0 -1
966 1 24.76374784088862 11.942055610084763 7.302124428184843 -1 0 0
1142 1 20.68938795255123 10.710152451907316 5.706358088801406 0 1 0
1815 1 6.953640194222885 -0.6007942313568257 13.508966012375222 1 1 -1
185 1 22.489998969818814 11.554949202506597 4.667679375562067 0 -2 -2
513 1 22.22548440335693 12.465533545716376 6.980284547225879 -1 0 0
1492 1 23.009151982647587 10.179691363928793 6.785253285991575 -1 0 -2
1266 1 23.96240939409499 8.535614783165324 5.148320861315958 -2 0 0
524 1 23.96212376745899 13.283906964847505 3.111551941758274 -1 -1 1
178 1 21.489076683977338 5.068859582675292 -0.5360402209131547 1 0 -2
12 1 27.654144408318082 13.57945112086041 10.339115796604903 -1 1 2
1719 1 26.790983213975622 7.668658117439424 13.41362953856324 2 1 1
807 1 28.1627392423146 9.2596638790086 5.31035972570931 -1 1 2
1568 1 27.111990076369757 12.631462958234694 7.141866148372701 1 0 0
985 1 24.70402025480235 10.77092275421972 4.926350459914729 0 0 1
1877 1 26.458608351388136 10.190551272385521 6.437785500874573 -1 0 2
2037 1 26.81750257744565 11.413607490807546 3.95754121398022 -1 2 1
1887 1 28.98612893207206 13.633649056007238 6.093612166936604 -2 1 1
713 1 24.365731505634947 9.794973531709816 9.47420266685272 0 0 -1
1812 1 25.685202206013408 12.992862381846777 5.125071087637906 -1 1 -1
330 1 11.495288333296816 1.0698783124515938 -0.7084046848770298 0 -1 0
528 1 2.724180488261281 2.1823082986912286 11.289379981042755 0 0 1
206 1 21.52904334560781 6.666736031415792 13.760370566893593 0 -2 1
1853 1 1.7437017249165492 3.0306617863459313 9.066277224442187 0 -1 1
946 1 23.939479316147725 0.20261682138609782 5.877581695210902 0 0 0
71 1 23.361151967519845 0.6572997442487072 13.767824114147608 -2 -1 0
1513 1 20.70760905326506 12.19337569794414 8.860349232086513 0 2 0
443 1 5.163097675862813 3.645553578082625 10.744381702600627 1 -1 -1
301 1 2.4340094808224713 0.5411328291240296 10.077578852653726 1 -1 -1
858 1 19.527535328168128 12.069315764003147 10.877477086172812 -1 -1 3
1268 1 20.79442962621532 10.269429390619397 11.572618623590682 -1 0 -1
310 1 6.542980868433739 2.2732361402035206 9.56520256434737 0 0 1
1978 1 6.2702934572653 1.9272264097577714 11.928435762851919 0 1 1
1617 1 11.992787208419678 13.555287403465597 1.6213062237328728 0 -1 0
992 1 4.341065809009203 0.8323617517269 11.44231810771306 1 -1 0
1700 1 8.70019998574045 0.7911174665783298 13.183480287791264 -1 1 1
1703 1 7.226671179070995 3.9523747964433715 12.267736749009503 1 1 0
1293 1 8.655585752048664 1.9885750966445395 11.238404979254943 1 -1 -1
757 1 27.503242892930665 0.28471979095553923 4.9485226809735785 1 0 0
104 1 10.63912200960774 -0.12134724185374746 10.809047821848077 1 0 0
466 1 7.235171458991274 -0.18588128879571297 11.317108291254884 0 2 1
27 1 11.048854605614533 1.1260144418175038 12.836772585864253 2 1 -1
1716 1 6.303895155610352 2.314757123574767 1.7724044505612522 0 -1 1
357 1 9.077744206827028 4.586229589447733 9.786914620512466 0 -2 1
151 1 11.544702341004355 2.55973258838493 10.34983869129907 -1 0 -1
1649 1 10.561164915692302 3.7313216612536753 12.811877664168547 1 1 0
1546 1 7.029381895261203 0.13375131416068042 0.7265813942924217 1 0 -1
895 1 17.820868116542883 11.645722922624957 14.054089613864859 1 0 0
207 1 0.43933895286835445 4.388094251531197 13.725001698672681 -1 0 -2
418 1 12.79957549269607 -0.00486730388402179 11.820503393300744 -1 -2 -1
1014 1 13.441727330005618 2.5903059652996943 11.371420721592873 0 0 0
279 1 14.852867172635902 1.1377868359596859 10.390341292195423 1 1 -1
1991 1 12.947712955033865 1.8940072294692207 13.63647908528317 0 1 0
219 1 16.740530874079802 1.9014599856626342 13.22170679364968 0 0 0
1569 1 15.424483592332146 3.281090883965815 12.22625803654043 -1 0 -1
1474 1 2.319815832919617 5.483452601269245 13.657682212415773 -1 0 -1
964 1 26.77217330772673 13.220568229044616 12.371339255113702 -1 1 -1
86 1 18.093959550479298 2.0671863343112307 8.189335735693465 -1 0 0
1518 1 16.974776159611444 1.9939923950075062 10.353571082900531 -1 2 2
1596 1 14.7147030567286 0.3072288226491 13.1569715927974 0 0 1
1246 1 16.781761912793108 -0.2679051397010393 11.706012169524925 0 0 1
879 1 8.148363661801499 7.8294881357553425 13.28566925909538 -1 2 1
2008 1 19.189828689517583 2.947937296813561 10.008279883890054 -2 1 0
1537 1 18.758792127374974 2.00157997016898 12.292104527389212 -1 0 1
1912 1 23.496833834418098 3.8199619321481633 8.618658812199646 -1 1 3
331 1 21.305813520898987 1.933077822329508 10.83014143226944 -1 0 -1
1857 1 22.629253915835875 4.253012187537359 13.248333796537269 0 1 1
2045 1 5.407581683317326 0.3570812698252539 9.243190698323588 -1 0 1
562 1 21.23496641079364 0.29059177593051877 12.302771785372443 0 1 -1
1798 1 25.560786392256517 1.0690865308149418 12.239053317017207 -2 0 1
1320 1 24.842824961090166 2.053506121713048 10.14717452937605 -1 1 1
1467 1 12.578398437245482 2.6607347848321785 0.8090398285815914 0 1 1
661 1 26.54564971238787 3.9013646071153048 13.870074325327108 0 0 1
1346 1 24.066613627377713 13.90821415684113 6.801132417067956 -1 0 0
290 1 28.97719450121369 0.5213970902932843 9.974745826057834 -1 0 -1
540 1 -0.22572625674984625 1.5403764114920366 13.122801318813222 0 0 -1
571 1 28.191488725689837 2.385840902381683 11.30655935580206 -1 0 2
772 1 2.3184710646930586 3.064981770049179 13.677444590023498 0 0 1
824 1 26.128460581248824 3.3988890484882557 11.464014257950359 -1 0 3
544 1 26.000818781029075 10.930513907016485 11.732031032078648 0 0 0
1865 1 -0.13256670516777658 5.887008472670311 8.4044835841409 0 0 0
797 1 4.114775600676149 7.041154475402575 13.776814670166356 2 -1 1
1080 1 1.3190434005486762 6.9635562947735705 11.952547017777711 1 1 0
349 1 0.40656826034285154 5.195404041954001 10.535885408392673 1 1 1
613 1 0.2899463982302959 2.831058953370004 10.959589758797327 0 0 0
901 1 2.6769099950575663 4.486128410110344 11.375783000010497 -2 -1 1
1981 1 3.7717969446930644 9.173708062345717 11.731554666215974 1 0 1
194 1 6.194504883266949 9.436284684910103 12.307853322356449 0 0 -2
898 1 5.995223794814737 6.592171829900353 12.487669434974247 -1 0 1
1760 1 5.257753651715366 6.901616786816178 8.780749054730858 0 3 1
85 1 3.833038024525921 5.048170818392613 9.371517106325323 1 1 0
1586 1 4.694983932596729 4.86861837649393 12.827831206141655 1 1 0
118 1 5.688650189581444 8.346751646879186 10.661628807538477 1 0 1
258 1 3.616008687427791 6.884449298151016 11.56631406846285 -1 0 -2
675 1 10.603231376845292 6.768526072101024 10.18441040177522 -1 2 1
523 1 6.213025508833735 9.059575782661772 8.749617033308516 0 0 0
419 1 7.9671282731830875 9.90120013764417 -0.27607374309137095 -3 0 1
960 1 6.899082126574007 5.693178455779554 10.401985506154208 2 0 0
79 1 11.431345381113532 5.114417485008661 11.30501785596553 0 0 0
1491 1 8.844638125764734 6.0685909887867435 11.850309008442263 -1 1 1
1648 1 7.782866176366785 7.907747227681801 10.589718783275803 2 0 1
1401 1 14.828900557625495 8.145570965739777 11.850205296756517 1 1 0
1776 1 12.808485006531807 7.528364256052477 9.331056244397786 0 0 0
1967 1 13.248824293267987 4.2982832547285135 8.446891429764324 0 2 0
486 1 14.920490538034183 3.347064957008386 9.568439407062904 0 0 -2
272 1 14.923883238444546 5.821871517300016 12.73824930514393 -1 0 1