LAMMPS (29 Oct 2020)
OMP_NUM_THREADS environment is not set. Defaulting to 1 thread. (src/comm.cpp:94)
  using 1 OpenMP thread(s) per MPI task
package omp 0
using multi-threaded neighbor list subroutines
package omp 2
set 2 OpenMP thread(s) per MPI task
using multi-threaded neighbor list subroutines
units metal
dimension 3
boundary p p p


lattice fcc 3.5440
Lattice spacing in x,y,z = 3.5440000 3.5440000 3.5440000
region box block 0 8 0 8 0 8 units lattice
create_box 1 box
Created orthogonal box = (0.0000000 0.0000000 0.0000000) to (28.352000 28.352000 28.352000)
  1 by 2 by 2 MPI processor grid
create_atoms 1 box
Created 2048 atoms
  create_atoms CPU = 0.001 seconds

# read_restart after_heating_press_0_1600.lmp

variable P equal 0
variable dt equal 0.001
variable loopVar loop 6
variable sys_press equal "press/10000"
#variable temp_word equal "heating"

# print "step temp vol pe" file heating.txt screen no

pair_style eam/alloy
pair_coeff * * Co_Zhou04.eam.alloy Co
Reading eam/alloy potential file Co_Zhou04.eam.alloy with DATE: 2018-03-30




neighbor 2 bin
neigh_modify every 10 check yes

thermo 1000
thermo_style custom step temp vol press ke pe density

timestep $(dt)
timestep 0.0010000000000000000208

# fix 2 all npt temp 300 300 $(dt*100) iso 0 0 $(dt*1000)
# run 30000
# unfix 2





# dump_modify 1 append yes
# dump 3 all custom 10000 traj_npt_new.lammpstrj id type x y z

velocity all create 1900 123123

print """
yo aagadi
"""

yo aagadi

label ensemble

print """
Label pachadi solti, hos garam.
"""

Label pachadi solti, hos garam.

variable T equal 1800+${loopVar}*100
variable T equal 1800+1*100
#variable T equal 1250
# velocity all create 1200 123123
reset_timestep 0
fix 1 all npt temp $T $T $(dt*100) iso $P $P $(dt*1000)
fix 1 all npt temp 1900 $T $(dt*100) iso $P $P $(dt*1000)
fix 1 all npt temp 1900 1900 $(dt*100) iso $P $P $(dt*1000)
fix 1 all npt temp 1900 1900 0.10000000000000000555 iso $P $P $(dt*1000)
fix 1 all npt temp 1900 1900 0.10000000000000000555 iso 0 $P $(dt*1000)
fix 1 all npt temp 1900 1900 0.10000000000000000555 iso 0 0 $(dt*1000)
fix 1 all npt temp 1900 1900 0.10000000000000000555 iso 0 0 1
print """
<--------------------------------------------------------------------->
<------------------ Equilibrating at temperature $T ----------------->
<--------------------------------------------------------------------->
"""

<--------------------------------------------------------------------->
<------------------ Equilibrating at temperature 1900 ----------------->
<--------------------------------------------------------------------->

fix temp all print 1000 "$(step) $(temp) $(press) ${sys_press} $(vol) $(ke) $(pe) $(density)" file temp_heat.txt screen no title  "step temp press pressGiga vol ke pe density"
run 250000
Last active /omp style is pair_style eam/alloy/omp
Neighbor list info ...
  update every 10 steps, delay 10 steps, check yes
  max neighbors/atom: 2000, page size: 100000
  master list distance cutoff = 7.6035394
  ghost atom cutoff = 7.6035394
  binsize = 3.8017697, bins = 8 8 8
  1 neighbor lists, perpetual/occasional/extra = 1 0 0
  (1) pair eam/alloy/omp, perpetual
      attributes: half, newton on, omp
      pair build: half/bin/atomonly/newton/omp
      stencil: half/bin/3d/newton
      bin: standard
Per MPI rank memory allocation (min/avg/max) = 4.354 | 4.354 | 4.354 Mbytes
Step Temp Volume Press KinEng PotEng Density 
       0         1900    22790.356    31241.769    502.73148    -9015.757        8.794 
    1000    1967.6992    25163.964    -5513.358    520.64439   -8380.3066    7.9644999 
    2000    1881.3502    24959.245   -65.831962    497.79682   -8411.6492    8.0298257 
    3000    1924.1998    24920.948    348.30232    509.13465   -8428.2101    8.0421654 
    4000     1896.917    24982.876    436.26985    501.91572    -8405.931    8.0222304 
    5000    1931.9758    24997.587    -2055.036    511.19212   -8414.2686    8.0175095 
    6000    1926.0624    24914.673    1187.8903    509.62748   -8422.3848    8.0441909 
    7000    1897.2218    24888.053    5444.5888    501.99639   -8411.0313     8.052795 
    8000    1875.7028    25020.986   -6068.5614    496.30255   -8422.1766    8.0100116 
    9000    1995.3175    24889.921     3927.518    527.95206   -8422.9737    8.0521906 
   10000    1811.8459    24897.058    445.53238    479.40629   -8427.4957    8.0498824 
   11000    1952.9207    24900.782    3054.0379    516.73405   -8421.1759    8.0486785 
   12000    1937.8015    24941.573   -2129.0573    512.73359     -8429.98    8.0355149 
   13000    1889.8783    24966.388   -1563.3012    500.05334   -8419.3633    8.0275282 
   14000    1848.2437    24836.112    5545.2971    489.03699   -8421.9206    8.0696361 
   15000    1853.1648    24948.352   -4380.4688     490.3391   -8433.3797    8.0333317 
   16000    1937.8212    24993.449    1398.1528     512.7388   -8400.4807    8.0188368 
   17000    1903.0871    24936.547   -694.40125    503.54832   -8424.2087    8.0371348 
   18000    1891.9032    24891.817    1353.5637    500.58911   -8429.8003    8.0515773 
   19000    1892.4815    24933.968   -823.23447    500.74212   -8425.9601    8.0379659 
   20000    1911.6797    24899.192    2658.9593    505.82187   -8419.7537    8.0491924 
   21000    1855.0962    25047.044   -4570.2506    490.85015   -8408.4817    8.0016782 
   22000    1920.5618    24823.293    11130.136    508.17203   -8404.2996    8.0738034 
   23000    1849.2938    25042.673   -6333.9144    489.31486     -8413.49    8.0030749 
   24000    1955.4894    25036.395   -3198.2659    517.41372   -8408.4008    8.0050817 
   25000    1891.7527    24869.962    3696.6931    500.54929   -8422.5326    8.0586528 
   26000    1905.8832    25096.833   -7860.9952    504.28816   -8410.2909    7.9858038 
   27000    1869.3707     24944.23    842.00091    494.62712   -8413.5403     8.034659 
   28000    1920.2294    24966.467    1647.2738    508.08408   -8406.9575    8.0275029 
   29000    1936.0449    25021.789   -6195.3988    512.26881   -8426.7421    8.0097546 
   30000    1915.6391    24863.661    8053.0172    506.86953   -8406.5623    8.0606949 
   31000    1908.3192    25051.667   -4667.1387     504.9327    -8408.641    8.0002017 
   32000    1923.3189    24940.902   -685.30659    508.90156   -8424.2065    8.0357312 
   33000    1937.7845    25013.222   -3196.5541     512.7291   -8414.0569    8.0124977 
   34000    1954.7285    24976.039   -1029.4972     517.2124   -8417.1777    8.0244264 
   35000    1903.6329    25003.684   -2789.7759    503.69273   -8414.8234    8.0155544 
   36000    1825.8964    24975.348    2166.1934    483.12401   -8393.5017    8.0246483 
   37000    1934.7819    24866.675    3351.8333    511.93462   -8430.3521    8.0597179 
   38000    1919.6544    25082.145   -1909.9927    507.93195   -8387.8025    7.9904805 
   39000    1872.4472    24906.522    2885.1133    495.44114   -8413.7328    8.0468236 
   40000    1864.0345     24875.62    2833.6788    493.21517   -8426.2622    8.0568199 
   41000    1907.9522    24893.435    185.30703    504.83559   -8437.5208     8.051054 
   42000    1911.2168    24988.099    1073.2178     505.6994   -8402.5206    8.0205536 
   43000     1864.465    24914.771    1012.9979    493.32907    -8421.569    8.0441592 
   44000    1928.7676    25059.337   -6802.2752    510.34325   -8418.7013    7.9977531 
   45000    1847.6408    24745.741    10100.118    488.87748   -8430.4533    8.0991062 
   46000    1851.8131    25179.148   -12724.965    489.98145   -8404.2624    7.9596968 
   47000    1932.3399    24932.809     1017.737    511.28849   -8419.1481    8.0383397 
   48000    1952.2266    24975.702   -1759.3555    516.55041   -8418.1189    8.0245345 
   49000    1885.0148     24936.53   -462.53538    498.76645   -8423.8553    8.0371402 
   50000    1925.8181    24961.326   -1143.7798    509.56283   -8420.8665    8.0291562 
   51000    1916.9063    24845.036    5958.9896    507.20481   -8422.6744    8.0667377 
   52000    1877.9719    25098.127   -6875.1693    496.90294   -8403.4497     7.985392 
   53000    1908.9417    24885.665    1636.1858    505.09741   -8430.4503    8.0535677 
   54000    1900.8979    24911.242    456.73528    502.96907   -8428.2295    8.0452988 
   55000    1950.8265    24901.415   -561.26207    516.17995   -8436.6708    8.0484738 
   56000    1890.0627    25021.119    -3473.563    500.10212   -8410.0765    8.0099689 
   57000    1939.4109    24899.719    3666.6575    513.15943   -8412.3113    8.0490221 
   58000    1858.8744    24871.076    2114.5121    491.84984   -8433.2609    8.0582919 
   59000    1867.1471    24886.429    2885.2777    494.03875   -8421.4694    8.0533204 
   60000    1897.5593    25075.637   -5003.1536    502.08568   -8402.9778    7.9925541 
   61000    1898.2147    24909.975    1661.4129    502.25911    -8420.823     8.045708 
   62000    1937.5205    24980.435   -1531.7706    512.65925   -8420.6081    8.0230142 
   63000    1901.7679    24936.939     3024.774    503.19926   -8407.1088    8.0370083 
   64000    1874.3128    24916.158    2944.5995    495.93477   -8412.7091    8.0437116 
   65000    1810.5543    24837.462     950.6957    479.06455   -8442.6315    8.0691975 
   66000    1885.0568    24977.175   -1852.1869    498.77758   -8417.9566    8.0240613 
   67000    1925.9221     24920.86    345.87327    509.59036   -8423.2511    8.0421937 
   68000    1848.1287    25015.082   -854.07584    489.00656   -8401.2323     8.011902 
   69000    1982.0971    24963.203    2629.3416    524.45402    -8405.427    8.0285525 
   70000    1871.6745    24953.584   -1320.3035    495.23668   -8420.2806    8.0316472 
   71000    1970.9552    24860.122     5621.676    521.50592   -8425.1151    8.0618424 
   72000    1870.5377    25027.566   -4393.3165    494.93588   -8415.2871    8.0079055 
   73000    1891.7318    24948.781   -1867.6296    500.54374   -8427.7301    8.0331934 
   74000     1894.867    25014.827   -708.90475    501.37333   -8399.4811    8.0119836 
   75000    1913.6886    24927.021    1688.8606    506.35343   -8417.6079    8.0402062 
   76000    1910.8223    25061.505   -4346.4724    505.59503   -8402.0848     7.997061 
   77000    1932.3068    24846.873    7644.4924    511.27973   -8412.6115    8.0661411 
   78000    1860.9093    25132.063   -11772.161    492.38826   -8414.8063    7.9746093 
   79000    1880.0835    24839.089    3518.4871    497.46168   -8432.5024     8.068669 
   80000    1888.4383    24979.853    -1804.614    499.67231   -8414.2716    8.0232011 
   81000    1926.7503    24822.608    3570.7658    509.80948   -8439.1229    8.0740263 
   82000    1925.2301    24893.867   -670.24645    509.40724   -8438.1336    8.0509141 
   83000     1912.189    24996.231   -453.25271    505.95664   -8407.1717    8.0179441 
   84000    1913.2492    24888.276    4167.7566    506.23716   -8418.8574    8.0527226 
   85000     1913.093    24904.513    937.36289    506.19583   -8425.3456    8.0474725 
   86000     1859.264    24989.962   -1502.3003    491.95291   -8407.1142    8.0199557 
   87000    1897.8279    24965.456   -224.13532    502.15676   -8411.7335    8.0278281 
   88000    1945.8841    24913.741    860.87869    514.87221   -8423.7693    8.0444918 
   89000    1897.7771    25098.371   -6219.1257    502.14332   -8398.8055    7.9853146 
   90000    1889.4368    24981.382    598.00029     499.9365   -8402.5044    8.0227101 
   91000    1856.9103    24914.763    3013.8054    491.33014   -8410.6616    8.0441618 
   92000    1933.1199    25032.931   -186.35117    511.49485   -8393.2902    8.0061894 
   93000    1870.1604    24972.576   -501.77956    494.83605   -8407.3711     8.025539 
   94000    1897.1711    24932.225    503.72326    501.98297   -8419.8581     8.038528 
   95000    1855.7173    24838.256    3943.9355    491.01449   -8433.4865    8.0689396 
   96000    1877.7146    25027.713   -4645.6119    496.83487   -8413.8983    8.0078586 
   97000    1911.9162    24841.497    5577.2829    505.88446   -8425.1279    8.0678867 
   98000    1893.4444    24911.192   -960.54858    500.99691   -8434.4122    8.0453151 
   99000    1860.5018    24717.065    10502.946    492.28043   -8439.2327    8.1085025 
  100000    1852.4439    25055.218   -2709.4344    490.14835   -8394.8889    7.9990679 
  101000    1964.7581    25047.917   -2780.9085    519.86618   -8402.6448    8.0013993 
  102000    1909.6602    24888.012    3509.8075    505.28753   -8415.2047    8.0528082 
  103000    1863.0566    24970.931    362.89605    492.95643   -8405.7002    8.0260677 
  104000    1896.8859    24953.028    1101.2141     501.9075   -8410.0772    8.0318262 
  105000    1894.7705    24872.553    5682.8876    501.34779   -8414.3055    8.0578132 
  106000    1847.3167    25028.151    -2846.311    488.79171   -8401.4739    8.0077183 
  107000    1884.9681    24828.382    7124.8172    498.75411   -8422.5228    8.0721484 
  108000    1874.2799    24963.848   -1795.1321    495.92607   -8421.1428    8.0283451 
  109000    1966.1353    24859.856     2352.592    520.23059   -8437.6688    8.0619286 
  110000    1918.7772    24990.602   -819.20334    507.69985   -8410.2483    8.0197503 
  111000    1909.8743     24979.96   -2561.0425    505.34419   -8421.1699    8.0231668 
  112000    1935.5618    24797.081       4586.2    512.14096   -8442.2196    8.0823377 
  113000     1942.126    25044.682   -3682.1512    513.87783   -8406.2703    8.0024329 
  114000    1941.8446    24909.485    1481.4061    513.80339   -8428.4605    8.0458662 
  115000    1873.9259     24978.28   -5026.2371     495.8324   -8430.0903    8.0237064 
  116000    1889.3157     24931.24    4544.8017    499.90446   -8402.0794    8.0388454 
  117000    1909.0707    24912.356    1633.3853    505.13156    -8420.671    8.0449392 
  118000    1897.5211    24994.733   -6516.9052    502.07557   -8434.9222    8.0184247 
  119000     1956.258    24914.122    2272.8284     517.6171   -8418.6463    8.0443689 
  120000    1872.5076    25039.402   -2488.8998    495.45711   -8401.8325    8.0041203 
  121000    1919.0819    25023.442   -2514.9226    507.78048   -8406.4433    8.0092254 
  122000    1923.6297    24919.403   -297.02674    508.98379   -8427.3406    8.0426641 
  123000    1882.7739    24958.853    456.74125    498.17354   -8413.4114    8.0299518 
  124000    1868.4617    24894.215    5424.5846     494.3866   -8407.4301    8.0508017 
  125000    1889.9478    24979.629   -2977.1213    500.07172   -8421.2058    8.0232733 
  126000     1890.088    24948.725   -2066.2064    500.10882   -8429.7525    8.0332115 
  127000    1930.8743    24903.846    2051.0966    510.90069   -8423.6433    8.0476882 
  128000    1900.6254    24905.339   -801.67959    502.89695   -8434.8454    8.0472058 
  129000    1962.4941    24879.849   -31.360319    519.26715   -8442.7081    8.0554501 
  130000    1862.5819    24999.088   -1791.2138    492.83083   -8408.8994     8.017028 
  131000    1896.0287    24994.309   -1812.0243    501.68069   -8413.9716    8.0185606 
  132000    1906.7035    24983.113    1493.9825    504.50519   -8402.6034    8.0221543 
  133000    1912.0555    24921.678     2873.072     505.9213   -8413.4323      8.04193 
  134000    1879.9803    24921.259    2197.1549    497.43435   -8413.1456     8.042065 
  135000    1890.8067    25042.241   -6226.3483    500.29898   -8418.8193     8.003213 
  136000    1898.9802    24934.936    1997.6957    502.46164   -8410.0989     8.037654 
  137000      1963.88     25025.25   -3314.8133    519.63385    -8412.978    8.0086467 
  138000    1886.3363    24906.679   -561.99556    499.11613    -8432.903    8.0467729 
  139000    1935.3792     24897.26    5137.9578    512.09267   -8412.2429    8.0498171 
  140000    1913.8551    24868.867    1758.5674    506.39748    -8434.025    8.0590075 
  141000    1927.5574    24999.347    941.20765    510.02304   -8400.1312     8.016945 
  142000    1895.5432    25004.612   -5275.3132    501.55223   -8422.6921    8.0152567 
  143000    1850.3659    24843.658    3490.3321    489.59851   -8432.3085    8.0671851 
  144000    1907.4694    24954.185   -154.86947    504.70785   -8419.0748    8.0314538 
  145000    1839.6689    24959.664    -2709.915    486.76815    -8426.865    8.0296908 
  146000    1904.7683    24824.542    6813.5834    503.99314   -8422.8118    8.0733973 
  147000     1896.802    24990.664   -728.27371    501.88531   -8405.8718    8.0197304 
  148000    1915.8857     24945.71   -3331.1448    506.93477   -8435.1943    8.0341826 
  149000    1917.0301    24961.371   -1218.5221    507.23757    -8420.038    8.0291417 
  150000    1981.2166    24979.648    3395.0668    524.22102   -8399.0723    8.0232671 
  151000     1930.127    24969.752   -3532.4606    510.70295   -8430.5583    8.0264469 
  152000     1918.888    24956.399    897.24463    507.72915   -8413.4263    8.0307415 
  153000    1867.3615    25045.781   -481.04162    494.09547   -8389.7594    8.0020819 
  154000    1898.5378    24880.581    3106.7047    502.34459   -8425.0814    8.0552134 
  155000    1900.5243    25020.379   -3321.1486    502.87022   -8413.1999    8.0102058 
  156000    1892.9224     24798.32    8981.5846    500.85879   -8420.8293    8.0819341 
  157000    1939.8095    24847.919   -14.520615    513.26489   -8447.8848    8.0658018 
  158000    1883.3169    24946.993   -3878.7679     498.3172   -8434.0012    8.0337693 
  159000    1863.4094    24964.632    1023.7639    493.04977   -8404.8156    8.0280929 
  160000    1923.0069    24930.231    5280.8948    508.81901   -8401.5347    8.0391709 
  161000    1867.9877    25056.975   -2852.0158    494.26118   -8395.7367    7.9985067 
  162000     1944.505    24798.091    6329.9089     514.5073   -8436.0884    8.0820086 
  163000    1897.8325    25029.829   -4467.4978    502.15796   -8409.5807    8.0071816 
  164000     1882.512    24962.491    74.202678    498.10423   -8413.8618    8.0287816 
  165000    1903.7331    24937.818    332.38803    503.71923   -8419.9246    8.0367251 
  166000    1916.7517    25041.665   -3128.1267    507.16391   -8407.6302    8.0033971 
  167000    1876.7101    24947.293    3.6158024    496.56907   -8413.6172    8.0336728 
  168000    1873.6975    24959.046   -1950.1776    495.77196   -8421.6019    8.0298897 
  169000    1909.2364    24922.388    3708.1082    505.17538   -8406.9012    8.0417007 
  170000    1894.1362      25113.3   -10305.042    501.17996   -8417.5084    7.9805677 
  171000    1911.0252    24868.162    6021.2229    505.64869   -8415.7022    8.0592359 
  172000     1903.319    24934.314    -897.8133    503.60968   -8426.9405    8.0378546 
  173000    1885.5531    25025.132   -4863.9554    498.90889   -8415.8231    8.0086844 
  174000    1931.9339    24943.202    1402.0885    511.18104   -8412.0544    8.0349904 
  175000    1904.7169    24977.988   -4993.6648    503.97956   -8431.6622    8.0238003 
  176000    1920.5662    24898.403     2496.312     508.1732   -8424.4228    8.0494474 
  177000    1936.8013    25068.431   -2649.5681    512.46894   -8396.4327    7.9948517 
  178000    1867.0806    24895.559    73.946614    494.02117   -8431.3347     8.050367 
  179000     1935.293    24919.157    347.41826    512.06984   -8426.0704    8.0427435 
  180000    1981.0359     24962.79   -2161.0796    524.17323   -8428.1943    8.0286854 
  181000    1906.5849    24897.119    643.51611     504.4738   -8429.7722    8.0498627 
  182000    1901.5485    25083.605   -7243.1893    503.14122   -8410.7742    7.9900151 
  183000    1871.1802    24867.024    5178.4453    495.10589   -8417.6031    8.0596048 
  184000    1928.9604    25082.559   -3956.3766    510.39428   -8397.0619    7.9903485 
  185000      1879.36    24998.015   -984.83712    497.27024   -8406.3034    8.0173721 
  186000    1969.4738    24983.248    179.51139    521.11393    -8412.322    8.0221108 
  187000    1852.7983    24856.946    4676.0836    490.24213   -8420.3037    8.0628724 
  188000    1864.3674    25129.257   -8264.9797    493.30325   -8400.1281    7.9754998 
  189000     1934.806    24896.447    3597.8766    511.94098   -8421.0551      8.05008 
  190000    1926.5017    25007.739   -5686.4293    509.74371   -8430.8371    8.0142544 
  191000    1893.9811    24870.076    4019.1692    501.13891    -8424.748    8.0586156 
  192000    1920.8268    25007.029   -2722.8078    508.24216   -8412.1048    8.0144822 
  193000    1872.0619    24931.579    1110.3542    495.33918   -8417.6277    8.0387362 
  194000    1848.1871    24952.602   -1767.7741    489.02201   -8422.9047    8.0319635 
  195000    1923.8628     24957.68    452.89498    509.04546   -8411.2212    8.0303292 
  196000    1865.7225    24949.197   -942.12221    493.66181   -8420.6803    8.0330596 
  197000    1926.8254      24928.5    3400.2453    509.82938   -8410.5319    8.0397292 
  198000    1918.9641    24870.927    1903.7707     507.7493   -8435.2634    8.0583401 
  199000    1906.9906    25024.937   -4096.5765    504.58116    -8415.135    8.0087468 
  200000    1895.5496    24924.215    1970.9043    501.55394   -8417.1613    8.0411112 
  201000    1853.6655    25020.957   -4741.3561    490.47157    -8418.053    8.0100207 
  202000    1939.0948    24843.409     7552.643    513.07578   -8418.0101    8.0672659 
  203000    1880.0987    25122.469    -10151.65    497.46568   -8414.7656    7.9776548 
  204000    1918.2183    24816.431    4612.8856    507.55196   -8437.5277    8.0760358 
  205000    1908.7538    24957.817    4139.6669     505.0477   -8396.3704    8.0302851 
  206000    1910.0295    25084.292   -6727.9205    505.38524   -8410.4922    7.9897963 
  207000    1946.6033    24983.028    3664.6963    515.06251   -8390.0778    8.0221815 
  208000    1913.2353    24968.593     -1874.26    506.23348   -8422.0516    8.0268193 
  209000    1932.5522    24874.427    5471.0731    511.34466   -8416.3195    8.0572061 
  210000    1958.3352    24933.526    -2089.727    518.16671    -8437.033    8.0381084 
  211000    1944.9978    24965.666   -2586.6818    514.63771   -8427.3521    8.0277606 
  212000     1911.345    24929.283    3000.1229    505.73331     -8410.35    8.0394764 
  213000    1852.5492    24973.757   -1954.9461    490.17621   -8416.8044    8.0251596 
  214000    1884.0062    24952.402    5016.2906     498.4996   -8392.8465    8.0320277 
  215000    1853.0381    24971.809   -2992.6137    490.30556   -8420.2467    8.0257858 
  216000    1939.0506    24860.419    4575.3216     513.0641   -8427.3899    8.0617462 
  217000    1878.1657    25030.866   -3275.0977    496.95421   -8409.5001      8.00685 
  218000    1849.1364    24978.607    -994.4718    489.27321   -8411.8214    8.0236015 
  219000    1905.6938    24929.931     6132.972    504.23804   -8397.2658    8.0392677 
  220000    1893.0285    25020.949   -7277.7421    500.88686   -8426.6691    8.0100234 
  221000    1898.4757        24983    335.06003    502.32817   -8404.4161    8.0221905 
  222000    1906.5418    25050.949   -2125.9688    504.46241   -8397.4529    8.0004307 
  223000    1901.7885    24808.488    6170.6826     503.2047   -8432.1736    8.0786217 
  224000    1932.2136    24983.445   -2546.7084    511.25505   -8423.8122    8.0220476 
  225000    1832.3308    25032.398    -3818.105    484.82651   -8405.3762    8.0063597 
  226000     1911.426    24842.997    4969.7712    505.75474   -8427.2326    8.0673996 
  227000    1869.1736    24942.206    1277.0649    494.57494   -8411.1581    8.0353112 
  228000    1909.6936    24968.002   -669.16467    505.29637   -8413.4898    8.0270094 
  229000      1899.54    24894.531    973.21621    502.60977   -8429.1821    8.0506994 
  230000    1908.1913    24951.916   -461.60229    504.89887   -8420.5939    8.0321841 
  231000    1872.6892    25038.037   -678.02854    495.50517   -8392.0346    8.0045566 
  232000     1883.752    24892.966    2666.2243    498.43233   -8417.1128    8.0512057 
  233000    1873.2398    25016.053    -2916.325    495.65086   -8408.6991    8.0115911 
  234000    1884.3885    24901.963    4367.1013    498.60076   -8411.8764    8.0482968 
  235000    1881.8691    25011.207   -5609.6524    497.93412   -8426.8122    8.0131435 
  236000    1882.6029     24947.64    3497.3404    498.12829   -8400.5716     8.033561 
  237000    1917.3374    24910.727    259.77892    507.31888   -8425.9757    8.0454652 
  238000    1868.1088    24991.529   -3681.5618    494.29321   -8423.4794    8.0194527 
  239000    1907.2016    25046.528   -3209.6493    504.63698    -8402.459    8.0018432 
  240000    1863.7414    24986.544    1327.3234    493.13761   -8398.6896    8.0210527 
  241000    1925.7554    25026.905   -1761.0566    509.54624   -8403.3324    8.0081171 
  242000    1907.3423    24880.566     6168.737    504.67423   -8409.4669    8.0552182 
  243000    1861.4411    25241.798   -15327.957    492.52898   -8399.2481    7.9399408 
  244000    1898.0635    24841.731     5744.904     502.2191   -8422.1288    8.0678109 
  245000    1878.7732    24952.885   -2254.3951    497.11496   -8427.3391    8.0318724 
  246000    1888.9695    25046.711    -4158.513    499.81287   -8406.3127    8.0017844 
  247000      1864.02    24990.231    378.84985    493.21132   -8398.3407    8.0198694 
  248000    1869.9298    24945.635   -1507.5248    494.77505   -8425.9058    8.0342067 
  249000    1886.6915    24790.047    6649.8597    499.21012   -8434.0939     8.084631 
  250000    1865.8157    25020.568   -2143.4114    493.68647   -8401.9504    8.0101455 
Loop time of 471.391 on 8 procs for 250000 steps with 2048 atoms

Performance: 45.822 ns/day, 0.524 hours/ns, 530.346 timesteps/s
117.4% CPU use with 4 MPI tasks x 2 OpenMP threads

MPI task timing breakdown:
Section |  min time  |  avg time  |  max time  |%varavg| %total
---------------------------------------------------------------
Pair    | 270.08     | 275        | 279.75     |  21.1 | 58.34
Neigh   | 3.9778     | 4.0839     | 4.1459     |   3.1 |  0.87
Comm    | 21.629     | 26.444     | 31.452     |  69.1 |  5.61
Output  | 0.0055825  | 0.010823   | 0.012586   |   2.9 |  0.00
Modify  | 164.93     | 164.99     | 165.04     |   0.3 | 35.00
Other   |            | 0.8611     |            |       |  0.18

Nlocal:        512.000 ave         518 max         505 min
Histogram: 1 0 0 1 0 0 0 0 1 1
Nghost:        2959.50 ave        2966 max        2953 min
Histogram: 2 0 0 0 0 0 0 0 0 2
Neighs:        38482.8 ave       39579 max       37255 min
Histogram: 1 0 0 1 0 0 0 1 0 1

Total # of neighbors = 153931
Ave neighs/atom = 75.161621
Neighbor list builds = 4458
Dangerous builds = 0


# fix 132 all momentum 100 linear 1 1 1 angular
fix out_file_1 all print 1000 "$(step) $(temp) $(press) ${sys_press} $(vol) $(ke) $(pe) $(density)" file one_phase_heating_press_$P_$T_.txt screen no title  "step temp press pressGiga vol ke pe density"
fix out_file_1 all print 1000 "$(step) $(temp) $(press) ${sys_press} $(vol) $(ke) $(pe) $(density)" file one_phase_heating_press_0_$T_.txt screen no title  "step temp press pressGiga vol ke pe density"
fix out_file_1 all print 1000 "$(step) $(temp) $(press) ${sys_press} $(vol) $(ke) $(pe) $(density)" file one_phase_heating_press_0_1900_.txt screen no title  "step temp press pressGiga vol ke pe density"

# dump 3 all custom 1000 traj_npt_new.lammpstrj id type x y z
run 50000
Last active /omp style is pair_style eam/alloy/omp
Per MPI rank memory allocation (min/avg/max) = 4.354 | 4.354 | 4.354 Mbytes
Step Temp Volume Press KinEng PotEng Density 
  250000    1865.8157    25020.568   -2143.4114    493.68647   -8401.9504    8.0101455 
  251000    1873.2215    24960.208   -3546.6683    495.64601   -8430.7412    8.0295158 
  252000    1934.7272    24919.303    1896.7285    511.92014    -8422.985    8.0426963 
  253000    1903.5803    25089.986    -6374.535    503.67882   -8404.4573    7.9879831 
  254000    1923.4944    24863.417    2730.6894    508.94799   -8433.1813    8.0607741 
  255000     1896.724    24982.786   -4787.0031    501.86466   -8429.6921    8.0222594 
  256000    1891.2324    24843.725    11187.817    500.41163   -8396.2873    8.0671634 
  257000    1880.9303    25041.948   -2999.6814    497.68573   -8403.4606    8.0033066 
  258000    1984.7528    25004.902   -43.295372    525.15668   -8402.7353     8.015164 
  259000    1950.0436    24895.789   -100.83719    515.97281   -8438.2656    8.0502926 
  260000    1891.9934    24924.203   -1576.3229    500.61297   -8432.4177     8.041115 
  261000    1889.7387    24975.539   -2160.9985    500.01639   -8421.0799    8.0245869 
  262000    1952.5882    24875.583    2972.7324    516.64609   -8425.7449    8.0568316 
  263000    1950.5611    24862.472    3375.7057    516.10972   -8430.2183    8.0610806 
  264000    1941.2346    25034.614   -4967.5369    513.64198   -8418.5455    8.0056511 
  265000    1856.3318    24920.234    1805.9875    491.17707   -8413.3063    8.0423959 
  266000    1903.9204    24966.628   -1289.3803    503.76881   -8419.0563    8.0274512 
  267000    1912.0448    24831.686    10280.203    505.91849    -8405.693    8.0710745 
  268000    1874.8653    25001.835   -3656.3383    496.08095   -8421.0311    8.0161471 
  269000    1962.0888    25010.806   -6015.7158    519.15991   -8433.6585    8.0132716 
  270000    1903.8889    24993.372    1182.2892    503.76046   -8399.1857    8.0188613 
  271000    1912.5221    24899.651     2434.899    506.04478   -8421.4537    8.0490441 
  272000    1905.6844    24959.041      -760.51    504.23554   -8420.3535    8.0298912 
  273000    1887.7286    25024.358    807.88912    499.48451   -8392.5882    8.0089322 
  274000    1897.7583    24796.083    6616.5275    502.13833   -8433.5931    8.0826631 
  275000    1946.9171    25057.562   -2316.8687    515.14555   -8399.3826    7.9983196 
  276000    1901.8836    24885.867    1611.8616    503.22988   -8430.1946    8.0535024 
  277000    1871.8143    24920.956   -457.34273    495.27367   -8425.7719    8.0421627 
  278000    1920.4376    24969.075    529.74511    508.13918   -8409.4417    8.0266645 
  279000     1837.176    24947.362    2275.6545    486.10854   -8406.8507    8.0336504 
  280000     1853.118    24980.747    1050.8945    490.32672   -8402.7841    8.0229139 
  281000    1906.9179     24944.15   -1515.3891    504.56194   -8426.4181     8.034685 
  282000    1881.2989    24882.651    3753.6823    497.78325   -8419.5289    8.0545432 
  283000    1882.0236      25023.3   -1273.5658    497.97501   -8399.8108    8.0092709 
  284000    1957.3039    24950.934   -1938.9956    517.89385    -8429.179    8.0325003 
  285000    1930.8002    24940.808   -2212.6006    510.88106   -8431.9004    8.0357616 
  286000    1873.8362    24871.957    2436.0058    495.80866   -8429.3638    8.0580062 
  287000     1899.831    24932.378     299.2022    502.68678   -8419.4765    8.0384784 
  288000    1904.1967    25010.677   -2917.3185     503.8419   -8412.3612    8.0133132 
  289000    1924.3749    24915.706     1888.701    509.18098   -8421.4333    8.0438576 
  290000    1893.6558     25021.84   -4050.6991    501.05285   -8413.0947    8.0097381 
  291000    1864.1594    24875.245    1466.3194    493.24823   -8433.0489    8.0569412 
  292000     1869.135    24942.519    634.81443    494.56475   -8413.5631    8.0352104 
  293000    1871.5471    24998.723   -3476.6298    495.20297   -8416.6134    8.0171451 
  294000    1972.1737    24888.672    3408.3493    521.82831   -8425.9057    8.0525947 
  295000    1865.9872    25162.269   -9983.7351    493.73186   -8397.3046    7.9650365 
  296000    1946.4391     24910.32    3261.4051    515.01906    -8418.194    8.0455967 
  297000    1938.0729    24977.803   -1264.1955     512.8054   -8415.0497    8.0238597 
  298000    1859.5893    24996.547   -3413.7606    492.03899   -8420.1538    8.0178428 
  299000     1900.331    24844.827    4107.1798    502.81906    -8432.859    8.0668053 
  300000    1920.1066    24996.844   -1192.3157    508.05159   -8411.2719    8.0177477 
Loop time of 93.863 on 8 procs for 50000 steps with 2048 atoms

Performance: 46.025 ns/day, 0.521 hours/ns, 532.691 timesteps/s
117.1% CPU use with 4 MPI tasks x 2 OpenMP threads

MPI task timing breakdown:
Section |  min time  |  avg time  |  max time  |%varavg| %total
---------------------------------------------------------------
Pair    | 53.69      | 54.733     | 55.752     |  10.2 | 58.31
Neigh   | 0.7894     | 0.80966    | 0.82516    |   1.4 |  0.86
Comm    | 3.7943     | 4.8471     | 5.9073     |  34.9 |  5.16
Output  | 0.0010788  | 0.0017207  | 0.0019415  |   0.9 |  0.00
Modify  | 33.278     | 33.3       | 33.317     |   0.2 | 35.48
Other   |            | 0.1711     |            |       |  0.18

Nlocal:        512.000 ave         520 max         502 min
Histogram: 1 0 0 0 1 0 0 1 0 1
Nghost:        2971.50 ave        2977 max        2967 min
Histogram: 1 0 1 0 0 0 1 0 0 1
Neighs:        38481.0 ave       39874 max       36837 min
Histogram: 1 1 0 0 0 0 0 0 0 2

Total # of neighbors = 153924
Ave neighs/atom = 75.158203
Neighbor list builds = 886
Dangerous builds = 0

unfix temp
unfix out_file_1


write_data after_heating_press_$P_$T.in
write_data after_heating_press_0_$T.in
write_data after_heating_press_0_1900.in
System init for write_data ...
Last active /omp style is pair_style eam/alloy/omp
write_restart after_heating_press_$P_$T.lmp
write_restart after_heating_press_0_$T.lmp
write_restart after_heating_press_0_1900.lmp
System init for write_restart ...
Last active /omp style is pair_style eam/alloy/omp
next loopVar
jump in.lmp ensemble

print """
Label pachadi solti, hos garam.
"""

Label pachadi solti, hos garam.

variable T equal 1800+${loopVar}*100
variable T equal 1800+2*100
#variable T equal 1250
# velocity all create 1200 123123
reset_timestep 0
fix 1 all npt temp $T $T $(dt*100) iso $P $P $(dt*1000)
fix 1 all npt temp 2000 $T $(dt*100) iso $P $P $(dt*1000)
fix 1 all npt temp 2000 2000 $(dt*100) iso $P $P $(dt*1000)
fix 1 all npt temp 2000 2000 0.10000000000000000555 iso $P $P $(dt*1000)
fix 1 all npt temp 2000 2000 0.10000000000000000555 iso 0 $P $(dt*1000)
fix 1 all npt temp 2000 2000 0.10000000000000000555 iso 0 0 $(dt*1000)
fix 1 all npt temp 2000 2000 0.10000000000000000555 iso 0 0 1
print """
<--------------------------------------------------------------------->
<------------------ Equilibrating at temperature $T ----------------->
<--------------------------------------------------------------------->
"""

<--------------------------------------------------------------------->
<------------------ Equilibrating at temperature 2000 ----------------->
<--------------------------------------------------------------------->

fix temp all print 1000 "$(step) $(temp) $(press) ${sys_press} $(vol) $(ke) $(pe) $(density)" file temp_heat.txt screen no title  "step temp press pressGiga vol ke pe density"
run 250000
Last active /omp style is pair_style eam/alloy/omp
Per MPI rank memory allocation (min/avg/max) = 4.354 | 4.354 | 4.354 Mbytes
Step Temp Volume Press KinEng PotEng Density 
       0    1920.1066    24996.844   -1192.3157    508.05159   -8411.2719    8.0177477 
    1000    1988.6805    25009.055    4332.3934    526.19595   -8381.7634    8.0138327 
    2000    2026.5499    25147.789   -2863.5173    536.21601   -8375.4801    7.9696226 
    3000    1982.4629    25192.494   -10260.787    524.55079   -8395.3313    7.9554802 
    4000    2011.8171    25081.889    1618.3675     532.3178   -8372.9527    7.9905619 
    5000    1964.9761    25204.456   -4729.2552    519.92388   -8364.4347    7.9517046 
    6000    1988.2119    24961.189    6748.2929    526.07195   -8386.4883    8.0292004 
    7000    2030.3034    25126.957    2184.1443    537.20918   -8358.9276    7.9762298 
    8000    1992.6012    25093.672   -2197.2653    527.23333   -8385.5398      7.98681 
    9000    2048.2163    25113.003    2657.7024    541.94885   -8361.5389    7.9806621 
   10000    2004.0376    25176.354   -3981.3789    530.25936   -8372.7205    7.9605804 
   11000    2016.1636    25134.032    1757.0338    533.46786   -8357.2711    7.9739847 
   12000    2001.8354    24901.338    8692.8322    529.67667   -8395.6252    8.0484986 
   13000    1964.3188    25053.126    646.12721    519.74995   -8384.2849    7.9997356 
   14000    1956.7794    25155.431    1209.7941    517.75506   -8350.3774    7.9672014 
   15000    2010.2153     24967.85    4615.6239    531.89395   -8393.7614    8.0270582 
   16000    1984.2171    25060.876   -547.53183    525.01495   -8388.7909    7.9972619 
   17000    2025.8881    25222.935   -158.16149    536.04091   -8343.5568    7.9458788 
   18000    1990.4473    25111.835   -438.45106    526.66343   -8373.4068    7.9810332 
   19000    2015.9951     25074.29    2421.7754    533.42326   -8372.1225    7.9929834 
   20000    1936.3527    25054.633    286.50948    512.35023   -8383.9157    7.9992546 
   21000    2006.5767    25186.455   -5515.2115     530.9312    -8375.996    7.9573877 
   22000    2045.3657    25194.103    -1695.924    541.19459   -8354.5679    7.9549721 
   23000    2043.4748    25227.069   -7092.1601    540.69427   -8372.4541    7.9445767 
   24000    2003.2793    25018.233    2771.7572    530.05872   -8386.0245     8.010893 
   25000    2061.6103    25123.113   -1311.9101    545.49283   -8380.5988    7.9774504 
   26000    1996.1835    25225.834    -6442.304     528.1812   -8367.2428    7.9449656 
   27000    2034.1761    25194.554    707.88414    538.23388   -8346.5991    7.9548296 
   28000    2022.4475    25200.241   -3125.1162    535.13054   -8361.3156    7.9530345 
   29000    2015.6166    25151.672   -1761.9815    533.32313   -8369.7137    7.9683921 
   30000    1946.8844     25267.14   -8004.5305    515.13688   -8360.0952    7.9319776 
   31000    1965.9657     25128.56   -2581.2296     520.1857   -8375.4556    7.9757211 
   32000    2011.2763    25107.859    5588.5082    532.17469   -8345.1336     7.982297 
   33000    2032.3716    25029.365    2246.2448    537.75643   -8389.1969    8.0073301 
   34000    2051.9151    25171.712   -1215.0271    542.92755   -8362.4931    7.9620482 
   35000     2012.812    25262.124   -6990.1543    532.58102   -8360.4636    7.9335525 
   36000    2011.3708    25054.968    822.94012    532.19969   -8385.1895    7.9991475 
   37000    2044.5086     25198.01   -1955.7104    540.96781    -8355.005    7.9537386 
   38000    2001.7184    25208.766   -5658.5246    529.64572     -8367.02     7.950345 
   39000    1945.7334    25002.119    5478.3801    514.83235   -8377.8288    8.0160561 
   40000    2029.1722    25120.588   -3271.2981    536.90986   -8383.3088    7.9782523 
   41000    2020.3728    24986.035    5558.3131    534.58158   -8384.5466    8.0212161 
   42000    2018.1699    25146.765   -2235.4984    533.99871    -8370.834     7.969947 
   43000    2007.8326    25055.626    -1157.124    531.26351   -8395.8002    7.9989376 
   44000    1977.2223    25102.192    1007.3843    523.16416   -8369.4813     7.984099 
   45000    2014.6141    25076.126    2456.1953    533.05785   -8370.5607    7.9923983 
   46000    1949.2323    24995.501    3436.6865    515.75812   -8389.0359    8.0181785 
   47000    2047.8768    25058.918    1848.1227    541.85901   -8380.5618    7.9978866 
   48000    1965.5018    25221.886   -3099.9684    520.06298   -8349.4851    7.9462092 
   49000      1961.14    25091.667   -1437.1236    518.90886   -8383.5291    7.9874479 
   50000    1998.5233    25032.367    2072.9332     528.8003   -8388.0063    8.0063699 
   51000    1954.6628    25211.402   -7321.4688    517.19502   -8372.3825    7.9495137 
   52000    2009.6889    25153.933   -1172.1438    531.75468   -8364.0544    7.9676759 
   53000    2021.9861    24925.578    11929.567    535.00845   -8373.5974    8.0406714 
   54000    1950.0746    25094.556   -825.34805      515.981   -8378.7209    7.9865286 
   55000    1979.5853    25206.564   -6081.1263    523.78939   -8369.9527    7.9510397 
   56000    1991.4714    25051.606    1600.9322    526.93439   -8381.8707     8.000221 
   57000    2048.3712    25135.651   -1560.7871    541.98984    -8377.283    7.9734709 
   58000    1971.2206     25083.27   -2342.2402    521.57614   -8390.7485    7.9901221 
   59000    1954.6687    25232.414   -8371.4057    517.19656   -8371.7345    7.9428939 
   60000    2005.2121     25055.93    9194.4652    530.57014   -8343.5283    7.9988403 
   61000    1971.9215    25129.722    292.37065    521.76158   -8366.1804    7.9753523 
   62000    2064.4041    25216.508    -2743.571    546.23206   -8357.4803    7.9479039 
   63000    2011.8733    25079.294    252.21775    532.33265   -8377.7003    7.9913886 
   64000    1956.9893    25058.175    8130.9867    517.81061   -8352.7918    7.9981238 
   65000    2001.7604    25267.738   -9804.1993    529.65683   -8372.9223    7.9317898 
   66000    2042.8915    25069.162   -1881.2656    540.53994   -8397.1672    7.9946186 
   67000    1975.7603    25070.827    1481.0625    522.77732   -8376.6354    7.9940875 
   68000    2005.5827    25197.573   -1743.1947     530.6682    -8355.851    7.9538768 
   69000    1961.5016    25038.674    2796.1947    519.00454   -8380.4831    8.0043531 
   70000    1953.0909    25182.776   -1532.0903    516.77911   -8353.4674    7.9585501 
   71000    1971.7886    25137.752    234.52419    521.72641   -8361.7689    7.9728047 
   72000    2063.0987     25040.81    3499.5873    545.88665   -8378.4412    8.0036702 
   73000    2041.8987    25039.086   -1324.8261    540.27723   -8401.4663    8.0042213 
   74000    1928.7856    24991.781    5661.5693    510.34801   -8374.2743    8.0193719 
   75000    2018.7179    25210.656   -4114.5612    534.14372   -8363.6882     7.949749 
   76000    1949.5959    25129.677   -2199.4378    515.85433    -8374.234    7.9753666 
   77000    2018.2323    25015.005    2478.7047    534.01523    -8389.851    8.0119267 
   78000    1975.0334    24969.336    6101.9467    522.58499    -8388.143    8.0265805 
   79000    1989.6218    25054.975    3915.4557    526.44501   -8367.6512    7.9991454 
   80000    1992.1993    25055.655    105.57018    527.12701     -8387.54    7.9989282 
   81000    1943.2656    25231.755   -10652.673    514.17938   -8385.4294    7.9431013 
   82000    2013.9113     25061.11    3331.1479     532.8719   -8372.7745    7.9971873 
   83000    1973.5823    25051.487    3805.8352    522.20103   -8373.7728     8.000259 
   84000    2001.3056    25019.334    2684.2484     529.5365   -8388.6277    8.0105405 
   85000    1978.2656    25155.367    4134.1349    523.44021   -8336.6001    7.9672216 
   86000    1963.9927    25190.292   -8221.5249    519.66366   -8383.2002    7.9561755 
   87000    1997.8402    25040.872    4150.1344    528.61955   -8369.2281    8.0036504 
   88000    2003.5088    25039.358    4254.5485    530.11946   -8376.8906    8.0041344 
   89000    1975.4063    25176.038     -6296.14    522.68365   -8378.4827    7.9606802 
   90000     2008.503    25049.511    3249.0413    531.44089   -8376.5692      8.00089 
   91000    1987.5234    25099.523   -2360.7175    525.88979   -8387.3871    7.9849479 
   92000    2084.1734    25210.416   -2991.2695    551.46294   -8361.8172    7.9498245 
   93000    2002.2908    25007.112     5166.747    529.79718   -8377.2917    8.0144555 
   94000    1987.9481    25103.135    -1879.134    526.00214   -8383.9281     7.983799 
   95000    1995.9251    25206.954   -5045.0214    528.11284   -8370.2927    7.9509166 
   96000    1974.7814    24998.677    4285.4525    522.51831   -8385.3879    8.0171597 
   97000    2055.1519     25085.19    3180.6992    543.78399   -8367.1065    7.9895105 
   98000     1977.269    25069.557    1205.8537    523.17652    -8379.976    7.9944926 
   99000    1944.8093    24953.024    7351.1824    514.58782   -8381.0089    8.0318276 
  100000    1997.4645    25108.813   -2484.1002    528.52015   -8382.8163    7.9819936 
  101000     2062.868    25231.263    -5350.888    545.82562   -8364.5351    7.9432562 
  102000    2059.9769    24908.297    10701.502    545.06066   -8387.7547    8.0462501 
  103000    2043.0381    25146.648    -4615.411    540.57872   -8387.0184    7.9699841 
  104000    2003.6035    25159.151   -5339.3349    530.14449   -8381.3828    7.9660236 
  105000    2025.9966    25072.446    2188.8261    536.06961   -8373.6329    7.9935712 
  106000      2057.05    25028.954    2966.2708     544.2862   -8385.2374    8.0074616 
  107000    2006.2324    25130.998   -3245.1029    530.84009   -8380.7673    7.9749474 
  108000    1940.4936    25152.965   -3882.8227     513.4459   -8374.7547    7.9679826 
  109000    2016.7603    25121.391   -273.20316    533.62573   -8372.8335    7.9779972 
  110000    1983.9608     25058.85    2284.2096    524.94714   -8378.4625    7.9979083 
  111000    1944.7918    25127.271    -2861.381    514.58319   -8378.6627    7.9761304 
  112000    2005.5976    25002.953    4913.7282    530.67214   -8382.5711    8.0157886 
  113000    2013.4496    25152.121   -1312.3115    532.74975   -8365.9237    7.9682499 
  114000    1991.8518    25083.194    77.617581    527.03507    -8381.547    7.9901462 
  115000    1968.9924    25279.114   -8173.2098    520.98655   -8357.2478    7.9282203 
  116000    2039.5154    24925.527    7660.0645    539.64664   -8396.8808     8.040688 
  117000    1998.5141    25048.461    -2882.489    528.79788   -8404.4747    8.0012256 
  118000    2012.0743    25144.077   -1419.8132    532.38584   -8370.2091    7.9707992 
  119000    2031.1934    25048.923     2030.688    537.44466   -8384.3964     8.001078 
  120000    1990.4321    25168.597   -7161.4946     526.6594   -8383.4341    7.9630338 
  121000    2043.0339    24945.305    6969.6404     540.5776   -8391.1819     8.034313 
  122000    2029.4931    25133.777   -1281.0208    536.99478   -8373.2483    7.9740657 
  123000    1989.9907    25178.495   -4424.5219    526.54262   -8370.4703    7.9599034 
  124000    2024.1104    25179.806    443.64432    535.57053   -8346.7433    7.9594888 
  125000    1976.3343    25130.895   -248.95455     522.9292    -8367.074      7.97498 
  126000    2002.3733    25000.245    3337.2133      529.819   -8392.7647    8.0166569 
  127000    2023.1773    25104.345    4125.0681    535.32365   -8355.7348    7.9834144 
  128000     1994.553    25132.551   -2908.5028    527.74978    -8376.046    7.9744547 
  129000    1978.9442    25026.131    4366.0084    523.61978   -8377.6179    8.0083648 
  130000    2012.7847    25149.324   -2523.6116     532.5738   -8371.0174     7.969136 
  131000     2014.132    25122.446   -3009.1444    532.93031   -8382.3458    7.9776621 
  132000    1901.1244    25158.083   -4203.4643    503.02898   -8371.9105    7.9663617 
  133000    1962.8276    25094.506    1120.1666    519.35539   -8370.4246    7.9865445 
  134000    2053.5772    25071.157    4241.5336    543.36733   -8366.6161    7.9939823 
  135000    1967.4612    25030.977     1802.334    520.58141   -8388.4484    8.0068142 
  136000    1963.6606    25089.484     -412.523     519.5758   -8381.5125    7.9881429 
  137000     1966.481    25130.705   -5616.2481    520.32206   -8388.9054    7.9750402 
  138000    2078.9173     25043.96    4977.9762     550.0722    -8371.048    8.0026635 
  139000    2045.3754    25125.429    -4642.183    541.19717   -8391.3618    7.9767149 
  140000    2001.4168    25078.069   -1038.2201    529.56592   -8386.7333    7.9917792 
  141000    2036.2729    25162.014   -4198.3925    538.78867   -8378.7274    7.9651169 
  142000    2037.2389    25082.939      184.682    539.04428   -8382.0641    7.9902273 
  143000    2010.8178    25024.516    4308.6017    532.05337   -8377.9258    8.0088816 
  144000    1983.8498    25241.614   -7348.4588    524.91776   -8365.3612    7.9399988 
  145000    2006.5445    25033.602    3088.9981    530.92267   -8380.9466    8.0059747 
  146000    2010.6271     25059.68    230.72747    532.00291   -8386.0072    7.9976434 
  147000    2017.5803    25276.255   -5869.3834     533.8427   -8352.1598    7.9291172 
  148000    2024.4831    25001.283    2050.9445    535.66914   -8398.7969    8.0163241 
  149000    2002.3714    25111.675     -4064.21     529.8185   -8390.2468     7.981084 
  150000    2005.3037    25076.745    5044.4611    530.59437   -8359.1497    7.9922011 
  151000    2009.1266    24958.512    3707.5137    531.60588    -8399.647    8.0300614 
  152000    1968.3852    25212.198   -3514.7303     520.8259   -8354.3413    7.9492628 
  153000    1982.3234    25019.161    3433.3638    524.51388   -8380.5074    8.0105957 
  154000    2009.9727    25041.873     3376.523    531.82976   -8378.1076    8.0033305 
  155000    2043.5365    25152.661    701.46613    540.71059   -8357.5402    7.9680788 
  156000    1933.7643    25174.361   -2687.5565    511.66538   -8361.8606    7.9612104 
  157000    2058.9372     25054.93   -249.38352    544.78554   -8390.1656    7.9991598 
  158000    1942.9247    24997.929    1137.3436    514.08918   -8401.5837    8.0173996 
  159000    1967.2273    25129.531   -2633.8752    520.51952    -8376.942    7.9754129 
  160000    1960.6234    25200.008    -1161.141    518.77217     -8346.46    7.9531079 
  161000    2046.3594    25067.916    2162.2354    541.45751   -8377.6676    7.9950158 
  162000     1999.379    25109.412   -2129.5517    529.02672   -8382.5783    7.9818032 
  163000     1929.771    25124.497   -2466.5096    510.60877   -8377.0009    7.9770109 
  164000    2044.0308    25051.503    1577.4176    540.84137   -8384.7621    8.0002541 
  165000    1992.4201     25144.16   -50.811942    527.18542   -8358.7414    7.9707727 
  166000    1950.3371    25141.212    1927.2425    516.05046    -8350.275    7.9717075 
  167000    2019.9141    25191.452     222.3954    534.46021   -8342.8737    7.9558092 
  168000    1995.5118    25179.934    -5866.654    528.00348    -8376.387    7.9594485 
  169000    1991.6204    25111.926    790.97568    526.97382   -8367.2024    7.9810041 
  170000    1996.7537     25115.95    2447.9013    528.33208   -8360.1497    7.9797255 
  171000    1999.5984    25279.834   -6350.1628    529.08478   -8352.4222    7.9279947 
  172000    2033.6391    25085.402    1134.7163     538.0918    -8376.793    7.9894428 
  173000    2006.2803    25075.726     1232.734    530.85277   -8376.6513    7.9925257 
  174000    2052.9771    25269.585   -5863.0021    543.20853   -8353.6195    7.9312101 
  175000    2004.0536    25127.278    3390.3611    530.26361   -8352.5374    7.9761281 
  176000    1983.5803    25164.984   -1760.9182    524.84646   -8364.5117    7.9641771 
  177000    2013.1106    25202.446    -5881.364    532.66003    -8371.047    7.9523386 
  178000    2073.6479    25136.582    1241.4359    548.67794   -8361.0998    7.9731756 
  179000    1974.1463    25154.256     999.5348    522.35026   -8349.6972    7.9675736 
  180000    2055.2628     25127.08   -243.73234    543.81333   -8372.5178    7.9761908 
  181000    2043.2582    25095.895   -1496.2993    540.63697   -8384.3707    7.9861025 
  182000     2049.408    25176.038   -5977.8465    542.26417   -8383.3979    7.9606803 
  183000    1993.7327    25209.139   -1282.0778    527.53275   -8347.8996    7.9502274 
  184000    1990.2054    25107.831    4866.2433    526.59943   -8346.0812     7.982306 
  185000    2018.2469    25124.337   -976.13882    534.01908   -8375.0017    7.9770617 
  186000    1967.3842    25151.088    51.327399    520.56105   -8360.0915    7.9685771 
  187000    2040.3243    25070.977    3575.9661    539.86067   -8369.9756    7.9940398 
  188000    1967.6815    25063.224    1567.7069    520.63969   -8377.6729    7.9965126 
  189000    2018.2463    25139.432   -570.16794    534.01892   -8369.9068    7.9722719 
  190000    2061.1031    25226.512   -4336.8968    545.35865   -8358.3302    7.9447522 
  191000    2003.7941    25085.141     1117.406    530.19494   -8372.6155    7.9895259 
  192000    1996.9502    25167.116    1538.2828    528.38407   -8351.8301    7.9635022 
  193000     2005.694    25123.195    2466.2646    530.69763    -8354.709    7.9774244 
  194000    1938.4395    25098.271     1206.378    512.90241   -8363.7163    7.9853462 
  195000    1983.8175    25121.964   -2933.5439    524.90922   -8378.4996    7.9778151 
  196000    2002.3567    25078.715     1497.726    529.81461   -8377.3168     7.991573 
  197000    2003.4393    25076.421    3090.3825    530.10106   -8368.3126    7.9923043 
  198000    1983.0194    25103.341    607.56983    524.69805   -8368.4689    7.9837335 
  199000    1968.4677    25201.597    -3686.016    520.84774   -8361.9032    7.9526067 
  200000    2053.0497    25087.045    5395.6891    543.22774   -8358.0146    7.9889196 
  201000    1984.1643    25200.737   -1954.3153    525.00097   -8352.6331    7.9528781 
  202000    2001.1407    25054.039   -630.03541    529.49285   -8391.4428    7.9994442 
  203000    1947.5434    25153.295   -4248.8052    515.31126   -8375.4065    7.9678779 
  204000    1953.2539    25086.998    2925.7103    516.82223   -8361.2066    7.9889345 
  205000    1987.4468    25115.092    4423.3801    525.86952   -8352.2515    7.9799981 
  206000    1996.3993    25139.816   -3107.9062    528.23832   -8379.5099    7.9721501 
  207000    2039.6627    25045.618    2056.7154     539.6856   -8385.9599     8.002134 
  208000    1949.8705    25062.481    93.138156    515.92701   -8382.3321    7.9967495 
  209000    2012.3928    25192.814   -2109.4784     532.4701   -8355.3025    7.9553791 
  210000    2008.5673    25132.722   -846.10499    531.45789   -8369.7481    7.9744002 
  211000    1994.3782    25126.269   -1484.4523    527.70352   -8376.8071    7.9764484 
  212000    1987.5921    25109.208   -737.64132    525.90796   -8377.0382    7.9818681 
  213000    1961.9493    25068.863    3063.0793    519.12299   -8366.4135     7.994714 
  214000    1994.7207     25144.07    273.90924    527.79415   -8356.5444    7.9708015 
  215000    2002.4176    25130.243    396.31426    529.83073   -8365.9295    7.9751869 
  216000    2021.9784    25134.616    371.06831    535.00643    -8362.409    7.9737994 
  217000     1955.781     25197.85   -5456.6656    517.49089   -8366.0834    7.9537893 
  218000    2051.9273    25144.856    2878.7454    542.93078   -8354.9737    7.9705521 
  219000    1982.3839     25206.11    -3842.075     524.5299   -8359.6238    7.9511828 
  220000    1961.9137     24931.66    9044.6465    519.11357   -8380.0952      8.03871 
  221000    2004.1719    25142.131   -3298.2648    530.29489    -8377.664    7.9714161 
  222000    2013.3941    25141.157   -6844.5555    532.73505   -8394.4555    7.9717249 
  223000    2015.8172    25123.126   -1.8352161    533.37618   -8369.0051    7.9774463 
  224000    1994.9592    25306.793   -6592.5381    527.85726    -8343.735     7.919549 
  225000    2056.8656     25064.92    145.17321    544.23741   -8388.7162    7.9959716 
  226000    2037.7232    24985.175    5873.8597    539.17243   -8383.0926    8.0214923 
  227000    1965.8649    25142.382   -2542.8557    520.15904   -8373.9187    7.9713364 
  228000    1958.2371    25018.976     4148.572    518.14074   -8379.9887     8.010655 
  229000    1915.5005    25101.765   -1066.7211    506.83283   -8376.3743    7.9842348 
  230000    2004.3885    25185.478   -1793.3438    530.35222   -8360.9147    7.9576962 
  231000    1997.2247    25067.967    2177.7925     528.4567   -8376.7759    7.9949996 
  232000    1991.1175     25208.78   -9733.6598    526.84077   -8384.9575    7.9503407 
  233000    2028.9484    25180.106    1005.1911    536.85066    -8345.372    7.9593941 
  234000    1950.9295    25042.394    4268.7294    516.20721   -8370.7935    8.0031641 
  235000    2006.2624     25217.77   -7889.8456    530.84804   -8376.2183    7.9475064 
  236000    2099.3227    25025.362     7899.581    555.47136   -8367.8429    8.0086109 
  237000    1980.4485    25160.192   -3628.7287     524.0178   -8369.9876    7.9656938 
  238000    1989.8252    25139.016    -421.9853    526.49883   -8363.4245    7.9724038 
  239000    2052.1504    25164.771   -793.91053    542.98981   -8364.3673    7.9642443 
  240000    1996.5111    25082.043    159.87147    528.26788   -8379.0351     7.990513 
  241000    2052.0175    25152.207    2489.3213    542.95462   -8349.8769    7.9682226 
  242000    2022.8538    25068.634    2137.8532    535.23806   -8371.8713     7.994787 
  243000    1944.5777      25044.3    1343.8585    514.52653   -8382.0983    8.0025551 
  244000    1972.5469    25190.016   -7677.2716    521.92706   -8383.2894    7.9562629 
  245000    2026.0045    25069.328    2128.3581     536.0717   -8375.0456    7.9945657 
  246000    2069.8302    25137.253    1495.6099     547.6678   -8360.2087    7.9729628 
  247000    2000.4629    25206.587   -4355.2438    529.31352   -8363.7283    7.9510323 
  248000    1989.7748    25135.987   -1361.1088    526.48549   -8371.3327    7.9733644 
  249000    2010.9261    25192.343   -2989.5358    532.08204   -8361.1691    7.9555278 
  250000    1970.7539     24847.19    14071.767    521.45265   -8384.3871    8.0660384 
Loop time of 490.592 on 8 procs for 250000 steps with 2048 atoms

Performance: 44.028 ns/day, 0.545 hours/ns, 509.589 timesteps/s
117.7% CPU use with 4 MPI tasks x 2 OpenMP threads

MPI task timing breakdown:
Section |  min time  |  avg time  |  max time  |%varavg| %total
---------------------------------------------------------------
Pair    | 281.74     | 286.33     | 290.69     |  19.9 | 58.36
Neigh   | 4.2681     | 4.3836     | 4.4558     |   3.3 |  0.89
Comm    | 21.504     | 26.029     | 30.753     |  67.6 |  5.31
Output  | 0.0063763  | 0.011685   | 0.013483   |   2.8 |  0.00
Modify  | 172.83     | 172.93     | 173.02     |   0.5 | 35.25
Other   |            | 0.9074     |            |       |  0.18

Nlocal:        512.000 ave         519 max         501 min
Histogram: 1 0 0 0 0 1 0 0 0 2
Nghost:        2987.00 ave        3027 max        2952 min
Histogram: 1 0 0 0 2 0 0 0 0 1
Neighs:        38575.5 ave       39937 max       37213 min
Histogram: 1 0 1 0 0 0 0 1 0 1

Total # of neighbors = 154302
Ave neighs/atom = 75.342773
Neighbor list builds = 4600
Dangerous builds = 0


# fix 132 all momentum 100 linear 1 1 1 angular
fix out_file_1 all print 1000 "$(step) $(temp) $(press) ${sys_press} $(vol) $(ke) $(pe) $(density)" file one_phase_heating_press_$P_$T_.txt screen no title  "step temp press pressGiga vol ke pe density"
fix out_file_1 all print 1000 "$(step) $(temp) $(press) ${sys_press} $(vol) $(ke) $(pe) $(density)" file one_phase_heating_press_0_$T_.txt screen no title  "step temp press pressGiga vol ke pe density"
fix out_file_1 all print 1000 "$(step) $(temp) $(press) ${sys_press} $(vol) $(ke) $(pe) $(density)" file one_phase_heating_press_0_2000_.txt screen no title  "step temp press pressGiga vol ke pe density"

# dump 3 all custom 1000 traj_npt_new.lammpstrj id type x y z
run 50000
Last active /omp style is pair_style eam/alloy/omp
Per MPI rank memory allocation (min/avg/max) = 4.354 | 4.354 | 4.354 Mbytes
Step Temp Volume Press KinEng PotEng Density 
  250000    1970.7539     24847.19    14071.767    521.45265   -8384.3871    8.0660384 
  251000    1981.3079    25195.877   -4004.3115    524.24518   -8357.6832    7.9544119 
  252000    2030.8105    25073.073   -564.24422    537.34336   -8387.7719    7.9933713 
  253000    2006.5237    25109.803    1439.1868    530.91717   -8368.0981     7.981679 
  254000    1991.9894    25225.147    -7479.612    527.07148   -8370.3694    7.9451822 
  255000    2009.5351    24984.587    5467.8233    531.71398   -8382.5139     8.021681 
  256000    1970.2152    24963.201    3157.2964    521.31011   -8403.6769    8.0285533 
  257000    2005.7777    25183.033   -5897.5746    530.71978    -8377.298    7.9584691 
  258000    1987.1944    25063.606    2054.1695    525.80273   -8376.8529    7.9963908 
  259000    1968.7423    25105.429   -1245.7935    520.92038   -8378.7441    7.9830695 
  260000    1988.0762    25015.758    4092.1854    526.03605   -8381.7246    8.0116856 
  261000     2007.519    25268.466   -5750.1334    531.18053    -8353.265    7.9315614 
  262000    1986.3007    25176.697   -3838.9838    525.56627   -8371.3102    7.9604718 
  263000    2023.3063    25049.782    2267.5883    535.35778   -8379.2559    8.0008036 
  264000    2000.6082    25089.695   -669.30325    529.35197   -8381.7248    7.9880757 
  265000     1992.141    25105.038   -503.86161    527.11158   -8378.2943    7.9831939 
  266000    1969.7919    25121.205   -6641.0307     521.1981    -8400.691    7.9780562 
  267000    2084.9938    25016.567    4182.1176    551.68002   -8389.4621    8.0114264 
  268000    2001.2733    25199.829   -5904.3573    529.52793   -8372.3615    7.9531646 
  269000     2003.035    25108.999    237.61323    529.99409   -8372.2049    7.9819344 
  270000    2095.6879    25109.434     1083.236    554.50963   -8370.6629    7.9817962 
  271000    1975.1319    25144.101   -1632.3022    522.61105   -8369.4062    7.9707914 
  272000    2000.0402    25051.375    1519.0685    529.20166   -8381.8021    8.0002949 
  273000    1973.6718    24944.048    5888.9185    522.22471   -8391.7068    8.0347178 
  274000    2056.5021    25191.926     701.8798    544.14123   -8353.6113    7.9556594 
  275000    1973.7381    25190.884   -4625.8314    522.24225   -8367.2398    7.9559887 
  276000    1996.1421    25109.274   -1279.8963    528.17026   -8378.1353    7.9818472 
  277000    1991.9668    24998.634     5322.169    527.06548   -8379.9242    8.0171735 
  278000    2018.3567    25162.085    797.45087    534.04814   -8352.5921    7.9650945 
  279000    1954.3643    25144.617   -3777.6065    517.11602   -8377.5108     7.970628 
  280000    2009.3077    25063.932    2110.5779     531.6538    -8378.337    7.9962867 
  281000     2005.956    25198.223   -4186.4883    530.76696   -8363.3552    7.9536715 
  282000    1968.5496    25091.292   -1316.9099    520.86939   -8381.3423    7.9875676 
  283000    2012.7175    25078.938   -269.95042    532.55603   -8382.6629    7.9915021 
  284000    1915.7467    25107.552   -5918.2982    506.89798   -8400.7669    7.9823946 
  285000    1991.6831    25087.356    2296.4452    526.99042   -8366.3435    7.9888204 
  286000    1943.7214    25107.066   -552.86455    514.29996   -8370.0906     7.982549 
  287000    2027.8053    25064.227    4703.4226     536.5482   -8367.7865    7.9961926 
  288000    1992.7882    25166.873   -5908.8504    527.28282    -8383.537    7.9635793 
  289000    2005.6839    25105.008    1370.5554    530.69497   -8367.1002    7.9832034 
  290000    2077.5546    25135.007    1449.7728    549.71163   -8361.6252    7.9736754 
  291000    1979.7764    24972.438    4140.7844    523.83996   -8396.1225    8.0255836 
  292000    2050.2959     25082.29   -1551.4074    542.49911   -8385.9434     7.990434 
  293000    2008.9506     25018.95     4803.019    531.55932    -8381.283    8.0106633 
  294000    1983.2724     25160.04   -5689.5491    524.76497   -8382.8404    7.9657419 
  295000    2022.3399    25117.849    4714.9567    535.10207   -8349.9234    7.9791221 
  296000    1998.1414    25110.686    2520.2159    528.69925   -8359.9059    7.9813982 
  297000    1977.3058    25219.003    -6232.485    523.18624   -8367.6136    7.9471178 
  298000    1988.9644    25049.299    2558.8333    526.27107    -8377.467    8.0009578 
  299000     2018.097    25154.905    -735.0742    533.97942   -8360.2945    7.9673679 
  300000    1978.5426    25223.481   -4223.9767     523.5135   -8355.6319     7.945707 
Loop time of 101.56 on 8 procs for 50000 steps with 2048 atoms

Performance: 42.536 ns/day, 0.564 hours/ns, 492.319 timesteps/s
117.8% CPU use with 4 MPI tasks x 2 OpenMP threads

MPI task timing breakdown:
Section |  min time  |  avg time  |  max time  |%varavg| %total
---------------------------------------------------------------
Pair    | 58.294     | 59.293     | 60.284     |   9.5 | 58.38
Neigh   | 0.88384    | 0.90826    | 0.92415    |   1.6 |  0.89
Comm    | 4.2086     | 5.2388     | 6.2584     |  32.6 |  5.16
Output  | 0.0010856  | 0.001704   | 0.0019129  |   0.9 |  0.00
Modify  | 35.903     | 35.931     | 35.956     |   0.3 | 35.38
Other   |            | 0.1877     |            |       |  0.18

Nlocal:        512.000 ave         524 max         497 min
Histogram: 1 0 0 0 1 0 0 1 0 1
Nghost:        2946.25 ave        2964 max        2928 min
Histogram: 1 0 0 0 1 1 0 0 0 1
Neighs:        38244.5 ave       40937 max       36309 min
Histogram: 1 1 0 0 1 0 0 0 0 1

Total # of neighbors = 152978
Ave neighs/atom = 74.696289
Neighbor list builds = 924
Dangerous builds = 0

unfix temp
unfix out_file_1


write_data after_heating_press_$P_$T.in
write_data after_heating_press_0_$T.in
write_data after_heating_press_0_2000.in
System init for write_data ...
Last active /omp style is pair_style eam/alloy/omp
write_restart after_heating_press_$P_$T.lmp
write_restart after_heating_press_0_$T.lmp
write_restart after_heating_press_0_2000.lmp
System init for write_restart ...
Last active /omp style is pair_style eam/alloy/omp
next loopVar
jump in.lmp ensemble

print """
Label pachadi solti, hos garam.
"""

Label pachadi solti, hos garam.

variable T equal 1800+${loopVar}*100
variable T equal 1800+3*100
#variable T equal 1250
# velocity all create 1200 123123
reset_timestep 0
fix 1 all npt temp $T $T $(dt*100) iso $P $P $(dt*1000)
fix 1 all npt temp 2100 $T $(dt*100) iso $P $P $(dt*1000)
fix 1 all npt temp 2100 2100 $(dt*100) iso $P $P $(dt*1000)
fix 1 all npt temp 2100 2100 0.10000000000000000555 iso $P $P $(dt*1000)
fix 1 all npt temp 2100 2100 0.10000000000000000555 iso 0 $P $(dt*1000)
fix 1 all npt temp 2100 2100 0.10000000000000000555 iso 0 0 $(dt*1000)
fix 1 all npt temp 2100 2100 0.10000000000000000555 iso 0 0 1
print """
<--------------------------------------------------------------------->
<------------------ Equilibrating at temperature $T ----------------->
<--------------------------------------------------------------------->
"""

<--------------------------------------------------------------------->
<------------------ Equilibrating at temperature 2100 ----------------->
<--------------------------------------------------------------------->

fix temp all print 1000 "$(step) $(temp) $(press) ${sys_press} $(vol) $(ke) $(pe) $(density)" file temp_heat.txt screen no title  "step temp press pressGiga vol ke pe density"
run 250000
Last active /omp style is pair_style eam/alloy/omp
Per MPI rank memory allocation (min/avg/max) = 4.354 | 4.354 | 4.354 Mbytes
Step Temp Volume Press KinEng PotEng Density 
       0    1978.5426    25223.481   -4223.9767     523.5135   -8355.6319     7.945707 
    1000    2134.2208    25272.968   -801.31857    564.70524   -8334.2489    7.9301485 
    2000    2125.7527    25170.218    7652.9531    562.46465    -8322.339    7.9625209 
    3000    2125.5721    25361.384   -6151.7529    562.41685   -8329.5915    7.9025021 
    4000    2068.0378    25190.396    1691.6295    547.19352    -8341.523    7.9561426 
    5000    2102.5694    25154.603    3797.2912    556.33044   -8344.3495    7.9674636 
    6000    2169.5738    25392.661   -3274.1568    574.05949   -8310.7023    7.8927681 
    7000    2132.5139    25451.175   -7827.4616    564.25361   -8312.8633    7.8746223 
    8000    2074.9025    25085.233    9328.5843     549.0099    -8341.817    7.9894966 
    9000    2032.4283    25389.982    -2614.095    537.77141   -8297.8058    7.8936008 
   10000      2168.74    25319.206   -1101.2278    573.83887   -8320.4456    7.9156662 
   11000     2109.625    25108.064    6862.4441    558.19732   -8346.4518    7.9822317 
   12000    2101.3557     25358.68   -3391.1151     556.0093   -8318.4795    7.9033446 
   13000    2144.8555    25526.726   -7117.2023    567.51916   -8283.7111    7.8513159 
   14000    2080.3469    25315.625   -5368.9324    550.45047   -8337.2207    7.9167861 
   15000    2131.9205    25170.879    6149.8351    564.09661   -8327.5298    7.9623119 
   16000    2133.2532    25416.111   -5121.7286    564.44924   -8308.6833    7.8854859 
   17000    2094.8713    25372.266   -4102.6579    554.29356   -8314.4307    7.8991125 
   18000    2121.7161    25357.809    -176.0866    561.39656   -8300.1839    7.9036161 
   19000    2070.2145    25354.015   -5245.6186    547.76947   -8325.1471    7.9047988 
   20000    2134.2302     25309.77    3849.0086    564.70775   -8299.2223    7.9186176 
   21000    2145.9925    25209.326    3128.2161    567.82001   -8332.8658    7.9501685 
   22000    2049.5329     25346.03   -4603.3508     542.2972   -8326.8404     7.907289 
   23000    2034.5194    25233.416    451.05855     538.3247    -8331.649    7.9425785 
   24000    2130.3404    25395.863   -6358.4481    563.67853    -8321.216    7.8917729 
   25000    2156.2109    25236.684    6116.3655    570.52373    -8310.083      7.94155 
   26000    2101.9612     25299.52    2499.0456    556.16951   -8308.2956    7.9218256 
   27000    2140.4669    25427.542   -123.23033    566.35795   -8278.3338    7.8819409 
   28000    2104.5699    25334.223   -2967.1424    556.85976    -8320.356    7.9109742 
   29000    2026.3342    25290.692   -1499.7731    536.15894   -8330.6299    7.9245909 
   30000     2127.767    25269.732    1517.2682    562.99762   -8324.1227    7.9311638 
   31000    2126.9606    25265.132    -2826.095    562.78423   -8342.1208    7.9326078 
   32000     2068.508    25143.105    4934.5252    547.31795   -8339.2326    7.9711072 
   33000    2153.2229    25334.519   -5452.7773    569.73313   -8335.7473    7.9108818 
   34000    2122.5633    25280.397   -1480.2004    561.62072   -8335.6348    7.9278181 
   35000    2079.2787    25403.924   -3718.8912    550.16782    -8302.313     7.889269 
   36000    2101.6378    25116.566    4437.2141    556.08394   -8354.3162    7.9795299 
   37000    2136.6841    25222.761    2948.1847    565.35702   -8331.2118    7.9459337 
   38000    2007.2591    25498.118   -12569.012    531.11177   -8315.8761    7.8601245 
   39000    2095.0577    25339.083   -2394.8397    554.34286   -8321.3113    7.9094571 
   40000    2127.6988    25282.259   -125.86722    562.97957   -8322.9258     7.927234 
   41000    2089.5506    25344.132    545.81718    552.88571   -8303.5053    7.9078814 
   42000    2110.0363    25325.456   -3465.0476    558.30615   -8327.1063     7.913713 
   43000    2109.3767    25245.354    6564.7884    558.13162   -8301.8083    7.9388225 
   44000    2107.8239    25401.616    -7315.641    557.72074    -8323.832    7.8899856 
   45000    2115.5033    25233.461     1915.925    559.75269   -8329.8024    7.9425643 
   46000    2008.6133    25195.285    7402.0619    531.47008   -8309.4977    7.9545988 
   47000    2108.1341    25198.278    3623.1659    557.80284   -8329.1416    7.9536542 
   48000    2101.7006    25288.408    1571.6254    556.10055   -8317.6035    7.9253066 
   49000    2121.2152    25232.869   -333.86313    561.26404   -8340.6693    7.9427508 
   50000    2124.6636    25271.003    2353.8044    562.17645   -8322.9213     7.930765 
   51000    2042.7807    25068.168      9015.33    540.51061   -8344.6405    7.9949356 
   52000    2064.9774     25411.08   -3408.9517    546.38376   -8298.5105    7.8870473 
   53000    1998.9635    25351.823   -2418.4267    528.91679   -8309.5605    7.9054823 
   54000    2069.7644    25335.887    122.59249    547.65038   -8304.1962    7.9104546 
   55000    2039.9134    25159.847    5500.9454    539.75193   -8329.1354     7.965803 
   56000    2127.9957     25378.13   -2537.9859    563.05813    -8309.555    7.8972875 
   57000    2011.0042    25415.535   -7791.9004     532.1027   -8315.1454    7.8856646 
   58000    2070.8959    25311.382    1426.7914    547.94977   -8309.7418    7.9181132 
   59000    2080.3941    25343.114    1829.0806    550.46296   -8297.9011     7.908199 
   60000     2062.074    25363.384   -2182.0161    545.61555   -8310.3783    7.9018787 
   61000    2095.5161    25264.042    992.35416    554.46417   -8325.5577    7.9329503 
   62000    2124.2873    25292.924    1807.9386    562.07691   -8309.1351    7.9238915 
   63000    2173.0319    25268.786    1890.3718     574.9745   -8326.4694     7.931461 
   64000    2081.8567    25258.585     792.8008    550.84994    -8328.374     7.934664 
   65000    2101.8017    25371.842   -2236.2706     556.1273   -8309.8317    7.8992447 
   66000     2086.672    25245.337    2238.5829    552.12407   -8323.5002    7.9388278 
   67000    2109.1159     25333.83   -1098.3355    558.06262   -8315.4087    7.9110969 
   68000    2097.9192    25344.554    1189.2167        555.1    -8303.122    7.9077495 
   69000    2070.8663     25295.98    4126.2616    547.94193   -8301.0289    7.9229344 
   70000    2065.2242    25290.177   -779.62715    546.44907   -8321.8197    7.9247521 
   71000    2108.5203    25421.633   -3099.4038    557.90503   -8297.6536     7.883773 
   72000    2098.4179    25211.169   -839.74978    555.23198   -8348.7568    7.9495873 
   73000    2114.6984    25229.787    6257.0875    559.53971   -8312.2431    7.9437208 
   74000    2089.3104     25279.72    1902.3994    552.82216    -8314.653    7.9280303 
   75000    2124.6811    25270.332    3904.3055    562.18109   -8307.4111    7.9309757 
   76000    2160.6941    25268.577    2481.1338    571.70997   -8319.3553    7.9315265 
   77000    2090.1803    25525.325   -6430.8627    553.05233   -8281.2894    7.8517465 
   78000    2067.6219    25276.038    2771.2185    547.08349   -8309.1749    7.9291851 
   79000     2114.347    25288.996   -1144.9987    559.44673   -8327.5377    7.9251223 
   80000    2169.9666    25406.149   -4017.3817    574.16343   -8314.0183    7.8885781 
   81000    2171.7218    25255.766     7280.638    574.62784   -8302.4173    7.9355497 
   82000    2129.6217    25366.483   -3129.2194    563.48837   -8314.1219    7.9009134 
   83000    2036.0297     25272.89   -607.68092    538.72433   -8326.4086    7.9301727 
   84000    2189.8507     25471.98   -4630.0996    579.42467   -8294.0713    7.8681902 
   85000    2123.7368    25170.784    7666.5193    561.93124   -8319.9312    7.9623417 
   86000    2013.6605    25392.231    645.67103    532.80554   -8283.9288    7.8929017 
   87000    2180.3528    25223.682    5698.2251    576.91157   -8320.4562    7.9456435 
   88000    2042.7129    25265.564    1506.3969    540.49268    -8312.064    7.9324722 
   89000    2112.3234    25442.867   -8368.3427    558.91131    -8315.584    7.8771936 
   90000    2167.1469    25344.099   -1748.3751    573.41736    -8318.191    7.9078917 
   91000    2156.9822    25302.383    245.30554    570.72781    -8320.304    7.9209294 
   92000    2127.9625    25359.783    432.76011    563.04933   -8299.9899    7.9030008 
   93000    2053.7599    25415.325   -2073.3422    543.41567   -8293.0052    7.8857298 
   94000    2067.1571    25369.001   -654.51367     546.9605   -8300.5708    7.9001293 
   95000    2112.6556    25294.208     363.3182     558.9992   -8318.6013    7.9234893 
   96000    2080.0707    25472.238   -4522.5448    550.37739   -8290.2589    7.8681106 
   97000    2122.9253    25248.921   -130.83264    561.71653   -8336.7577    7.9377011 
   98000     2074.627    25200.715    8161.9352    548.93701     -8304.68    7.9528849 
   99000    2162.1722    25468.638   -6683.9117    572.10106   -8304.6958    7.8692228 
  100000    2030.5455     25405.19   -4527.1221    537.27323   -8306.9801    7.8888756 
  101000    2104.1498    25227.007      3232.41     556.7486   -8327.8992    7.9445962 
  102000    2100.2244     25479.34   -479.03911    555.70997   -8268.5664    7.8659175 
  103000    2072.1818    25477.167   -4959.1456    548.29001   -8288.2954    7.8665885 
  104000    2122.3907    25418.571   -7227.2239    561.57507   -8317.2124    7.8847228 
  105000    2144.0455    25184.858    4209.8216    567.30484   -8336.0429    7.9578921 
  106000    2052.3143    25347.146   -4661.8661    543.03316   -8324.5822    7.9069409 
  107000    2146.7557    25352.784    2267.7697    568.02194    -8297.493    7.9051827 
  108000    2070.2172    25236.341    8352.2838    547.77018   -8300.4373    7.9416577 
  109000    2015.7687    25430.524   -7651.9146    533.36336   -8311.6029    7.8810167 
  110000    2121.7909    25374.712    1962.2703    561.41637   -8288.6171    7.8983513 
  111000    2122.1453    25354.261   -929.55495    561.51013   -8308.8235    7.9047219 
  112000    2105.0704    25394.759   -2594.8852     556.9922   -8302.6399     7.892116 
  113000    2128.2198    25256.963    6042.7673    563.11743   -8305.9205    7.9351737 
  114000    2111.5441    25510.888    -5337.129    558.70511   -8283.4191    7.8561901 
  115000    2108.0863    25420.762   -2933.8849    557.79019   -8298.5598    7.8840433 
  116000    2091.7772    25403.456   -721.85907    553.47486   -8292.8889    7.8894141 
  117000    2085.1568     25379.43     1709.996    551.72315   -8285.3212    7.8968829 
  118000    2107.3829    25419.735   -3252.5293    557.60407    -8298.489    7.8843618 
  119000    2051.3001    25359.333   -1675.1466    542.76481   -8308.4469    7.9031412 
  120000    2037.9494    25364.214    786.64674    539.23228   -8289.4012    7.9016201 
  121000     2072.766     25149.75    6669.0969     548.4446   -8330.9991    7.9690011 
  122000    2158.3293     25280.54    375.63501    571.08426   -8327.2987    7.9277732 
  123000    2182.2352    25276.489   -829.43088    577.40964   -8331.0964    7.9290437 
  124000    2075.4955    25483.328   -11578.055    549.16681   -8318.1086    7.8646865 
  125000    2138.4294    25215.959    1800.4168    565.81883   -8337.8469    7.9480771 
  126000    2061.8609     25277.05    1780.3719    545.55914   -8316.5254    7.9288678 
  127000    2067.2525    25277.371    1287.1362    546.98574   -8315.5657    7.9287672 
  128000     2165.201    25187.599    5348.6987    572.90247   -8331.3627    7.9570262 
  129000    2089.6557    25390.232   -6852.8661    552.91353   -8327.5247    7.8935231 
  130000    2065.2343    25175.507    1154.6071    546.45173   -8347.5623    7.9608481 
  131000     2057.509     25210.63    3359.1647    544.40765   -8325.9566     7.949757 
  132000    2095.3111    25230.224    1580.9133    554.40993   -8332.2095    7.9435835 
  133000    2075.7394    25081.141    9617.8818    549.23134   -8335.2324    7.9908002 
  134000    2075.4389    25295.039    247.47541    549.15183   -8316.0851     7.923229 
  135000    2085.9607    25341.172   -1841.0543    551.93585   -8315.9683    7.9088049 
  136000    2147.0232    25231.735    1806.0431    568.09272   -8333.5193    7.9431077 
  137000    2110.5271    25265.627   -545.79982    558.43601   -8335.1613    7.9324526 
  138000     2136.145    25433.246   -5984.5681    565.21439   -8309.7809    7.8801733 
  139000    2177.0223    25450.187   -2274.0207    576.03034   -8290.1642    7.8749279 
  140000    2101.2543    25284.817   -830.21815    555.98247   -8328.8723    7.9264323 
  141000    2072.3271    25273.403    2101.9082    548.32845   -8317.7843    7.9300119 
  142000    2089.2406    25247.483    2639.9163    552.80371   -8320.4725    7.9381531 
  143000    2039.2701    25443.199   -5574.6989    539.58172   -8300.1877    7.8770906 
  144000    2169.3896    25281.971     6225.807    574.01075   -8302.6419    7.9273244 
  145000    2081.3384    25349.361   -28.973248     550.7128    -8306.447    7.9062502 
  146000    2100.3652    25429.273   -4963.9498    555.74721   -8299.3406    7.8814044 
  147000    2135.0908    25391.115    2288.9346    564.93546   -8282.5146    7.8932489 
  148000    2119.7588    25374.009   -457.61686    560.87867   -8295.1698      7.89857 
  149000    2092.2239     25325.88    762.29197    553.59307   -8308.0153    7.9135803 
  150000    2137.9668     25534.25   -4938.8809    565.69644   -8276.3706    7.8490022 
[...]
  116000    2399.2291    27033.625   -6790.7632    634.82527   -7901.1671    7.4136705 
  117000    2361.5356    26955.605   -4859.3093    624.85173   -7909.6585    7.4351285 
  118000    2378.6521    26933.202    273.92431    629.38068   -7896.0726     7.441313 
  119000    2442.5537    27049.589   -4482.1718    646.28876   -7880.7886    7.4092952 
  120000    2326.2422    26955.152    -2929.218    615.51326   -7894.7036    7.4352534 
  121000    2449.1398    27180.914    -5193.027    648.03141    -7870.382     7.373497 
  122000     2405.542    26789.716    5721.4684    636.49564   -7901.9474    7.4811689 
  123000    2355.4326    26742.434    4644.6574     623.2369   -7914.2436    7.4943959 
  124000    2352.1888    26990.187   -972.31245     622.3786   -7886.8128     7.425602 
  125000    2431.1788    27019.029    -2187.895    643.27902   -7885.4289    7.4176755 
  126000    2405.9881    27018.922    -2932.417    636.61368   -7888.8115    7.4177048 
  127000    2370.2481    26865.225    2279.1873    627.15703   -7896.7147    7.4601416 
  128000    2382.2919    26766.709    2036.3328    630.34375   -7918.6752     7.487599 
  129000    2386.5538    27120.098    -7286.239    631.47142     -7875.83    7.3900318 
  130000    2377.6011    27008.192   -3706.6123    629.10259    -7893.825    7.4206517 
  131000    2447.6112    27051.104   -5736.2125    647.62694   -7893.7283    7.4088801 
  132000    2423.8425    27045.509   -3320.7008    641.33785    -7888.757    7.4104127 
  133000     2467.714    27085.606   -2363.2854    652.94606   -7872.9358    7.3994425 
  134000    2396.5992    26942.552    2904.7729    634.12941   -7880.8076    7.4387306 
  135000    2335.7181    26974.423   -3443.8949    618.02054    -7895.316    7.4299416 
  136000    2382.2546    26879.074    1815.7489    630.33389   -7901.0653    7.4562981 
  137000    2376.9829    26766.522    8800.7396    628.93901   -7893.5892    7.4876515 
  138000    2386.2875    27004.544    1905.0178    631.40097   -7868.3419    7.4216543 
  139000    2445.8729    26888.162    3189.3291      647.167   -7893.1917    7.4537779 
  140000    2409.1441     26996.01   -2061.7594    637.44873   -7896.8534    7.4240003 
  141000    2358.7358    27141.527   -8771.0373    624.11092   -7880.4037    7.3841972 
  142000    2369.1877    26870.192    14.473983    626.87644   -7909.5703    7.4587626 
  143000    2406.4103    27231.833   -6878.4755    636.72538   -7858.0847    7.3597099 
  144000    2371.3128     26822.93    1027.6175    627.43875    -7912.704    7.4719051 
  145000    2432.8794    26968.608    1481.4907    643.72898   -7876.4857    7.4315436 
  146000    2411.6339    26877.281    3887.3787    638.10751   -7897.1318    7.4567956 
  147000    2376.0053    26874.548   -1402.2466    628.68035   -7918.7059    7.4575538 
  148000    2381.5724    26999.431   -3703.6416    630.15339   -7898.4825    7.4230595 
  149000    2333.1097     27076.53   -3660.3195    617.33037   -7871.5886     7.401923 
  150000    2441.3526    26889.692    3303.8341    645.97096   -7890.2693    7.4533538 
  151000    2443.0813    27000.278    836.40049    646.42837   -7871.7616    7.4228267 
  152000    2360.7818    26998.187    1712.9683    624.65228   -7865.9469    7.4234017 
  153000    2443.8219    27009.514   -438.02341    646.62431   -7877.0758    7.4202886 
  154000    2385.0874    26931.809   -2068.5166    631.08344   -7898.9814     7.441698 
  155000    2349.2787    26721.787    5884.6609    621.60861   -7923.0196    7.5001866 
  156000    2423.6919     26836.59    2172.6264      641.298   -7906.2453    7.4681019 
  157000    2403.1995    27041.837   -3662.3502    635.87582   -7888.1937    7.4114191 
  158000    2415.1537    26937.752   -3363.3451    639.03884   -7915.0828    7.4400561 
  159000    2456.0494    27144.076   -5719.0863    649.85967   -7872.2652    7.3835039 
  160000    2364.1262    27061.984   -6013.8563    625.53718    -7884.705    7.4059015 
  161000     2467.132    26911.553    1255.2616    652.79207   -7896.8268    7.4472991 
  162000    2398.5222    26791.268    9056.8763    634.63822   -7891.0151    7.4807353 
  163000    2384.6428    26950.208    3143.1239    630.96579   -7877.4515    7.4366173 
  164000    2369.1781    26842.169    4208.1711     626.8739   -7901.2021    7.4665495 
  165000    2446.4775    26999.069    1414.0641    647.32697   -7872.3425    7.4231591 
  166000    2446.8438    26806.574    7247.6629     647.4239   -7896.9742    7.4764641 
  167000    2419.1227    26914.925    6062.6024    640.08901    -7874.149    7.4463662 
  168000    2430.6997    26965.917   -4520.8595    643.15224    -7908.378    7.4322852 
  169000    2380.1243    26879.597   -1263.8307    629.77023    -7912.323    7.4561531 
  170000    2360.7521    26995.942   -4051.5429    624.64442   -7889.8615    7.4240191 
  171000    2437.3117    27092.138   -3369.4559    644.90176    -7876.227    7.3976584 
  172000    2357.8582    27052.846   -4192.1946    623.87871   -7881.5574    7.4084029 
  173000    2344.8206    27114.476    -4375.979    620.42901   -7866.9998    7.3915641 
  174000    2411.9707    26958.433    4594.6121    638.19663   -7869.0655    7.4343486 
  175000    2378.8531    26949.751    668.40157    629.43385    -7881.685    7.4367436 
  176000    2411.5394     26864.18   -2283.2721    638.08252   -7918.8302    7.4604319 
  177000    2415.9437    26872.444    2592.7492    639.24788    -7894.652    7.4581377 
  178000    2399.8306    26909.418   -974.53733    634.98441   -7899.3804      7.44789 
  179000    2385.2487    26995.684     2820.166    631.12611   -7861.1084    7.4240899 
  180000    2410.3665    26871.208     3668.561    637.77217   -7895.8593    7.4584807 
  181000     2455.079    27023.479   -3167.1845    649.60291   -7889.5446    7.4164538 
  182000    2341.0887    26824.598    5290.9924    619.44159   -7896.7721    7.4714405 
  183000    2454.0205      26936.2   -1838.3381    649.32282   -7901.4792    7.4404849 
  184000    2350.9679    26988.191    4626.9179    622.05556   -7860.8864     7.426151 
  185000     2385.819    26823.441    4396.5544    631.27701   -7905.3101    7.4717628 
  186000    2357.9724    26922.418    2365.9496    623.90893    -7883.648    7.4442938 
  187000    2480.2588    26873.548    5970.3117    656.26536   -7886.6238    7.4578314 
  188000    2361.2529    26998.386   -441.22285    624.77694   -7880.0337     7.423347 
  189000    2353.3075    27081.691   -5475.0131    622.67461    -7879.929    7.4005123 
  190000    2459.3705    27047.685   -848.17709    650.73841   -7877.2611    7.4098165 
  191000     2349.976    26780.547    4463.9261    621.79311   -7911.3384    7.4837301 
  192000    2409.7314    26883.451    3355.7969    637.60414   -7894.4736     7.455084 
  193000    2339.6922     26976.56   -2456.6983    619.07207   -7894.3938     7.429353 
  194000    2336.8895    27255.971   -7099.4787     618.3305   -7848.1554    7.3531921 
  195000    2369.3035    26888.349    389.07272    626.90709   -7902.5262    7.4537259 
  196000    2394.1041    27155.763   -3870.0223    633.46921   -7859.3645     7.380326 
  197000      2340.73    27060.389   -4126.1118    619.34666   -7881.7109     7.406338 
  198000    2379.8401    26982.557   -2869.3252    629.69501   -7894.9321    7.4277019 
  199000    2390.9039    26850.722    1882.4373    632.62246   -7910.1497    7.4641713 
  200000    2400.1423    27061.063   -7766.4648     635.0669   -7890.8797    7.4061536 
  201000    2371.8191    26801.915     3571.388     627.5727   -7909.6941    7.4777637 
  202000    2410.2698    26856.508    8354.2096    637.74659   -7875.5085    7.4625631 
  203000    2403.5198    26900.644    2152.1783    635.96057    -7893.104    7.4503194 
  204000    2404.2659    27029.598    92.006006    636.15797   -7869.4891     7.414775 
  205000    2447.2051    26904.052   -3539.7543    647.51949   -7923.8536    7.4493754 
  206000    2482.9039    27090.067   -3285.6455    656.96525   -7876.7723    7.3982242 
  207000    2372.9802    26830.262    4812.2829    627.87992   -7895.4604    7.4698633 
  208000     2349.266    26908.582     3008.745    621.60526   -7885.7559    7.4481213 
  209000    2448.9051    26926.911    2746.1995    647.96931   -7884.9195    7.4430516 
  210000    2401.4102    26978.179   -2648.6868    635.40237   -7892.5593    7.4289073 
  211000    2461.8119    27107.961   -8549.4143    651.38439   -7888.7172    7.3933406 
  212000    2355.4529     26927.83   -1856.8364    623.24226   -7903.3943    7.4427975 
  213000    2455.3481    26909.905    5257.2859    649.67409   -7881.7386    7.4477552 
  214000    2412.7203    26901.849    1930.6289    638.39497   -7890.8596    7.4499855 
  215000    2410.8889    26898.692   -412.31916    637.91039   -7906.5514      7.45086 
  216000     2329.817    26918.594   -1288.8289    616.45913   -7897.4152    7.4453512 
  217000    2416.8576    27221.058   -10068.077    639.48967   -7868.0229    7.3626231 
  218000    2325.8669    26954.915   -1329.9696    615.41396   -7891.3798    7.4353188 
  219000    2398.9679    27030.428    -4977.889    634.75615   -7891.0889    7.4145474 
  220000     2368.977    26992.977   -2070.8108    626.82069   -7888.8074    7.4248344 
  221000    2386.5984    26932.591    2674.0172    631.48323   -7881.9438    7.4414818 
  222000    2416.5536    26818.433   -625.29823    639.40925   -7928.0184     7.473158 
  223000    2391.3583    27008.763   -2483.7039    632.74268   -7881.8444    7.4204948 
  224000    2374.4707    26803.089    3490.9323     628.2743   -7908.8768     7.477436 
  225000    2397.6365    26945.644     671.5195    634.40387   -7888.2308    7.4378769 
  226000    2462.3911    27002.499    2724.4963    651.53766   -7866.0851    7.4222162 
  227000     2466.794    26986.713   -205.77934    652.70263   -7883.9591     7.426558 
  228000    2403.2552    26911.305    4037.9405    635.89055   -7884.3812    7.4473679 
  229000    2416.0881    27003.942    3704.5311    639.28607   -7859.3492    7.4218197 
  230000    2358.4893    26998.819   -1340.9664    624.04571   -7881.1602     7.423228 
  231000    2410.4895    26957.844   -3862.5816    637.80473   -7904.8438    7.4345109 
  232000    2391.2304     27016.23   -3595.7776    632.70884   -7888.6672    7.4184439 
  233000    2470.1651     26939.42    4052.8684    653.59461   -7878.8164    7.4395953 
  234000    2436.5679    26993.361    -2795.861    644.70494   -7896.6377    7.4247288 
  235000    2346.6647    26959.061   -1485.9931    620.91695   -7893.2046    7.4341753 
  236000    2435.9681    27079.779   -6133.7374    644.54625   -7883.2496    7.4010349 
  237000    2438.7437    27065.426    125.55467    645.28066   -7863.1347    7.4049596 
  238000    2394.6362    27102.662   -2216.0008    633.61001   -7863.5999     7.394786 
  239000    2389.7883    26916.732   -430.80541    632.32726    -7896.434    7.4458661 
  240000    2369.9779    26963.869   -1080.0615    627.08554   -7895.8826    7.4328497 
  241000    2364.2625     27022.38   -6759.2791    625.57327   -7898.8037    7.4167554 
  242000    2392.9239    26968.581   -2360.8431    633.15692   -7901.0648    7.4315511 
  243000    2435.0317    26970.581   -4558.3633    644.29847   -7908.1796        7.431 
  244000    2379.0194    27106.486   -9479.7725    629.47786   -7891.1464    7.3937429 
  245000    2445.8328    27031.271    409.13893    647.15639   -7867.6622     7.414316 
  246000     2406.599    26873.021     2809.517    636.77531   -7896.3573    7.4579776 
  247000    2335.8166    27004.958   -3189.5716    618.04659   -7890.8023    7.4215403 
  248000      2356.19    26815.874    4017.0368    623.43732   -7904.3329    7.4738712 
  249000      2431.18    27033.491   -5503.1798    643.27932   -7890.3053    7.4137071 
  250000    2450.6803    27013.049   -2451.9251    648.43903   -7888.9218    7.4193174 
Loop time of 473.259 on 8 procs for 250000 steps with 2048 atoms

Performance: 45.641 ns/day, 0.526 hours/ns, 528.252 timesteps/s
116.4% CPU use with 4 MPI tasks x 2 OpenMP threads

MPI task timing breakdown:
Section |  min time  |  avg time  |  max time  |%varavg| %total
---------------------------------------------------------------
Pair    | 266.59     | 270.09     | 273.81     |  16.3 | 57.07
Neigh   | 4.6772     | 4.787      | 4.8409     |   3.0 |  1.01
Comm    | 19.406     | 23.263     | 26.889     |  57.2 |  4.92
Output  | 0.0058153  | 0.011367   | 0.01322    |   3.0 |  0.00
Modify  | 174.08     | 174.17     | 174.26     |   0.5 | 36.80
Other   |            | 0.9371     |            |       |  0.20

Nlocal:        512.000 ave         522 max         505 min
Histogram: 2 0 0 0 0 0 1 0 0 1
Nghost:        2617.00 ave        2629 max        2606 min
Histogram: 1 0 0 1 0 1 0 0 0 1
Neighs:        35643.8 ave       37031 max       34478 min
Histogram: 1 0 1 0 0 1 0 0 0 1

Total # of neighbors = 142575
Ave neighs/atom = 69.616699
Neighbor list builds = 5174
Dangerous builds = 0


# fix 132 all momentum 100 linear 1 1 1 angular
fix out_file_1 all print 1000 "$(step) $(temp) $(press) ${sys_press} $(vol) $(ke) $(pe) $(density)" file one_phase_heating_press_$P_$T_.txt screen no title  "step temp press pressGiga vol ke pe density"
fix out_file_1 all print 1000 "$(step) $(temp) $(press) ${sys_press} $(vol) $(ke) $(pe) $(density)" file one_phase_heating_press_0_$T_.txt screen no title  "step temp press pressGiga vol ke pe density"
fix out_file_1 all print 1000 "$(step) $(temp) $(press) ${sys_press} $(vol) $(ke) $(pe) $(density)" file one_phase_heating_press_0_2400_.txt screen no title  "step temp press pressGiga vol ke pe density"

# dump 3 all custom 1000 traj_npt_new.lammpstrj id type x y z
run 50000
Last active /omp style is pair_style eam/alloy/omp
Per MPI rank memory allocation (min/avg/max) = 4.354 | 4.354 | 4.354 Mbytes
Step Temp Volume Press KinEng PotEng Density 
  250000    2450.6803    27013.049   -2451.9251    648.43903   -7888.9218    7.4193174 
  251000    2376.2889     26777.09    8594.3182    628.75538   -7891.4767    7.4846963 
  252000    2388.9752    26912.045    1143.7224    632.11214   -7892.6306    7.4471631 
  253000    2419.8523    26934.853   -2676.9888    640.28207    -7911.358    7.4408569 
  254000    2438.4816    27142.331   -6133.4378    645.21129   -7869.7587    7.3839785 
  255000    2433.7675    26844.059    5008.3445    643.96396   -7889.2757    7.4660239 
  256000    2369.4286    26864.397    7102.5294    626.94019   -7877.5026    7.4603717 
  257000     2385.447    26906.756    3371.0663    631.17857   -7881.7762     7.448627 
  258000    2445.5263    27098.643   -9793.4803     647.0753   -7895.0235    7.3958827 
  259000    2350.8995    26979.069   -4053.0326    622.03746   -7895.3293    7.4286621 
  260000    2505.2368    26933.462    4785.3626    662.87443    -7881.486    7.4412412 
  261000    2442.6628    26930.781    1457.0783    646.31764   -7894.2426     7.441982 
  262000     2371.158    26924.951   -3223.2403    627.39776   -7908.3623    7.4435934 
  263000    2388.3061    26975.192    1479.5029    631.93508   -7878.2808    7.4297299 
  264000    2432.5354    27150.075     -8899.56    643.63797   -7880.0311    7.3818724 
  265000    2400.6098    26929.111   -1088.1354     635.1906   -7894.8043    7.4424436 
  266000    2500.0461    27004.785    1028.7368      661.501   -7868.9481     7.421588 
  267000    2370.3092    26973.255    -1741.644    627.17318   -7893.3081    7.4302632 
  268000    2367.4839     26891.77    5296.1593    626.42562   -7879.5721    7.4527778 
  269000     2441.848    26656.161    8197.0738    646.10203    -7931.597    7.5186516 
  270000    2447.1156    26951.594      1513.59    647.49582   -7886.4891    7.4362349 
  271000    2436.9927    26821.621    4612.7186    644.81735   -7905.3234    7.4722697 
  272000    2426.2732    26946.478    -2883.034    641.98101   -7898.5594    7.4376468 
  273000    2349.8406    26979.491   -2315.4432    621.75728   -7891.5321    7.4285459 
  274000    2383.0942    26859.813    3095.2435    630.55604   -7898.1027    7.4616448 
  275000    2382.3861    27049.318   -6007.3546    630.36869   -7893.4337    7.4093694 
  276000    2355.1468    26955.516   -1831.2652    623.16129   -7896.2635    7.4351529 
  277000    2357.8199    26771.148    5610.3927    623.86858   -7907.6071    7.4863576 
  278000    2484.9435     26885.56    1630.8157    657.50491   -7903.0202    7.4544991 
  279000     2414.554    26804.054    7290.0897    638.88017    -7894.246    7.4771669 
  280000    2468.5196      27081.7   -5536.8567    653.15921   -7885.4419    7.4005097 
  281000    2433.6092    27088.457    171.08294    643.92207   -7855.1396    7.3986637 
  282000    2433.7501    26967.834    1270.9962    643.95936   -7873.8475    7.4317569 
  283000    2378.0108    26929.046    1993.3343      629.211   -7883.3969    7.4424615 
  284000    2363.7494    26890.436    6012.5846     625.4375   -7878.5264    7.4531477 
  285000    2473.7809    26976.743    172.95928    654.55134   -7887.4771    7.4293027 
  286000    2379.5753    27094.295   -8560.6928    629.62495   -7890.0166    7.3970697 
  287000    2424.3451    26968.559   -2749.0218    641.47086    -7903.451    7.4315571 
  288000    2407.4622    26933.297    3266.2778     637.0037   -7879.2662    7.4412868 
  289000    2396.2101    26923.288    3231.8552    634.02646   -7887.0975    7.4440533 
  290000    2345.4124    26861.871    3407.0227    620.58562   -7887.5892    7.4610733 
  291000    2341.8702    27021.222   -3642.8443    619.64835   -7890.1976    7.4170734 
  292000    2388.9235    26988.663   -920.51257    632.09844   -7890.7747    7.4260214 
  293000    2392.2878    27005.733   -2357.3241    632.98862   -7893.7154    7.4213273 
  294000    2458.7196    27103.268   -4043.1384    650.56619   -7868.4621    7.3946208 
  295000     2428.992    26826.618    5925.8974    642.70038   -7894.7884    7.4708779 
  296000    2376.8149    26971.291   -257.03597    628.89458   -7888.4474    7.4308043 
  297000    2401.6041    26971.784   -3675.3284    635.45368   -7904.2012    7.4306686 
  298000    2488.1939    26843.356    5767.0305    658.36495   -7893.1836    7.4662196 
  299000    2392.0171    26889.398    1409.1291      632.917   -7896.9836    7.4534354 
  300000    2369.0663    26790.282    3429.1665    626.84431   -7913.2295    7.4810106 
Loop time of 95.7646 on 8 procs for 50000 steps with 2048 atoms

Performance: 45.111 ns/day, 0.532 hours/ns, 522.113 timesteps/s
118.0% CPU use with 4 MPI tasks x 2 OpenMP threads

MPI task timing breakdown:
Section |  min time  |  avg time  |  max time  |%varavg| %total
---------------------------------------------------------------
Pair    | 54.096     | 54.798     | 55.516     |   7.1 | 57.22
Neigh   | 0.94685    | 0.96814    | 0.97771    |   1.3 |  1.01
Comm    | 3.912      | 4.6597     | 5.3857     |  25.2 |  4.87
Output  | 0.0010699  | 0.0017318  | 0.0019551  |   0.9 |  0.00
Modify  | 35.13      | 35.148     | 35.169     |   0.2 | 36.70
Other   |            | 0.1898     |            |       |  0.20

Nlocal:        512.000 ave         521 max         507 min
Histogram: 1 0 2 0 0 0 0 0 0 1
Nghost:        2609.50 ave        2616 max        2596 min
Histogram: 1 0 0 0 0 0 0 1 0 2
Neighs:        35961.2 ave       37380 max       34193 min
Histogram: 1 0 0 1 0 0 0 0 1 1

Total # of neighbors = 143845
Ave neighs/atom = 70.236816
Neighbor list builds = 1036
Dangerous builds = 0

unfix temp
unfix out_file_1


write_data after_heating_press_$P_$T.in
write_data after_heating_press_0_$T.in
write_data after_heating_press_0_2400.in
System init for write_data ...
Last active /omp style is pair_style eam/alloy/omp
write_restart after_heating_press_$P_$T.lmp
write_restart after_heating_press_0_$T.lmp
write_restart after_heating_press_0_2400.lmp
System init for write_restart ...
Last active /omp style is pair_style eam/alloy/omp
next loopVar
jump in.lmp ensemble
























Total wall time: 0:57:55
