LAMMPS data file via write_data, version 19 Mar 2020, timestep = 500000

864 atoms
2 atom types

-6.1320912091050062e-02 1.7388732912091996e+01 xlo xhi
-6.1320912091050062e-02 1.7388732912091996e+01 ylo yhi
-1.2264182418210012e-01 3.4777465824183992e+01 zlo zhi

Masses

1 58.71
2 26.982

Atoms # atomic

615 1 1.7751361366651066e+00 4.2915966944582801e-02 3.5319762816070526e+00 4 -5 2
544 2 3.0186400560355411e+00 1.7287024836354965e+00 1.8937600032939308e+00 4 -5 2
627 1 1.8287877265261998e+00 3.0358298710766074e+00 3.7356738359468018e+00 4 -5 2
555 1 1.9059831007006556e+00 3.3344019175971420e+00 6.6634669755431686e-01 4 -5 2
543 1 1.8428812374440526e+00 1.5619786712892450e-01 5.7063666885165887e-01 4 -5 2
542 2 1.7649385901034806e-01 1.8740037998166341e+00 1.9493653548574006e+00 4 -5 2
629 1 4.2948090688374876e+00 2.8665593811456453e+00 3.2895571436772251e+00 4 -5 2
557 1 4.7056372997331311e+00 3.0572976173694593e+00 7.7991806861797652e-01 4 -5 2
617 1 4.9038167159235391e+00 1.0328596483892627e-01 3.7420883399285936e+00 4 -5 2
545 1 4.7732087774552445e+00 2.3174008801185403e-01 7.4874279462152482e-01 4 -5 2
559 1 7.4820234177135161e+00 3.1940014229172915e+00 9.7289863872343774e-01 4 -5 2
619 1 7.4773611251431245e+00 1.4800363333264840e-01 3.6960513367307994e+00 4 -5 2
546 2 5.9202045387126683e+00 1.8674102295990878e+00 2.1055744951965334e+00 4 -5 2
631 1 7.8030508038881070e+00 2.9569564662058934e+00 3.4689628427625689e+00 4 -5 2
547 1 7.4241102231806373e+00 4.3258354187092646e-01 8.0639256239492951e-01 4 -5 2
548 2 8.8319819823337884e+00 1.5747547936046902e+00 2.1009910247440371e+00 4 -5 2
621 1 1.0361123808115460e+01 1.8976499107989719e-01 3.5498588354424063e+00 4 -5 2
550 2 1.2047570058411342e+01 1.7495324999562210e+00 2.1090687704506892e+00 4 -5 2
633 1 1.0532757070460136e+01 2.9291378395754841e+00 3.4563226705457128e+00 4 -5 2
549 1 1.0492479207256508e+01 2.4326834442877548e-01 6.8502178339037922e-01 4 -5 2
561 1 1.0399413200653006e+01 3.1717726367994055e+00 8.4696255083783389e-01 4 -5 2
563 1 1.3665959834993084e+01 3.1330170461660236e+00 5.8975647987171753e-01 4 -5 2
623 1 1.3135903962316091e+01 1.4190754453835552e-04 3.4787422112704860e+00 4 -5 2
635 1 1.3575102957595513e+01 2.9198825115194218e+00 3.3857139358296058e+00 4 -5 2
551 1 1.3325576038805849e+01 1.0415174814944081e-01 7.9180218846081452e-01 4 -5 2
613 1 1.6575251539396476e+01 5.6565885075416017e-02 3.2890471525490113e+00 3 -5 2
552 2 1.4890299251825347e+01 1.7035897849435904e+00 1.8308158330093118e+00 4 -5 2
625 1 1.6436856717846112e+01 3.2126833542550086e+00 3.7686966941927031e+00 3 -5 2
541 1 1.6436054903382988e+01 3.0745182989025677e-01 7.6475935969930531e-01 3 -5 2
553 1 1.6159668490813779e+01 3.4606905694786074e+00 8.7357226865719950e-01 3 -5 2
556 2 3.3153099850156775e+00 4.8110735995217775e+00 2.2375861491689371e+00 4 -5 2
639 1 1.9998720094295499e+00 5.9796855849850470e+00 3.6730559031070968e+00 4 -5 2
568 2 3.0701511612160846e+00 7.6631746470846300e+00 2.3521345415604240e+00 4 -5 2
567 1 1.8820720756753164e+00 6.2319374612168836e+00 5.9825776159832977e-01 4 -5 2
566 2 3.1504534717228810e-01 7.3192971842572980e+00 2.3041224675778853e+00 4 -5 2
554 2 5.6130311925648213e-01 4.5502823920331812e+00 2.3899310317055407e+00 4 -5 2
569 1 4.7352488657557803e+00 6.1350724126827894e+00 5.2028069987283210e-01 4 -5 2
641 1 4.6661623085753732e+00 6.1473156994146754e+00 3.8037463059160936e+00 4 -5 2
571 1 7.3914428850981588e+00 6.1454602471930571e+00 7.0230993085646132e-01 4 -5 2
558 2 5.9910243256243714e+00 4.7610751522773596e+00 2.2148643347468129e+00 4 -5 2
643 1 7.3526601007269070e+00 6.2248017213873466e+00 3.8312855347308421e+00 4 -5 2
570 2 5.9420163893781215e+00 7.4013321842440014e+00 2.3787011877700870e+00 4 -5 2
572 2 8.9264886159958969e+00 7.5835627525530107e+00 2.4224832435650487e+00 4 -5 2
560 2 9.0142376483387014e+00 4.6059701845688359e+00 2.2551388886722012e+00 4 -5 2
562 2 1.1759659183717956e+01 4.3891446775213039e+00 2.2375761473860263e+00 4 -5 2
645 1 1.0496718480602617e+01 5.9389591192843252e+00 3.8530298123589786e+00 4 -5 2
574 2 1.1599197908676514e+01 7.6128893064080883e+00 2.2200821374841864e+00 4 -5 2
573 1 1.0356787561659536e+01 6.0238466085613016e+00 5.1257046454085298e-01 4 -5 2
575 1 1.3430738083712139e+01 6.0786980562269353e+00 7.6460692553312459e-01 4 -5 2
647 1 1.3287208037317502e+01 6.3556029322330678e+00 3.4073506367996012e+00 4 -5 2
564 2 1.4617009650950246e+01 4.7690543752073919e+00 2.1952458463586271e+00 4 -5 2
637 1 1.6324294252982575e+01 5.9418482153666519e+00 3.6186267116115491e+00 3 -5 2
576 2 1.4866629894215867e+01 7.5699515466291567e+00 2.2500387276902019e+00 4 -5 2
565 1 1.6032454924060929e+01 6.2243544119058436e+00 5.8889717783944873e-01 3 -5 2
577 1 1.6575852431674441e+01 8.6382979574885574e+00 3.8894710165898214e+00 3 -6 2
519 1 1.9777639012300865e+00 1.1652193357654248e+01 9.3496613770177173e-01 4 -6 2
508 2 3.3634377754961040e+00 1.0373367129585654e+01 1.9547977300751769e+00 4 -6 2
579 1 1.9038580375780128e+00 9.0821542538705415e+00 3.8410257401393157e+00 4 -6 2
591 1 1.5521967744181120e+00 1.1789901418965753e+01 3.6752570286287094e+00 4 -6 2
507 1 1.5276096060956061e+00 8.6882160888577022e+00 7.6561273373474703e-01 4 -6 2
506 2 1.7139341284150231e-01 1.0243655320177540e+01 2.1788395067168977e+00 4 -6 2
583 1 7.5573845696170867e+00 8.9543110571527915e+00 3.6879830940292249e+00 4 -6 2
593 1 4.8334808571803283e+00 1.2012585818242934e+01 3.4495898352395553e+00 4 -6 2
521 1 4.7858752493347874e+00 1.1972235294602971e+01 8.3274814071467362e-01 4 -6 2
581 1 4.5398644791967131e+00 9.0933221392940418e+00 3.5953211292282292e+00 4 -6 2
510 2 6.0530901762130878e+00 1.0182642610332250e+01 2.1421846123554471e+00 4 -6 2
595 1 7.6634419072454030e+00 1.1861709686740458e+01 3.4709793652462597e+00 4 -6 2
511 1 7.3292299271334702e+00 8.8463088900718283e+00 7.5677399035181059e-01 4 -6 2
523 1 7.3066507914791297e+00 1.2185212416118206e+01 9.1013047822670079e-01 4 -6 2
509 1 4.7777620215020189e+00 8.9577796433653045e+00 6.8169308523463579e-01 4 -6 2
512 2 9.0308679425105591e+00 1.0589786822588646e+01 1.8972913428339560e+00 4 -6 2
513 1 1.0273736293873059e+01 8.8373391308234570e+00 7.2049202412756019e-01 4 -6 2
585 1 1.0352842202048512e+01 9.1477736932853162e+00 3.3226891372018867e+00 4 -6 2
514 2 1.2062200109438718e+01 1.0538910540729669e+01 2.1197180454280913e+00 4 -6 2
597 1 1.0569191801378169e+01 1.1715681681249176e+01 3.4999280828486161e+00 4 -6 2
525 1 1.0492532014021949e+01 1.1682611355390916e+01 5.3918450142640839e-01 4 -6 2
599 1 1.3489688428111808e+01 1.1719226753773361e+01 3.4238060104157881e+00 4 -6 2
527 1 1.3568130130849397e+01 1.1632220980909468e+01 5.2792003666572251e-01 4 -6 2
587 1 1.3477542258636948e+01 9.0717014256854238e+00 3.8255036295487743e+00 4 -6 2
515 1 1.3400485872470393e+01 8.7155085373796055e+00 8.1910442740935208e-01 4 -6 2
517 1 1.6244627986915901e+01 1.1912131158075345e+01 8.5524988045557671e-01 3 -6 2
505 1 1.6490958470518109e+01 8.8995594686584063e+00 6.1781884346582883e-01 3 -6 2
516 2 1.4824940442450353e+01 1.0063326501590504e+01 2.0838000225626336e+00 4 -6 2
589 1 1.6115742406113476e+01 1.1715427349860189e+01 3.3896444566685839e+00 3 -6 2
532 2 3.3962145319010570e+00 1.6037896124254964e+01 2.1049754950422646e+00 4 -6 2
520 2 3.0573025613709239e+00 1.3216397659808553e+01 2.2609959002927136e+00 4 -6 2
603 1 1.8004174158907713e+00 1.4991127802304643e+01 3.5862043457347483e+00 4 -6 2
531 1 1.9447379311927748e+00 1.4436297693415582e+01 5.6340942392898830e-01 4 -6 2
530 2 6.0902048497083949e-01 1.6269004167219251e+01 1.8373724569974523e+00 4 -6 2
518 2 2.7523747014499084e-01 1.3220247294577748e+01 2.1006261816301994e+00 4 -6 2
605 1 4.6907668546471282e+00 1.4755885097008306e+01 3.4658191914182588e+00 4 -6 2
533 1 4.6834933518501813e+00 1.4733203548878485e+01 6.7126100946587575e-01 4 -6 2
535 1 7.5460583637805918e+00 1.4794286760324443e+01 9.2961274425009166e-01 4 -6 2
534 2 6.2581412522222015e+00 1.6162484905336996e+01 2.3266237933687095e+00 4 -6 2
607 1 7.6823819597025427e+00 1.4958814759652649e+01 3.4818448807306246e+00 4 -6 2
522 2 6.0418666170679876e+00 1.3444595464929694e+01 2.2709780896636222e+00 4 -6 2
524 2 8.8746198355268184e+00 1.3328020739026522e+01 2.0303215361271421e+00 4 -6 2
536 2 9.0313960960205044e+00 1.6368093903867674e+01 2.0013885848365933e+00 4 -6 2
538 2 1.1597771550333601e+01 1.6043696126506170e+01 2.0743460801122522e+00 4 -6 2
537 1 1.0243301435632318e+01 1.4469493056556724e+01 5.3106662689559381e-01 4 -6 2
609 1 1.0296302628270206e+01 1.4577462038305351e+01 3.1914125460273528e+00 4 -6 2
526 2 1.2028928169176897e+01 1.3268027251286469e+01 1.7815754759738867e+00 4 -6 2
539 1 1.3228457127252025e+01 1.4672494619271291e+01 3.0969656318807626e-01 4 -6 2
611 1 1.3343601515713079e+01 1.4719760737322300e+01 3.5830110446564598e+00 4 -6 2
529 1 1.6595339401178130e+01 1.5009923530843313e+01 1.1326486533764009e+00 3 -6 2
540 2 1.4705830429660303e+01 1.6287145260839239e+01 2.0895514602974550e+00 4 -6 2
528 2 1.4931395383798330e+01 1.3454021506273094e+01 1.6869266763299717e+00 4 -6 2
601 1 1.6378668412882298e+01 1.4697816262190262e+01 3.5278705432645414e+00 3 -6 2
616 2 3.1950493025659092e+00 1.4018089896096861e+00 4.7860842406377655e+00 4 -5 2
140 2 3.2712253810501659e+00 1.6777281324477114e+00 7.8332444030173534e+00 3 -3 1
97 1 1.7772229993010278e+00 1.7158060750778092e-01 6.4930613480260284e+00 6 -5 1
723 1 1.8637231372431340e+00 2.9661208806227761e+00 6.6631686839508184e+00 4 -6 2
614 2 4.0980943643721346e-01 1.5820708801822356e+00 4.7943549874039038e+00 4 -5 2
160 2 1.6415182667794564e-01 1.5495775238784777e+00 7.9254639340793531e+00 3 -6 1
827 1 4.6942517917250433e+00 2.0898068660218816e-01 6.2262641524763342e+00 4 -5 2
847 1 4.3790389929209290e+00 2.9719932949244598e+00 6.4349872160530479e+00 3 -5 2
618 2 6.0651940163030851e+00 1.7456257599404050e+00 4.8731734923665693e+00 4 -5 2
150 2 5.8831635234593129e+00 1.6769829665841238e+00 7.8987517249632724e+00 2 -6 1
165 1 7.6089791948990912e+00 2.2695058001884522e-01 6.3443756974833141e+00 4 -4 1
769 1 7.3162567056683567e+00 2.9117291581619424e+00 6.1437324792381931e+00 3 -4 2
259 1 8.5459351208887089e+00 4.1908817025111258e+00 7.9185141987618284e+00 4 -5 1
620 2 8.9882408596998093e+00 1.7957664281144119e+00 4.9186864529220653e+00 4 -5 2
660 2 8.8126615489702100e+00 1.7715729582218660e+00 7.5622028780003205e+00 3 -5 2
622 2 1.2000839917981581e+01 1.8952714906567174e+00 4.9414884814962861e+00 4 -5 2
121 1 1.0431552819065262e+01 5.3268826982218664e-01 6.4049425381709577e+00 3 -6 1
700 2 1.2047021670493807e+01 1.6665617529735515e+00 7.7123107675517701e+00 3 -4 2
711 1 1.0266768767512405e+01 3.3062953930727965e+00 6.5855043753495908e+00 4 -7 2
7 1 1.3434931557655027e+01 3.0009290879348383e+00 6.2221956739877120e+00 3 -6 1
197 1 1.3247793115817695e+01 -5.4912911916817096e-02 6.4182983168383094e+00 1 -6 1
624 2 1.4561582506822578e+01 1.2798566870585704e+00 4.7652904115937806e+00 4 -5 2
46 2 1.4708224189691670e+01 1.3994299639303001e+00 7.9345679472178894e+00 1 -4 1
61 1 1.5962796059279670e+01 1.1344274588002831e-01 6.4650831886056030e+00 3 -5 1
790 2 1.6181890886391507e+01 2.9916762078338128e+00 6.2307107767045933e+00 3 -5 2
640 2 3.3773385967805498e+00 7.6702522981759174e+00 5.0955386612645803e+00 4 -5 2
628 2 3.3785194319986358e+00 4.4172736410070064e+00 4.9329058332268838e+00 4 -5 2
734 2 3.4593055053985493e+00 4.5944035065088293e+00 8.2152323401989449e+00 3 -5 2
717 1 1.7616922948219318e+00 5.9275303991432020e+00 6.4452774036820566e+00 2 -5 2
846 2 3.2292238248724807e+00 7.4001994411023837e+00 7.9438843190730228e+00 4 -4 2
812 2 7.1868073261219723e-01 4.3584515105839090e+00 7.8272652549248249e+00 4 -4 2
626 2 4.4168573610590522e-01 4.7378968431564266e+00 4.8729014651651781e+00 4 -5 2
638 2 5.0648040540540917e-01 7.3878102213898034e+00 5.0095801036995251e+00 4 -5 2
70 2 1.4425952878834558e-01 7.1482491032328550e+00 7.7349724443618992e+00 5 -5 1
179 1 4.3432210519507883e+00 5.7658712733839952e+00 6.3984846929512500e+00 4 -3 1
630 2 5.9821267873341073e+00 4.4289482530681354e+00 4.8032541075470325e+00 4 -5 2
642 2 6.0880670729630610e+00 7.4577699664613668e+00 5.3726135479687356e+00 4 -5 2
830 2 6.0004296168265636e+00 4.5228976611384262e+00 7.9353904935055155e+00 2 -4 2
713 1 7.6038263715740095e+00 5.7355935406725207e+00 6.6238864634470307e+00 4 -3 2
56 2 5.8644833308199242e+00 7.5143962897954824e+00 7.6788803356240773e+00 4 -4 1
644 2 9.0066456908700392e+00 7.3479818859691797e+00 5.4819322073275849e+00 4 -5 2
632 2 8.8243717200379184e+00 4.3684254004526855e+00 5.0665969273457581e+00 4 -5 2
102 2 9.0848123566195103e+00 7.4215433954347203e+00 7.9427458511239131e+00 2 -6 1
634 2 1.1941600032384169e+01 4.4552284955916370e+00 4.9686305319930124e+00 4 -5 2
646 2 1.1836699964962436e+01 7.3653443912097485e+00 5.1270656147444198e+00 4 -5 2
106 2 1.2347873367552213e+01 4.5966943753606468e+00 7.5295925269513031e+00 5 -7 1
787 1 1.0296090612873440e+01 5.6432019380684846e+00 6.2368352335035073e+00 5 -6 2
10 2 1.1595132253736182e+01 7.2264636152582629e+00 7.8015989928481622e+00 4 -5 1
127 1 1.3503476629032702e+01 5.9736186563167664e+00 6.1947912662111353e+00 3 -4 1
636 2 1.4788366596659861e+01 4.7100633004325614e+00 4.7899090404184577e+00 4 -5 2
96 2 1.4920126892458782e+01 4.4697417099547545e+00 7.8863194889343742e+00 2 -5 1
687 1 1.6239228344959272e+01 5.7540636887740657e+00 6.5777716531773764e+00 3 -5 2
648 2 1.5151430887153975e+01 7.3803646415676898e+00 4.9315555348369102e+00 4 -5 2
124 2 1.4607315539815218e+01 7.2409177247590852e+00 8.2370917537686115e+00 2 -4 1
229 1 1.3486817134082953e+01 8.3771963278341985e+00 6.4605220124191991e+00 4 -6 1
699 1 1.6034290375576852e+01 8.4964157930325790e+00 6.8679806166711890e+00 3 -4 2
580 2 3.3642567002436929e+00 1.0674930389365558e+01 5.0032805637053697e+00 4 -6 2
4 2 3.0896613262262487e+00 1.0359825003013906e+01 7.6985038710166371e+00 4 -5 1
845 1 1.5945622618250950e+00 8.8752574708006318e+00 6.3398826099459908e+00 4 -4 2
785 1 1.5589654062446889e+00 1.1964478079383477e+01 6.6066182707378358e+00 4 -5 2
36 2 1.6673211072434704e-01 1.0297512220682453e+01 7.3716327169187199e+00 3 -4 1
578 2 1.6631700755184411e-01 1.0432293121925280e+01 4.8820817493875550e+00 4 -6 2
24 2 4.9422393621163581e+00 1.2130700439949280e+01 6.5519339301117263e+00 4 -6 1
582 2 6.1720911793793318e+00 1.0526254106670143e+01 4.7489611704062842e+00 4 -6 2
125 1 4.5823718482919249e+00 9.1271146452541601e+00 6.6185507364043001e+00 3 -4 1
732 2 6.2015582113388223e+00 1.0511691137548871e+01 7.9204837739229337e+00 5 -5 2
91 1 7.4652637645799036e+00 9.0788467702151348e+00 6.4946682225815477e+00 3 -5 1
73 1 7.6915833098354991e+00 1.2047499029838383e+01 6.2864404083905869e+00 4 -7 1
132 2 8.7475469174086449e+00 1.0426093688224926e+01 7.8575464543445479e+00 4 -5 1
584 2 9.0669172352353016e+00 1.0362998383938830e+01 5.1485520342660838e+00 4 -6 2
586 2 1.2010050620056132e+01 1.0547613071057178e+01 4.8724376151190469e+00 4 -6 2
265 1 1.0582322851164911e+01 9.1543459977965966e+00 6.6646174619211003e+00 3 -5 1
674 2 1.2402281541147632e+01 1.0397743205824899e+01 7.6249015932118871e+00 4 -5 2
821 1 1.0436375363487620e+01 1.2065200330249523e+01 6.4393530336361566e+00 4 -5 2
131 1 1.3378604555073659e+01 1.2213613504308514e+01 6.6447211149347813e+00 4 -6 1
588 2 1.4634445555126597e+01 1.0345707801142755e+01 5.3292569675438308e+00 4 -6 2
269 1 1.4887332899779112e+01 1.0458212994408951e+01 7.9568096552947072e+00 1 -5 1
654 2 1.6221876951050092e+01 1.2061702911050709e+01 6.4636634222473104e+00 4 -5 2
592 2 3.2383279370521598e+00 1.3478090345005672e+01 5.0072976093273063e+00 4 -6 2
604 2 3.1925238841383035e+00 1.6223880195306002e+01 4.9459800005269425e+00 4 -6 2
118 2 3.3719627934652912e+00 1.6325330079869580e+01 7.7784123907357827e+00 4 -5 1
863 1 1.8428973329104879e+00 1.4803808249212162e+01 6.4722714190993340e+00 4 -6 2
748 2 2.9033377394974607e+00 1.3161010519008869e+01 8.3967645442151575e+00 3 -6 2
602 2 7.8612560816306631e-02 1.5947731055141654e+01 5.1395416533004097e+00 4 -6 2
590 2 3.7009091583200077e-01 1.3435779646207283e+01 4.9378271476930955e+00 4 -6 2
32 2 1.9363264131471258e-01 1.3327050791058383e+01 7.9065251710354580e+00 5 -6 1
34 2 1.1321187141794892e-02 1.6363971303311573e+01 7.7938964172036647e+00 5 -5 1
129 1 4.3976294100622573e+00 1.4382391053170778e+01 6.7331701217860491e+00 2 -7 1
606 2 6.0073549766776999e+00 1.6190393264536397e+01 5.2193648656360834e+00 4 -6 2
814 2 6.2984299811304103e+00 1.6333867654023258e+01 7.7330715360543589e+00 5 -6 2
594 2 6.0435670749101131e+00 1.3560691750637980e+01 5.1226774873377856e+00 4 -6 2
169 1 7.6869436970144545e+00 1.4869912122434267e+01 6.6781835851334206e+00 4 -8 1
37 1 6.5390435317315765e+00 1.3351548748199139e+01 7.8453648178265789e+00 2 -5 1
188 2 9.1083666165555073e+00 1.3285503723573624e+01 7.8269974776655742e+00 4 -5 1
596 2 9.0031811782020288e+00 1.3344792976181347e+01 4.7345000229509990e+00 4 -6 2
608 2 9.1981529286060812e+00 1.6098366914743210e+01 4.8604609159100685e+00 4 -6 2
834 2 9.1246764168510772e+00 1.6184861963185405e+01 7.7711919046212197e+00 4 -7 2
598 2 1.1705084215143804e+01 1.3283273545035733e+01 4.7503911234077858e+00 4 -6 2
610 2 1.1874748900313158e+01 1.6328386700919715e+01 5.0212681148323135e+00 4 -6 2
778 2 1.1936902508852510e+01 1.6341562218520650e+01 8.1422138011185385e+00 3 -4 2
195 1 1.0593443581622145e+01 1.4761458467043278e+01 6.2996603913903995e+00 3 -5 1
822 2 1.1724885519538107e+01 1.3430713688417134e+01 8.0781757299801171e+00 3 -6 2
662 2 1.3186503189861025e+01 1.4549650513828031e+01 6.4376733618732986e+00 4 -7 2
600 2 1.4586054423416407e+01 1.3162785762286694e+01 4.7136461335122162e+00 4 -6 2
612 2 1.4940210150893902e+01 1.5926642057720413e+01 4.8822316947007938e+00 4 -6 2
783 1 1.4578233023145390e+01 1.6026978209037779e+01 7.5106332608934165e+00 4 -5 2
138 2 1.4703624807643248e+01 1.3331416978856282e+01 8.4453283320204697e+00 3 -6 1
809 1 1.6108477625933084e+01 1.4437703725603846e+01 6.5855384235940893e+00 5 -7 2
287 1 1.9621093320643279e+00 2.1697845242478370e-01 9.2231530989130519e+00 6 -4 1
175 1 1.7997775129389046e+00 2.7296899046136809e+00 9.2599805789397376e+00 4 -6 1
788 2 3.2134046656423076e+00 1.8207171186550049e+00 1.0746798930191908e+01 4 -4 2
793 1 2.1337252228516941e+00 1.7582647056185585e-01 1.2253721019301532e+01 2 -6 2
831 1 1.6602513640976115e+00 2.6071122697366778e+00 1.2473276567126931e+01 3 -6 2
774 2 4.7893170193335222e-01 1.3482761178327456e+00 1.0511169972545300e+01 3 -3 2
135 1 4.7335581795381385e+00 3.0322045522089920e+00 9.3791815720812668e+00 2 -4 1
804 2 4.5699402695348610e+00 1.2406782770565755e-01 1.2261773940444522e+01 2 -5 2
105 1 5.0561922882631887e+00 3.1698528586453123e+00 1.2205222153165515e+01 2 -5 1
113 1 7.8226071432385700e+00 -8.5352002505494837e-03 9.2108792626726590e+00 4 -5 1
69 1 7.3956724229860775e+00 2.9188165066173775e+00 9.2312567366689908e+00 5 -4 1
143 1 7.3396954857744019e+00 7.7872081675561838e-02 1.2259934172802925e+01 5 -5 1
714 2 5.9852321873179024e+00 1.5672621526188819e+00 1.0601848098953514e+01 2 -4 2
95 1 7.5726668607179839e+00 3.0865203122617411e+00 1.2282133509695441e+01 3 -7 1
760 2 8.7980347351320081e+00 1.6389431177419673e+00 1.0782254778744171e+01 3 -4 2
177 1 1.0421318933868839e+01 1.8377839210866920e-01 9.4894290655530842e+00 2 -4 1
251 1 1.0215322179955050e+01 2.9046237308990980e-01 1.2585703940757121e+01 3 -5 1
756 2 1.1893142864744144e+01 1.5492974554115981e+00 1.0731136503101359e+01 6 -6 2
852 2 1.0556513410343943e+01 3.1623962214477559e+00 9.0647079244762487e+00 4 -4 2
813 1 1.1759990345456032e+01 4.1521466445967992e+00 1.0764144872687625e+01 4 -4 2
656 2 1.0065847267201461e+01 3.2778774649378675e+00 1.2418434943272372e+01 4 -4 2
261 1 1.3382940169758472e+01 5.3708299240118962e-01 9.3749843763028444e+00 2 -5 1
807 1 1.3613293046643182e+01 3.0281397256254712e+00 9.3208031920996266e+00 3 -4 2
691 1 1.3441802884403906e+01 4.6176333619151166e-01 1.2470096585175767e+01 3 -4 2
128 2 1.3148339925050747e+01 2.8978375348769987e+00 1.2353556862868109e+01 4 -5 1
689 1 1.6209611689099084e+01 1.6337421636463770e-01 9.2814179769957033e+00 3 -5 2
824 2 1.5078586631080499e+01 1.6232854575181161e+00 1.0873744788502085e+01 3 -6 2
45 1 1.6766080793535878e+01 1.8637787814577850e-01 1.2203541741410813e+01 3 -5 1
189 1 1.6418091247108137e+01 3.0233121055307066e+00 9.3326550266644102e+00 2 -5 1
780 2 1.6529412495043182e+01 3.3222276074646460e+00 1.2368714421417408e+01 3 -5 2
23 1 1.7668554710246136e+00 6.0446693395964042e+00 9.2428479146400520e+00 5 -6 1
30 2 3.1704084810542601e+00 4.3576842927031967e+00 1.1090127042116434e+01 5 -5 1
51 1 2.2846981433675029e+00 6.3998293965389612e+00 1.2160008965979554e+01 3 -5 1
766 2 3.4950208245011436e+00 7.5334791504839895e+00 1.0663032141528765e+01 5 -6 2
792 2 6.4777115840353228e-01 4.6832884597582147e+00 1.0600153785270788e+01 3 -4 2
728 2 3.7536161365289505e-01 7.4487340134908555e+00 1.0954993538465105e+01 4 -5 2
797 1 4.8549028259870193e+00 6.0484678382564914e+00 9.3213513065666795e+00 4 -7 2
741 1 4.7686239515766848e+00 6.2016781324251546e+00 1.2034099309895431e+01 4 -4 2
141 1 7.4307649615320299e+00 6.2568872975003265e+00 9.0122375305073312e+00 3 -5 1
652 2 6.2234492425531656e+00 4.8912330395690979e+00 1.0916199612406686e+01 2 -6 2
223 1 7.8712363916226282e+00 6.4637134816024053e+00 1.1958199828454250e+01 3 -5 1
94 2 6.1431951315906064e+00 7.5333028686837125e+00 1.0826963056179677e+01 4 -5 1
184 2 8.6020553736031431e+00 4.6456799827639976e+00 1.0644095729919636e+01 4 -5 1
64 2 8.8832505990423751e+00 7.7015183855445439e+00 1.0755052143760665e+01 6 -3 1
257 1 1.0327610839388930e+01 5.6963188833480185e+00 9.2058427212447764e+00 3 -6 1
15 1 1.0418081214269264e+01 5.7652613061542173e+00 1.2406494121767121e+01 3 -6 1
190 2 1.1808438177118687e+01 7.0340021016125718e+00 1.0875090005238409e+01 2 -4 1
161 1 1.3414865366167266e+01 5.5002143588043131e+00 9.5156176569488640e+00 2 -4 1
13 1 1.3071477234106016e+01 5.6459139362741473e+00 1.2070227385705030e+01 3 -5 1
193 1 1.6342337606351634e+01 5.5731259709181860e+00 9.5196223989139686e+00 2 -3 1
134 2 1.4826202168432058e+01 4.6182098956563733e+00 1.0980196077195249e+01 2 -6 1
173 1 1.6326081793408669e+01 5.8839184180576076e+00 1.2145023432979130e+01 3 -5 1
211 1 1.4678044413817311e+01 7.1451014608993297e+00 1.0628178493802082e+01 0 -5 1
716 2 1.6176061973116411e+01 8.4849900029318839e+00 1.2952949702617961e+01 4 -4 2
63 1 1.2300147429759356e+00 8.9598201068551226e+00 8.9783879945064715e+00 2 -6 1
705 1 1.5015820426317139e+00 1.1521110413492915e+01 9.4329633674431648e+00 5 -6 2
206 2 3.1477360069754128e+00 1.0084820523376351e+01 1.0750519453685145e+01 2 -7 1
729 1 1.9389452482752532e+00 8.7905754385857602e+00 1.2386219718708547e+01 3 -7 2
48 2 1.6928543578664779e+00 1.2145957294756183e+01 1.1814925313149024e+01 3 -5 1
835 1 2.9846233417568785e-01 1.0493244976675797e+01 1.1177714535363808e+01 4 -6 2
843 1 4.2733742864532944e+00 1.1708676195860441e+01 1.2063797546648301e+01 2 -6 2
155 1 4.6829713135608975e+00 8.9619041605911800e+00 1.2251615155521209e+01 5 -5 1
231 1 4.8070800273773386e+00 8.8443685315452427e+00 9.2766543751239237e+00 4 -7 1
159 1 4.8191413292057703e+00 1.1715239334908631e+01 9.3941640935015229e+00 2 -4 1
33 1 7.3652666702539316e+00 8.8232898834743381e+00 9.3117549439657754e+00 4 -7 1
52 2 6.1040524714638167e+00 1.0224850688785983e+01 1.0767324748893397e+01 4 -3 1
49 1 7.6903597943916395e+00 9.0791437456753012e+00 1.2200741848173712e+01 3 -7 1
27 1 7.4275218336062938e+00 1.1865777954117307e+01 9.4832557889380809e+00 3 -7 1
78 2 7.9367604757416776e+00 1.1848332074548276e+01 1.2458448187371898e+01 3 -6 1
789 1 9.2875225076093351e+00 1.0574880125885919e+01 1.0858750628444721e+01 4 -5 2
38 2 1.0545213702152953e+01 9.2591291122737580e+00 9.1604395674667458e+00 4 -5 1
782 2 1.0689038622832443e+01 9.0490063181005276e+00 1.2155867143465647e+01 1 -6 2
207 1 1.1992990545732965e+01 1.0620825448636120e+01 1.0934028570150087e+01 4 -6 1
776 2 1.0462880126558124e+01 1.1929899227329772e+01 9.5874347380189437e+00 3 -4 2
166 2 1.0665099770013560e+01 1.1964009991680838e+01 1.2341212484786240e+01 4 -6 1
684 2 1.2973031411460742e+01 8.8764449262062968e+00 9.3125389559864242e+00 4 -7 2
733 1 1.3214154351573756e+01 1.2084297501006258e+01 9.5407918255962905e+00 3 -6 2
669 1 1.3412674735083787e+01 1.2273482722804637e+01 1.2381926279805944e+01 4 -5 2
817 1 1.6261650972024547e+01 1.1802604559830394e+01 9.3431101407878607e+00 1 -5 2
752 2 1.6332701813290889e+01 8.7886845097068722e+00 9.5328163782822788e+00 1 -8 2
142 2 1.3653651419854711e+01 8.8748683386569631e+00 1.2171668727497579e+01 4 -4 1
718 2 1.4737188451060325e+01 1.0807121694176605e+01 1.0963446510589593e+01 5 -6 2
759 1 1.6409777694647673e+01 1.2350831615078876e+01 1.1902741962054829e+01 3 -5 2
855 1 3.3779567169260183e+00 1.3642293745222167e+01 1.0526729266525862e+01 4 -6 2
53 1 1.5923229796687421e+00 1.4985185201995991e+01 8.8870255959929700e+00 4 -4 1
100 2 2.8507542733426998e+00 1.5842034848966165e+01 1.0652630475650618e+01 2 -5 1
751 1 1.6703724566339164e+00 1.4466329212209088e+01 1.2306486725018290e+01 3 -5 2
681 1 4.8355079103392962e-01 1.6217194558414363e+01 1.0524832723737910e+01 3 -6 2
768 2 3.4762203695899585e-01 1.3745914760811402e+01 1.0388707209877509e+01 2 -5 2
279 1 4.5041149380421590e+00 1.7343660842485711e+01 9.5377328080225201e+00 3 -4 1
828 2 5.0631370087668381e+00 1.4674560131822325e+01 9.2080015034782612e+00 5 -4 2
191 1 4.6360107873930625e+00 1.4970515813168717e+01 1.1914546604402771e+01 4 -7 1
701 1 6.3084667841865301e+00 1.6330226019621918e+01 1.0507310021462986e+01 4 -7 2
58 2 7.8475038030998734e+00 1.4643945927563497e+01 9.6058177447506949e+00 3 -5 1
842 2 5.9722658255248158e+00 1.3060983646501334e+01 1.0890255429512472e+01 4 -4 2
765 1 7.8556829187525841e+00 1.4736724876405921e+01 1.2511943605479603e+01 4 -5 2
65 1 9.0957352644403233e+00 1.3138117510675801e+01 1.0969646368011791e+01 3 -5 1
670 2 9.0836401540625822e+00 1.6288722828448805e+01 1.1045435251010726e+01 3 -6 2
851 1 1.0241297086651487e+01 1.4807140399054147e+01 9.1682511167654042e+00 3 -5 2
663 1 1.1913689064441158e+01 1.6394858342610604e+01 1.1150599489304550e+01 3 -6 2
235 1 1.0498564264184655e+01 1.4607388020092760e+01 1.2223011696080308e+01 3 -5 1
110 2 1.2015855921963503e+01 1.3742808655045771e+01 1.0719264313916204e+01 4 -4 1
657 1 1.3525799964627598e+01 1.4979631098046273e+01 9.4764099207128378e+00 4 -7 2
136 2 1.3442692720851737e+01 1.5109870056062460e+01 1.2361723233854205e+01 1 -6 1
83 1 1.6172479014574435e+01 1.5024161352334584e+01 9.2599243160948479e+00 4 -8 1
810 2 1.4885951069932279e+01 1.6465726046803972e+01 1.0797831908796867e+01 2 -7 2
649 1 1.4650873785700558e+01 1.3667327829009501e+01 1.0952054253473227e+01 1 -6 2
200 2 1.6487852630076205e+01 1.5057798907000262e+01 1.2147675481245436e+01 2 -5 1
764 2 2.9463559355137043e+00 1.5789213059626688e+00 1.4080895715642116e+01 4 -5 2
739 1 3.4781114178635795e+00 1.8540641661989932e+00 1.6402154945057578e+01 4 -6 2
777 1 1.8514250001565662e+00 6.7030622545465324e-02 1.5418554900992154e+01 4 -5 2
735 1 1.8622869861261120e+00 3.5376926871288523e+00 1.4713593361356095e+01 2 -6 2
196 2 1.1302479297324737e+00 2.1040426252487792e+00 1.6557400465031279e+01 1 -5 1
139 1 4.4064873730199294e-01 1.4602718795312686e+00 1.4035744641111734e+01 4 -4 1
17 1 4.7475430167877306e+00 3.3765316148361296e-01 1.4898903632045428e+01 5 -4 1
164 2 4.7844494933411363e+00 3.7598784487119836e+00 1.4821599069345838e+01 3 -7 1
740 2 5.9428206794521561e+00 1.6645592739519564e+00 1.3557338059739678e+01 4 -4 2
694 2 5.5711853930601682e+00 1.7889814686748464e+00 1.6859021784492409e+01 5 -5 2
695 1 7.4420535074359337e+00 -4.1782870653554377e-02 1.5309660642205454e+01 4 -6 2
770 2 7.7397279921098763e+00 3.1143379545540038e+00 1.5191732673574126e+01 3 -3 2
88 2 8.8781968052091838e+00 1.5004385794437352e+00 1.3757762421464053e+01 2 -5 1
89 1 8.9524829270912196e+00 1.5215385147500362e+00 1.6352073904434445e+01 3 -7 1
253 1 1.1539789957749345e+01 2.0550612542794346e+00 1.3477592212296754e+01 3 -6 1
806 2 1.0602570288968243e+01 1.2911998089576268e-01 1.5394474585273507e+01 3 -4 2
712 2 1.2111998117621106e+01 1.4370368495242736e+00 1.6917946611165490e+01 1 -4 2
81 1 1.0742460959788042e+01 3.2210280643870974e+00 1.5447966874054091e+01 5 -6 1
761 1 9.0091237045657788e+00 4.2513152438480191e+00 1.6749262267333062e+01 5 -5 2
666 2 1.3662867041334863e+01 3.5781781785987493e-01 1.4851775318805844e+01 4 -6 2
661 1 1.5320631120155507e+01 1.7292830348703285e+00 1.3717634249091798e+01 2 -4 2
753 1 1.4554392124275841e+01 1.4398304397037729e+00 1.6526167059910556e+01 3 -5 2
658 2 1.6666531157420145e+01 3.0843955584303123e-01 1.5619708362662717e+01 3 -5 2
108 2 1.6688454071763658e+01 3.4797626791577110e+00 1.5037756977327232e+01 4 -5 1
170 2 1.3546908971807024e+01 3.2039692998340210e+00 1.5088064413615799e+01 2 -6 1
192 2 3.2737512002089453e+00 7.6108488760201860e+00 1.3719974297974217e+01 5 -5 1
271 1 3.4196290280310113e+00 4.8342123584059795e+00 1.3386970172607349e+01 5 -5 1
767 1 1.9517915780659543e+00 6.1438142848890331e+00 1.4898590908744794e+01 4 -4 2
856 2 3.2375673103010190e+00 7.5653956781128748e+00 1.6502822905400297e+01 4 -4 2
686 2 6.1064912099539914e-01 4.7968829699327857e+00 1.6773157405212615e+01 4 -7 2
87 1 3.5960279862936539e-01 7.4878569675853814e+00 1.6605576744260155e+01 4 -5 1
811 1 5.0331025249028793e-01 7.3751135459418498e+00 1.3444603704532311e+01 6 -6 2
698 2 7.5723714343327109e-01 4.8780778396150017e+00 1.3313997390367730e+01 2 -6 2
122 2 3.1299767028327521e+00 4.6329280926246383e+00 1.6423100217696003e+01 3 -2 1
29 1 4.8242130606501528e+00 6.0051638811883494e+00 1.5147846498755561e+01 5 -5 1
219 1 6.3968061883589167e+00 4.9003336031560050e+00 1.3413666359106125e+01 3 -5 1
67 1 6.3981645644046150e+00 4.4779181257915699e+00 1.6900153361167966e+01 2 -4 1
836 2 7.6350196056377513e+00 5.7776657518752268e+00 1.5522174543805274e+01 5 -5 2