LAMMPS data file via write_data, version 19 Mar 2020, timestep = 100000

864 atoms
2 atom types

-8.1249051716197229e-02 1.7408661051715359e+01 xlo xhi
-8.1249051716197229e-02 1.7408661051715359e+01 ylo yhi
-1.6249810343239446e-01 3.4817322103430719e+01 zlo zhi

Masses

1 58.71
2 26.982

Atoms # atomic

206 2 2.5025459447169722e+00 2.3061300781454247e-01 1.5005615856091978e+00 -1 -2 0
748 2 1.2953585152999441e+00 2.1838302715723730e+00 2.9864754588551605e+00 0 -1 1
129 1 2.6123580297900890e+00 3.3472044396002070e+00 1.5502912753577398e+00 -1 -2 0
785 1 -9.5297337775580165e-03 4.0091428877886759e-01 1.3489332009334416e+00 1 0 1
592 2 1.2587277241881729e+00 2.1670959503571061e+00 2.3189827716770395e-01 1 -1 1
594 2 3.8715259732304390e+00 1.9040404122216106e+00 -3.9259827096129823e-02 1 -1 1
24 2 4.4080558352063690e+00 1.8544089061499121e+00 3.0053670277831799e+00 1 -1 0
73 1 5.4576108338811489e+00 1.9731807919696770e-01 1.1427272483246500e+00 1 -2 0
814 2 6.8018007002411238e+00 1.9463525237759169e+00 3.1812816448757220e+00 2 -1 1
169 1 8.3055760052502308e+00 3.7110821428814228e-01 1.7291062588546118e+00 1 -3 0
195 1 8.4645634253277642e+00 3.5149448855987195e+00 1.6945539843564665e+00 0 0 0
37 1 5.5504906579699904e+00 3.1250361648655476e+00 1.3958715297686481e+00 -1 0 0
596 2 6.9626719217632784e+00 1.8291815696069078e+00 -3.5175407267303366e-02 1 -1 1
822 2 9.3457907546137609e+00 1.7578812899034584e+00 2.8757442531963990e+00 0 -1 1
131 1 1.0920564254400814e+01 3.9096861293208496e-02 1.2562769655991977e+00 1 -1 0
669 1 1.2314967825283215e+01 1.5199641187916251e+00 2.4502950510547974e+00 1 0 1
662 2 1.1072516050046238e+01 3.4256250981180036e+00 2.0404790213761981e+00 1 -2 1
600 2 1.2572796590940975e+01 1.9862651981802522e+00 2.3399483772056473e-01 1 -1 1
598 2 9.7819783263496038e+00 2.0133910654813660e+00 -6.3105982672943969e-02 1 -1 1
654 2 1.5169631388743625e+01 8.0040261210505581e-01 1.6049818889528884e+00 1 0 1
705 1 1.5954996451577587e+01 2.0773475673780686e+00 3.3048516858680994e+00 1 -1 1
809 1 1.4182905708512500e+01 3.1578342065403957e+00 1.4788646397765854e+00 2 -2 1
32 2 1.3427839498455379e+01 3.0637712344920516e+00 4.1007228752090272e+00 1 -1 0
863 1 1.7139525125955082e+01 3.5040655367841418e+00 1.8371223398745693e+00 0 -1 1
817 1 1.4091310559548090e+01 4.7021224740611089e-01 4.0724317881366510e+00 -2 0 1
827 1 2.6195171647501607e+00 6.3614738577666925e+00 1.6792567084003271e+00 1 -1 1
118 2 7.0990391333179503e-01 4.9329813911449136e+00 3.0107427266849354e+00 1 0 0
140 2 1.1225815143534248e+00 7.5216666149654117e+00 3.0147121039451017e+00 0 1 0
150 2 3.8472106564068129e+00 7.6827990746044641e+00 2.8884741499155773e+00 -1 -2 0
606 2 3.9198328015135644e+00 4.5222634484587081e+00 -1.3230312076432948e-01 1 -1 1
616 2 1.3805320074823977e+00 7.5354710071812470e+00 8.6718503873101399e-02 1 -1 1
618 2 4.0090720227446406e+00 7.6745840906873299e+00 -1.1142579729800563e-01 1 -1 1
58 2 4.4074848473989707e+00 4.8147469003631942e+00 2.7054563735760389e+00 0 0 0
165 1 5.9073153208429101e+00 5.9153886016529746e+00 9.8980922413559802e-01 1 0 0
834 2 7.0367169345705900e+00 4.8522055654611922e+00 2.9026841832207615e+00 1 -2 1
121 1 8.4153242488045450e+00 6.1507356773959581e+00 1.3241357589159768e+00 0 -2 0
660 2 6.7279992829561559e+00 7.3894671956734062e+00 2.5772276965767893e+00 0 -1 1
620 2 6.9819801981584817e+00 7.6607347823293139e+00 -1.1916489261592744e-01 1 -1 1
612 2 1.2719958077997294e+01 4.9482925025566704e+00 2.6482689596504921e-01 1 -1 1
261 1 9.6417786527198519e+00 4.9345494849227629e+00 3.2566450473310096e+00 -1 -1 0
783 1 1.2816256351321149e+01 4.9615552764550133e+00 2.9717928446980744e+00 1 0 1
197 1 1.1001650848058993e+01 5.8250892739571700e+00 1.6278660852141258e+00 -2 -2 0
700 2 9.8316725165491654e+00 7.5009859879887015e+00 2.9280101632021003e+00 0 0 1
46 2 1.2634804488272621e+01 7.6445763713402037e+00 2.7558416101002621e+00 -2 0 0
624 2 1.2846625860553226e+01 7.4280319435866859e+00 -1.2363771731137133e-01 1 -1 1
61 1 1.4762433216993191e+01 5.6950881282899104e+00 1.3692760290721864e+00 0 -1 0
34 2 1.5463279522078123e+01 4.5227833151023900e+00 3.1614744781587802e+00 1 0 0
97 1 1.7335785462989335e+01 6.1472139606390614e+00 1.1458400094312675e+00 2 -1 0
160 2 1.5846793286625813e+01 7.3766683071901538e+00 2.9105372811364005e+00 -1 -2 0
614 2 1.5885241136939868e+01 7.4667768105727435e+00 1.5447397211177361e-01 0 -1 1
628 2 1.1045652271626070e+00 1.0551384631126075e+01 1.2616137710058556e-01 1 -1 1
847 1 2.2418924576521175e+00 9.1678155469236131e+00 1.3961188227808103e+00 0 -1 1
734 2 1.2513220451658218e+00 1.0681260929893437e+01 2.9198299626285253e+00 0 -1 1
179 1 2.4620577213503720e+00 1.2064508602293110e+01 1.3177102567721903e+00 1 1 0
830 2 3.9551132315501203e+00 1.0491977035121153e+01 3.0140685109941892e+00 -1 0 1
717 1 4.3553860340999506e-02 1.2332906257307148e+01 1.6205010808203169e+00 -1 -1 1
630 2 4.0352398064310950e+00 1.0747672238194637e+01 2.7794537509041400e-01 1 -1 1
769 1 5.1625540310863824e+00 9.2287232142419739e+00 1.7163628333956151e+00 0 0 1
69 1 5.7292578077932106e+00 9.0673174407512960e+00 4.1837337175894200e+00 2 0 0
259 1 7.1837869270136450e+00 1.0590412621224420e+01 2.8534662486583158e+00 1 -1 0
102 2 8.5264596180914847e+00 1.2562105188660116e+01 1.8806546511773976e+00 -1 -2 0
713 1 5.5574365473877583e+00 1.2105677743483229e+01 1.6301749670771690e+00 1 1 1
711 1 8.3326825619775082e+00 8.9481828156368817e+00 1.4267956360863703e+00 1 -3 1
632 2 7.1414188042983886e+00 1.0631004019177668e+01 3.9347042216616268e-01 1 -1 1
787 1 9.6933674496156730e+00 1.0430147749746087e+01 2.7723488226718787e+00 2 -2 1
824 2 1.2755304353483703e+01 1.0426123408248710e+01 3.0163292484078066e+00 0 -2 1
7 1 1.1199568999309840e+01 9.0853608201219256e+00 1.4597755772490328e+00 0 -2 0
127 1 1.1422436607455468e+01 1.2203939443728167e+01 1.6898383457557649e+00 0 0 0
170 2 1.1297464898452503e+01 1.1952643657940733e+01 3.9591024972075539e+00 -1 -2 0
634 2 9.7728604487760595e+00 1.0914865160372663e+01 2.1227803410602913e-01 1 -1 1
636 2 1.2806942999804198e+01 1.0835135075633376e+01 1.4949218264709629e-01 1 -1 1
790 2 1.4316436919923998e+01 9.1766401506583115e+00 1.6411698634987881e+00 0 -1 1
723 1 1.7329308420460713e+01 8.8742417944318692e+00 1.3392627507416566e+00 0 -2 1
812 2 1.6368542168951151e+01 1.0426756097115488e+01 2.6814970441693058e+00 0 0 1
687 1 1.4437654288855295e+01 1.2080188502240398e+01 1.4175146097682207e+00 0 -1 1
189 1 1.4445228148053069e+01 8.9373179535876908e+00 4.0752398700184100e+00 -1 -1 0
96 2 1.4523161049464333e+01 1.1824705942493356e+01 4.1194739212404796e+00 -1 -1 0
626 2 1.6000950577023943e+01 1.0724507992489693e+01 5.1377631237784716e-02 0 -1 1
642 2 4.0001816122897944e+00 1.3557218992661930e+01 4.1148045819723089e-02 1 -1 1
766 2 4.2021973567153355e+00 1.6483140629092112e+01 3.1632413605563379e+00 2 -2 1
4 2 1.1793269813609677e+00 1.6485936667023573e+01 3.1979111049390476e+00 1 -1 0
125 1 2.5876662082167377e+00 1.4912334319248460e+01 1.3543091815398298e+00 0 0 0
56 2 3.9756009784923814e+00 1.3717799812654626e+01 2.9003586064782008e+00 1 0 0
846 2 1.2755326828227456e+00 1.3706777539086982e+01 3.2144231163694390e+00 1 0 1
845 1 -5.9953828972159229e-02 1.5007678974340244e+01 1.1709694801228103e+00 1 0 1
640 2 1.1681337639616114e+00 1.3562325701516473e+01 1.0690045462442299e-01 1 -1 1
644 2 6.8538779516352539e+00 1.3874074016907473e+01 -2.4967065710899489e-02 1 -1 1
132 2 6.7749723463299460e+00 1.6488094272794669e+01 3.1096101039203665e+00 1 -1 0
91 1 5.5547545573540278e+00 1.5191638091505796e+01 1.3715666428680571e+00 0 -1 0
821 1 8.1642620197525435e+00 1.5128096253082086e+01 1.6111121223061560e+00 1 -1 1
188 2 6.4718417720226924e+00 1.3854701617415783e+01 2.8703538457510827e+00 1 -1 0
648 2 1.2840996691450275e+01 1.3693943883001282e+01 2.0657150599593854e-01 1 -1 1
588 2 1.2595764478259795e+01 1.6361198109486722e+01 -5.8754662309624839e-02 1 -2 1
269 1 9.7299368956334540e+00 1.6277913007353476e+01 2.9811799883398060e+00 -2 -1 0
161 1 1.0008421769162025e+01 1.3664393867882286e+01 3.4217173008517259e+00 -1 0 0
106 2 1.1131257295261831e+01 1.4815691027543687e+01 1.9410044396817798e+00 2 -3 0
586 2 9.5661385829543111e+00 1.6324419756292777e+01 -1.8260448015627539e-02 1 -2 1
646 2 9.8616721825156386e+00 1.3681242234447629e+01 -1.0415795348789914e-01 1 -1 1
638 2 1.5678366335448224e+01 1.3515454524723438e+01 9.2817147413847945e-02 0 -1 1
674 2 1.3221165518951670e+01 1.6763010621019973e+01 2.5282211661283540e+00 1 -1 1
124 2 1.3039529483648488e+01 1.3806037848810616e+01 2.9559618091826780e+00 -1 0 0
36 2 1.6018717802356996e+01 1.6331927991435620e+01 2.9243430671715203e+00 -1 0 0
699 1 1.4504727922540237e+01 1.5578292432422156e+01 1.1017544734668405e+00 0 0 1
70 2 1.5884877211669680e+01 1.3828351008199704e+01 2.5836154631219328e+00 1 -1 0
855 1 2.8269347832305316e+00 4.2151575711633604e-01 4.2491415786676301e+00 1 -1 1
759 1 -1.8879082918267898e-02 5.8197186110130905e-01 4.7045526852617723e+00 1 0 1
732 2 2.8264292926963659e+00 3.5287330533348662e+00 4.5211305685968775e+00 2 0 1
53 1 2.8952657775309820e+00 3.6343549394808139e-01 7.6899127787412027e+00 1 1 0
768 2 1.5364045085079558e+00 1.8444144866209580e+00 6.2472383358746972e+00 -1 0 1
198 2 2.3049598483237821e+00 4.0882702554637325e+00 7.5634013614477906e+00 0 1 0
20 2 4.2086782304976182e+00 2.0903939461081902e+00 6.0302156935430418e+00 0 -1 0
751 1 1.7153161359159103e-01 2.9165449833883703e+00 5.0357268015370540e+00 0 0 1
157 1 -6.5760680812523731e-02 3.7169834079367861e+00 7.4863437564276989e+00 1 -1 0
223 1 5.1769607046299067e+00 3.7593687939447701e-01 4.5723324779876755e+00 0 0 0
159 1 5.4909644955904229e+00 3.3650391854478943e+00 4.5962562861801901e+00 -1 1 0
851 1 8.2654352284727874e+00 3.2719094357236584e+00 4.3879344397333311e+00 0 0 1
840 2 5.3786540254765267e+00 5.4430094407763407e-01 7.5640141345684233e+00 0 1 1
49 1 8.1116189124302771e+00 3.2318883745713073e-01 7.4215167719146908e+00 0 -2 0
789 1 6.9597672590682471e+00 1.7711208878939189e+00 5.9058593895328455e+00 1 0 1
65 1 8.1299101635922177e+00 3.4083577408468408e+00 7.6540602414870502e+00 0 0 0
842 2 5.4172800827181895e+00 3.3136902030369639e+00 7.5558125741214823e+00 1 1 1
27 1 8.4338688820972276e+00 2.4072904565391234e-01 4.3787723218147496e+00 0 -2 0
657 1 1.1008709391491337e+01 2.9269061458660208e+00 4.7470107637115477e+00 1 -2 1
776 2 1.1142779335137309e+01 4.0767711382982447e-01 4.3672569572742006e+00 0 1 1
166 2 9.3823779447373905e+00 1.5313472417550527e+00 6.0844285166815153e+00 1 -1 0
85 1 1.1279531561688934e+01 5.3902869480069726e-01 7.6736594894869237e+00 1 -1 0
136 2 1.1418875287735451e+01 3.1678111219043679e+00 7.7254345888941556e+00 -2 -1 0
649 1 1.2752284379628794e+01 1.9928570645848680e+00 6.0373335621327975e+00 -2 -1 1
55 1 1.4533385894793049e+01 3.1088197695001479e-01 7.2214036353150055e+00 0 -1 0
800 2 1.7406683833698242e+01 2.4048599469288973e-01 7.3897765076514919e+00 1 1 1
138 2 1.5768235608791013e+01 1.9284990763266374e+00 6.0485602824500564e+00 0 -1 0
729 1 1.4267021145610384e+01 3.2321179409115288e+00 7.7578488449450163e+00 -1 -2 1
279 1 2.9357987065499946e+00 5.9446608931806955e+00 4.6141356060074887e+00 0 1 0
701 1 4.2556154517090414e+00 4.8342583923673121e+00 6.0318511208288896e+00 1 -2 1
843 1 2.8505126795408233e+00 6.4231404137123205e+00 7.7705950443385285e+00 -1 -1 1
828 2 1.1130226147015121e+00 4.9733287363671526e+00 5.7649492643977158e+00 2 1 1
788 2 1.4877296610510833e+00 7.7734905606807967e+00 5.9771330004912890e+00 1 0 1
714 2 4.0832822267785316e+00 7.7748768491897513e+00 6.1041133606885598e+00 -1 0 1
17 1 5.5140179213812095e+00 6.2592531412887968e+00 4.6642736958444964e+00 2 0 0
113 1 8.2065963329859546e+00 6.3253702919204953e+00 4.4264473191589486e+00 1 -1 0
28 2 5.5672898517500888e+00 6.2684046198584342e+00 7.3549806900423311e+00 0 0 0
806 2 7.0492475024954278e+00 4.4297774407082482e+00 5.8118303892954817e+00 0 0 1
663 1 8.1854896263758725e+00 5.8923663754025526e+00 7.4265491944712609e+00 0 -1 1
695 1 6.8782978308327509e+00 7.8665533625689461e+00 5.7454577675872400e+00 1 -2 1
177 1 1.1614505483156510e+01 6.4770771090599686e+00 4.4676733141134513e+00 -1 0 0
670 2 1.0185997167863690e+01 4.7860716339905718e+00 6.0912767568455068e+00 0 -1 1
778 2 1.1767382840467544e+01 6.4016287281965338e+00 7.1424147560556595e+00 0 1 1
756 2 9.6373523361695081e+00 7.5047267177507484e+00 5.9968897940874939e+00 3 -2 1
721 1 1.2789951977733816e+01 4.5566259265472775e+00 5.6371946257718406e+00 0 -2 1
780 2 1.2726908990121309e+01 8.4188918672475541e+00 5.9026786507750515e+00 0 -1 1
143 1 9.8510580115857049e+00 7.4873800818938916e+00 8.4781350768354464e+00 2 -1 0
287 1 1.7095098598108443e+01 6.0466154442910929e+00 4.4335467320070778e+00 2 0 0
810 2 1.3898190708996450e+01 6.1763792154349373e+00 4.6672141621743561e+00 -1 -2 1
241 1 1.4221067750181330e+01 6.4465498499372540e+00 7.1604197405171472e+00 -1 -2 0
100 2 1.5788943638061145e+01 4.8640123325081159e+00 6.2739690698587873e+00 -2 0 0
681 1 1.7333512293642741e+01 6.2756679091166285e+00 7.1193694871516859e+00 -1 -1 1
689 1 1.6191048609874649e+01 7.6564078778151767e+00 5.8619253242596630e+00 0 -1 1
135 1 2.6859528916680890e+00 8.9715488044552139e+00 4.5539291371892361e+00 -1 0 0
219 1 2.7166827534712947e+00 1.1884775663804419e+01 4.7508183552836494e+00 0 -1 0
164 2 4.0735612322823700e+00 1.0194750442864150e+01 5.9150878042506738e+00 0 -3 0
777 1 2.6691396791141986e+00 9.0458446215722379e+00 7.8138305467326443e+00 1 -1 1
792 2 1.0455839229447403e+00 1.0634810367746987e+01 5.7602845180890236e+00 0 0 1
862 2 2.7228941824802728e+00 1.1871424156189683e+01 7.5087162263213649e+00 2 0 1
45 1 1.1107697565631375e-01 8.8477641275145480e+00 7.5273808988857969e+00 1 -1 0
184 2 8.4464543183860386e+00 1.2207261688990421e+01 4.3601935823921112e+00 1 -1 0
852 2 8.5035386812221923e+00 8.9590797456469708e+00 4.2505772047565475e+00 1 0 1
105 1 5.2270357877907259e+00 1.1981616104935267e+01 4.3301046553643028e+00 -1 -1 0
251 1 5.6357526538485061e+00 9.2098062665130271e+00 7.1604715276193929e+00 0 -1 0
81 1 8.4103620966612098e+00 9.5851456339047161e+00 7.0235418072668869e+00 2 -2 0
760 2 6.9093214335666007e+00 1.0721184719241823e+01 5.4583966325377959e+00 0 0 1
831 1 5.1324526680595906e+00 1.1881990589610412e+01 7.2537455714716161e+00 0 -2 1
257 1 8.2589960750880120e+00 1.1972442183239057e+01 6.8637988274514239e+00 0 -2 0
807 1 1.1149710647552405e+01 9.1207124195820342e+00 4.2342343337403117e+00 0 0 1
770 2 1.0226077917793884e+01 1.0384310727957043e+01 5.9179073827803403e+00 0 1 1
661 1 1.1264974299939535e+01 8.9153892132161268e+00 7.6330674425761238e+00 -1 0 1
134 2 1.2317312674618053e+01 1.1242059685478266e+01 7.5628000745991004e+00 -1 -2 0
781 1 1.0779698908791747e+01 1.2538624118121982e+01 7.0186433145800775e+00 0 0 1
175 1 1.7393722493498522e+01 8.9052800859872061e+00 4.3315771064696706e+00 0 -2 0
253 1 1.3204949302662586e+01 1.0778554331239535e+01 5.4267306554194441e+00 0 -2 0
23 1 1.7096412456408828e+01 1.2009690610252198e+01 4.2198649733273852e+00 1 -2 0
167 1 1.4045018200640866e+01 9.4955953934938542e+00 7.4276919013761189e+00 -1 0 0
764 2 1.6022208235920893e+01 1.0264178118815456e+01 5.8166471545176668e+00 0 -1 1
51 1 1.7282337023158775e+01 1.1848605213325193e+01 7.5146441677854217e+00 -1 -1 0
811 1 1.4687440598121524e+01 1.1840382745945613e+01 7.4338170977004658e+00 2 -2 1
797 1 2.7861400499643554e+00 1.5030453548884745e+01 4.2487734704234290e+00 1 -3 1
52 2 3.7640914416381679e+00 1.6360755298544767e+01 6.0103492034545125e+00 1 1 0
271 1 1.2886808691578229e+00 1.6124282397810774e+01 5.9078482982551792e+00 2 -1 0
48 2 1.3891520478002808e+00 1.5987795809474084e+01 8.4642095710259024e+00 0 -1 0
779 1 2.7182276105741034e+00 1.4667371151969029e+01 7.4516716324801013e+00 1 -1 1
30 2 4.1642651613216373e+00 1.3466508500787301e+01 5.7152521569057644e+00 2 -1 0
42 2 9.5626216580815582e-01 1.3663643154130817e+01 5.9929546624776284e+00 0 -2 0
141 1 7.8365047549699245e+00 1.5018487868805114e+01 4.4993485913923754e+00 0 -1 0
265 1 5.5725206324390406e+00 1.5005712302766822e+01 4.7513479156745948e+00 0 -1 0
64 2 7.0393818975865896e+00 1.6777682785260872e+01 5.9560762703861165e+00 3 1 0
231 1 5.3355947830991965e+00 1.5481662424999639e+01 7.0758263061546307e+00 1 -3 0
211 1 8.0071757559953323e+00 1.5108378494751976e+01 7.7759144329167995e+00 -3 -1 0
740 2 6.5946398092356047e+00 1.3635346713740706e+01 6.0494395094579181e+00 1 0 1
94 2 4.7412416331679390e+00 1.3713024603168506e+01 8.5071754409110198e+00 1 -1 0
229 1 1.1548781116988295e+01 1.5235077141778813e+01 4.7539882127590536e+00 1 -2 0
718 2 1.2969091112124374e+01 1.6735269641391405e+01 5.8392826767348041e+00 2 -2 1
652 2 9.7573142078440274e+00 1.6471921220799011e+01 5.9015331300104048e+00 -1 -2 1
128 2 9.4936845443423081e+00 1.3893295436746623e+01 5.7950298554810313e+00 1 -1 0
221 1 1.1070987326345005e+01 1.5024017402800977e+01 7.5446964757851278e+00 -1 -1 0
108 2 1.2955672305259528e+01 1.3517313245448031e+01 5.7450747495880599e+00 1 -1 0
63 1 1.7141813888422170e+01 1.5156057826402975e+01 4.4767537489304532e+00 -2 -2 0
193 1 1.4345848133853682e+01 1.4893815458674036e+01 4.5052135107700417e+00 -1 1 0
728 2 1.5356008955981091e+01 1.6757206656596459e+01 5.4154072925102392e+00 0 -1 1
13 1 1.4167578090906840e+01 1.4982987224128061e+01 7.4161782716731635e+00 0 -1 0
43 1 1.6588695781546200e+01 1.5644941419622398e+01 6.9135231707437743e+00 2 1 0
752 2 1.6050784010129242e+01 1.3446364081565525e+01 5.7984151370194308e+00 -2 -4 1
16 2 1.5927207510116647e+01 1.3603690439976393e+01 8.3934948195491756e+00 0 -3 0
155 1 1.1214273160823767e+00 1.9814714486519400e+00 8.8623795173183364e+00 2 0 0
765 1 4.0341488326953181e+00 2.2470440252198296e+00 8.8984123155318784e+00 1 0 1
722 2 2.3598117893946049e+00 1.8979703410875681e-01 1.0225901113168026e+01 -1 -1 1
678 2 4.1828704640739716e+00 1.8218205554576772e+00 1.1996865845373026e+01 2 1 1
147 1 9.4602962523593015e-01 2.1989610384891969e+00 1.1579959662313760e+01 2 0 0
742 2 2.8219353435506336e+00 3.1456943753810318e+00 1.0314686975087989e+01 2 -1 1
706 2 -2.4255739353286287e-02 -7.8385345987556782e-02 1.2893033355164162e+01 0 -1 1
782 2 7.0454910217684317e+00 1.7709216167042052e+00 8.8971801972371640e+00 -2 -1 1
137 1 5.6291605868648453e+00 7.9594235408432290e-01 1.0367601354369560e+01 0 2 0
753 1 8.4176457439417138e+00 1.5607357654055692e-01 1.0205143198539508e+01 0 -1 1
168 2 7.0695637205328836e+00 1.7611328004914608e+00 1.1753147893180767e+01 3 -1 0
677 1 5.7938367910420956e+00 3.2101753524186609e+00 1.0526455158947639e+01 1 0 1
771 1 8.3735904681909066e+00 3.5818554538592857e+00 1.0612544302718669e+01 -1 -1 1
826 2 9.8124857717305591e+00 1.8260115357641218e+00 8.9106978095389451e+00 0 -2 1
110 2 9.7105241771489865e+00 1.8913868385088264e+00 1.1904157897203541e+01 1 1 0
719 1 1.1223445671799890e+01 4.4220929384336949e-01 1.0664393348183459e+01 -1 1 1
207 1 1.1524480132282809e+01 2.7640780333995929e+00 1.0167965291011058e+01 1 -1 0
733 1 1.3235090344526325e+01 1.9245793712915358e+00 1.2307007875055747e+01 0 -1 1
26 2 1.3039790455801034e+01 1.5994770590900038e+00 8.6054823240492855e+00 -1 -1 0
775 1 1.5816099017175544e+01 1.8986331063367587e+00 8.5957532754642028e+00 1 -1 1
181 1 1.4267915360944176e+01 5.9832822274132269e-01 1.0476618029817338e+01 -2 -1 0
74 2 1.6929459551439720e+01 4.9519848697550117e-01 1.0275786912496603e+01 2 1 0
31 1 1.5967154092094544e+01 1.8239572270734208e+00 1.2112329290746803e+01 0 0 0
786 2 1.7329348191870174e+01 3.4192466137501327e+00 1.0215220750323279e+01 1 1 1
796 2 1.4702750004913895e+01 3.3699586371410319e+00 1.0320874537480632e+01 0 1 1
83 1 1.0923870745060202e+00 5.2795625585669290e+00 9.4899001434025614e+00 2 -3 0
650 2 1.0940081460852069e+00 7.8502053112700088e+00 9.2668255199454190e+00 0 -3 1
68 2 4.0405696822796617e+00 4.8945732776303137e+00 1.1801196733514287e+01 0 0 0
694 2 3.1139545707737213e+00 6.2856036043266119e+00 1.0006344940802258e+01 2 -1 1
196 2 1.0185479071128065e+00 4.9068400936526393e+00 1.1806297463769605e+01 -2 -1 0
146 2 3.8798043688208095e+00 7.5498013571167535e+00 1.1727845711481800e+01 -1 1 0
793 1 1.3279544881129555e+00 7.2785067845114488e+00 1.1762845800159502e+01 -1 -2 1
201 1 4.3484577975736736e+00 4.5121561671020283e+00 8.8914275222501278e+00 1 1 0
804 2 6.8116773183272237e+00 4.9085031488754067e+00 9.1691181572930507e+00 -1 -1 1
191 1 4.7824231818723177e+00 7.4984183879372948e+00 8.8379053230664546e+00 1 -2 0
691 1 5.6612085060443968e+00 6.5763405542130746e+00 1.0769451059983469e+01 0 0 1
838 2 6.9618785180222202e+00 5.1864312748909933e+00 1.1925624751857953e+01 0 -1 1
89 1 7.5182685351416740e+00 7.5351751560275142e+00 1.2204897993620504e+01 0 -3 0
656 2 7.3278000229953015e+00 7.7715179680730975e+00 8.6592690537242962e+00 1 0 1
235 1 1.0353555645976323e+01 4.9665672180224458e+00 8.6823257987747642e+00 0 0 0
194 2 8.8600248905012791e+00 6.1790246914029536e+00 1.0413605365690980e+01 1 1 0
233 1 1.0293819452993173e+01 4.5988440323047133e+00 1.1690864373609388e+01 0 0 0
139 1 1.2738453515482483e+01 4.4582994958993112e+00 1.1718344521484818e+01 0 0 0
200 2 1.1579420571367299e+01 6.1725884304031986e+00 1.0512237702523679e+01 -1 0 0
59 1 1.2594391143663833e+01 8.0152155418359570e+00 1.1957689351962793e+01 -1 1 0
95 1 9.9651104207013095e+00 7.8942237561533917e+00 1.1783157083336993e+01 0 -3 0
692 2 1.5922861255345117e+01 7.5561643771072875e+00 8.6711550686020509e+00 0 -1 1
98 2 1.3236070761314268e+01 7.5705724804408581e+00 8.9885036188131640e+00 -2 -1 0
735 1 1.3133242552404479e+01 5.2671638968517547e+00 8.9170725940975633e+00 -2 -2 1
772 2 1.5960179738792045e+01 5.0093448355541943e+00 8.8380251079482921e+00 0 0 1
12 2 1.4193111199691327e+01 6.0234472889610338e+00 1.0920103461430577e+01 3 -1 0
215 1 1.5771602587680960e+01 4.4149460505667086e+00 1.2401638094201296e+01 0 0 0
213 1 1.6675120834250521e+01 6.3294865889350405e+00 1.1056500886456861e+01 -2 0 0
767 1 1.6950955840221191e+01 8.5130557815737209e+00 1.2877946326029303e+01 0 0 1
739 1 1.1925513144842295e+00 1.0273893296607831e+01 9.0251820131140761e+00 1 -2 1
715 1 2.8775690151817779e+00 9.1289338680094936e+00 1.0365275638803679e+01 0 -2 1
174 2 4.1009455844014902e+00 1.0546417675011325e+01 1.1646076349792617e+01 0 1 0
192 2 1.0152932717280057e+00 1.0446906066724338e+01 1.1461513703587867e+01 2 -1 0
67 1 2.9822878132936879e+00 1.2195384464497154e+01 1.0083649847145576e+01 -1 0 0
836 2 4.4639215491211068e+00 1.0429527164227029e+01 8.7326737778180643e+00 2 -1 1
750 2 7.2880191821888003e+00 1.0695748177168445e+01 8.8078078744544204e+00 1 0 1
763 1 5.3974181414085347e+00 9.1711639887823715e+00 1.0417012105191086e+01 1 0 1
162 2 7.0648538085384391e+00 1.0275412501185587e+01 1.2101457772354088e+01 0 0 0
805 1 5.6163315730521459e+00 1.1904212753923987e+01 1.0072324274651859e+01 0 -1 1
743 1 8.5716726187469696e+00 1.1862583417560320e+01 1.0553274110071900e+01 1 -1 1
87 1 8.4100241138901151e+00 9.0419890824527531e+00 1.0157962406070768e+01 0 -1 0
90 2 9.7681690360928410e+00 1.1029389624359411e+01 8.7209381100765793e+00 0 -1 0
666 2 9.9930454249336336e+00 1.0701783067735327e+01 1.1694192322889624e+01 1 -2 1
88 2 1.0947173024535351e+01 8.9161716924640402e+00 1.0010508016293317e+01 -1 -1 0
710 2 1.2668297441336337e+01 1.0760830949625717e+01 1.1833996332718524e+01 0 -1 1
117 1 1.1335346622533956e+01 1.2295601007023883e+01 1.0260250382238416e+01 2 0 0
3 1 1.2594269023975169e+01 1.0339682494541453e+01 9.4943521222795955e+00 1 -2 0
122 2 1.5735539758578405e+01 1.0226272572599605e+01 8.8638122545779101e+00 -1 2 0
29 1 1.4244179126827746e+01 9.4382560465090570e+00 1.0450378409985191e+01 1 -1 0
203 1 1.7140912211757907e+01 8.8494969193393640e+00 1.0763886603856484e+01 0 -1 0
686 2 1.6052807652158684e+01 1.0764079918850172e+01 1.1823176143771541e+01 0 -3 1
216 2 1.4315845169216296e+01 1.2232098486709573e+01 9.8099269913556917e+00 0 0 0
173 1 1.6934101466135168e+01 1.2156352813965020e+01 9.9296915441045144e+00 0 -1 0
158 2 1.4465641542756542e+01 8.9046360469484878e+00 1.2875827221461341e+01 1 -1 0
853 1 1.1629596038180461e+00 1.3467373968442994e+01 8.6917763158030876e+00 2 -1 1
109 1 3.9339910723397793e+00 1.6239730430298174e+01 8.8981891344413206e+00 0 -2 0
835 1 1.1305760556118727e+00 1.6268560801421657e+01 1.1533925919847219e+01 1 -2 1
22 2 2.6724838755612863e+00 1.4692642635718448e+01 1.0128846056795625e+01 2 -2 0
698 2 1.2899747399829808e+00 1.3117017615551976e+01 1.1388509227741089e+01 -1 -2 1
675 1 2.5683571951985407e+00 1.4740722118544467e+01 1.2677605039095381e+01 0 -1 1
54 2 4.4436473674339974e+00 1.3313403580817635e+01 1.1609303040636249e+01 0 -3 0
78 2 6.4970652148335937e+00 1.6364720615558092e+01 9.0564182917760281e+00 0 -2 0
33 1 7.2771712425778032e+00 1.3089976094425309e+01 8.7855060856287714e+00 1 -3 0
802 2 4.4431480095844087e+00 1.6116304656295220e+01 1.1547026941212776e+01 2 -2 1
92 2 7.0783153175825975e+00 1.6454421819011152e+01 1.1902023522688344e+01 1 0 0
741 1 5.7727167761053249e+00 1.4590271670024535e+01 1.0177022934685349e+01 1 0 1
190 2 8.2308563616201269e+00 1.4827357995800948e+01 1.0120717695434276e+01 -1 0 0
142 2 7.1119092699626210e+00 1.3055038421711485e+01 1.1666539583152172e+01 1 0 0
712 2 1.1449432358535356e+01 1.4917980633015990e+01 1.2895185429329993e+01 -2 0 1
10 2 9.8622948695056554e+00 1.6428579120058664e+01 8.8844270934346525e+00 1 -1 0
716 2 1.2587929667346103e+01 1.6557944322294624e+01 8.7137435047601066e+00 1 0 1
72 2 1.2557646629952281e+01 1.3665384148148078e+01 8.5857668290531048e+00 -3 -1 0
813 1 9.7443687986549126e+00 1.3414139295855426e+01 9.1063338484595331e+00 1 0 1
696 2 9.7605072916456983e+00 1.6491160700478638e+01 1.1813499699456218e+01 1 3 1
204 2 1.0047681420529713e+01 1.3590558225541093e+01 1.1607056978482559e+01 0 -1 0
171 1 1.1236046492882009e+01 1.5057572945247376e+01 1.0335258025377781e+01 1 -1 0
82 2 1.3361352786840650e+01 1.6065063260771232e+01 1.1468509616014888e+01 0 -2 0
1 1 1.3345465439145428e+01 1.3306383689014680e+01 1.1537768706789656e+01 -1 0 0
774 2 1.5392167229235309e+01 1.6620257330212667e+01 8.9372095365698510e+00 -1 0 1
25 1 1.5660769722616983e+01 1.6111077393036382e+01 1.1775927674610204e+01 0 0 0
757 1 1.4645771487611379e+01 1.4626099313916518e+01 1.0092413594164027e+01 1 0 1
50 2 1.7280759516887258e+01 1.4955121878357840e+01 1.0327126673623978e+01 -1 -2 0
684 2 1.5910002573954788e+01 1.3349193535854583e+01 1.2095400561039069e+01 1 -3 1
99 1 2.9255276151349143e+00 2.6399049826902762e-02 1.2976774096274793e+01 1 0 0
149 1 2.4792658006845798e+00 3.3620020212995398e+00 1.3276091266648494e+01 1 0 0
283 1 2.3179639673523651e+00 5.2531992954635653e-01 1.6541618428776523e+01 2 1 0
744 2 3.9885770498459241e+00 2.0600513064289014e+00 1.4668530513482287e+01 2 1 1
111 1 1.4593530291885703e+00 1.5547630910709349e+00 1.4869086822818828e+01 1 -1 0
39 1 2.8900669459747137e+00 3.2450380698697590e+00 1.6404163721496730e+01 -1 0 0
267 1 5.4383927603144180e+00 2.4738625012266446e-01 1.3388292939630617e+01 1 0 0
277 1 8.6172983624487767e+00 5.1809408040056826e-01 1.3428041905497217e+01 1 0 0
247 1 6.2026424379704714e+00 3.3694559254807470e+00 1.2998226162448661e+01 0 0 0
217 1 8.1424157884041719e+00 4.8314145148952647e-01 1.6259744677938144e+01 -1 -1 0
2 2 6.7547153417268673e+00 1.6897345366388261e+00 1.4682731700317607e+01 1 -1 0
115 1 8.2576911202325469e+00 3.1779301086693210e+00 1.6347586344561343e+01 0 2 0
745 1 5.3850674406259866e+00 3.5814243470823923e+00 1.6426173112636231e+01 1 -1 1
726 2 8.6757405849231173e+00 3.5481790510031037e+00 1.3226452262942750e+01 0 1 1
38 2 1.1615011785057712e+01 5.0422170482479634e-01 1.3378161559160176e+01 1 0 0
758 2 1.1434169174845751e+01 3.0624687175554746e+00 1.3388239809549297e+01 0 -1 1
736 2 9.8454068286076932e+00 1.7333764471899042e+00 1.5265744159650916e+01 0 0 1
679 1 1.1496069957821911e+01 2.8834239540565554e-01 1.6478300341850190e+01 1 1 1
84 2 1.2950934648575542e+01 1.4833977365514104e+00 1.5197167644925532e+01 2 0 0
77 1 1.1515497571244406e+01 2.7054332841504336e+00 1.6794852504075987e+01 0 0 0
148 2 1.3598523504577775e+01 3.7803498568046585e+00 1.3961140181795088e+01 0 0 0
818 2 1.7378330336025719e+01 2.9757045657237957e+00 1.3580768846656389e+01 0 -1 1
5 1 1.7072411635715667e+01 6.5481082830036841e-01 1.6254867895618890e+01 -1 0 0
680 2 1.5767704550062422e+01 1.7040873557730463e+00 1.4686012683387830e+01 1 -2 1
795 1 1.4119656951649187e+01 3.4777325237758210e+00 1.6378646762235803e+01 0 -2 1
659 1 1.7230808830283301e+01 3.2410832089191426e+00 1.6191677196399016e+01 2 -2 1
163 1 2.9366707206242446e+00 6.0871967417312485e+00 1.3415281708069882e+01 1 -2 0
210 2 4.0022198085246989e+00 4.4594479681420793e+00 1.4622450148918967e+01 1 0 0
819 1 2.5794247155025247e+00 6.3870237045025391e+00 1.6074412309499923e+01 -1 -1 1
672 2 1.0812393452085487e+00 4.7175255602158463e+00 1.4874133076283915e+01 2 0 1
816 2 1.1579249142874279e+00 7.4055352183492431e+00 1.4307259895025265e+01 1 -1 1
709 1 4.0018790270193572e+00 8.0365912509641291e+00 1.4979617173847208e+01 1 0 1
60 2 1.1462382520205416e+00 7.9470250584093041e+00 1.7312175360388707e+01 2 0 0
725 1 5.4479813038282083e+00 6.6714790364553709e+00 1.3332082014908162e+01 1 -1 1
11 1 5.5299872675398616e+00 6.5628654044576278e+00 1.6158648223229065e+01 1 -1 0
762 2 6.6128236376911556e+00 4.7949063422061347e+00 1.4659666792862522e+01 1 1 1
704 2 8.5158153352084156e+00 5.4883624215810647e+00 1.5859030990493579e+01 0 -1 1
156 2 7.1995996859616360e+00 7.5216109671241220e+00 1.4654287998212183e+01 0 -1 0
697 1 8.7117043528594547e+00 6.0407042251358014e+00 1.3632683392289010e+01 2 -1 1
658 2 1.1567035697615765e+01 5.9776823654272304e+00 1.3260071945531966e+01 0 -1 1
803 1 1.0349576133966565e+01 4.3019216734029158e+00 1.4987097978565934e+01 0 -1 1
243 1 1.2525426466606403e+01 4.7903044965756729e+00 1.5413680788868582e+01 0 -1 0
727 1 1.1515420959373428e+01 6.1080780868070876e+00 1.6756616096689932e+01 1 -1 1
860 2 1.0039929239889771e+01 7.2634562095447768e+00 1.5147604140662404e+01 1 1 1