LAMMPS data file via write_data, version 19 Mar 2020, timestep = 500000

2048 atoms
2 atom types

1.1698748763215505e-01 2.2986228512367262e+01 xlo xhi
1.1698748763215505e-01 2.2986228512367262e+01 ylo yhi
2.3397497526431010e-01 4.5972457024734524e+01 zlo zhi

Masses

1 58.71
2 26.982

Atoms # atomic

145 1 2.2784283596530003e+01 2.9930767959343103e+00 2.9856206020000231e+00 -1 0 0
147 1 2.8868014879772637e+00 3.1586093613933901e+00 3.0529923627627311e+00 0 0 0
2 2 1.4134240271297287e+00 1.6377566965283878e+00 1.5678960337664156e+00 0 0 0
130 2 1.6655827957877740e+00 1.5003524761864704e+00 4.4334884302395077e+00 0 0 0
18 2 1.5442652646866157e+00 4.5596219717731818e+00 1.5729910668366551e+00 0 0 0
146 2 1.5161327708771448e+00 4.3373800766186044e+00 4.5702756472034576e+00 0 0 0
4 2 4.5339298157500050e+00 1.8366815838931836e+00 1.7733589134047971e+00 0 0 0
132 2 4.3049348838958457e+00 1.6572953115821132e+00 4.6793997462300636e+00 0 0 0
20 2 4.4954109740481938e+00 4.6675381380741241e+00 1.7491470082199008e+00 0 0 0
148 2 4.2553208829095235e+00 4.4588061659982872e+00 4.4302918480185287e+00 0 0 0
149 1 5.7737846769815127e+00 3.0502857232801515e+00 3.2674453024118630e+00 0 0 0
151 1 8.7709552893306100e+00 3.0250839440591788e+00 2.9581332941748473e+00 0 0 0
6 2 7.2567760315852361e+00 1.6888859618820347e+00 1.6170784342422591e+00 0 0 0
134 2 7.2919566552363770e+00 1.5731854651597150e+00 4.4393915828844426e+00 0 0 0
22 2 7.0671894767381760e+00 4.4272755637580428e+00 1.5308383375826320e+00 0 0 0
150 2 7.4441076746580537e+00 4.3867086255918482e+00 4.6160504351823048e+00 0 0 0
1009 1 1.2729298639941078e-01 2.0237636364404342e+01 2.0296169186203890e+01 0 0 0
5 1 5.7455006486818885e+00 3.3181517464334048e-01 2.4036584416994822e-01 0 0 0
137 1 1.1485050722835087e+01 2.2985601230958103e+01 3.0223896954780729e+00 0 -1 0
153 1 1.1482212634600639e+01 3.0887691486634345e+00 3.2081120754492978e+00 0 0 0
8 2 1.0053787851150627e+01 1.5901105709085619e+00 1.7274508760609706e+00 0 0 0
136 2 1.0141879571487129e+01 1.5853233091621963e+00 4.4684347858839990e+00 0 0 0
24 2 1.0073106710207421e+01 4.5393454273197014e+00 1.9058465144229453e+00 0 0 0
152 2 1.0037233143891530e+01 4.6670075115989933e+00 4.7425529012541938e+00 0 0 0
10 2 1.3108120014888854e+01 1.6611584693093844e+00 1.7974665901956122e+00 0 0 0
138 2 1.2926624535228845e+01 1.4312628942457404e+00 4.5808730394668276e+00 0 0 0
26 2 1.3199643053703408e+01 4.4428086876601771e+00 1.5699627587330924e+00 0 0 0
154 2 1.3076196577665511e+01 4.3889260042037765e+00 4.5290791269933655e+00 0 0 0
9 1 1.1530488031915992e+01 3.6047530958389262e-01 3.9866155236632189e-01 0 0 0
139 1 1.4247036211143241e+01 2.2875562747950195e+01 3.0958593935905623e+00 0 -1 0
155 1 1.4474593656285782e+01 2.9979493500665875e+00 3.0706283617136561e+00 0 0 0
141 1 1.7361299027230469e+01 2.2873921149944728e+01 3.0576195103665591e+00 0 -1 0
157 1 1.7431442918090873e+01 2.8216817360278266e+00 3.0925795043133402e+00 0 0 0
12 2 1.5739644956712075e+01 1.4512383481050191e+00 1.5622874075239166e+00 0 0 0
140 2 1.5788580589324493e+01 1.4707738967454322e+00 4.5576715670371923e+00 0 0 0
28 2 1.6018181859840531e+01 4.3601948132809607e+00 1.8725175148041189e+00 0 0 0
156 2 1.5922056509953986e+01 4.4679151231075140e+00 4.4866100348977662e+00 0 0 0
29 1 1.7195630088087995e+01 3.0818878973905948e+00 4.2192983215644697e-01 0 0 0
13 1 1.7269489751282393e+01 2.2760483166424937e+01 3.6153425853132054e-01 0 -1 0
129 1 2.2889922144577255e+01 1.7621826011847549e-01 3.0894051538398175e+00 -1 0 0
1023 1 2.0202712785462310e+01 2.0277374784658040e+01 2.0268394981806523e+01 0 0 0
878 2 1.8526864302369489e+01 1.8672369105902298e+01 1.8816612397163141e+01 0 0 0
159 1 2.0144519365129767e+01 2.9462662356788929e+00 3.0236685094602302e+00 0 0 0
14 2 1.8828985249032428e+01 1.4885579895474406e+00 1.5369041651314743e+00 0 0 0
142 2 1.8705593705421673e+01 1.5096089530610095e+00 4.5533573571375232e+00 0 0 0
30 2 1.8743847195828248e+01 4.4810477675953528e+00 1.7951091402533785e+00 0 0 0
158 2 1.8952373288202701e+01 4.3517206432207294e+00 4.5572294747932007e+00 0 0 0
16 2 2.1570212941967565e+01 1.4348721315102406e+00 1.4684536146481342e+00 0 0 0
144 2 2.1544180081710799e+01 1.4782861999355734e+00 4.4655410183915514e+00 0 0 0
32 2 2.1723158917430737e+01 4.4807270532335268e+00 1.6199725744332933e+00 0 0 0
160 2 2.1498476982540573e+01 4.3683754813154714e+00 4.3381792915166324e+00 0 0 0
161 1 1.3221459689334694e-01 5.9106454243557573e+00 3.1634743579544340e+00 0 0 0
177 1 2.2954664588758682e+01 8.8326188244260635e+00 3.2568586145876095e+00 -1 0 0
163 1 2.8629389542332362e+00 5.8340646142281365e+00 3.3104204496808616e+00 0 0 0
179 1 3.0514954068762137e+00 8.8712272056020360e+00 3.1746820828245848e+00 0 0 0
34 2 1.4422598937773010e+00 7.3554322727915240e+00 1.8142756303515941e+00 0 0 0
162 2 1.6963228948995277e+00 7.3218070684476944e+00 4.5212119954994137e+00 0 0 0
36 2 4.3315513180585636e+00 7.3595431715319215e+00 1.7326439702375831e+00 0 0 0
164 2 4.4481746663721857e+00 7.4516555588004545e+00 4.6939454160258789e+00 0 0 0
1006 2 1.8674280880826874e+01 1.8622935645581041e+01 2.1585244463592776e+01 0 0 0
894 2 1.8649832799710452e+01 2.1604847472047446e+01 1.8886772699765825e+01 0 0 0
1022 2 1.8581943211508683e+01 2.1468543835813904e+01 2.1619952152032084e+01 0 0 0
165 1 5.8046960747156895e+00 5.9775328929025289e+00 3.1729617014215017e+00 0 0 0
181 1 5.7021868558228439e+00 8.8850688145640504e+00 3.1128421341000889e+00 0 0 0
167 1 8.4360205928040219e+00 5.8074271294374631e+00 3.2368882965194001e+00 0 0 0
183 1 8.5932523536365792e+00 8.5789719012796262e+00 3.2312116218509592e+00 0 0 0
38 2 7.2098911883855683e+00 7.4603357011073355e+00 1.7633585715377573e+00 0 0 0
166 2 7.0997961756390664e+00 7.3964431730986586e+00 4.5491291930859230e+00 0 0 0
39 1 8.7507482305967148e+00 5.8331466063611366e+00 4.7948808366379825e-01 0 0 0
53 1 5.8943002217613447e+00 8.8699356999838610e+00 3.5209090782220398e-01 0 0 0
41 1 1.1555837628882360e+01 5.8259928274005039e+00 4.1339756727760285e-01 0 0 0
169 1 1.1698973259393236e+01 6.0567386651756028e+00 3.2007350105759831e+00 0 0 0
185 1 1.1478996272550519e+01 8.7329678276526774e+00 3.0503594129749767e+00 0 0 0
40 2 1.0047573474167260e+01 7.2981303738127075e+00 1.7377067714572383e+00 0 0 0
168 2 1.0355042740116144e+01 7.2158599581003466e+00 4.7226850693394224e+00 0 0 0
42 2 1.2988055370319074e+01 7.2700376812824254e+00 1.7182528615756831e+00 0 0 0
170 2 1.3140212295301755e+01 7.5508942430875265e+00 4.5851649903203766e+00 0 0 0
171 1 1.4494302662642353e+01 5.8316327604983584e+00 3.1239207754423934e+00 0 0 0
59 1 1.4262716781920711e+01 8.7202091592768198e+00 2.8365164206080518e-01 0 0 0
187 1 1.4371112421922815e+01 8.7144632514251494e+00 2.9755497086321152e+00 0 0 0
45 1 1.7400432972446254e+01 5.8263719815847175e+00 3.3860175781911228e-01 0 0 0
173 1 1.7436414901564280e+01 5.8209445892939113e+00 3.1014687918929580e+00 0 0 0
880 2 2.1443713600276912e+01 1.8733645187032174e+01 1.8877082446427906e+01 0 0 0
189 1 1.7146292721185695e+01 8.6586953797943433e+00 3.2575327888406242e+00 0 0 0
44 2 1.5752759949056776e+01 7.0992312887428835e+00 1.7732167213499870e+00 0 0 0
172 2 1.5914245216908022e+01 7.1282515705838900e+00 4.6465132098778970e+00 0 0 0
175 1 2.0210424351589054e+01 6.0698482537424381e+00 3.2817681307748239e+00 0 0 0
191 1 2.0017205395730468e+01 8.5883989994715506e+00 3.1252352510492645e+00 0 0 0
46 2 1.8650321738980885e+01 7.2568426871686951e+00 1.7139716585326825e+00 0 0 0
174 2 1.8637609843885127e+01 7.3031284799533251e+00 4.5845137187657388e+00 0 0 0
48 2 2.1678142629500954e+01 7.3579450668439312e+00 1.8075869479398250e+00 0 0 0
176 2 2.1599060993454124e+01 7.4918809358882577e+00 4.6849384139401424e+00 0 0 0
193 1 2.2914881998145937e+01 1.1550548290082270e+01 3.1138361123151226e+00 -1 0 0
1008 2 2.1470200185067554e+01 1.8669597681161079e+01 2.1563202781421758e+01 0 0 0
195 1 2.8440082304198655e+00 1.1516924987395567e+01 3.0077168840331567e+00 0 0 0
50 2 1.5341667711982752e+00 1.0131572684847072e+01 1.6314731879816557e+00 0 0 0
178 2 1.4710351661142136e+00 1.0340332952792803e+01 4.6353494009666631e+00 0 0 0
66 2 1.5313015343221248e+00 1.3112814643824663e+01 1.7908350980140673e+00 0 0 0
194 2 1.2437399895871775e+00 1.3156580464566993e+01 4.4968861746874245e+00 0 0 0
52 2 4.3638049897929037e+00 1.0178538866109957e+01 1.6547793654403300e+00 0 0 0
180 2 4.3333574639974692e+00 1.0158723131494115e+01 4.7741564050918859e+00 0 0 0
68 2 4.4600913882177693e+00 1.2904013335587919e+01 1.6164255980233888e+00 0 0 0
196 2 4.3774844039554823e+00 1.3046472877519250e+01 4.6419352143852715e+00 0 0 0
896 2 2.1665548062579372e+01 2.1590452933601199e+01 1.8979831707835242e+01 0 0 0
197 1 5.7411713536418922e+00 1.1560876603724827e+01 3.2320203218098489e+00 0 0 0
199 1 8.7121218818113011e+00 1.1487456127043483e+01 3.1035474016437115e+00 0 0 0
54 2 7.2555443108658162e+00 1.0265545034197824e+01 1.6783474278036365e+00 0 0 0
182 2 7.2536736142494833e+00 1.0260502133436498e+01 4.7006476242251134e+00 0 0 0
70 2 7.2671264645411053e+00 1.2895573464738254e+01 1.7844310255611127e+00 0 0 0
198 2 7.4872100420358541e+00 1.2951740322076697e+01 4.6497694820690194e+00 0 0 0
201 1 1.1411396113293037e+01 1.1455821952131545e+01 3.2312912176415449e+00 0 0 0
56 2 9.9340446983170132e+00 1.0065546761762779e+01 1.7092959946160855e+00 0 0 0
184 2 9.8810889988266251e+00 1.0158064032516895e+01 4.5246687633550726e+00 0 0 0
72 2 1.0187842994185136e+01 1.3043462307125397e+01 1.8064197927771375e+00 0 0 0
200 2 1.0160541816932335e+01 1.2969116101629041e+01 4.6503758756600000e+00 0 0 0
58 2 1.2713506544390064e+01 1.0228684256660562e+01 1.7357392437248993e+00 0 0 0
186 2 1.3077795335365010e+01 1.0256057235672454e+01 4.4812156539813230e+00 0 0 0
74 2 1.2940959071120131e+01 1.2965628797686138e+01 1.5799727242226511e+00 0 0 0
202 2 1.2941945059140513e+01 1.3029936701082191e+01 4.4213149797443716e+00 0 0 0
1024 2 2.1603939083369987e+01 2.1608354999479882e+01 2.1725930609131360e+01 0 0 0
203 1 1.4321316161622818e+01 1.1704014551338348e+01 2.9414033763746548e+00 0 0 0
205 1 1.7126347670420891e+01 1.1620236654821857e+01 3.2842173762049494e+00 0 0 0
60 2 1.5881547205303791e+01 1.0136409036596021e+01 1.8236355917318292e+00 0 0 0
188 2 1.5850306166966540e+01 1.0071304488312425e+01 4.4991344963159294e+00 0 0 0
76 2 1.5903556739587740e+01 1.2970132473193084e+01 1.5436228617897951e+00 0 0 0
204 2 1.5663858273207969e+01 1.2988376113607131e+01 4.5342974131213678e+00 0 0 0
207 1 2.0124311947267767e+01 1.1592984641342991e+01 2.9929580951711960e+00 0 0 0
62 2 1.8841657265194076e+01 1.0093728875916463e+01 1.7506033884450745e+00 0 0 0
190 2 1.8632439184894231e+01 1.0193741668293173e+01 4.7220434427998041e+00 0 0 0
78 2 1.8708855321511063e+01 1.2940370770042792e+01 1.7212597428712439e+00 0 0 0
206 2 1.8735514477626683e+01 1.3032440120411836e+01 4.5850940760718046e+00 0 0 0
64 2 2.1433925034853978e+01 1.0139839713766873e+01 1.6244317290394035e+00 0 0 0
192 2 2.1426384111488822e+01 1.0187763427465267e+01 4.5528178477043824e+00 0 0 0
80 2 2.1683175068887270e+01 1.2847976796242639e+01 1.5890462781688761e+00 0 0 0
208 2 2.1525657046615780e+01 1.3020201883259190e+01 4.5446818522156907e+00 0 0 0
909 1 1.7290075989430754e+01 1.6468889767503825e-01 2.0263125221698495e+01 0 0 0
1019 1 1.4465829693246231e+01 2.0002181158933684e+01 2.0506856226829331e+01 0 0 0
225 1 2.2868675885019531e+01 1.7172533819083064e+01 3.0652362379257858e+00 -1 0 0
1021 1 1.7333868570461075e+01 2.0025894516303200e+01 2.0234082595132513e+01 0 0 0
211 1 2.9606469698095030e+00 1.4619693579804178e+01 2.8553627547132998e+00 0 0 0
227 1 2.9010169916366486e+00 1.7276933471124309e+01 2.9332325355574942e+00 0 0 0
82 2 1.5464342290642752e+00 1.5877347001649252e+01 1.5368671258449407e+00 0 0 0
210 2 1.4910060351070247e+00 1.5760883044792106e+01 4.5821431261201004e+00 0 0 0
84 2 4.1955590406344232e+00 1.5912644853840670e+01 1.5520959989824159e+00 0 0 0
212 2 4.2768717224394317e+00 1.5690738589720882e+01 4.3088399299859574e+00 0 0 0
213 1 5.7601396733099923e+00 1.4299922808848347e+01 3.1140432283963970e+00 0 0 0
876 2 1.5745638162551048e+01 1.8785230082776295e+01 1.8844308266218668e+01 0 0 0
229 1 5.8887464068127109e+00 1.7081302148440706e+01 3.0964922014196641e+00 0 0 0
215 1 8.6629931182253710e+00 1.4359420521439914e+01 3.0918484823388868e+00 0 0 0
103 1 8.5217931666509568e+00 1.7359360442017497e+01 4.3902799517037272e-01 0 0 0
231 1 8.6386307180200621e+00 1.7124452829456960e+01 3.1468185426053554e+00 0 0 0
86 2 7.2059222695544953e+00 1.5713772864265682e+01 1.7928182571611198e+00 0 0 0
214 2 7.2811116474018052e+00 1.5705434037045766e+01 4.6298643020455197e+00 0 0 0
87 1 8.7116675238756169e+00 1.4442428167560044e+01 2.8952490465577851e-01 0 0 0
85 1 5.7912503355752980e+00 1.4441551204776713e+01 2.5620552884571118e-01 0 0 0
217 1 1.1446126234379760e+01 1.4432073603066796e+01 3.0988665481828970e+00 0 0 0
233 1 1.1410762947183052e+01 1.7283492785845748e+01 3.1850896563607720e+00 0 0 0
88 2 9.9350543438457262e+00 1.5991332161489037e+01 1.8681947071141662e+00 0 0 0
216 2 1.0149818357576800e+01 1.5803655945857985e+01 4.5315410064852522e+00 0 0 0
90 2 1.2951124410247102e+01 1.5865413273062597e+01 1.7929019162521571e+00 0 0 0
218 2 1.2867961582394861e+01 1.5689909279581730e+01 4.5662099061993979e+00 0 0 0
1004 2 1.5931068605142785e+01 1.8612888647319696e+01 2.1633589008241835e+01 0 0 0
219 1 1.4229498818110345e+01 1.4295789573209083e+01 3.0021329463974369e+00 0 0 0
107 1 1.4569835769177940e+01 1.7366744584633892e+01 2.5825316281083438e-01 0 0 0
235 1 1.4567862134956664e+01 1.7239413387394858e+01 3.0995485791928559e+00 0 0 0
221 1 1.7416194733567913e+01 1.4422569817694626e+01 3.0912748178453504e+00 0 0 0
237 1 1.7446710433070386e+01 1.7193064785608527e+01 3.1039295815198873e+00 0 0 0
92 2 1.5907535219200764e+01 1.5753050381667853e+01 1.5987694271277046e+00 0 0 0
220 2 1.5747523766575494e+01 1.5716575089803642e+01 4.4966946810245849e+00 0 0 0
109 1 1.7305066072185703e+01 1.7353696640978843e+01 3.9206641137190468e-01 0 0 0
892 2 1.5670811194692671e+01 2.1612037562836864e+01 1.8947569837954180e+01 0 0 0
209 1 2.2839404810974067e+01 1.4557310885342179e+01 2.9652843248218947e+00 -1 0 0
223 1 2.0166681618529143e+01 1.4268973913767439e+01 3.0087559935025188e+00 0 0 0
1020 2 1.5792644633162951e+01 2.1593857904448228e+01 2.1777633021504315e+01 0 0 0
239 1 2.0154998580837905e+01 1.7476039529646588e+01 3.0993669435086826e+00 0 0 0
94 2 1.8758250778810599e+01 1.5836624893171560e+01 1.4611070347368933e+00 0 0 0
222 2 1.8775315131948680e+01 1.5778529458082065e+01 4.4183029082780889e+00 0 0 0
96 2 2.1386111040234013e+01 1.5909240778577621e+01 1.6656440696830677e+00 0 0 0
224 2 2.1431739201859319e+01 1.5838074979838110e+01 4.6762963394032271e+00 0 0 0
131 1 2.8514363058091914e+00 4.1587811765401739e-01 2.9472540496425803e+00 0 0 0
243 1 2.8210863308303447e+00 2.0021809127895015e+01 3.0678522423594878e+00 0 0 0
98 2 1.5328105777626000e+00 1.8785681493655208e+01 1.4590826088778306e+00 0 0 0
226 2 1.4497818737154449e+00 1.8543881296142697e+01 4.3727855131605251e+00 0 0 0
114 2 1.7385631871011078e+00 2.1550216951095983e+01 1.6635786530488388e+00 0 0 0
242 2 1.5328470886132350e+00 2.1423967669831601e+01 4.4137621261535545e+00 0 0 0
100 2 4.3869515654321596e+00 1.8837425957606804e+01 1.6473994342731848e+00 0 0 0
228 2 4.4534793082165569e+00 1.8699760801298417e+01 4.5761306247214115e+00 0 0 0
116 2 4.5338509089498196e+00 2.1890004895231367e+01 1.7243698745418692e+00 0 0 0
244 2 4.2262912583732781e+00 2.1779146810074501e+01 4.4574432156507573e+00 0 0 0
133 1 5.7840833283759849e+00 2.1176785483472216e-01 3.2932945754718608e+00 0 0 0
135 1 8.7389312679331486e+00 2.2843081551522278e+01 3.0458067696154876e+00 0 -1 0
245 1 5.7780992754096916e+00 2.0261088188536522e+01 3.2260589954802268e+00 0 0 0
247 1 8.5139955989741569e+00 2.0119893986043714e+01 3.0825792530654486e+00 0 0 0
102 2 7.1888906845711915e+00 1.8636423483160712e+01 1.7423800955791717e+00 0 0 0
230 2 7.2382492190664918e+00 1.8720117918822737e+01 4.5402208792987038e+00 0 0 0
118 2 7.0998057765589184e+00 2.1486125606962812e+01 1.6884216562674563e+00 0 0 0
246 2 7.3467054632264546e+00 2.1660210377862512e+01 4.4502506022526029e+00 0 0 0
1033 1 1.1401533939006089e+01 2.2931760412673384e+01 2.3037771924428220e+01 0 -1 0
905 1 1.1632812642346305e+01 1.9673080712357915e-01 2.0429833089613254e+01 0 0 0
121 1 1.1319748239264760e+01 2.0107174197984115e+01 3.1498348901261164e-01 0 0 0
249 1 1.1470404327477382e+01 1.9921201921053470e+01 3.0718716302506781e+00 0 0 0
104 2 9.8560323777222187e+00 1.8756132532165278e+01 1.8245580043793872e+00 0 0 0
232 2 1.0026864670255529e+01 1.8656356525910741e+01 4.4774638071951518e+00 0 0 0
120 2 1.0104277692618503e+01 2.1441425297287012e+01 1.5879920300216264e+00 0 0 0
248 2 1.0059660669796019e+01 2.1605523146262247e+01 4.4744545202777344e+00 0 0 0
106 2 1.2997795357372141e+01 1.8652790123041211e+01 1.7021282058670320e+00 0 0 0
234 2 1.3169318471136602e+01 1.8662167694214961e+01 4.4903722782462907e+00 0 0 0
122 2 1.2881863592339220e+01 2.1538141747970187e+01 1.6362422883731413e+00 0 0 0
250 2 1.2901384895049814e+01 2.1489389769309021e+01 4.4273479539969296e+00 0 0 0
251 1 1.4256451098493288e+01 2.0208179134066416e+01 3.1093396307921974e+00 0 0 0
253 1 1.7321965128558627e+01 2.0081943631178678e+01 3.1125550954806886e+00 0 0 0
108 2 1.5837261501793920e+01 1.8838773546253314e+01 1.7234522288232987e+00 0 0 0
236 2 1.5938389183214349e+01 1.8596684083082906e+01 4.4466028491428720e+00 0 0 0
124 2 1.5923568172939605e+01 2.1531041969944450e+01 1.6913447538137727e+00 0 0 0
252 2 1.5857925640159527e+01 2.1636966096637824e+01 4.4726277064120259e+00 0 0 0
123 1 1.4439340464524138e+01 2.0141430015191222e+01 2.8006927295949247e-01 0 0 0
143 1 2.0350149553440705e+01 2.2932360108942749e+01 3.0364532759285670e+00 0 -1 0
1017 1 1.1420215239605378e+01 2.0303709376083393e+01 2.0164264727862239e+01 0 0 0
241 1 2.2798249685757217e+01 2.0195528152309798e+01 3.0487239696343189e+00 -1 0 0
255 1 2.0165096847824234e+01 2.0248069484741556e+01 3.1996084928783630e+00 0 0 0
110 2 1.8895925039914385e+01 1.8859744304745067e+01 1.5650642647640596e+00 0 0 0
238 2 1.8698926936682856e+01 1.8676918365437654e+01 4.3367645921706037e+00 0 0 0
126 2 1.8743848409671859e+01 2.1405555818427775e+01 1.6808033852617354e+00 0 0 0
254 2 1.8705743979835582e+01 2.1603215582855057e+01 4.5782576668006225e+00 0 0 0
112 2 2.1537046353933750e+01 1.8676666482316474e+01 1.6154571350720388e+00 0 0 0
240 2 2.1651010016043490e+01 1.8867866267883116e+01 4.4679937820126492e+00 0 0 0
128 2 2.1659896432780407e+01 2.1443995463565475e+01 1.4318410975920774e+00 0 0 0
256 2 2.1495928504558080e+01 2.1455273308605705e+01 4.7474919808204454e+00 0 0 0
257 1 2.2931193391203557e+01 1.2817371152749732e-01 5.7739220697693066e+00 -1 0 0
273 1 2.2930333129811668e+01 2.8439095758577158e+00 5.7759309744242158e+00 -1 0 0
387 1 2.7672845280785361e+00 2.2930744018725104e+01 8.8286967038569735e+00 0 -1 0
275 1 3.0952469890836332e+00 2.9690083659444086e+00 6.1015668207486513e+00 0 0 0
403 1 2.9799369227819619e+00 3.1759660148351894e+00 8.8368469313064519e+00 0 0 0
258 2 1.3226386944595592e+00 1.5833297996253359e+00 7.3525463374423179e+00 0 0 0
274 2 1.4313538260040453e+00 4.2429146204191763e+00 7.3532926971144201e+00 0 0 0
260 2 4.1797141418181925e+00 1.5767982899867792e+00 7.4218925832435625e+00 0 0 0
276 2 4.2978538573437346e+00 4.4718329334503553e+00 7.4561183203125427e+00 0 0 0
389 1 5.8121294481524846e+00 2.2820858485616363e+01 8.6409623865438352e+00 0 -1 0
277 1 5.8705155989181002e+00 3.1942474676004067e+00 6.0164316973081426e+00 0 0 0
405 1 5.7030884060366747e+00 3.2160964664609462e+00 8.8365847712531629e+00 0 0 0
263 1 8.4973333563485820e+00 1.6117504908927799e-01 6.0634143667082530e+00 0 0 0
391 1 8.6406515667449462e+00 1.8651516952310995e-01 8.7775899424694970e+00 0 0 0
279 1 8.7732896588989835e+00 2.9225748735910364e+00 5.9245915050811799e+00 0 0 0
407 1 8.7003180644005287e+00 3.0130550565478909e+00 8.8512683350744794e+00 0 0 0
262 2 7.2418400156540255e+00 1.7712548255516156e+00 7.2451920541062504e+00 0 0 0
278 2 7.2413789899459919e+00 4.4447582050050620e+00 7.3363269200296743e+00 0 0 0
265 1 1.1489109960480814e+01 2.2851798841632970e+01 5.9296244266774947e+00 0 -1 0
393 1 1.1585782839769237e+01 2.8656161082303910e-01 8.7711951004331112e+00 0 0 0
281 1 1.1483784036879332e+01 2.9210512850385215e+00 5.9301435100740143e+00 0 0 0
409 1 1.1715966232485933e+01 2.9904151269520578e+00 8.6781026171875393e+00 0 0 0
264 2 1.0130857450608904e+01 1.4409004977496422e+00 7.5338205964451506e+00 0 0 0
280 2 1.0122774301679344e+01 4.4015434173356693e+00 7.5615000592173391e+00 0 0 0
266 2 1.2809409202070166e+01 1.5743614972447735e+00 7.3720922962958744e+00 0 0 0
282 2 1.3056744240154398e+01 4.3046695638864767e+00 7.2554115577446927e+00 0 0 0
267 1 1.4204219142901191e+01 2.3592872685396671e-01 5.9890794905450457e+00 0 0 0
395 1 1.4630356736607338e+01 2.2985808100299352e+01 8.8534131420749222e+00 0 -1 0
283 1 1.4512945749968713e+01 2.8721009461409235e+00 5.8421050493685067e+00 0 0 0
411 1 1.4356764563406079e+01 3.1797294767447513e+00 8.7896554272290697e+00 0 0 0
269 1 1.7090900671047574e+01 1.7487449834571983e-01 6.3261799551952622e+00 0 0 0
397 1 1.7179485608491071e+01 2.2942294802390609e+01 8.9069961761410674e+00 0 -1 0
285 1 1.7163183401429201e+01 2.8906237464767655e+00 6.0659796585898214e+00 0 0 0
413 1 1.7509461781570614e+01 3.0175618635131083e+00 8.8949294953986264e+00 0 0 0
268 2 1.5749090057726251e+01 1.6306283733278435e+00 7.4601508765454554e+00 0 0 0
284 2 1.5922174996090742e+01 4.4309443617051638e+00 7.3717134077519955e+00 0 0 0
385 1 1.2352001040264682e-01 1.7154196419977052e-01 8.8670266466331960e+00 0 0 0
401 1 2.2797234658354171e-01 3.0785061540494176e+00 8.8642585662997408e+00 0 0 0
271 1 2.0184370403762049e+01 2.2760463753615863e+01 6.1257340794848059e+00 0 -1 0
399 1 2.0209082592390498e+01 1.8850030893978970e-01 8.8003777452573928e+00 0 0 0
287 1 2.0103615320214608e+01 2.7975017964729414e+00 5.9780908772356822e+00 0 0 0
415 1 2.0134879488649531e+01 2.7382194921095526e+00 8.8843923719312965e+00 0 0 0
270 2 1.8800228572090305e+01 1.4643497465433402e+00 7.4260471399231385e+00 0 0 0
286 2 1.8789685589235969e+01 4.2278379685567931e+00 7.3632967151338748e+00 0 0 0
272 2 2.1560904541138537e+01 1.6298421081164258e+00 7.5148307743996039e+00 0 0 0
288 2 2.1432453286728940e+01 4.1873552811890162e+00 7.3547105336511107e+00 0 0 0
291 1 2.7654066290440493e+00 5.8958010929525564e+00 6.0262058808787762e+00 0 0 0
419 1 2.9377391465267952e+00 6.0563093864357702e+00 8.8050045593411372e+00 0 0 0
307 1 2.9699842719515970e+00 8.7509007448642606e+00 6.1538882251537865e+00 0 0 0
435 1 3.0373898992336024e+00 8.9521187965661859e+00 8.7077957621604369e+00 0 0 0
290 2 1.5084005889056100e+00 7.4070473634939731e+00 7.5618356647293128e+00 0 0 0
292 2 4.4861055333821458e+00 7.2856431600861464e+00 7.4870147530987445e+00 0 0 0
293 1 5.6885049443724274e+00 5.8620084615058063e+00 5.7837773224903417e+00 0 0 0
421 1 5.8040590568640855e+00 5.7176605318796483e+00 8.9395055063083628e+00 0 0 0
309 1 5.7210611475475357e+00 8.7107660320485394e+00 6.1479094570276853e+00 0 0 0
437 1 6.0491811912779649e+00 8.8008096327759908e+00 8.7598467986620641e+00 0 0 0
295 1 8.7296101835102835e+00 5.9155056692312460e+00 6.2428404399500081e+00 0 0 0
423 1 8.7743875259803428e+00 5.8825850618666866e+00 8.7993595009998824e+00 0 0 0
311 1 8.6705446135185902e+00 8.6824758062249821e+00 6.0465095132307534e+00 0 0 0
439 1 8.6138905823721377e+00 8.6514317621477534e+00 8.8462337753056133e+00 0 0 0
294 2 7.2038473707225901e+00 7.2213932739087427e+00 7.4206936298414119e+00 0 0 0
297 1 1.1866870750731756e+01 5.9641719752756757e+00 5.9900554909432078e+00 0 0 0
425 1 1.1637588131185353e+01 5.9450980571275149e+00 8.8370684499054519e+00 0 0 0
313 1 1.1568691322842447e+01 8.7657660544685925e+00 5.8989375879934256e+00 0 0 0
441 1 1.1775223734970378e+01 8.7107851402489356e+00 8.8725133443063946e+00 0 0 0
296 2 1.0364386551039150e+01 7.4096678808764489e+00 7.4323956741718353e+00 0 0 0
298 2 1.3038214023047997e+01 7.3468556523358517e+00 7.3471283024967207e+00 0 0 0
299 1 1.4480741395295283e+01 5.8282259842054183e+00 6.0542349434026326e+00 0 0 0
427 1 1.4510124432289878e+01 5.8683378367848542e+00 8.9046117116929313e+00 0 0 0
315 1 1.4487809184485979e+01 8.9511771982296633e+00 5.8950517620094498e+00 0 0 0
443 1 1.4289776828280175e+01 8.6776756203067063e+00 8.8348532541391016e+00 0 0 0
301 1 1.7305223097542278e+01 5.8255982658741132e+00 6.0226804538503265e+00 0 0 0
429 1 1.7463735689318181e+01 5.9293985752880491e+00 8.8075559941245221e+00 0 0 0
317 1 1.7233779006068325e+01 8.6937922048917340e+00 6.0861529327395898e+00 0 0 0
445 1 1.7269835345537409e+01 8.4212115559552565e+00 8.7740180688001637e+00 0 0 0
300 2 1.5799613134422161e+01 7.3831271429529686e+00 7.5219206778760750e+00 0 0 0
289 1 2.2956441980181307e+01 5.7554377615271077e+00 5.9904347525337043e+00 -1 0 0
417 1 1.4666797421601530e-01 5.9876954910415456e+00 8.9468107264842338e+00 0 0 0
305 1 2.2933873146502453e+01 8.7505271502638013e+00 5.9596196095305221e+00 -1 0 0
433 1 1.4584236457585220e-01 8.6828297074487626e+00 9.0068359906492379e+00 0 0 0
303 1 2.0228018968037109e+01 5.6859366527282615e+00 5.8244773448017231e+00 0 0 0
431 1 2.0478232650966579e+01 5.8757255982436929e+00 8.7737349558477735e+00 0 0 0
319 1 2.0076740584902240e+01 8.5549686437765491e+00 5.9533399791186232e+00 0 0 0
447 1 2.0130545017990805e+01 8.6521201671734111e+00 8.6308167434367480e+00 0 0 0
302 2 1.9000827706165300e+01 6.8756330922359306e+00 7.4195599304238016e+00 0 0 0
304 2 2.1677532260950418e+01 7.2538106608915651e+00 7.4735496053764212e+00 0 0 0
321 1 2.2956771775417771e+01 1.1760275607148261e+01 5.9847403842920448e+00 -1 0 0
323 1 3.0514699507818057e+00 1.1591197168209471e+01 5.8985540722235381e+00 0 0 0
451 1 3.0223159547564133e+00 1.1591855376880813e+01 8.9545228747159022e+00 0 0 0
306 2 1.5177120024594297e+00 1.0286023625429463e+01 7.4627043826287487e+00 0 0 0
322 2 1.6458217291551622e+00 1.3040345152795743e+01 7.3495565550533559e+00 0 0 0
308 2 4.3650918442984992e+00 1.0260242978886374e+01 7.5200571620643242e+00 0 0 0
324 2 4.4243622695493023e+00 1.3088920123961111e+01 7.3246775532172705e+00 0 0 0
325 1 5.8679668365696447e+00 1.1574293377889223e+01 6.0456401302717424e+00 0 0 0
453 1 5.9238907569718160e+00 1.1639119395139886e+01 8.9043928135563046e+00 0 0 0
327 1 8.8534606355705989e+00 1.1490729524018903e+01 6.0895758923846586e+00 0 0 0
455 1 8.6750267429112018e+00 1.1479210971005619e+01 8.8241133119437638e+00 0 0 0
310 2 7.3275088164683515e+00 1.0183350699147475e+01 7.4210200917055698e+00 0 0 0
326 2 7.2879722143057890e+00 1.3149918899917767e+01 7.3563560662215295e+00 0 0 0
329 1 1.1371089251917482e+01 1.1463202042859782e+01 6.0516037039916366e+00 0 0 0
457 1 1.1713602042365835e+01 1.1582204871455472e+01 8.9737609860933354e+00 0 0 0
312 2 1.0227143716115213e+01 9.9959029632100407e+00 7.5766033806817923e+00 0 0 0
328 2 1.0136351928024762e+01 1.3010776489993113e+01 7.4672542641642501e+00 0 0 0
314 2 1.2926522465838632e+01 1.0146660697422840e+01 7.3158358430966359e+00 0 0 0
330 2 1.3002304207891502e+01 1.2931362939061280e+01 7.4978358827233231e+00 0 0 0
331 1 1.4534820717275778e+01 1.1786858214459805e+01 6.2069780607641114e+00 0 0 0
459 1 1.4356729492865689e+01 1.1250684003870100e+01 8.7440383783352580e+00 0 0 0
333 1 1.7207822617909095e+01 1.1680461497622124e+01 6.0461162162121154e+00 0 0 0
461 1 1.7434170936247462e+01 1.1324779932885606e+01 8.8628724421219740e+00 0 0 0
316 2 1.5997619659651635e+01 1.0089922264867136e+01 7.3494287621248811e+00 0 0 0
332 2 1.5899816814044600e+01 1.3140292353912434e+01 7.7782432687040188e+00 0 0 0
449 1 2.2936850210220317e+01 1.1479023319316765e+01 9.0107058463211978e+00 -1 0 0
335 1 2.0033659011931803e+01 1.1583653543118833e+01 6.1374270803202950e+00 0 0 0
463 1 2.0165870099778051e+01 1.1400494510679515e+01 8.8059634131452285e+00 0 0 0
318 2 1.8767203898898096e+01 9.8592140512467985e+00 7.3276045044181553e+00 0 0 0
334 2 1.8676912373595389e+01 1.2907932590606507e+01 7.7055319397357627e+00 0 0 0
320 2 2.1624021949571123e+01 1.0241082224286368e+01 7.3193138252767289e+00 0 0 0
336 2 2.1553041183589279e+01 1.3107480584057980e+01 7.2245312357158777e+00 0 0 0
339 1 2.9892682186041011e+00 1.4563849560485181e+01 5.8488806747568018e+00 0 0 0
467 1 3.0680782808101763e+00 1.4451328350701276e+01 8.7876709218839082e+00 0 0 0
355 1 2.9142817649491013e+00 1.7304899173060051e+01 5.9219904683267641e+00 0 0 0
483 1 3.1923324595250566e+00 1.7181390594336690e+01 8.7517675916972291e+00 0 0 0
338 2 1.4740491987819482e+00 1.5911535618938972e+01 7.2676101175844128e+00 0 0 0
340 2 4.5950638497207006e+00 1.5695945589074960e+01 7.2765069034318337e+00 0 0 0
341 1 5.9479566185920820e+00 1.4414404712380087e+01 5.8654471169192561e+00 0 0 0
469 1 5.8702769069642455e+00 1.4506443182176188e+01 8.9302996123561726e+00 0 0 0
357 1 5.7509046582513141e+00 1.7265191182027028e+01 5.9054725143386912e+00 0 0 0
485 1 5.7617882399527023e+00 1.7326765603650731e+01 8.6843794252742281e+00 0 0 0
343 1 8.9567846754007512e+00 1.4454675454301155e+01 6.0018683777613608e+00 0 0 0
471 1 8.7309484716489560e+00 1.4618483435668269e+01 8.7750565730784391e+00 0 0 0
359 1 8.6583365199167837e+00 1.7361601528162186e+01 5.8651542971237518e+00 0 0 0
487 1 8.6146147996135500e+00 1.7206276908374601e+01 8.8765657435454610e+00 0 0 0
342 2 7.2605390922835964e+00 1.6090215606507215e+01 7.4011152759329075e+00 0 0 0
345 1 1.1837195811664248e+01 1.4554694268566804e+01 6.1581105676514296e+00 0 0 0
473 1 1.1434083718648150e+01 1.4373368133987347e+01 8.9778072759575309e+00 0 0 0
361 1 1.1523765073753804e+01 1.7423143532436640e+01 5.8520277107087262e+00 0 0 0
489 1 1.1539104320721117e+01 1.7425466446383165e+01 8.8007067403503427e+00 0 0 0
344 2 1.0277905738912962e+01 1.5914571030509926e+01 7.4095120392922560e+00 0 0 0