LAMMPS data file via write_data, version 29 Oct 2020, timestep = 300000

2048 atoms
1 atom types

0.17412813909485259 28.177871860899735 xlo xhi
0.17412813909485259 28.177871860899735 ylo yhi
0.17412813909485259 28.177871860899735 zlo zhi

Masses

1 58.933

Atoms # atomic

8 1 2.1169849255167894 4.029363893742274 2.1205252037857605 0 0 0
163 1 1.7712985024919263 1.8417384928883576 3.576100591179086 0 0 0
132 1 3.736079340254002 3.550854186495067 3.6421255051892216 0 0 0
130 1 3.7626563807061864 1.668701534094653 2.157619948596426 0 0 0
1293 1 10.70015157665256 13.69395952717333 7.242381903384577 0 0 0
513 1 0.360496153906553 0.2358667709562607 14.118591360590555 0 0 0
152 1 21.050899402159594 0.37461577655394723 7.125922264782807 0 0 0
1054 1 24.677269261309654 13.912433736069618 0.28063208327874384 0 0 0
12 1 6.983161523351067 2.294115777496978 1.8372992762607645 0 0 0
39 1 5.410757571636044 3.9549356828763127 1.9434604895670888 0 0 0
134 1 5.720169650002098 2.228843475577091 4.137042650861211 0 0 0
166 1 7.383147280369686 3.7297363247760056 3.686860479124737 0 0 0
1177 1 21.46868053702992 13.997032948881285 3.7551374995564593 0 0 0
169 1 9.006557451057196 1.8203483795945465 3.7280366595496632 0 0 0
41 1 8.539984099044265 3.5972755655781414 1.6814460805928846 0 0 0
173 1 10.658199003515943 3.997618725162115 3.660434433471606 0 0 0
15 1 10.555876035944317 2.1111675491295925 1.7176844902878154 0 0 0
120 1 19.755223778224497 12.467069231772497 0.18951656811074613 0 0 0
260 1 26.61037739311481 0.17806349571666402 9.318880940261097 -1 0 0
1439 1 26.315638301398373 14.132552896875936 12.591353207245941 0 0 0
1045 1 17.976584691726558 14.039578732420795 0.2601561311911159 0 0 0
142 1 12.248367610594045 2.21662349476224 3.8376189438160506 0 0 0
49 1 12.052876975096275 3.907222967758931 1.8196504741483852 0 0 0
20 1 13.888251247057338 2.1268534749909884 2.1060073222375095 0 0 0
146 1 14.246132344052866 3.62575308003383 3.738192203373668 0 0 0
51 1 15.563440066989594 3.5936293962159627 1.9355275768519549 0 0 0
151 1 15.855540627981043 1.7928068592087714 3.613459623487342 0 0 0
1266 1 12.346020251408488 0.3485045550884479 1.503830296990903 0 1 0
481 1 28.08934292558505 12.805040277572978 12.341729823254619 -1 0 0
1258 1 10.841916580202009 0.5040288904431045 3.4131811262694765 0 1 0
181 1 17.654862443700523 3.6816917408782652 3.4500173693791805 0 0 0
19 1 17.229562709634294 1.8465981764730868 1.8930298052909489 0 0 0
1398 1 19.402686586482226 1.5605962821678447 3.317700428238812 0 1 0
150 1 19.373331286790645 3.845609280819777 1.5746296926210663 0 0 0
1167 1 12.476233378837803 13.96609454040047 5.808594412432684 0 0 0
154 1 22.9213618564806 1.9156898626438619 3.713394440102174 0 0 0
185 1 20.92273502564752 3.304223540313176 3.620265280330375 0 0 0
22 1 21.283107791655986 1.6108079585048984 1.956702088290121 0 0 0
59 1 22.875810744952403 3.484286008272349 2.1286127453342676 0 0 0
512 1 24.592393328597836 12.405991411974341 12.58520537032056 0 0 0
920 1 19.345888592090425 1.848278628294763 0.3361943291040467 0 0 1
4 1 28.071242645925636 1.9119772060764353 2.2061960372201392 -1 0 0
161 1 0.27490544995734495 3.744760639899437 3.4452307446460044 0 0 0
32 1 24.542176156610573 1.9691307755036422 1.835762255516143 0 0 0
223 1 24.583240330438677 3.929868634982423 3.5623134734105633 0 0 0
189 1 26.275130840086646 2.3158554481810545 3.5825000880877718 0 0 0
33 1 26.53313193531259 3.7355384269525866 2.147647909716912 -1 0 0
511 1 26.722786931238034 10.680531896543258 12.456693034075407 0 0 0
415 1 26.3399091072423 0.21988466660280065 12.375312645822214 0 0 0
1155 1 1.9190046728668941 14.137523393937705 5.4537407537653575 0 0 0
82 1 15.963744039830907 8.736165976943935 0.5046289642482683 0 0 0
162 1 1.943158217845663 5.702160078312437 3.6923832226326736 0 0 0
40 1 3.7680743120232285 5.6525940493549065 1.7950716000075144 0 0 0
67 1 2.0233165503602804 7.233431282534858 1.698588284853732 0 0 0
194 1 2.057354509443299 8.739780383473702 3.4887914272022633 0 0 0
72 1 3.740211467413646 9.013641845823782 1.746461540147059 0 0 0
197 1 3.8614359791232418 7.297522689123894 3.772204034395221 0 0 0
1027 1 1.6100450993463689 14.121410197200236 2.20499069951783 0 0 0
403 1 16.005386756659632 0.3302102711158452 12.290665649635217 0 0 0
30 1 24.800938214466704 0.37155780462440113 3.6112467607943803 0 0 0
1291 1 8.990436765079574 14.024528598772596 9.047922310249529 0 0 0
1179 1 21.02984906433882 13.906500988202403 7.441983824763115 0 0 0
165 1 5.575959217303251 5.604182784780767 3.4456094623001605 0 0 0
44 1 7.404354265791127 5.485540735232999 1.658505601639427 0 0 0
71 1 5.407182988845279 7.2058830760801245 1.6100338025229717 0 0 0
201 1 7.454513691195465 7.182419940586322 3.2346688321322032 0 0 0
76 1 7.335740870867413 9.178624105039795 1.8402912537932694 0 0 0
198 1 5.616789534706311 9.043196072614052 3.4176436487818136 0 0 0
129 1 26.39247774274061 0.2356529618953356 1.824243389836108 -1 0 0
265 1 6.987995729095081 0.23075089355381473 7.193841614396657 0 0 0
1514 1 10.798625690614436 0.48126225063006134 10.602545763007647 0 1 0
47 1 10.586002752705568 5.646625199114328 1.9353028992491499 0 0 0
48 1 9.212621659071385 7.5073443850155455 1.8941816263100366 0 0 0
170 1 8.828884920463612 5.476429562852846 3.68740275015726 0 0 0
205 1 10.536341131507744 7.312351608971717 3.649423488027285 0 0 0
80 1 10.99541308072219 9.039573467977295 1.9042968961898505 0 0 0
202 1 8.818800153195573 9.002590978024033 3.7076616810311354 0 0 0
153 1 23.11974838728697 0.3910416964107105 5.434937835653606 0 0 0
1035 1 8.952467744759547 14.057910799921634 1.8862460195845683 0 0 0
286 1 26.384748101794223 0.28453249402096664 5.516885057995285 0 0 0
1421 1 10.54199476347145 13.994886512025442 10.785056578571032 0 0 0
174 1 12.445083095055551 5.562465867737036 3.6207030065500008 0 0 0
206 1 12.45049654121813 7.003467496978481 2.1421669386288773 0 0 0
237 1 12.645263717088778 8.931900892539092 3.8070264821086397 0 0 0
178 1 14.005119763807993 5.330866235463061 1.8734706164119117 0 0 0
209 1 14.24163699382716 7.086325645106798 3.964610649225842 0 0 0
241 1 14.23278587566668 8.616328932667626 2.0618708363743323 0 0 0
83 1 15.990771708348012 7.2615654375965795 2.120325907585454 0 0 0
213 1 15.93457643084387 5.698808551308636 3.58724350332397 0 0 0
210 1 15.572190962366554 8.890707463310155 3.752172553313587 0 0 0
399 1 12.625548432648962 0.20231374031077243 12.248038259537989 0 0 0
182 1 19.531509747008066 5.437918696523208 3.523442982153863 0 0 0
87 1 17.694680874945895 5.7166530933732 1.9257184180944122 0 0 0
54 1 17.91298489713966 7.352662512728429 4.116954467650819 0 0 0
249 1 19.493734333791494 7.002544658574019 2.129957855093132 0 0 0
88 1 17.657732680180608 8.808331241463414 2.166825181357197 0 0 0
373 1 19.45171770662165 8.885768925634837 3.7030688764579045 0 0 0
307 1 19.5319344080307 0.2429439292641189 12.518427119138904 0 0 0
285 1 24.74758532676917 0.41916263406056864 7.205708365202146 0 0 0
60 1 21.20875363650999 5.146016118875089 2.069065393543894 0 0 0
186 1 22.858378039003043 5.699854246254498 3.477078404771194 0 0 0
91 1 23.1991362914437 6.979534341884251 1.6300483449304344 0 0 0
217 1 21.174830501843438 7.216636755556839 3.9119441576144545 0 0 0
92 1 21.087318888978146 8.760136807320288 2.1598393498189936 0 0 0
218 1 23.15598443020916 8.57335415650935 3.603182306148085 0 0 0
1289 1 7.113933857527684 14.008071401367548 7.488191561116333 0 0 0
36 1 0.2393049147489903 5.574073947167412 1.7324863300890956 0 0 0
95 1 0.3610577053972641 8.59689125923734 1.6308587557420242 1 0 0
68 1 28.008590229259077 7.318967883921258 3.824871824964741 -1 0 0
64 1 24.984325998110982 5.1848709694727315 1.744449352396712 0 0 0
224 1 24.728570107165773 7.076957152470251 3.5480696098057805 0 0 0
190 1 26.61051349600413 5.512900200100141 3.9328402918193426 0 0 0
221 1 26.26728372277516 7.219936348127649 2.061439278507476 0 0 0
96 1 26.245340054692576 8.87100541454101 3.959301829524528 0 0 0
123 1 24.663316577250242 8.93516062082605 1.6419695357543558 0 0 0
131 1 1.9355099279584533 0.37615827921800815 5.591871094829664 0 0 0
510 1 25.967396083549396 12.804815766025646 10.608007617021705 0 0 0
52 1 14.043412758869353 3.857976105198828 0.25490352782678943 0 0 0
99 1 1.9427231295082024 10.756605910479662 2.027059292107187 0 0 0
226 1 1.7354016171553048 12.45136464392221 3.963307814915575 0 0 0
104 1 3.862020066517365 10.6346611439866 3.5167313922061627 0 0 0
1000 1 3.595482472733331 12.284485693868785 2.084697406140203 0 0 1
45 1 10.466513562723204 3.6586005979053233 0.1843701798531221 0 0 0
545 1 28.028805042562595 3.628219018227756 13.884345524477766 -1 0 0
509 1 24.521254537561838 10.82181457510454 10.51604842548593 0 0 0
103 1 5.492019605696529 10.77311603448337 1.8422418548482073 0 0 0
108 1 6.801718567009211 12.64834885292585 1.8438245298120302 0 0 0
230 1 5.0373722206713785 12.510350399893252 3.8105765294793335 0 0 0
233 1 7.318671851034154 10.817909964340105 3.700795559874946 0 0 0
947 1 15.871008404035566 5.468354009391798 0.20742065941016907 0 0 1
97 1 0.24943298754274298 10.556203693152712 0.27149289294694634 0 0 0
234 1 8.840567817439322 12.53624285903417 3.810184444635166 0 0 0
107 1 9.094047750872091 10.75373866036248 2.024460671704301 0 0 0
112 1 10.908423784808111 10.499897903627309 3.687029935136542 0 0 0
111 1 11.033551582824744 12.29393775319062 1.8236274511334172 0 0 0
395 1 8.951392349236924 0.3913906033954768 12.442613620826789 0 0 0
1423 1 12.467518816976373 13.988571498057045 12.553390475859379 0 0 0
238 1 12.783106530635806 12.512258276813693 3.7434907137593627 0 0 0
113 1 12.834151659116758 10.393014471568767 1.8568089192833301 0 0 0
116 1 14.292326896117695 12.304869219051689 2.062600608639496 0 0 0
1043 1 14.411369191536402 10.837338252402585 3.8697055089239267 0 0 0
248 1 16.17054911413527 12.38970281165812 3.7092984708666887 0 0 0
79 1 15.90882190681215 10.525858499561295 1.885152192755957 0 0 0
98 1 1.8387201232233097 12.137063350480215 0.18674701826118606 0 0 0
37 1 3.4811423637231567 3.748293823171996 0.1861445554888927 0 0 0
141 1 8.670139510571738 0.268413577650212 1.9443238792423296 0 0 0
84 1 18.077065425512167 12.395546115799243 2.0273171827083307 0 0 0
245 1 17.74797806462447 10.570981160428568 3.768488611591514 0 0 0
246 1 19.6232107351536 12.306752272150199 3.894606945671575 0 0 0
119 1 19.643829765546705 10.57892207866511 1.9743536600084763 0 0 0
387 1 1.9825552472915595 0.295900504562168 12.19964378787742 0 0 0
404 1 14.457331981336129 0.25343566464456985 10.499325246261359 0 0 0
1173 1 21.20498350775793 12.457567745366548 1.8543611317516928 0 0 0
256 1 23.003797411582013 12.232680292262009 3.771067583006883 0 0 0
1047 1 22.810317031061643 10.589583773560529 2.17629583528202 0 0 0
118 1 21.22560955979914 10.608151118735423 3.70645928327902 0 0 0
1935 1 14.514297722950472 14.099892189599998 0.46623543184886757 0 0 1
1431 1 19.65768688186342 14.008416660536687 12.646039223622237 0 0 0
100 1 28.08034896318098 12.247319410356724 2.337567975595526 -1 0 0
225 1 28.15130824333018 10.000099187385839 3.84997129381169 -1 0 0
253 1 24.630697692380352 10.462160650406338 3.931628122257008 0 0 0
128 1 24.673255619198628 12.020711917414054 1.9086116304994167 0 0 0
127 1 26.576649209316415 10.406333949278778 2.004896449919005 0 0 0
254 1 26.580517455036123 12.210625478521415 3.993601782375827 0 0 0
1309 1 24.67021723426685 14.00502094744361 7.1926044360792885 0 0 0
1281 1 28.08415767980499 14.081129011205078 7.142865786247258 -1 0 0
508 1 21.307748841862505 12.325867738291555 12.809406631033752 0 0 0
505 1 22.623376992809355 12.536035642421297 10.82448927003425 0 0 0
164 1 1.8417029263702787 3.440906218816899 5.33088461190863 0 0 0
258 1 2.0621742206773943 1.9611323848141848 7.322813540407429 0 0 0
294 1 3.8063792935561347 3.750859924338912 7.200864812216764 0 0 0
291 1 2.0397414990728238 3.4913098343073052 9.130917920137918 0 0 0
264 1 3.9826101439317476 1.9849922456939917 8.846780989854793 0 0 0
133 1 3.6912455007870375 2.052703197810958 5.120314440818036 0 0 0
344 1 21.214494819843765 10.658211410817334 11.053085978227566 0 0 0
507 1 22.90658173545154 10.4354561965596 12.658414533620173 0 0 0
1419 1 8.934152361348705 14.050697915141853 12.681948853217616 0 0 0
140 1 7.3451024376802225 1.886126693659846 5.497244940449338 0 0 0
167 1 5.492057146846814 3.790253009508343 5.519725037811432 0 0 0
262 1 5.446433994458697 2.032144552154606 6.877250325329032 0 0 0
297 1 7.179070748297057 3.5884824153899344 7.033908719606133 0 0 0
295 1 5.6116297837223605 3.699593237461535 8.59596931880589 0 0 0
268 1 7.217606219340267 1.7466101388504074 8.826302115523838 0 0 0
1041 1 16.1650069665383 14.025235387129547 1.9073510409978092 0 0 0
518 1 5.508009797830759 0.2711068404855592 12.550307016704567 0 0 0
138 1 9.13287618946649 3.7594312215671923 5.401965536228704 0 0 0
144 1 10.64419821421784 2.0173716331837728 5.586966111499456 0 0 0
266 1 9.061709773220295 1.796951007795058 7.004074050972951 0 0 0
301 1 10.5929613961993 3.834790005689658 7.405496344535075 0 0 0
272 1 10.521069504900288 2.037688404975852 9.12091701598936 0 0 0
299 1 8.931622948684119 3.6039014701436147 8.952225951995775 0 0 0
275 1 15.797023606542693 0.33698147172873555 8.656967485070167 0 0 0
303 1 12.543572908842854 3.6373613558752043 8.631680151482277 0 0 0
270 1 12.381239086767582 2.0739373106153156 7.067197737624309 0 0 0
177 1 12.247166422165911 3.819378303625725 5.406845414149619 0 0 0
148 1 14.273418592724415 2.01150774444025 5.30986949839574 0 0 0
305 1 14.32020724371473 3.601272691377167 6.901819795093942 0 0 0
276 1 14.263828323192934 1.965566904669308 8.840687389913374 0 0 0
274 1 15.913709668976601 3.8004762650807864 8.821889880945736 0 0 0
2 1 2.079121428695161 1.873822945228335 0.3090677271719189 0 0 0
56 1 17.44643773557206 3.793740895886735 0.4558314787151369 0 0 0
1415 1 5.412941613869653 14.118813714389626 12.439145669686251 0 0 0
179 1 16.10124305332662 3.685078335170177 5.217813465269256 0 0 0
277 1 15.992384367383595 2.0638906500690677 7.028043698597131 0 0 0
280 1 17.766613411091527 1.8289100714247541 5.319511635261041 0 0 0
282 1 19.11267200906137 3.585431267043166 5.457266875781735 0 0 0
183 1 17.567171109560213 3.4919615199620053 7.267590205876807 0 0 0
278 1 19.126660097628154 1.9146690404183357 7.143271248721166 0 0 0
311 1 19.139607864961405 3.7250785165297082 9.103079321566613 0 0 0
1526 1 17.613592740412074 2.046215603102646 9.04804777801646 0 1 0
27 1 22.986207186858522 0.26038568075812746 1.9759325102692142 0 0 0
503 1 19.500545106861217 10.904042417072397 12.768626268528044 0 0 0
156 1 21.12277677530367 1.923580122374051 5.364328906393468 0 0 0
192 1 22.97777551834291 3.9367881416011725 5.185045842790212 0 0 0
281 1 22.74976449455096 2.1172317155059046 7.186231528307775 0 0 0
313 1 20.760041304717568 3.5033053529183515 7.220577729197926 0 0 0
284 1 20.89935884238259 2.2114116028933397 9.148082768779993 0 0 0
315 1 22.767204609142617 3.559265086214776 8.990044939869346 0 0 0
504 1 17.807899243301016 12.718624666716824 12.419789498414282 0 0 0
502 1 17.854376996424932 10.862458011173452 11.092182678588465 0 0 0
1433 1 19.78016956287565 12.304581977319515 10.889650099079518 0 0 0
289 1 0.3135606348010789 3.7729539290518215 7.04555053091264 0 0 0
159 1 28.06044269582403 1.7088757444314369 5.3988308028175975 0 0 0
259 1 0.25262733871840404 1.9234683923152227 8.808564794888149 0 0 0
160 1 24.62178747085708 1.9436195492658166 5.3655924730941615 0 0 0
317 1 24.93604951716422 3.887626456877738 7.35953268122691 0 0 0
288 1 24.704562307036575 1.9978490330898082 9.278461937395063 0 0 0
191 1 26.440648107106476 3.7450587776186546 5.672721343930885 0 0 0
158 1 26.60197272196642 2.089663439518434 7.312637153737714 0 0 0
319 1 26.353076313936853 3.6355388015815175 9.37001755198878 0 0 0
168 1 3.712098498274726 5.503663411929404 5.213472618210711 0 0 0
195 1 1.6367944269533894 7.436832127827282 5.532618548239256 0 0 0
293 1 2.1379299796489297 5.541090310196838 7.064728728672222 0 0 0
323 1 2.193191667872264 6.996864414750486 9.214560185545677 0 0 0
290 1 4.223499942935252 6.990753209289751 6.806093904558016 0 0 0
227 1 2.2718211998534215 8.619985285025539 7.568546286245164 0 0 0
296 1 3.7724014942016817 5.371555019429386 8.796199422512025 0 0 0
200 1 3.614274225868508 9.070832010736172 5.443306541714818 0 0 0
328 1 3.826382068401443 8.846464874996204 9.285769474025532 0 0 0
325 1 0.38442234648119533 7.308641696142225 7.4157599084248425 0 0 0
322 1 28.13936947663379 8.848833422233696 8.957276859558371 -1 0 0
292 1 0.32701806565739633 5.533473544995058 8.681692791531386 0 0 0
172 1 5.617763373073655 5.423943899314487 7.059354884562123 0 0 0
171 1 7.0657537536809825 5.529927687177908 5.461713753369527 0 0 0
204 1 7.049064368046589 9.183903418893088 5.369304422901691 0 0 0
199 1 5.746753205873893 7.476403647911414 5.080286433597959 0 0 0
329 1 7.2018278904298425 7.488177577744416 7.241870449001476 0 0 0
326 1 5.552475595191267 9.263985101167094 7.119762221088316 0 0 0
332 1 6.930037067939954 9.147619073536028 9.013530157546478 0 0 0
300 1 7.116033418598557 5.594901096826447 9.040074576164972 0 0 0
327 1 5.415128618587769 7.104897869895382 8.849999987072385 0 0 0
208 1 10.634869365831637 8.714700049664932 5.6503353929095885 0 0 0
203 1 8.715751110309633 7.110679497068608 5.4875097585965085 0 0 0
298 1 8.803678066526679 5.53341421725513 7.182087384118 0 0 0
176 1 10.688450681988469 5.703613341173491 5.2679482517218315 0 0 0
333 1 10.628042255988454 7.153834651617446 7.209390963321563 0 0 0
367 1 10.972460467077484 8.903744715794303 8.996986239796064 0 0 0
330 1 9.118038386104612 9.031718955612966 7.24835585846471 0 0 0
304 1 10.933521413663044 5.7586722713221254 9.027506377357634 0 0 0
331 1 8.76807402572034 7.4792874383432695 8.808134089452675 0 0 0
207 1 12.373970125671125 7.404650272752404 5.526981889205247 0 0 0
302 1 12.43220694008009 5.46725445173309 7.351426349244351 0 0 0
334 1 12.452426282999893 8.993999895128649 7.375375768235177 0 0 0
335 1 12.710348007486845 7.2400744158102 9.07939452463345 0 0 0
180 1 13.977617576011601 5.504637528768934 5.519645888913376 0 0 0
211 1 14.273452843896324 7.220646125225968 7.4853706546850605 0 0 0
308 1 14.397998959622328 5.334299897731714 8.830353319962816 0 0 0
340 1 14.25945466810109 9.123853298773978 9.038482954960847 0 0 0
212 1 14.168908935485298 8.946487076822839 5.749828322821386 0 0 0
216 1 15.844486047695138 7.04519480097983 5.615822929084945 0 0 0
306 1 16.22048004814257 5.394386954508483 7.038774104039344 0 0 0
337 1 15.974289341115325 8.957314892468991 7.409080877815256 0 0 0
339 1 15.948054098698204 7.208953647561431 9.194114226365606 0 0 0
310 1 19.470526036550623 5.540425305702932 7.166131241795229 0 0 0
312 1 17.57886901703231 5.348191695965663 8.838846442025412 0 0 0
184 1 17.848504140111423 5.461145751664955 5.198914645172418 0 0 0
214 1 19.25200403933367 7.117058171470951 5.61767266022314 0 0 0
343 1 17.655110418706343 7.088955201947779 7.47326780485915 0 0 0
341 1 17.641508157802235 8.782058727241868 5.729253543970038 0 0 0
342 1 19.175442130568925 8.95023176456405 7.278149621253245 0 0 0
338 1 17.692826017671308 8.92896360989505 9.249242460743357 0 0 0
316 1 19.451016786569795 7.258585565069828 9.048092166123094 0 0 0
187 1 21.108941818465333 5.287798394574765 5.373788556761959 0 0 0
314 1 22.96986589272825 5.1092745859477455 7.23760582327566 0 0 0
220 1 20.912529845380725 9.158986361301023 5.39564945438274 0 0 0
215 1 22.888508799283187 6.726276689065386 5.610480402701693 0 0 0
345 1 21.180621222907007 7.197078894045813 7.079593883777421 0 0 0
347 1 22.962899033218903 7.297437081232673 8.881273684160664 0 0 0
247 1 22.77329693917234 8.776721007190195 7.045626749872948 0 0 0
348 1 21.2236211225768 8.727820100278976 9.264470823961927 0 0 0
441 1 21.182000183059635 5.58015026364368 8.959033815207887 0 0 0
196 1 28.019321733693815 9.220474979743084 5.950611317429732 -1 0 0
321 1 28.177351679871915 5.252498011974408 5.464787649670245 -1 0 0
350 1 24.78960804588546 5.495946490720162 5.473145494322386 0 0 0
352 1 24.65541536245641 8.893306944053665 9.245407973387994 0 0 0
318 1 26.491434238698375 5.565656394606406 7.2809705875678254 0 0 0
349 1 24.7631275060072 7.2355086675489595 7.308754154638656 0 0 0
222 1 24.57279113704866 8.703561010466167 5.651010979838689 0 0 0
320 1 24.420593747749074 5.380181966919681 8.941328101150921 0 0 0
193 1 26.56398721953873 7.404255029169389 5.768161499869577 -1 0 0
219 1 26.058023479794386 9.112842032953663 7.539476821917103 0 0 0
351 1 26.409983219844122 7.223702324154952 9.050067714883946 0 0 0
229 1 1.8839877122686228 10.080805331611025 5.545205187467474 0 0 0
354 1 1.7810628942146858 12.550356007135306 7.2754415165980175 0 0 0
355 1 1.8613190830883133 10.5886587100677 9.08845041213216 0 0 0
357 1 3.525184724406 10.742078754544337 7.226951482103725 0 0 0
360 1 3.6373155879691987 12.25404752004006 9.024524423165488 0 0 0
232 1 3.587714330397564 12.439794352741432 5.534935769147745 0 0 0
228 1 0.29497515486178055 11.880870992148038 5.469421935821953 0 0 0
356 1 27.98418604600908 12.530262777403854 8.901194830354402 -1 0 0
542 1 26.52715519512612 1.8136312851897456 14.052230514829018 0 0 0
94 1 24.608045847772757 10.516368163445806 0.18680571568159746 0 0 0
231 1 5.342044333470531 10.814500748057212 5.506710529024364 0 0 0
236 1 7.237557520146294 12.395057631502805 5.776179462545679 0 0 0
358 1 5.377457638619115 12.407485257632441 7.4350112626997165 0 0 0
361 1 7.255640959224381 10.599358035802315 7.368836935875142 0 0 0
364 1 7.04099955142462 12.279233244548752 9.06170552324122 0 0 0
359 1 5.245238095756666 10.584491371941848 9.080050395681843 0 0 0
1303 1 19.29095525481808 14.146496584316745 8.944223241742813 0 0 0
622 1 12.485772083181295 11.041628284467242 12.494882478430137 0 0 0
235 1 8.997274807575813 10.591330738155413 5.571180247468724 0 0 0
240 1 10.625545812354545 12.428344673530416 5.363560707389196 0 0 0
362 1 8.96960091123649 12.167297611777235 7.371609263035268 0 0 0
365 1 10.803516775590792 10.566026014164644 7.203464031816589 0 0 0
363 1 8.937533932879132 10.231994732997642 9.174226390135376 0 0 0
368 1 10.653730110688034 12.301137473877413 9.2323836686883 0 0 0
625 1 14.136452280747731 10.725285551352716 10.927144348749204 0 0 0
493 1 12.682360858968284 12.466629304302828 10.49247276700454 0 0 0
239 1 12.382076762867111 10.589102717403923 5.533282867553677 0 0 0
497 1 12.73184808409647 10.665275894136462 9.009898818551365 0 0 0
366 1 12.744026365870434 12.305643082891496 7.434920324221819 0 0 0
244 1 14.244081452337415 12.591288757030645 5.738293957460335 0 0 0
369 1 14.241356644266538 10.854395825111435 7.185763836013832 0 0 0
372 1 14.320106282885703 12.54021122839247 9.0637263520037 0 0 0
466 1 15.904684721383171 10.732903738357523 9.184966563619804 0 0 0
371 1 16.429162675100372 12.443100143348524 7.166744277658307 0 0 0
243 1 16.16690323590538 10.554618750256385 5.587234146125428 0 0 0
498 1 16.139074425245383 14.162194357894643 9.100959732811106 0 0 0
1384 1 2.027836845417934 0.34164737182236204 8.944841994386113 0 1 0
124 1 19.313842111956696 10.718268692275057 5.3712490267284645 0 0 0
375 1 19.517328311447287 10.597903933258292 9.12691262457981 0 0 0
376 1 17.898514515679892 12.279687930194182 9.173776107504233 0 0 0
1302 1 17.992857753190492 12.653161363760496 5.529804511185952 0 0 0
374 1 17.667485709639998 10.71316049758492 7.298487979695577 0 0 0
1175 1 19.436691234590633 12.285520035823426 7.446566922197691 0 0 0
1295 1 14.26119965792528 12.597142001017328 12.422770975459626 0 0 0
379 1 22.907447473798804 10.94018249113486 9.04972043182302 0 0 0
251 1 22.682444422022506 10.538080203391946 5.2467744974841795 0 0 0
380 1 20.954560484217595 12.524785464080738 9.162920473766238 0 0 0
250 1 21.22411529995945 12.163128779754317 5.5995214784551095 0 0 0
377 1 21.045291745431975 10.380638515229522 7.407303589383149 0 0 0
381 1 22.894816141373347 12.489884384802064 7.250024419014092 0 0 0
499 1 15.929036032993443 10.859238903714264 12.3595397853518 0 0 0
1427 1 16.098839696994904 12.488208672047259 11.004693591679352 0 0 0
1180 1 22.986462843732426 14.000696829706259 5.455891394148343 0 0 0
353 1 28.132225596444123 10.732891206832738 7.55309232123762 -1 0 0
346 1 24.28348652140238 10.655037155203328 7.381081767644618 0 0 0
382 1 24.73443718188053 12.300344536762994 5.431969794201377 0 0 0
383 1 26.04025222624115 10.8723647914298 8.858762433125774 0 0 0
378 1 24.35935640788098 12.79187153568556 9.037389753906155 0 0 0
255 1 26.13274613247833 10.49807715651503 5.823377996753805 0 0 0
384 1 26.319187216269185 12.431851882592172 7.143393576351846 0 0 0
1153 1 28.097211365660456 14.132098719338943 3.759457120266524 -1 0 0
490 1 8.740333428377044 12.091361877961095 10.636059437968107 0 0 0
336 1 10.606166342094145 10.665411063276425 10.727681890568189 0 0 0
385 1 1.6580779035108635 2.002369505661235 10.768591535940475 0 0 0
546 1 2.1096768499925505 3.605070287986858 12.207541311513197 0 0 0
386 1 3.8365503017677525 1.763772015323982 12.375544716699245 0 0 0
419 1 3.9900070127211413 3.7087376587569456 10.425432618941853 0 0 0
491 1 8.90202367360867 10.699968359208269 12.689965522961518 0 0 0
421 1 5.73334838958204 2.170321140085483 10.61436581099874 0 0 0
392 1 5.806456174185094 3.4463228688429477 12.648936163693476 0 0 0
396 1 7.320557013038902 1.804935643083852 12.780098407460203 0 0 0
425 1 7.219005348473302 3.8140541117796634 10.790804083642964 0 0 0
514 1 2.158181951013174 2.18361886925567 13.89133761347531 0 0 0
279 1 17.782858104581187 0.23303839155099093 7.115039683001545 0 0 0
269 1 10.76301508830142 0.29018662243128274 7.573757077261212 0 0 0
283 1 23.069809887423794 0.27581946049531236 8.596394603245601 0 0 0
1163 1 8.912227170932757 13.768986218178258 5.529066301394967 0 0 0
397 1 8.811046659912527 2.175728770366525 10.794568818693373 0 0 0
427 1 9.036185792700405 3.6784972748104554 12.59873867345624 0 0 0
429 1 11.021404436987563 3.7694914655017295 10.686560942804123 0 0 0
398 1 10.983556996611718 2.057188919539006 12.358385472384931 0 0 0
496 1 10.577202163926765 12.386012824348239 12.366022684566168 0 0 0
126 1 26.357645331037027 12.16285700256958 0.23781337931370128 0 0 0
401 1 12.740157536739769 1.9047593954281548 10.62171547065147 0 0 0
431 1 12.452577244093069 3.8513173712020996 12.73315332599152 0 0 0
309 1 14.19060448482658 1.9027506710052153 12.147765162412453 0 0 0
433 1 13.97115501152947 3.722545862212485 10.677202759194808 0 0 0
402 1 16.06376502479401 2.2319091891176783 10.79046416074668 0 0 0
440 1 15.893814242006066 3.5476368297786145 12.814166786348007 0 0 0
1159 1 5.316049687767733 13.989089051265584 5.595670926107907 0 0 0
137 1 7.367251613344159 0.1938881129242528 3.749981901191912 0 0 0
530 1 17.747709077261845 1.930701701597165 12.430489921470873 0 0 0
437 1 17.66836202537354 3.8641643673708437 11.03540989150179 0 0 0
444 1 19.533069404371716 3.7157771085447933 12.697448719033083 0 0 0
408 1 19.362002747293793 1.9161238083753631 10.869493640008121 0 0 0
574 1 26.497309243746955 5.403703210517033 14.069525163641195 0 0 0
439 1 21.14699806972166 1.8682023304610316 12.484752932088881 0 0 0
406 1 21.353825571458756 3.752091958058989 11.085787233967277 0 0 0
410 1 22.880314910063845 1.766858518168476 10.830842772971495 0 0 0
443 1 22.964504937969167 3.8865553235253656 12.809024292575273 0 0 0
388 1 28.17710591480114 1.97871955560155 12.412274997533698 -1 0 0
417 1 0.22112581743311738 3.902680344338251 10.832817020501619 0 0 0
416 1 24.542808963160724 2.051596753370365 12.265282051748478 0 0 0
445 1 24.15211915069918 3.8202376244760283 10.838372860936621 0 0 0
414 1 26.609445254538898 1.7800511219528454 10.779119269617137 0 0 0
447 1 26.39870243426912 3.631919808992396 12.325713848100179 0 0 0
1161 1 6.983489487021884 13.806662516028345 3.92609178228395 0 0 0
489 1 7.089581408369532 10.625961371833148 10.951079591990398 0 0 0
450 1 1.8657589102894718 10.645492102597856 12.626661176759018 0 0 0
418 1 2.0742473948018336 5.618238739926481 10.906496261106488 0 0 0
451 1 2.0364885108923305 7.047439148279249 12.766446856351381 0 0 0
456 1 3.4897806382915206 8.877689748795882 12.570880705914778 0 0 0
428 1 3.733265906661183 5.315942849585292 12.601719456376328 0 0 0
453 1 3.9071875621585437 6.983355813845976 10.848583303539613 0 0 0
324 1 1.820525303929802 8.628298023445875 10.724763049085718 0 0 0
449 1 0.2610381898935751 7.031909781826797 10.81786771994143 0 0 0
452 1 0.22169955302843922 8.93367108190633 12.376498088899682 0 0 0
420 1 0.1841202803699592 5.509127503475976 12.49445883325123 0 0 0
485 1 3.5470827811011088 10.623631374547701 10.71060560060761 0 0 0
117 1 17.761411933798215 10.820048646495744 0.31540221374844746 0 0 0
578 1 28.068756998936806 10.872157856092059 10.58722648461551 -1 0 0
422 1 5.393550083440638 5.374686980176865 10.87785887060798 0 0 0
423 1 7.339508477010867 5.6697949179694564 12.609270871425515 0 0 0
457 1 7.127231225008552 7.337066217667995 10.824390909835898 0 0 0
460 1 5.26550463335821 7.128882582497371 12.7856134329365 0 0 0
454 1 5.39966158294069 9.138586555020307 10.956819215488432 0 0 0
617 1 7.054015421248793 8.928130744585715 12.518187643414459 0 0 0
143 1 12.467425702992873 0.24146344572692843 5.302170399251023 0 0 0
1181 1 24.671979957503147 14.132455392124282 3.728516390651639 0 0 0
413 1 24.502251140760578 0.2307524517445742 10.686030989919377 0 0 0
1055 1 26.502613413018892 14.05007085400484 2.336968225986055 0 0 0
432 1 10.98647391777103 5.561743041015665 12.565831603904863 0 0 0
458 1 8.926291558054116 9.109908450550215 10.961029389755712 0 0 0
426 1 8.85457018494782 5.3372477776592975 10.845408406073707 0 0 0
459 1 9.094794036704736 7.305246229798176 12.513215650677724 0 0 0
461 1 10.583591125438533 7.428707852943863 10.828214908639913 0 0 0
464 1 10.773580950327048 9.266385792644627 12.650788613374402 0 0 0
486 1 5.314927303840159 12.401554698040622 10.99042794927378 0 0 0