LAMMPS data file via write_data, version 29 Oct 2020, timestep = 300000

2048 atoms
1 atom types

0.19056990452737566 28.161430095467104 xlo xhi
0.19056990452737566 28.161430095467104 ylo yhi
0.19056990452737566 28.161430095467104 zlo zhi

Masses

1 58.933

Atoms # atomic

8 1 2.003331335408585 3.470145929560639 1.6503408940510453 0 0 0
163 1 1.9394556380582317 1.9773368117931276 3.794568273679342 0 0 0
132 1 3.6501607424972082 3.6293222242557364 3.757047549605623 0 0 0
130 1 3.5481719154161038 2.1062850028592193 2.0433297398628896 0 0 0
1307 1 22.753934284498914 13.894787473727025 8.994193501548121 0 0 0
161 1 28.09207765284291 3.5325800103931306 3.7889283535039 -1 0 0
82 1 16.19298378194504 8.916111347698441 0.2594993148290708 0 0 0
521 1 6.932255097141766 0.23282733250711773 14.070844530056547 0 0 0
12 1 7.0904680338511 1.886085005757757 1.9580475322524582 0 0 0
39 1 5.40074158255626 3.797907548064438 2.028690104683818 0 0 0
134 1 5.263689259712489 1.789291562956793 3.6816421640033345 0 0 0
166 1 7.046529277932569 3.7816097173665875 3.95858593359957 0 0 0
512 1 24.6639901231427 12.315476546791443 12.539862389038797 0 0 0
511 1 26.28170966149201 10.4811987446857 12.664639159458295 0 0 0
169 1 8.968814268615684 2.08641187172152 3.857070801445283 0 0 0
41 1 8.985038381021095 3.6201628007705793 2.058832458235141 0 0 0
173 1 10.693053104774735 3.7145166804428307 3.8734438424690527 0 0 0
15 1 10.703757657367671 1.9005111266509502 1.71416899867759 0 0 0
510 1 26.376129821738047 12.59984715619759 10.823377977078222 0 0 0
1 1 28.072916178348443 0.19660896004334916 0.25698460949667795 -1 0 0
58 1 22.82989075260878 5.487780691249134 0.3405798322616088 0 0 0
142 1 12.295966895213205 2.0279549925214373 3.92489150791773 0 0 0
49 1 12.37033219746564 3.6556256121630204 2.1440873678798833 0 0 0
20 1 14.337430956220592 2.0544426554558637 2.1543963390639496 0 0 0
146 1 14.228057580575816 3.6419272010949544 3.802506533723125 0 0 0
51 1 16.16868428889616 3.9514244635015436 1.7926639338134778 0 0 0
151 1 16.224862606135705 1.883424160276587 3.7783250915875053 0 0 0
509 1 24.66984733990313 10.582142742989815 10.600141549832742 0 0 0
81 1 14.322582379953403 6.978058316073442 0.45844434655770555 0 0 0
181 1 17.71685832104085 3.3207096653760093 3.7613987582010404 0 0 0
19 1 17.89233839797536 1.8852189185904213 2.0773098442183473 0 0 0
1398 1 19.50240305482611 1.996860534073476 3.842279842557831 0 1 0
150 1 19.407450862431485 3.8334415045717734 2.0141670966268785 0 0 0
93 1 24.6540628536017 7.33125947698811 0.21409881540996334 0 0 0
1285 1 3.733587377968236 14.020942204210332 7.4755986230433615 0 0 0
154 1 22.939789289992945 2.111812341926787 3.9635373680582573 0 0 0
185 1 21.057192692157937 3.552608741610309 3.866870687390645 0 0 0
22 1 21.14628131679376 2.1508906382780015 2.0572779378772736 0 0 0
59 1 22.854919673121078 3.882359307608722 2.123927015819399 0 0 0
986 1 26.415144429920073 8.696932428439322 0.21812102359731583 0 0 1
988 1 21.18510733423672 7.4185159873046205 0.48297206576193935 0 0 1
1165 1 10.793123577952382 14.012016597842996 3.719826456287149 0 0 0
37 1 3.8756227975364577 3.6671562540996265 0.2616514266330857 0 0 0
4 1 28.037708066020702 1.9058074681285753 1.8430305314145108 -1 0 0
32 1 24.361780893496327 2.0932474797752905 1.8504022213612614 0 0 0
223 1 24.734065007247658 3.529362696637653 3.7598212391776973 0 0 0
189 1 26.405111461269335 1.6891824277146783 3.7754029345942097 0 0 0
33 1 26.269348368753572 3.573661644618774 2.040576841512766 -1 0 0
65 1 0.32260976063208846 7.317450536665165 0.2790997346628401 0 0 0
507 1 22.776516116895653 10.704403316322788 12.589217101773317 0 0 0
162 1 1.9796625730365207 5.4082127349867735 3.6186137299104737 0 0 0
40 1 3.602101577371747 5.461249445649517 2.1960006017210207 0 0 0
67 1 1.9746423212837876 7.3796909732938385 2.0034359923390315 0 0 0
194 1 1.899016569393994 8.937123118672195 3.9973345423934123 0 0 0
72 1 3.6536347928919137 9.020471242188211 1.9662182586838695 0 0 0
197 1 3.6063533876567813 7.253417427347665 3.5481267563604173 0 0 0
68 1 28.049349142874345 7.069777424009897 3.792084941045468 -1 0 0
36 1 28.06590903522922 5.443711805999198 1.9581901800735642 -1 0 0
27 1 22.804268739133622 0.2909270762777843 2.2384399389339023 0 0 0
283 1 22.722850888243496 0.39643558915244637 9.11713935454304 0 0 0
120 1 19.5687959232427 12.3441307671515 0.41167867246379863 0 0 0
307 1 19.286348317556012 0.21131049571443922 12.458722830269267 0 0 0
1041 1 15.900921502831217 14.016349154554783 1.9050479589905642 0 0 0
165 1 5.5127017351752405 5.582260058100374 3.6839893489478945 0 0 0
44 1 7.289072024812729 5.272704850868475 2.0615138109062148 0 0 0
71 1 5.53378979090827 7.000216842894212 2.0150824060533514 0 0 0
201 1 7.371877278182002 6.999643710079369 3.6975126026376914 0 0 0
76 1 7.590591489976857 8.779469858200411 1.8866425425213378 0 0 0
198 1 5.449813500313144 8.862916276126727 3.7417908124357786 0 0 0
97 1 0.22338483535481757 10.771122756533234 0.19086301941331 0 0 0
202 1 9.168582101664994 9.006621731609155 3.666704089165974 0 0 0
47 1 10.573951291889234 5.258073795873118 1.9621698952259405 0 0 0
48 1 9.023368894354967 7.079703800007778 1.8993918154989333 0 0 0
170 1 9.215287618161046 5.709213718924186 3.77010679888472 0 0 0
205 1 10.629754688918771 7.216369105599021 3.5802747227271148 0 0 0
80 1 10.719600240910854 8.932197858999244 1.7677693540166513 0 0 0
175 1 14.355018801822768 0.25476502971312115 3.543948603689605 0 0 0
1542 1 3.8017059183544353 13.932859565583946 14.049873910195352 0 0 0
1258 1 10.537127553188435 0.22222846666043994 3.5975575502906576 0 1 0
174 1 12.393624474712231 5.465821036940712 3.7833147550864146 0 0 0
206 1 12.479710603756004 7.126352063161411 2.012954525395301 0 0 0
237 1 12.550375325716212 9.07510177131789 3.6442863525084013 0 0 0
178 1 14.333943198849408 5.2726354168377 2.0450230616902774 0 0 0
209 1 14.301673506979407 7.134906679399897 3.633054348854783 0 0 0
241 1 14.374408817698496 8.939321144900994 1.7586707637606311 0 0 0
210 1 15.886673735554401 9.097464196304966 3.792702380532014 0 0 0
83 1 15.950585887970895 7.109902693100182 2.1446404321337447 0 0 0
213 1 16.124260856100307 5.221710353264235 3.849460935772986 0 0 0
1514 1 10.331388965820466 0.22308850266733218 10.669077578262158 0 1 0
1434 1 21.162484973962666 14.06328449402066 10.85683507694478 0 0 0
182 1 19.447571652646786 5.232902955030144 3.7326502061421203 0 0 0
87 1 17.767530929524373 5.63046029198789 1.9474831646392263 0 0 0
54 1 17.460553332504222 7.0960504548132715 3.663212194296862 0 0 0
249 1 19.57589435948131 7.356540596601716 2.2557057208621747 0 0 0
373 1 19.333333551142783 9.051516589827472 3.7731023973954123 0 0 0
88 1 17.65196114916514 9.162429677584214 2.0210952770830746 0 0 0
1179 1 20.962147476101016 14.043401262473296 7.102040378120413 0 0 0
60 1 21.317628986066623 5.577588158591169 2.3477342220442488 0 0 0
186 1 22.960012278389687 5.563401172369542 3.738530205588859 0 0 0
91 1 23.093522029762283 7.376524190753962 2.1866989675957575 0 0 0
217 1 21.22842408591223 7.241888010145182 3.8219795396963843 0 0 0
92 1 21.323953047431488 9.025058574988172 2.0446406517253566 0 0 0
218 1 22.935134738298064 8.790604751680412 3.8969409434724946 0 0 0
149 1 17.618441580000052 0.26452477134307273 3.6549233348878367 0 0 0
95 1 27.981445418219923 9.034705230267333 1.8779561896164163 0 0 0
64 1 24.535056502391644 5.438025411786 2.0063101688112717 0 0 0
190 1 26.288532532405313 5.394526999855726 3.6408224030205196 0 0 0
123 1 24.797380552218026 9.288444158809641 2.0173352235472946 0 0 0
224 1 24.63101221934302 7.172492152973219 3.9542229592187845 0 0 0
221 1 26.2187101060805 7.082504580861274 1.9854268958282002 0 0 0
96 1 26.191190523861014 8.900788726945057 3.7529853668651554 0 0 0
18 1 16.192284856400384 2.0404915965514094 0.6072523922384688 0 0 0
99 1 2.0567303442562226 10.781140321936407 1.9590930777522637 0 0 0
226 1 2.006280193404141 12.114960247138182 3.7317962715847206 0 0 0
1000 1 3.815201960384653 12.497930586324228 1.8079233780598734 0 0 1
104 1 3.7914509972231385 10.788243663028295 3.671876181837388 0 0 0
100 1 0.4670211141461529 12.579572056565185 2.1154139366512266 0 0 0
225 1 0.31222099259402825 10.38081149395059 3.565877802909673 0 0 0
508 1 20.93906151302063 12.636530882617908 12.63481206634302 0 0 0
407 1 21.31878279193405 0.43172726267895856 14.106521583203286 0 0 0
103 1 5.646534330775871 10.511492176490641 1.9518458517753794 0 0 0
108 1 7.372620528505852 12.492870695045692 1.848021748996722 0 0 0
230 1 5.676933394411111 12.251798547988836 3.572261879124613 0 0 0
233 1 7.18523119370859 10.400197361913552 3.5498949261909467 0 0 0
505 1 22.955263506572958 12.197569885135175 10.84012732793418 0 0 0
35 1 27.957115424673095 3.579924929223985 0.38238090451502615 -1 0 0
234 1 8.927269195095334 12.220454811766842 3.7731497610485936 0 0 0
107 1 9.074685812771325 10.6479979051094 1.858982126764343 0 0 0
112 1 10.682495306745597 10.691105196293753 3.6778449604914027 0 0 0
111 1 10.833613508779111 12.24377970578913 1.8162084321155358 0 0 0
28 1 21.41549065145773 0.40612097845338435 3.82726562535545 0 0 0
1283 1 1.9491536498418875 14.152484223295428 8.969565811377485 0 0 0
38 1 5.423428997272027 5.412357479791081 0.26689292456461833 0 0 0
238 1 12.479064536403886 12.481535190625147 3.7776433333909574 0 0 0
113 1 12.55068893579873 10.447039567288778 1.6801370081194735 0 0 0
116 1 14.250419055966262 12.336244464072323 1.746329129945895 0 0 0
1043 1 14.258179772103338 10.808785326336393 3.492429461090537 0 0 0
79 1 16.061689605853246 10.77471165832897 1.9119816440481758 0 0 0
248 1 15.970543516256653 12.393191587394702 3.507880938387039 0 0 0
1051 1 22.91930740720738 13.995409769832486 1.9160376316303165 0 0 0
46 1 14.52859556603488 10.587377196698313 0.2724078009214488 0 0 0
84 1 17.835505457592447 12.347779758842108 2.165804671589182 0 0 0
245 1 17.608220927525903 10.694173265393829 4.132906762292938 0 0 0
246 1 19.534164330872144 12.330241861739797 3.957598616687354 0 0 0
119 1 19.7262842630466 10.696795006586637 1.8273996859841064 0 0 0
1177 1 21.12560980302455 14.08664985005295 3.8398705194079232 0 0 0
1409 1 0.33062232368819844 14.164287860846303 10.923560677407023 0 0 0
1266 1 12.49211708530504 0.5217940588512402 2.0409338492168727 0 1 0
69 1 3.8212060035059454 7.302297101377069 0.2968000814331035 0 0 0
1171 1 19.449251064995767 13.940282441981227 2.0731409521881385 0 0 0
1173 1 21.316629797486932 12.626282028580944 2.0780092688259955 0 0 0
256 1 23.069398460564667 12.688179248631451 3.5946196947993405 0 0 0
1047 1 22.960197912159604 10.90124902999691 1.9756269867227745 0 0 0
118 1 21.325625562578807 10.826157983186242 3.746250583125686 0 0 0
1161 1 7.447710604507351 14.069389860478843 3.713128665888925 0 0 0
1423 1 12.48113077337924 14.093063479909869 12.702714294074841 0 0 0
271 1 12.176575656699589 0.43280374308670555 9.148898029469585 0 0 0
128 1 24.924482802681723 12.477518887819242 1.937740759544644 0 0 0
253 1 24.315005864358213 10.681890818305606 3.791447472320986 0 0 0
127 1 26.626427031951543 10.799803660877936 2.002083634870818 0 0 0
254 1 26.170399618790125 12.216670822758278 3.619775715340059 0 0 0
344 1 20.879757389357515 10.30091495887203 11.015255630315231 0 0 0
1384 1 1.6730740903820733 0.3364189356067726 9.019241657569772 0 1 0
1287 1 5.35859085720482 13.993882671439128 9.160908863464336 0 0 0
141 1 9.060276267784456 0.19483281771042182 1.977132343870823 0 0 0
561 1 13.96597812387369 3.5295004644253978 14.126937694892238 0 0 0
164 1 2.0866632475738545 3.7331748282436155 5.411984520765065 0 0 0
258 1 1.7460014306157554 1.9437907361953586 7.1269690310029725 0 0 0
291 1 1.810465039452086 3.5781467002448557 8.910909394736388 0 0 0
133 1 3.6309269229821663 1.7337489765667757 5.400018279937836 0 0 0
294 1 3.4871521900671456 3.848326659510195 7.208557794398387 0 0 0
264 1 3.4706537190578928 1.9636338638970576 9.282160100042026 0 0 0
159 1 0.28710692466710164 1.7619201295344706 5.480392979565383 1 0 0
1289 1 7.18396384122105 14.139588300474333 7.221547455041655 0 0 0
126 1 26.583301652643406 12.563052928863575 0.5290951629791246 0 0 0
503 1 19.173456856617218 10.662664181150229 12.754205875920716 0 0 0
140 1 7.253510110542259 1.9557099145835797 5.376499614222252 0 0 0
167 1 5.210055654023301 3.735174548075302 5.473562756364226 0 0 0
262 1 5.622412374372494 1.7333808989641482 7.122731749260608 0 0 0
297 1 7.205062046797874 3.5530980100947716 7.119567817521387 0 0 0
295 1 5.404245934767083 3.746826483846075 8.60907912164189 0 0 0
268 1 7.046910921163522 1.9773129963108225 9.065550229104158 0 0 0
114 1 16.236176796817315 12.315683586580674 0.2965344288089054 0 0 0
502 1 17.463683434603393 10.64257719669114 10.991100948510281 0 0 0
138 1 8.790684744387482 3.96234748202961 5.406434735495528 0 0 0
144 1 10.721412651308572 1.9717597598406162 5.349329022209216 0 0 0
266 1 8.956855518937372 2.0556223257048267 7.105832078328803 0 0 0
301 1 10.63702633381948 3.601086165826341 7.07321924293738 0 0 0
299 1 8.6701605274493 3.655882358710631 9.140406011996335 0 0 0
272 1 10.322103264617525 2.0296932626139546 9.001528071495343 0 0 0
415 1 26.529737286704346 0.24852484684937293 12.498792081354415 0 0 0
504 1 17.67842660275575 12.418251046012912 12.648734459137382 0 0 0
287 1 28.005975915314966 0.4004121493793109 10.775141681177322 0 0 0
1433 1 19.618164457752073 12.242183564614452 10.88440800853326 0 0 0
270 1 12.616742544602083 1.6449476590795566 7.224912517649918 0 0 0
303 1 12.131523978230092 3.1891294662183127 9.00286154804079 0 0 0
177 1 12.482892055204125 3.6434227145350198 5.729406427802041 0 0 0
148 1 13.99366257704089 2.0084365781097313 5.453721940586195 0 0 0
305 1 13.955073519564195 3.6264743500080865 7.358098045753853 0 0 0
276 1 13.95924484877357 1.84554363912185 9.228809461969739 0 0 0
274 1 15.660022944809997 3.5808918445363247 9.013669755881127 0 0 0
277 1 15.837057429352093 2.02006790050459 7.413854886659854 0 0 0
179 1 15.853717968524835 3.4599344416895312 5.52289697468831 0 0 0
26 1 22.71638584520192 1.975668243697753 0.4073256646605355 0 0 0
62 1 26.262163770386433 5.3132441272113455 0.253560564592924 0 0 0
280 1 17.71232692112296 1.8204883946468733 5.683282410259352 0 0 0
282 1 19.459453556209215 3.724234270251328 5.634526162782284 0 0 0
183 1 17.57154818648094 3.5849574727588003 7.248691290715067 0 0 0
278 1 19.26830987291028 1.9534312674953012 7.579333751539722 0 0 0
1526 1 17.464808899889917 1.9169155554255968 8.905218716898835 0 1 0
311 1 19.550766384799324 3.7905953661797414 8.965284654312978 0 0 0
1049 1 21.2880401237722 13.949904547161132 0.23493622661110425 0 0 0
1557 1 17.639310409949076 14.1518594295239 14.109133935886023 0 0 0
153 1 22.767832361843972 0.21755597693997394 5.7168380493329165 0 0 0
156 1 21.347037894146688 2.012012768947716 5.707089058824728 0 0 0
192 1 23.226453493015924 3.63152559977513 5.672436952933511 0 0 0
281 1 22.94108344779839 1.7898489604895578 7.387135964853288 0 0 0
313 1 21.309805795827476 4.0283038567673985 7.280268323236793 0 0 0
284 1 21.081950826753555 2.242747058981783 9.093951003539223 0 0 0
315 1 23.004755288755486 3.5843126030579175 9.211078250603103 0 0 0
269 1 10.478260396570542 0.22867960457509895 7.4675003367057835 0 0 0
43 1 8.933860711472859 2.2215725541028735 0.2670960924732899 0 0 0
259 1 0.3235756288754139 2.0034415025029384 9.120035940576093 0 0 0
289 1 0.24107400500019338 4.0077648765647105 7.038742595533412 0 0 0
317 1 24.773750807945206 3.6945505996713908 7.469509594704093 0 0 0
160 1 24.737035560207982 1.7594443286898849 5.596194787326837 0 0 0
288 1 24.67088657596879 1.9787757404306476 9.075908872047094 0 0 0
191 1 26.20470067586013 3.733364007309412 5.444876898211755 0 0 0
158 1 26.548606128499106 1.8628171126497912 7.223939847016025 0 0 0
319 1 26.68095103137037 3.758158772380662 8.970733524479611 0 0 0
11 1 7.264052827184836 0.2911630602513759 0.35446801729915284 0 0 0
195 1 1.836939942737819 7.112816009959536 5.479496735264178 0 0 0
293 1 1.7531512891005339 5.898696862671761 7.2561369986447595 0 0 0
227 1 1.7211862295810245 9.254169793777846 7.408072920084821 0 0 0
296 1 3.645803783038742 5.527433812396689 9.101278387843962 0 0 0
290 1 3.7218107551428097 7.2055705178900515 7.106530407322255 0 0 0
168 1 3.728546127573102 5.5445732264893515 5.442526953594109 0 0 0
200 1 3.552456052298856 8.946762935697222 5.733892655740248 0 0 0
328 1 3.7731329271355607 8.953093885519545 8.879451168554446 0 0 0
323 1 1.9874335699672911 7.27349749699641 9.036266475115701 0 0 0
321 1 28.070542387345352 5.562477267561553 5.201621638265484 -1 0 0
322 1 28.130412411250024 9.23349770239052 9.141487151049153 -1 0 0
325 1 0.24950814955840173 7.517242699044678 6.990590552809352 0 0 0
196 1 28.060424962296533 9.040541525675017 5.521810865081185 -1 0 0
171 1 7.169581020090436 5.718971248746297 5.525033218153905 0 0 0
172 1 5.450721369057452 5.517129113154494 7.098927413344785 0 0 0
204 1 7.169308201401126 8.958788435013926 5.4427132989097595 0 0 0
199 1 5.519642094668256 7.323874191417216 5.569888488835965 0 0 0
329 1 7.215797965972149 7.406957898918211 7.4025253471086945 0 0 0
326 1 5.549767027730219 8.956783457346285 7.3684054738384 0 0 0
332 1 7.336874791189137 9.252729810584992 9.17228721758666 0 0 0
327 1 5.193090435006443 7.309152825715379 8.914962895560922 0 0 0
300 1 7.165626734324228 5.489668055622028 8.981165849016227 0 0 0
208 1 10.721301482654818 8.993212396815984 5.445787360500469 0 0 0
203 1 8.74894270273319 7.323251127881582 5.566609658195775 0 0 0
298 1 8.993786574229778 5.484556086032272 7.300505057234363 0 0 0
176 1 10.713494891204993 5.395041320680327 5.628260421083326 0 0 0
333 1 10.61176762937239 7.089921327490582 7.207771443196935 0 0 0
367 1 10.712304875998331 9.207112977437099 9.013097197560622 0 0 0
330 1 9.035563509784803 8.848918669881874 7.173557623473124 0 0 0
304 1 10.627795445432232 5.268442236878108 8.912955271589007 0 0 0
331 1 9.210263388127702 7.238578816972027 8.912255306682379 0 0 0
335 1 12.570445197630985 7.193219206494786 8.89032284245163 0 0 0
334 1 12.434492624995524 8.888209970629736 7.184805451117547 0 0 0
302 1 12.208096693983752 5.333139479887483 7.212425872459682 0 0 0
207 1 12.201001095129362 7.221525776850993 5.46036290440653 0 0 0
212 1 14.23094819435736 8.77388699620629 5.397267001636555 0 0 0
180 1 14.128240020913339 5.303025363372673 5.466586909511637 0 0 0
211 1 14.033597476791236 7.09811165611708 7.165641405115593 0 0 0
340 1 14.253929638423863 8.920916299678987 9.205486286301271 0 0 0
308 1 14.012472247853456 5.071992007317502 9.174453763655752 0 0 0
339 1 15.564853390286093 7.036287107980051 8.962548729332047 0 0 0
306 1 15.726685373969808 5.21888314324363 7.20783733617894 0 0 0
216 1 16.052619397654624 7.031745973264478 5.555737498162596 0 0 0
337 1 15.911661647238159 8.998312670578194 7.262150902451242 0 0 0
184 1 17.798449746409638 5.216756161712242 5.561096117854962 0 0 0
341 1 17.468479195155926 8.922620675632635 5.423416598551516 0 0 0
310 1 19.359638069909057 5.429994158127663 7.25279662200379 0 0 0
214 1 19.255513100491545 7.093670658210887 5.4338448054383415 0 0 0
343 1 17.55303298289653 6.955516993627734 7.462765514851714 0 0 0
342 1 19.203519675850973 8.777932860908331 7.456400898051375 0 0 0
338 1 17.28134888715502 9.001393585611828 9.309479195961485 0 0 0
312 1 17.555627334504948 5.161452669932462 9.026799762913077 0 0 0
316 1 19.094727759241973 7.112282586080151 9.338975852022486 0 0 0
441 1 21.123546998810053 5.533621900251615 8.882011607756855 0 0 0
187 1 21.119025016799597 5.484245943441498 5.326616383589375 0 0 0
314 1 22.969353628444004 5.406844835699052 7.522925612222014 0 0 0
215 1 22.888904925120812 7.011584792847281 5.723944302761051 0 0 0
345 1 20.800219392971254 7.256717510324382 7.296439906984682 0 0 0
347 1 22.456398675170817 7.340426813756291 9.184385720536037 0 0 0
247 1 22.531464027541617 8.714602380115673 7.285505308754247 0 0 0
348 1 20.732062842051466 9.185125196849425 9.183398063914288 0 0 0
220 1 21.034051521418547 8.783384502493728 5.5970090149459315 0 0 0
292 1 0.2437498397314073 5.686079376164041 8.940970422203407 0 0 0
349 1 24.74825702037608 7.296493802489905 7.234003969332592 0 0 0
350 1 24.602755873757417 5.426440566994839 5.73330402981798 0 0 0
222 1 24.64611161783721 8.905657218061654 5.448169266118774 0 0 0
318 1 26.449288127800504 5.715374624802837 7.24185996131902 0 0 0
320 1 24.705579645170204 5.5005605200272765 9.028165428384515 0 0 0
193 1 26.31072086963382 7.244141024205081 5.450896292754382 -1 0 0
219 1 26.29247199109233 8.93088092355892 7.144380855414106 0 0 0
352 1 24.470792741999286 8.899403125262662 8.81852735675117 0 0 0
351 1 26.46392543013822 7.280758255963283 8.853053090180621 0 0 0
229 1 1.8709381370664477 10.806327898591414 5.612074200128185 0 0 0
354 1 2.0871748220805713 12.216342099952996 7.5366259497757 0 0 0
357 1 3.811296763261093 10.594771801646715 7.260716484346905 0 0 0
232 1 3.8864453986733083 12.427311756045647 5.649798807855434 0 0 0
355 1 2.099028572809245 10.605058349847722 9.043279369413781 0 0 0
360 1 3.705211866778946 12.497640450984344 9.178293913274924 0 0 0
356 1 0.24109387830153467 12.435279176637902 9.211299540195471 0 0 0
1291 1 8.978296589950412 14.021994262507718 8.794825415083709 0 0 0
499 1 16.05987771785036 11.148709019164507 12.705153136659735 0 0 0
3 1 1.912570710315604 0.3111507759753887 1.9195222618444794 0 0 0
231 1 5.298465418588554 10.591928091393479 5.6869234352441955 0 0 0
236 1 7.2705108505431655 12.441705600148824 5.3824340186839805 0 0 0
358 1 5.625990796224052 12.538737134876932 7.23814826559701 0 0 0
361 1 7.340322060686988 10.550252127232781 7.039261777124068 0 0 0
364 1 7.120882845076276 12.651644925735768 8.943182358902767 0 0 0
359 1 5.606559979539823 10.78372442670989 8.85432911339084 0 0 0
625 1 14.078382674640565 10.631441017832513 10.90725645789527 0 0 0
235 1 9.09725806211947 10.685810090781407 5.31651625560813 0 0 0
240 1 10.900487856715511 12.450610467984282 5.4466871530337695 0 0 0
362 1 8.867859787781198 12.392556360714654 7.032531378318116 0 0 0
365 1 10.804785212784223 10.585989252151744 7.234355142043964 0 0 0
363 1 9.115364975503073 10.713439917018494 9.118086988548145 0 0 0
368 1 10.977163213207366 12.47021269325429 8.77048352967094 0 0 0
1431 1 19.423912798183785 14.092753036960422 12.431115532797703 0 0 0
622 1 12.325221653449074 10.473427136735735 12.771349678008768 0 0 0
1295 1 13.951928905246834 12.128220860996521 12.565972157698482 0 0 0
497 1 12.54953517739671 10.662047983112759 8.987863487521176 0 0 0
261 1 3.6706778219783227 0.5500677972543582 7.3936835422646805 0 0 0
366 1 12.587639142598519 12.376784037368218 7.1719744230639755 0 0 0
239 1 12.514768494876147 10.76984905784339 5.395643423556052 0 0 0
244 1 14.278977034582896 12.474335097229444 5.289832128374026 0 0 0
369 1 14.215140354898507 10.57731768537051 7.2255123401030055 0 0 0
372 1 13.96622524117513 12.539587052732966 9.127471641200826 0 0 0
243 1 15.771070349154291 10.665040558425623 5.4345589222428865 0 0 0
466 1 15.756745764660037 10.864456553857293 9.207468860846637 0 0 0
371 1 15.78427735103325 12.455045399398786 7.1590547067002674 0 0 0
1427 1 15.799850440190573 12.516271317984899 10.92290647562122 0 0 0
493 1 12.290118164676734 12.362013123127142 10.959774126693947 0 0 0
1155 1 1.9813175261311082 13.986614611530399 5.4836769575586555 0 0 0
375 1 18.956323291655817 10.709483818420042 9.26706479888695 0 0 0
124 1 19.387194978203116 10.57493562647706 5.62005410255729 0 0 0
376 1 17.41468892597908 12.55682294288587 8.881432640402066 0 0 0
1302 1 17.614626127532095 12.777128183873291 5.292593960907005 0 0 0
374 1 17.713424666411644 10.657689864501608 7.27948245469929 0 0 0
1175 1 19.113769275094366 12.498667380455757 7.0049850443421136 0 0 0
1159 1 5.643077856495757 13.993390073914151 5.010960625346586 0 0 0
1281 1 0.2541287925030078 13.91216811032938 7.266583361492555 0 0 0
122 1 23.459271272083114 12.533217673620255 0.26242458398530144 0 0 0
379 1 22.988340203758707 10.545182363691799 9.005765305021384 0 0 0
251 1 22.89046739397575 10.583420056913521 5.595096845035313 0 0 0
380 1 21.117466695511144 12.047349098684736 8.932067372977613 0 0 0
250 1 21.12887097003292 12.327385035795293 5.495260946656606 0 0 0
377 1 20.99893172402726 10.68067498558938 7.0088395810247475 0 0 0
381 1 23.07186785003141 12.394758961103014 7.283620643902127 0 0 0
1297 1 14.16714823653016 14.16789093816633 7.238073800351512 0 0 0
94 1 24.777584423404548 10.678890833830895 0.33849476596753586 0 0 0
1153 1 0.651081053459253 14.14995884979555 3.737843829299623 0 0 0
228 1 28.08226023784858 11.990808600579268 5.209732808066767 -1 0 0
353 1 28.011624461527894 10.745534973194474 7.123366968589078 -1 0 0
346 1 24.58243939972612 10.486291757868806 7.402513569326897 0 0 0
382 1 24.470606567610364 12.519111059562022 5.422719231293494 0 0 0
378 1 24.76256150397151 12.490027919856265 9.150463375770764 0 0 0
383 1 26.487990807425067 10.700762091654287 9.075250102811626 0 0 0
255 1 26.208307336194775 10.569317795174761 5.263073627043982 0 0 0
384 1 26.21952920252827 12.44900936214959 6.974994190090373 0 0 0
1035 1 9.149534006738483 14.15187811979608 1.6981107086464713 0 0 0
385 1 1.9163029895044663 1.6713236223848786 10.79519238699593 0 0 0
546 1 1.8109918222503398 3.628866042537171 12.48974034839702 0 0 0
419 1 3.812608647994561 3.780020968642418 10.743341650387359 0 0 0
386 1 3.658590980617987 2.133937883661722 12.33369535802429 0 0 0
388 1 0.21964586259226593 1.845601872078575 12.6145861155477 0 0 0
389 1 3.595829608257849 0.37329440949723547 10.907688279510557 0 0 0
421 1 5.436117969414405 1.7142430128366297 10.700982803833607 0 0 0
392 1 5.523786438303896 3.8691580974593003 12.693290364587702 0 0 0
396 1 6.89476334521057 1.9606636264274004 12.548410016669365 0 0 0
425 1 6.5040450372882 3.847279025369684 10.586514016889877 0 0 0
1163 1 8.956327421426295 14.11832616166104 5.4925754907536755 0 0 0
397 1 8.510530791190591 1.9130632052712688 10.736387058805992 0 0 0
427 1 8.626345953820843 3.7642357261864037 12.385409074838195 0 0 0
429 1 10.350024070046596 3.6294161632854727 10.667681544325298 0 0 0
398 1 10.45203529609832 1.73280535667776 12.627980393788366 0 0 0
89 1 19.489655406553233 5.5809585713661445 0.3842501101257603 0 0 0
336 1 10.754069953880279 10.493909789722132 10.770108877970255 0 0 0
431 1 12.176679443189117 3.752434751118168 12.664934963521702 0 0 0
401 1 12.053959998789107 1.8466362774078937 11.09209624999013 0 0 0
309 1 14.153197155614519 1.9598458591084917 12.433118456181205 0 0 0
433 1 14.172684731060704 3.4654137792787263 10.847321108602904 0 0 0
440 1 15.760648091442057 3.8782881607537187 12.518413939121913 0 0 0
402 1 15.933464153932382 1.8055287662032096 10.964235036413463 0 0 0
496 1 10.684633693109845 12.420325233463922 12.750598445781181 0 0 0
530 1 17.586663144214448 2.0091470694600613 12.711749263339915 0 0 0
437 1 17.500402570936185 3.4106853888268907 10.592410703429852 0 0 0
444 1 19.428890310193935 3.626335881225731 12.465452993372573 0 0 0
408 1 19.34966650246103 1.676939838124592 10.796116704501244 0 0 0
490 1 8.678167298754067 12.442467250362684 10.577832144289024 0 0 0
439 1 21.278659285948144 2.1474763310887166 12.677580966989032 0 0 0
406 1 20.913898196969402 3.7613014633436963 10.938037051616172 0 0 0
410 1 22.61855915871818 1.8982353121678042 10.86971495131938 0 0 0
443 1 22.947288536288134 4.013654106517299 12.456233664846817 0 0 0
491 1 8.977020534680781 10.581497811847147 12.408310194693312 0 0 0
17 1 14.48023769513981 0.28917131180853045 0.32872845539341145 0 0 0
417 1 0.29697990055616685 3.637972860569238 10.716251990511063 0 0 0
445 1 24.701922120797036 3.7991124300528623 10.700607715580157 0 0 0
416 1 24.46683993412769 1.883577308668179 12.348695882868268 0 0 0
414 1 26.46060416090315 2.2559311772536166 10.722371728008763 0 0 0
447 1 26.52530689761555 3.919243990720833 12.369180524597146 0 0 0
449 1 0.26316446821385575 7.559877953122507 10.793742300116126 0 0 0
418 1 1.7474905589434298 5.4322215208701135 10.736866993325169 0 0 0
451 1 1.7144007647149178 7.097590561968581 12.603400938760176 0 0 0
453 1 3.2461995109814397 7.428127156371205 10.783666526972086 0 0 0
324 1 1.9708317802939759 9.112142245650713 10.727019050699969 0 0 0
456 1 3.5504353095077703 9.173706267819343 12.62058251570749 0 0 0
428 1 3.6585999906474265 5.552790309067697 12.438497131382904 0 0 0
420 1 0.21121025877003266 5.600710797071919 12.422037151999541 0 0 0
452 1 28.136700962804387 9.086674805043078 12.502834746806554 -1 0 0
487 1 5.4619033427662504 10.387337832261984 12.401169277154354 0 0 0
486 1 5.404086632027643 12.324267860104497 10.839916115616505 0 0 0
423 1 7.022848228640524 5.633831818893737 12.394317878868893 0 0 0
422 1 5.252268136942488 5.970817252435266 10.823765042619875 0 0 0
457 1 7.245655670306259 7.117451886457049 10.381336315895435 0 0 0
460 1 5.062605939643276 7.416097276551542 12.673491027230803 0 0 0
454 1 5.530005694716509 8.84233648576915 10.452571923224225 0 0 0
617 1 7.164049807713148 8.66712835362954 12.178875847370493 0 0 0
618 1 7.002310566731056 12.411522456702558 12.494572825474775 0 0 0
464 1 10.657046552741704 9.065779102678336 12.493540066399968 0 0 0
432 1 10.789927653873317 5.465311106624237 12.299033978273354 0 0 0
458 1 9.104231143536438 8.613110774998358 10.824060408531901 0 0 0
426 1 8.858763383760474 5.457432235333135 10.810738048260587 0 0 0
459 1 8.988660307506255 7.33338745691628 12.50411880435082 0 0 0
461 1 10.817900484503875 6.936145905620471 10.685228170136941 0 0 0
463 1 12.466998766745567 7.075161029769021 12.736844032674071 0 0 0
489 1 7.358996267299238 10.680977929583955 10.684668546323095 0 0 0
430 1 12.329911789462535 5.133213403586033 10.696192157613906 0 0 0
462 1 12.356735662894824 8.846326281496777 10.85524584966793 0 0 0
465 1 13.957739690625464 7.023134463739223 10.787997610625776 0 0 0
495 1 14.062303777136295 8.953479053113043 12.679747419841648 0 0 0
435 1 13.783556482776936 5.216162143804559 12.433025484379014 0 0 0