LAMMPS data file via write_data, version 29 Oct 2020, timestep = 300000

2048 atoms
1 atom types

0.22071183292460894 28.131288167069776 xlo xhi
0.22071183292460894 28.131288167069776 ylo yhi
0.22071183292460894 28.131288167069776 zlo zhi

Masses

1 58.933

Atoms # atomic

8 1 1.8069414619228323 4.061130547692647 1.9146307709625368 0 0 0
163 1 2.016617835152415 2.2251601599146693 3.855470932827213 0 0 0
132 1 3.7263015465001823 3.827348577598495 3.874034474594435 0 0 0
130 1 3.733229217207552 2.1952967435581376 2.0987915012029905 0 0 0
161 1 28.065822424436448 3.7283377913919487 3.8304121600890833 -1 0 0
577 1 0.275580511278066 7.193229174318543 14.065218128536564 0 0 0
12 1 7.1352681490228385 2.0339099180316396 1.9477540465125462 0 0 0
39 1 5.43540336244117 3.759666195141606 2.102436849747151 0 0 0
134 1 5.513547811573702 1.884491736537362 4.064452127212684 0 0 0
166 1 7.024630795109281 3.8099317700403224 3.8968892659476437 0 0 0
1258 1 10.486884009810643 0.28876993991774674 3.5207287928408593 0 1 0
506 1 22.903255913014128 13.89589188087911 12.543652516424736 0 0 0
1561 1 21.11993726711544 14.076392349960207 14.045622619143545 0 0 0
169 1 8.927859367329576 2.294822876127279 3.8534948257230273 0 0 0
41 1 8.808862149250029 3.6822632079321753 2.0314145774253176 0 0 0
173 1 10.823160559137873 3.6750389619868895 3.786529073714941 0 0 0
15 1 10.479946706855587 2.16415740768792 1.8507581440718806 0 0 0
55 1 21.40174701221384 3.4857905533413738 0.3620013383209233 0 0 0
26 1 22.744119758670067 1.6959577017807999 0.3919322651248741 0 0 0
1153 1 28.059473169529383 14.146190245167816 3.8329746503581155 -1 0 0
142 1 12.26290849294554 1.9748334818563147 3.872558726155439 0 0 0
49 1 12.578873220983866 3.3643900288748663 1.8290929503807276 0 0 0
20 1 14.140347790808946 1.8345665331427623 2.1007007832096236 0 0 0
146 1 14.243502889393577 3.66886158708 3.6684490424998395 0 0 0
51 1 15.589702706876649 3.533062490013823 1.7388684163740091 0 0 0
151 1 15.888189434557386 2.1067397909988914 3.6553414344249227 0 0 0
141 1 8.87144908316411 0.43479485355203795 1.6965669392535603 0 0 0
139 1 8.68093297006732 0.46277386051400055 5.423617950736373 0 0 0
512 1 24.59833616036228 12.520536051312542 12.394671799559283 0 0 0
181 1 17.59948667324779 3.510816822089981 3.7994846755920952 0 0 0
19 1 17.556863035343873 1.9996646912381137 1.9018442920335596 0 0 0
1398 1 19.29806531975524 1.932235588306586 3.823415691379818 0 1 0
150 1 19.266356506251398 3.662084611355933 1.9954762109557864 0 0 0
511 1 26.353659878488145 10.575139270457077 12.184138435156454 0 0 0
117 1 17.578634584530818 10.587318733562462 0.2408156461655989 0 0 0
74 1 8.966882186308258 8.835711734084446 0.48169722035145285 0 0 0
510 1 26.287214908208355 12.35617479298095 10.782314363515644 0 0 0
154 1 22.980970283701495 1.7274363129422003 3.902918246263269 0 0 0
185 1 21.09830041529812 3.5813769729681275 3.5884345759276726 0 0 0
22 1 21.188423653406133 1.8046413806197534 2.1151432655642957 0 0 0
59 1 22.901856747292072 3.2763262816290495 2.030278601768546 0 0 0
1051 1 22.89599545672833 14.141199778863154 1.8254006160401322 0 0 0
28 1 21.353103716583526 0.2784588478137005 3.9171204170034333 0 0 0
1 1 28.113290910369713 0.32088718932203597 0.31521218332379236 -1 0 0
4 1 0.45038159315166804 2.174069098636659 1.8850827542117021 0 0 0
32 1 24.613968294847794 2.0368265335763933 2.3470318818825664 0 0 0
223 1 24.48766594154734 3.5215636357372224 3.975553876550832 0 0 0
189 1 26.567949780039662 2.0575640918159563 3.8974800269292533 0 0 0
33 1 26.54943125718576 3.457947128848534 1.9655047817172242 -1 0 0
509 1 24.506928990860743 10.446005178359572 10.660560566688055 0 0 0
1289 1 6.858254527028633 14.141654203677763 7.226060042620071 0 0 0
30 1 24.701078337210163 0.270835929430119 3.913686264228313 0 0 0
507 1 22.87427096812658 10.559023158451831 12.289599048205098 0 0 0
175 1 14.292753699708948 0.31979161987684046 3.873265091192563 0 0 0
1271 1 19.301273954264893 0.4517748886958366 5.817830837423 0 1 0
162 1 1.8555068104948185 5.660262043517412 3.7713051054601836 0 0 0
67 1 1.9047725496575145 7.382906545767775 2.2146543788017548 0 0 0
194 1 2.0441668128591592 9.17747532025113 3.8577798250583726 0 0 0
72 1 3.688914168536169 9.194376235699307 2.1791395902561086 0 0 0
197 1 3.5267330099919905 7.37334387824103 4.001759022457826 0 0 0
40 1 3.6590590005801245 5.589377431151376 2.1471695293638664 0 0 0
95 1 0.22868233922813433 9.052460157277867 2.048252061644205 1 0 0
68 1 28.017617976528413 7.33087074917892 3.88694300427887 -1 0 0
1177 1 21.133313629667796 14.075207671175804 3.5787153332074024 0 0 0
165 1 5.569958623534525 5.489205162449765 3.865302698955096 0 0 0
44 1 6.991577348815215 5.501274991584115 1.9810363440218794 0 0 0
71 1 5.246053616627627 7.339794486948586 2.1588268013708722 0 0 0
201 1 7.330298469006206 7.268271935092616 3.4981555208421278 0 0 0
76 1 7.064049600108857 9.017120994441582 2.214750459932756 0 0 0
198 1 5.550711873486724 8.99137614569165 3.8117226568558276 0 0 0
1025 1 27.86503420456107 14.064180977438483 0.2936006000978656 -1 0 0
47 1 10.77347730707379 5.479708436858647 2.056216057533474 0 0 0
202 1 9.275487194832913 8.930970873170228 3.70816014220335 0 0 0
48 1 9.010724351217604 7.189622369412257 2.095265812968039 0 0 0
170 1 8.906985358284382 5.430701032952995 3.5256163689623197 0 0 0
205 1 10.706508077411815 7.172966449072285 3.7948413105253938 0 0 0
80 1 10.916389157615903 8.832508536835977 1.8242241713863698 0 0 0
237 1 12.262515068159225 8.795257789345948 3.8565707322543634 0 0 0
206 1 12.504758358689559 7.201464661043904 2.0585675004076807 0 0 0
174 1 12.53558471870367 5.325635238972246 3.9169233642657404 0 0 0
178 1 14.268581552776352 5.397694273615108 2.0314768578441114 0 0 0
209 1 14.136517286271134 6.953050644146565 3.7719977289641844 0 0 0
241 1 14.050371116782523 8.721866680690143 2.00542092842616 0 0 0
213 1 15.763871017401833 5.475170835111527 3.692966559055039 0 0 0
83 1 15.93469204641684 7.224706711619304 2.0245408701132703 0 0 0
210 1 15.790908664922721 8.907461587071278 3.6497111459873386 0 0 0
182 1 19.371840229853504 5.3698203664669215 3.4190952302147872 0 0 0
87 1 17.39506695522823 5.381513714356824 2.1167467514215157 0 0 0
54 1 17.79022223422644 7.099729165727914 3.715329914730298 0 0 0
249 1 19.458086137380754 7.050640552165053 1.9396176494240522 0 0 0
373 1 19.448599199355307 8.833378520789653 3.7122994215810774 0 0 0
88 1 17.619328685273288 8.823070893918706 1.9220722103949825 0 0 0
1266 1 12.410393380881676 0.3683918906780296 2.0345730871316596 0 1 0
605 1 24.543582079565248 7.064179978790794 14.117616072885259 0 0 0
60 1 21.369620010255588 5.381005818096733 1.8465542232496064 0 0 0
186 1 22.85808923339507 5.215822999316404 3.5909889459327062 0 0 0
91 1 22.95250570055989 7.130779360405807 1.91231365220166 0 0 0
217 1 21.180536916598136 6.993985774706061 3.603745188699224 0 0 0
92 1 20.938104383092153 8.779978064308496 1.7648685457327138 0 0 0
218 1 22.76987848946844 9.112145802440928 3.5747210185052625 0 0 0
2 1 2.0645995074208754 2.1772670048076734 0.2778410080783923 0 0 0
36 1 28.119180824030373 5.552653805299927 1.7983088699359964 -1 0 0
224 1 24.77450368212783 6.898658222987671 3.695515331762809 0 0 0
64 1 24.777294127377118 5.197012379211291 2.0829063884290413 0 0 0
190 1 26.545760281534996 5.272996868229444 3.786592513550546 0 0 0
221 1 26.443201999617038 7.134495953116877 1.9038787685867857 0 0 0
96 1 26.247722957465236 8.811961315126972 3.750447589069257 0 0 0
123 1 24.7414368971573 8.718518331636243 2.033155011562675 0 0 0
968 1 5.284715037812965 9.246612501003233 0.3060396148361478 0 0 1
42 1 8.870194933029998 5.370189779990325 0.5727439479818388 0 0 0
484 1 1.8420001016999525 9.119718745090324 14.15450848017917 0 0 0
99 1 1.9557807260775355 10.8703475149846 1.7271988138203507 0 0 0
226 1 1.76487616289042 12.22816298677641 3.9006649001367824 0 0 0
1000 1 3.7826250806365227 12.538550235614688 1.9471436215922269 0 0 1
104 1 3.850843587333446 10.870849916183893 3.8341832600065056 0 0 0
103 1 5.419771221690642 10.74689331822696 2.033540945331246 0 0 0
108 1 7.416012094167711 12.408369655497909 1.8843679485778353 0 0 0
230 1 5.485943122292911 12.504073610118626 3.784118876972498 0 0 0
233 1 7.431129873266918 10.748506021708723 3.7079913431477687 0 0 0
58 1 23.10872743335819 5.40487120225767 0.37143482091903296 0 0 0
508 1 21.350147171052576 12.325328264851018 12.383941643567224 0 0 0
387 1 1.7557269848925763 0.2779360326890388 12.564411317065618 0 0 0
234 1 8.9440812982078 12.634243706842746 3.7690316648634177 0 0 0
107 1 9.326571973948585 10.654637839297894 1.9251630368662094 0 0 0
112 1 10.812796942565013 10.85084154740519 3.430645350664938 0 0 0
111 1 10.834748136850838 12.616851297426747 1.7458381805736234 0 0 0
238 1 12.435431971337282 12.640444345075103 3.6272762473416824 0 0 0
1423 1 12.196628809628073 14.044797035577353 12.497804774602253 0 0 0
505 1 22.856257426309014 12.21653011759414 10.6374012005086 0 0 0
113 1 12.467607315883708 10.925284040541486 1.9018502056470266 0 0 0
116 1 14.215769636772505 12.523402078951703 2.0355568993912976 0 0 0
1043 1 14.031975718755378 10.472721831727977 3.7534359986026997 0 0 0
79 1 15.94882552799319 10.821924634668301 2.2259059518296604 0 0 0
1180 1 22.807604075624063 13.89739643215581 5.508911599743484 0 0 0
149 1 17.571787906950377 0.4600447693771523 3.828348665022046 0 0 0
248 1 15.895291807300929 12.844106722444645 3.6473124142202926 0 0 0
84 1 17.604304620257828 12.492282245574474 2.0036950288599673 0 0 0
245 1 17.774542592161318 10.803855982057678 3.6489510888914296 0 0 0
246 1 19.496275508193776 12.494632067925654 3.676547778957061 0 0 0
119 1 19.725805619480816 10.652324301707774 1.9993645771737059 0 0 0
344 1 21.17409429169051 10.551638398808535 10.589751607376924 0 0 0
265 1 7.1094664297690136 0.4700828728299534 7.387595964382472 0 0 0
1173 1 21.097051598323105 12.340243469162276 1.9477768167257221 0 0 0
256 1 22.818078797657307 12.38034240273592 3.567589441928629 0 0 0
1047 1 22.84205468041015 10.503431542762591 1.8331558626006494 0 0 0
118 1 21.207705778590736 10.646378976636518 3.721619122731401 0 0 0
1055 1 26.327032591005292 13.938250194430253 2.1194779119805327 0 0 0
7 1 5.492075508541724 0.6146775899939799 1.8388265166695126 0 0 0
110 1 12.823549735929973 12.376466176937107 0.3174635767973966 0 0 0
114 1 16.12238778100116 12.204798055492686 0.46084918235166183 0 0 0
1281 1 27.816737217660496 14.172519642637567 7.415315341530075 -1 0 0
100 1 27.985950963049532 12.221162897188925 1.8078266003599446 -1 0 0
225 1 28.075867101962025 10.50120311604813 3.8041917854250644 -1 0 0
128 1 24.58958850532808 12.121500471146183 2.1107930075958503 0 0 0
253 1 24.535334331032935 10.473172674360207 3.661207231193897 0 0 0
127 1 26.232625924506216 10.69662105984727 2.0431003288982867 0 0 0
254 1 26.216230722502907 12.396647634376132 3.7222991354749406 0 0 0
503 1 19.32034290949975 10.339053896921047 12.194982508015633 0 0 0
504 1 17.672785179351067 12.439973013022048 12.21070143151613 0 0 0
409 1 19.49811997076265 0.2596811809970063 8.729038040225529 0 0 0
145 1 15.762838792603988 0.3630661383284325 1.9385245180009065 0 0 0
66 1 2.0399852693940237 8.976052884711677 0.3005020572789444 0 0 0
502 1 17.453244983544117 10.672422345113475 10.624105933663165 0 0 0
65 1 0.32828620952452536 7.369071653661529 0.25410571837601664 0 0 0
1311 1 26.307862806127865 14.0805202292877 8.976120287842267 0 0 0
164 1 2.0138040985023133 3.9282115384295744 5.487064650934676 0 0 0
258 1 2.027882329218109 2.1102095233656746 7.275763864624798 0 0 0
291 1 1.9734898714691516 3.886764084604647 9.190083681424507 0 0 0
133 1 3.665144980613011 2.0684066928641855 5.548685186910257 0 0 0
294 1 3.7132268041731766 3.915529455702243 7.489304240217802 0 0 0
264 1 3.84438714483362 1.949116361807622 8.783073666106045 0 0 0
159 1 0.480442900394874 2.008326555161071 5.543240849080197 1 0 0
259 1 0.3687204019169371 2.030000549497086 9.212843844392525 0 0 0
289 1 0.2469934384567557 3.7601436930310452 7.294016730933053 0 0 0
920 1 19.536247919038267 2.0324233568010017 0.32895538659956064 0 0 1
1433 1 19.41530888943521 12.381551435556194 10.412067238441107 0 0 0
140 1 7.1788813284269395 2.255423827282955 5.437575950275527 0 0 0
167 1 5.383079476476365 3.8722655587023347 5.665053046185517 0 0 0
262 1 5.329635368547391 2.207954023570756 7.2200217104965665 0 0 0
297 1 7.284908036551377 3.861007446588432 7.127900724586601 0 0 0
295 1 5.633280711517912 3.896357609375652 8.968750315144765 0 0 0
268 1 7.443478583199802 2.0836347344593262 9.008109941789924 0 0 0
370 1 19.71228410325009 14.010077350735113 5.664651685908261 0 0 0
1042 1 17.730065533544185 14.078234846339193 3.7823257911159214 0 0 0
69 1 3.626350852534037 7.348907013959029 0.456243896162535 0 0 0
138 1 8.962482265236517 4.231186846711617 5.368930863357972 0 0 0
144 1 10.527325892387658 1.7486058286066153 5.647621152163284 0 0 0
266 1 8.88788107431304 2.252308363705763 7.208754992073802 0 0 0
301 1 10.811070785102196 3.7728804649441257 7.415219027673551 0 0 0
299 1 8.601271312421957 3.730739906385506 9.08589019600276 0 0 0
272 1 10.740125121430163 1.6915679642669157 8.529048488255153 0 0 0
270 1 12.489886238037016 1.9021782709519814 7.139446431757392 0 0 0
415 1 26.383827789568592 0.25179988256716257 12.515027027156014 0 0 0
1027 1 1.6701171577953404 14.128403445213772 2.178575428403513 0 0 0
455 1 3.4145983259430026 7.3779681077728245 14.131541262125676 0 0 0
1295 1 14.162154560694617 12.719421474463315 12.464333910015375 0 0 0
908 1 7.1369447842989056 3.815799460589827 0.3412900375630412 0 0 1
177 1 12.658444894208525 3.5983682008219957 5.598962654357365 0 0 0
303 1 12.409062657248729 3.638099069197066 9.049271698669495 0 0 0
148 1 14.25024970733633 1.9087055304441172 5.504289606252881 0 0 0
305 1 14.244554967057326 3.572505705371421 7.252509688792743 0 0 0
276 1 13.978182988028317 1.847577288555416 9.075133660025216 0 0 0
179 1 15.83162073269054 3.59143952411704 5.67634059847152 0 0 0
277 1 15.627326467464146 1.8590436180548404 7.262195028453474 0 0 0
274 1 15.833208101647767 3.4223937189435123 9.287483744224351 0 0 0
1415 1 5.390513248256295 13.97843537531564 12.52280393046275 0 0 0
622 1 12.400948462063381 10.820139479965174 12.473717294581547 0 0 0
267 1 9.137577537893883 0.30487048601789457 8.806347443990633 0 0 0
280 1 17.341813788790596 1.76240916621083 5.732088328757297 0 0 0
282 1 19.36693381543622 3.7469130794874066 5.266691862204907 0 0 0
183 1 17.479342011269217 3.8929586620551633 7.40203950394842 0 0 0
278 1 19.25073019997228 2.073409274665443 7.17669439788321 0 0 0
1526 1 17.667230629947355 1.8078118333771216 8.904605781249426 0 1 0
311 1 19.32103480781967 3.6066109580821264 8.968778828030041 0 0 0
109 1 10.906893073472816 10.605033902837441 0.3137444607522225 0 0 0
625 1 14.188083069537925 10.838077743987572 10.815679723975983 0 0 0
81 1 14.162231782326726 7.118846418642143 0.24577545426581648 0 0 0
156 1 20.96164333504226 1.9105820699731237 5.404893159925365 0 0 0
192 1 22.91358752071494 3.5858726777393035 5.605726253037625 0 0 0
281 1 23.013255218214212 1.7590108266565119 7.118947332757136 0 0 0
313 1 21.367402507789272 3.7202416282873396 7.196813015274742 0 0 0
284 1 21.185298411628523 1.9111966783351484 8.909681536963225 0 0 0
315 1 23.061072084475747 3.658371757356051 8.87199069966754 0 0 0
263 1 5.5455684429793966 0.26173754289379475 8.944929353905765 0 0 0
121 1 21.091284529897706 10.730430769797783 0.2956143583802799 0 0 0
499 1 15.827009191574227 10.905244670417225 12.496870211880779 0 0 0
317 1 24.683401587632197 3.648460138621968 7.206314160163077 0 0 0
160 1 24.905716293256653 1.9157992952845586 5.661914391163353 0 0 0
288 1 24.694356801050134 2.1499673841672147 9.071118174011538 0 0 0
191 1 26.486814169930888 3.8359165040370446 5.52522260278352 0 0 0
158 1 26.52332875870927 1.8673260961418292 7.4082150617963585 0 0 0
319 1 26.47849193626665 3.9719637209365652 8.903640594705106 0 0 0
102 1 5.509605295818136 12.65317208493507 0.4820033678802699 0 0 0
1427 1 15.716542219224564 12.544144025848148 10.716718750853328 0 0 0
195 1 1.9317689344798374 7.420074780713461 5.484495299330028 0 0 0
293 1 2.242581932892521 5.770142347139959 7.5284993330336265 0 0 0
227 1 1.942392692163657 8.83719714481344 7.453042525210989 0 0 0
296 1 3.8917836030263335 5.408308141204585 9.54112168127813 0 0 0
290 1 3.8085865535776233 7.621696594824567 7.008408400494961 0 0 0
168 1 3.7626415464146445 5.546925507596191 5.508155559675364 0 0 0
200 1 3.819194944669806 9.201744587819938 5.281871694999413 0 0 0
328 1 3.6596335415263135 9.140684202871036 8.878124104051988 0 0 0
323 1 2.196760357041989 7.21288442325751 9.07585228775281 0 0 0
196 1 27.94403812120361 8.963010025075182 5.535193774631837 -1 0 0
292 1 0.26987376120031104 5.525691542173139 8.836749969511699 0 0 0
300 1 7.325667989645129 5.686084620230861 8.986884116508435 0 0 0
171 1 7.122013871253392 5.548421544953926 5.543085077594348 0 0 0
172 1 5.417520861938702 5.7211735385049725 7.148441560643776 0 0 0
204 1 7.427602804518151 9.183326263092969 5.4999996195417875 0 0 0
199 1 5.474508829756215 7.212828409979523 5.2595981720265765 0 0 0
329 1 7.212121148002126 7.365554282913977 7.230285236025653 0 0 0
326 1 5.516785422647474 9.136401521435394 7.012687730602448 0 0 0
332 1 7.278344027062209 9.180909788399903 8.783461656778963 0 0 0
327 1 5.215058390900761 7.2974299828707805 8.78401684180017 0 0 0
208 1 10.496243595967725 8.875687049124275 5.64885746509639 0 0 0
203 1 8.783793068235672 7.033264511499543 5.555813720567679 0 0 0
298 1 9.052596618010673 5.659102840856662 7.400947959115388 0 0 0
176 1 10.834811426925919 5.402953668022295 5.522158556550239 0 0 0
333 1 10.671874320912956 7.170158020360309 7.4053760327984675 0 0 0
330 1 9.125978833031828 9.100769455244455 7.5136635715488 0 0 0
304 1 10.764021997978409 5.609916467370392 8.952694921302534 0 0 0
331 1 9.03329489350614 7.478402371266051 9.109436501597997 0 0 0
367 1 10.943396268620464 8.917504545488015 8.92731294626943 0 0 0
334 1 12.680162647902023 8.981898232022164 7.217614563005073 0 0 0
207 1 12.626357420721405 7.135576930505021 5.4650868747537 0 0 0
335 1 12.809191167147816 6.955590559167887 8.947865613938168 0 0 0
302 1 12.685165061523684 5.481935896184612 7.394590635099281 0 0 0
212 1 14.176606609939801 8.884422694689295 5.579289624322613 0 0 0
180 1 14.203529744356212 5.338987770882353 5.3921693423708685 0 0 0
211 1 14.302646282517273 7.150978521137974 7.185429623148733 0 0 0
340 1 14.14624444070408 9.013995959688138 8.979762811826435 0 0 0
308 1 14.339178526632338 5.337002322332179 9.040975388977792 0 0 0
306 1 15.845428756342828 5.269719159205038 7.204520839963114 0 0 0
337 1 15.87208545240886 8.943597385644608 7.43098201585426 0 0 0
216 1 16.071659699666302 7.059223528473713 5.362805501382334 0 0 0
339 1 15.647807099242533 7.269049128992634 9.068922545677717 0 0 0
312 1 17.567773407260773 5.443260458918367 9.151925792801446 0 0 0
184 1 17.807398741015085 5.138525692434057 5.295838693930037 0 0 0
341 1 17.63249469320546 8.930848261135653 5.341273113691092 0 0 0
310 1 19.316819602071483 5.339262620476178 7.060931107831116 0 0 0
214 1 19.37845731711223 7.203149245308702 5.657169234089792 0 0 0
343 1 17.41707009479343 7.087780933567732 7.267804713796853 0 0 0
342 1 19.3172295927287 9.04053564371094 7.3340224113036765 0 0 0
338 1 17.741475129881167 8.667254903922519 9.128374449590902 0 0 0
316 1 19.402485701114713 6.944390322620518 9.067704849678071 0 0 0
441 1 21.120091712374908 5.078748924432479 8.99270683336505 0 0 0
187 1 21.31396777079801 5.092929602553525 5.339649384222319 0 0 0
314 1 23.142863758588177 5.46537412011496 6.98354726039579 0 0 0
215 1 22.830919952723086 6.968870984677068 5.118314248774247 0 0 0
345 1 21.242826685331288 6.898035896055678 7.168504841662021 0 0 0
347 1 22.755331903523825 7.00269379429306 8.910626560165957 0 0 0
247 1 22.74879845699361 8.75658737243214 7.0583223475669 0 0 0
348 1 21.040837328312627 8.84744747358521 9.044461428417979 0 0 0
220 1 21.04321782398923 8.794407740348609 5.156699341346978 0 0 0
322 1 27.988818999775347 8.94436958650114 8.873531861676115 -1 0 0
325 1 27.976335324313403 7.291065905800144 7.1650425720566 -1 0 0
321 1 28.12688677395569 5.388894406770792 5.7823137737142725 -1 0 0
349 1 24.55948632890037 7.212155683078748 7.135410231799561 0 0 0
350 1 24.599921746391885 5.169804980285453 5.482525923767501 0 0 0
222 1 24.47164331161521 8.82833804039635 5.527561107531274 0 0 0
318 1 26.353051922925133 5.443759927093079 7.243811706849948 0 0 0
320 1 24.680022381268564 5.441923181286095 9.138585812612632 0 0 0
193 1 26.39752647527922 7.053606825141815 5.488241107347425 -1 0 0
219 1 26.08504282755922 8.854315700119997 7.163698820137564 0 0 0
352 1 24.676212140199496 8.702371724537851 9.073815292990357 0 0 0
351 1 26.37705168672376 7.305955771931669 8.92770478346422 0 0 0
493 1 12.508704151736048 12.621983414100708 10.739491214573023 0 0 0
229 1 1.8419842210145203 10.44726152915943 5.70210098655849 0 0 0
354 1 1.7658692351442182 12.581445866175738 7.1837102605355705 0 0 0
357 1 3.8216746929597423 10.581688589162203 7.240123973286865 0 0 0
232 1 3.4057211421864104 12.4376603019236 5.6584931469390005 0 0 0
355 1 1.648044231854265 10.69063482692007 8.91233378477307 0 0 0
360 1 3.7303224383232716 12.373602248236642 8.74483769701142 0 0 0
228 1 27.775039983085676 12.240258180818609 5.593258176866208 -1 0 0
1413 1 3.8275219077744227 14.054140859881375 10.703431817165757 0 0 0
231 1 5.691793063927702 10.72602464893229 5.556343669391046 0 0 0
236 1 7.150232696061449 12.646721448627838 5.386544636718388 0 0 0
358 1 5.422571637932967 12.341258690651708 7.053080522003495 0 0 0
361 1 7.535523860778952 10.981517121777381 7.0654542094710635 0 0 0
359 1 5.469498485010904 10.677920735420942 8.876893362175942 0 0 0
364 1 6.968407537784572 12.628209257157883 8.86241156892001 0 0 0
75 1 7.114455536575185 7.231274153012184 0.46813861848997557 0 0 0
235 1 9.164342869425084 10.76227718652757 5.37288686093073 0 0 0
240 1 10.692986809801706 12.439935699797909 5.42385047823558 0 0 0
362 1 8.90653658265232 12.750073329664959 7.035732691382023 0 0 0
365 1 10.574841086356194 10.974140733970692 7.237257312767224 0 0 0
363 1 9.01225803651959 10.99870241969881 8.996853902266029 0 0 0
368 1 10.87482155643925 12.673584462147565 8.850031744526525 0 0 0
38 1 5.347530915838462 5.221351701159142 0.30243694982102975 0 0 0
1307 1 23.056299328829226 14.121611191940978 9.2803027456973 0 0 0
239 1 12.219819888897195 10.743248902217907 5.402737840246835 0 0 0
366 1 12.51196256777968 12.30527752966115 7.154083247299304 0 0 0
497 1 12.491309455664808 10.692846128210148 8.943026159161386 0 0 0
244 1 13.967429488460937 12.27574601999875 5.481542055916042 0 0 0
369 1 14.194978121179885 10.616689646657804 7.2468453936668356 0 0 0
372 1 14.123020201086131 12.379066355184152 9.027273011227129 0 0 0
466 1 15.889537209277174 10.70519578949837 9.01990763332137 0 0 0
371 1 15.8677132634945 12.474753488267472 7.1732921214913565 0 0 0
243 1 15.931024417975614 10.49426297079323 5.466685400409356 0 0 0
86 1 19.278121697650995 8.84305859311306 0.3705014161746413 0 0 0
1542 1 3.39898811179268 14.02345579854003 14.132737050801971 0 0 0
375 1 19.36695813250855 10.773412791422674 8.910903593334861 0 0 0
124 1 19.32297575107986 10.60165818855695 5.311720729634089 0 0 0
376 1 17.645218066736795 12.322162147578156 8.940131019539983 0 0 0
1302 1 17.721057861794108 12.395657155861857 5.41059728773803 0 0 0
374 1 17.41042882295136 10.775834144646211 7.245170342919123 0 0 0
1175 1 19.32454864839928 12.321491002602764 7.212375598073674 0 0 0
286 1 26.596915790242484 0.22838705243434895 5.483852419021249 0 0 0
496 1 10.584966509911201 12.64554219473733 12.416551536437584 0 0 0
129 1 26.231140216463317 0.3258015363042222 2.074012179604101 -1 0 0
379 1 22.68626129369909 10.371536631616282 8.939384797928222 0 0 0
251 1 22.92821762697355 10.677179859880262 5.630037835502267 0 0 0
380 1 21.163134223533326 12.224606039530974 9.009987100158433 0 0 0
250 1 21.063760910498118 12.244575388214226 5.433186418839455 0 0 0
377 1 21.06133830139035 10.545727196612777 7.151706337874967 0 0 0
381 1 22.920889843487757 12.214955049264697 7.41669584279973 0 0 0
480 1 24.430510532600657 8.886874799914029 12.235916688374125 0 0 0
446 1 26.322567478865693 5.576712101432461 10.711553701066054 0 0 0
972 1 7.08702930828494 10.821301458626598 0.348322526570102 0 0 1
356 1 27.84022793636305 12.4146558349181 8.855591851634623 -1 0 0
353 1 27.992313575977008 10.486884012130455 7.193417346486832 -1 0 0
382 1 24.421519781060255 12.29029958672402 5.383559945295832 0 0 0
346 1 24.43065931400463 10.452460638537833 7.565793088357982 0 0 0
378 1 24.655017484093634 12.202614813919926 9.079099454860009 0 0 0
383 1 26.430116553585066 10.479595255813226 9.157198538138516 0 0 0
255 1 26.178477370668134 10.648174313105285 5.385901483536336 0 0 0
384 1 26.093658302726077 12.08362278817456 7.395642431700358 0 0 0
448 1 24.47678334558058 5.452064327350528 12.18981780135832 0 0 0
626 1 16.046422490153184 12.57450510468281 14.011454529004483 0 0 0
385 1 2.234916202083341 1.8938262709261762 10.659944551050732 0 0 0
546 1 2.0200431723477097 3.580369488741729 12.53209786894934 0 0 0
419 1 3.806711541408314 3.6502933544314895 10.909894397683633 0 0 0
386 1 3.8747248718990175 2.0182649830156505 12.5693166221506 0 0 0
417 1 28.094037268039436 3.8593502682987917 10.912770494113381 -1 0 0
388 1 28.026332900503412 2.098542287252812 12.492117156136954 -1 0 0
478 1 26.511443196356296 8.714554498980284 10.7673433243052 0 0 0
3 1 2.1236806076707815 0.4825933885230243 2.041975636243275 0 0 0
421 1 5.3069296327734365 1.789759138170052 10.621119543461145 0 0 0
392 1 5.675163437591911 3.8889721409473887 12.725186709590862 0 0 0
396 1 7.183135487379678 1.81375621355305 12.562898336630415 0 0 0
425 1 7.034933916906279 3.5878052376986678 10.980130979907011 0 0 0
562 1 15.96478435954526 5.223951953930264 14.12327928537213 0 0 0
606 1 26.130387667637102 9.002724863681443 13.934140511140734 0 0 0
397 1 8.992327587196257 1.9501590988013187 10.714855176735808 0 0 0
427 1 9.132920632695422 3.6696477793464055 12.415680900477746 0 0 0
429 1 10.712815989719719 3.7046255026067962 10.453914501300796 0 0 0
398 1 10.589830156529475 1.4819605078285876 12.303462333906428 0 0 0
486 1 5.358634044469357 12.349696827190972 10.668107999288225 0 0 0
490 1 8.922923036840013 12.627518781900028 10.790281930992572 0 0 0
1297 1 14.14065262218297 14.048203505973405 7.164458471433644 0 0 0
401 1 12.328557788196834 1.692759130923627 10.435961179859786 0 0 0
431 1 12.129226764615693 3.618923176901138 12.59690095104725 0 0 0
309 1 13.81084498962565 1.8555376944951738 12.359577201313291 0 0 0
433 1 13.80914021264045 3.666897084270208 10.67352225611358 0 0 0
402 1 15.81076745854957 1.7949943046033556 10.869977918510504 0 0 0
477 1 24.32910266287123 7.088685270016903 10.564128254922851 0 0 0
1409 1 27.912327981606047 14.159112398146474 10.561509035444653 -1 0 0
487 1 5.442873412016012 10.81297083642711 12.36937432927584 0 0 0
106 1 8.996146282434315 12.538502971020533 0.2885263916401127 0 0 0
336 1 10.832587673297349 10.88737803611785 10.540966489931627 0 0 0
440 1 15.726503305222563 3.5312118179987633 12.325103029687588 0 0 0
530 1 17.757727417365473 1.9651018463946355 12.63801739258977 0 0 0
437 1 17.61350741798549 3.501828728129445 10.578794711562695 0 0 0
444 1 19.387101071167855 3.4083678802482487 12.401266216891106 0 0 0
408 1 19.45095030016816 1.663189753299014 10.74725033713691 0 0 0
491 1 8.783453382289485 10.969986981869155 12.26216526574265 0 0 0
439 1 21.21510262128401 1.9637511587467882 12.460325785677494 0 0 0
406 1 21.110049154522343 3.565352162715931 10.717316139945751 0 0 0
410 1 22.92924571853642 2.1471396015431883 10.814767935506175 0 0 0
443 1 22.884086092594345 3.916934045048122 12.612106937041633 0 0 0
479 1 26.171013533974467 7.121714440864145 12.458672280322693 0 0 0
445 1 24.754799460155525 3.5956241509260694 10.945171151431289 0 0 0
416 1 24.494532585566787 1.9856538199182627 12.491194460166044 0 0 0
414 1 26.519016136736283 1.6989607021683009 10.604147669186746 0 0 0
447 1 26.332242603750025 3.887682130008791 12.400334654130392 0 0 0
452 1 0.23790043645797987 8.891137677911598 12.429165016316057 0 0 0
418 1 2.066182663448851 5.374713355286524 10.920407703310229 0 0 0
451 1 1.9800981361540893 7.145433563576699 12.480508167453793 0 0 0
324 1 1.9452926160570452 8.845718159264797 10.857791319253598 0 0 0
428 1 4.069875472709059 5.6734378117242965 12.381251008037209 0 0 0
456 1 3.773294080251678 8.956673007047675 12.340449408371356 0 0 0
453 1 3.892272014459061 7.279533768274365 10.768571576577997 0 0 0
420 1 28.112112761559256 5.4977542056365705 12.346680287559213 -1 0 0
449 1 0.3067824175696825 7.065489107007676 10.71390291425034 0 0 0
618 1 7.293373164340701 12.32638130086535 12.586663927734675 0 0 0
423 1 7.218175573797451 5.367990299423507 12.627622388641948 0 0 0
422 1 5.8878773039862 5.53884742953529 10.808245594368644 0 0 0
457 1 7.432128620249333 7.427734386918592 10.494775692875313 0 0 0
460 1 5.532002442303644 7.541229878475608 12.446964714584437 0 0 0
454 1 5.51850800294305 9.012222270697494 10.42017998574401 0 0 0
617 1 7.5191839166391 9.031566624181323 12.21136172044157 0 0 0
489 1 7.053003568428611 10.7006384428377 10.808552225914896 0 0 0
450 1 1.8683557045989836 10.674344637712592 12.14836456689132 0 0 0
464 1 10.471939800513507 9.093535714493779 12.456468870953868 0 0 0
432 1 10.506501807531805 5.329548535039077 12.147880864399815 0 0 0
458 1 8.958080618255833 9.21501600960762 10.411053534048069 0 0 0
426 1 8.87984301633785 5.438877111541668 10.641535780823016 0 0 0
459 1 8.840960698060698 7.131065100565733 12.433186618698322 0 0 0
461 1 10.727787564277891 7.170852574518185 10.753366266905735 0 0 0
483 1 3.773205131905336 12.292406204077402 12.475227370625182 0 0 0
463 1 12.360868477479933 7.103604356595302 12.454221495606891 0 0 0