LAMMPS data file via write_data, version 29 Oct 2020, timestep = 300000

2048 atoms
1 atom types

0.1359823211955291 28.216017678802274 xlo xhi
0.1359823211955291 28.216017678802274 ylo yhi
0.1359823211955291 28.216017678802274 zlo zhi

Masses

1 58.933

Atoms # atomic

8 1 1.7801405695363228 3.698935803658987 1.9975001702741255 0 0 0
163 1 1.859692212746222 1.844108381163542 3.486386820109579 0 0 0
130 1 3.661311329619647 1.653057328378117 1.7835746376470905 0 0 0
132 1 3.755303076606787 3.6031008965698326 3.4572059985993113 0 0 0
93 1 24.705114553707915 7.5179990181801575 0.7253720410348448 0 0 0
52 1 13.939211705306501 3.5111177519629453 0.3520569951697371 0 0 0
1258 1 10.336570453456003 0.21137753648721258 3.742230816823692 0 1 0
509 1 24.90620866250375 10.561250325353404 10.64946889933284 0 0 0
988 1 21.213198763450848 7.4341151699796715 0.3119347869159397 0 0 1
12 1 7.476360123971494 1.8228988981186853 1.9629047200595646 0 0 0
39 1 5.25964074951459 3.3597051513757594 1.678432362269263 0 0 0
134 1 5.465582479822501 1.9097006137448005 3.6300905169524906 0 0 0
166 1 6.862434765953001 3.8946435837320283 3.3540879225152924 0 0 0
395 1 9.020410372698198 0.16369415131131987 12.338401354118686 0 0 0
27 1 22.947950069700333 0.2821923770269513 2.088775827530435 0 0 0
279 1 17.589127566215964 0.33674155439396747 7.2043236231871015 0 0 0
169 1 8.737795225722822 1.9863664344681549 3.695268110670554 0 0 0
41 1 8.939340126051418 3.8232861646243625 1.6383961420284403 0 0 0
173 1 10.366019009511886 3.659319276098083 3.5080499492786 0 0 0
15 1 10.596417703685871 1.9287049956548554 1.7370239613676717 0 0 0
142 1 12.054659943682472 2.017268522090015 3.7568044304182906 0 0 0
56 1 17.38395947609864 3.8529264684592857 0.21427539681869245 0 0 0
263 1 5.422789916063518 0.39308953545742376 9.013805270467875 0 0 0
2 1 1.9340946908738894 1.9342295368081523 0.3856799022427819 0 0 0
49 1 12.145592121819613 3.4888822655229883 1.925892547081367 0 0 0
20 1 13.700927545979253 1.7323273182103522 1.7177386564462354 0 0 0
146 1 13.999799880858953 3.6147161954153306 3.375906534436961 0 0 0
51 1 15.847967687245466 3.944216350896331 2.1423288805355085 0 0 0
151 1 15.791187821049638 2.0194058258278895 3.468483909039494 0 0 0
114 1 15.724883861779116 12.590786927562148 0.2740899621598336 0 0 0
1181 1 24.9620410438447 14.015818085325723 3.877166408775586 0 0 0
97 1 28.20074873125641 10.612705275565096 0.17037079435190788 -1 0 0
1437 1 24.76540295136212 13.850063814705459 10.905040247026102 0 0 0
512 1 24.855707553992268 12.148144935491423 12.315927981571408 0 0 0
511 1 26.328224449741107 9.947721388585041 12.218725934136348 0 0 0
181 1 17.531478176493337 3.807587799558745 3.58391928602531 0 0 0
19 1 17.50486274342591 1.9953552387198341 1.6384583918336875 0 0 0
1398 1 19.01950318798751 2.206117601406073 3.625648137333258 0 1 0
150 1 19.210187271469827 3.7981081799609306 2.0347819657976514 0 0 0
521 1 7.270200233324367 0.3835664879104783 14.035614360067209 0 0 0
1423 1 12.37885250416686 13.945742747188865 12.356294664763547 0 0 0
154 1 22.856616363571334 1.8051188691199207 3.8279134735424285 0 0 0
185 1 20.697163574744337 3.7485266708880034 4.153376480705945 0 0 0
22 1 20.939989942607582 1.9291964797124146 2.139107904031502 0 0 0
59 1 22.72962472441762 3.969909488909162 2.03658637640235 0 0 0
403 1 15.996679632171086 0.38899987093306215 12.414958328920111 0 0 0
1271 1 19.105560533451943 0.2643146583356615 5.001787100907932 0 1 0
273 1 14.34883592319826 0.19153543456227595 7.199087268260464 0 0 0
1434 1 20.799870491389434 14.132189954663351 10.813226426836673 0 0 0
4 1 0.13949864913377752 1.6247531290425525 2.113234158450366 0 0 0
399 1 12.038876125704835 0.41975590218397213 12.344691416165647 0 0 0
161 1 28.140305656075014 3.743228960976458 3.682486660440086 -1 0 0
223 1 24.085594769873985 3.709563590509774 3.7790564976703482 0 0 0
32 1 24.56179430539442 2.102404943202096 2.0871163189361837 0 0 0
189 1 26.379491161169952 1.885197421664868 4.055090117830483 0 0 0
33 1 26.253936176133948 3.758802847144342 2.4255154263185026 -1 0 0
370 1 19.180946242857253 14.172637800996734 5.126782957958886 0 0 0
149 1 17.535601473466805 0.4888407052397813 3.64764815682925 0 0 0
510 1 26.635138028707495 12.041042800815543 10.647154609941483 0 0 0
162 1 2.0575778148931656 5.475810741505482 3.7128239232711846 0 0 0
67 1 2.183186154361086 7.146174669427711 2.0068160780783355 0 0 0
194 1 2.0865373877886677 8.751607788551043 3.5089388966899526 0 0 0
72 1 3.988857027096166 8.860423301420091 1.786732621919483 0 0 0
197 1 3.6373127289102296 7.112550935578147 3.9714177461206557 0 0 0
40 1 3.6895703763833465 5.3801820351793035 1.880411900644652 0 0 0
36 1 0.35718701742623526 5.336826897845242 1.971889455076129 0 0 0
68 1 0.35635618786081125 7.132397008186421 3.667738715489233 0 0 0
1421 1 10.492045790706648 14.161848583288963 10.780443330054931 0 0 0
165 1 5.300757140536241 5.544664816278268 3.7524409025558545 0 0 0
44 1 7.072666256309294 5.544198732464354 1.7359350390533392 0 0 0
71 1 5.428689320066898 7.179071425683654 1.418652396937156 0 0 0
201 1 7.07919275349349 6.890552608106352 3.5055703924690174 0 0 0
76 1 7.352891948384178 9.090492356258892 1.674799210170919 0 0 0
198 1 5.689768962156389 8.739962005190659 3.463545107564356 0 0 0
58 1 22.664544231860432 5.655695540637685 0.18157358690451006 0 0 0
152 1 20.854844178990376 0.21947114848456528 7.413935487727428 0 0 0
1431 1 19.326936481258656 14.145890164005614 12.58660479584136 0 0 0
47 1 10.680899180157045 5.610442289387979 2.062946651191135 0 0 0
170 1 8.73019651813011 5.2692901837680735 3.326702880306839 0 0 0
48 1 8.952075424810296 7.113311304866085 1.9215845497577921 0 0 0
205 1 10.575590669013945 7.311855571755413 3.734690346027501 0 0 0
80 1 10.474447907451859 8.8608009031431 1.732654260375532 0 0 0
202 1 9.013911352883918 8.965424706842787 3.5413867990966867 0 0 0
145 1 15.93841003742225 0.2334847485963205 1.975444159025013 0 0 0
55 1 21.09759971855876 3.435940826155619 0.4117271594100382 0 0 0
237 1 12.128938339613871 8.917077767709578 3.3922632209796557 0 0 0
174 1 12.284630897069698 5.230171357309017 3.5976147094153115 0 0 0
206 1 12.525472212331689 7.027954688428087 1.7915454602963252 0 0 0
178 1 13.824215560228632 5.356625076435522 1.7172254130395614 0 0 0
209 1 13.755428564842854 7.2798004020147795 3.7097642113195786 0 0 0
241 1 14.094219589543178 9.044351739860925 1.8226960724661594 0 0 0
83 1 15.576009213937054 7.36353609593552 2.0175046813757334 0 0 0
210 1 15.615798306638792 9.142428173463745 3.630279864157718 0 0 0
213 1 15.621658532206766 5.6874695798693296 3.9721441001467954 0 0 0
62 1 26.690983506840375 5.4658533562357245 0.3727538053819779 0 0 0
182 1 19.467519209666385 5.62043691555168 3.355328685692383 0 0 0
87 1 17.530594993676402 5.629980137586624 2.16120661165175 0 0 0
54 1 17.492112476611936 7.388838186069145 3.4453913558460587 0 0 0
249 1 19.676821524324126 7.559762206427249 2.1380971990237594 0 0 0
88 1 17.818581760297633 9.286661327819125 2.081934921355468 0 0 0
373 1 19.632276373804288 9.279342710511456 3.443121348544736 0 0 0
271 1 12.46471516922792 0.3508108778856791 8.765083739803769 0 0 0
60 1 21.077605226167975 5.436240029973928 1.6830654579341318 0 0 0
186 1 22.43715822415372 5.507738340405346 3.9300140594741313 0 0 0
91 1 23.027844032605266 7.437603761272842 2.4192654873638126 0 0 0
217 1 21.093055356597098 7.7431139602939725 3.9550131486097797 0 0 0
92 1 21.304476923918102 9.263682138448834 1.810172520486169 0 0 0
218 1 22.746627900578964 9.40947542059852 3.573227116392972 0 0 0
95 1 0.6330451822933562 9.062896624280665 1.8048673141285403 1 0 0
224 1 24.51368022669628 7.505286515054363 3.9368627155400517 0 0 0
190 1 26.639597165218028 5.683507042492582 3.4825517331773295 0 0 0
64 1 24.57086463969032 5.411662582742089 2.02744898807289 0 0 0
123 1 24.684181486713953 9.12789100238629 2.0932881487472557 0 0 0
221 1 26.566290011194404 7.460113605555757 1.8925277673731815 0 0 0
96 1 26.538690368782575 8.925680665153603 3.6697497135704995 0 0 0
941 1 12.291954786131807 5.005186325506794 0.2725701618672106 0 0 1
99 1 2.333887570014464 10.606417965392108 1.9684792207075361 0 0 0
226 1 1.9703435740808972 12.084416886044485 3.84779905506359 0 0 0
104 1 3.90147640967248 10.557200672077482 4.001382618688686 0 0 0
100 1 0.39541175833402065 12.276291331103343 1.9071874541307852 0 0 0
225 1 28.196062726583495 10.47383138346018 3.628169650824644 -1 0 0
28 1 21.25339627065685 0.24640950227373537 3.6846844565789385 0 0 0
89 1 19.230347468162712 5.645342964908462 0.49168803033199326 0 0 0
257 1 28.133810358271162 0.3712421413410063 6.944068118803509 -1 0 0
638 1 26.627882348971816 11.765770954651668 13.795463532264867 0 0 0
1000 1 3.6003782640706947 12.555910202082849 1.8998313232873743 0 0 1
103 1 5.5975835776297815 10.86795592641137 1.5603958818665102 0 0 0
108 1 7.070389698184296 12.572774768828761 1.6953582785209023 0 0 0
230 1 5.6017698926508155 12.574304621136582 3.299438392197476 0 0 0
233 1 7.434620911479817 10.604638117293975 3.6891071946240452 0 0 0
61 1 24.941100389228318 3.7964882974224397 0.5003622235506181 0 0 0
30 1 24.929846694862896 0.18086243449267705 4.064470039643789 0 0 0
136 1 3.6054125117198392 0.2369854149931771 3.9750128864427845 0 0 0
234 1 9.095064052075372 12.531948091065717 3.448768787235736 0 0 0
107 1 9.024219507614685 10.805371098925134 1.9361292616841572 0 0 0
112 1 10.859881350090053 10.655248957642396 3.5119386039398224 0 0 0
111 1 10.840894928176276 12.612499199587168 1.8170302532119753 0 0 0
63 1 26.598027776038037 1.8999645460228447 0.38179694491566224 0 0 0
344 1 20.801113200888878 10.719454756587771 10.802358529484719 0 0 0
238 1 12.499508478031979 12.522920032451301 3.505749444540867 0 0 0
113 1 12.321386804620385 10.802403492717144 1.8311183264013773 0 0 0
116 1 14.014174620255494 12.731043683193663 2.0165015028473006 0 0 0
1043 1 14.018677386175485 10.890959452329028 3.7684257216306514 0 0 0
79 1 15.639081961481144 10.814978783989478 1.848122029280654 0 0 0
248 1 15.821337672728744 12.457975936101745 3.7191556188705657 0 0 0
507 1 23.008187731099092 10.724458758036304 12.138772197561238 0 0 0
267 1 8.927318735299782 0.4240572087804409 8.791391467526447 0 0 0
18 1 15.52963359702398 1.9974829983732665 0.5455857962722723 0 0 0
84 1 17.48221602764646 12.461353797763758 2.076894548716532 0 0 0
245 1 17.494640207806242 10.647192201451077 3.791888500002372 0 0 0
246 1 19.155732593681407 12.50617222247997 3.466747944141581 0 0 0
119 1 19.52921598633442 11.037227211688123 1.6113048095344473 0 0 0
1291 1 8.821441925515307 14.083895652319844 8.841420518071537 0 0 0
1173 1 20.99991687245695 12.629385132168643 1.4754797399578985 0 0 0
256 1 22.845399527999632 12.258338267691636 3.611407612659619 0 0 0
1047 1 23.073894083429593 10.648123772726345 1.832087495320413 0 0 0
118 1 21.168067093969817 10.928748190137012 3.36943076981426 0 0 0
128 1 24.57451763411693 12.344082528008103 2.150323195282682 0 0 0
253 1 24.775650482708237 10.781139358269634 3.792410513093732 0 0 0
127 1 26.78008663806918 10.370291261057698 1.825519335834609 0 0 0
254 1 26.759839986505497 12.175866160023554 3.5773499459756906 0 0 0
505 1 22.813152941879125 12.315014106427096 10.629275722426089 0 0 0
920 1 19.57628376292113 1.4896873087078524 0.47956714372476034 0 0 1
1419 1 8.753011388704042 14.047862679606594 12.553360487473368 0 0 0
275 1 16.088063432481004 0.4118704348803419 8.904495453540944 0 0 0
164 1 1.8540470476945483 3.6179485635877797 5.348810008985192 0 0 0
258 1 1.786302479253559 2.12362436409425 7.395842198650984 0 0 0
133 1 3.5968248776627516 1.9823393448341602 5.471273803512165 0 0 0
291 1 1.8967989718873188 3.7285283228020125 9.246264474180995 0 0 0
264 1 3.6448786902243504 1.802789600383959 9.127797745691964 0 0 0
294 1 3.715151571922446 3.3750790593712163 7.08656557063558 0 0 0
259 1 0.17155513114393273 1.9877161524621405 8.745867553058956 0 0 0
409 1 19.225582949744947 0.5124096470588921 8.805666788989189 0 0 0
140 1 6.89449114312613 1.9837081459425212 5.241874202318764 0 0 0
167 1 5.2355892371223005 3.8968474101672426 5.466674546798125 0 0 0
262 1 5.4084232556083744 1.8549015705056238 7.2056832126915396 0 0 0
297 1 7.0274529268943535 3.703014290281574 7.175488339445459 0 0 0
295 1 5.311127082694193 3.3938235679077566 8.936951896393998 0 0 0
268 1 7.233785986602254 1.8674517400247763 8.746744996539245 0 0 0
508 1 21.16092641829681 12.344574765391966 12.54268565467183 0 0 0
1027 1 1.915730774950032 13.899622614238988 1.781838402042596 0 0 0
285 1 24.45864312808707 0.23424576023511434 6.7990873080491205 0 0 0
144 1 10.59544139164737 2.219329690362205 5.260751757330483 0 0 0
138 1 8.593749815500978 3.7180838363275743 5.243093641119231 0 0 0
266 1 8.732620806907134 2.253803345071949 6.937411893093473 0 0 0
301 1 10.388008954555504 3.820037069400224 7.296964713691824 0 0 0
299 1 8.534407760624102 3.813611755840052 8.952555081438351 0 0 0
272 1 10.42318620646232 2.286001691015186 8.93203018219915 0 0 0
270 1 12.446295874217185 1.9630924264641794 7.301525865936819 0 0 0
947 1 15.963921180371512 5.520337652202616 0.4645036729978177 0 0 1
303 1 12.259495809620248 3.611116972741118 8.94678725133455 0 0 0
177 1 12.272745805205021 3.695709786448585 5.475892303833146 0 0 0
148 1 14.34651852215544 2.188968679208596 5.433213013460872 0 0 0
305 1 14.044231669177316 3.8119021287942094 6.861599337482186 0 0 0
276 1 14.292630092226176 2.1300819740623274 8.933923614097415 0 0 0
179 1 16.108344040568134 3.9040714301162383 5.3806460193172585 0 0 0
277 1 15.733023583959056 1.9761894923902223 7.277324506906842 0 0 0
274 1 15.880073410330851 4.119937706427493 8.83593189778817 0 0 0
131 1 1.9251213448725615 0.41817021492951 5.452232460959824 0 0 0
503 1 19.311683718618575 10.555413966408112 12.856395045318132 0 0 0
280 1 17.275447251790084 1.9139874511722599 5.46995562188138 0 0 0
282 1 18.70327405037208 3.8337846892395055 5.577657021877332 0 0 0
183 1 17.540279322025683 3.8620823344537607 7.422654703523898 0 0 0
278 1 19.2155231233861 1.9913067572250136 7.147927371877107 0 0 0
311 1 19.515770764501525 3.705717394535022 8.751927598480506 0 0 0
1526 1 17.362326095115463 2.3907165910445833 8.939472723851695 0 1 0
156 1 20.78025816091727 1.7034178373479245 5.5836586879539665 0 0 0
192 1 22.341165409911923 3.4856226135197175 5.443953520187457 0 0 0
281 1 22.679819844204104 1.8802359055584192 7.461046648291333 0 0 0
313 1 21.01122136844613 4.1347208460047025 7.2216344135124455 0 0 0
284 1 21.052177866014446 2.2222805480568466 9.062843900857139 0 0 0
315 1 22.75503998903981 4.173053125067068 8.578948234566452 0 0 0
269 1 10.65146267658167 0.6371099249382125 6.743638069379097 0 0 0
289 1 27.89741194439047 3.8434684962815675 6.951343857902155 -1 0 0
159 1 28.060626708086396 2.1274480217991294 5.3612970769986354 0 0 0
317 1 24.624617858163283 3.734217032702615 7.087435611685833 0 0 0
160 1 24.642277957391258 2.0107033468288593 5.521595630054642 0 0 0
288 1 24.516807844376103 1.8130829659673018 8.587513216092123 0 0 0
191 1 26.069539173243406 3.932064788820598 5.256205703979006 0 0 0
158 1 26.327321519304498 1.9562108262428912 7.117526695054036 0 0 0
319 1 26.47030134774021 3.445882142962291 8.826344765522053 0 0 0
1433 1 19.165770179797633 12.475376295067615 10.858144751153363 0 0 0
1297 1 14.154973829981467 14.01283890513824 7.2708716285581785 0 0 0
195 1 1.8566799115810029 7.170054013455792 5.402101181254799 0 0 0
293 1 1.860533843997419 5.342828069871332 7.282089738948422 0 0 0
323 1 2.021623053743431 7.438583006143289 8.680398723882288 0 0 0
200 1 3.7928176991788627 9.144787555323985 5.589224980283122 0 0 0
290 1 3.849775726658629 7.190169789211768 6.8571352098566996 0 0 0
227 1 2.347939133293523 8.919272931531431 7.107488400351194 0 0 0
328 1 3.9559210166041185 9.345087241321533 8.699028838886496 0 0 0
168 1 3.7431088404693993 5.424030900819791 5.611624577132487 0 0 0
296 1 3.2840847992308557 5.477491081863375 8.911301894384332 0 0 0
322 1 0.40113556736321254 8.984473882272436 8.727114759843 0 0 0
171 1 7.172449748797032 5.639749123054451 5.580485053006065 0 0 0
204 1 7.327473865156228 8.996190059762151 5.334002234742345 0 0 0
172 1 5.324552258849496 5.5509837100764905 7.613892696038709 0 0 0
199 1 5.614379667237661 7.376991161458474 5.209445533916957 0 0 0
329 1 6.887574621008367 7.0465003424924 7.314894916150773 0 0 0
326 1 5.667492191176314 9.212007846984287 7.09725667071963 0 0 0
332 1 7.235030388719185 8.857666843569898 9.02786532578897 0 0 0
327 1 5.328991278762135 7.2056553712989295 9.000855572039299 0 0 0
208 1 10.49805583612039 8.920955706283314 5.689784103894083 0 0 0
203 1 8.900776395184844 7.375150166665009 5.1775601862798215 0 0 0
298 1 8.489479515330743 5.340031974396051 7.125400598020597 0 0 0
176 1 10.293119197860383 5.255337304587579 5.400338212552326 0 0 0
333 1 10.245113167216363 6.915585190962548 7.087214030301553 0 0 0
367 1 10.527570411448263 8.8257591682113 8.929757747959822 0 0 0
304 1 10.619550761589862 5.559717181607471 8.82317029663883 0 0 0
331 1 8.945743792283002 7.178190490764635 8.930722950169914 0 0 0
330 1 8.752387969660953 9.032280114761656 7.274942303067328 0 0 0
334 1 12.309342175236662 8.938344354699755 7.2655491304488065 0 0 0
302 1 12.263864375745268 5.567395305214041 7.264828889503926 0 0 0
207 1 12.110994535944617 7.472693547647808 5.536369907642461 0 0 0
335 1 12.319785407757925 7.1272183537314655 8.74162574315521 0 0 0
180 1 13.754210934792194 5.4923033329105095 5.38750097948449 0 0 0
308 1 13.959586233857479 5.391789642428203 8.738327658440376 0 0 0
211 1 14.17819024535363 7.304336812376863 7.22390984783679 0 0 0
212 1 13.7537903178268 9.315767562556053 5.435538729384599 0 0 0
340 1 14.031073720526475 8.622103070229098 8.908056794420979 0 0 0
216 1 15.757409173255178 7.419368581000558 5.45512721904304 0 0 0
306 1 15.886045750705653 5.445197153044569 6.867379727488427 0 0 0
339 1 15.919399098544394 6.935604966994003 9.028672416537177 0 0 0
337 1 16.166944841358116 9.001547849037623 7.072125013415895 0 0 0
312 1 18.052066671540807 5.667232910958311 9.301574176045124 0 0 0
184 1 17.848820261407354 5.73180381672803 5.050017995570798 0 0 0
214 1 19.39223271439348 7.363086857247089 5.205150781598774 0 0 0
341 1 17.856276359169122 9.045649352009198 5.478609998362408 0 0 0
310 1 19.49293461299321 5.846281406510681 7.16501534669056 0 0 0
343 1 17.63586960135852 7.088706006126055 7.075819806072476 0 0 0
342 1 19.396721544832282 8.941947610909967 7.130521949820558 0 0 0
338 1 17.50492745544254 8.430357523355747 8.98716790096075 0 0 0
316 1 19.47446959016125 7.433491109453011 9.154717601768938 0 0 0
187 1 20.854852981910966 5.7124345065163675 5.446608617178908 0 0 0
220 1 21.141452754039378 9.254976468243363 5.531200341097421 0 0 0
314 1 22.97748751696144 5.432288424012702 6.927709638633432 0 0 0
215 1 22.734278685166835 7.244623467316981 5.644776068832203 0 0 0
345 1 21.260317551915087 7.182309166377947 7.334195056955213 0 0 0
348 1 21.1181045652294 9.032096002771024 8.781036148198229 0 0 0
247 1 22.89482589034146 8.973810838780405 6.998736337914668 0 0 0
441 1 21.057154979286807 5.431511740478402 8.869157717594335 0 0 0
347 1 23.058828626024464 7.239380932575148 8.755690247084022 0 0 0
292 1 28.134370367620058 5.168477078861654 8.96305374998162 -1 0 0
325 1 28.06808106603654 7.094727003017423 7.612634132455315 -1 0 0
196 1 0.4374561559046987 8.964464683974313 5.344430544327187 0 0 0
321 1 0.3293851202296553 5.443653685692542 5.223464593849001 0 0 0
352 1 24.82389078897927 9.11487932442079 8.699519455563662 0 0 0
350 1 24.23682286586076 5.360668340066503 5.073434415116572 0 0 0
222 1 24.547094868448852 9.270126812762998 5.371457117101093 0 0 0
320 1 24.605554066807372 5.749380606074792 8.819245999002273 0 0 0
318 1 26.325245932221357 5.529111441662869 7.228645566133539 0 0 0
193 1 26.593591844204944 6.7736431629159455 5.431338793306125 -1 0 0
349 1 24.754917334110715 7.10298855012302 6.969914014964549 0 0 0
351 1 26.297987349100623 7.235985343511255 8.85409187698805 0 0 0
219 1 26.74027486518945 8.706101674195779 6.825476633829257 0 0 0
1051 1 22.9937068518255 14.09709607951198 1.8966401516325588 0 0 0
229 1 2.1224895844775964 10.782140285328522 5.503043811594674 0 0 0
354 1 2.2938087170254216 12.55587274286128 7.286435810137902 0 0 0
232 1 3.751980751649907 12.689514464876096 5.203768169576169 0 0 0
360 1 4.008812770031013 12.430653757665526 8.984702166450251 0 0 0
355 1 2.222246846816734 10.798352490607211 8.932262853310625 0 0 0
357 1 3.9192852480722706 10.842185618777977 7.086300263533589 0 0 0
353 1 0.5407892096814033 10.833146757034285 7.2691405697158205 0 0 0
228 1 0.2732385802377172 12.365246816781458 5.247441713172819 0 0 0
494 1 14.490096011898558 14.157933790669269 11.07473026159266 0 0 0
157 1 28.21151363217721 0.15497425258746161 4.096604134646077 0 0 0
236 1 7.438833588020029 12.442803081845407 5.216812947210372 0 0 0
231 1 5.6693249811197255 10.985131101557267 5.183299210690556 0 0 0
358 1 5.390817823322718 12.62622616886797 7.07487227330192 0 0 0
361 1 7.533903663744102 10.899850821948437 6.927602481000195 0 0 0
364 1 7.180007854680517 12.739987482720299 8.827664894269247 0 0 0
359 1 5.908411332659542 10.702277430990481 8.891008544423585 0 0 0
502 1 17.53617611968385 10.442524964568703 11.086010716282932 0 0 0
504 1 17.714572780173675 12.240461375358528 12.958355042975212 0 0 0
153 1 22.483372551466708 0.23450237476369296 5.728761748227509 0 0 0
235 1 9.21593330153149 10.823170552489351 5.275047195178736 0 0 0
240 1 10.60327048389258 12.693388114060513 5.238352715057766 0 0 0
362 1 9.003805233570697 12.66952248932262 7.12193295364106 0 0 0
365 1 10.666144260508014 10.783295875807523 7.353238901708112 0 0 0
368 1 10.695694428522684 12.603506458823889 9.011030829616875 0 0 0
363 1 8.660358739580039 10.961534603620137 9.015198168127018 0 0 0
239 1 12.069650285889317 10.890532251453129 5.257889435921152 0 0 0
394 1 7.075528576816217 0.23973065879737715 10.49671843818429 0 0 0
518 1 5.2774390756642235 0.27633274124869445 12.404970618941162 0 0 0
497 1 12.552989435781894 10.726062461643428 9.01441186752545 0 0 0
366 1 12.32461346723546 12.523184377087615 7.307121207758919 0 0 0
244 1 14.235422594728265 12.35237294280788 5.713058973322638 0 0 0
369 1 14.262300508756502 10.491847935548103 7.390221501209566 0 0 0
372 1 13.916426558455711 12.682200499514027 8.964942242929396 0 0 0
466 1 16.01180309012424 10.677439961387059 8.968781621519613 0 0 0
243 1 15.715673278474268 10.577122330931388 5.357417332237385 0 0 0
371 1 15.956750297852615 12.350359627004066 7.458460311574106 0 0 0
572 1 22.938138658841616 5.358018109631055 14.147804004517003 0 0 0
500 1 15.969632489489682 13.835757994892266 12.84094021622812 0 0 0
376 1 17.723936943364855 12.264345244459603 9.155361936599874 0 0 0
1302 1 17.51576268485674 12.457030785860484 5.549427336269987 0 0 0
124 1 19.17059502925015 10.987672169595253 5.402874277151062 0 0 0
374 1 17.72630607042099 10.714409562866296 7.148738096818939 0 0 0
1175 1 19.272849160674888 12.427958690444594 7.222182921801998 0 0 0
375 1 19.313017833476223 10.40004908237659 9.053947169287206 0 0 0
117 1 17.367105890854504 10.956953086244887 0.20933285992281694 0 0 0
143 1 12.522537590609573 0.3306886324032163 5.3257653963090945 0 0 0
379 1 22.787409145118836 10.611835055908816 8.878272477267517 0 0 0
251 1 22.67069299931346 11.101471344220062 5.5754535648764465 0 0 0
380 1 20.995363651250514 12.354154476000584 9.145570319587062 0 0 0
250 1 21.028439222939696 12.67321398642796 5.634694596702771 0 0 0
377 1 20.78305206156589 10.827503924716586 7.173498308111306 0 0 0
381 1 22.47057728854874 12.383778911199869 7.300776607367143 0 0 0
122 1 22.951764440641057 12.662908280783547 0.24066064012972982 0 0 0
356 1 0.3732237797748364 12.922031622303544 9.179149600896054 0 0 0
255 1 26.74100616678433 10.67987167966747 5.537998105932144 0 0 0
382 1 24.73738300388488 12.351186446916687 5.407496983806762 0 0 0
346 1 24.668694842482516 10.84066940064786 7.105664759177254 0 0 0
378 1 24.686487135565827 12.257584541954328 8.867582010288013 0 0 0
383 1 26.728431301755165 10.616918886093218 8.337537257137159 0 0 0
384 1 26.656715637905187 12.561510832523215 7.246162143736038 0 0 0
385 1 1.7484567638722495 1.9598657148169134 10.746822993028857 0 0 0
546 1 1.7360195585209177 3.65734007430659 12.660346323562685 0 0 0
419 1 3.406143503956506 3.428510087605515 10.889084367648344 0 0 0
386 1 3.4223650036563082 1.6904490866178996 12.439590377493621 0 0 0
388 1 0.26944120069195543 1.8636322062603086 12.715300823880522 0 0 0
625 1 14.46757902622858 10.276055758882968 10.884442123148762 0 0 0
1427 1 15.811612170035286 12.164283445511886 10.671191557147743 0 0 0
421 1 5.282230876674657 1.83614529922904 10.7250325794809 0 0 0
392 1 4.999967548712234 3.6869029586925937 13.166991038323154 0 0 0
396 1 6.8986021660440064 1.9150377664451335 12.53629420808304 0 0 0
425 1 6.837477549827908 3.868995906736992 10.877881860046658 0 0 0
98 1 2.0378632903989304 12.166422418113187 0.14462010138504758 0 0 0
397 1 8.553696239860049 2.1562822295815183 10.624090327305458 0 0 0
427 1 8.823529613109388 3.987353536471051 12.398512289103552 0 0 0
429 1 10.667509560070151 3.830976576841782 10.655633535052145 0 0 0
398 1 10.476186230170647 2.082533099535964 12.102592317842483 0 0 0
401 1 12.229416776166998 1.954636394341205 10.665672241086801 0 0 0
431 1 12.625167106506776 3.639861932747132 12.346242774430388 0 0 0
309 1 13.998588920694967 1.7936775572681878 12.596284673066707 0 0 0
433 1 14.156415798680797 3.590669841050378 10.653600082598675 0 0 0
402 1 16.019507731417164 2.137978181103402 10.871624802075495 0 0 0
622 1 12.41377322643074 10.930859614839262 12.589824894695585 0 0 0
1179 1 20.891080669601564 14.16643064268613 7.230697511103934 0 0 0
440 1 15.943633847671244 3.8547788234166056 12.468598247228504 0 0 0
530 1 17.882719227242454 2.1164070015662535 12.707197803572786 0 0 0
437 1 17.728868714078672 3.982527494944861 10.740640245457293 0 0 0
444 1 19.514256709139453 3.6158317591458786 12.487727872366627 0 0 0
408 1 19.319668612513915 2.4258448553874246 10.519301783283913 0 0 0
587 1 8.900759925792922 5.538891702167374 14.091885702144992 0 0 0
1295 1 14.65121143819845 12.034257452709596 12.570134190075194 0 0 0
175 1 13.940579909498465 0.47898868864588456 3.688860004207956 0 0 0
439 1 21.105892367271068 1.8476246145099182 12.802892953137187 0 0 0
406 1 21.568385730590755 3.585878909236405 10.977002633736502 0 0 0
410 1 22.98147783212113 1.8979950366366305 10.372675513618102 0 0 0
443 1 23.203600514797465 3.5118923853614246 12.48849806241316 0 0 0
493 1 12.794175054899219 12.270009754914373 10.790088951647064 0 0 0
417 1 28.119926593775553 3.585249399658862 11.042058881568769 -1 0 0
499 1 16.107255952448583 10.342969702344234 12.917236687732021 0 0 0
445 1 24.551274404883564 3.5575978623207205 10.402010700932358 0 0 0
416 1 24.56720064426765 1.648657406929189 12.231965963583168 0 0 0
414 1 26.26542209061629 2.037561351849688 10.700349724714556 0 0 0
447 1 26.278890981606658 3.2508703327049866 12.482844495684443 0 0 0
405 1 17.711929311259496 0.30588107711453705 10.714286923805373 0 0 0
418 1 1.9305776087137698 5.259966759814401 10.924722226855794 0 0 0
451 1 1.8175239263101794 6.904835887380381 12.546254871363697 0 0 0
456 1 3.5440347591436963 8.642768844519559 12.599261072723062 0 0 0
324 1 2.115641698261264 8.802888523650312 10.572853072974183 0 0 0
428 1 3.573851889534174 5.406558073756802 12.60604124716017 0 0 0
453 1 3.6011225742685347 7.1652579316065825 10.599445165815204 0 0 0
449 1 28.161259244954937 6.917239700605187 10.496195122916902 -1 0 0
420 1 27.997223267458637 5.3238414316170966 12.348255393263377 -1 0 0
300 1 6.9952283200167535 5.397572220868327 9.055282814072724 0 0 0
422 1 5.138618062633732 5.4056229637263264 10.55242554138881 0 0 0
617 1 6.962271768083498 8.719459010879985 12.635688668716183 0 0 0
423 1 6.906987973438086 5.519021545932469 12.590987338903327 0 0 0
457 1 7.010715266833616 7.3268752164823985 10.932437348285884 0 0 0
460 1 5.235421564260777 6.948799324929739 12.422705437364318 0 0 0
454 1 5.391298438032562 8.909676478219117 10.631635780217845 0 0 0
1183 1 26.803061131673743 13.952697898384997 5.1922156449637535 0 0 0
609 1 0.22190796303504476 10.609493262144749 13.595872771931749 0 0 0
426 1 8.80938734845639 5.423875830047176 10.640123436785478 0 0 0
459 1 8.904395497182374 7.4665325876326545 12.455758262294808 0 0 0
458 1 8.973481514359376 8.874047033636762 10.455716225860535 0 0 0
432 1 10.850426585999248 5.450359167416616 12.182845959516184 0 0 0
461 1 10.754612326372076 7.130366977086107 10.648685885374563 0 0 0
464 1 10.665151872567538 8.992367949092257 12.28208333590587 0 0 0
634 1 22.92967665036938 12.6246764691078 13.9744899929409 0 0 0
261 1 3.667953142325047 0.38354336415786383 7.167731120916598 0 0 0
1281 1 0.5209714046350482 13.985644642891542 7.10340510944908 0 0 0
1565 1 24.766173936728308 13.860437291742098 13.940073285410504 0 0 0
430 1 12.514792368035057 5.6710504584308445 10.348763422733361 0 0 0
463 1 12.353896570377113 7.124341069994026 12.666750006060784 0 0 0
462 1 12.43640307486765 8.890429419474568 10.841355577588194 0 0 0
435 1 13.826535702351716 5.551496899165076 12.722091729652798 0 0 0
465 1 14.153137962496244 7.049750541280794 10.950308013906254 0 0 0
495 1 14.523379227158639 8.594983125434087 12.724813759914348 0 0 0
436 1 15.907481962752172 6.759380762804335 12.602207957752242 0 0 0
501 1 15.992773423546417 8.733662265563565 10.59273267477619 0 0 0
434 1 15.68661666211031 5.471522955907482 10.61004343057862 0 0 0
1177 1 21.050395714220407 13.839511852043932 3.360270990304654 0 0 0
438 1 19.709035773563855 5.222050358190959 10.778705277576984 0 0 0
470 1 19.248841316705594 8.861177878109013 11.23084386465735 0 0 0
467 1 17.949500443564517 5.432336098539192 12.469696648999857 0 0 0
594 1 17.801941795096184 8.813823517812308 12.662825766331144 0 0 0
472 1 19.31103382208483 7.0741921647690855 13.030162950915175 0 0 0