LAMMPS data file via write_data, version 29 Oct 2020, timestep = 300000

2048 atoms
1 atom types

0.19765680841749145 28.15434319157695 xlo xhi
0.19765680841749145 28.15434319157695 ylo yhi
0.19765680841749145 28.15434319157695 zlo zhi

Masses

1 58.933

Atoms # atomic

8 1 1.9801479035321452 3.642517651867215 2.1728226430883377 0 0 0
163 1 2.0692195742553388 1.629184492517629 3.7005819348899847 0 0 0
132 1 3.796594821898412 3.390094609188228 3.7997151517378063 0 0 0
130 1 3.8418817106147225 2.0343107631908715 1.7909863948193767 0 0 0
161 1 0.36775131608944633 3.46756092764679 3.761218994471113 0 0 0
4 1 28.13782414097105 2.0463114677148573 2.0875163557693623 -1 0 0
1167 1 12.310368829536445 13.831059185932233 5.7926869610770595 0 0 0
147 1 15.897699169301362 0.5426699574481297 5.349762992293251 0 0 0
12 1 7.226110115825214 1.9470155927328254 1.861660197708876 0 0 0
39 1 5.31803558592251 3.9549197758582055 2.1696760222650804 0 0 0
134 1 5.650093154713429 1.9657500941322292 3.771338828108303 0 0 0
166 1 7.356892274741333 3.744423398346415 3.6116358223441187 0 0 0
512 1 24.671186650424314 12.372581137334278 12.503895920602575 0 0 0
1298 1 17.530999347771594 13.90617437143326 7.1356966714886525 0 0 0
1514 1 10.757917130245561 0.28287418679248333 10.960217668357675 0 1 0
511 1 26.4052696628555 10.606338228364265 12.44583300305453 0 0 0
169 1 9.037558067999846 1.9929962303298596 3.7990463146702247 0 0 0
41 1 9.02428001795023 3.614873361502888 1.9939008807153462 0 0 0
173 1 10.905442956452696 3.7550526695123567 3.563047228922776 0 0 0
15 1 10.730318134039537 1.8241016893051214 1.82585854692576 0 0 0
1439 1 26.426077315047465 13.84545429484 12.422087457564759 0 0 0
510 1 26.373170797663438 12.352696061363977 10.629140650689113 0 0 0
129 1 26.379894157349938 0.4449273597396749 1.8276073542291404 -1 0 0
98 1 1.8368604054513198 12.488956840631449 0.3533693017390448 0 0 0
49 1 12.253062965623242 3.4259677565642117 1.9675905636886815 0 0 0
142 1 12.402561141579966 1.6811908831940925 3.7759860591088494 0 0 0
20 1 14.078134261423747 1.9630168483914663 1.8456788324841555 0 0 0
146 1 13.95708090810191 3.879856565177055 3.64642536670406 0 0 0
151 1 15.57639473823109 1.7654480276844406 3.6439592675875194 0 0 0
51 1 15.765324643719158 3.781958344218932 2.0138923427358035 0 0 0
968 1 5.638313527168038 8.877892481844809 0.22076040699796812 0 0 1
509 1 24.45549565921241 10.500612452939972 10.583441352402762 0 0 0
389 1 3.506676424575083 0.2448927425077052 10.387429740876204 0 0 0
181 1 17.394287453182958 3.612458280080527 3.7638302157070234 0 0 0
19 1 17.47264933176499 1.9323588230460382 1.8564644723561032 0 0 0
1398 1 19.323235700527977 1.9885653405562371 3.7895235293196015 0 1 0
150 1 19.18904866785366 3.6887241260505887 2.074748288893419 0 0 0
38 1 5.247013588388503 5.298365180163925 0.21645297824243354 0 0 0
56 1 17.80138314613324 3.7338066723808945 0.26204410556282476 0 0 0
74 1 8.465023634774653 8.776710008432572 0.24530014118596455 0 0 0
154 1 22.98703191143476 2.1511020507047625 3.772657654419256 0 0 0
185 1 21.113193009196443 3.7021273109049506 3.7793724714111736 0 0 0
22 1 21.207992332527944 2.022991593372252 1.9320006980122841 0 0 0
59 1 22.873218380520743 3.721571736460387 2.027702777013247 0 0 0
61 1 24.537972687948855 3.84977595427747 0.33180188131445243 0 0 0
507 1 22.64794673159783 10.919392335007137 12.681670833690946 0 0 0
508 1 21.120105106860116 12.476937587438472 12.718681491259012 0 0 0
223 1 24.794381739713625 3.6272042939263898 3.808057186401272 0 0 0
32 1 24.636819844054134 1.756291754663546 2.2353012724696986 0 0 0
189 1 26.240911079496925 1.6110733849198473 3.6981550522745374 0 0 0
33 1 26.278529194289966 3.694709521102011 2.145701576751999 -1 0 0
403 1 15.735934841500647 0.40238599660658636 12.429127346000449 0 0 0
6 1 5.342436955170658 2.029639658369418 0.2512346532267194 0 0 0
1165 1 10.456541239969923 14.004319023016398 3.8090952183888644 0 0 0
505 1 22.77524034891179 12.345292672579273 10.892351585049324 0 0 0
162 1 2.04620891262293 5.352844455178978 3.7796394975328695 0 0 0
40 1 3.540711004261264 5.488104610937549 2.0279713513623268 0 0 0
67 1 2.0684057516714063 7.247653926445824 1.9015067466950974 0 0 0
194 1 1.9614354694586413 9.121256820213272 3.5479343845503184 0 0 0
72 1 3.9486442207171737 8.891249206468272 1.8998683570621298 0 0 0
197 1 3.4821333364836873 7.100548312297004 3.8326619783733182 0 0 0
1437 1 24.69987671061347 14.021252365775615 10.832312862428237 0 0 0
395 1 8.94677964732204 0.43082112216523466 12.447369990952735 0 0 0
628 1 12.419823843888077 12.388314047755703 13.98404999376696 0 0 0
165 1 5.4368870803581055 5.573391367584564 3.9407897660597757 0 0 0
44 1 7.12017103916227 5.318778737762003 1.9022494430848587 0 0 0
71 1 5.592033756850714 6.955408590752647 1.8932065733296715 0 0 0
201 1 7.154386305336825 7.090661458332054 3.8805211380985964 0 0 0
76 1 6.9545572302564045 8.572491488326422 2.0134710099874455 0 0 0
198 1 5.229159205339326 8.545784775264927 3.8288642619788877 0 0 0
1429 1 17.61850160411911 14.146458142417758 10.783279381820485 0 0 0
1153 1 0.27588224396127714 13.951784578402481 3.7655082390811776 0 0 0
202 1 8.760923481751892 8.734103955828937 3.5382365605374426 0 0 0
47 1 11.093156272796985 5.535370806501758 1.8094470651960557 0 0 0
48 1 8.642463061427035 7.142260348977662 1.8282322843434424 0 0 0
170 1 8.934427038529911 5.56660022587327 3.5931825783337907 0 0 0
205 1 10.514200314916183 7.328205700598185 3.7178899836483033 0 0 0
80 1 10.646435969021004 8.830005592773382 1.817170168294625 0 0 0
174 1 12.507015948361513 5.564266626254234 3.651480048649054 0 0 0
66 1 2.002321455473507 8.962930211136744 0.264312690556309 0 0 0
2 1 1.693301804523586 1.858954166120064 0.296439440414696 0 0 0
28 1 21.465637775914132 0.23225931928297544 3.961998245269508 0 0 0
206 1 12.677700245580517 7.19327397327221 1.9959240373439588 0 0 0
237 1 12.561052796592994 8.901331259967579 3.86520031807693 0 0 0
178 1 14.079078774430426 5.303415287531766 1.804843963760462 0 0 0
209 1 14.34134751071203 7.290493112132559 3.886232274400808 0 0 0
241 1 14.336326740501162 8.943018479127828 1.9016553018056601 0 0 0
213 1 15.818840767212652 5.202487061524431 3.8993441708620806 0 0 0
83 1 15.704601896418263 6.937565166123398 1.80637694774523 0 0 0
210 1 15.672192910671244 9.289256555331594 3.7866522736930515 0 0 0
37 1 3.3317970996420225 3.6253921336845965 0.33842687859932685 0 0 0
541 1 24.673985607274386 0.2668766108146724 14.128122712700705 0 0 0
85 1 17.48549302651539 7.376342508107804 0.23589157986718376 0 0 0
7 1 5.397761338532233 0.3811843212592585 1.8943530676780742 0 0 0
1423 1 12.421071105918685 14.069280799011608 12.368256702610324 0 0 0
182 1 19.38515763522609 5.5047180581643245 3.459454272120621 0 0 0
87 1 17.547022634490933 5.5815318196447805 1.700997122981687 0 0 0
54 1 17.424239683084448 7.380159636592715 3.7033523866841516 0 0 0
249 1 19.119109412484004 7.3023643289264095 2.111334726622095 0 0 0
373 1 19.49381595312842 9.013460116769133 3.6089447423954897 0 0 0
88 1 17.57238243910079 8.826185960781997 1.9782192406325376 0 0 0
394 1 7.159367586248868 0.22520859762293485 10.613453553264284 0 0 0
590 1 14.271194623589599 10.73391945630422 14.165799113778297 0 0 0
60 1 21.258400389323494 5.2479186749955975 2.152820174435778 0 0 0
186 1 23.111630547633748 5.299862920702901 3.502780386567199 0 0 0
91 1 22.562073366037307 7.4003597709313285 1.8400497292113194 0 0 0
217 1 21.182069998817326 7.196679620509476 3.485644102625713 0 0 0
92 1 20.938965214144183 9.357529707406558 1.6404078648722367 0 0 0
218 1 22.815139081431454 8.987601521506537 3.6824676359282758 0 0 0
63 1 26.42871155941089 2.5277851143500674 0.32024457972197895 0 0 0
1183 1 26.117052674973298 14.029874695581022 5.451426326642181 0 0 0
68 1 27.999859728037375 7.070764534833085 3.476949973525299 -1 0 0
36 1 0.27397984228456107 5.568223217112329 1.8093467871173046 0 0 0
27 1 22.86193150706286 0.30076841283741373 2.11830490350376 0 0 0
494 1 14.090480516763224 13.923801379469172 10.895517394010508 0 0 0
95 1 28.003375352232037 8.983968760999616 1.9049321912993011 0 0 0
190 1 26.514902951028134 5.598113767151435 3.4960183301382086 0 0 0
64 1 24.716351356507715 5.547186089925854 1.8662205960023346 0 0 0
123 1 24.61450240715483 9.015532533483189 1.9333120522433997 0 0 0
224 1 24.748133322076942 7.1448847815535155 3.5732545676287386 0 0 0
221 1 26.20367879477638 7.417696577684433 1.7881195771160991 0 0 0
96 1 26.177769474350896 9.190980756529388 3.537811937479736 0 0 0
1258 1 10.582078953226025 0.3308509947266707 3.627462386049689 0 1 0
344 1 21.05156414912661 10.75465507586451 10.8645616879242 0 0 0
152 1 21.00499314429885 0.4663783389044376 7.205305122048597 0 0 0
99 1 1.709787239228571 10.804543451710156 2.0309844740993874 0 0 0
226 1 2.1264184489814184 12.838791467490497 3.9487496916506504 0 0 0
1000 1 3.578048967069394 12.348753588624145 2.1569448884778613 0 0 1
104 1 3.8783386373811317 10.37569299589725 3.8380791030407493 0 0 0
225 1 27.97184915051732 10.883802339103097 3.720288367055983 -1 0 0
100 1 28.056067388959505 12.514251072012634 1.9749580040366284 -1 0 0
407 1 20.9263211846692 0.28326770517726274 14.168794465913038 0 0 0
1311 1 26.285670325249203 14.069226863335423 9.03443889900999 0 0 0
1035 1 8.895625322772036 14.162268064077999 2.0646322295960085 0 0 0
103 1 5.247179375958109 10.693325913360278 1.9504672825026577 0 0 0
108 1 7.089879970866194 12.43671885850447 2.2572820837527434 0 0 0
230 1 5.5000860312437725 12.173993879370048 3.886603366338505 0 0 0
233 1 7.060275027955521 10.308483630661971 3.6251253644445236 0 0 0
136 1 3.6481199101221287 0.2503660264935921 3.629579617693081 0 0 0
1031 1 5.311598580583484 14.082461756880994 2.0197247824905 0 0 0
287 1 0.4225055052469955 0.5586612701100644 10.629699772510811 1 0 0
1027 1 1.896536349545537 13.993119577113108 1.9912357926061883 0 0 0
35 1 0.4156053960675118 3.6713853254362165 0.3851124873957499 0 0 0
1042 1 17.596989716889368 13.997428085520234 3.9697857632705613 0 0 0
234 1 8.761640641429972 12.182254410245422 3.761991782655498 0 0 0
107 1 9.177258953000312 10.607035593171029 2.058637054958747 0 0 0
112 1 10.873229990717938 10.545368600226873 3.6986857440035568 0 0 0
111 1 10.845084261103 12.435880723168912 2.192320791522888 0 0 0
106 1 9.12623210176714 12.310077299189352 0.5176559596237827 0 0 0
538 1 22.962026488240166 1.937877822949357 13.817742637701938 0 0 0
413 1 24.64517262283767 0.239118439530138 10.654111444331207 0 0 0
113 1 12.303559037611672 10.570521783460975 1.9657228263858801 0 0 0
238 1 12.31610113403066 12.573790628835663 3.8434854973262054 0 0 0
116 1 14.160088413206278 12.41629909841819 1.9938973363387738 0 0 0
1043 1 14.019617028073746 10.727510944006916 3.832566854240011 0 0 0
248 1 15.8392517590204 12.303861320031434 3.983685077684084 0 0 0
504 1 17.821729416784326 12.470018862989145 12.2510175297964 0 0 0
257 1 28.094011252501325 0.2997824058689338 7.116075977164407 -1 0 0
1433 1 19.405767785033607 12.487024517024432 10.84370292841245 0 0 0
79 1 15.703623845879436 10.652139949974632 1.996950026931986 0 0 0
84 1 17.402364522216093 12.545309226030223 2.0705148718560293 0 0 0
245 1 17.700082746846885 10.624967843562105 3.6431864462810313 0 0 0
246 1 19.470441239014786 12.584674281365864 3.768167133510359 0 0 0
119 1 19.439577007174567 10.830069584272952 2.1304191021044274 0 0 0
972 1 7.314696914466642 10.885582695440956 0.3690524094929411 0 0 1
1179 1 21.25787421963789 14.084511670424238 7.248919993033231 0 0 0
265 1 7.436765595109263 0.20687048851558387 7.494674093043863 0 0 0
1266 1 12.444884967532971 0.21401939851062934 1.7991444414307998 0 1 0
139 1 8.930597204435214 0.22537251330323116 5.720161438833775 0 0 0
1173 1 21.24896231360297 12.656833944452769 1.9184511475815684 0 0 0
256 1 22.67860363436805 12.435160969433879 3.590475081736895 0 0 0
1047 1 22.90157972986482 10.633959311003816 1.8190413423077858 0 0 0
118 1 21.133869515595297 10.762690163731413 3.5913802606187977 0 0 0
1169 1 14.10570731957995 13.99598134617886 3.602647723081542 0 0 0
578 1 28.002186856233042 10.796876967234997 10.705081985814584 -1 0 0
502 1 17.535806163094627 10.398062995194515 10.63466477212792 0 0 0
128 1 24.407084997094174 12.739382902582781 1.8658882537728667 0 0 0
253 1 24.37738427160995 10.889932027386632 3.4951852302663933 0 0 0
127 1 26.041525219738844 10.899755695900522 1.928936911665871 0 0 0
254 1 26.206107460845082 12.467692352041379 3.6252957644642314 0 0 0
135 1 5.670531599712676 0.3801737018825122 5.750456792703248 0 0 0
1434 1 21.219945747555006 14.059732684271287 10.757515464358264 0 0 0
482 1 1.7262840717020957 12.384306012306775 10.560456598316982 0 0 0
503 1 19.37977908570206 10.722826339303229 12.568250323127222 0 0 0
164 1 1.835320837651677 3.522408186355583 5.54427536289667 0 0 0
258 1 1.8146394195804416 1.953861522943437 7.263185183303385 0 0 0
294 1 3.777216631567092 3.5815210155203387 7.34714014295282 0 0 0
133 1 3.771481785772695 1.9248456664868892 5.668309841027407 0 0 0
291 1 2.009319680012518 3.637084461301175 8.970221181854672 0 0 0
264 1 3.4331494716273325 1.8747618925650713 8.979130588126374 0 0 0
159 1 28.14795934338501 1.9325965308604849 5.465652731947671 0 0 0
62 1 26.574166926355364 5.331887280469289 0.3066887152863513 0 0 0
1425 1 12.112874520677984 13.985940532507456 9.150972402599676 0 0 0
140 1 7.343638962626693 1.9710081155934998 5.475453703330299 0 0 0
167 1 5.587019606041573 3.8428468939144644 5.474102345270366 0 0 0
262 1 5.65857364704295 1.9558117822221932 7.270836631442865 0 0 0
297 1 7.189763511410808 3.5706396187270824 7.199089125107184 0 0 0
295 1 5.385701093579057 3.8222742645413397 8.95552939835674 0 0 0
268 1 7.173372259702954 1.983458324284233 9.008616363856866 0 0 0
485 1 3.7412809340642927 10.578251878400138 10.727034812954917 0 0 0
138 1 8.82829789434526 3.7043706096301108 5.450951918328077 0 0 0
144 1 10.688828451747264 1.6905423086810094 5.559859718309962 0 0 0
266 1 9.09156821186382 1.8195976140996266 7.3680841989417925 0 0 0
301 1 10.608921338764889 3.6732510371461364 7.298730001801305 0 0 0
272 1 10.65796221964375 1.985267032591321 9.063196826096648 0 0 0
299 1 8.80554402777842 3.517707899092513 8.930093311301317 0 0 0
1427 1 15.97685453119156 12.183040640903151 10.8032983695738 0 0 0
260 1 26.621066914315325 0.35328525602512884 8.836121134953496 -1 0 0
481 1 0.24631071311703323 12.39896874736703 12.458042933986226 0 0 0
177 1 12.404321289880759 3.609602290949247 5.4393434600248085 0 0 0
270 1 12.339739929713692 1.730049064386522 7.361763041342241 0 0 0
303 1 12.350004590828984 3.7915982270632522 9.032380494803508 0 0 0
148 1 13.960603205204801 1.8305283478565062 5.721168856533079 0 0 0
305 1 14.155415720838283 3.7876432407939764 7.4408370696611525 0 0 0
276 1 14.009063692048407 2.0075235781157375 8.84940998491699 0 0 0
277 1 15.759102236939805 1.8440706295482476 7.269312814098197 0 0 0
274 1 15.921328600904562 3.764020499008751 8.996581731261449 0 0 0
179 1 15.68017585981878 3.5331617323986984 5.482287129534558 0 0 0
242 1 15.503778281967255 13.87886402337244 5.605303115047511 0 0 0
499 1 16.275257294029473 10.64676100985481 12.618719439074468 0 0 0
1295 1 14.6044238796026 12.45839909660651 12.592298836791949 0 0 0
280 1 17.60223737669763 1.9162615062759847 5.708168093027717 0 0 0
282 1 19.39962852822834 3.755520329016557 5.404424127443224 0 0 0
183 1 17.848006786432464 3.605513422743448 7.0805000030488205 0 0 0
278 1 19.29169703173801 1.9354741312908978 7.365510978783515 0 0 0
1526 1 17.543430094907066 1.8749836155206931 8.96646780787298 0 1 0
311 1 19.244178717139796 3.858932807937009 9.178869774499823 0 0 0
3 1 2.096912719840871 0.28425070745492576 1.9069467554981063 0 0 0
622 1 12.484020513778434 10.517717667598717 12.516196712414178 0 0 0
156 1 21.19802148545979 2.1394648592575596 5.712256398486515 0 0 0
192 1 23.08267884661441 3.722536108506718 5.423833858166186 0 0 0
281 1 22.787693101885864 2.33363858301761 7.399022421375913 0 0 0
313 1 20.83683883934558 3.9292846731443163 7.333422941554302 0 0 0
284 1 21.172463310967306 2.1174828884822645 9.109389816466743 0 0 0
315 1 22.948045905874643 3.844961873171999 9.030883696089125 0 0 0
493 1 12.157606730602524 12.2179544289711 10.718441287257589 0 0 0
259 1 28.128265048856573 2.049967604362406 8.700410581789194 -1 0 0
289 1 28.105050494086683 3.7492517184272147 7.156383021780604 -1 0 0
317 1 24.61944242310888 3.6612133054185723 7.184993109681273 0 0 0
160 1 24.42426010534395 1.9016226798531097 5.750198507477283 0 0 0
288 1 24.572623998485266 1.8175799085597284 8.982669281005041 0 0 0
191 1 26.48823608380919 3.688095845637779 5.402012481726474 0 0 0
158 1 26.3354890091806 1.92278612509536 6.999945606048429 0 0 0
319 1 26.191946538852637 3.958284031501967 9.068844891459957 0 0 0
195 1 1.54346420283879 7.127149352105558 5.1234560994210865 0 0 0
293 1 1.7571874885479466 5.50863938007981 7.008967946086986 0 0 0
323 1 1.980632007562013 7.4786093321122715 8.867127529628238 0 0 0
227 1 1.8266870441541576 8.91939670471312 7.317215785034324 0 0 0
296 1 3.273886206818853 5.423492396532163 8.820013787769343 0 0 0
200 1 3.5675874170098116 8.75102680422242 5.649310470902399 0 0 0
290 1 3.7247428357977896 6.939283970329496 7.307519820094308 0 0 0
168 1 3.845141880678883 5.432508036674821 5.576113309946886 0 0 0
328 1 3.646697102875951 9.031143598227052 8.816985363786113 0 0 0
322 1 27.91217112746615 8.780812797136841 8.835291654645168 -1 0 0
172 1 5.682873758590119 5.272187262617648 7.213440757153785 0 0 0
171 1 7.3666082780938185 5.359585836877797 5.445637258170292 0 0 0
204 1 7.530646807354986 8.93698930078394 5.59037801275204 0 0 0
199 1 5.4836408794559715 7.134264595817224 5.79454211700673 0 0 0
329 1 7.282093028999604 7.14405314450929 7.345377500202588 0 0 0
326 1 5.525067231698144 8.927202254229528 7.308314162769154 0 0 0
332 1 7.206579921445263 9.000449361163739 8.955313313839012 0 0 0
300 1 7.2842010927094405 5.265067976362944 8.758759722606921 0 0 0
327 1 5.187796798139562 7.064142860245745 8.973927036414203 0 0 0
208 1 10.836994281876905 8.82147772064689 5.171023673683261 0 0 0
203 1 9.063970967272372 7.202444538817018 5.6000802329590185 0 0 0
298 1 8.899488709628685 5.612489420419248 7.339071930749551 0 0 0
176 1 10.523631911237302 5.16192470993541 5.320654410674049 0 0 0
333 1 10.685299353145982 7.085592833026388 7.406645715160212 0 0 0
367 1 10.866922360974716 8.725558215615026 9.252506001786633 0 0 0
330 1 8.963717098811086 8.906897656505429 7.372470096904325 0 0 0
304 1 10.71886874736205 5.33829124957064 8.928459250358035 0 0 0
331 1 9.0836541154404 7.401142925698323 9.019522369468897 0 0 0
212 1 14.141155993402398 8.999784264708177 5.537405338849333 0 0 0
302 1 12.411480765580604 5.252126526510171 7.265157365545263 0 0 0
334 1 12.503712100090466 8.629528299071808 7.447184108883924 0 0 0
207 1 12.411611382580146 6.876658789300934 5.349654732241898 0 0 0
335 1 12.408612399642344 6.975103923968376 8.885196402774865 0 0 0
180 1 14.187559905448495 5.322917555439085 5.669310226742171 0 0 0
211 1 14.220472219773475 7.142883364195048 7.268194641917642 0 0 0
308 1 14.327094822106158 5.563677002126993 8.785250047347597 0 0 0
306 1 16.142531004408866 5.205351846219826 7.049427224092952 0 0 0
337 1 15.744442038226502 9.192843289719761 7.194109720145796 0 0 0
216 1 16.08935983739223 7.295674887425856 5.5537000216286945 0 0 0
339 1 16.109897725993058 7.324921288629262 8.884524404726818 0 0 0
340 1 14.139144344272879 9.171848926637507 9.081168347497126 0 0 0
341 1 17.78140028265557 9.122317105364225 5.362337832148693 0 0 0
310 1 19.268773710779055 5.620894440105778 6.874503845277289 0 0 0
312 1 17.701248495320243 5.834127930443012 8.63570477440145 0 0 0
184 1 17.767082929598843 5.290490884090341 5.236623735690248 0 0 0
214 1 19.391243862924938 7.171059619472836 5.044370659651393 0 0 0
343 1 17.75728675210776 7.200203732141608 7.0033589353611605 0 0 0
342 1 19.425296668756335 9.043946009786584 7.144079321827442 0 0 0
338 1 17.856521550521162 9.024773212436507 8.853762407712635 0 0 0
316 1 19.508902431509895 7.288526795225831 8.68586267899006 0 0 0
441 1 21.229517478393763 5.486727932838278 8.92427459471449 0 0 0
187 1 21.256897666308948 5.434223344977838 5.398456719797356 0 0 0
314 1 22.947070658932937 5.382158519569592 7.151991715330753 0 0 0
220 1 21.024505162170065 8.971067467424433 5.344823657276842 0 0 0
215 1 22.900828822182763 7.308422960232965 5.145195707429093 0 0 0
345 1 21.212598346301633 7.24698244742522 7.201543151573255 0 0 0
347 1 22.790566280033154 7.2622519837791755 8.977846282447567 0 0 0
247 1 22.977662028769142 8.967749849427745 6.9195030973947285 0 0 0
348 1 21.20248611853754 8.978217021121552 8.842167026175249 0 0 0
292 1 0.2247318521467463 5.3685635083859395 8.745005540368261 0 0 0
196 1 28.026998596831508 9.17341219677866 5.268762136116908 -1 0 0
325 1 27.953627124985374 7.455553434683426 6.977815689266967 -1 0 0
321 1 28.033377146271366 5.380846378653272 5.348490891680541 -1 0 0
350 1 24.714599010461725 5.482732865486401 5.374278832157412 0 0 0
222 1 24.609828649632053 9.247065331842908 5.364514502388828 0 0 0
318 1 26.242745339711533 5.342503648684902 7.180074541112855 0 0 0
349 1 24.35736503230194 7.035113132889693 7.286831977575957 0 0 0
320 1 24.37546790101724 5.654388628600589 9.102495739435671 0 0 0
193 1 26.137454819359824 7.423578767151726 5.290211263894475 -1 0 0
219 1 26.046254139761736 8.899607801670657 7.112091488046318 0 0 0
351 1 26.247542398131085 7.170474815573016 8.972778106642428 0 0 0
352 1 24.45823377469586 8.698985994829938 9.061543053947258 0 0 0
1297 1 14.067521051676794 14.108111121948703 7.461770686953826 0 0 0
625 1 14.11766091596786 10.899430658453655 10.897267413834232 0 0 0
229 1 2.185467028842891 11.066299067454384 5.024035541567867 0 0 0
354 1 1.7299973901806902 12.432940934656056 7.1871441859750655 0 0 0
357 1 3.7043449106982758 10.676942670719638 7.230800429377438 0 0 0
360 1 3.5821233516074495 12.442989953186176 8.897383396416387 0 0 0
232 1 3.8764942548283634 12.66321266408159 5.698052503167972 0 0 0
355 1 1.9342783431647335 10.711282506083482 8.830843398936688 0 0 0
356 1 28.129401996658995 12.258843650264977 8.832758018484732 -1 0 0
514 1 2.275038668259126 2.372303902820519 13.908116525174261 0 0 0
131 1 1.8471466746522531 0.2060767870757193 5.580114181893243 0 0 0
231 1 5.263308600459006 10.46205324652471 5.485273596729474 0 0 0
236 1 7.172152893411224 12.183146248565894 5.511974160077655 0 0 0
358 1 5.7813967276552924 12.612633143632157 7.360992998626753 0 0 0
361 1 7.358845213758002 10.776780986471486 7.262778286422494 0 0 0
364 1 7.3475256744968265 12.464207628929929 9.029037014891394 0 0 0
359 1 5.685400980357597 10.894112862344024 9.062520897625452 0 0 0
448 1 24.814863410719106 5.595644837611435 12.280316519781573 0 0 0
479 1 26.457995243132263 7.386114168809705 12.526137243560557 0 0 0
235 1 9.13183673543439 10.460729464487734 5.231469469138687 0 0 0
240 1 10.428957662990312 12.484471678755707 5.835221130905325 0 0 0
362 1 8.78559227834616 12.739189123064055 7.465021436136846 0 0 0
365 1 10.22750022796883 10.78779311190068 7.428071524274379 0 0 0
363 1 8.77478151676939 10.57934347366039 9.15990637309862 0 0 0
368 1 10.259732910352522 12.552414088699738 9.208000366486782 0 0 0
239 1 12.41457001296193 10.200831391090043 5.79201005532456 0 0 0
366 1 12.176101610786962 12.258103726392141 7.444967230186142 0 0 0
497 1 12.120204738059792 10.66131204532359 8.947604145605224 0 0 0
244 1 13.875904675434791 12.253577597573907 5.651425582404694 0 0 0
369 1 14.022638318872646 10.767390423047779 7.478018690841322 0 0 0
372 1 13.929361442235601 12.541058237132374 9.047215232378088 0 0 0
466 1 15.789183742477135 10.696662387024906 9.124059707240193 0 0 0
243 1 15.938703452485209 10.771668341068244 5.629039036648975 0 0 0
23 1 19.244570252519296 0.2847839374325538 1.9920782984021408 0 0 0
446 1 26.463484970637584 5.762162896176239 10.809158684470965 0 0 0
1285 1 3.802078242647406 14.077793738064548 7.3041050200501765 0 0 0
371 1 15.77568501461597 12.298660146107789 7.618467143622577 0 0 0
124 1 19.32824777651999 10.86555735147111 5.659317637135515 0 0 0
375 1 19.52696191847033 10.728368494823583 9.126255084432165 0 0 0
376 1 17.864983841910266 12.450877496048816 9.16025992932461 0 0 0
1302 1 17.54351073689642 12.24426504002687 5.494838088588713 0 0 0
374 1 17.701261130001804 10.732972065102938 7.374048894404112 0 0 0
1175 1 19.43191522695291 12.608534700590448 7.375672333378939 0 0 0
379 1 22.84571715306745 10.864738477348572 9.048194771940853 0 0 0
251 1 22.6286848885031 10.669629959244812 5.320712573694663 0 0 0
380 1 21.258206244431733 12.528597645714479 9.079409627086312 0 0 0
250 1 21.355715804995647 12.509618656513224 5.476657032071199 0 0 0
377 1 21.204621002715147 11.012224247961871 7.441699004217507 0 0 0
381 1 22.982502070572096 12.29293497998639 7.3354569511874 0 0 0
336 1 10.326361297900814 10.694282894546726 10.505902189532833 0 0 0
496 1 10.602407690586617 12.292902871086659 12.337312930092335 0 0 0
228 1 27.886817691438722 12.509561286646207 5.572423035452614 -1 0 0
353 1 28.076114718790826 10.522427905280061 7.108384697225179 -1 0 0
382 1 24.399179447809473 12.289346313099335 5.488011429698666 0 0 0
378 1 24.508553592834545 12.39640743881913 9.01969790017064 0 0 0
346 1 24.56591556130349 10.36804497900544 7.499247141854764 0 0 0
383 1 26.25519424186085 10.501722523377982 9.057218678148164 0 0 0
255 1 26.13134527067567 10.689227815911307 5.50624733882284 0 0 0
384 1 26.25741558394621 12.377120691094415 7.038500365779042 0 0 0
490 1 8.865170921345236 12.473273562439095 10.944061325789901 0 0 0
385 1 1.9242645597917964 2.229553020819056 10.91044162895934 0 0 0
546 1 1.820374419890304 4.020808592429225 12.404427847219903 0 0 0
419 1 3.7024572517567145 3.651583699834906 10.724465517427728 0 0 0
386 1 3.9807900238907323 2.1970688259266176 12.358422274218267 0 0 0
480 1 24.441604218629998 8.983067903668708 12.374494734256938 0 0 0
549 1 5.419802814731051 2.027281650572906 14.149164442691088 0 0 0
452 1 0.29880498447262127 8.778415400063048 12.368618720445847 0 0 0
491 1 8.998673669515398 10.5989387405158 12.438222114130115 0 0 0
421 1 5.072888526397864 1.8486710323989046 10.588633367306615 0 0 0
392 1 5.425345666670045 3.990610229537107 12.249051510786662 0 0 0
396 1 7.206563694741687 1.9174017176270728 12.26263736122503 0 0 0
425 1 7.5325069977931705 3.679793695901558 10.701832104611768 0 0 0
420 1 28.109054705812817 5.75419571068441 12.512071454739308 -1 0 0
397 1 9.082331290493013 1.9040550910963072 10.702451134225175 0 0 0
427 1 9.101223237708618 3.7776683213435964 12.602338908095607 0 0 0
429 1 10.642460044395314 3.8039441321151513 10.897760741559889 0 0 0
398 1 10.628235230590347 2.117079907249406 12.337523121587067 0 0 0
1307 1 23.09765108829139 14.077942988059322 8.966651466984027 0 0 0
400 1 9.046485867200653 2.031394769916706 14.15763441645723 0 0 0
489 1 7.116838456971183 10.860642423918756 10.81750423673072 0 0 0
1055 1 26.35808745835571 13.982017509261528 1.9814400984024336 0 0 0
431 1 12.695002442853578 3.840637173607832 12.558855460644185 0 0 0
401 1 12.57253463974101 2.0817123741377257 10.763559680206036 0 0 0
309 1 14.296783624988203 2.2396319821269293 12.192742112718264 0 0 0
433 1 14.301293473299427 3.898970797606182 10.412945266412411 0 0 0
402 1 15.83979693864979 1.9163182114898358 10.50932157722153 0 0 0
120 1 19.48975717500869 12.391853507930351 0.49351968900024373 0 0 0
440 1 16.017961473731283 3.640028803623115 12.319102922184026 0 0 0
530 1 17.586190505723508 2.267920684467254 12.328992805886637 0 0 0
437 1 17.5231738600182 4.009983999125728 10.722763426516297 0 0 0
444 1 19.481436217784463 3.745383991129605 12.150719278996108 0 0 0
408 1 19.105061752964495 1.9592382357693747 10.575719096088566 0 0 0
1413 1 3.483239705564067 14.148290258217912 10.608195035189421 0 0 0
486 1 5.48554204830856 12.566676260079293 11.008995132305065 0 0 0
439 1 21.141875695703035 1.7194321217362167 12.189440317070284 0 0 0
406 1 21.271936988274796 3.8749019931890403 10.645920369912178 0 0 0
410 1 23.02089686666067 2.172842786977824 10.619071180932032 0 0 0
443 1 22.955583958046592 4.006424731249547 12.609202656295718 0 0 0
477 1 24.490984527552783 7.25950340543236 10.738869689036758 0 0 0
487 1 5.5606357522359025 10.364492955860278 12.508742285705942 0 0 0
388 1 27.981233269849632 2.1264247627037234 12.679603725668331 -1 0 0
417 1 28.045653839897277 3.7765216451455825 10.82784858903991 -1 0 0
445 1 24.557987375741124 3.6708045531127484 10.85631720157726 0 0 0
416 1 24.535563100655537 1.76872929480343 12.310383916302335 0 0 0
414 1 26.316288593341923 1.9783493491268536 10.400183893149807 0 0 0
447 1 26.27084696624595 3.8518668464364243 12.305648133947837 0 0 0
618 1 7.510003075718573 12.227005106555582 12.734585685827595 0 0 0
565 1 18.01581581672279 3.590116499212704 14.163444840285804 0 0 0
418 1 1.818651140748383 5.612981148621127 10.761407587135928 0 0 0
451 1 2.040736754751956 7.268857615578981 12.671201972521821 0 0 0
428 1 3.804662552372568 5.587685105176261 12.234437751491324 0 0 0
453 1 3.5664125535655975 7.010328740849069 10.663246910838247 0 0 0
324 1 2.110264453222584 9.088396601995507 10.788799043668357 0 0 0
456 1 3.812961072189313 8.778378223423923 12.33489853532121 0 0 0
423 1 7.1902408739037575 5.430615887588272 12.438037274482884 0 0 0
422 1 5.364064406155836 5.355347689008888 10.52658996668084 0 0 0
457 1 7.14329436520095 7.078514872072129 10.572052987262554 0 0 0
460 1 5.701711214169718 7.26320130307777 12.410862294135908 0 0 0
454 1 5.27693590539187 8.865694596437661 10.456706977990047 0 0 0
617 1 7.468325284897476 8.945174475759682 12.450578369085765 0 0 0
478 1 26.26549450254455 8.696248501271604 10.812463182318094 0 0 0
449 1 28.08115185728821 7.268194688948057 10.722621620890447 -1 0 0
464 1 10.731017185554418 8.909944457041833 12.247484485494738 0 0 0
432 1 10.575027624781745 5.440933879075975 12.650791965674484 0 0 0
458 1 8.871624039781215 8.896836503211206 10.660165897389192 0 0 0