LAMMPS data file via write_data, version 29 Oct 2020, timestep = 300000

2048 atoms
1 atom types

0.1383691115368002 28.21363088845891 xlo xhi
0.1383691115368002 28.21363088845891 ylo yhi
0.1383691115368002 28.21363088845891 zlo zhi

Masses

1 58.933

Atoms # atomic

8 1 1.9888363489308813 3.5442519958254133 2.052055968121194 0 0 0
163 1 1.95526798627024 1.916220285542905 3.707594719909988 0 0 0
132 1 3.6799304242072006 3.6800439107382497 3.61026398155022 0 0 0
130 1 3.505408749254684 1.7811873398840254 2.0511253035408545 0 0 0
4 1 0.2646124355615308 2.069909275411126 1.9339194461158589 0 0 0
1037 1 10.434570106922505 13.863870711947383 0.26982773528699877 0 0 0
285 1 24.665207846666796 0.3368239682295209 7.259859506243944 0 0 0
1051 1 22.969102468039058 14.023679465181683 1.907306821766018 0 0 0
907 1 10.483780057197645 0.27312233689292936 0.6006296307368975 0 0 1
287 1 0.2050635059887309 0.2577764678029788 10.391772107387352 1 0 0
12 1 6.9973679055308 2.285953922048827 2.137770844236514 0 0 0
39 1 5.28997587989671 3.9140611626811594 1.96855923078886 0 0 0
134 1 5.304241137184202 2.0930497433439257 3.7579658568702174 0 0 0
166 1 7.229276171683145 3.925738564102104 3.7973189425054614 0 0 0
109 1 10.743092347672446 10.804600212241786 0.2588741639738579 0 0 0
509 1 24.584049193569452 10.8242827572009 10.340066444314793 0 0 0
169 1 8.760858605371642 2.2903255794288064 3.9718407309462096 0 0 0
41 1 9.101347432380518 3.4440515842066617 1.8772548339161346 0 0 0
173 1 10.614889080910334 3.692632823076076 3.763062870703533 0 0 0
15 1 10.898379757250705 1.9018163284865282 2.392885610533091 0 0 0
511 1 26.711596286641452 10.940826151740334 12.411685498919955 0 0 0
1434 1 21.14116876343758 14.046257362722429 10.568022840618664 0 0 0
78 1 12.147590429680628 8.890467119662997 0.39601241097077705 0 0 0
142 1 12.242982637650654 2.2009147733796035 3.9348760296982213 0 0 0
49 1 12.26551341351627 3.767452777154029 1.8965481969817928 0 0 0
20 1 13.89726235145123 1.9518837897273518 1.86357729417299 0 0 0
146 1 13.96434306130913 3.634528713632281 3.395153963264115 0 0 0
51 1 15.946813427021798 3.8184001446372844 1.9176646143516225 0 0 0
151 1 15.805900220776122 1.6269869759088547 3.5082804634080405 0 0 0
1413 1 3.3890222845957103 13.90686924869411 10.463904540061739 0 0 0
263 1 5.033297197904094 0.1756268595365982 8.858641080038538 0 0 0
510 1 26.761569934514966 12.444164738876973 10.634866390316121 0 0 0
181 1 17.689166014689068 3.5478617794563077 3.747027310217573 0 0 0
19 1 17.543725686856295 1.8985720014405751 2.037681953596322 0 0 0
1398 1 19.378342561927006 1.8626675140464244 3.55005195180472 0 1 0
150 1 19.45379279832145 3.5447044018097746 2.0981371274204452 0 0 0
1287 1 5.298677786765735 14.013637414859451 8.748449553296343 0 0 0
154 1 22.716105009878547 1.5421235539615783 3.7171701862400703 0 0 0
185 1 21.597188632154214 3.594264830567186 3.9456547659626042 0 0 0
22 1 21.144167265347747 1.825318884656239 1.7837212057180316 0 0 0
59 1 22.766439415150487 3.159439151956869 2.0693242018889566 0 0 0
537 1 21.157180317545123 0.2661165952092037 10.64889100623127 0 0 0
512 1 24.708919089428278 12.565716191993497 12.236197665424664 0 0 0
161 1 0.34195155737115357 3.6036748304356454 3.616598170105414 0 0 0
18 1 15.885507537771748 2.041661394993941 0.19464745899889266 0 0 0
98 1 1.7354553029846445 12.554212713425446 0.2503113763934987 0 0 0
32 1 24.618032495943027 1.673542971782819 1.9645362455626874 0 0 0
223 1 24.685659074051486 3.3889361488780634 3.682374197213095 0 0 0
189 1 26.455221790629583 1.9161108077798332 3.5613290996906932 0 0 0
33 1 26.458864655747313 3.5257613967092754 1.8827307325763438 -1 0 0
242 1 16.155207330398195 14.107397308941067 5.570223695612005 0 0 0
52 1 14.257470479495982 3.729182400536192 0.2967569268878255 0 0 0
40 1 3.480538161853289 5.430226215956197 1.6962334522838696 0 0 0
162 1 1.8732467769072347 5.619247670618829 3.5269687995838312 0 0 0
67 1 1.9522542494560933 7.226677551259294 1.7276567289995655 0 0 0
194 1 1.9702737587018073 9.028331013032972 3.694962747643042 0 0 0
72 1 3.446389556126252 9.195609735697165 1.8216932699963893 0 0 0
197 1 3.6772380606557444 7.332270066755381 3.719839693186557 0 0 0
95 1 0.13950418919052154 8.620610031344771 1.6203536546028248 1 0 0
1557 1 17.74961409156456 13.947705632318623 14.139206046249676 0 0 0
947 1 16.196351649819558 5.328627357894469 0.22682582906791962 0 0 1
1035 1 8.88137482883204 14.096426437484276 1.7118224625718015 0 0 0
165 1 5.370130679181895 5.5870825268694375 3.931351909703576 0 0 0
44 1 6.8781540487463895 5.470935934713384 1.9228075189234717 0 0 0
71 1 5.2263517754855435 7.009106667909114 1.9723688882313233 0 0 0
201 1 6.938668508723108 7.1115312190583495 3.7441410219769473 0 0 0
76 1 7.010534760437614 8.733509051985576 1.943479012208466 0 0 0
198 1 5.4281159809997845 8.851274489988917 3.522931087849389 0 0 0
117 1 17.612862138952448 10.830741676278684 0.6053753679839057 0 0 0
48 1 8.858126501550345 7.299195578107664 2.067991982835946 0 0 0
47 1 10.57205917646569 5.436935863149651 2.050426022542326 0 0 0
170 1 8.767965407361281 5.419754251287514 3.48333873920084 0 0 0
205 1 10.607698387786513 6.928434556638116 3.9729747346815403 0 0 0
80 1 10.424003071686744 8.869915422708502 2.1167289756741234 0 0 0
202 1 9.01693628146273 8.706647770002206 3.9536668919628917 0 0 0
1415 1 5.329225071991616 14.033651081381906 12.714396717199298 0 0 0
143 1 12.525915615657551 0.4074107759267773 5.980903416149064 0 0 0
260 1 26.541851151547153 0.2797529285968914 8.962327084235392 -1 0 0
237 1 12.11614020589171 8.817412608031356 3.6988747395015698 0 0 0
174 1 12.47436417236062 5.399831100856328 3.686343738849027 0 0 0
206 1 12.203283524447805 7.187913431798379 1.8722778071013975 0 0 0
178 1 13.955612055693432 5.437790213937409 1.9043809961650415 0 0 0
209 1 14.05434794472591 7.157024499654038 3.7467685756535505 0 0 0
241 1 13.905312303130515 8.918119708128259 1.8569077507948522 0 0 0
210 1 15.974349196308324 9.037826960711485 3.7308455194913424 0 0 0
213 1 15.964298023646437 5.313121798806332 3.8434452338519436 0 0 0
83 1 15.91328163252425 6.801835508872318 2.1404888243726945 0 0 0
267 1 8.918967125299355 0.33485622236807033 9.09051765165353 0 0 0
1159 1 5.283790340314673 13.98731274056712 5.421094802247263 0 0 0
182 1 19.618658042307406 5.186206296859279 3.5838409475448523 0 0 0
87 1 17.74430266116596 5.353002681494799 1.9733379722900481 0 0 0
54 1 17.581251384269972 6.757757839909338 3.8766276795531014 0 0 0
249 1 19.799334070200466 6.946349383503143 2.1056641491638786 0 0 0
88 1 17.545580901047977 8.59537994443064 2.0064449121268604 0 0 0
373 1 19.304335350473988 8.696106890443227 3.624087889503175 0 0 0
45 1 10.672815329961354 4.0221388055131655 0.2708954988675519 0 0 0
1054 1 24.532972925677853 13.56577637078916 0.19612349399957454 0 0 0
60 1 21.43966067903434 5.056095074845119 1.7339532184391315 0 0 0
186 1 23.10118218642254 5.4493821022620255 3.641169634568848 0 0 0
91 1 22.93874217193205 7.033273443884661 1.6567672465003709 0 0 0
217 1 21.228174969951695 6.95515618189831 3.724391016852967 0 0 0
92 1 21.34927686120114 8.801818717589756 2.0475934214363622 0 0 0
218 1 23.076056714011877 8.796196993965742 3.531255283569062 0 0 0
36 1 0.2861589742654882 5.2903094516289535 1.601739975217464 0 0 0
68 1 0.14250090278438296 7.316766826731394 3.473225604612484 0 0 0
64 1 24.53899058442205 5.091076118283507 1.9757785824118765 0 0 0
224 1 24.757311666069675 6.990292780020286 3.1940340850605144 0 0 0
190 1 26.491122012174422 5.2743775398719945 3.6316779743819807 0 0 0
123 1 24.817705382001154 8.917563716882817 1.7756963892769009 0 0 0
221 1 26.40269765706121 6.913606389160807 1.9471371084187212 0 0 0
96 1 26.4876843206511 8.976732992523013 3.5717485508609497 0 0 0
265 1 6.873455368984635 0.3964787014694478 7.461770820315334 0 0 0
175 1 13.655679785126848 0.22454887322151862 3.985467986832851 0 0 0
578 1 28.13022827092919 10.59173811056918 10.696238553138578 -1 0 0
99 1 1.6630938667989044 10.62214847433916 1.7151127162796551 0 0 0
226 1 1.8190484443478687 12.497201211881409 3.5617380067453417 0 0 0
1000 1 3.688129989610891 12.491196823542172 2.0137627747457847 0 0 1
104 1 3.5365554991431316 10.736055794985859 3.776457731919063 0 0 0
225 1 0.1447800763104617 10.465270682809777 3.6203754273523376 0 0 0
100 1 28.0296422835652 12.54698849257759 1.9501600051496701 -1 0 0
481 1 0.39477764755501005 12.366214980911746 12.680405700770283 0 0 0
283 1 22.837779331500556 0.37285074238184396 9.11680168801414 0 0 0
103 1 5.284701351177035 10.706777654003188 2.200914514967227 0 0 0
108 1 7.205130516548446 12.620267346128475 2.0795017822087907 0 0 0
230 1 5.366455512066268 12.503554606698923 3.693961435600431 0 0 0
233 1 7.091706136006046 10.463259177366888 3.928888669011492 0 0 0
505 1 22.779702619942835 12.36921029670547 10.59424917730249 0 0 0
344 1 21.08662716443293 10.661865078266095 10.734444498976854 0 0 0
1409 1 28.18573300041865 14.11228113375899 10.949749083054895 -1 0 0
234 1 8.7137077514112 12.298599166121068 3.7557709380635913 0 0 0
107 1 8.584146685265262 10.641791953031337 2.1684790315496887 0 0 0
112 1 10.250323528364783 10.612844690743822 3.8390704589957867 0 0 0
111 1 10.378649776079882 12.342467143851476 2.2088494562385312 0 0 0
238 1 12.264582983852225 12.439208955964839 3.6559751085669006 0 0 0
269 1 10.584430978874364 0.6635767936849571 7.533106869811105 0 0 0
507 1 23.04198214397759 10.757413267292604 12.63575632184174 0 0 0
508 1 21.109409080835093 12.559395258906715 12.251671424467716 0 0 0
77 1 10.27437208467191 7.213854772258898 0.22009092227056007 0 0 0
1298 1 17.70504073829657 13.993098173212669 7.642071777801271 0 0 0
113 1 12.191431677477224 10.454780119093865 2.022371052148686 0 0 0
116 1 14.163831852742984 12.588755842802623 2.3073275966035602 0 0 0
1043 1 13.96336465664152 10.795810437646002 3.5245731194938403 0 0 0
248 1 16.184644347256494 12.584327478064633 3.856775813723739 0 0 0
79 1 15.91537925955341 10.861450948532434 2.0147404041498436 0 0 0
135 1 5.378099822914555 0.4193433683027439 5.647910472050263 0 0 0
1427 1 15.67640934552193 12.60826631394715 10.530547959252717 0 0 0
101 1 3.528626844237024 10.648757929792938 0.20094801299270953 0 0 0
526 1 12.220169899902594 1.6889820729935598 14.140308230176705 0 0 0
988 1 21.196790202377766 7.275566022919097 0.3353889434847711 0 0 1
56 1 18.011139769967766 3.826196895078647 0.19495409516378667 0 0 0
84 1 17.90583832149347 12.64845301325817 2.1401658871687927 0 0 0
245 1 17.729043479370286 10.5671952141099 3.5008190644060586 0 0 0
246 1 19.463768288850186 12.510081391937886 3.8807749790686095 0 0 0
119 1 19.506180688154902 10.739107999126215 2.0355360249149443 0 0 0
11 1 7.347015510781931 0.22275619390231682 0.5111341594033841 0 0 0
86 1 19.46089339569636 9.16786082448761 0.298995562269171 0 0 0
1171 1 19.647035614155076 14.160310952430851 1.694048702539392 0 0 0
1173 1 21.34076725466313 12.704431668303151 2.2184903923353922 0 0 0
256 1 23.189240271205243 12.46717744519501 3.8962837993118735 0 0 0
1047 1 23.024151403430164 10.7327959431851 1.945297194397426 0 0 0
118 1 21.19228134200127 10.615990103113994 3.4396445182571753 0 0 0
1433 1 19.358148251914066 12.737502245051044 10.173521547060584 0 0 0
502 1 17.791597055038388 10.683985761260269 10.463151793955026 0 0 0
253 1 24.72693553584215 10.632310778256281 3.589007213774769 0 0 0
128 1 24.800534588132525 12.57274463599491 2.177109336795268 0 0 0
127 1 26.41535056519945 10.511302000575744 1.7195364201311039 0 0 0
254 1 26.390986698881154 12.4018644452814 3.9881414129979476 0 0 0
139 1 8.946306217252733 0.4414472880704096 5.451313211254099 0 0 0
7 1 5.392913261339465 0.15771448535032404 2.0103358406387866 0 0 0
1179 1 21.526892491252788 14.045933425947066 7.208706602172421 0 0 0
164 1 1.5737705174151617 3.781109126287142 5.486464585256472 0 0 0
258 1 1.8713320463298282 2.0272490309696107 7.2888160176030015 0 0 0
294 1 3.5247056796347693 3.3749837968782836 7.142684138713332 0 0 0
291 1 1.746017146511377 3.6806419340351115 8.90880728812987 0 0 0
264 1 3.4231083882577713 1.9771219116310594 9.244286486713959 0 0 0
133 1 3.728262429147262 1.7358490545044445 5.371913797718351 0 0 0
159 1 0.15036514424606165 1.5604408875055586 5.462633555053999 1 0 0
259 1 28.190589876258404 2.0890283033633317 8.848955645781036 -1 0 0
289 1 27.958065262561654 3.6546171188962857 7.047167935520502 -1 0 0
114 1 15.869309485976618 12.267495437938473 0.2941332956711245 0 0 0
140 1 7.264882978616791 2.314688416988615 5.7560657909109505 0 0 0
167 1 5.296134021356564 3.668452604121316 5.380182080583205 0 0 0
262 1 5.664368064240379 2.14224683530613 7.170984432097495 0 0 0
297 1 6.965226521302007 3.834114435486751 7.606689644799258 0 0 0
295 1 5.236451114912058 3.711105023271673 9.03069166046735 0 0 0
268 1 6.914773034932034 1.8117993401339663 9.2165061382535 0 0 0
601 1 19.333971644013026 9.094440838220917 14.172144240074847 0 0 0
138 1 8.814284556348394 4.149399258703779 5.53543025809456 0 0 0
144 1 10.278877557737385 2.146285542401476 5.906348892465451 0 0 0
266 1 8.801360570825688 2.2654874791842636 7.542063030819178 0 0 0
301 1 10.784247745140501 3.685879308564145 7.4715184082095165 0 0 0
272 1 10.427646834317102 2.146697964444694 9.393113851334723 0 0 0
299 1 8.75842824804003 3.895779457630498 9.18923321898364 0 0 0
503 1 19.331861327924504 10.915667872461643 12.441328095049892 0 0 0
557 1 10.561147065277256 3.700081690433066 14.151431014651545 0 0 0
504 1 17.5676439156741 12.347743172170269 12.31703405579513 0 0 0
42 1 8.758339737267702 5.257211946940758 0.4147912842401447 0 0 0
270 1 12.551463340541474 2.0228472776634043 7.633483879218829 0 0 0
177 1 12.614615926927497 3.563242939881169 5.746287840256791 0 0 0
303 1 12.389730079941405 3.47391981360428 9.261181365611458 0 0 0
148 1 13.9699262588373 1.7994681549923452 5.550585442008345 0 0 0
305 1 14.136807578269686 3.721995408499705 7.514661787385266 0 0 0
276 1 14.517216945715306 1.7201896618452757 9.176781470421991 0 0 0
277 1 15.748933518320849 1.8486587348783694 7.191828736755984 0 0 0
179 1 15.755443270469907 3.282449093981651 5.20800245174405 0 0 0
274 1 15.987813345264698 3.693224035809956 9.188142471513858 0 0 0
280 1 18.01465588442072 1.783061158544192 5.305034876915966 0 0 0
282 1 19.30807522570707 3.7091032744840073 5.521556770727326 0 0 0
183 1 17.641185171623558 3.4047782839292986 6.9739938813766456 0 0 0
278 1 19.300482137222367 1.9635983795750769 7.529792874774814 0 0 0
1526 1 17.468805267947833 1.6764008272589563 9.033361435468306 0 1 0
311 1 19.49059771741464 3.606183113832492 9.133308363662152 0 0 0
271 1 12.625315298629271 0.40791955242294065 9.177207565896214 0 0 0
3 1 1.8448863222313638 0.1943918254486945 2.0349706183069793 0 0 0
102 1 5.233789427626384 12.399627646411048 0.2576868701400651 0 0 0
156 1 21.01107272942848 2.058441170080969 5.5729109081607415 0 0 0
192 1 23.442488340013416 3.7264034431319937 5.507250545503055 0 0 0
281 1 23.020055915454027 2.2747047762707364 7.261211933267803 0 0 0
313 1 21.23613880984688 3.5158063939440067 7.294123569131316 0 0 0
284 1 21.017344382503445 1.9827902351233317 9.157361310524667 0 0 0
315 1 23.218902126045958 3.8146347256580126 9.122402253556887 0 0 0
518 1 5.399456563182466 0.20952384665251017 12.15323947392679 0 0 0
160 1 24.74552635238055 1.5822344015941288 5.527107499460708 0 0 0
317 1 25.037544713240784 3.5865130008494783 7.141561746203918 0 0 0
288 1 24.794035079793982 2.0984907481014687 9.0634139279379 0 0 0
191 1 26.59013296105723 3.6928547595186654 5.235619544190081 0 0 0
158 1 26.47512789132399 1.9019063767190925 7.096092417400421 0 0 0
319 1 26.58393712797467 3.8130917384992213 9.045154214487859 0 0 0
168 1 3.5407181910060874 5.467018776733997 5.410197397057294 0 0 0
195 1 1.8350360459778194 7.170891547194638 5.526351696777377 0 0 0
293 1 1.5906441931616269 5.492451265161054 7.433398890544528 0 0 0
323 1 1.7367102697840997 7.315739960821376 8.8109005511667 0 0 0
200 1 3.6769384567812518 8.744723459621214 5.448444308103762 0 0 0
290 1 3.788374718614766 6.946797620371792 7.102239563046616 0 0 0
227 1 1.8207898184420288 8.759343577844144 7.144981938103281 0 0 0
328 1 3.6402065672181547 8.563585888107461 8.762795473860022 0 0 0
296 1 3.759836450817193 5.607254456532638 8.8327605079632 0 0 0
325 1 27.905838950217625 7.027629344169895 7.138976719310699 -1 0 0
322 1 28.168722745273264 9.060724755501681 8.882745496790648 -1 0 0
171 1 6.945860115444675 5.62931546310922 5.727359442958257 0 0 0
204 1 7.192607155748025 8.512425142991404 5.6453463874073195 0 0 0
172 1 5.320473074579595 5.396074148337411 7.336809593844885 0 0 0
199 1 5.266143025189979 7.271555891493894 5.441030285805313 0 0 0
329 1 7.380707633092437 7.005935583700051 7.4516546731165505 0 0 0
326 1 5.135368012194402 8.7072470048118 7.100504453644188 0 0 0
327 1 5.5289862641566785 7.314837193962509 9.10094420156361 0 0 0
300 1 7.153531290276523 5.525108176949895 9.295414067245412 0 0 0
332 1 7.049524816672723 8.990785386411517 9.06721429608774 0 0 0
208 1 10.810023489226857 8.929413165796284 5.766935138482344 0 0 0
203 1 9.06811066645081 6.8961162197264505 5.460303753553522 0 0 0
298 1 9.14687049086161 5.548256489911264 7.42938753865161 0 0 0
176 1 11.126655753766885 5.365086196543416 5.5733314705579495 0 0 0
333 1 10.502931216626303 7.192954025789747 7.320092661973177 0 0 0
367 1 10.61903956350286 9.166546890261857 8.983143779059992 0 0 0
331 1 9.227817704258387 7.2786938636719 9.061229172222648 0 0 0
330 1 8.856257923537223 9.152196900403585 7.159737511137828 0 0 0
304 1 10.68373157901965 5.497621524690959 9.179305554051757 0 0 0
334 1 12.362091318679466 9.095141965737765 7.216302826817781 0 0 0
207 1 12.374948225691888 7.151851670498614 5.880243112840243 0 0 0
180 1 14.217975768573147 5.3500500003708105 5.353767564960091 0 0 0
335 1 12.411677766495902 7.206185697986497 8.658721773799982 0 0 0
302 1 12.602120688350963 5.33356284972783 7.516520978138536 0 0 0
211 1 14.38584111958149 7.230170196684848 7.315179303255522 0 0 0
212 1 13.947891775233984 9.006646776873747 5.084486638030286 0 0 0
308 1 14.265570363276096 5.172658352483401 9.183500936954703 0 0 0
340 1 14.235547526270732 8.743214191104991 8.835813874526924 0 0 0
339 1 15.906417485697016 7.010500411469892 8.9555374002302 0 0 0
306 1 15.853575458370438 5.379561850419224 7.210618866041825 0 0 0
216 1 15.815958990255531 7.280249092808871 5.372330048430694 0 0 0
337 1 15.97015973394225 8.881935628778098 6.835917538370156 0 0 0
312 1 17.69262941590235 5.455871782806217 9.08727682597629 0 0 0
184 1 17.459051232334506 5.4666192538207925 5.6313420599176585 0 0 0
214 1 19.48983716254505 6.986361507633147 5.546572138456165 0 0 0
310 1 19.450522811827852 5.094558838539865 7.392054387700384 0 0 0
343 1 17.63890100718273 7.164583562937599 7.304857237292271 0 0 0
316 1 19.563030206868916 7.254464841614035 9.016143869698995 0 0 0
341 1 17.852196733052615 8.876291392339082 5.372098463039629 0 0 0
342 1 19.660718091849045 8.749908195482469 7.306438049004721 0 0 0
338 1 17.454646410154133 8.647777205244708 8.973085157988127 0 0 0
187 1 21.45238048226126 5.25449254124173 5.572177118511495 0 0 0
314 1 23.271938782467114 5.292045409472116 7.459690348211023 0 0 0
220 1 21.168361750883694 8.733528829599713 5.407176351218364 0 0 0
215 1 23.020505918543726 6.908163705195852 5.537537645148195 0 0 0
345 1 21.33903555221578 7.014933560111979 7.532910875016863 0 0 0
441 1 21.432433899454765 5.232477957098033 9.026496568542784 0 0 0
347 1 23.03139935820864 7.117401746601285 9.085779067774945 0 0 0
247 1 23.129318324539675 8.959123197809992 7.212249627896547 0 0 0
348 1 21.177940888490543 8.8045089409223 8.977703073007858 0 0 0
321 1 28.07825011933352 5.549960217226731 5.333122741834854 -1 0 0
196 1 28.163799684336304 8.693576106035456 5.301430585364764 -1 0 0
292 1 27.908533828584464 5.446861067047599 9.287603400345642 -1 0 0
222 1 24.717287314655255 8.729893795832613 5.2089649866093986 0 0 0
352 1 24.942575406999328 8.739867044906129 8.946748849966966 0 0 0
320 1 24.82566565749612 5.639287156647221 9.063309311557726 0 0 0
318 1 26.28128870383001 5.390653810994055 7.038761232279742 0 0 0
350 1 24.704116275067467 5.269722939869525 5.1470618435355195 0 0 0
193 1 26.307820744867588 7.194758307198389 5.162179261222605 -1 0 0
349 1 24.681238343199453 7.161857634614781 7.14815207731786 0 0 0
219 1 26.473721195777845 9.029684948283702 7.243474464473301 0 0 0
351 1 26.648306583067598 7.308330468007902 8.840570104565236 0 0 0
229 1 1.9202378579427761 10.353526802233885 5.429332890010959 0 0 0
354 1 1.8309910138464829 12.22374046702342 7.128544724393358 0 0 0
355 1 2.006964355493507 10.744767335950732 8.605463408020622 0 0 0
357 1 3.671623502976074 10.417565114788802 7.078103681311642 0 0 0
232 1 3.684635300050915 12.37107411457444 5.441013744592445 0 0 0
360 1 3.6664756661828033 12.33057781933109 8.833910610658371 0 0 0
1281 1 27.928212092391043 14.100933902615264 6.97343912970774 -1 0 0
231 1 5.306740659115099 10.345717962183311 5.222145962885229 0 0 0
236 1 7.180528161438826 12.48507244451829 5.628868230138299 0 0 0
358 1 5.2576040514315325 12.191125205937832 7.174674617159918 0 0 0
361 1 7.008119093391293 10.480234915362272 6.771853159303752 0 0 0
359 1 5.52647587712646 10.646126299699532 8.958830464551959 0 0 0
364 1 7.002769956294626 12.405126609880684 9.011459403589662 0 0 0
1311 1 26.40861773662702 13.97888899684724 8.759500576392204 0 0 0
493 1 12.525774945469513 12.575127097354436 10.672429192311368 0 0 0
1041 1 15.923765854346465 13.917875973068645 1.8576754744277661 0 0 0
261 1 3.4833316673335886 0.43440469909984003 7.309041706583179 0 0 0
235 1 8.949538978538692 10.780146503425803 5.395553699893892 0 0 0
240 1 10.535404905084476 12.669356119906203 5.199714941241934 0 0 0
362 1 8.696190469409931 12.627695836982225 7.183624647102579 0 0 0
365 1 10.612659683230998 10.80285173467565 7.108912523284558 0 0 0
363 1 8.80874628015518 10.583721992904358 8.941222142556628 0 0 0
368 1 10.54920873910278 12.631072308810959 8.955172316726655 0 0 0
499 1 15.894854440396633 10.65325120920762 11.884430367916394 0 0 0
494 1 14.129023351851481 14.173449355694821 10.647647597355874 0 0 0
553 1 6.910366817968338 3.670320242645702 14.12518391249781 0 0 0
366 1 12.721519790200295 12.371022619073193 6.841432243156363 0 0 0
239 1 12.484474968834162 10.70996562736322 5.364488908387623 0 0 0
497 1 12.451132401450645 10.773404227333076 8.587840765975223 0 0 0
244 1 14.544909643011325 12.361228340502906 5.0684987593396045 0 0 0
369 1 14.405228734098888 10.552624529503182 6.73544683872017 0 0 0
372 1 14.390036550711972 12.221336604088172 8.699327923512888 0 0 0
243 1 16.14295646313562 10.685527286405959 5.234711621857318 0 0 0
466 1 15.963502504633917 10.534810445232273 8.560917327531206 0 0 0
1439 1 26.46330076115564 13.81835901659318 12.719115547296417 0 0 0
85 1 17.67070890427738 6.933831375132751 0.13845571281954727 0 0 0
371 1 15.998704246271599 12.31325483390862 7.147829259507244 0 0 0
375 1 19.568409358392582 10.6390035021144 8.597240800094244 0 0 0
376 1 17.453645560118996 12.418854664431766 9.281248581721478 0 0 0
1302 1 17.86306684458871 12.404296556016282 5.510876736467987 0 0 0
124 1 19.616260474640466 10.640522647531395 5.3880455260674855 0 0 0
374 1 17.82910406587393 10.820519161331946 7.275864539782393 0 0 0
1175 1 19.56426622734761 12.538009470539485 7.249420304020321 0 0 0
82 1 15.769772648406384 8.877763189255557 0.658264102581237 0 0 0
141 1 8.946022643360912 0.5204004258643757 2.372153313836313 0 0 0
625 1 14.09693401209293 10.809155538378002 10.33057064739616 0 0 0
1295 1 14.367660036272767 12.436654049749624 12.50301517798048 0 0 0
379 1 22.717978950927176 10.595970205060699 8.721787628175942 0 0 0
251 1 22.962890884259842 10.473743765617323 5.379214727444983 0 0 0
380 1 21.232883084375704 12.356711760530127 8.77344855568471 0 0 0
250 1 21.46274555749309 12.61285733253122 5.461016684786587 0 0 0
377 1 21.295129469326977 10.707327730732167 6.850115710787192 0 0 0
381 1 23.072822665635062 12.403975369453944 6.997877524661638 0 0 0
622 1 12.304315167075972 10.882823287070883 12.416996378726122 0 0 0
1271 1 19.65887164653853 0.16090844671043503 5.555766776117943 0 1 0
121 1 21.142449481952326 10.568380721503736 0.26391803292510857 0 0 0
336 1 10.675133084471144 10.888860014214876 10.661643806189735 0 0 0
228 1 0.3456132036887587 12.3962793317434 5.388760033266732 0 0 0
356 1 27.98237676955119 12.392847715878835 8.760960472164191 -1 0 0
353 1 28.1887747908884 10.612070913873513 7.09210552496353 -1 0 0
346 1 24.731420185326762 10.585605980950207 7.0260572193635475 0 0 0
378 1 24.653245389461564 12.324252972137355 8.681298144179069 0 0 0
382 1 24.723556184518394 12.605066636020677 5.502830760665125 0 0 0
383 1 26.38478199937555 10.419532878997964 9.08551545620502 0 0 0
255 1 26.529424904348776 10.358794012791014 5.411946131797307 0 0 0
384 1 26.37190238450064 12.08107291701969 7.094948861667949 0 0 0
486 1 5.213067067994219 12.467203366894639 10.866486367507381 0 0 0
385 1 1.8047212584914667 1.9202743919804766 10.730386469126492 0 0 0
546 1 1.8392338545799525 3.881443366725318 12.666232502910958 0 0 0
419 1 3.308303098850818 3.7787408005706595 10.603413211962842 0 0 0
386 1 3.0465067022451504 2.0233067115735928 12.74078535628258 0 0 0
417 1 0.23559142819831042 3.769784723914405 10.766327030906966 0 0 0
157 1 0.27553994760286926 0.3431776806402685 3.595940320081522 1 0 0
618 1 6.941392881698916 12.20559779512512 12.60635016975163 0 0 0
491 1 9.158673963875101 10.862440562448588 12.364375022679916 0 0 0
81 1 14.310405091553264 7.089406352040604 0.4523088233698663 0 0 0
421 1 5.178013305407552 1.8070051100920725 10.694312414617153 0 0 0
392 1 4.903835862059331 3.51032291587306 12.581428659277352 0 0 0
396 1 6.787017493286599 2.0248562009947353 12.59825443318408 0 0 0
425 1 6.794748381651644 3.740372440682436 10.876297535746144 0 0 0
307 1 19.596706251453057 0.2390152256820457 12.60118800526494 0 0 0
397 1 8.710628778623771 2.055202169565124 11.009185936584363 0 0 0
427 1 8.61455066925843 3.7594493870736567 12.486566140686245 0 0 0
429 1 10.651134380229397 3.8139504500600605 11.054078484202822 0 0 0
398 1 10.553401989911436 1.7534959086236204 12.23551728343798 0 0 0
506 1 22.88421148474177 14.013814466963392 12.459641373870358 0 0 0
490 1 8.681241432111571 12.307471581400216 10.540876369479257 0 0 0
496 1 10.798701660799823 12.777068085713442 12.643299338792668 0 0 0
90 1 22.941693699187113 8.717794408486933 0.30398810488691996 0 0 0
401 1 12.497467247364915 1.9539360468330955 10.974940263337308 0 0 0
431 1 12.395717471433851 3.3817849067811845 12.792485401140492 0 0 0
309 1 14.478560330443782 1.6805878066738875 12.445330437725676 0 0 0
433 1 14.29194875393804 3.4301473567979417 10.99512477875625 0 0 0
402 1 16.197499017081363 2.03372385420246 11.037608412364888 0 0 0
621 1 10.86940295964066 10.648963754067871 14.08348013093967 0 0 0
62 1 26.255016880259678 4.953692976293476 0.3035275071929293 0 0 0
152 1 21.274903328304912 0.5997414678372945 7.233598156094309 0 0 0
483 1 3.5497485450041926 12.47019626648861 12.318694230303965 0 0 0
440 1 16.16192654598092 3.89794324991269 12.599305387046597 0 0 0
530 1 17.83389691906696 1.7276206006199262 12.869411105338973 0 0 0
437 1 17.645969051496156 3.567958183793785 10.682613388636389 0 0 0
444 1 19.07732328476063 3.9001229991739037 12.323402857345457 0 0 0
408 1 19.005769623110293 1.8019213011827693 10.827750961741797 0 0 0
482 1 1.8535797558387836 12.625041624114303 10.566945611501723 0 0 0
439 1 21.248903489715385 1.895717449991272 12.46001858238123 0 0 0
406 1 21.373706126132188 3.6576541726481855 10.881851999827976 0 0 0
410 1 23.047326497555193 2.042390938477486 10.876716216000593 0 0 0
443 1 23.12954901141341 3.7960400125908254 12.337211631828282 0 0 0
478 1 26.651628070938536 8.970731071175633 11.043466200986007 0 0 0
388 1 0.17828437894346616 2.0016664222186735 12.621503718295534 0 0 0
416 1 24.74508715894303 2.0186295331862443 12.433792524867313 0 0 0
445 1 24.786042667786607 3.907752637829614 10.828158632502134 0 0 0
414 1 26.55703934011791 2.1573962825872512 10.845464854851603 0 0 0
447 1 26.578091344919876 3.719571709059239 12.67433577284768 0 0 0
448 1 24.951443195211034 5.637077815762596 12.79227155010756 0 0 0
418 1 1.8978202141646632 5.532472649437894 10.512480537144704 0 0 0
451 1 1.8223483199874768 6.95004675108011 12.260161107973657 0 0 0
324 1 1.8626556704494912 8.765842281920118 10.739938347254554 0 0 0
453 1 3.454147791840438 7.306788986137404 10.57600482031015 0 0 0
456 1 3.4563321259101865 8.9296645965115 12.365496854511694 0 0 0
428 1 3.5323081961725187 5.319704367354566 12.559954930136803 0 0 0
449 1 28.11308009115489 7.2613282340879834 10.778048805826197 -1 0 0
1258 1 11.148202589034284 0.27161997528172255 3.948563026203438 0 1 0
422 1 5.067896703448637 5.730456230628282 10.849502466274528 0 0 0
423 1 7.044966624619263 5.581412110295647 12.399458356269445 0 0 0
457 1 7.276297777071438 7.286553093691831 11.031943958288934 0 0 0
460 1 4.995997148781143 7.2453970729571475 12.770379047880157 0 0 0
454 1 5.417465312175864 8.87614033801596 11.039315761079 0 0 0
617 1 7.23379423481004 9.151146846499865 12.36430616378765 0 0 0
479 1 26.556329550558424 7.483581431930355 12.928344671480625 0 0 0
573 1 24.672428971211538 3.766364407665545 14.101369522546285 0 0 0
458 1 8.835850935350033 9.05668157092634 10.756626120038286 0 0 0
426 1 8.863028902063522 5.712114654060217 11.009162577750123 0 0 0
459 1 9.168737670278011 7.262853316514045 12.626531199205765 0 0 0
432 1 10.915366033279138 5.493809743759689 12.62052297319172 0 0 0
461 1 11.061506399537818 7.116858822369915 10.763411947526931 0 0 0
464 1 10.813973303850828 9.073312399568895 12.277226348482754 0 0 0
585 1 7.11468948042169 7.567408636900356 14.128731987909568 0 0 0
489 1 7.066378000219269 10.735481714248282 10.81316441035871 0 0 0
626 1 15.900069291049205 12.252614158283972 14.143323323674116 0 0 0
462 1 12.333561022323883 9.103584662123986 10.583641229014894 0 0 0