LAMMPS (29 Oct 2020)
OMP_NUM_THREADS environment is not set. Defaulting to 1 thread. (src/comm.cpp:94)
  using 1 OpenMP thread(s) per MPI task
package omp 0
using multi-threaded neighbor list subroutines
package omp 2
set 2 OpenMP thread(s) per MPI task
using multi-threaded neighbor list subroutines
# units metal
# dimension 3
# boundary p p p

# lattice fcc 3.5440
# region box block 0 8 0 8 0 8 units lattice
# create_box 1 box
# create_atoms 1 box

read_restart after_heating_press_200000_2800.lmp
Reading restart file ...
  restart file = 29 Oct 2020, LAMMPS = 29 Oct 2020
  restoring atom style atomic from restart
  orthogonal box = (-0.0071179295 -0.0071179295 -0.0071179295) to (28.359118 28.359118 28.359118)
  1 by 2 by 2 MPI processor grid
  pair style eam/alloy/omp stores no restart info
  2048 atoms
  read_restart CPU = 0.007 seconds
# read_restart after_cooling_press_200000_2800.lmp

variable P equal 200000
variable dt equal 0.001
variable loopVar loop 6
variable sys_press equal "press/10000"

variable sim string "heating"
# variable sim string "cooling"



pair_style eam/alloy
pair_coeff * * Co_Zhou04.eam.alloy Co
Reading eam/alloy potential file Co_Zhou04.eam.alloy with DATE: 2018-03-30




neighbor 2 bin
neigh_modify every 10 check yes

thermo 1000
thermo_style custom step temp vol press ke pe density

timestep $(dt)
timestep 0.0010000000000000000208



# velocity all create 2600 123123

print """
yo aagadi
"""

yo aagadi

label ensemble

print """
Label pachadi solti, hos garam.
"""

Label pachadi solti, hos garam.

variable T equal 2100-${loopVar}*100
variable T equal 2100-1*100
# variable T equal 2850


reset_timestep 0
fix 1 all npt temp $T $T $(dt*100) iso $P $P $(dt*1000)
fix 1 all npt temp 2000 $T $(dt*100) iso $P $P $(dt*1000)
fix 1 all npt temp 2000 2000 $(dt*100) iso $P $P $(dt*1000)
fix 1 all npt temp 2000 2000 0.10000000000000000555 iso $P $P $(dt*1000)
fix 1 all npt temp 2000 2000 0.10000000000000000555 iso 200000 $P $(dt*1000)
fix 1 all npt temp 2000 2000 0.10000000000000000555 iso 200000 200000 $(dt*1000)
fix 1 all npt temp 2000 2000 0.10000000000000000555 iso 200000 200000 1
Resetting global fix info from restart file:
  fix style: npt/omp, fix ID: 1
print """
<--------------------------------------------------------------------->
<------------------ Equilibrating at temperature $T ----------------->
<--------------------------------------------------------------------->
"""

<--------------------------------------------------------------------->
<------------------ Equilibrating at temperature 2000 ----------------->
<--------------------------------------------------------------------->

fix temp all print 1000 "$(step) $(temp) $(press) ${sys_press} $(vol) $(ke) $(pe) $(density)" file temp_${sim}.txt screen no title  "step temp press pressGiga vol ke pe density"
fix temp all print 1000 "$(step) $(temp) $(press) ${sys_press} $(vol) $(ke) $(pe) $(density)" file temp_heating.txt screen no title  "step temp press pressGiga vol ke pe density"
run 250000
All restart file global fix info was re-assigned
Last active /omp style is pair_style eam/alloy/omp
Neighbor list info ...
  update every 10 steps, delay 10 steps, check yes
  max neighbors/atom: 2000, page size: 100000
  master list distance cutoff = 7.6035394
  ghost atom cutoff = 7.6035394
  binsize = 3.8017697, bins = 8 8 8
  1 neighbor lists, perpetual/occasional/extra = 1 0 0
  (1) pair eam/alloy/omp, perpetual
      attributes: half, newton on, omp
      pair build: half/bin/atomonly/newton/omp
      stencil: half/bin/3d/newton
      bin: standard
Per MPI rank memory allocation (min/avg/max) = 4.338 | 4.338 | 4.338 Mbytes
Step Temp Volume Press KinEng PotEng Density 
       0    2786.4582    22824.703     196828.5    737.28434    -8240.779    8.7807666 
    1000    1987.7398    22174.357    201016.28    525.94705   -8440.7728    9.0382952 
    2000    1990.5633    22120.393    200178.52    526.69414   -8472.8898    9.0603449 
    3000    1985.8618      22131.5    199854.51    525.45013   -8467.5932    9.0557975 
    4000    2007.0613     22123.13    202291.95    531.05942   -8460.2747     9.059224 
    5000    2009.9123    22057.555    204210.27    531.81378   -8479.8669    9.0861559 
    6000    1989.0006    22248.379    192487.96    526.28064   -8454.8779    9.0082241 
    7000    1968.5835    22056.172    205623.18    520.87836   -8471.8347    9.0867256 
    8000    1980.3746    22076.383    207167.73    523.99825   -8454.0436    9.0784068 
    9000    1977.2973    22220.385    188921.17    523.18399   -8482.6747     9.019573 
   10000     1980.182    22159.188    198655.02    523.94727   -8460.2994    9.0444823 
   11000    2033.8778    22107.445     201819.2    538.15495   -8470.9747    9.0656513 
   12000    1965.1303    22146.336    199694.45    519.96468   -8460.6735    9.0497309 
   13000    2030.0836    22130.404    201849.52    537.15102   -8460.9014    9.0562463 
   14000    1929.3925    22171.146    197218.63    510.50861   -8462.1534    9.0396042 
   15000    1975.6185    22188.696    192929.01    522.73981    -8478.846    9.0324544 
   16000    2070.1026    22088.247    206384.94    547.73988   -8460.0091    9.0735308 
   17000    2058.7519    22173.327       195447    544.73651   -8474.4917    9.0387151 
   18000    2032.9372    22149.319    196279.18    537.90607   -8477.8185    9.0485124 
   19000    1942.8109    22101.461    200045.32    514.05905   -8477.0456    9.0681059 
   20000    1986.5488    22179.728    195605.37     525.6319   -8466.6627    9.0361067 
   21000    2060.3502    22045.418     209191.2    545.15944   -8463.2725    9.0911586 
   22000    1944.3241     22144.92    198721.23    514.45945   -8463.7086    9.0503097 
   23000    1999.0406    22182.892    196453.76    528.93717   -8464.3064    9.0348178 
   24000    1968.3215    22023.391    209967.25    520.80904   -8462.1808    9.1002511 
   25000     2039.223    22173.942    196552.31    539.56926   -8467.7353    9.0384643 
   26000    1901.1231    22123.331    197762.38    503.02866   -8474.6462    9.0591417 
   27000    2029.3228    22173.404    197230.65    536.94973      -8466.6    9.0386836 
   28000    2007.8033    22049.463    208652.94    531.25574   -8460.2432    9.0894906 
   29000    2038.8574    22145.901    196947.93    539.47253   -8478.0684    9.0499089 
   30000    1912.8738    22131.138    197164.15    506.13783   -8476.1647    9.0559458 
   31000    1952.3362    22171.887    195949.25    516.57941   -8467.1816    9.0393022 
   32000    2033.6362    22020.438    208607.65    538.09103   -8475.7943    9.1014716 
   33000    1969.0427    22256.707     188328.7    520.99986   -8467.4774    9.0048537 
   34000    2048.2357    22212.445    194463.03    541.95398   -8462.3932    9.0227972 
   35000    1944.5396     22016.38    209373.19    514.51647    -8469.925     9.103149 
   36000    1986.5606    22233.695     191479.8    525.63503   -8465.3275    9.0141737 
   37000    1958.6151    22054.629    205152.72    518.24078   -8472.4613    9.0873615 
   38000    2061.9059    22132.796    200978.34    545.57107   -8470.8365    9.0552672 
   39000    2001.7864    22149.473    196475.68     529.6637   -8475.0652    9.0484494 
   40000    2003.1673    22096.046    207523.66    530.02908   -8446.0786    9.0703282 
   41000    1920.8724    22105.635     203151.5    508.25424    -8459.339    9.0663935 
   42000    1972.3233    22143.806    198084.89    521.86791   -8469.6736    9.0507652 
   43000    1975.9402    22133.744    200076.22    522.82493   -8460.3985    9.0548797 
   44000    2081.7303    22019.687    215144.15     550.8165   -8442.8981    9.1017818 
   45000     2045.983    22172.197    197359.88    541.35793   -8467.0261    9.0391758 
   46000    2002.0942    22204.101    192076.63    529.74515   -8474.3045    9.0261877 
   47000    1988.4048    22143.384    199469.46    526.12299   -8464.0769    9.0509377 
   48000    1980.3199    22102.749    203692.05    523.98377   -8458.5347    9.0675774 
   49000    1991.2258    22170.111    198660.03    526.86941   -8456.2014    9.0400265 
   50000    2044.5268    22113.418    197775.82    540.97264   -8487.0208    9.0632025 
   51000    2007.5005    22130.573    204899.78    531.17564   -8443.7046     9.056177 
   52000    1961.2676    22109.112    202711.76    518.94262   -8462.0317    9.0649678 
   53000    1993.3064     22185.15    200563.96    527.41994   -8440.8234    9.0338983 
   54000    2038.3522    22082.926     202747.1    539.33886   -8479.6963    9.0757169 
   55000    2033.1221    22201.312    194759.61      537.955   -8465.3908    9.0273218 
   56000    1948.0296    22060.483    200624.75    515.43989   -8489.2869      9.08495 
   57000    2034.0634    22212.336    192999.75    538.20406   -8469.1421    9.0228416 
   58000    1910.3536    22126.257    200086.78      505.471   -8465.3286    9.0579433 
   59000    2038.2449    22062.632    205705.81    539.31045     -8472.79    9.0840652 
   60000    2008.6998    22134.552    204161.07    531.49297   -8445.2077    9.0545489 
   61000    1940.6905    22214.423    190732.79    513.49801    -8473.599    9.0219938 
   62000    2027.9832    22132.652    199914.96    536.59525   -8471.2561    9.0553262 
   63000    2055.1201    22185.424    201155.57    543.77555   -8444.3278    9.0337868 
   64000    2017.2526    22132.357       198685    533.75601   -8474.3293    9.0554469 
   65000     2052.634    22068.317    206423.72    543.11775   -8466.6123    9.0817252 
   66000    1953.2211    22236.194    188443.16    516.81355   -8476.8642    9.0131605 
   67000    1979.0912    22157.843    196462.93    523.65865   -8474.2587    9.0450315 
   68000    2028.4786     22051.47    209058.72    536.72635   -8458.1685    9.0886631 
   69000    1968.4871    22138.335    199276.91    520.85287   -8465.8416    9.0530016 
   70000    1983.9403    22125.869    198343.74     524.9417   -8477.1316    9.0581025 
   71000    2049.1398    22144.575    197902.58    542.19321   -8476.6674    9.0504508 
   72000    2041.1883    22093.478    202952.05    540.08927   -8473.2121    9.0713825 
   73000    2046.4937    22167.505    192978.87    541.49305   -8487.9078    9.0410889 
   74000    2056.1104    22128.048    198948.44    544.03759    -8479.089    9.0572102 
   75000     1990.866    21999.596    212097.08    526.77422   -8461.9998     9.110094 
   76000    1960.3035    22182.997    191814.66    518.68751   -8484.9458    9.0347749 
   77000    1964.7849     22124.17    199728.08    519.87327   -8467.7098    9.0587978 
   78000    2032.4768    22136.347    201350.78    537.78426   -8462.1273    9.0538149 
   79000    1980.2854    22140.546    200237.28    523.97463   -8456.8703    9.0520977 
   80000    2016.3836    22190.134    195955.05    533.52605   -8464.7225    9.0318693 
   81000    1987.8304    22105.397    204012.15    525.97101   -8460.4472    9.0664912 
   82000    1948.9804    22089.082    205364.58    515.69148   -8453.8277    9.0731878 
   83000    1924.5227    22129.175    197543.85    509.22008   -8476.2546    9.0567491 
   84000    2023.4357    22228.224    191647.51    535.39201   -8467.9509    9.0163924 
   85000     2065.309    22096.543    200507.73     546.4715   -8483.6932    9.0701242 
   86000    1993.0115    22091.329    201627.67    527.34191    -8475.658    9.0722646 
   87000    2007.3398    22185.705    193291.26    531.13312   -8476.1447    9.0336721 
   88000    1917.5999    22057.292    202807.65    507.38835   -8480.8873    9.0862644 
   89000    2027.1001    22212.829    192355.14     536.3616   -8472.9879    9.0226412 
   90000    1999.1157    22159.175    201550.86    528.95705   -8448.9043    9.0444877 
   91000    2026.8892    22062.556    207163.27    536.30579   -8464.5091    9.0840965 
   92000    1941.7274    22134.088    198555.16    513.77235   -8468.5743     9.054739 
   93000    1988.0753    22137.402    197987.12    526.03581   -8474.4268    9.0533834 
   94000    1994.0362    22035.154    213223.63    527.61304   -8444.0983    9.0953932 
   95000    1970.1978    22173.126    196234.56    521.30551   -8464.5664    9.0387971 
   96000    1917.6384    22092.673    202043.56    507.39854   -8467.0839    9.0717129 
   97000    1995.8434    22097.039     203794.6    528.09123   -8465.6017    9.0699205 
   98000    2017.8361    22218.527    188848.45    533.91039   -8485.4433    9.0203273 
   99000     2019.456    22151.885    198211.44    534.33901   -8469.2394    9.0474643 
  100000    2008.3415    22151.174    201565.01    531.39815   -8450.1954    9.0477548 
  101000    1968.1137    22099.482    202560.68    520.75407    -8467.561     9.068918 
  102000    1988.7599    22088.191    206634.69    526.21696   -8452.5219    9.0735535 
  103000    2019.0182    22123.476    199961.93    534.22316   -8471.8945    9.0590822 
  104000     2026.272    22136.548    198826.02    536.14248   -8470.3864    9.0537328 
  105000    1930.7482    22095.859    200719.68    510.86731   -8475.3247    9.0704047 
  106000    1986.1059    22223.105     192772.8    525.51471    -8465.158    9.0184693 
  107000    2034.9486    22123.107    200890.73    538.43828   -8467.2731    9.0592334 
  108000    2028.5695    22060.224    207642.42    536.75039   -8463.0052    9.0850568 
  109000    1922.0545    22252.362    188510.29      508.567   -8469.9135    9.0066117 
  110000    2015.7169    22163.302    197157.01    533.34965   -8464.8988    9.0428035 
  111000    2002.3196     22106.27    201071.11    529.80479   -8471.8645     9.066133 
  112000    2038.6771    22199.508    194971.97    539.42482   -8463.0317    9.0280553 
  113000    1995.7828    22083.529    204083.68    528.07518   -8465.6505    9.0754693 
  114000    1987.4087    22064.521    207348.62    525.85943   -8458.7423    9.0832874 
  115000    1969.6416    22174.614    197498.79    521.15833   -8457.9678    9.0381906 
  116000     1969.053     22198.17    192611.42    521.00261   -8471.2737    9.0285993 
  117000    2006.0894    22100.705    201647.83    530.80227   -8470.4192    9.0684161 
  118000    1965.1747    22081.517    202545.84    519.97642   -8470.8602     9.076296 
  119000    2003.3799    22119.508    201269.65    530.08533   -8464.3925    9.0607071 
  120000    2019.4213    22129.791    200341.07    534.32983   -8467.6469    9.0564971 
  121000    1987.0924    22087.122    202026.59    525.77574   -8475.5636    9.0739929 
  122000    1982.3079    22209.167    193422.86    524.50977   -8465.8435    9.0241291 
  123000    2014.2301    22118.142    199889.56    532.95627   -8472.5525     9.061267 
  124000    2014.5944     22044.15    210224.17    533.05264   -8454.7589    9.0916814 
  125000    2008.3826    22117.126    200467.41    531.40903    -8472.482    9.0616833 
  126000    2003.6666    22129.795    198049.53    530.16121   -8478.2827    9.0564953 
  127000    2013.4872    22084.405     205449.9    532.75969   -8460.9821    9.0751091 
  128000    2004.1442    22142.065    196285.37    530.28758   -8481.0143    9.0514769 
  129000    2019.2694    22209.359    194942.33    534.28964   -8458.9692    9.0240509 
  130000    2041.7728    22012.567    212862.59    540.24392    -8459.429    9.1047258 
  131000    1951.8331     22152.07    198328.17    516.44629   -8463.3991    9.0473886 
  132000    2024.3707    22117.167     198976.8    535.63941   -8479.9356    9.0616662 
  133000    1994.9519     22073.39    208896.56    527.85534   -8448.3323    9.0796379 
  134000    1989.4891    22213.903    190429.03    526.40991   -8478.6217     9.022205 
  135000    1994.0397    22138.594    200215.66    527.61395   -8464.2083    9.0528957 
  136000    1986.9915    22108.468    203587.87    525.74905   -8459.4319    9.0652319 
  137000    2012.3984    22141.822    198584.65    532.47159   -8471.3865    9.0515762 
  138000    1973.3004    22150.314     200686.4    522.12644    -8455.878    9.0481059 
  139000      2010.69    22102.915    201335.42    532.01956   -8475.1202    9.0675094 
  140000    2013.1683    22037.611    209224.35    532.67531   -8463.6547    9.0943791 
  141000    2058.3154      22173.7    194597.29    544.62101   -8479.0523     9.038563 
  142000    1898.7491     22144.91     198407.9    502.40049   -8465.7706    9.0503139 
  143000    1985.0454    22074.801    205504.15    525.23412   -8463.4365    9.0790575 
  144000    2031.4858    22129.212    200109.52    537.52203   -8468.7631    9.0567338 
  145000    1968.9556    22124.213     198623.3    520.97682   -8474.8729    9.0587804 
  146000    2054.2488    22090.573    202501.05    543.54502   -8475.8471    9.0725751 
  147000     2062.081    22215.998    192591.56    545.61738   -8473.6242    9.0213542 
  148000    1995.7446    22164.662    196984.71    528.06506   -8467.7386    9.0422485 
  149000    2007.5435    22034.423    210921.93    531.18701   -8452.8039    9.0956947 
  150000    1945.0817    22132.437    201217.39    514.65991   -8456.8158    9.0554144 
  151000    2059.2498    22191.906    193179.97    544.86827   -8479.6963    9.0311479 
  152000    2050.0467    22159.668    197983.85    542.43315   -8467.5856    9.0442864 
  153000    2048.3185    22097.349    203348.17     541.9759   -8471.1884    9.0697931 
  154000    1988.7694    22196.064    195633.01    526.21946   -8462.2867    9.0294562 
  155000    1985.9422    22151.472    197385.16     525.4714   -8470.3437    9.0476329 
  156000    2059.9475    22179.387    195940.29    545.05287   -8471.6658    9.0362456 
  157000    2028.5394    22126.585    201506.58    536.74244   -8462.8527    9.0578094 
  158000    1994.7666     22123.24    199133.22     527.8063   -8473.6972    9.0591789 
  159000    2017.5667    22158.107    196134.46     533.8391   -8476.0162    9.0449235 
  160000    1952.8133    22057.463    205693.69    516.70564   -8468.6582    9.0861938 
  161000    2028.4965    22194.726    194536.06    536.73107   -8470.3508    9.0300005 
  162000    2017.7321    22228.187    190233.08    533.88287    -8478.543    9.0164073 
  163000    1986.5316    22019.408    209508.55    525.62736   -8465.8341    9.1018969 
  164000     2008.315    22124.711    203201.64    531.39115   -8455.5209    9.0585766 
  165000    2007.6914    22179.975    196202.86    531.22614   -8464.8593    9.0360059 
  166000    2046.6614    22167.307    196608.35    541.53743   -8473.1947    9.0411699 
  167000    1987.0024    22064.772    207613.03    525.75192   -8459.6303    9.0831841 
  168000    1979.7296    22111.016    200904.37    523.82758   -8472.3284    9.0641872 
  169000    1983.3681     22196.42    192672.48    524.79031    -8477.285    9.0293113 
  170000    2014.7572    22105.566    202510.75    533.09571    -8467.989     9.066422 
  171000    2019.0675    22042.547    207452.31     534.2362   -8469.6112    9.0923426 
  172000     2022.186    22252.753    190754.61    535.06136    -8463.864    9.0064534 
  173000    1967.8335    22113.381    198736.01    520.67993   -8477.1177    9.0632178 
  174000    2034.1408     22105.65    202321.68    538.22455   -8471.6207    9.0663873 
  175000    2024.0483    22112.688    200535.62     535.5541   -8475.1576    9.0635016 
  176000    2003.7034    22203.502    192734.27    530.17093   -8471.0791    9.0264315 
  177000    2009.6115    22215.604    190343.33    531.73421   -8479.7025    9.0215142 
  178000    2051.5471     22051.39    207736.49    542.83017   -8466.5344    9.0886965 
  179000    1953.3966    22130.462    200501.48    516.85999   -8459.2809    9.0562223 
  180000    1979.2354    22129.911     199250.2    523.69681   -8468.8161     9.056448 
  181000    2017.9702    22064.711     206021.1    533.94587   -8469.4995    9.0832093 
  182000     2000.916    22097.413    204052.12     529.4334   -8463.5637    9.0697671 
  183000    1975.6957    22230.887    187794.02    522.76023   -8486.1575     9.015312 
  184000    1992.3673    22106.795    201765.74    527.17146   -8470.0047    9.0659177 
  185000    1955.1737    22052.318    208756.35     517.3302   -8455.9973    9.0883137 
  186000    1893.4875    22106.224    200304.36    501.00831   -8470.2265    9.0661519 
  187000      1988.03    22190.441    196541.13    526.02384   -8458.3624     9.031744 
  188000    2002.9379    22110.941    200661.56    529.96838   -8471.8488    9.0642177 
  189000    1987.0435    22161.239    195274.43    525.76281   -8476.5209    9.0436452 
  190000    2004.7399    22095.971     204490.1     530.4452   -8458.9878    9.0703587 
  191000    1993.6326    22117.048    198074.72    527.50625   -8484.6333    9.0617151 
  192000    2056.6474    22172.058     196303.8    544.17969   -8472.5331    9.0392324 
  193000    2046.7075    22058.209    212584.92    541.54962   -8438.7892    9.0858867 
  194000    1955.7756    22161.527    198850.39    517.48946   -8457.0604    9.0435277 
  195000    2009.9994    22166.102    195288.03    531.83682   -8478.4586    9.0416612 
  196000    1942.4113    22072.416    203081.45    513.95332   -8474.2624    9.0800384 
  197000     2003.892    22193.839    194813.42    530.22085   -8468.4272    9.0303614 
  198000     1931.284    22143.878    196341.11     511.0091   -8477.5615    9.0507355 
  199000    2030.9849    22006.367    212195.79     537.3895   -8463.6383     9.107291 
  200000      1954.15    22144.995    196901.19    517.05934   -8472.5492    9.0502791 
  201000    1976.2007    22052.508    208898.07    522.89384   -8453.8587    9.0882355 
  202000    1990.6797    22159.583    197163.68    526.72491   -8469.7318    9.0443213 
  203000    1964.3893    22145.824    196338.77    519.76859   -8476.2285    9.0499402 
  204000    2061.6112     22123.76    200710.36    545.49309    -8470.411    9.0589659 
  205000    2022.1562    22144.353    198798.97    535.05346   -8470.4203    9.0505416 
  206000    1993.8534    22161.397    195535.17    527.56466   -8475.3927    9.0435809 
  207000    1971.4282    22085.272    206143.65    521.63105   -8455.7951    9.0747531 
  208000    2024.6981    22130.727    199379.05    535.72603   -8474.3448     9.056114 
  209000    1997.8215    22165.714    199759.01     528.6146   -8454.7792    9.0418198 
  210000    2045.3146    22109.202    201396.05    541.18107   -8471.6931    9.0649306 
  211000    1877.0107    22178.563    192864.15     496.6486   -8475.0911    9.0365814 
  212000    2032.8335    22099.856    200306.74    537.87864   -8480.1178    9.0687642 
  213000    1967.0325    22093.666    204200.93    520.46799   -8461.7087     9.071305 
  214000    2036.8526    22117.231    200865.59    538.94206   -8471.9606      9.06164 
  215000    1994.2368    22156.519    196788.38     527.6661   -8470.5276    9.0455719 
  216000    2038.7995    22179.524    196721.86     539.4572    -8464.425    9.0361899 
  217000    2042.7675    22058.733    211580.53    540.50712    -8441.739     9.085671 
  218000    1995.3944    22212.386    194293.76    527.97241   -8461.7394    9.0228211 
  219000    1981.0833    22126.555     197220.6    524.18577   -8482.0845    9.0578213 
  220000    2038.3604    22141.061    198480.22    539.34102   -8474.5478     9.051887 
  221000    2034.2069    22092.859    201799.11    538.24202    -8478.426    9.0716365 
  222000    2013.9375    22110.373    204178.72    532.87884   -8457.2198    9.0644508 
  223000    1979.8355    22270.419     187367.5    523.85559   -8468.8907     8.999309 
  224000    2048.6892    22149.011    200183.13    542.07399   -8459.1187    9.0486384 
  225000    1966.0979    22100.047    201498.37    520.22068    -8471.322    9.0686861 
  226000    2003.7562    22164.287     200430.3    530.18491   -8452.0475    9.0424015 
  227000    2010.6058    22030.141    208889.94    531.99728   -8467.1187    9.0974627 
  228000    2034.2889    22246.878    187355.47    538.26372   -8484.2436    9.0088318 
  229000    2002.2586    22160.385    193550.24    529.78864   -8489.2607    9.0439938 
  230000    1952.0166    22090.661    208084.09    516.49483   -8441.4007    9.0725392 
  231000    2017.8904    22163.687    194603.64    533.92474   -8480.3135    9.0426466 
  232000    1965.5035    22179.305    198732.38    520.06342   -8450.3125     9.036279 
  233000    2014.7893    22153.093    199775.47    533.10421   -8457.4233    9.0469707 
  234000    2013.5589     22185.47    195527.52    532.77866   -8466.1025    9.0337678 
  235000    2008.4517    22070.782    204262.85    531.42732   -8472.8685    9.0807109 
  236000    2108.5931      22122.1    201564.31    557.92429   -8470.2241    9.0596456 
  237000    2009.7422    22197.845    190504.72    531.76878   -8485.5793    9.0287318 
  238000    2012.9185    22050.052    207707.16     532.6092   -8464.4132    9.0892477 
  239000     2011.836     22118.71    200849.19    532.32279   -8467.8738     9.061034 
  240000    2001.3797      22102.2    199047.84    529.55609   -8483.7371    9.0678028 
  241000    1976.1307    22098.234    204683.81    522.87531   -8453.9372    9.0694301 
  242000     2031.508    22165.525    197484.67    537.52792    -8463.403    9.0418967 
  243000     2019.942    22136.901    196040.62    534.46759   -8486.3536    9.0535881 
  244000     1986.774    21968.977    214439.56     525.6915   -8464.1875    9.1227908 
  245000     2065.239    22205.249    193580.52    546.45299   -8470.2449    9.0257213 
  246000    1985.7769     22138.14    197550.36    525.42766   -8475.2819    9.0530815 
  247000    2009.5106    22088.467    207265.74    531.70748   -8450.1137    9.0734404 
  248000    2014.4454    22133.167    198152.37    533.01323   -8476.8099    9.0551154 
  249000    1964.0148    22131.828    199328.06    519.66952   -8466.0928    9.0556633 
  250000    2081.7773    22150.191    199802.61    550.82893   -8464.8242    9.0481562 
Loop time of 495.902 on 8 procs for 250000 steps with 2048 atoms

Performance: 43.557 ns/day, 0.551 hours/ns, 504.132 timesteps/s
122.1% CPU use with 4 MPI tasks x 2 OpenMP threads

MPI task timing breakdown:
Section |  min time  |  avg time  |  max time  |%varavg| %total
---------------------------------------------------------------
Pair    | 292.05     | 298.41     | 304.23     |  25.9 | 60.18
Neigh   | 3.7547     | 3.8222     | 3.8909     |   2.6 |  0.77
Comm    | 20.438     | 26.281     | 32.844     |  88.8 |  5.30
Output  | 0.0059078  | 0.011273   | 0.013079   |   2.9 |  0.00
Modify  | 166.4      | 166.54     | 166.72     |   0.9 | 33.58
Other   |            | 0.8388     |            |       |  0.17

Nlocal:        512.000 ave         523 max         499 min
Histogram: 1 0 0 0 1 0 0 1 0 1
Nghost:        3100.50 ave        3113 max        3090 min
Histogram: 1 0 0 1 0 1 0 0 0 1
Neighs:        43458.2 ave       46465 max       40049 min
Histogram: 1 0 0 0 1 0 1 0 0 1

Total # of neighbors = 173833
Ave neighs/atom = 84.879395
Neighbor list builds = 4170
Dangerous builds = 0


# fix 132 all momentum 100 linear 1 1 1 angular
fix out_file_1 all print 1000 "$(step) $(temp) $(press) ${sys_press} $(vol) $(ke) $(pe) $(density)" file one_phase_${sim}_press_$P_$T_.txt screen no title  "step temp press pressGiga vol ke pe density"
fix out_file_1 all print 1000 "$(step) $(temp) $(press) ${sys_press} $(vol) $(ke) $(pe) $(density)" file one_phase_heating_press_$P_$T_.txt screen no title  "step temp press pressGiga vol ke pe density"
fix out_file_1 all print 1000 "$(step) $(temp) $(press) ${sys_press} $(vol) $(ke) $(pe) $(density)" file one_phase_heating_press_200000_$T_.txt screen no title  "step temp press pressGiga vol ke pe density"
fix out_file_1 all print 1000 "$(step) $(temp) $(press) ${sys_press} $(vol) $(ke) $(pe) $(density)" file one_phase_heating_press_200000_2000_.txt screen no title  "step temp press pressGiga vol ke pe density"

# dump 3 all custom 1000 traj_npt_new.lammpstrj id type x y z
run 50000
Last active /omp style is pair_style eam/alloy/omp
Per MPI rank memory allocation (min/avg/max) = 4.338 | 4.338 | 4.338 Mbytes
Step Temp Volume Press KinEng PotEng Density 
  250000    2081.7773    22150.191    199802.61    550.82893   -8464.8242    9.0481562 
  251000    1995.8775    22067.806    204917.04    528.10023    -8473.095    9.0819352 
  252000    1940.1971    22152.962    198812.91    513.36746   -8461.0536    9.0470245 
  253000    2023.2131    22194.267    191479.41    535.33312    -8485.735    9.0301873 
  254000    1998.3127    22101.215    203599.29    528.74459   -8460.0924    9.0682066 
  255000    2030.4959    22045.515    206826.49    537.26012   -8471.6222    9.0911182 
  256000     1944.761    22203.718    192023.33    514.57504    -8471.958    9.0263437 
  257000     1954.737    22158.139    196898.78    517.21463   -8468.9722    9.0449105 
  258000    2021.7631    22060.265    208149.68    534.94946   -8458.2674    9.0850398 
  259000    2043.4183    22127.892    200374.28    540.67933   -8470.4907    9.0572744 
  260000    1992.7856    22112.453    200188.46    527.28213   -8473.3599    9.0635981 
  261000    1988.6577    22070.968    208182.32    526.18991   -8453.5769    9.0806342 
  262000    1998.6828    22228.701    190628.75     528.8425   -8473.5979    9.0161986 
  263000    1942.0316    22104.739    203567.76    513.85286   -8456.8365     9.066761 
  264000    2035.5234    22074.969    204994.75    538.59035   -8471.9261    9.0789883 
  265000    1944.0623    22177.341    196357.53    514.39017   -8463.7722    9.0370793 
  266000    2011.7139    22124.513     203467.3    532.29047   -8454.9256    9.0586577 
  267000    2017.3229    22076.836    206418.79    533.77461   -8460.4039    9.0782207 
  268000    1927.9277    22170.465    193185.88    510.12103   -8482.8993    9.0398819 
  269000    1981.4766    22150.599    199437.63    524.28982   -8459.4142    9.0479897 
  270000    2004.5226    22138.037    199909.87     530.3877   -8465.8947    9.0531236 
  271000    1930.8895    22100.798    201052.83    510.90471   -8471.3308    9.0683779 
  272000    2022.9985    22137.497     199435.5    535.27635   -8470.3373    9.0533443 
  273000    2091.6617    22097.167    207240.92    553.44431   -8452.6205     9.069868 
  274000    1986.6217    22124.786    198812.11    525.65121   -8474.5894    9.0585457 
  275000    1953.1688     22121.46    200360.63    516.79971   -8464.0039    9.0599078 
  276000    1953.7171    22116.764    201237.14     516.9448   -8464.6831    9.0618314 
  277000    1998.1074    22138.638    199791.99    528.69027   -8464.9505    9.0528778 
  278000    1946.6276    22016.476    211685.23    515.06894    -8456.464    9.1031094 
  279000    1995.4128    22206.959    192201.01    527.97728    -8473.256    9.0250263 
  280000     2030.248    22182.834    192529.77    537.19452   -8484.3231    9.0348412 
  281000    1993.8889    22069.114    205977.46    527.57407   -8466.0756     9.081397 
  282000    1994.7428    22134.263    198046.47        527.8   -8476.7939    9.0546673 
  283000    2001.0546    22140.917    198260.97    529.47006   -8474.9434    9.0519462 
  284000     2064.911    22038.786    208643.71     546.3662   -8468.4691    9.0938941 
  285000    1961.6531    22095.336    201548.41    519.04461   -8473.5163    9.0706195 
  286000    2033.9954    22210.213    193529.45    538.18606   -8468.7571    9.0237038 
  287000    1964.3875    22042.852    206097.14    519.76812    -8474.225    9.0922166 
  288000    2024.6816    22228.414    194189.97    535.72167   -8458.0995    9.0163154 
  289000    2020.2336    22071.172    203997.33    534.54474   -8475.2095    9.0805502 
  290000    2004.5211    22147.026    199421.18    530.38729   -8465.2914    9.0494492 
  291000    2056.2223    22148.428    197255.37     544.0672   -8478.6712    9.0488764 
  292000    1961.5902    22171.642    197672.31    519.02796   -8457.4986    9.0394021 
  293000    2028.9278    22204.637    194110.19    536.84519    -8468.293    9.0259699 
  294000    1959.6966    21996.148    214009.82    518.52695   -8451.6685    9.1115221 
  295000    1923.0825    22124.691    199261.63    508.83901   -8470.3504    9.0585848 
  296000    2016.7993    22205.898    192684.18    533.63604   -8474.6798    9.0254574 
  297000     1892.501    22051.458    205635.21    500.74728    -8464.947    9.0886684 
  298000    1997.9824    22198.669    196672.57    528.65718   -8455.0721    9.0283965 
  299000    2004.1205    22119.204    199846.55    530.28131    -8474.676    9.0608319 
  300000     2059.926    22140.782    199409.25    545.04718   -8468.9627    9.0520014 
Loop time of 102.105 on 8 procs for 50000 steps with 2048 atoms

Performance: 42.310 ns/day, 0.567 hours/ns, 489.694 timesteps/s
122.8% CPU use with 4 MPI tasks x 2 OpenMP threads

MPI task timing breakdown:
Section |  min time  |  avg time  |  max time  |%varavg| %total
---------------------------------------------------------------
Pair    | 60.155     | 61.536     | 62.809     |  12.3 | 60.27
Neigh   | 0.77771    | 0.79368    | 0.8094     |   1.3 |  0.78
Comm    | 4.0746     | 5.3588     | 6.791      |  42.6 |  5.25
Output  | 0.0010724  | 0.0016066  | 0.0017859  |   0.8 |  0.00
Modify  | 34.205     | 34.241     | 34.279     |   0.5 | 33.54
Other   |            | 0.173      |            |       |  0.17

Nlocal:        512.000 ave         522 max         496 min
Histogram: 1 0 0 0 0 0 0 2 0 1
Nghost:        3097.50 ave        3112 max        3087 min
Histogram: 1 0 0 2 0 0 0 0 0 1
Neighs:        43452.0 ave       46651 max       41631 min
Histogram: 1 1 1 0 0 0 0 0 0 1

Total # of neighbors = 173808
Ave neighs/atom = 84.867188
Neighbor list builds = 840
Dangerous builds = 0

unfix temp
unfix out_file_1


write_data after_${sim}_press_$P_$T.in
write_data after_heating_press_$P_$T.in
write_data after_heating_press_200000_$T.in
write_data after_heating_press_200000_2000.in
System init for write_data ...
Last active /omp style is pair_style eam/alloy/omp
write_restart after_${sim}_press_$P_$T.lmp
write_restart after_heating_press_$P_$T.lmp
write_restart after_heating_press_200000_$T.lmp
write_restart after_heating_press_200000_2000.lmp
System init for write_restart ...
Last active /omp style is pair_style eam/alloy/omp

next loopVar
jump in.lmp ensemble

print """
Label pachadi solti, hos garam.
"""

Label pachadi solti, hos garam.

variable T equal 2100-${loopVar}*100
variable T equal 2100-2*100
# variable T equal 2850


reset_timestep 0
fix 1 all npt temp $T $T $(dt*100) iso $P $P $(dt*1000)
fix 1 all npt temp 1900 $T $(dt*100) iso $P $P $(dt*1000)
fix 1 all npt temp 1900 1900 $(dt*100) iso $P $P $(dt*1000)
fix 1 all npt temp 1900 1900 0.10000000000000000555 iso $P $P $(dt*1000)
fix 1 all npt temp 1900 1900 0.10000000000000000555 iso 200000 $P $(dt*1000)
fix 1 all npt temp 1900 1900 0.10000000000000000555 iso 200000 200000 $(dt*1000)
fix 1 all npt temp 1900 1900 0.10000000000000000555 iso 200000 200000 1
print """
<--------------------------------------------------------------------->
<------------------ Equilibrating at temperature $T ----------------->
<--------------------------------------------------------------------->
"""

<--------------------------------------------------------------------->
<------------------ Equilibrating at temperature 1900 ----------------->
<--------------------------------------------------------------------->

fix temp all print 1000 "$(step) $(temp) $(press) ${sys_press} $(vol) $(ke) $(pe) $(density)" file temp_${sim}.txt screen no title  "step temp press pressGiga vol ke pe density"
fix temp all print 1000 "$(step) $(temp) $(press) ${sys_press} $(vol) $(ke) $(pe) $(density)" file temp_heating.txt screen no title  "step temp press pressGiga vol ke pe density"
run 250000
Last active /omp style is pair_style eam/alloy/omp
Per MPI rank memory allocation (min/avg/max) = 4.338 | 4.338 | 4.338 Mbytes
Step Temp Volume Press KinEng PotEng Density 
       0     2059.926    22140.782    199409.25    545.04718   -8468.9627    9.0520014 
    1000    1914.1388    22046.753    201136.95    506.47254   -8493.8908    9.0906079 
    2000     1902.923    22135.509     190963.8     503.5049   -8505.9108    9.0541577 
    3000    1859.9367    22169.386    189903.37    492.13092   -8493.1301     9.040322 
    4000    1876.5518    21978.028     208889.4    496.52719   -8481.2606    9.1190342 
    5000    1909.0095      22065.5    203336.55    505.11536   -8473.3401    9.0828845 
    6000     1879.854    22069.356    199015.52    497.40093   -8493.4226    9.0812974 
    7000    1896.1462    22005.768       207974    501.71179   -8473.8533     9.107539 
    8000    1922.5135    21986.518    211346.35    508.68846   -8470.6079     9.115513 
    9000    1910.5624    22169.314    190944.21    505.52624   -8489.3993    9.0403515 
   10000    1851.1717    22056.092    199190.32    489.81173   -8492.2821    9.0867586 
   11000    1877.7513    21967.224    207973.69    496.84458   -8491.0883     9.123519 
   12000    1906.8735    22052.119    202124.79    504.55019   -8484.0071    9.0883957 
   13000     1894.052    22053.726    196907.06    501.15768   -8508.7677    9.0877337 
   14000    1866.8028    22059.859    201853.49    493.94766   -8481.6051    9.0852072 
   15000    1918.6887    22000.217    209125.23    507.67642   -8474.6052    9.1098369 
   16000    1849.5128    22047.656    200751.62     489.3728   -8490.2032    9.0902357 
   17000    1924.6139    22130.594    193845.56    509.24422   -8497.1399    9.0561685 
   18000      1944.32    22037.754    199973.01    514.45837   -8505.4447    9.0943198 
   19000    1916.7785    22060.164    202731.58      507.171   -8479.1023    9.0850814 
   20000    1904.9376    22011.176       202206    504.03796   -8502.6346    9.1053011 
   21000    1933.3513    22089.328     197858.2    511.55609   -8491.4361    9.0730865 
   22000    1915.6052    22052.262    197464.42    506.86054   -8505.7049     9.088337 
   23000    1954.9366    22132.916    193974.01    517.26746   -8494.3725    9.0552184 
   24000     1903.996    21995.741    207138.33    503.78881   -8483.7024    9.1116907 
   25000    1886.5492    22049.466    198364.51    499.17246   -8504.6725    9.0894892 
   26000    1890.1836    22095.935    196975.71     500.1341    -8490.802    9.0703735 
   27000    1831.2265    21981.527    201665.44    484.53431   -8510.9786    9.1175824 
   28000     1881.872    22093.316     197327.1    497.93489   -8489.4316     9.071449 
   29000     1917.678    22013.762    202001.74    507.40899   -8504.0104    9.1042317 
   30000    1904.2757    22082.372    198761.94    503.86282   -8487.1252    9.0759448 
   31000    1878.4097    22139.086    192019.61    497.01878    -8495.873    9.0526946 
   32000    1947.9694    22089.637    196363.44    515.42397   -8499.9708    9.0729596 
   33000    1933.7523    22062.084     200586.2    511.66218   -8490.6457    9.0842909 
   34000     1890.755    22070.575    197642.66    500.28531   -8497.9929    9.0807958 
   35000    1897.9758    22090.801    196648.65    502.19588   -8496.1581    9.0724816 
   36000    1842.0136    21970.561    207906.81    487.38854   -8488.2739    9.1221335 
   37000    1930.0949    22079.993    199766.04    510.69446   -8485.9991    9.0769227 
   38000    1917.1039    22078.126    196815.13    507.25709   -8499.5366      9.07769 
   39000    1908.0065    22150.553    192011.33    504.84998   -8491.6971    9.0480081 
   40000    1915.7136    22005.668    207564.05    506.88924   -8479.0608      9.10758 
   41000    1922.3021    21994.933    207226.18    508.63253   -8485.4572    9.1120254 
   42000    1888.3301    22099.718       193853    499.64368   -8504.0587    9.0688212 
   43000    1821.8628     22037.13    200795.84    482.05673   -8494.0381    9.0945776 
   44000    1879.5682    22058.571    201414.42    497.32532    -8482.168    9.0857376 
   45000    1884.4406    22059.988    197431.22    498.61454   -8504.8749     9.085154 
   46000    1801.4395     22058.98    200560.28    476.65281   -8483.3179    9.0855691 
   47000    1933.8329    22035.832    202278.95    511.68351   -8494.9648     9.095113 
   48000    1895.6847    22082.986    200405.06    501.58966   -8478.7794    9.0756922 
   49000    1883.6376    22154.785    191749.29    498.40206   -8491.4775      9.04628 
   50000    1958.9515    22066.731    201741.61    518.32979   -8485.2652    9.0823776 
   51000    1912.1412    21999.847    206048.83      505.944    -8490.931    9.1099899 
   52000    1895.3961    22022.715    203365.77     501.5133   -8490.0272    9.1005304 
   53000    1899.9459    22100.734    196409.13    502.71717    -8492.219     9.068404 
   54000    1880.5628    22079.226    197824.71    497.58847   -8494.2972     9.077238 
   55000    1835.1441    22079.354    197500.46    485.57089   -8493.1683    9.0771851 
   56000    1890.5721     22019.26    205363.14    500.23691   -8480.4253    9.1019583 
   57000    1898.6617    21923.128    211766.99    502.37737   -8493.8988    9.1418702 
   58000    1862.5632    22134.242    192296.45    492.82588   -8497.2713     9.054676 
   59000    1739.1321      22004.5    203813.54    460.16655   -8488.4174    9.1080638 
   60000    1898.5859     22094.98    198624.51    502.35731   -8484.5784    9.0707658 
   61000    1885.1486    22011.303    203426.75    498.80187   -8494.1816    9.1052486 
   62000    1887.6385    21966.433     210444.8     499.4607   -8479.1556    9.1238475 
   63000    1941.3143    22119.835    196361.22    513.66305   -8487.0118    9.0605735 
   64000    1859.6306    22086.254    195235.29    492.04992   -8501.9715    9.0743495 
   65000    1902.8297    21998.604    205422.93     503.4802   -8490.0818    9.1105048 
   66000    1894.7065    22102.131    198344.81    501.33086    -8480.713     9.067831 
   67000    1888.6897     22051.72    199222.94    499.73882    -8500.441    9.0885604 
   68000    1970.0558    22056.421    200417.98    521.26794   -8496.1507    9.0866232 
   69000    1906.9749    22095.545    195151.67    504.57701   -8501.4044    9.0705339 
   70000    1944.1066    22067.051    201584.62    514.40189   -8482.7499    9.0822462 
   71000    1938.1068     22031.37    202458.12    512.81438   -8493.8545    9.0969552 
   72000    1920.1928    22030.926    201945.98     508.0744   -8495.1501    9.0971386 
   73000    1936.6631    22040.525    203176.78    512.43238   -8487.9341    9.0931765 
   74000    1883.9579    22021.146    202394.21    498.48681   -8494.0831    9.1011787 
   75000    1828.0367    22168.656     188170.4    483.69032   -8500.0812    9.0406198 
   76000    1923.5406    22035.194    202341.58    508.96023   -8490.9136    9.0953765 
   77000    1918.5416    21981.439    208231.18     507.6375   -8488.8923     9.117619 
   78000    1893.5558    22014.443    204356.77    501.02639   -8492.3169      9.10395 
   79000     1889.198    22075.968       200037    499.87332   -8484.9942    9.0785775 
   80000    1876.2981     22021.49    200820.53    496.46007   -8506.0299    9.1010367 
   81000    1928.0016    22143.141    192020.38    510.14058   -8498.4138     9.051037 
   82000    1908.5117    22010.763    205625.32    504.98365   -8487.4358    9.1054718 
   83000    1846.0581    21976.591    207251.76    488.45869   -8489.6677    9.1196303 
   84000    1901.4297    22095.715    195666.79    503.10979    -8498.213    9.0704637 
   85000    1893.9537     22106.99    193042.29    501.13167   -8507.1349    9.0658378 
   86000    1917.5362    22004.921    205572.46    507.37149   -8488.2659    9.1078893 
   87000    1932.7608    22024.821    205730.78    511.39984   -8480.7031    9.0996602 
   88000    1950.3608     22131.01    192175.31    516.05671   -8504.6993    9.0559983 
   89000    1884.5453    22031.262    201522.85    498.64224   -8496.9715    9.0969999 
   90000    1959.4947    22026.576    203734.47     518.4735   -8492.0086    9.0989352 
   91000    1947.1852    22103.474    196279.43    515.21648   -8496.4779    9.0672799 
   92000    1939.7543    22102.205     195781.5    513.25029    -8498.369    9.0678005 
   93000    1915.6329    22065.945    196858.69    506.86788   -8507.6347    9.0827011 
   94000    1907.2639    22055.337    201364.56    504.65348   -8487.7345    9.0870698 
   95000     1828.076    22043.369    199817.28    483.70072   -8496.5114    9.0920034 
   96000    1847.1108    22116.722    197183.16    488.73723   -8478.3779    9.0618488 
   97000    1886.4372    22052.981    200653.33    499.14282   -8491.5198    9.0880406 
   98000    1956.1893    22079.182    197501.95    517.59893   -8500.9299    9.0772561 
   99000    1817.8319    22107.663     196213.6    480.99017   -8488.3433    9.0655618 
  100000    1936.2849     22009.05    205572.98    512.33231   -8488.2421    9.1061808 
  101000    1928.6047    22003.257    202305.11    510.30017   -8504.7775    9.1085783 
  102000    1910.2597    22085.559    197849.11    505.44615   -8492.9452    9.0746349 
  103000    1908.9212    22042.915    199443.19    505.09199   -8503.3759    9.0921906 
  104000    1967.8934    22033.138    203870.72    520.69576   -8486.4312    9.0962252 
  105000    1858.2619    22075.498    198988.06    491.68776   -8488.1627    9.0787708 
  106000     1899.076    22124.018    193152.34    502.48699   -8497.2476    9.0588603 
  107000    1917.9097    22055.592    198810.23    507.47031   -8501.9482    9.0869647 
  108000    1935.7662    21976.299    211177.45    512.19505     -8475.93    9.1197517 
  109000    1970.5804    22079.407     196174.8    521.40674   -8507.8242    9.0771635 
  110000    1836.4218    22061.062    199078.96    485.90897   -8492.9226    9.0847117 
  111000     1853.058    22032.479     200274.9    490.31084   -8499.3857    9.0964975 
  112000    1948.0776    22101.056    195632.95    515.45261   -8498.3867    9.0682721 
  113000    1928.5022    21971.086     210598.3    510.27303   -8479.6864    9.1219153 
  114000    1913.3187    22091.146    199785.26    506.25556   -8479.3455    9.0723398 
  115000    1852.0413    22117.776    192713.59    490.04181   -8500.1094    9.0614169 
  116000    1897.3114    22097.213    200653.85    502.02009   -8473.1171     9.069849 
  117000    1898.1943    22035.052     202895.4     502.2537   -8489.9414    9.0954352 
  118000     1919.233    21995.867    206461.86    507.82045    -8487.131    9.1116385 
  119000      1899.84    22066.459    199132.55    502.68914   -8493.2163    9.0824899 
  120000    1872.5902     22063.21    196328.63    495.47896   -8508.5199     9.083827 
  121000    1939.6647    22163.461    188878.41    513.22658   -8506.3444    9.0427389 
  122000    1900.1687    22073.496    200853.22    502.77612   -8482.6588    9.0795943 
  123000    1926.2662    21987.504    211619.27    509.68141   -8466.5932    9.1151039 
  124000     1874.285    22013.817    204668.86    495.92741   -8486.2151    9.1042088 
  125000    1970.6136    22073.843    198735.55    521.41554    -8495.978    9.0794517 
  126000    1939.2382    22098.421    196346.86    513.11373   -8496.2569    9.0693531 
  127000    1877.8089    22088.409    191987.49    496.85982    -8517.333    9.0734643 
  128000    1853.4815    22112.606    192068.33    490.42288   -8504.4378    9.0635354 
  129000    1913.2526    21946.957     211110.5    506.23805   -8485.4643    9.1319442 
  130000    1929.8546    22070.012     200792.7    510.63089   -8486.3291    9.0810274 
  131000    1843.3612     22055.85    198874.88    487.74511   -8495.8252    9.0868583 
  132000    1880.4861    22060.562    199829.51     497.5682   -8492.7608    9.0849175 
  133000    1972.9801    21993.774    208740.39    522.04169   -8482.0942    9.1125055 
  134000     1910.867    21994.432    206012.21    505.60685   -8489.5425    9.1122331 
  135000     1956.563    22091.962    193174.03    517.69779   -8515.6223    9.0720049 
  136000    1854.9664    22059.437    202117.32    490.81578   -8479.7866    9.0853807 
  137000     1858.223    22016.712    202145.48    491.67747   -8495.7277    9.1030119 
  138000     1922.012    22144.025    195592.83    508.55575    -8477.624    9.0506758 
  139000    1893.1599    21994.739    207339.49    500.92163   -8486.3555    9.1121056 
  140000    1972.4291    22061.765    202860.39    521.89589   -8483.2633    9.0844223 
  141000    1850.9783    22095.516    195792.19    489.76056   -8494.6546    9.0705457 
  142000    1891.9716    22124.976    193708.83    500.60721   -8496.4697    9.0584679 
  143000    1927.8933    22015.384    202269.26    510.11194   -8501.5018    9.1035609 
  144000    1927.1749    21930.546    216055.55    509.92185   -8469.5452    9.1387777 
  145000    1907.9019    22088.326    194203.11    504.82229   -8508.5655    9.0734982 
  146000    1875.2766    22120.546    193152.15    496.18979   -8498.4143     9.060282 
  147000    1893.8284    22087.274    199376.44     501.0985   -8483.8722    9.0739302 
  148000    1898.6083     22023.11    201902.79    502.36323   -8499.4571    9.1003671 
  149000    1908.9646    21992.026    206293.03    505.10348   -8491.9536    9.1132299 
  150000    1923.0474    22078.372    200925.12    508.82972   -8480.7408    9.0775892 
  151000    1868.6815    22102.568    192416.96    494.44475   -8510.1054    9.0676516 
  152000    1900.7364    22088.088    197035.92    502.92634   -8495.5134    9.0735958 
  153000    1930.3562    22083.535    200228.09     510.7636   -8481.3974    9.0754667 
  154000    1873.2204    22042.513    202899.59    495.64573   -8484.5967    9.0923564 
  155000    1938.8589    22115.625    197013.84    513.01338   -8486.0537    9.0622979 
  156000    1904.0468    22063.634    198005.59    503.80224   -8501.4592    9.0836524 
  157000    1898.9349    21903.219    217517.89    502.44966   -8470.9561    9.1501794 
  158000    1849.9557    22024.278    202834.03    489.48999   -8489.8236    9.0998847 
  159000    1847.6752    22051.132    200326.07    488.88657   -8492.6231    9.0888025 
  160000    1887.6885    21999.145    204970.18    499.47392   -8494.3288    9.1102808 
  161000    1903.1418    22008.081    204272.94    503.56279   -8492.5807    9.1065816 
  162000    1928.8557     22114.93    195226.08    510.36658   -8494.8577    9.0625831 
  163000    1867.3016    22172.886    190212.13    494.07964   -8491.8778     9.038895 
  164000    1880.8154    22096.271    199583.57    497.65533   -8477.2334    9.0702357 
  165000    1869.1055    22010.357    202810.83    494.55694    -8498.427    9.1056398 
  166000    1869.8044    22019.528    204310.95    494.74187   -8486.6393    9.1018474 
  167000    1876.1407    21992.472    205456.86    496.41842   -8493.0809    9.1130451 
  168000    1863.8878    22075.987    194719.62    493.17635   -8510.2774    9.0785699 
  169000    1925.1581    22157.915    191793.45    509.38821   -8492.3279    9.0450022 
  170000    1850.8807    22003.283    204455.67    489.73474   -8489.0188    9.1085676 
  171000     1912.079    21993.975    201183.32    505.92754   -8516.5062    9.1124221 
  172000    1928.3075    22138.996    194117.92    510.22153    -8490.135    9.0527314 
  173000    1853.5517    22010.758     204693.5    490.44147   -8486.1582    9.1054742 
  174000    1940.8847     22027.97    201996.77    513.54939   -8499.6968    9.0983593 
  175000    1866.9406    22070.826    195866.99     493.9841   -8507.4254    9.0806928 
  176000    1898.4265    22071.238    200029.53    502.31515   -8488.9964    9.0805232 
  177000    1793.3326      21986.2    205791.22    474.50776   -8490.9429    9.1156445 
  178000    1912.9531    22082.867    197686.38    506.15881   -8495.1811    9.0757414 
  179000    1898.5447    22090.122    196044.11    502.34641   -8497.4056    9.0727604 
  180000    1933.4274    21997.279     207407.9    511.57622   -8485.1906    9.1110536 
  181000    1906.5846    22031.617    204112.03    504.47375   -8485.4177    9.0968534 
  182000    1889.2756    22067.914    198234.66    499.89384   -8497.5803    9.0818909 
  183000    1949.5428    22080.377     200474.6    515.84028   -8484.8436    9.0767645 
  184000    1919.4323    22099.361    198887.98    507.87318   -8482.5304    9.0689676 
  185000    1863.3442    22138.267    192823.16    493.03253   -8492.3395    9.0530297 
  186000    1882.4221      22037.1    204321.01    498.08045   -8480.2824    9.0945901 
  187000    1931.8845    22055.162    202818.61    511.16797    -8484.006    9.0871419 
  188000    1918.8379    22080.538    198214.08    507.71591   -8494.3654    9.0766984 
  189000    1878.8977    22211.278    186931.51    497.14792    -8492.186    9.0232712 
  190000    1954.0312      22124.5    195440.68     517.0279   -8489.8318    9.0586628 
  191000    1857.7637    21996.174    205128.29    491.55594   -8491.2071    9.1115113 
  192000    1902.4788    22029.536    203665.18    503.38737   -8487.4021    9.0977125 
  193000    1917.7486     22037.86    199761.25    507.42768   -8505.7284    9.0942762 
  194000     1904.603    22106.227    199054.41    503.94941   -8478.6575    9.0661509 
  195000    1931.4453     22047.58    199650.86    511.05177    -8501.948    9.0902668 
  196000    1969.6772    22050.191    202662.61    521.16776   -8485.5341    9.0891903 
  197000    1884.0278    21976.409    210484.94     498.5053    -8477.699     9.119706 
  198000    1859.1484    22034.437    202310.63    491.92234   -8488.4192    9.0956892 
  199000     1888.404    22074.972     195930.6    499.66323    -8507.359    9.0789871 
  200000    1869.9608    22114.768    195765.67    494.78324   -8485.5425    9.0626495 
  201000     1963.123    22063.874    202212.94    519.43354   -8479.7875    9.0835536 
  202000    1904.9764    21999.409    206913.53    504.04822   -8483.7701    9.1101713 
  203000    1888.4268    22108.498    195011.43    499.66926   -8494.8502    9.0652194 
  204000    1894.2416    22134.206    191027.09    501.20785   -8506.1821    9.0546906 
  205000    1930.6244     22045.87    201414.44    510.83456   -8491.8977    9.0909719 
  206000    1881.7776    22011.965    202769.22    497.90992   -8498.0317    9.1049747 
  207000    1918.9037     22057.97    198637.15    507.73332   -8499.3238    9.0859849 
  208000    1892.5074     22015.56    201690.85    500.74896   -8502.5726    9.1034881 
  209000    1864.3001    22122.638    195926.59    493.28544   -8481.4069    9.0594251 
  210000    1902.4275    22164.673    188293.46    503.37379    -8504.795    9.0422443 
  211000    1904.5295    22034.664    202354.29    503.92996   -8491.0911    9.0955951 
  212000    1948.2287    22079.753    201236.53    515.49258   -8481.7468    9.0770211 
  213000    1904.7295    21989.758    206935.59    503.98287     -8489.86    9.1141699 
  214000    1842.6695     21939.05    211041.62    487.56208    -8483.943    9.1352356 
  215000    1861.3591    22131.221    190975.62    492.50728    -8502.741     9.055912 
  216000    1878.7979    22093.299    200756.75    497.12151   -8470.4242    9.0714558 
  217000    1865.3008    21955.951    210191.06    493.55022   -8486.2514    9.1282035 
  218000    1917.0025    22075.197    195523.02    507.23027   -8507.6106    9.0788946 
  219000    1873.6964    22097.073    198476.18    495.77168   -8482.1146    9.0699063 
  220000    1860.1726     22145.38    192057.95    492.19333   -8492.5799    9.0501217 
  221000    1908.1442     22029.13    205405.17     504.8864   -8481.1334    9.0978802 
  222000    1891.3475    22045.538    204540.54    500.44206    -8474.154     9.091109 
  223000    1895.7708    22082.806    198645.71    501.61246   -8490.7778    9.0757664 
  224000    1903.4685    22086.222    193987.36    503.64924   -8510.2126    9.0743625 
  225000    1943.5964    22066.724    199325.13     514.2669   -8493.2615    9.0823806 
  226000    1940.3314    21970.187    204139.61    513.40299   -8509.9033    9.1222885 
  227000    1940.1752    22093.574    197740.02    513.36165    -8492.028     9.071343 
  228000    1886.0627    22084.507    197632.09    499.04374   -8492.3179    9.0750671 
  229000    1920.4999    22114.907    196770.86    508.15567   -8484.1513    9.0625923 
  230000    1938.6889    21932.732    213013.49    512.96839   -8486.9353     9.137867 
  231000    1909.2384    22061.768    201195.06    505.17592   -8486.7524    9.0844209 
  232000    1855.2757    22092.147    195391.63    490.89763   -8498.7177    9.0719288 
  233000    1911.4683    22052.939    202118.96    505.76593   -8485.1853     9.088058 
  234000    1873.0525     22081.06    196476.24     495.6013   -8497.3554    9.0764838 
  235000     1929.373    22106.607    194468.85    510.50344   -8502.7772     9.065995 
  236000    1813.8662    22015.379    206993.56    479.94085   -8473.0562    9.1035628 
  237000     1935.762    22042.134    204338.13    512.19395   -8482.9223    9.0925129 
  238000    1881.7872      22086.9    195256.68    497.91245   -8501.3516    9.0740841 
  239000    1837.7032    22094.016    198469.06    486.24803   -8481.3989    9.0711614 
  240000    1899.5496    22009.267    208276.05    502.61231   -8472.2929    9.1060907 
  241000    1875.7253    22026.476    202059.83    496.30849   -8493.3161    9.0989765 
  242000     1869.656    22117.074    194398.54     494.7026   -8493.0317    9.0617043 
  243000    1892.8033    22117.593    196123.26    500.82728   -8488.9837    9.0614919 
  244000    1911.9616    22074.591    202871.24    505.89648   -8474.7798    9.0791438 
  245000    1917.2576    22026.331     204821.4    507.29775    -8483.118    9.0990362 
  246000    1923.7852    22090.822    194603.13    509.02493   -8506.4053    9.0724729 
  247000    1850.0368     22084.73    195002.01    489.51144   -8501.3824    9.0749755 
  248000    1891.1151    22119.001    194566.42    500.38058   -8493.9991    9.0609148 
  249000    1928.8407    22011.392    206490.13    510.36259   -8483.4009     9.105212 
  250000    1892.5088    22078.849    198175.75    500.74933   -8490.6472     9.077393 
Loop time of 517.29 on 8 procs for 250000 steps with 2048 atoms

Performance: 41.756 ns/day, 0.575 hours/ns, 483.288 timesteps/s
122.4% CPU use with 4 MPI tasks x 2 OpenMP threads

MPI task timing breakdown:
Section |  min time  |  avg time  |  max time  |%varavg| %total
---------------------------------------------------------------
Pair    | 305.7      | 311.81     | 318.47     |  26.1 | 60.28
Neigh   | 3.7464     | 3.8209     | 3.8886     |   2.7 |  0.74
Comm    | 20.714     | 27.415     | 33.778     |  89.9 |  5.30
Output  | 0.0058751  | 0.011509   | 0.013392   |   3.0 |  0.00
Modify  | 173.18     | 173.37     | 173.56     |   1.0 | 33.51
Other   |            | 0.864      |            |       |  0.17

Nlocal:        512.000 ave         523 max         495 min
Histogram: 1 0 0 0 0 0 1 0 1 1
Nghost:        3101.00 ave        3118 max        3090 min
Histogram: 1 1 0 1 0 0 0 0 0 1
Neighs:        43631.2 ave       46887 max       41067 min
Histogram: 2 0 0 0 0 0 0 1 0 1

Total # of neighbors = 174525
Ave neighs/atom = 85.217285
Neighbor list builds = 3995
Dangerous builds = 0


# fix 132 all momentum 100 linear 1 1 1 angular
fix out_file_1 all print 1000 "$(step) $(temp) $(press) ${sys_press} $(vol) $(ke) $(pe) $(density)" file one_phase_${sim}_press_$P_$T_.txt screen no title  "step temp press pressGiga vol ke pe density"
fix out_file_1 all print 1000 "$(step) $(temp) $(press) ${sys_press} $(vol) $(ke) $(pe) $(density)" file one_phase_heating_press_$P_$T_.txt screen no title  "step temp press pressGiga vol ke pe density"
fix out_file_1 all print 1000 "$(step) $(temp) $(press) ${sys_press} $(vol) $(ke) $(pe) $(density)" file one_phase_heating_press_200000_$T_.txt screen no title  "step temp press pressGiga vol ke pe density"
fix out_file_1 all print 1000 "$(step) $(temp) $(press) ${sys_press} $(vol) $(ke) $(pe) $(density)" file one_phase_heating_press_200000_1900_.txt screen no title  "step temp press pressGiga vol ke pe density"

# dump 3 all custom 1000 traj_npt_new.lammpstrj id type x y z
run 50000
Last active /omp style is pair_style eam/alloy/omp
Per MPI rank memory allocation (min/avg/max) = 4.338 | 4.338 | 4.338 Mbytes
Step Temp Volume Press KinEng PotEng Density 
  250000    1892.5088    22078.849    198175.75    500.74933   -8490.6472     9.077393 
  251000    1945.5632    22108.942     196407.1     514.7873   -8493.8603    9.0650373 
  252000    1925.1485     21989.23    205101.84    509.38567   -8499.6186    9.1143884 
  253000    1962.0942    21913.043    214303.73    519.16132   -8491.7934    9.1460776 
  254000    1870.3883    22099.436    196137.53    494.89635   -8494.5875    9.0689367 
  255000    1875.4755    22122.148    193480.39     496.2424   -8497.8636    9.0596258 
  256000    1894.2492    21950.408    207601.38    501.20983   -8501.6205    9.1305086 
  257000    1919.3176    22057.953    205455.22    507.84284   -8469.2932    9.0859921 
  258000    1874.7099    22070.077    199939.26    496.03983    -8487.587    9.0810008 
  259000     1876.632    22077.965    196398.47    496.54841   -8501.8096    9.0777564 
  260000    1880.8471    22059.283     201333.5    497.66371   -8485.6302    9.0854441 
  261000    1951.1391    22052.564    202368.64    516.26267   -8487.0888    9.0882125 
  262000    1867.8442    22060.278    198672.77    494.22319    -8494.064    9.0850343 
  263000    1918.7198    22169.633     191767.8    507.68467    -8488.418    9.0402212 
  264000     1910.645    21952.484     211384.9    505.54811   -8482.1442     9.129645 
  265000    1931.4866    22083.043    200061.75    511.06271    -8481.192    9.0756691 
  266000    1902.3402    22078.379    197217.97    503.35069   -8497.6178    9.0775862 
  267000    1941.1874    22099.294    199502.12    513.62949    -8479.535    9.0689948 
  268000    1886.4344    21938.993    209849.15    499.14207   -8494.1861    9.1352593 
  269000    1861.8575    22063.659    198533.62    492.63915   -8492.4337    9.0836423 
  270000    1917.9761    22121.655    196166.41    507.48789    -8484.159    9.0598281 
  271000    1872.9172    22029.224    204015.13     495.5655   -8483.3073    9.0978416 
  272000    1870.1889    22101.238    196658.94     494.8436   -8489.1733    9.0681974 
  273000    1896.3762    22100.986    197258.81    501.77263   -8486.9565    9.0683006 
  274000    1895.9552    21955.004    211796.83    501.66123    -8479.352     9.128597 
  275000    1920.7328    21980.577    208216.13    508.21728   -8488.5227    9.1179765 
  276000    1930.8682    22107.267    199066.19    510.89906   -8478.5956    9.0657244 
  277000    1855.9228    22075.254    197409.26    491.06884   -8495.4594    9.0788709 
  278000    1879.0316    22062.657    201925.28    497.18333   -8477.9357    9.0840548 
  279000    1883.2983    21891.414    217773.04    498.31228    -8475.681    9.1551139 
  280000    1846.3098    22035.379    202461.81    488.52529   -8488.7143    9.0953001 
  281000    1905.2765    22175.687    190341.71    504.12763   -8488.5238    9.0377532 
  282000    1927.4359    21972.324    203456.89    509.99089   -8515.8611    9.1214012 
  283000    1954.1108    22064.951    199465.64    517.04897   -8496.4831    9.0831105 
  284000    1881.1077    22101.947    195820.71    497.73268   -8492.1463    9.0679066 
  285000    1886.7882    22062.531    195733.72    499.23571   -8513.2365    9.0841066 
  286000    1883.2832    22052.804    201305.36     498.3083   -8485.2826    9.0881135 
  287000    1891.3213    22066.067    200470.93    500.43514   -8485.6993    9.0826509 
  288000    1895.9189    22072.421    200621.96    501.65165   -8484.9404    9.0800363 
  289000      1932.47    22068.872    195296.71    511.32289   -8511.0877    9.0814968 
  290000    1880.9582    21985.969    207985.96     497.6931   -8484.8467    9.1157406 
  291000    1953.3178    22104.606    195792.91    516.83912   -8497.3558    9.0668156 
  292000    1897.7089    22104.362    194059.27    502.12526   -8502.7019    9.0669157 
  293000    1923.8779     22082.27    199910.52    509.04947   -8485.5598    9.0759867 
  294000    1906.9474    22096.514    198262.69    504.56972   -8484.2983    9.0701362 
  295000    1951.3488    22036.815    202211.13    516.31815   -8493.1482    9.0947074 
  296000    1889.4977    22040.817    200484.85    499.95262   -8498.7719     9.093056 
  297000    1961.0414    22103.345    199485.58    518.88276   -8478.4522    9.0673328 
  298000    1912.8756    21990.644    207924.77     506.1383   -8484.2284    9.1138024 
  299000    1909.9647    22005.718       202988     505.3681   -8500.8161    9.1075594 
  300000     1864.097    22129.492    191915.73    493.23172   -8500.0352    9.0566194 
Loop time of 104.046 on 8 procs for 50000 steps with 2048 atoms

Performance: 41.520 ns/day, 0.578 hours/ns, 480.555 timesteps/s
123.2% CPU use with 4 MPI tasks x 2 OpenMP threads

MPI task timing breakdown:
Section |  min time  |  avg time  |  max time  |%varavg| %total
---------------------------------------------------------------
Pair    | 61.533     | 62.729     | 63.918     |  10.8 | 60.29
Neigh   | 0.74904    | 0.7607     | 0.77321    |   1.0 |  0.73
Comm    | 4.2183     | 5.4147     | 6.6623     |  37.7 |  5.20
Output  | 0.0011365  | 0.0017547  | 0.0019676  |   0.9 |  0.00
Modify  | 34.926     | 34.966     | 35         |   0.5 | 33.61
Other   |            | 0.1737     |            |       |  0.17

Nlocal:        512.000 ave         516 max         505 min
Histogram: 1 0 0 0 0 0 0 1 1 1
Nghost:        3099.00 ave        3106 max        3095 min
Histogram: 2 0 0 1 0 0 0 0 0 1
Neighs:        43524.0 ave       44940 max       41815 min
Histogram: 1 0 0 1 0 0 0 0 1 1

Total # of neighbors = 174096
Ave neighs/atom = 85.007812
Neighbor list builds = 792
Dangerous builds = 0

unfix temp
unfix out_file_1


write_data after_${sim}_press_$P_$T.in
write_data after_heating_press_$P_$T.in
write_data after_heating_press_200000_$T.in
write_data after_heating_press_200000_1900.in
System init for write_data ...
Last active /omp style is pair_style eam/alloy/omp
write_restart after_${sim}_press_$P_$T.lmp
write_restart after_heating_press_$P_$T.lmp
write_restart after_heating_press_200000_$T.lmp
write_restart after_heating_press_200000_1900.lmp
System init for write_restart ...
Last active /omp style is pair_style eam/alloy/omp

next loopVar
jump in.lmp ensemble

print """
Label pachadi solti, hos garam.
"""

Label pachadi solti, hos garam.

variable T equal 2100-${loopVar}*100
variable T equal 2100-3*100
# variable T equal 2850


reset_timestep 0
fix 1 all npt temp $T $T $(dt*100) iso $P $P $(dt*1000)
fix 1 all npt temp 1800 $T $(dt*100) iso $P $P $(dt*1000)
fix 1 all npt temp 1800 1800 $(dt*100) iso $P $P $(dt*1000)
fix 1 all npt temp 1800 1800 0.10000000000000000555 iso $P $P $(dt*1000)
fix 1 all npt temp 1800 1800 0.10000000000000000555 iso 200000 $P $(dt*1000)
fix 1 all npt temp 1800 1800 0.10000000000000000555 iso 200000 200000 $(dt*1000)
fix 1 all npt temp 1800 1800 0.10000000000000000555 iso 200000 200000 1
print """
<--------------------------------------------------------------------->
<------------------ Equilibrating at temperature $T ----------------->
<--------------------------------------------------------------------->
"""

<--------------------------------------------------------------------->
<------------------ Equilibrating at temperature 1800 ----------------->
<--------------------------------------------------------------------->

fix temp all print 1000 "$(step) $(temp) $(press) ${sys_press} $(vol) $(ke) $(pe) $(density)" file temp_${sim}.txt screen no title  "step temp press pressGiga vol ke pe density"
fix temp all print 1000 "$(step) $(temp) $(press) ${sys_press} $(vol) $(ke) $(pe) $(density)" file temp_heating.txt screen no title  "step temp press pressGiga vol ke pe density"
run 250000
Last active /omp style is pair_style eam/alloy/omp
Per MPI rank memory allocation (min/avg/max) = 4.338 | 4.338 | 4.338 Mbytes
Step Temp Volume Press KinEng PotEng Density 
       0     1864.097    22129.492    191915.73    493.23172   -8500.0352    9.0566194 
    1000    1756.9701    21986.547    201534.53     464.8864   -8509.0457    9.1155007 
    2000    1793.5667    21983.491    202882.27    474.56971   -8505.2772    9.1167681 
    3000    1796.8038    21874.807    210827.77    475.42624   -8511.5666     9.162064 
    4000    1806.2176    21963.472    203256.17    477.91707   -8512.9609    9.1250775 
    5000    1788.9821    22035.141    195578.58    473.35664   -8515.8226    9.0953986 
    6000    1771.9134    22049.117    193362.81    468.84034   -8520.7034    9.0896332 
    7000    1766.8065    22018.812    196283.65    467.48909   -8520.8955    9.1021433 
    8000    1829.8262    21984.828    200631.56     484.1638   -8518.8751    9.1162135 
    9000     1773.069    21950.541    201995.19    469.14611   -8520.7023    9.1304534 
   10000    1761.8566     22059.92    193692.56    466.17937   -8515.2522    9.0851821 
   11000    1780.7318    22092.128    188416.38    471.17366   -8527.9224    9.0719365 
   12000    1769.2133    21967.179    200842.88    468.12591   -8517.6824    9.1235378 
   13000    1831.0239     21959.68    202002.41    484.48071   -8519.7039    9.1266535 
   14000    1863.0689    21962.272    203155.58    492.95969   -8515.6489    9.1255761 
   15000    1835.0976    21944.431    201497.35     485.5586   -8531.3441    9.1329955 
   16000    1824.6755    22022.352    199311.79    482.80095   -8507.0147    9.1006805 
   17000    1777.7703    21931.441    205429.97    470.39005   -8511.2068    9.1384047 
   18000    1784.6016    21880.234    209303.26    472.19757   -8514.8725    9.1597919 
   19000    1719.5678    21997.393    198415.58    454.98993   -8516.5139    9.1110062 
   20000    1786.5766    22057.879    195879.24    472.72015   -8506.5317    9.0860226 
   21000    1783.6865    21990.656    200657.74    471.95545   -8511.8022    9.1137973 
   22000    1816.4918    21965.278    202291.25    480.63559   -8517.4939    9.1243275 
   23000    1808.7889    21947.028     201435.2    478.59742    -8529.338    9.1319145 
   24000    1768.3638    22056.892    195417.44    467.90114   -8508.4988     9.086429 
   25000    1778.0348    22022.517    195127.78    470.46004   -8523.9396    9.1006121 
   26000    1826.9247    21966.445    204322.37    483.39608    -8504.652    9.1238426 
   27000     1815.531    21946.532     203011.5    480.38138   -8521.5818    9.1321209 
   28000    1775.6263    21993.625    201885.84    469.82276   -8505.7044    9.1125672 
   29000    1807.1671    22025.639     195820.2     478.1683   -8524.5751     9.099322 
   30000    1801.8317    22003.944    197428.39    476.75658   -8521.7332    9.1082936 
   31000    1827.3017    21863.264    216486.71    483.49583   -8491.4029    9.1669016 
   32000    1767.1718    21903.842    208736.69    467.58574   -8508.9588    9.1499193 
   33000    1796.4974    22005.261     198713.5    475.34517   -8517.0448    9.1077488 
   34000    1782.8058    22035.729    196480.15    471.72241    -8510.875    9.0951555 
   35000    1754.9992    22059.753    191686.72    464.36491   -8525.5666    9.0852507 
   36000    1766.7439    21979.263    200931.25    467.47253    -8515.064    9.1185218 
   37000     1790.072    21967.406    202299.71    473.64501   -8514.0712    9.1234433 
   38000    1858.6068        22024    197407.37    491.77903   -8516.3951    9.0999994 
   39000     1795.107    22009.889    197020.87    474.97728   -8522.0089    9.1058338 
   40000    1951.7269    22116.088    190756.64    516.41819   -8517.8683    9.0621083 
   41000    1781.2533     21928.18    207532.68    471.31164   -8503.5113    9.1397637 
   42000    1843.8735    21940.593    206700.21    487.88066   -8509.3247    9.1345929 
   43000    1809.8038    21972.222    199562.38    478.86597   -8526.1801    9.1214438 
   44000    1772.7649    21971.553    199432.32    469.06565   -8523.2436    9.1217215 
   45000    1812.5259     22015.93     198244.8    479.58624    -8514.716    9.1033351 
   46000     1805.055    22055.407    192819.75    477.60947   -8524.7418    9.0870408 
   47000    1705.2498    22036.235    193198.19    451.20144    -8523.718    9.0949467 
   48000    1790.3714    22027.853    196157.16    473.72424   -8515.7438    9.0984075 
   49000    1827.7568    21948.813    204147.06    483.61626   -8515.2541     9.131172 
   50000    1753.6894    21939.613    202796.29    464.01836    -8521.793    9.1350009 
   51000    1743.6765    21978.877    198509.27    461.36899   -8524.0392    9.1186816 
   52000    1867.9567     22022.16    195599.19    494.25297   -8528.2297    9.1007599 
   53000    1810.6318    21989.248    198641.67    479.08505   -8525.2665    9.1143813 
   54000    1825.9255    21987.573    201889.59    483.13171   -8509.7538    9.1150753 
   55000    1801.7432    21996.223    203106.96    476.73317   -8500.2632    9.1114909 
   56000    1823.7198    21982.748    198396.76    482.54808   -8528.7328    9.1170759 
   57000    1859.0125    21989.981     200429.9    491.88638   -8518.7201    9.1140774 
   58000    1865.8045    21959.777    201540.76     493.6835   -8522.8808     9.126613 
   59000    1780.6473    21997.616     200262.5    471.15129   -8510.1499     9.110914 
   60000    1821.1195    22006.595    201219.63    481.86004   -8502.9291    9.1071967 
   61000    1863.5639    21973.366    200457.92    493.09064   -8524.9764     9.120969 
   62000    1796.0835    22055.969    191910.76    475.23564    -8526.662    9.0868093 
   63000    1837.6011    22066.922    190811.63      486.221   -8530.9049    9.0822992 
   64000    1811.5511    22012.887    197443.63    479.32831   -8519.1464    9.1045934 
   65000    1768.0141    21957.817    201182.21    467.80862   -8523.1696    9.1274278 
   66000    1812.9241     21984.28    203224.47    479.69158   -8503.1271    9.1164408 
   67000    1789.4849    21958.935    203203.97    473.48969   -8512.5072    9.1269632 
   68000    1786.8412      22028.1    197978.11    472.79018   -8510.7613    9.0983056 
   69000    1787.3935    22104.803    184282.23    472.93632   -8544.0388    9.0667347 
   70000    1775.1478    22034.803     194879.8    469.69614   -8521.2374    9.0955379 
   71000    1822.3382    22005.537    201819.11    482.18253   -8503.6563    9.1076344 
   72000    1804.3805    21917.416    206464.38    477.43098   -8515.2598    9.1442526 
   73000    1853.4177     21931.05    206058.37      490.406   -8514.8103    9.1385676 
   74000    1847.2585    22014.082    195723.48    488.77632   -8530.0134    9.1040993 
   75000    1783.0153    22000.409    199552.14    471.77785   -8512.5098    9.1097572 
   76000    1827.3104    21992.001    198772.77    483.49813    -8522.513    9.1132403 
   77000    1736.4582    21941.301    203767.68    459.45904   -8517.3349    9.1342982 
   78000    1805.3411    22005.979       199004    477.68515   -8515.9004    9.1074513 
   79000    1749.9152    22040.523    192159.82    463.01971   -8529.5692    9.0931773 
   80000    1779.0538    22075.324    190298.59    470.72966   -8526.3272    9.0788422 
   81000    1813.2816    22004.775    198627.42    479.78618   -8518.5342    9.1079498 
   82000     1830.106    21973.728    202783.04    484.23783   -8515.0993    9.1208185 
   83000    1723.5654     22004.06    198343.47    456.04768   -8511.9959     9.108246 
   84000    1761.5902    21993.708    201241.44    466.10886   -8505.5078    9.1125327 
   85000    1852.3632    21932.551    204972.88      490.127   -8521.1757    9.1379425 
   86000    1819.2655    21939.421    204233.88    481.36949    -8518.414    9.1350807 
   87000    1827.5529    22039.182    195239.92     483.5623    -8519.904    9.0937306 
   88000    1747.1601    22012.282    196358.16    462.29072   -8520.6012    9.1048438 
   89000    1835.8381    22002.537    199187.64    485.75453   -8519.9396    9.1088762 
   90000    1769.8109    21915.968     205318.2    468.28403   -8518.8256    9.1448567 
   91000    1821.7153    21968.102    203589.04    482.01769   -8509.5304    9.1231545 
   92000    1792.4427    22013.823    194207.35    474.27231   -8534.4963    9.1042064 
   93000    1812.5282    22042.208    194186.92    479.58684    -8523.497    9.0924824 
   94000     1819.755    21942.211    201668.45    481.49901   -8530.9893    9.1339195 
   95000    1782.2454    21960.307    203286.36    471.57414   -8512.7566    9.1263926 
   96000    1802.6665    21984.347    198642.07    476.97748   -8525.6664     9.116413 
   97000    1792.0306    22006.344    199271.16    474.16327   -8511.2933    9.1073005 
   98000    1844.7972    21925.732    208109.52    488.12507   -8508.6726    9.1407843 
   99000    1762.2429     21998.12    199652.01    466.28158   -8510.7544    9.1107051 
  100000    1745.6239    22035.556    199039.86    461.88426   -8499.1312    9.0952271 
  101000     1780.114    21986.061    198637.65     471.0102   -8524.9925    9.1157023 
  102000    1823.9791    21884.769    210956.17     482.6167   -8507.0721    9.1578937 
  103000     1857.292    21941.564    207412.98    491.43113   -8503.2556    9.1341889 
  104000    1833.5122    21957.286    200633.08    485.13911   -8528.9217    9.1276482 
  105000    1772.6619    22038.206    196968.62    469.03839   -8509.1237    9.0941333 
  106000    1775.4069    21971.541    197231.94     469.7647   -8538.1311    9.1217262 
  107000    1813.7798    22065.943    193995.59      479.918   -8514.8971    9.0827022 
  108000    1797.7549    21897.796    208221.52     475.6779   -8515.4927    9.1524457 
  109000    1846.6527    21972.619    205288.07    488.61603   -8500.6494    9.1212788 
  110000    1797.4983    21921.047    201769.14       475.61   -8536.2962    9.1427379 
  111000    1826.2785    22076.745    193592.25     483.2251   -8510.3149    9.0782578 
  112000    1811.2056    21952.858    200852.15    479.23687   -8528.9067    9.1294897 
  113000    1796.7792    21921.921    208611.24    475.41972   -8504.0501    9.1423734 
  114000     1832.275    21942.248    201518.92    484.81175   -8530.6605    9.1339042 
  115000    1779.6276     21938.06    203711.13    470.88148   -8518.7899    9.1356478 
  116000    1870.9439    22007.071    199496.47    495.04336   -8516.5647    9.1069994 
  117000    1799.4203    21942.995    203550.47    476.11854   -8520.0984     9.133593 
  118000    1756.5909    21972.716     201167.9    464.78607   -8515.4501    9.1212386 
  119000    1780.1528    22031.536     199616.5    471.02046   -8498.5246    9.0968865 
  120000    1783.5329    22003.594    198233.11    471.91481   -8520.1995    9.1084386 
  121000    1769.7382    22027.073    194539.07    468.26478   -8523.3824    9.0987299 
  122000    1804.2296    22046.544    194498.91    477.39105   -8520.5451    9.0906939 
  123000    1807.7929    21965.055    202531.56    478.33389   -8515.3246    9.1244198 
  124000    1886.9019    21975.814    202492.84    499.26579   -8514.2029    9.1199528 
  125000    1829.3516    21948.421    202075.99    484.03824   -8527.4416    9.1313352 
  126000    1866.4972     21989.07    198784.92    493.86679   -8526.3299    9.1144547 
  127000    1755.9077    21986.198    201345.32    464.60529   -8510.0433    9.1156453 
  128000    1785.8682    21901.967    209139.51    472.53271   -8508.7001    9.1507027 
  129000    1842.6945    21931.285    204591.09     487.5687    -8521.252    9.1384697 
  130000    1762.7216    22006.646    197182.77    466.40822   -8520.6499    9.1071754 
  131000    1798.2703    22018.838    197151.85    475.81427   -8517.8743    9.1021327 
  132000    1815.3923    21955.984    203834.25    480.34465    -8514.284    9.1281896 
  133000    1824.6347    21913.382    211231.27    482.79017   -8494.7174    9.1459357 
  134000    1827.3904    22029.786    198958.95    483.51931   -8506.8379    9.0976093 
  135000    1777.6375    22008.664    197763.42    470.35491   -8519.8533    9.1063404 
[...]
  120000    1508.6401    21812.858    198984.43     399.1794   -8579.4029    9.1880845 
  121000    1536.9057    21788.941    198741.56    406.65835    -8593.759    9.1981702 
  122000    1503.5443    21800.783    200419.23    397.83107   -8579.0576    9.1931736 
  123000    1505.3397    21778.239    200860.14    398.30613   -8584.9668      9.20269 
  124000     1494.117    21742.379    201644.87    395.33666   -8598.0094    9.2178684 
  125000     1525.173    21711.034       207320    403.55393   -8585.6614    9.2311766 
  126000    1500.2042    21716.241    207044.42    396.94731   -8581.8511    9.2289632 
  127000    1521.5925    21780.936    200451.39    402.60655   -8587.3354    9.2015505 
  128000    1465.5335    21784.035    197007.64    387.77361   -8600.7099    9.2002419 
  129000     1503.642    21821.076    194009.27    397.85694   -8599.3005    9.1846242 
  130000    1496.0617    21864.499    193506.56    395.85122   -8583.4617    9.1663839 
  131000    1424.4698    21786.915    197602.16    376.90832   -8594.1585    9.1990254 
  132000    1452.1734    21781.347    203837.18    384.23858   -8568.2481    9.2013769 
  133000    1484.0089    21740.306    206750.69     392.6621   -8573.6623    9.2187472 
  134000    1483.4237    21728.227    203258.87    392.50727   -8595.9121     9.223872 
  135000    1498.2029    21785.595     200509.5    396.41776   -8583.8312    9.1995831 
  136000    1515.4195    21744.307    202859.07     400.9732   -8591.3388     9.217051 
  137000    1513.7306    21773.519    203350.84    400.52632   -8576.3577     9.204685 
  138000    1492.8952    21800.672    196741.48    395.01338   -8594.7407    9.1932204 
  139000    1489.9021    21843.785    194817.08    394.22141   -8586.2469    9.1750759 
  140000     1508.172    21850.648    193866.44    399.05555    -8588.955    9.1721943 
  141000     1471.421    21785.556    198064.56     389.3314   -8594.6787    9.1995995 
  142000    1503.9086    21780.007     200583.3    397.92748   -8586.8261    9.2019432 
  143000    1520.0266    21764.735    201645.82    402.19223   -8589.8408       9.2084 
  144000    1513.0928     21808.22    200203.16    400.35758    -8576.842    9.1900388 
  145000    1543.6258     21791.48    199192.52    408.43646   -8590.9669    9.1970984 
  146000    1523.5296    21766.959    203834.73     403.1191   -8578.6078    9.2074592 
  147000    1514.9729    21747.213    203012.48    400.85504   -8589.0548    9.2158196 
  148000    1551.8866    21772.474    200561.65    410.62225   -8594.0473    9.2051271 
  149000    1510.7977    21773.965     202671.7     399.7503   -8579.6978    9.2044966 
  150000    1474.1611     21776.71    200864.65    390.05641   -8584.2489    9.2033363 
  151000    1506.0851    21799.853    198565.95    398.50336   -8586.5466     9.193566 
  152000    1484.1098     21811.82    198189.09    392.68879   -8583.2838    9.1885219 
  153000    1444.9005    21831.199    193466.88    382.31419   -8594.8992    9.1803657 
  154000    1513.9634    21902.212    189272.78    400.58792   -8590.5448    9.1506002 
  155000    1486.5297    21791.338    199187.85    393.32909   -8588.8782    9.1971583 
  156000    1508.4272    21805.464    199932.18    399.12307   -8578.3728    9.1912001 
  157000    1493.0047    21795.299    198851.92    395.04236   -8588.4014    9.1954868 
  158000    1511.7208    21786.199    200893.52    399.99454   -8582.8806     9.199328 
  159000      1504.64    21742.046     206272.4      398.121    -8575.218    9.2180097 
  160000    1455.9695    21715.073    208426.97    385.24301   -8573.7417    9.2294595 
  161000    1477.6599    21767.809    203930.91    390.98217   -8574.6715    9.2070995 
  162000    1466.1776    21780.428    199459.14    387.94402   -8588.7465    9.2017654 
  163000    1509.1044    21795.834    198600.76    399.30225   -8589.5821    9.1952612 
  164000    1531.9791    21778.416    203571.22     405.3548   -8575.7427    9.2026153 
  165000    1509.1291    21692.241    209866.59    399.30879   -8580.1801     9.239174 
  166000    1518.1159    21756.698    204729.97    401.68667   -8576.6324    9.2118018 
  167000    1527.1191     21774.22    199896.78    404.06886   -8595.2965    9.2043887 
  168000    1489.4617    21776.725    200345.02    394.10488   -8589.1345      9.20333 
  169000    1476.3606    21791.005    199212.84     390.6384   -8586.7311    9.1972988 
  170000    1518.8476    21805.569    199885.12    401.88026   -8579.0186    9.1911561 
  171000    1506.4502    21768.063    200687.81    398.59996   -8590.9634    9.2069921 
  172000    1489.1182    21751.247    205168.35    394.01399   -8577.1012      9.21411 
  173000    1464.2465    21739.804    204649.93    387.43306   -8581.6181    9.2189601 
  174000    1518.0466    21761.808    203892.96    401.66831   -8580.0445    9.2096384 
  175000    1499.7448    21789.283    200650.39    396.82575   -8582.1879    9.1980259 
  176000    1470.8416    21762.877    199372.15     389.1781   -8597.2986     9.209186 
  177000    1494.6432    21809.876    197969.95    395.47589   -8586.2178    9.1893411 
  178000     1476.037    21814.791    198843.63    390.55278   -8577.1423    9.1872705 
  179000    1540.2156    21803.196    200399.62    407.53415   -8580.9499    9.1921564 
  180000    1471.6737    21801.963    197976.87    389.39825   -8587.0831     9.192676 
  181000    1506.7338    21895.063    190245.79      398.675   -8588.7206    9.1535878 
  182000    1490.9679    21862.565    194289.92    394.50343   -8581.2736    9.1671947 
  183000    1500.8547     21816.64    197842.11    397.11941   -8584.7611    9.1864919 
  184000    1492.7334     21790.25    198279.17    394.97056   -8593.7046    9.1976176 
  185000    1543.5046    21800.485    197521.12    408.40439   -8596.4976    9.1932995 
  186000    1495.2739    21783.045    200124.89    395.64277   -8586.3465    9.2006598 
  187000    1510.1476    21811.786    196846.73    399.57829   -8591.3966    9.1885363 
  188000    1512.5425    21818.933    193902.43    400.21196   -8603.2796    9.1855264 
  189000    1485.1773    21894.266    190504.15    392.97124   -8586.2897    9.1539212 
  190000    1527.1506    21833.581    195310.24    404.07721   -8590.3231    9.1793641 
  191000    1516.8916    21785.469    200778.08    401.36272    -8583.598    9.1996361 
  192000    1483.5307    21754.534    202444.08    392.53557   -8588.9925    9.2127178 
  193000    1488.6069    21789.365    200468.17     393.8787   -8584.4813     9.197991 
  194000    1506.5521    21806.807    195421.57    398.62692   -8600.5909    9.1906341 
  195000    1489.1211    21889.979    190723.28    394.01478   -8587.1997     9.155714 
  196000    1521.8544    21884.082       190537    402.67584   -8593.1992     9.158181 
  197000    1483.3374    21818.563    197050.89    392.48443   -8586.4029    9.1856822 
  198000    1489.5004     21803.95    199504.74    394.11512   -8578.7266    9.1918383 
  199000    1517.2811    21780.325    201716.37    401.46576   -8581.5692    9.2018087 
  200000    1502.7991    21737.685    205532.38    397.63391   -8581.8374    9.2198589 
  201000    1534.9744    21742.814    206241.36    406.14734   -8576.6047    9.2176837 
  202000    1490.3896    21712.983    207716.24    394.35042    -8581.409     9.230348 
  203000    1574.3304    21761.739    205450.57    416.56077   -8577.2331    9.2096676 
  204000    1502.6271    21739.663    200986.47    397.58839   -8603.8554      9.21902 
  205000    1518.2591    21805.205    196002.31    401.72455   -8599.8783    9.1913096 
  206000    1521.5591     21829.53    195499.44    402.59772   -8592.3328    9.1810672 
  207000    1486.6941    21805.584    198558.54    393.37259   -8586.0832    9.1911496 
  208000    1511.5069    21741.785    204215.01    399.93796   -8585.6055    9.2181201 
  209000    1557.7703    21682.628    215968.84    412.17905   -8555.2332      9.24327 
  210000    1471.7955    21699.639    209968.73    389.43048   -8573.3418    9.2360242 
  211000      1528.54    21792.456    200618.57    404.44484    -8582.062    9.1966867 
  212000    1466.3954    21781.922    198982.14    388.00165   -8590.3848    9.2011341 
  213000    1500.1412    21831.807    196198.51    396.93062   -8587.4381    9.1801098 
  214000    1468.8367    21830.902     193369.6    388.64761   -8598.1982    9.1804902 
  215000     1532.044    21845.782    192789.43    405.37198   -8599.7388    9.1742372 
  216000    1503.8577    21789.244    199042.45    397.91402   -8591.1252    9.1980421 
  217000    1565.0529    21802.985    198195.31    414.10598   -8592.2165    9.1922454 
  218000    1501.3414    21745.446    204006.23     397.2482   -8584.1962    9.2165681 
  219000    1533.6588    21747.184    206667.26    405.79923   -8574.0388    9.2158315 
  220000    1453.9132    21724.284    207079.62     384.6989   -8576.2266    9.2255461 
  221000    1516.6314    21801.706    198561.49    401.29386    -8589.591    9.1927847 
  222000    1493.7829    21813.541    197268.94    395.24827   -8587.7325     9.187797 
  223000    1507.4665    21826.164    196076.37    398.86888   -8589.1817    9.1824834 
  224000    1491.2498    21845.292    194922.12    394.57801   -8585.6422     9.174443 
  225000     1498.677     21771.65    200572.67    396.54321   -8589.5884    9.2054755 
  226000    1532.1097    21791.448    201145.62    405.38936   -8581.3629     9.197112 
  227000    1483.4696    21769.125    201189.91     392.5194   -8588.1054    9.2065431 
  228000    1505.3679    21842.958    196555.02    398.31361   -8579.5891    9.1754235 
  229000    1479.3098    21832.686    194956.49    391.41874   -8590.8213    9.1797401 
  230000    1467.2819    21797.643    201098.48    388.23622   -8574.5921    9.1944981 
  231000    1522.7035    21733.656    204910.61    402.90052    -8588.853    9.2215678 
  232000    1486.9673     21756.27     204631.6    393.44488   -8578.3627    9.2119828 
  233000    1485.7004    21759.882     202622.1    393.10966   -8584.1709    9.2104538 
  234000    1525.9798    21809.975    199913.57    403.76741   -8578.7795    9.1892993 
  235000    1506.7614    21794.662    197024.01     398.6823   -8597.6759    9.1957557 
  236000    1521.2262    21849.109    191320.69    402.50964   -8601.0456    9.1728404 
  237000    1511.5253    21878.302    188819.32    399.94281   -8601.8179    9.1606005 
  238000    1492.7275    21835.481    194863.44      394.969   -8591.3259    9.1785651 
  239000    1436.1219    21795.915    200323.57     379.9914   -8574.3378    9.1952269 
  240000    1497.2896    21812.206     200822.8    396.17612   -8571.1915    9.1883595 
  241000    1502.2056    21762.275    201650.35    397.47687    -8587.311     9.209441 
  242000     1491.902    21771.643    201878.06    394.75057   -8582.1863    9.2054783 
  243000    1516.5811    21791.148    200585.52    401.28056    -8581.794    9.1972384 
  244000    1520.3358    21781.851    199170.87    402.27404   -8593.9286    9.2011639 
  245000    1507.3305      21762.6    203945.01    398.83288   -8578.2089    9.2093035 
  246000    1492.8404    21745.756    206562.82    394.99887   -8571.8673    9.2164368 
  247000    1524.1144    21724.953     208370.2    403.27383    -8575.388    9.2252622 
  248000    1480.2326    21701.362    205114.42    391.66292   -8596.7702    9.2352906 
  249000    1474.6513    21772.645    203184.89    390.18612   -8575.4626    9.2050547 
  250000    1488.0669    21751.331    202437.22    393.73584    -8587.249    9.2140746 
Loop time of 541.222 on 8 procs for 250000 steps with 2048 atoms

Performance: 39.910 ns/day, 0.601 hours/ns, 461.918 timesteps/s
120.2% CPU use with 4 MPI tasks x 2 OpenMP threads

MPI task timing breakdown:
Section |  min time  |  avg time  |  max time  |%varavg| %total
---------------------------------------------------------------
Pair    | 320.81     | 328.63     | 335.25     |  28.9 | 60.72
Neigh   | 2.6557     | 2.699      | 2.7362     |   1.9 |  0.50
Comm    | 23.015     | 29.695     | 37.789     |  98.3 |  5.49
Output  | 0.0059997  | 0.011843   | 0.013802   |   3.1 |  0.00
Modify  | 179.13     | 179.36     | 179.55     |   1.1 | 33.14
Other   |            | 0.8199     |            |       |  0.15

Nlocal:        512.000 ave         524 max         499 min
Histogram: 1 0 0 1 0 0 0 1 0 1
Nghost:        3101.00 ave        3114 max        3089 min
Histogram: 1 0 1 0 0 0 1 0 0 1
Neighs:        44509.0 ave       47263 max       41981 min
Histogram: 1 0 0 1 0 1 0 0 0 1

Total # of neighbors = 178036
Ave neighs/atom = 86.931641
Neighbor list builds = 2717
Dangerous builds = 0


# fix 132 all momentum 100 linear 1 1 1 angular
fix out_file_1 all print 1000 "$(step) $(temp) $(press) ${sys_press} $(vol) $(ke) $(pe) $(density)" file one_phase_${sim}_press_$P_$T_.txt screen no title  "step temp press pressGiga vol ke pe density"
fix out_file_1 all print 1000 "$(step) $(temp) $(press) ${sys_press} $(vol) $(ke) $(pe) $(density)" file one_phase_heating_press_$P_$T_.txt screen no title  "step temp press pressGiga vol ke pe density"
fix out_file_1 all print 1000 "$(step) $(temp) $(press) ${sys_press} $(vol) $(ke) $(pe) $(density)" file one_phase_heating_press_200000_$T_.txt screen no title  "step temp press pressGiga vol ke pe density"
fix out_file_1 all print 1000 "$(step) $(temp) $(press) ${sys_press} $(vol) $(ke) $(pe) $(density)" file one_phase_heating_press_200000_1500_.txt screen no title  "step temp press pressGiga vol ke pe density"

# dump 3 all custom 1000 traj_npt_new.lammpstrj id type x y z
run 50000
Last active /omp style is pair_style eam/alloy/omp
Per MPI rank memory allocation (min/avg/max) = 4.338 | 4.339 | 4.340 Mbytes
Step Temp Volume Press KinEng PotEng Density 
  250000    1488.0669    21751.331    202437.22    393.73584    -8587.249    9.2140746 
  251000    1488.9104    21780.426    199874.42    393.95901   -8588.3144     9.201766 
  252000    1526.5292    21805.644    196984.34    403.91279   -8594.3286    9.1911245 
  253000    1494.0358    21825.764     196500.5    395.31517    -8587.774    9.1826516 
  254000    1497.4847    21777.199    198119.77    396.22773   -8598.5503    9.2031298 
  255000    1539.4457    21808.813    199074.41    407.33043   -8584.2386    9.1897887 
  256000    1513.7319    21789.314    200789.21    400.52667    -8582.048    9.1980127 
  257000    1479.9729    21770.644     200767.8    391.59419   -8587.6226    9.2059006 
  258000     1457.642    21785.286     200658.7    385.68555    -8581.242    9.1997133 
  259000    1500.2699    21788.624    198706.67    396.96468   -8593.6239    9.1983042 
  260000    1508.7835    21796.703    197172.42    399.21735   -8597.2503    9.1948946 
  261000    1465.4835    21817.339    195500.16    387.76037   -8593.7236    9.1861975 
  262000    1511.2543    21838.006    194068.65    399.87112   -8594.3483    9.1775041 
  263000    1536.4041    21848.002    196797.16    406.52564   -8577.6531    9.1733049 
  264000    1498.3629    21781.792    199548.06    396.46011   -8591.6059     9.201189 
  265000    1465.8904     21814.76    194364.68    387.86803   -8598.5886    9.1872835 
  266000    1517.1534    21860.975    191723.44    401.43198   -8593.3133    9.1678615 
  267000    1511.6932    21876.936    192419.65    399.98723   -8585.2696    9.1611727 
  268000    1498.1107     21782.35    200094.81    396.39338     -8588.41    9.2009533 
  269000     1497.078    21763.654    204408.55    396.12013   -8573.8424    9.2088574 
  270000    1478.3733     21783.96    201378.66    391.17095   -8579.6694    9.2002733 
  271000    1538.9115    21788.387    198560.92    407.18909   -8595.4963    9.1984039 
  272000    1510.3874    21803.247     198599.1    399.64173   -8585.9846    9.1921348 
  273000    1538.0696    21791.649    198899.41    406.96633    -8591.669     9.197027 
  274000    1491.6738    21787.145    199954.04    394.69019   -8586.6632    9.1989283 
  275000    1505.7545    21797.539    199837.58    398.41588   -8581.9605    9.1945419 
  276000    1490.7924     21760.96    202430.24    394.45697   -8585.4263    9.2099973 
  277000    1492.3594    21727.545    210138.93    394.87161   -8564.1155    9.2241615 
  278000    1493.0223    21701.735    208549.67    395.04701   -8581.6003    9.2351318 
  279000    1547.4999    21807.615    198375.71    409.46153   -8587.3324    9.1902937 
  280000     1459.766    21794.424    198199.38    386.24754   -8589.3055    9.1958562 
  281000    1480.1932    21826.137    197179.77     391.6525   -8580.8477    9.1824947 
  282000    1460.9339    21767.659     201585.9    386.55657   -8584.8331    9.2071631 
  283000    1535.0701    21775.849    202976.76    406.17266   -8577.8163       9.2037 
  284000    1469.9824    21742.518    204422.73    388.95074     -8582.79    9.2178094 
  285000    1536.4918    21814.867    198268.07    406.54884   -8585.7457    9.1872385 
  286000     1499.712    21847.208    194190.45    396.81708   -8589.5569    9.1736385 
  287000    1469.9083    21838.112    192093.55    388.93116   -8600.8011    9.1774594 
  288000    1490.3893    21818.262    195669.56    394.35032   -8593.6976    9.1858091 
  289000    1521.6023    21815.813    197287.97    402.60915   -8587.3251    9.1868401 
  290000    1484.4695    21780.991    199452.39    392.78398   -8589.7006    9.2015276 
  291000    1493.4095    21771.646    201143.54    395.14945    -8585.416    9.2054771 
  292000    1509.6982    21805.743    197105.27    399.45936   -8592.4642    9.1910826 
  293000    1508.5232    21865.832    191816.07    399.14847   -8594.4883     9.165825 
  294000    1416.3597    21828.836    195266.24    374.76244   -8587.7056    9.1813592 
  295000    1535.2438    21826.656    194750.89    406.21863   -8597.2316    9.1822762 
  296000    1508.4986    21787.415    198776.53    399.14197   -8591.8456    9.1988143 
  297000    1477.0648    21784.849     201621.4    390.82472   -8578.5063    9.1998977 
  298000    1519.0077    21771.613    202894.91    401.92263    -8580.451    9.2054909 
  299000    1543.9808    21765.671    200941.17    408.53039   -8593.2534    9.2080041 
  300000    1483.6109    21742.347    202243.25     392.5568   -8594.6743    9.2178821 
Loop time of 107.145 on 8 procs for 50000 steps with 2048 atoms

Performance: 40.319 ns/day, 0.595 hours/ns, 466.659 timesteps/s
120.9% CPU use with 4 MPI tasks x 2 OpenMP threads

MPI task timing breakdown:
Section |  min time  |  avg time  |  max time  |%varavg| %total
---------------------------------------------------------------
Pair    | 63.513     | 64.924     | 66.335     |  12.6 | 60.59
Neigh   | 0.53379    | 0.53996    | 0.54887    |   0.9 |  0.50
Comm    | 4.1546     | 5.5805     | 7.0447     |  44.1 |  5.21
Output  | 0.0010956  | 0.0017814  | 0.0020143  |   0.9 |  0.00
Modify  | 35.886     | 35.935     | 35.968     |   0.5 | 33.54
Other   |            | 0.1633     |            |       |  0.15

Nlocal:        512.000 ave         527 max         494 min
Histogram: 1 0 1 0 0 0 0 0 0 2
Nghost:        3101.00 ave        3119 max        3086 min
Histogram: 2 0 0 0 0 0 0 1 0 1
Neighs:        44499.0 ave       47081 max       41793 min
Histogram: 1 0 0 1 0 0 1 0 0 1

Total # of neighbors = 177996
Ave neighs/atom = 86.912109
Neighbor list builds = 547
Dangerous builds = 0

unfix temp
unfix out_file_1


write_data after_${sim}_press_$P_$T.in
write_data after_heating_press_$P_$T.in
write_data after_heating_press_200000_$T.in
write_data after_heating_press_200000_1500.in
System init for write_data ...
Last active /omp style is pair_style eam/alloy/omp
write_restart after_${sim}_press_$P_$T.lmp
write_restart after_heating_press_$P_$T.lmp
write_restart after_heating_press_200000_$T.lmp
write_restart after_heating_press_200000_1500.lmp
System init for write_restart ...
Last active /omp style is pair_style eam/alloy/omp

next loopVar
jump in.lmp ensemble
























Total wall time: 1:02:46
