LAMMPS data file via write_data, version 29 Oct 2020, timestep = 150000

2016 atoms
1 atom types

-0.014983876168511046 21.27898387616865 xlo xhi
-0.014983876168511046 21.27898387616865 ylo yhi
-0.03496237772410282 49.65096237771941 zlo zhi

Masses

1 58.933

Atoms # atomic

27 1 1.610717964688982 2.562843927749514 1.8103373310700612 0 0 0
8 1 3.4605412078974678 1.1177055073544462 1.9727011898950524 0 0 0
146 1 1.5977450978373486 0.982478946720635 3.6968432841347476 0 0 0
173 1 3.3355126295083846 2.749145538974369 3.9097268506467566 0 0 0
170 1 1.7310106777439087 4.303632885987961 3.8640746623980537 0 0 0
31 1 5.132306144817257 2.7200024227047694 1.6913903068781206 0 0 0
12 1 6.79696188741016 1.014801822412373 1.9508721584256954 0 0 0
177 1 6.71632967112779 2.739147836052538 3.5419309330362725 0 0 0
150 1 5.228203945476801 0.9877945880622594 3.6818923264592915 0 0 0
174 1 5.226520656867631 4.4922728522893625 3.515446527268278 0 0 0
178 1 8.955602425965841 4.274008497470539 3.733471899690262 0 0 0
1935 1 2.1467736974327196 15.07022407206249 0.03868582264273182 -4 1 1
56 1 5.222768531626139 7.982648925817396 0.2937014341307848 0 0 0
1018 1 17.778677100940882 13.49564957146145 0.30513386118410046 -1 3 1
35 1 8.68944154568347 2.5670711083534457 2.045320660567069 0 0 0
154 1 8.637932671061417 0.5719604270249298 3.441615463866695 0 0 0
16 1 10.508569239230054 0.8199945638806811 2.050947921342799 0 0 0
158 1 12.46514625238398 0.48845134096272136 3.8755345462725392 0 0 0
181 1 10.82266717773928 2.1531811756603467 3.9085315906926996 0 0 0
102 1 3.529193496833877 16.773337754327656 0.3496598297356709 0 0 0
39 1 12.520797541920349 2.5758792549239375 2.31027025424018 0 0 0
182 1 12.15238410463369 4.562310769144873 3.927967070948592 0 0 0
1267 1 3.2427265853742187 5.917583417033993 0.4126012262640293 1 0 1
114 1 14.24364094530873 16.686193031643047 0.21736910397615006 0 0 0
20 1 14.411518299521344 0.19389295505038662 1.9291211534843207 0 0 0
18 1 16.423642977126928 2.4537873010244273 1.9182020583347992 0 0 0
185 1 14.784150986673092 2.26197091923411 3.669561017972061 0 0 0
186 1 15.907891115979094 4.505469132254444 4.1211898666676925 0 0 0
44 1 14.252606170371081 4.0161846473037315 2.1040555218626134 0 0 0
30 1 7.246403447738568 2.5654648486916023 0.15637813740546222 0 0 0
110 1 12.79067013146346 15.01357857488601 0.08509246550082737 0 0 0
162 1 16.289024834799914 0.651001758429104 3.3987921011460096 0 0 0
2007 1 3.3853467853483226 20.422991623063286 0.2390228103238491 1 1 1
4 1 20.844693886101084 1.1382304010294249 1.7057322940030524 -1 0 0
169 1 21.20897571523456 2.524494613920686 3.6799233898343355 -1 0 0
24 1 18.091741084823877 0.8508137559932167 2.0158548418220024 0 0 0
47 1 19.194579424448737 2.738913621143197 2.0449956092737387 0 0 0
166 1 19.697780428864803 0.8097065747834373 3.811455128807273 0 0 0
189 1 17.823285035149137 2.755353713559172 3.831072878903842 0 0 0
190 1 19.622731891255018 4.5280465780058785 3.9547300552422473 0 0 0
412 1 21.186509774266355 18.367839240161558 8.797172497658238 -1 0 0
50 1 3.4611993273576336 4.312138056446912 1.934348978277614 0 0 0
1074 1 1.5879562394202151 6.031921722231285 2.2146978522526926 0 -2 1
51 1 3.5155841933516965 7.817231008852745 2.277778292828137 0 0 0
194 1 1.884448775752496 8.108466575332349 3.8782981901494336 0 0 0
197 1 3.4518198800828337 5.740554472500044 3.695818721051697 0 0 0
1017 1 0.14281324200153783 7.722722930282176 1.734980400093924 1 1 1
1178 1 3.348283649345014 12.91078772002813 0.2536898690864195 1 -3 1
130 1 8.850402097563807 18.443837071891764 0.12158739585373457 0 0 0
13 1 10.68455383603762 19.97819448491155 0.4541473155386436 0 -1 0
36 1 7.293014096216103 4.517130801226099 1.6916318612421917 0 0 0
55 1 5.289861821405995 6.183172593514161 2.112788478328684 0 0 0
60 1 7.264950892457772 7.638776550305269 1.6720105157256495 0 0 0
198 1 5.489680269458092 7.816402124804169 3.519524176419635 0 0 0
201 1 7.2248256136463676 5.827268379896915 3.677465987380059 0 0 0
1441 1 21.25225107959645 6.0496379793115596 0.04797101587119336 -2 2 1
1143 1 1.768536832742797 7.951697449325199 0.17359013371750934 2 3 1
131 1 6.674044544171746 16.810430678662282 0.12904656985035584 0 0 0
40 1 10.542493835906212 3.794901139980228 2.2001050163176328 0 0 0
78 1 3.455235306230595 9.666248533204763 0.0012939102636542951 0 0 0
202 1 8.73775299842334 7.791117833019673 3.7259149375278744 0 0 0
59 1 9.141629644384553 6.107354311792415 1.8578240511248905 0 0 0
64 1 10.483658246914219 8.033514077414178 1.894001326809218 0 0 0
63 1 12.052671051227405 6.334321693810304 1.9390452197877508 0 0 0
205 1 10.404459585526373 6.099121890392129 3.8573610057056524 0 0 0
206 1 11.989549369450359 7.799072433297307 3.8422120184988633 0 0 0
123 1 1.5442556728925612 18.19497908179331 0.014964734574949186 0 0 0
46 1 15.698670575516164 7.934461423182365 0.07800668537469932 0 0 0
1636 1 10.32360709596742 16.606308495583992 0.1461268720299078 -2 1 1
67 1 15.789983850231092 6.043749354927257 2.0803219963849258 0 0 0
68 1 14.460161008401785 8.089457676160484 2.0675291873154125 0 0 0
210 1 15.851435974176072 8.04338071953749 3.903037069241385 0 0 0
209 1 13.996813892319748 6.378683959206957 3.4622988512508748 0 0 0
1488 1 12.401340060733748 4.265529411375752 0.4246988350683448 0 3 1
28 1 0.13184120424312473 4.1834227508361215 2.0626723719022446 0 0 0
71 1 17.83099975235571 4.622856752991384 1.9523109278837778 0 0 0
72 1 19.734283892575654 6.243782869435394 2.107560793913757 0 0 0
213 1 17.72456550519674 6.43113833763631 3.777046902950367 0 0 0
91 1 17.414336495347886 7.9509161189053215 2.125631718665181 0 0 0
214 1 19.6677182591294 7.515499887331528 3.987776659304716 0 0 0
61 1 9.237375117923394 4.221108000546778 0.4419824474278502 0 0 0
193 1 21.27264014510037 6.146632822608209 3.830421261596603 -1 0 0
57 1 5.192546574363643 4.41676030260883 0.3119599262657725 0 0 0
75 1 1.901543466616812 9.53601248651505 2.0255471831936736 0 0 0
80 1 3.5437769761062947 11.262693478851626 2.165259727288562 0 0 0
221 1 3.8033849459401843 9.918798461664478 3.991982147078911 0 0 0
217 1 0.20164484862471233 9.767454083628841 3.5440997848318054 0 0 0
218 1 1.9337017471225975 11.70208743636361 3.713663036864076 0 0 0
118 1 17.69833086810013 16.85536976912394 0.04580486979342181 0 0 0
43 1 15.94293114602061 4.217738008663671 0.16435202187357795 0 0 0
82 1 8.676335563694828 11.210864383168502 0.11848720099927335 0 0 0
89 1 14.268550912899476 9.81501210404564 0.12193234263231084 0 0 0
141 1 15.782752330333476 14.843408284561475 0.1773558801027876 0 0 0
79 1 5.112230604923061 9.520363884501808 2.1109704682964745 0 0 0
84 1 7.339856421991663 11.295202830654457 1.8328765056080933 0 0 0
225 1 7.221255903843474 9.390563694410867 3.616228607001587 0 0 0
1999 1 21.05457698435344 9.758121401197597 0.07404380528590927 0 1 1
1785 1 5.309909665266844 0.5424414219908129 0.40994535439604296 1 3 1
226 1 8.577048423408023 11.750144804334719 3.868633295096962 0 0 0
83 1 8.748859862019223 9.317234575967829 1.7407110148738032 0 0 0
88 1 10.271113353758524 11.474372083926779 1.8631356907988945 0 0 0
229 1 10.176801869210959 9.945702032436671 3.83432265714851 0 0 0
62 1 12.43945054847576 9.280934720992542 2.182922933829081 0 0 0
230 1 12.081678500282225 11.062835726336159 3.6504313330784495 0 0 0
253 1 10.72337303754713 13.432090959462986 3.736568068675647 0 0 0
37 1 10.74744313053038 2.347439413413139 0.11705563880097739 0 0 0
87 1 11.796294733392784 11.818794698938184 0.14819348148385 0 0 0
1123 1 16.297586232531064 0.9592970545022994 0.12446335270476269 -1 4 1
92 1 16.221434345740548 9.583004974140144 1.8895287417131792 0 0 0
90 1 13.751090031719489 11.306565165297396 2.0066398977688844 0 0 0
234 1 15.771053382487393 11.105479217898448 3.5215805245663083 0 0 0
233 1 13.96801160834464 9.50213371543015 3.8127913402245865 0 0 0
1260 1 14.337377896011272 2.2722813581020747 0.5063649360592862 -2 1 1
76 1 -0.006784447399205362 11.27231949642658 1.8026985669291757 0 0 0
95 1 19.341892881700478 9.371981882590909 1.8266067402184676 0 0 0
96 1 17.85979564965916 11.522412308509095 1.613716711663942 0 0 0
237 1 17.85404371734393 9.65016991244207 3.807819854102255 0 0 0
238 1 19.53021819274239 11.19036329381605 3.275168792336133 0 0 0
432 1 17.33685605640669 18.48417114459671 8.916793928271549 0 0 0
295 1 5.585221066181517 20.278677974126342 9.042613694241146 0 -1 0
437 1 7.147775819415364 20.471565197817313 10.805163272970937 0 -1 0
241 1 0.13051162484794518 13.167629212804027 3.6130273012371834 0 0 0
99 1 2.2756983431719995 13.142205692786911 2.0217625519125244 0 0 0
245 1 4.0834897312818565 12.964424842996715 4.080882284403808 0 0 0
104 1 3.810738864785713 14.689120693031654 1.9310517014879862 0 0 0
242 1 1.8903224013175206 14.703533310120267 3.452953637216771 0 0 0
100 1 1.5203096345389264 16.627472462135803 1.6230515705485413 0 0 0
269 1 3.6375078912556065 16.64754298012438 3.6130480290315656 0 0 0
143 1 21.205736318767336 14.940022108720981 1.7392504857658964 0 0 0
265 1 0.01687144337779025 16.738445775594535 3.4466714105416956 0 0 0
105 1 7.019822973244684 13.345620486844913 0.42644628682274416 0 0 0
65 1 17.58173848215616 9.511370879376528 0.14690973426903192 0 0 0
504 1 19.275096190559747 18.545538702032772 10.425831216582601 0 0 0
103 1 5.274033819274089 13.21897335617488 1.7042932538559312 0 0 0
108 1 6.544076953479292 15.1709434337884 2.0385637182904874 0 0 0
246 1 5.0372467617824634 15.113216537413338 3.994822483528794 0 0 0
127 1 5.114558849813615 17.068274721462156 1.7212101703023566 0 0 0
249 1 6.7583389170802635 13.493339738980175 3.4935030579932693 0 0 0
273 1 7.229485784219569 16.877894523896643 3.6586541828063295 0 0 0
1378 1 14.381687444556757 6.21085432460389 0.491194942685641 1 1 1
93 1 19.6389981673199 11.680128607226665 0.12341499060533706 0 0 0
496 1 5.5829823686074365 18.610289372020443 10.854442896600878 0 0 0
107 1 8.652588696184202 13.676031286512607 2.0428354862307523 0 0 0
250 1 9.104651158605142 15.040020695188046 3.8017409409338825 0 0 0
112 1 10.537944825560945 14.762048574728821 1.8137929386076457 0 0 0
111 1 12.182125667201545 13.406874006278414 1.8921709690425306 0 0 0
254 1 12.550227871777626 15.021304142368251 4.1725373356558855 0 0 0
135 1 12.422324334629728 16.39303171590787 2.0276770111910203 0 0 0
277 1 10.835150439454166 16.423674783944627 3.7617310010968583 0 0 0
133 1 9.071368837668503 16.480731480033416 2.078282186903514 0 0 0
291 1 1.481558963260223 19.995064817717488 8.996569103551503 0 -1 0
443 1 17.512989476924783 20.397848867496478 10.599468192547105 0 -1 0
257 1 13.99072657714563 13.223526365930143 3.3813031452109277 0 0 0
115 1 16.05893539513892 13.059831524615497 1.756903718920147 0 0 0
116 1 14.501074222151448 15.040648700456254 1.9162327407479154 0 0 0
139 1 16.15264422945071 16.811933998061253 1.9955555480135625 0 0 0
281 1 14.286921880220023 16.603397199261302 3.826275666287638 0 0 0
258 1 16.22972173480814 14.694343298028324 3.486474515394178 0 0 0
416 1 3.605514682524612 18.53327469259937 9.117893785579657 0 0 0
261 1 17.57851726149765 12.750892655974772 4.064860972463254 0 0 0
119 1 19.776872106047588 13.098368590942847 1.9386724917750306 0 0 0
120 1 17.91246060164479 14.686001582330281 2.0693186444225367 0 0 0
262 1 19.32532509605928 14.685832570151451 3.821836132847985 0 0 0
285 1 17.78564831687222 16.56034647938279 3.8354348443651367 0 0 0
1086 1 19.482527024961804 16.682593312880588 2.064352315434952 0 0 1
134 1 14.287712727536405 20.27479231898425 0.19117189025818088 0 0 0
494 1 1.9216940315871422 18.43948424636797 10.791449272494656 0 0 0
3 1 1.4029080195075572 20.472013642518473 2.1019793351011993 0 -1 0
128 1 3.0546817317121286 18.831354863027144 1.8929031370763667 0 0 0
266 1 1.7191585781657532 18.636930878700426 4.015354834999282 0 0 0
149 1 3.612048884846514 20.018108607105056 3.911116816296722 0 -1 0
145 1 0.10452658964574948 20.392609277551774 3.88528990607643 0 -1 0
124 1 21.167913673349947 18.459228619951283 1.8452896796112574 -1 0 0
1416 1 7.277471259709146 20.249950921048093 0.4283298480661875 2 -1 1
7 1 4.94067260178307 20.173446236572484 1.8528324641663714 0 -1 0
132 1 7.017034441683083 18.225906020221018 1.6405121165444794 0 0 0
153 1 6.813799482484806 20.23086593678441 3.503299543644039 0 -1 0
270 1 5.453086430800058 18.502071098581528 3.7297623228500347 0 0 0
435 1 3.820370373130196 20.138474192105075 10.82636154187758 0 -1 0
311 1 19.38040396128013 19.90537147737423 8.750564977372568 0 -1 0
1168 1 1.6510087518886494 0.5894850298546469 0.1248825913137849 2 2 1
274 1 8.949831431594495 18.239892855630153 3.863962846588859 0 0 0
11 1 8.653609169301737 19.7979411409462 2.065385085551343 0 -1 0
136 1 10.755646308858337 18.261073892664452 2.0816855487291934 0 0 0
157 1 10.987812915828785 19.968731404222485 3.70418884995933 0 -1 0
278 1 12.857262768286423 18.439091080845493 3.832046532664 0 0 0
15 1 12.620702520319046 19.842390935722243 2.1720415138860965 0 -1 0
14 1 12.507058306379077 0.7016472374174227 0.3887626298951785 0 0 0
19 1 16.126751602472687 19.683963039400286 2.172008618882534 0 -1 0
140 1 14.135019313718962 18.402283536483512 1.7209606091649603 0 0 0
282 1 15.749278064569975 18.236547924841343 4.0240775281821834 0 0 0
161 1 14.493444165418566 20.351989189190284 4.046813618361555 0 -1 0
433 1 21.23015484410493 19.881974862848484 10.732480703051966 -1 -1 0
1633 1 14.043407540432662 13.179901961974094 0.4719299801824076 1 -1 1
307 1 15.98166787522411 20.15301075093277 9.111781056557477 0 -1 0
23 1 19.296901343817733 20.358926408070513 1.8211564745927777 0 -1 0
144 1 17.909722075421076 18.529382767709286 2.011787776683005 0 0 0
286 1 19.673766030483144 18.638897404967352 3.7090327303312027 0 0 0
165 1 17.839724640628297 20.073530971026788 3.5280826360543145 0 -1 0
9 1 8.823176029336784 0.6984200924266053 0.6085598149317837 0 0 0
171 1 1.7028025929328738 2.7058187822016997 5.444304695771356 0 0 0
290 1 1.385503783322765 0.6007350411998704 7.463313332881362 0 0 0
317 1 3.182291250403391 2.3484146234663896 7.378694203352642 0 0 0
152 1 3.455714926108889 1.008900051007015 5.415168287498938 0 0 0
314 1 1.8850401688497642 4.1700015097510805 7.104324293523974 0 0 0
176 1 3.633060041073662 4.389225716870679 5.609092454835169 0 0 0
313 1 21.067823202803346 2.9373582255004203 7.161733378664163 -1 0 0
148 1 0.36457868321487974 0.9008670827006177 5.610949135397075 0 0 0
156 1 7.097265121284252 0.8716448686111294 5.246573613150776 0 0 0
175 1 5.371770026997956 2.6256625282550345 5.575892422873308 0 0 0
294 1 5.180638338531311 0.5738076186078708 7.222101948514883 0 0 0
321 1 6.977882637751075 2.309763128208532 7.139137248652711 0 0 0
180 1 7.213212092920426 4.228109882052528 5.354433746030393 0 0 0
318 1 5.238902856733928 4.669068051347968 7.229995707982027 0 0 0
298 1 8.593230431169049 0.6492294895282351 7.330964618790006 0 0 0
179 1 8.82303695116343 2.2655113538221596 5.506798873941704 0 0 0
160 1 10.609309040826199 0.6391381841934377 5.399819543803406 0 0 0
325 1 10.65814685553725 2.2912485339422344 7.344821498436306 0 0 0
183 1 12.525922462972193 2.4184228870615536 5.394073262339348 0 0 0
322 1 8.709686778796392 4.119471501861587 6.9701038536839395 0 0 0
184 1 10.702594434391077 4.255444411270677 5.684887767723134 0 0 0
326 1 12.318744667553993 4.561203966739613 7.177281504487259 0 0 0
302 1 12.144222654268255 0.7234253225517123 7.459881799782362 0 0 0
164 1 14.42294127967829 1.1636512839912658 5.977349946118308 0 0 0
329 1 14.134293825380414 2.992475163401181 7.057311201594712 0 0 0
187 1 16.28163201992159 2.8373132102469047 5.6456155190122725 0 0 0
306 1 16.285616435420213 0.6083765145175825 7.2070160074905605 0 0 0
188 1 14.049733171339112 4.79208738490133 5.324735246044249 0 0 0
172 1 0.014529018629719684 4.726057586432395 5.5171684288390965 0 0 0
168 1 18.07809718733083 0.7968532763102824 5.261998431102435 0 0 0
333 1 17.81335499125077 2.487485787866172 7.25643202509868 0 0 0
191 1 19.562512472930138 2.8819931390408517 5.383530130557144 0 0 0
310 1 19.90442536680334 0.8816267446896474 6.873295382358975 0 0 0
334 1 19.876214170649575 4.747694699561764 7.123834982097422 0 0 0
192 1 17.82929303503881 4.71397156885305 5.555717816316199 0 0 0
195 1 2.0988453943312892 6.211625117268529 5.399760497822871 0 0 0
341 1 3.4328199987548285 6.2587627475627965 7.366505700077881 0 0 0
338 1 1.8181307460221485 7.850491991106506 7.26154084324538 0 0 0
200 1 3.660621298318155 8.14510729399916 5.438186545663175 0 0 0
196 1 0.25348975253517797 7.857681746147711 5.54793210903339 0 0 0
199 1 5.467977239956566 5.992335415797721 5.2672851379857155 0 0 0
345 1 7.0698895650951625 5.982710832372127 7.357826930136525 0 0 0
204 1 6.97901865234062 7.674058218533681 5.592401844595961 0 0 0
342 1 5.584193935122236 7.758577852517494 7.479769427999993 0 0 0
346 1 8.672487170029015 7.884666321363138 7.241517287098368 0 0 0
203 1 8.348945908854207 6.122198241531684 5.2840978576710524 0 0 0
349 1 10.189654459827244 6.0669971883888545 7.152482837213021 0 0 0
208 1 10.547819251717131 7.906320182344748 5.3301766088502 0 0 0
207 1 12.180056693422026 6.3132006953937205 5.752108919588019 0 0 0
350 1 12.148828315549876 7.9498121219132205 7.277859430886234 0 0 0
330 1 16.19513517617011 4.407266444395294 7.1466149421773215 0 0 0
353 1 14.252532679529677 6.204420278406424 7.209622345382947 0 0 0
211 1 15.95975043828939 6.388567764423964 5.508697194603658 0 0 0
354 1 15.893090580633892 7.991525936643358 7.4872072871478 0 0 0
212 1 13.921380166782756 7.93027882730678 5.577606093333346 0 0 0
337 1 0.47618930014806926 6.079607559838774 7.223835951482204 0 0 0
357 1 17.658696133272606 5.922373801610922 7.3244454726394155 0 0 0
215 1 19.683041534879894 6.280665484512193 5.580859356313476 0 0 0
358 1 19.497686934511776 7.933988873672738 7.268067951962159 0 0 0
216 1 17.766979744794668 8.06780464978014 5.573453825867008 0 0 0
219 1 1.6580346704124058 9.835282600787338 5.458382475065575 0 0 0
365 1 3.428154814123135 9.512694637986106 7.203684979307454 0 0 0
362 1 1.8301307977496784 11.27681759344984 7.330689654370432 0 0 0
224 1 3.5773685861477293 11.41374813536497 5.834087814857256 0 0 0
361 1 0.18779893281747007 9.645077566579788 7.4156654173135355 0 0 0
220 1 0.004831765890590246 11.438000893237456 5.588579158466211 0 0 0
222 1 5.709532127361321 11.244559643119265 3.7112710724922215 0 0 0
223 1 5.3372505778466275 9.514987346612344 5.5714882267138055 0 0 0
369 1 7.022033856265998 9.859829626566228 7.4124835805046105 0 0 0
228 1 6.961271538866678 11.63692358017713 5.412321389333887 0 0 0
366 1 5.224277178327608 11.394684634817738 7.697317812280513 0 0 0
227 1 8.740429185141805 9.634458795232051 5.349823383626468 0 0 0
370 1 8.718600337961977 11.29941015727082 6.988821263647907 0 0 0
373 1 10.58401209344712 9.66150004500753 7.4525548274985605 0 0 0
232 1 10.273622352050127 11.602649500725976 5.588760931382146 0 0 0
374 1 12.464831523914274 11.563735599968528 7.0834314312845486 0 0 0
231 1 12.07068791269154 9.886039026979857 5.6573217377214755 0 0 0
377 1 13.980513302802414 9.673332140145334 7.126497855688239 0 0 0
235 1 15.839473023294461 9.573950025992453 5.559205312631845 0 0 0
236 1 13.841524990310079 11.265725879371093 5.278080965187871 0 0 0
378 1 15.955594866117345 11.556083535842284 6.72098150536962 0 0 0
381 1 17.653373705632625 9.650379401396279 7.440511012415657 0 0 0
239 1 19.842975796613466 9.735653578065932 5.23000660632876 0 0 0
240 1 17.6909292952974 11.074412132314325 5.519722702042949 0 0 0
382 1 19.594065716649336 11.059052121921296 7.341458647308624 0 0 0
243 1 1.909851052171361 13.187987790307385 5.267229217379563 0 0 0
389 1 3.637242372066581 13.400747430468142 7.536744940909838 0 0 0
248 1 3.4581690577195756 14.89622400484932 5.447049688976809 0 0 0
386 1 1.933078234897671 15.227410840586941 7.185530224473349 0 0 0
413 1 3.726281808458254 16.550283322809566 7.506721398120312 0 0 0
244 1 0.17254808312147488 14.86310098434398 5.441992414446404 0 0 0
409 1 -0.013542387315209577 16.425392253660377 6.886891281525273 0 0 0
267 1 2.1162810457896235 16.43463322206263 5.283853046842529 0 0 0
393 1 7.011353329045666 12.96416474538214 7.343125386959428 0 0 0
247 1 5.326604074110993 13.447650787903124 6.063159813212689 0 0 0
252 1 7.155189873199093 15.221379063506319 5.418358363857914 0 0 0
390 1 5.347135353099072 15.234926113870698 7.387776794152877 0 0 0
417 1 7.249830758361751 16.644256580308994 7.434301087399372 0 0 0
271 1 5.4957257013111 16.74962073073147 5.435838475148807 0 0 0
394 1 8.705692187196767 14.604989204215423 7.528158278128305 0 0 0
275 1 8.810421523606717 16.758516547554485 5.5567190245913265 0 0 0
251 1 8.57824512932277 13.42787027760986 5.64931688717108 0 0 0
397 1 10.517232014468654 13.174459095871777 7.3058770009599225 0 0 0
256 1 10.486733401716439 14.885119105780863 5.643562875483977 0 0 0
398 1 12.364527872744453 14.798456000343684 7.3400189144770565 0 0 0
421 1 10.7511557516799 16.835965231550396 7.261347240373804 0 0 0
279 1 12.418257783734692 16.686161231175195 5.647099733280201 0 0 0
255 1 12.473238706106347 13.182887456234672 5.273919422846426 0 0 0
401 1 14.204667618824946 13.008827530958955 7.2782509932797765 0 0 0
259 1 15.673981181978535 13.17420938270947 5.165853809580769 0 0 0
260 1 14.450226335372328 14.940573582019125 5.529399842935664 0 0 0
402 1 16.264559542218592 14.68631596812175 7.581177672366136 0 0 0
283 1 15.900974124696221 16.360901481039985 5.495183700802262 0 0 0
425 1 13.999299786767773 16.559292356766584 7.526710876132979 0 0 0
385 1 21.07924022010775 12.997164688848603 7.271990991593729 -1 0 0
263 1 19.63339788282396 12.80428549160543 5.159604017690071 0 0 0
429 1 17.897833889343897 16.54843232367174 6.897618778310486 0 0 0
405 1 17.88879032684969 12.63278439794037 7.308421713589803 0 0 0
264 1 17.80398365036019 14.693061879607862 5.349458749207958 0 0 0
406 1 19.64879555091358 14.505399638995259 7.015802725887825 0 0 0
287 1 19.62745754479914 16.574959283533016 5.32509174795093 0 0 0
147 1 2.1089168609778395 20.300240630720094 5.571342478649286 0 -1 0
410 1 1.712113293973008 18.271970589356663 7.064262681597629 0 0 0
272 1 3.4729541751285256 18.273406065857028 5.547346562551254 0 0 0
293 1 3.6746239711858206 19.842040005772056 7.232929067829631 0 -1 0
268 1 0.05968906617648795 18.560362010899713 5.466712215607085 0 0 0
151 1 5.362482417046695 20.09899506809888 5.615772387175058 0 -1 0
297 1 7.251682517338008 20.105780700237247 7.298730864119251 0 -1 0
276 1 7.200153768453662 18.557354034227316 5.693443451461357 0 0 0
414 1 5.525655990260717 18.337573925597084 7.397443241418243 0 0 0
155 1 8.769307924489656 20.385865531707335 5.197255533430527 0 -1 0
418 1 9.206111583774646 18.384876407588685 7.333923100393771 0 0 0
301 1 10.23596178579254 20.28108056490466 7.061497957510587 0 -1 0
280 1 10.884107951502793 18.26769957290446 5.585930571898198 0 0 0
422 1 12.438827464076894 18.543890714626112 7.5576736325579885 0 0 0
159 1 12.742302694218152 20.483215270970643 5.642095715981865 0 -1 0
305 1 14.471195436728978 20.249426776011777 6.95140446004328 0 -1 0
163 1 16.324521425685592 20.46504439326446 5.066871634433052 0 -1 0
284 1 14.260709010507256 17.99102123152943 5.47126803131255 0 0 0
426 1 15.79208564142187 18.21054554738325 7.058867632555451 0 0 0
289 1 21.103266981131487 20.193740950958592 7.011584431300918 -1 -1 0
309 1 17.829310974525306 20.28354149605054 7.27819615851155 0 -1 0
167 1 19.377591621291415 20.454376343749782 5.514652178076272 0 -1 0
288 1 17.723840899570824 18.542501314178892 5.299195531446312 0 0 0
430 1 19.461775211602486 18.428849915548522 6.903937294320998 0 0 0
296 1 3.47777258301978 0.2603868908378341 8.966586168492556 0 0 0
315 1 1.5841572768413408 2.4021712766426924 8.944648932280625 0 0 0
434 1 1.6307509571844394 0.5436485054549405 10.808479611194848 0 0 0
447 1 3.397222957004128 2.4373105360840954 10.61930619868471 0 0 0
292 1 21.12688575343782 0.7706816591184589 9.024325401234995 -1 0 0
320 1 3.4701599284809395 4.213253852576969 8.580936486560098 0 0 0
446 1 1.89522927261028 4.324667274285905 10.579731659631502 0 0 0
300 1 7.0311958743410194 0.7319200216809285 9.082503909269521 0 0 0
319 1 5.278692132907851 2.533239222531395 8.60173351015073 0 0 0
436 1 5.262866195942498 0.800319413608257 10.646632240353302 0 0 0
449 1 7.1206718370090085 2.634164307432077 10.75801262255539 0 0 0
324 1 7.301266632600854 4.149125761606536 9.056032614444828 0 0 0
323 1 8.955121186768798 2.3313349362458338 8.969043132099628 0 0 0
438 1 8.947387267673957 0.7523729641989956 10.737056301773482 0 0 0
304 1 10.648657593665927 0.8020068691863732 9.176648529594711 0 0 0
451 1 10.741059110274085 2.6736463403268997 10.607049128875213 0 0 0
440 1 12.48189847570434 1.5306709355534578 10.539653245958933 0 0 0
450 1 8.9204710338733 4.339134447558107 10.681652948763935 0 0 0
441 1 13.99369944668102 20.35729177749188 10.80486683283342 0 -1 0
502 1 15.833940047602793 18.565534011901274 10.717187103688941 0 0 0
327 1 12.45019812870261 2.55659836150382 8.528084735827562 0 0 0
308 1 14.163753686299259 0.9739260199679399 8.842950947548697 0 0 0
453 1 14.441526624650098 2.633884220565395 10.730313439283423 0 0 0
331 1 16.08123177460535 2.404811310714747 8.99504079905665 0 0 0
442 1 15.917891775991242 0.8283354951734778 10.804458137467245 0 0 0
428 1 13.860607105315957 18.469742594797452 9.302335506656576 0 0 0
445 1 0.21354854094120412 2.489811644154565 10.673544076751497 0 0 0
316 1 0.12566368597467087 4.251415972354047 9.09490247678661 0 0 0
312 1 18.03263266624753 0.6883325644332429 8.885161794142913 0 0 0
455 1 17.769261638219728 2.660549554131348 10.91168086773077 0 0 0
335 1 19.51381901132054 2.526565775707691 9.040948174463173 0 0 0
444 1 19.62244377597109 0.4473163120073838 10.619547043826865 0 0 0
456 1 19.818573458270617 3.962007742144196 10.913949187070093 0 0 0
336 1 18.021689546526357 4.156260918546364 8.767272823182115 0 0 0
339 1 1.9511527230542958 6.225367826967756 9.039200881622847 0 0 0
459 1 3.578089571527825 5.984815352671104 10.891465665864711 0 0 0
458 1 1.6032548677293013 7.607179104874556 10.98754668401607 0 0 0
344 1 3.8468119997104164 7.86216718332362 9.086528161147767 0 0 0
340 1 21.168113550782724 7.706504488447593 8.980276760602667 -1 0 0
439 1 10.70893505576004 20.110431504042747 11.117737373477866 0 -1 0
303 1 12.442319570785658 20.43101840653711 9.20762673534805 0 -1 0
448 1 5.078066813438291 3.6892248046566105 10.587900762462324 0 0 0
343 1 5.257552372821405 5.810782653225158 9.061731097477745 0 0 0
461 1 7.142275394674638 5.996801325974577 10.58336319916778 0 0 0
460 1 5.472496453917686 7.825145851551085 10.92635550316251 0 0 0
348 1 7.0700586411282 8.036537050396532 9.274206761879913 0 0 0
328 1 10.672730681629805 4.113670169318474 8.781736272288946 0 0 0
452 1 12.442121757569822 4.24010687321095 10.874009675657575 0 0 0
347 1 8.859552299912378 5.762201482543682 8.921070315239966 0 0 0
462 1 8.999025390666528 7.912857547572575 10.556816068521528 0 0 0
463 1 11.148176011789323 5.823601148934886 10.428660891018254 0 0 0
352 1 10.655547335896582 7.602520037168995 9.221753458196767 0 0 0
464 1 12.44914916218325 7.787510429572844 10.736227721668714 0 0 0
351 1 12.906667745396748 6.310803557098325 9.085885665715498 0 0 0
454 1 16.150561557101398 4.386409120455632 10.515338771990299 0 0 0
332 1 14.160307510423099 4.158356054650991 8.927212432268423 0 0 0
355 1 16.1767979558023 5.808890347632871 8.957388034722074 0 0 0
465 1 14.049569150646104 5.787056179062404 10.762414341026098 0 0 0
356 1 14.441951566195138 8.165955130461809 9.215420736353378 0 0 0
466 1 15.977485757935666 7.339040645099717 10.828187546890334 0 0 0
457 1 21.176862329037707 5.845764184422048 10.70848907927259 -1 0 0
467 1 17.896132663569006 5.869348324996664 10.780791361772685 0 0 0
359 1 19.388190194035488 5.8850175358609835 9.125613915189474 0 0 0
468 1 19.66475397077849 7.713755959224517 10.722067306682282 0 0 0
360 1 17.863436720276614 7.623707950103317 9.007135437455421 0 0 0
424 1 10.591068847717626 18.645202482500334 9.099447095832593 0 0 0
363 1 1.6493967659457354 9.197274272425632 9.296613336942727 0 0 0
470 1 2.0522095081785916 11.424599150434105 11.03983681336786 0 0 0
368 1 3.2673420913078544 11.193089270827848 8.99304428982594 0 0 0
471 1 3.590622693017496 9.542355361015094 11.005987410752825 0 0 0
364 1 0.49335058891498584 11.411102616225328 9.446380126772246 0 0 0
469 1 0.15470958440745225 9.620776107572748 10.970667413091837 0 0 0
367 1 5.13732967318486 9.644066029172008 9.207470164638119 0 0 0
473 1 7.175640176045102 9.771396999678243 10.75963360576189 0 0 0
372 1 7.359608149443263 11.336110780376247 8.98540818418162 0 0 0
472 1 5.448331653555962 11.436906784446132 10.815077572432353 0 0 0
371 1 9.003076451510116 9.565040072247779 8.920393811437279 0 0 0
474 1 8.884113719527816 11.53861979347153 10.576468974207753 0 0 0
475 1 10.538382265757956 9.629922777361267 10.976158803756077 0 0 0
376 1 10.724036685539668 11.453888240462488 9.262411884587017 0 0 0
476 1 12.763398256408106 11.213946192958906 11.07367445138305 0 0 0
375 1 12.492428687073263 9.599901264388409 9.203198064251485 0 0 0
478 1 16.096332316810805 11.474729438198665 10.835988680489436 0 0 0
379 1 16.174536391435474 9.67040652601099 8.986010440571556 0 0 0
477 1 14.75240850359347 9.449151768020155 11.010219390153422 0 0 0
380 1 14.36895574567854 11.157452139712682 8.79140661193714 0 0 0
81 1 6.841533901313332 9.585883851243585 0.03837251448069716 0 0 0
384 1 17.994752437576782 11.089487600439195 9.119776597316447 0 0 0
383 1 19.772047073649667 9.492801498063148 9.174633744488576 0 0 0
479 1 17.601713818825424 9.448245406377735 11.153764417036598 0 0 0
480 1 19.828589480694685 11.331309073144709 11.000755497706951 0 0 0
299 1 8.764557869145644 20.33126067163856 9.192151250494453 0 -1 0
411 1 1.691197812806427 16.978347274609373 9.093622805715192 0 0 0
483 1 3.703504735849559 13.554014987191275 11.023499217019157 0 0 0
387 1 1.9524650203554526 13.054093697655551 9.098065278070342 0 0 0