LAMMPS data file via write_data, version 29 Oct 2020, timestep = 0

7330 atoms
5 atom types
5270 bonds
2 bond types
6388 angles
3 angle types
9030 dihedrals
3 dihedral types

-1e-06 27.500002 xlo xhi
100.0 229.499998 ylo yhi
-13.0 106.279701 zlo zhi

Masses

1 15.035
2 14.027
3 12.011
4 1
5 12.011

Pair Coeffs # lj/cut

1 0.175 3.905
2 0.118 3.905
3 0 0
4 0.4475 3.79
5 0 0

Bond Coeffs # harmonic

1 260 1.526
2 0 1.4

Angle Coeffs # harmonic

1 63 112
2 63 112
3 0 120

Dihedral Coeffs # opls

1 1.411 -0.271 3.145 0
2 1.411 -0.271 3.145 0
3 0 0 0 0

Atoms # full

5391 1 1 0.0 3.926364 154.075439 67.800476 0 0 0
5394 1 2 0.0 4.391885 154.287781 69.163712 0 0 0
5389 1 2 0.0 3.272867 154.715988 70.068405 0 0 0
5390 1 2 0.0 3.87901 154.772736 71.366982 0 0 0
5387 1 2 0.0 2.711642 155.284348 72.215233 0 0 0
5388 1 2 0.0 2.964554 155.300323 73.731911 0 0 0
5830 1 2 0.0 1.823308 156.042938 74.469948 0 0 0
5831 1 1 0.0 1.967571 157.550598 74.295143 0 0 0
2541 2 1 0.0 17.95933 125.625061 31.690569 0 0 0
2586 2 2 0.0 16.927195 126.544319 31.064634 0 0 0
2588 2 2 0.0 17.043747 126.798111 29.621666 0 0 0
2589 2 2 0.0 18.470976 126.819649 29.166765 0 0 0
2590 2 2 0.0 18.518148 127.189285 27.630611 0 0 0
2591 2 2 0.0 19.927967 127.37117 27.0474 0 0 0
2170 2 2 0.0 19.808613 127.619965 25.583052 0 0 0
2173 2 1 0.0 21.077253 128.252884 24.905327 0 0 0
4925 3 1 0.0 11.990139 144.513947 65.636894 0 0 0
4924 3 2 0.0 11.088568 144.072906 64.518578 0 0 0
4923 3 2 0.0 11.03183 145.316437 63.662331 0 0 0
4921 3 2 0.0 10.341005 145.185501 62.247402 0 0 0
4920 3 2 0.0 8.799335 144.922241 62.325508 0 0 0
4919 3 2 0.0 8.179337 144.536469 60.993591 0 0 0
4918 3 2 0.0 6.711414 144.253464 61.216496 0 0 0
4917 3 1 0.0 6.095239 143.611816 60.025715 0 0 0
5148 4 1 0.0 7.858167 112.501648 73.236816 0 0 0
5149 4 2 0.0 8.217606 111.347374 72.318398 0 0 0
5151 4 2 0.0 8.878267 111.618629 70.963921 0 0 0
5154 4 2 0.0 10.375237 112.034981 71.171654 0 0 0
5155 4 2 0.0 11.039078 112.916313 70.078606 0 0 0
5156 4 2 0.0 12.451565 113.379967 70.266983 0 0 0
5157 4 2 0.0 12.828604 114.374313 69.110062 0 0 0
5158 4 1 0.0 12.903658 113.799469 67.676872 0 0 0
2266 5 1 0.0 19.884462 143.069702 24.422798 0 0 0
2263 5 2 0.0 19.75667 143.053436 25.985035 0 0 0
2262 5 2 0.0 19.012747 144.214554 26.643095 0 0 0
2698 5 2 0.0 19.136858 144.311859 28.149652 0 0 0
2694 5 2 0.0 18.699827 145.728912 28.600264 0 0 0
2696 5 2 0.0 18.95133 145.921997 30.07901 0 0 0
2693 5 2 0.0 18.127337 145.066254 31.053459 0 0 0
2692 5 1 0.0 16.62656 145.344894 31.089041 0 0 0
2192 6 1 0.0 5.08837 140.137894 21.526707 0 0 0
2190 6 2 0.0 4.64803 138.698151 21.606321 0 0 0
2194 6 2 0.0 5.145015 138.134399 22.888121 0 0 0
2189 6 2 0.0 4.558732 138.947601 23.994324 0 0 0
2193 6 2 0.0 5.118148 138.602982 25.439894 0 0 0
2191 6 2 0.0 4.74127 137.200226 25.771595 0 0 0
2620 6 2 0.0 5.340681 136.680664 27.031916 0 0 0
2619 6 1 0.0 4.974876 135.206573 27.25658 0 0 0
4445 7 1 0.0 27.212801 149.989532 53.531811 0 0 0
4444 7 2 0.0 26.95446 150.748917 54.794949 0 0 0
4443 7 2 0.0 26.55504 152.175171 54.469372 0 0 0
4442 7 2 0.0 25.434324 152.575104 55.332249 0 0 0
4440 7 2 0.0 24.107603 151.811218 55.022972 0 0 0
4439 7 2 0.0 22.742437 152.366669 55.55759 0 0 0
4438 7 2 0.0 22.641779 152.263779 57.13266 0 0 0
4436 7 1 0.0 21.276636 152.660568 57.796791 0 0 0
5697 8 1 0.0 21.652208 130.151413 76.544212 0 0 0
5699 8 2 0.0 21.914059 129.075348 77.546921 0 0 0
5694 8 2 0.0 20.711664 128.690277 78.335716 0 0 0
5693 8 2 0.0 19.661871 128.18692 77.423386 0 0 0
5692 8 2 0.0 18.667437 127.53299 78.287025 0 0 0
5689 8 2 0.0 17.677885 126.588768 77.545059 0 0 0
5687 8 2 0.0 16.635057 125.981712 78.441864 0 0 0
5637 8 1 0.0 15.816067 124.871948 77.767944 0 0 0
4149 9 1 0.0 10.215998 116.846626 57.789371 0 0 0
4148 9 2 0.0 9.156565 117.176086 56.703697 0 0 0
4146 9 2 0.0 7.690368 116.940857 57.115433 0 0 0
4143 9 2 0.0 6.719819 117.675041 56.127232 0 0 0
4196 9 2 0.0 6.859241 119.196983 55.964867 0 0 0
4192 9 2 0.0 5.603692 119.774826 55.379856 0 0 0
4193 9 2 0.0 5.740263 121.297501 55.218258 0 0 0
4191 9 1 0.0 5.503711 122.116547 56.519691 0 0 0
4074 10 1 0.0 14.560713 106.391647 55.635643 0 0 0
4079 10 2 0.0 15.645504 105.384705 55.433037 0 0 0
4084 10 2 0.0 16.854006 106.013489 54.643162 0 0 0
4083 10 2 0.0 16.53421 106.327171 53.176998 0 0 0
4090 10 2 0.0 17.555489 107.317314 52.734776 0 0 0
4089 10 2 0.0 17.530365 107.530823 51.224495 0 0 0
4095 10 2 0.0 18.916069 107.500877 50.740833 0 0 0
3409 10 1 0.0 19.03285 107.84269 49.210159 0 0 0
4722 11 1 0.0 7.5725 114.973312 61.949471 0 0 0
4721 11 2 0.0 6.130939 114.761101 62.432938 0 0 0
4720 11 2 0.0 5.784384 113.193054 62.412266 0 0 0
4719 11 2 0.0 4.613038 112.857903 63.29644 0 0 0
4718 11 2 0.0 4.192805 111.393929 63.221394 0 0 0
4716 11 2 0.0 2.74479 111.211571 63.874912 0 0 0
4598 11 2 0.0 2.172987 109.83606 63.553879 0 0 0
4709 11 1 0.0 0.637227 110.037773 63.877907 0 0 0
5275 12 1 0.0 20.225342 132.71434 67.577461 0 0 0
5277 12 2 0.0 20.965588 133.213989 66.351898 0 0 0
4851 12 2 0.0 22.178204 132.284271 66.140396 0 0 0
5279 12 2 0.0 23.203609 132.592926 67.227554 0 0 0
5281 12 2 0.0 24.536757 132.087051 66.902908 0 0 0
5283 12 2 0.0 25.62491 132.551239 67.916534 0 0 0
5287 12 2 0.0 27.085848 131.984573 67.61541 0 0 0
5233 12 1 0.0 0.487425 132.599747 66.567032 0 0 0
5349 13 1 0.0 6.761379 144.906296 67.690071 0 0 0
5348 13 2 0.0 5.288832 144.994461 68.067474 0 0 0
5346 13 2 0.0 4.994916 146.189255 68.986473 0 0 0
5343 13 2 0.0 3.434154 146.179123 69.312927 0 0 0
5342 13 2 0.0 3.096972 147.023651 70.536057 0 0 0
5340 13 2 0.0 1.606603 146.914673 71.031967 0 0 0
5339 13 2 0.0 0.984417 145.565674 71.270966 0 0 0
5379 13 1 0.0 27.070101 145.847824 71.790642 0 0 0
1929 14 1 0.0 6.458646 107.184029 26.123333 0 0 0
1935 14 2 0.0 7.976331 107.000923 26.379187 0 0 0
1938 14 2 0.0 8.599289 105.945847 25.437525 0 0 0
1949 14 2 0.0 10.144417 105.939987 25.431505 0 0 0
1950 14 2 0.0 10.503826 104.848145 24.435745 0 0 0
1956 14 2 0.0 11.753559 105.225349 23.568068 0 0 0
1957 14 2 0.0 12.195549 104.224098 22.472855 0 0 0
1955 14 1 0.0 11.363934 104.114319 21.238449 0 0 0
3200 15 1 0.0 22.935652 152.473709 39.983521 0 0 0
3195 15 2 0.0 21.636679 151.702118 39.750389 0 0 0
3196 15 2 0.0 21.812067 150.367126 39.123314 0 0 0
3193 15 2 0.0 20.480688 149.82019 38.56089 0 0 0
3147 15 2 0.0 20.592337 148.348999 38.066929 0 0 0
3144 15 2 0.0 19.282045 147.977646 37.376755 0 0 0
3142 15 2 0.0 19.074253 146.476196 37.324024 0 0 0
3143 15 1 0.0 19.09392 145.877747 38.747383 0 0 0
5004 16 1 0.0 7.935968 159.206085 59.29985 0 0 0
5003 16 2 0.0 6.630873 158.741409 60.003498 0 0 0
4967 16 2 0.0 5.931561 157.67244 59.100719 0 0 0
4963 16 2 0.0 4.645891 157.1082 59.59832 0 0 0
4965 16 2 0.0 4.777392 156.124603 60.770126 0 0 0
4960 16 2 0.0 3.396384 155.77774 61.238422 0 0 0
4961 16 2 0.0 3.598158 154.52626 62.094143 0 0 0
4962 16 1 0.0 4.098385 154.800827 63.517735 0 0 0
2483 17 1 0.0 13.1744 113.459656 27.79727 0 0 0
2481 17 2 0.0 12.658049 112.824402 29.079487 0 0 0
2484 17 2 0.0 13.667055 112.661896 30.207109 0 0 0
2482 17 2 0.0 12.949446 112.202057 31.465916 0 0 0
2485 17 2 0.0 13.994324 112.088631 32.653522 0 0 0
2487 17 2 0.0 14.711988 113.405807 32.687122 0 0 0
2489 17 2 0.0 15.782661 113.167114 33.736309 0 0 0
2490 17 1 0.0 16.862879 114.203705 33.534081 0 0 0
2870 18 1 0.0 22.183422 106.868912 36.194328 0 0 0
2872 18 2 0.0 22.420885 108.347778 36.187706 0 0 0
2864 18 2 0.0 21.879013 109.046379 37.448242 0 0 0
2873 18 2 0.0 22.745451 108.80835 38.674721 0 0 0
2865 18 2 0.0 22.026049 109.4981 39.853939 0 0 0
2874 18 2 0.0 22.892218 109.4086 41.17281 0 0 0
2938 18 2 0.0 22.465324 110.053207 42.51944 0 0 0
2937 18 1 0.0 22.17741 111.590065 42.3937 0 0 0
2249 19 1 0.0 11.695889 143.931351 20.366018 0 0 0
2246 19 2 0.0 10.836868 144.675827 21.381735 0 0 0
2244 19 2 0.0 10.53565 146.139832 20.953224 0 0 0
2242 19 2 0.0 9.593796 147.01181 21.863281 0 0 0
2243 19 2 0.0 9.699152 148.447784 21.308466 0 0 0
2241 19 2 0.0 9.215839 149.626358 22.206232 0 0 0
2298 19 2 0.0 10.397516 150.149887 23.032059 0 0 0
2297 19 1 0.0 9.87464 150.572052 24.466393 0 0 0
3720 20 1 0.0 19.527878 152.595139 49.08102 0 0 0
3719 20 2 0.0 19.297651 153.805939 48.275299 0 0 0
3721 20 2 0.0 20.304001 154.852814 48.518818 0 0 0
3722 20 2 0.0 21.545963 154.709534 47.663738 0 0 0
3723 20 2 0.0 22.588917 155.720581 48.214046 0 0 0
3724 20 2 0.0 23.012661 155.319916 49.678513 0 0 0
3726 20 2 0.0 23.893646 156.333679 50.343231 0 0 0
4441 20 1 0.0 24.403191 155.706223 51.614288 0 0 0
5403 21 1 0.0 9.838514 154.045227 70.103951 0 0 0
5404 21 2 0.0 10.795544 153.197342 70.902878 0 0 0
5405 21 2 0.0 11.043148 154.010178 72.232323 0 0 0
5407 21 2 0.0 11.799973 153.043747 73.116768 0 0 0
5848 21 2 0.0 11.712902 153.552933 74.608765 0 0 0
5849 21 2 0.0 12.248861 154.934418 74.589836 0 0 0
5853 21 2 0.0 13.738607 155.067459 74.733582 0 0 0
5854 21 1 0.0 14.147228 156.516815 74.595284 0 0 0
2976 22 1 0.0 14.641689 123.698792 38.878368 0 0 0
2978 22 2 0.0 15.242661 122.331558 38.808502 0 0 0
2981 22 2 0.0 16.549751 122.405212 38.042698 0 0 0
2980 22 2 0.0 16.105021 122.515587 36.581966 0 0 0
2982 22 2 0.0 17.277824 122.427368 35.701912 0 0 0
2984 22 2 0.0 18.106712 123.667603 35.955723 0 0 0
2990 22 2 0.0 19.441359 123.645737 35.281681 0 0 0
2994 22 1 0.0 20.290916 124.944199 35.193447 0 0 0
2114 23 1 0.0 15.250772 119.624893 21.937653 0 0 0
2113 23 2 0.0 14.890562 121.100136 22.265211 0 0 0
2110 23 2 0.0 13.63904 121.544533 21.570244 0 0 0
2107 23 2 0.0 12.855219 122.696182 22.238733 0 0 0
2109 23 2 0.0 13.528641 124.071381 21.913801 0 0 0
2106 23 2 0.0 12.690245 125.201691 22.538132 0 0 0
2104 23 2 0.0 11.70784 125.517326 21.480774 0 0 0
2105 23 1 0.0 12.269304 125.772766 20.146025 0 0 0
6323 24 1 0.0 17.796087 155.08197 88.660156 0 0 0
6325 24 2 0.0 19.124704 155.799042 88.491623 0 0 0
6327 24 2 0.0 20.476265 155.022583 88.65918 0 0 0
6330 24 2 0.0 21.604424 155.872223 88.127777 0 0 0
6333 24 2 0.0 23.010918 155.290756 88.407089 0 0 0
6337 24 2 0.0 24.182596 156.071869 87.898521 0 0 0
6338 24 2 0.0 25.500702 155.450958 88.267334 0 0 0
6341 24 1 0.0 26.661551 156.404541 88.052078 0 0 0
2571 25 1 0.0 7.306185 125.989349 29.367069 0 0 0
2524 25 2 0.0 8.404243 125.055695 29.540607 0 0 0
2522 25 2 0.0 7.75936 123.700035 29.159819 0 0 0
2525 25 2 0.0 8.643749 122.488205 29.371239 0 0 0
2526 25 2 0.0 8.986105 122.329826 30.805838 0 0 0
2527 25 2 0.0 9.515207 120.922203 31.290239 0 0 0
2529 25 2 0.0 11.048845 120.761688 31.050135 0 0 0
2530 25 1 0.0 11.372183 119.309746 31.131344 0 0 0
5246 26 1 0.0 6.749301 129.926758 70.294563 0 0 0
5247 26 2 0.0 7.493525 129.924759 71.635162 0 0 0
5248 26 2 0.0 7.682444 128.470474 72.101357 0 0 0
5249 26 2 0.0 8.471304 128.588593 73.340584 0 0 0
5670 26 2 0.0 7.774275 129.216812 74.545967 0 0 0
5673 26 2 0.0 8.671194 129.078033 75.809196 0 0 0
5672 26 2 0.0 8.13105 129.734421 77.029869 0 0 0
5674 26 1 0.0 9.152397 129.823837 78.202736 0 0 0
1584 27 1 0.0 8.755913 117.502586 11.947865 0 0 0
1091 27 2 0.0 8.151707 116.796387 10.649617 0 0 0
1090 27 2 0.0 7.56578 115.443954 10.92605 0 0 0
1583 27 2 0.0 8.614405 114.42392 11.362178 0 0 0
1582 27 2 0.0 8.009331 113.157738 12.057304 0 0 0
1581 27 2 0.0 7.776047 113.389 13.459898 0 0 0
1579 27 2 0.0 7.001018 112.211472 14.182576 0 0 0
1578 27 1 0.0 6.328907 112.73912 15.472413 0 0 0
2273 28 1 0.0 23.898212 142.635468 24.095692 0 0 0
2217 28 2 0.0 23.74139 141.134583 24.132816 0 0 0
2219 28 2 0.0 24.306326 140.532547 22.849884 0 0 0
2222 28 2 0.0 24.493246 139.028519 23.1728 0 0 0
2221 28 2 0.0 24.486553 138.358017 21.824379 0 0 0
2220 28 2 0.0 24.370447 136.833466 21.795063 0 0 0
2218 28 2 0.0 24.14484 136.371475 20.319942 0 0 0
2216 28 1 0.0 23.722874 134.865845 20.228756 0 0 0
3491 29 1 0.0 27.350939 115.896843 49.004879 0 0 0
3446 29 2 0.0 1.231179 116.469124 48.968521 0 0 0
3445 29 2 0.0 1.14518 117.900436 48.350208 0 0 0
3496 29 2 0.0 2.514876 118.350861 48.059612 0 0 0
3495 29 2 0.0 2.509416 119.714996 47.367935 0 0 0
3497 29 2 0.0 3.951727 120.065651 47.036495 0 0 0
3500 29 2 0.0 4.696311 118.837517 46.644146 0 0 0
3502 29 1 0.0 5.989565 119.13105 45.935417 0 0 0
5773 30 1 0.0 5.279533 146.11969 74.153679 0 0 0
5774 30 2 0.0 5.630298 147.35347 74.969788 0 0 0
5777 30 2 0.0 6.640325 146.889679 76.065071 0 0 0
5778 30 2 0.0 6.787074 147.92308 77.227188 0 0 0
5780 30 2 0.0 7.839349 147.425079 78.19606 0 0 0
5779 30 2 0.0 7.701162 148.057083 79.561234 0 0 0
5783 30 2 0.0 8.925945 148.077911 80.482841 0 0 0
5781 30 1 0.0 8.726967 148.61673 81.889977 0 0 0
1790 31 1 0.0 8.562305 145.074371 12.805012 0 0 0
1793 31 2 0.0 9.639437 144.823425 13.786036 0 0 0
1794 31 2 0.0 9.979397 143.381607 13.719102 0 0 0
1796 31 2 0.0 10.936543 142.905975 14.854801 0 0 0
1795 31 2 0.0 10.454851 143.420944 16.151224 0 0 0
1792 31 2 0.0 9.238289 142.536728 16.678108 0 0 0
1791 31 2 0.0 8.568581 143.213318 17.898937 0 0 0
1788 31 1 0.0 7.388879 142.274063 18.258848 0 0 0
2753 32 1 0.0 20.763592 156.465668 33.118317 0 0 0
2752 32 2 0.0 20.19026 155.940598 31.73144 0 0 0
2751 32 2 0.0 19.035946 156.75882 31.196056 0 0 0
2750 32 2 0.0 18.553656 156.319839 29.813646 0 0 0
2748 32 2 0.0 17.092287 156.028381 29.614134 0 0 0
2746 32 2 0.0 16.752979 155.763611 28.17584 0 0 0
2749 32 2 0.0 17.535994 154.56015 27.609814 0 0 0
2747 32 1 0.0 16.792259 153.328934 28.01655 0 0 0
4868 33 1 0.0 4.138199 141.395721 63.882473 0 0 0
4867 33 2 0.0 3.6817 140.081192 63.132961 0 0 0
4865 33 2 0.0 2.173879 139.762787 63.219933 0 0 0
4864 33 2 0.0 1.925793 139.058838 64.563416 0 0 0
4863 33 2 0.0 0.436284 138.674438 64.668861 0 0 0
4910 33 2 0.0 27.470617 138.670334 66.161102 0 0 0
5290 33 2 0.0 0.740489 137.714279 66.951996 0 0 0
5289 33 1 0.0 0.497635 137.88681 68.45417 0 0 0
4714 34 1 0.0 2.442955 116.225548 64.907196 0 0 0
4712 34 2 0.0 1.089305 115.97551 64.151207 0 0 0
4711 34 2 0.0 0.993741 114.673424 63.374577 0 0 0
4759 34 2 0.0 27.087008 114.270889 63.09705 0 0 0
4757 34 2 0.0 26.27483 114.372025 64.450325 0 0 0
4755 34 2 0.0 24.763302 114.193954 64.114296 0 0 0
4754 34 2 0.0 24.49468 115.16684 62.997719 0 0 0
4749 34 1 0.0 23.044935 115.122467 62.58839 0 0 0
2886 35 1 0.0 25.84243 106.547226 39.115044 0 0 0
2892 35 2 0.0 27.285126 106.462685 39.734665 0 0 0
2893 35 2 0.0 27.293755 105.759735 41.08345 0 0 0
2776 35 2 0.0 1.036546 105.787369 41.953926 0 0 0
3325 35 2 0.0 1.061648 104.906746 43.135372 0 0 0
3334 35 2 0.0 2.469799 104.58757 43.547516 0 0 0
2785 35 2 0.0 3.402664 104.235489 42.454853 0 0 0
3341 35 1 0.0 4.808342 103.893936 43.042805 0 0 0
4356 36 1 0.0 7.729129 142.45372 55.30582 0 0 0
4351 36 2 0.0 6.889817 142.937164 56.418453 0 0 0
4347 36 2 0.0 5.779435 143.661377 55.708622 0 0 0
4346 36 2 0.0 4.824402 142.654099 55.183826 0 0 0
4343 36 2 0.0 3.436481 143.134766 54.931076 0 0 0
4341 36 2 0.0 2.599819 143.548508 56.134968 0 0 0
4337 36 2 0.0 1.201953 143.905594 55.779579 0 0 0
4336 36 1 0.0 0.388532 144.570892 56.86198 0 0 0
1768 37 1 0.0 25.29739 134.93808 13.274682 0 0 0
1766 37 2 0.0 24.483934 136.243042 13.354428 0 0 0
1769 37 2 0.0 25.587618 137.376724 13.462966 0 0 0
1767 37 2 0.0 24.928806 138.772705 13.758101 0 0 0
1770 37 2 0.0 25.891468 139.779205 14.332089 0 0 0
1772 37 2 0.0 26.745701 140.36792 13.246324 0 0 0
1774 37 2 0.0 27.373079 141.715973 13.689306 0 0 0
1776 37 1 0.0 0.638357 142.399414 12.57038 0 0 0
2720 38 1 0.0 0.194314 152.282852 27.541174 0 0 0
2719 38 2 0.0 0.15384 151.732361 29.013922 0 0 0
2761 38 2 0.0 26.92602 150.342453 29.188782 0 0 0
2762 38 2 0.0 26.981787 149.968246 30.657658 0 0 0
2715 38 2 0.0 26.462193 148.584763 30.880564 0 0 0
2714 38 2 0.0 26.427122 148.28273 32.437096 0 0 0
2665 38 2 0.0 0.341326 148.290802 33.025612 0 0 0
2664 38 1 0.0 0.272809 148.204681 34.61047 0 0 0
5134 39 1 0.0 27.470667 108.341087 69.611855 0 0 0
5022 39 2 0.0 1.13943 108.347534 68.645134 0 0 0
5027 39 2 0.0 1.300296 107.011147 67.870132 0 0 0
5029 39 2 0.0 2.142699 107.307907 66.639915 0 0 0
4597 39 2 0.0 2.037281 106.093422 65.70649 0 0 0
4603 39 2 0.0 2.898445 106.258469 64.413353 0 0 0
4602 39 2 0.0 2.869853 104.983276 63.578465 0 0 0
4604 39 1 0.0 2.904453 105.310287 62.043484 0 0 0
3225 40 1 0.0 25.524807 161.476517 35.228565 0 0 0
2771 40 2 0.0 26.889917 161.095306 34.606411 0 0 0
3211 40 2 0.0 0.506412 160.922455 35.619709 0 0 0
3214 40 2 0.0 1.736009 160.397598 34.925243 0 0 0
3216 40 2 0.0 2.562484 159.431915 35.717411 0 0 0
3217 40 2 0.0 3.815807 159.129745 35.068199 0 0 0
3218 40 2 0.0 4.500333 158.229462 36.06506 0 0 0
3169 40 1 0.0 5.786587 157.714676 35.428036 0 0 0
1670 41 1 0.0 27.389696 123.752312 12.040132 0 0 0
1620 41 2 0.0 0.116754 125.167427 11.551719 0 0 0
1188 41 2 0.0 26.479151 125.655655 10.68256 0 0 0
1244 41 2 0.0 27.001101 126.795761 9.820238 0 0 0
1190 41 2 0.0 0.527932 126.299965 8.799967 0 0 0
1191 41 2 0.0 1.293517 127.443268 8.222912 0 0 0
1192 41 2 0.0 1.963887 128.344666 9.33252 0 0 0
1195 41 1 0.0 2.895847 129.399445 8.860777 0 0 0
3735 42 1 0.0 1.827011 158.409088 44.560871 0 0 0
3679 42 2 0.0 0.765449 157.730988 45.42292 0 0 0
3680 42 2 0.0 1.261078 157.131119 46.717701 0 0 0
3678 42 2 0.0 0.17801 156.567474 47.689159 0 0 0
3733 42 2 0.0 26.700109 157.61496 48.262363 0 0 0
3740 42 2 0.0 27.385683 158.76123 49.04369 0 0 0
3734 42 2 0.0 0.83517 158.404648 50.173321 0 0 0
4448 42 1 0.0 1.359824 159.517624 50.968933 0 0 0
6359 43 1 0.0 13.616859 161.178879 84.629166 0 0 0
6357 43 2 0.0 13.205492 159.84079 84.073647 0 0 0
6360 43 2 0.0 13.833261 159.613678 82.743294 0 0 0
6358 43 2 0.0 13.525814 158.289139 82.235016 0 0 0
5883 43 2 0.0 13.864687 158.10379 80.764389 0 0 0
5850 43 2 0.0 12.998251 157.061356 80.061348 0 0 0
5852 43 2 0.0 13.418978 156.791748 78.627541 0 0 0
5856 43 1 0.0 14.740877 156.083786 78.608269 0 0 0
1148 44 1 0.0 9.489613 123.148277 4.291404 0 0 0
1144 44 2 0.0 7.939283 123.229996 4.352465 0 0 0
1141 44 2 0.0 7.341312 123.716255 5.570381 0 0 0
1139 44 2 0.0 5.944594 124.107773 5.290704 0 0 0
1138 44 2 0.0 5.704394 125.544067 4.823162 0 0 0
1198 44 2 0.0 4.300142 125.998367 4.664806 0 0 0
1197 44 2 0.0 4.079392 127.484238 4.357843 0 0 0
1194 44 1 0.0 2.723974 128.040894 4.509634 0 0 0
2323 45 1 0.0 27.363756 155.880356 21.689627 0 0 0
2322 45 2 0.0 27.113409 154.910034 20.509092 0 0 0
2282 45 2 0.0 0.906625 154.250183 20.116316 0 0 0
2284 45 2 0.0 1.99442 155.314087 20.120901 0 0 0
2286 45 2 0.0 3.255625 154.934372 19.340338 0 0 0
1837 45 2 0.0 3.10287 155.254028 17.849709 0 0 0
1839 45 2 0.0 4.399455 154.907074 17.077272 0 0 0
1840 45 1 0.0 4.406682 155.141449 15.634613 0 0 0
4331 46 1 0.0 25.686989 137.699493 53.582508 0 0 0
4333 46 2 0.0 26.270332 136.672943 52.600647 0 0 0
4334 46 2 0.0 26.349707 137.346344 51.275967 0 0 0
3635 46 2 0.0 26.886982 136.490189 50.06958 0 0 0
3636 46 2 0.0 27.07592 137.371002 48.871292 0 0 0
3633 46 2 0.0 25.888325 138.019775 48.093884 0 0 0
3634 46 2 0.0 26.446896 139.003067 47.160381 0 0 0
3632 46 1 0.0 25.360983 139.925049 46.541096 0 0 0
1126 47 1 0.0 0.704406 124.584534 5.513192 0 0 0
1127 47 2 0.0 1.234064 123.342545 4.856473 0 0 0
1128 47 2 0.0 2.304817 122.608688 5.713816 0 0 0
1129 47 2 0.0 2.460952 121.201492 5.12817 0 0 0
1132 47 2 0.0 3.587108 120.457611 5.78136 0 0 0
1134 47 2 0.0 3.903996 119.246849 4.889281 0 0 0
1137 47 2 0.0 5.190629 118.53302 5.29705 0 0 0
1140 47 1 0.0 6.455667 119.134354 4.641513 0 0 0
4094 48 1 0.0 18.884951 109.114883 55.782902 0 0 0
4096 48 2 0.0 19.169809 108.509903 57.054398 0 0 0
4101 48 2 0.0 20.141615 107.321175 57.071903 0 0 0
4105 48 2 0.0 21.35228 107.463127 57.974342 0 0 0
4110 48 2 0.0 22.284588 106.153114 57.900196 0 0 0
4691 48 2 0.0 23.578514 106.319763 58.741314 0 0 0
4124 48 2 0.0 24.848635 106.272423 57.963745 0 0 0
4703 48 1 0.0 25.937243 106.62751 58.980511 0 0 0
4302 49 1 0.0 9.781971 141.16069 52.208996 0 0 0
4303 49 2 0.0 9.799591 139.943268 53.067654 0 0 0
4305 49 2 0.0 10.689795 138.750641 52.62981 0 0 0
4307 49 2 0.0 12.153313 139.100403 52.427174 0 0 0
4309 49 2 0.0 12.878597 137.857239 51.867096 0 0 0
4314 49 2 0.0 14.219324 138.193954 51.454807 0 0 0
4316 49 2 0.0 15.184496 138.501862 52.615135 0 0 0
4317 49 1 0.0 16.629755 138.68251 52.16288 0 0 0
1838 50 1 0.0 3.409083 151.074966 18.088291 0 0 0
1834 50 2 0.0 1.83884 151.150879 18.264957 0 0 0
1832 50 2 0.0 1.028407 151.593094 17.042501 0 0 0
1833 50 2 0.0 1.474039 150.788422 15.736211 0 0 0
1828 50 2 0.0 0.414244 150.991669 14.676211 0 0 0
1830 50 2 0.0 0.527244 150.048782 13.484554 0 0 0
1835 50 2 0.0 1.854057 150.177246 12.843942 0 0 0
1836 50 1 0.0 1.892129 149.83847 11.391971 0 0 0
4244 51 1 0.0 7.266237 125.926025 52.679268 0 0 0
4197 51 2 0.0 6.949599 124.921883 51.588722 0 0 0
4194 51 2 0.0 5.763627 124.132805 51.888325 0 0 0
4190 51 2 0.0 5.435612 123.102402 50.73579 0 0 0
4186 51 2 0.0 4.292922 122.15744 51.10281 0 0 0
4185 51 2 0.0 3.026687 122.884811 51.530014 0 0 0
4184 51 2 0.0 1.818933 121.88588 51.646259 0 0 0
4183 51 1 0.0 0.729151 122.486839 52.593739 0 0 0
3590 52 1 0.0 0.154148 137.224548 43.122456 0 0 0
3058 52 2 0.0 0.480741 135.868896 42.505245 0 0 0
3109 52 2 0.0 27.068478 135.554657 41.36208 0 0 0
3106 52 2 0.0 25.682489 135.164032 41.882343 0 0 0
3102 52 2 0.0 24.810858 134.967255 40.597675 0 0 0
3056 52 2 0.0 25.209999 133.818878 39.623989 0 0 0
3053 52 2 0.0 24.353546 133.832825 38.328373 0 0 0
3054 52 1 0.0 24.767744 132.672089 37.510731 0 0 0
3673 53 1 0.0 22.019026 147.71402 46.445961 0 0 0
3672 53 2 0.0 20.670805 147.552536 46.848087 0 0 0
3670 53 2 0.0 19.831892 148.782776 46.637825 0 0 0
3671 53 2 0.0 20.217184 149.546295 45.346764 0 0 0
3717 53 2 0.0 19.215082 150.69249 45.224907 0 0 0
3718 53 2 0.0 19.255394 151.261337 43.856846 0 0 0
3715 53 2 0.0 18.178385 152.320862 43.77401 0 0 0
3188 53 1 0.0 18.091129 152.918243 42.467529 0 0 0
3205 54 1 0.0 25.106678 150.536484 36.339088 0 0 0
3203 54 2 0.0 24.365492 151.721237 35.658497 0 0 0
3199 54 2 0.0 22.867001 152.032455 36.057327 0 0 0
3197 54 2 0.0 22.325329 153.411804 35.661976 0 0 0
3201 54 2 0.0 23.329468 154.559906 36.076622 0 0 0
3198 54 2 0.0 22.602606 155.883087 36.08131 0 0 0
3202 54 2 0.0 23.707397 156.968307 36.008194 0 0 0
3204 54 1 0.0 24.93051 156.850616 37.029697 0 0 0
2100 55 1 0.0 9.78314 123.407143 25.702055 0 0 0
2103 55 2 0.0 10.785402 122.331451 25.229782 0 0 0
2102 55 2 0.0 10.434164 120.979294 25.822124 0 0 0
2098 55 2 0.0 9.063145 120.616104 25.444502 0 0 0
2097 55 2 0.0 8.986313 119.147629 25.633318 0 0 0
2095 55 2 0.0 7.526029 118.820114 25.406664 0 0 0
2040 55 2 0.0 7.291902 117.332474 25.237556 0 0 0
2043 55 1 0.0 8.159678 116.779861 24.103699 0 0 0
4822 56 1 0.0 5.815373 127.049263 61.165512 0 0 0
4821 56 2 0.0 4.77889 128.091141 61.130089 0 0 0
4820 56 2 0.0 4.669056 128.826294 59.783955 0 0 0
4819 56 2 0.0 4.038195 130.144623 60.060143 0 0 0
4818 56 2 0.0 4.031407 130.981735 58.766327 0 0 0
4815 56 2 0.0 3.096092 132.166779 58.622063 0 0 0
4817 56 2 0.0 3.55028 133.171387 59.595448 0 0 0
4866 56 1 0.0 2.502473 134.277267 59.803223 0 0 0
4403 57 1 0.0 6.800894 153.185013 56.728264 0 0 0
4404 57 2 0.0 7.522458 153.273804 58.030025 0 0 0
4405 57 2 0.0 8.524584 154.460831 58.073925 0 0 0
4409 57 2 0.0 9.682852 154.421967 57.150986 0 0 0
4412 57 2 0.0 10.596205 155.631119 57.031181 0 0 0
4414 57 2 0.0 11.034908 156.238312 58.371475 0 0 0
4416 57 2 0.0 12.073954 157.308228 58.362999 0 0 0
4980 57 1 0.0 12.776941 157.3974 59.686661 0 0 0
5256 58 1 0.0 11.791725 129.610367 70.96405 0 0 0
5257 58 2 0.0 12.241278 128.201523 71.329033 0 0 0
5259 58 2 0.0 13.684803 127.952248 70.693756 0 0 0
5262 58 2 0.0 14.152607 126.516357 70.697357 0 0 0
5265 58 2 0.0 15.536951 126.340408 70.110779 0 0 0
5211 58 2 0.0 15.772305 124.854935 69.612549 0 0 0
5216 58 2 0.0 17.259882 124.712387 69.391472 0 0 0
5217 58 1 0.0 17.520615 123.243942 68.865044 0 0 0
4370 59 1 0.0 16.234524 142.802704 54.555637 0 0 0
4367 59 2 0.0 16.021183 142.399414 53.121532 0 0 0
4368 59 2 0.0 16.106838 143.766418 52.282028 0 0 0
4369 59 2 0.0 16.107916 143.471848 50.769257 0 0 0
4365 59 2 0.0 15.245119 142.285294 50.572453 0 0 0
3662 59 2 0.0 15.246634 141.840744 49.14146 0 0 0
3661 59 2 0.0 14.994717 143.078003 48.254395 0 0 0
3660 59 1 0.0 14.782034 142.702469 46.80912 0 0 0
5402 60 1 0.0 7.528199 157.689575 69.161148 0 0 0
5398 60 2 0.0 6.745836 157.565689 67.861389 0 0 0
5435 60 2 0.0 6.604151 158.900284 67.353325 0 0 0
5001 60 2 0.0 5.867321 159.138916 66.051888 0 0 0
5002 60 2 0.0 6.544936 158.599335 64.849014 0 0 0
5000 60 2 0.0 5.613084 158.743088 63.664391 0 0 0
4999 60 2 0.0 5.34914 160.203217 63.249214 0 0 0
4998 60 1 0.0 3.959867 160.352936 62.641346 0 0 0
4330 61 1 0.0 24.629585 135.93811 57.048584 0 0 0
4332 61 2 0.0 26.130453 136.374374 56.885544 0 0 0
4335 61 2 0.0 26.724472 136.594955 58.305916 0 0 0
4280 61 2 0.0 0.440017 137.463364 58.234783 0 0 0
4279 61 2 0.0 0.035704 138.729126 57.579781 0 0 0
4282 61 2 0.0 1.095732 139.740982 57.238594 0 0 0
4285 61 2 0.0 2.148175 139.98056 58.346359 0 0 0
4290 61 1 0.0 3.480788 140.502548 57.849514 0 0 0
1422 62 1 0.0 6.117403 160.934769 5.250725 0 0 0
1421 62 2 0.0 5.75569 159.53447 4.862747 0 0 0
1418 62 2 0.0 4.461741 159.08551 5.303554 0 0 0
1417 62 2 0.0 4.042791 157.846893 4.598531 0 0 0
1372 62 2 0.0 2.980038 157.084305 5.393343 0 0 0
1370 62 2 0.0 2.1833 156.070877 4.579736 0 0 0
1369 62 2 0.0 1.085043 155.426331 5.46647 0 0 0
1364 62 1 0.0 0.143964 154.355499 4.81656 0 0 0
1252 63 1 0.0 3.159408 136.987671 8.234567 0 0 0
1251 63 2 0.0 2.560892 138.362503 8.235259 0 0 0
1253 63 2 0.0 3.413138 139.563599 8.723886 0 0 0
1250 63 2 0.0 2.476289 140.702133 8.480165 0 0 0
1306 63 2 0.0 3.016346 141.915909 9.069206 0 0 0
1310 63 2 0.0 4.384359 142.347672 8.483221 0 0 0
1311 63 2 0.0 4.820673 143.760056 8.970166 0 0 0
1314 63 1 0.0 6.200721 144.055862 8.41888 0 0 0
3011 64 1 0.0 3.305208 127.966866 38.229935 0 0 0
3013 64 2 0.0 4.484051 127.893921 39.230534 0 0 0
3015 64 2 0.0 5.718912 127.064301 38.684765 0 0 0
3016 64 2 0.0 6.638009 126.74823 39.799774 0 0 0
3018 64 2 0.0 7.745144 125.886673 39.31757 0 0 0
2962 64 2 0.0 8.814945 125.539383 40.374123 0 0 0
2965 64 2 0.0 9.987547 124.775345 39.862064 0 0 0
2967 64 1 0.0 10.486591 123.909866 41.00523 0 0 0
5271 65 1 0.0 18.662634 132.676071 71.647896 0 0 0
5272 65 2 0.0 18.902863 131.448959 70.854584 0 0 0
5267 65 2 0.0 17.660177 130.731552 70.218597 0 0 0
5269 65 2 0.0 18.071272 129.385239 69.675087 0 0 0
5274 65 2 0.0 19.351917 129.140228 68.863533 0 0 0
5273 65 2 0.0 19.332136 127.693939 68.278831 0 0 0
5276 65 2 0.0 20.672726 127.391594 67.727371 0 0 0
5278 65 1 0.0 21.84827 127.881371 68.571564 0 0 0
5715 66 1 0.0 5.117593 134.424911 79.410103 0 0 0
5716 66 2 0.0 6.051904 134.095184 80.562759 0 0 0
5669 66 2 0.0 7.405982 133.785507 80.048889 0 0 0
5722 66 2 0.0 8.424429 134.848785 80.541588 0 0 0
5725 66 2 0.0 9.718914 134.584961 79.901909 0 0 0
5675 66 2 0.0 10.176168 133.210007 80.410347 0 0 0
5676 66 2 0.0 11.390175 132.601151 79.74472 0 0 0
5679 66 1 0.0 11.955263 131.294739 80.440872 0 0 0
2597 67 1 0.0 22.604485 133.743408 32.307907 0 0 0
2656 67 2 0.0 23.249397 134.890686 31.435823 0 0 0
2655 67 2 0.0 23.026764 136.291016 32.016464 0 0 0
2657 67 2 0.0 23.609743 137.327484 31.059898 0 0 0
2658 67 2 0.0 24.441797 138.430908 31.770988 0 0 0
2659 67 2 0.0 24.89184 139.55014 30.783087 0 0 0
2660 67 2 0.0 25.548147 138.837784 29.645985 0 0 0
2661 67 1 0.0 26.292152 139.944794 28.881395 0 0 0
2677 68 1 0.0 7.004586 143.448257 33.1688 0 0 0
2681 68 2 0.0 8.219477 143.201141 32.246872 0 0 0
2682 68 2 0.0 9.600567 143.294983 32.940594 0 0 0
2683 68 2 0.0 9.763075 144.679214 33.490646 0 0 0
2685 68 2 0.0 10.558701 145.503494 32.510174 0 0 0
2684 68 2 0.0 10.555603 147.014496 32.800056 0 0 0
2687 68 2 0.0 11.638693 147.626038 31.889589 0 0 0
2686 68 1 0.0 11.364861 147.622665 30.324409 0 0 0
3504 69 1 0.0 6.901741 122.98912 45.944218 0 0 0
3503 69 2 0.0 6.225945 124.232307 46.564369 0 0 0
3501 69 2 0.0 4.773295 124.363525 46.164494 0 0 0
3499 69 2 0.0 4.219419 125.668037 46.699448 0 0 0
3498 69 2 0.0 4.166081 125.656219 48.274868 0 0 0
3548 69 2 0.0 4.275984 127.159943 48.838203 0 0 0
3551 69 2 0.0 5.682024 127.505722 49.133728 0 0 0
3553 69 1 0.0 5.83184 128.627655 50.136688 0 0 0
3059 70 1 0.0 1.47795 139.363419 35.279671 0 0 0
2611 70 2 0.0 1.851119 138.83461 33.898617 0 0 0
2613 70 2 0.0 2.639696 137.566635 34.114441 0 0 0
3060 70 2 0.0 1.913214 136.638367 35.032913 0 0 0
3064 70 2 0.0 2.847532 135.636566 35.593334 0 0 0
3061 70 2 0.0 1.963281 134.527893 36.253109 0 0 0
3009 70 2 0.0 2.939971 133.397003 36.435764 0 0 0
3008 70 1 0.0 2.682939 132.531006 37.700001 0 0 0
1231 71 1 0.0 20.098177 129.402237 4.550296 0 0 0
1232 71 2 0.0 20.123556 130.639191 5.447887 0 0 0
1230 71 2 0.0 19.499834 131.812485 4.731561 0 0 0
1228 71 2 0.0 19.366112 132.998199 5.615074 0 0 0
1284 71 2 0.0 18.830307 134.206406 4.809202 0 0 0
1286 71 2 0.0 19.45051 135.456177 5.287355 0 0 0
1285 71 2 0.0 19.059597 136.597626 4.387655 0 0 0
1282 71 1 0.0 17.533653 136.98201 4.259325 0 0 0
3110 72 1 0.0 3.576104 145.299713 37.695908 0 0 0
3111 72 2 0.0 3.772635 146.267715 36.474182 0 0 0
3113 72 2 0.0 4.996746 147.057831 36.57795 0 0 0
3114 72 2 0.0 5.097763 148.064468 35.43005 0 0 0
3118 72 2 0.0 6.413674 148.936859 35.501869 0 0 0
2728 72 2 0.0 6.406128 150.003876 34.485725 0 0 0
2730 72 2 0.0 7.617333 150.887512 34.527409 0 0 0
2733 72 1 0.0 8.871029 150.003311 34.326775 0 0 0
5352 73 1 0.0 9.731857 148.361603 67.078209 0 0 0
5354 73 2 0.0 9.764584 146.842743 67.619858 0 0 0
5351 73 2 0.0 9.388885 146.728455 69.079628 0 0 0
5353 73 2 0.0 9.744968 145.399078 69.627953 0 0 0
5356 73 2 0.0 11.210342 145.245956 69.892517 0 0 0
5357 73 2 0.0 11.625576 143.797501 70.285217 0 0 0
5358 73 2 0.0 13.200409 143.721054 70.361954 0 0 0
5359 73 1 0.0 13.534828 142.476959 71.154427 0 0 0
5747 74 1 0.0 19.94441 134.420532 80.089172 0 0 0
5695 74 2 0.0 20.717735 133.241364 79.496613 0 0 0
5698 74 2 0.0 21.799097 132.835098 80.485138 0 0 0
5696 74 2 0.0 21.277906 132.348206 81.77951 0 0 0