LAMMPS data file via write_data, version 29 Oct 2020, timestep = 250000

2744 atoms
1 atom types

-0.3131458894098724 25.12114588940891 xlo xhi
-0.3131458894098724 25.12114588940891 ylo yhi
3.2313007893430274 56.4345961633876 zlo zhi

Masses

1 58.933

Atoms # atomic

981 1 1.0456590508826447 0.1626861231618703 5.151086326083526 0 0 0
2266 1 3.236402320549623 0.06051401930699324 6.5221021806019195 0 2 0
2162 1 24.52736434636259 15.147978013190674 3.3030072106140325 0 -2 2
2369 1 1.30345409646786 3.1655897211238124 5.181764581980625 0 1 -1
103 1 0.6372748604631128 3.8848731379136616 7.2539297715698545 0 0 0
414 1 4.410902812892352 2.5115654675619696 6.097613902274878 0 0 0
874 1 24.91772862759027 1.9776785011616824 5.842460629552175 -1 1 0
2709 1 1.6709506979976156 1.449242712519839 7.053325765875893 1 0 2
267 1 3.8589365950172514 3.43742857430323 4.13424766784017 0 0 0
616 1 5.124733820314143 0.3110914006860853 4.819742853481661 0 0 1
1785 1 6.928764171833214 1.7527861111477785 8.438559042753248 0 1 1
473 1 6.609752043525116 2.6100008314878185 6.006299801431453 1 1 0
1412 1 -0.007330165154708523 17.370020148087754 4.599785262283478 -2 1 -1
1335 1 7.287521090486892 0.446107628084913 5.376019086094885 1 0 1
1380 1 9.257793725089222 2.744157579718177 4.701539659717122 -4 2 -1
2060 1 3.051144070481366 17.546927237468452 3.3824852152241256 1 1 0
105 1 11.52347572115681 3.8034895396816397 5.311839387223862 0 0 0
1957 1 10.751711294356364 0.9473607996828728 4.133101081677961 -1 1 2
285 1 11.347496400961262 11.555132152690957 4.300005187780506 0 1 0
1784 1 13.676008948753811 2.7984588510443875 6.236367806622102 1 -1 0
1480 1 12.733072668407894 2.262472498991584 3.875719557896371 0 1 1
150 1 17.336959467640966 0.3260416503699526 6.007754937710984 0 0 0
857 1 15.19766629623939 1.0296705927891747 4.974073505448362 -1 1 0
2041 1 13.135255017129113 0.3826996033088733 5.564679033981468 1 0 1
858 1 9.215648705336905 12.53757264052147 4.014592561728904 0 0 0
974 1 11.465446696846971 23.772510238353647 4.2887899656671795 0 0 0
134 1 20.690257201654582 17.00873967050493 4.419646970840594 -1 -1 0
2314 1 18.5339103570711 3.0950126950229717 6.0467874280958895 -2 1 -1
766 1 19.728038050968678 1.0856187320117205 5.446724586603761 0 1 0
122 1 20.309532633970065 3.2415411015667033 4.287315932020795 0 1 0
873 1 21.394851399329283 -0.043621035932233265 6.53951095061946 0 1 0
51 1 20.571844108279258 2.335197160656483 7.312454949185168 0 0 0
990 1 21.311766030116466 0.7002196763193478 3.478925798314153 -1 1 0
1263 1 20.31751387749985 23.286642930982183 14.493621744871039 0 0 0
1754 1 23.523977671692407 -0.07201039585244598 5.4763864596386185 0 0 2
883 1 23.822801249424508 3.616297606497927 7.892288658910863 -1 1 0
1918 1 23.24490733051966 1.2675469027953579 7.712230868700496 1 -1 0
335 1 22.25072256333423 2.022354294072284 5.440838712413115 0 1 0
1123 1 0.5528400622107772 5.839985589467459 5.331161566713709 0 1 0
696 1 1.3224049418287374 6.249674977429835 7.713885222396935 0 0 0
1687 1 0.6441510964939117 8.353096262123255 6.373980410606399 1 0 2
2325 1 2.8302907921705023 6.717847463721585 5.790083900564223 0 -1 0
166 1 2.7348220704390833 4.511133751932204 6.132654608262061 0 0 0
1912 1 24.283769137494176 5.7920913712301045 6.928948799905287 0 -1 -1
871 1 3.507862893733198 22.57465288739401 3.602279781881748 0 0 0
831 1 7.243768243292603 4.0608296175723835 7.496671205917338 -1 0 0
481 1 4.111978604515126 6.052599405823763 7.8725779482827 0 0 0
2153 1 5.139709135059569 4.6923187419844785 5.643973807135236 -1 -2 -1
1189 1 5.964211441424577 9.985657429381012 6.548058608252607 1 1 0
1418 1 22.978543776769392 16.77145815241777 3.8457851948744755 -2 2 0
175 1 22.706990694985038 23.41534962378055 15.183756455754514 0 -1 0
123 1 8.922137636994531 5.045106556178557 5.622388956136138 1 -1 0
119 1 6.999985378263513 6.489608171915329 5.357876093378219 0 0 0
1315 1 12.24936396666664 9.451226293242643 5.51397844570957 0 1 1
35 1 9.088609173693014 5.683420539286972 7.689834913823447 0 0 0
340 1 9.357904563392127 7.416868951358641 5.345492332654216 0 0 0
206 1 11.194355544421487 6.0614713398688655 4.485333205103171 0 0 0
724 1 11.337659815994517 6.819613667064349 6.733265770940038 0 0 0
239 1 7.345653277660401 8.122594613823864 7.075810556005337 0 0 0
746 1 11.958243482923285 8.688425349223376 7.805968886664942 0 0 0
2549 1 15.049537923673407 3.156135597683014 4.107476189733224 -1 0 3
1892 1 16.547512698071095 4.111008035342991 6.201891874282087 -1 2 0
278 1 13.96191372930132 7.420723583645608 4.407209364791395 0 0 0
165 1 15.769543994041657 6.811879874714714 5.780057893765159 0 0 0
1073 1 13.818777801910858 5.210714993217497 5.560745971264156 0 1 0
342 1 19.56247568815037 7.405710646827524 6.314677500362846 0 1 0
854 1 17.622028713921722 5.883754020176 6.615932424436426 0 1 0
180 1 18.448811608289404 8.721479749385239 4.940642988381559 0 0 0
413 1 17.96071612409198 6.686329748250242 4.5621758297258355 0 0 0
2555 1 20.497819344522753 7.216203611692593 4.1109948641417065 -1 0 0
170 1 19.86908253589398 5.30333633383495 5.2527069979273655 0 1 0
1726 1 19.91064203481831 4.42632304763467 7.560076885406151 -1 0 0
1059 1 17.37165262295376 2.1018310157743207 4.126468232584575 0 1 0
337 1 22.044862984521984 4.332279664577558 6.136705611517679 -1 0 0
1644 1 23.939235097812045 6.644918772784825 4.701103586647887 1 1 1
2127 1 24.288813821523824 4.137290930462291 4.809918924859051 -2 1 -1
861 1 22.011193165082545 6.465871102353781 5.852249320082361 -1 1 0
2330 1 24.720915128128887 10.434367483729973 7.263439394189142 -2 1 -2
1615 1 1.7556251914851502 11.328738356798963 7.480201255236104 0 -1 1
759 1 1.571908453508523 9.957209764389166 5.380618941439527 0 0 0
919 1 3.637786815836308 9.442405221174115 5.0000059185573695 1 0 0
2141 1 2.963854918673135 11.856533087378104 5.504948263105887 0 1 1
2581 1 1.7855832191036773 7.079523741928657 3.5269863326675392 1 0 1
2443 1 25.082970854638198 23.943185087024993 14.382624828385746 -1 -1 1
177 1 5.223207170767912 7.920921212802741 5.970269847206026 0 0 0
762 1 4.09999556094016 10.8615554883381 7.507562400365981 0 0 0
130 1 5.274964285732037 11.576739512205195 5.1798091251676865 0 0 0
292 1 22.357670001216682 12.356489013229517 3.249795978649468 0 0 0
1125 1 6.476454265486301 13.741231521447187 5.270631673038525 0 0 0
133 1 6.287493860320054 12.07723478986612 7.560889340600033 0 0 0
1411 1 1.049110765000641 23.849597897355252 3.427017918903585 0 -1 2
811 1 7.3371564137839425 9.223317890909529 5.017533877627987 0 1 0
313 1 7.7855188072787325 11.534316460416306 5.649442085112181 0 -1 0
1134 1 10.52684526033808 12.13858313495888 6.651924743701551 0 1 0
241 1 10.171006408787557 9.51274396195865 6.567357128803293 0 0 0
2368 1 7.625654741436884 4.295612780005351 4.07449613394782 1 3 0
1465 1 13.631921983763528 7.2862824489357045 6.923930397751664 1 -1 0
1878 1 13.666074759012568 9.747680169753533 3.510366769494623 -1 -1 3
1955 1 14.69089072184492 9.578224813053891 6.008058480090151 1 2 1
2029 1 16.030896108538293 8.633601422454518 4.18953230372755 0 2 2
2311 1 16.85134636632904 10.660741660831503 6.307665365373579 2 3 0
1704 1 15.702644735518065 11.94826406370639 4.42856411289253 0 1 1
1979 1 6.150281949516464 24.10306214313423 3.614447111810101 2 -1 0
495 1 17.418765029672308 8.348429844789917 6.9814983715192955 -1 0 0
1001 1 18.241144939398765 11.065156404244522 4.472428088420975 0 0 0
182 1 19.26131540534974 10.337556266789399 6.404285580583864 0 0 0
1081 1 -0.2184051431428603 8.418518126955753 3.931901430298804 0 1 0
1900 1 20.768616225097546 10.269125718852914 3.904497302488114 -2 -1 2
88 1 21.36221144999226 9.116547621276831 5.74581100539345 0 0 0
383 1 23.574228497126384 8.366136733627831 6.510339507196038 0 0 0
2401 1 22.662049246711945 8.73629751069122 4.064433727601995 -2 1 2
2334 1 22.45557416888542 10.807415487465555 7.578637908534153 -2 1 -1
2285 1 23.303171569209702 10.925364288335421 5.196859186387432 0 0 1
1049 1 0.40568158931540466 11.980659121311188 5.9810271238860215 1 0 0
1442 1 1.7756296492916754 12.173569207035492 3.7810019288374765 0 0 0
2427 1 1.2335269917775886 15.523845948567931 4.394025507262789 -2 0 2
2452 1 1.9491585285505697 14.300440876748311 6.740708520786268 1 -2 0
270 1 4.39433886577566 13.749267015114166 6.991287434381471 0 0 0
2723 1 5.672875996670284 15.585268756118166 7.082606700459623 -2 0 2
2357 1 3.275160435439448 13.933767728614727 4.576457168485478 0 -1 0
2656 1 5.485140153032975 15.7665596435972 3.8467342041030466 2 0 2
260 1 8.010975942149 16.198592567175886 4.927020937335242 0 0 0
2284 1 3.858329668715733 11.1918801000437 3.288933536748843 -1 -1 0
1568 1 11.309397139866887 13.760556770506037 4.47600701872122 1 0 0
2225 1 23.275589963162062 2.0747243864056912 3.6783762009655336 -1 2 1
951 1 8.776263184764998 13.726080694056337 6.072305452521499 0 0 0
465 1 10.026102429795335 16.805510138122884 6.603077079701537 0 0 0
1614 1 11.643276246702449 16.061969204238842 4.590660709987921 -1 -1 2
2447 1 21.293788539018685 14.650483619862234 3.4566996394116782 1 -2 2
341 1 14.584683734257569 11.81840504057907 7.197386328826564 0 0 0
2028 1 12.382788810039862 15.410008662952821 6.552902685027384 1 2 1
1887 1 15.105297491012955 15.865494672822662 6.059441489932852 -1 -3 2
2559 1 16.026270294160767 14.787773532841124 4.050990085224232 0 0 -1
2643 1 13.668376713405202 16.59278711736968 3.7571937964064737 1 -2 2
298 1 13.158570103072396 17.71665698627335 6.201679941009367 -1 0 0
15 1 17.45631748053126 13.269680566662359 4.424858571689889 -1 0 0
1833 1 14.054135775642367 14.042954944325395 5.2124983207081135 -2 0 0
191 1 18.631121273736383 12.771708268729512 6.229346750743266 0 0 0
890 1 19.924593468340724 12.658940732499476 3.5455000200461653 -1 0 0
2598 1 16.334165211253932 13.367594374040719 6.75319446841206 -2 0 2
2360 1 17.911369302341065 14.81261459812892 6.283591909350909 1 0 2
1668 1 20.48961336158458 14.45463647447336 5.88493063213029 -1 -1 1
898 1 18.712857837840396 15.688230052413106 4.088683536543151 0 0 0
44 1 25.04738881834534 14.884366327356092 5.7871875989881385 -1 0 0
2241 1 21.77463211971027 14.429840747514742 7.863982516845355 -3 -2 1
190 1 20.96094261355811 11.905294552791077 5.620842376710807 -1 0 0
1778 1 24.321432308288898 13.00696799348003 4.231958387549432 -1 1 1
355 1 22.870891768558657 14.732471445813253 5.350042250420627 -1 0 0
322 1 23.463874529443565 12.932492124796092 6.277563846123895 0 0 0
12 1 10.23360360766245 5.334498195914092 16.425129363548564 0 0 0
2305 1 9.947250164097158 21.997285243161215 3.706545589049325 2 -1 2
1985 1 3.847549142546522 16.015532277054675 5.243915171767006 1 0 2
140 1 4.344157720270846 18.157028630393647 6.797131609383145 0 0 0
1834 1 22.62299005069601 4.524321762246733 3.383245771736584 0 1 0
1738 1 1.1743375662906497 16.839215643620967 6.535341809069715 3 0 -1
1471 1 1.2985338344116102 21.093999529205703 4.633074481621985 -1 -4 0
1019 1 2.1019896956721853 18.572754525130513 5.255451578644054 0 0 0
2503 1 13.489078958805646 -0.3015402881228866 3.4331480911103642 1 0 0
803 1 0.04385502410722231 18.97492718116535 6.406805491008058 0 0 0
222 1 7.5101929952633535 18.730936739961038 3.902762799383847 0 -1 0
1914 1 4.607752653128005 18.959299519642734 4.4026068193881525 1 0 0
2122 1 6.176980338966804 17.343475833647844 6.002880031457256 2 1 0
2413 1 7.779607336565524 20.87093848654297 5.117841204514738 -1 -1 0
273 1 11.716564683843977 19.268655155535264 6.296544941241229 0 -1 0
2230 1 9.893156454285936 19.97662762932775 5.26326022229654 -2 -1 3
1550 1 8.092525823922287 18.283120416984808 6.270718137805661 1 0 0
715 1 9.801527939934594 17.747314555300292 4.211988456631694 0 0 0
2735 1 11.997265825146245 20.73009487475369 4.422664539073445 0 0 3
345 1 12.483339207898652 0.9846278220418168 15.570035800001836 0 0 0
806 1 15.604116436609814 17.52415103238944 4.820006300776249 0 0 0
1172 1 14.230542340218577 19.27946531515544 4.634000640896125 1 0 0
1407 1 5.314486711151059 3.9851775747413694 15.501133081575201 0 -1 0
329 1 -0.19184294444063726 21.5435296175569 14.463388606144624 0 0 0
143 1 18.108474946315056 17.671116324050317 5.063880987813402 0 -1 0
1854 1 19.475697992723752 16.62293915754387 7.456346576820777 -1 1 4
56 1 18.501554344031923 19.319488308109626 6.630001620317068 0 0 0
1051 1 16.58093738066168 19.765799605625375 5.6373447341364535 -1 0 0
2296 1 20.026069540221805 19.384548606473885 4.425821200607517 1 -1 0
2115 1 20.650603820524765 18.735118130159343 6.719241624839883 -2 -1 1
1149 1 21.558085323885713 5.146237249010723 15.900568274506163 -1 1 0
1040 1 21.71776096072159 16.75932595582723 6.445790352709318 -1 0 0
2212 1 22.616241028053004 17.22698538166945 9.045379968598917 -1 0 -1
1588 1 24.033509209305286 17.07173099714126 6.628982214843892 -3 2 1
2573 1 22.340640624472492 18.714784026233495 5.1721720041663355 0 2 2
770 1 24.455685988247694 19.688896514700176 4.448244786150295 0 -1 0
1734 1 22.888357510179986 19.130088258588046 7.592024233713478 0 -1 1
907 1 23.42943276559008 22.94765830882926 12.779696659267328 -1 0 0
1403 1 12.044252661861803 18.34061090211641 4.112241065111241 1 0 0
153 1 -0.15414901584514637 23.240117428254415 5.821983613672726 1 0 0
31 1 4.0336123039911636 21.02266039692858 5.1816180361005415 0 0 0
2155 1 2.2226457474586625 22.985380708809664 5.6539514601781145 1 1 0
1800 1 4.215656961052175 23.860699166879094 8.134507307564409 -1 0 1
1920 1 1.8924962954168691 22.9827297543469 7.990246771242915 1 2 2
707 1 5.846802222055107 19.870472432459174 6.31562700671003 0 0 0
1859 1 5.752346597173004 22.009580051885024 4.344110734006275 0 -2 3
2705 1 4.765702633806359 6.325129312124934 4.0010712034902065 0 2 0
294 1 4.565975792081816 23.409430730897313 5.732593747510183 0 0 0
47 1 6.095359779685988 25.06564472657287 7.107738529198993 0 -1 0
1303 1 6.272736825529103 21.811559760476804 7.450842972988367 0 -1 1
767 1 8.286501185196032 20.234153838417647 7.563026869113874 0 0 0
225 1 7.223153174959624 23.364688569449434 5.9461225273443015 0 -1 0
1595 1 10.599232563211569 20.804756318313927 8.15990681527855 0 0 0
1896 1 8.649911553716414 23.958764511135172 4.278021997153798 0 -2 1
1818 1 8.712311042526153 22.6426279983569 8.046398790367185 1 -2 1
1066 1 10.608708786910483 22.340587247003576 6.405219267499385 0 0 0
1255 1 9.974732205773664 25.02049326574673 6.166338474106695 0 0 0
2719 1 11.857209022137427 24.41638793440555 7.230122866440919 -3 0 -1
167 1 6.042515210989311 2.4007091241915814 3.7789903298417453 0 0 0
763 1 14.937506083708 21.93170941317915 4.539663222602648 0 0 0
959 1 15.835432705786998 22.592612810297993 6.774358201617252 -1 1 0
283 1 13.351678952949468 23.385041037445454 5.831131757684636 -1 0 0
1130 1 14.938801155659906 24.865514292564058 6.7732831726582425 0 0 0
1000 1 15.947706494107178 24.218360229864444 4.379303529393723 0 0 0
97 1 9.647788414051666 9.955908423504953 4.272301954947 1 0 0
896 1 20.133114062772826 21.648663913843087 3.9840702989843235 0 0 0
117 1 18.90052651366843 24.182296885734154 5.030813296262879 0 -1 0
2264 1 17.536029834920846 22.04891593837486 4.518365519807005 -1 -1 0
387 1 12.588144331870483 24.954032006602105 13.506670391262784 0 0 0
1904 1 19.335148267160854 21.697480827618087 6.154008920850908 0 -2 2
333 1 20.67948842284327 23.11869444924986 7.35754936953637 0 0 0
1055 1 -0.2369147009299455 25.04412225865861 7.007821669005441 0 0 0
1450 1 21.648088253481994 21.069324066247262 6.48012520031709 2 1 0
976 1 23.191962761600557 23.71250409438381 7.035581858489406 0 0 0
2659 1 23.92566695720481 21.22214872467174 6.711395715021046 2 0 0
2208 1 24.666271633022752 22.59887889639078 8.645362309105867 -2 -1 0
2706 1 21.482531587292485 23.401224460091022 4.887251170401534 -1 2 1
1838 1 23.50422057869406 22.37550221166895 4.327256810608521 0 0 1
956 1 22.346894867688654 20.40624736453222 4.06876226043077 -1 0 0
863 1 -0.16661613385090127 1.8193445680018172 8.701281854913539 0 1 0
419 1 2.046165822331859 -0.19266718992103565 8.68335093454228 1 0 0
127 1 2.380682618062942 1.8973281403968185 9.42155907859359 0 0 0
2101 1 24.715998184208615 24.671786382370215 11.837102006428784 2 -1 2
2062 1 0.010586349556971242 24.94773801535164 9.497823688234968 -3 0 0
824 1 0.6819062295452676 1.3873452553144712 11.038248292707916 1 1 0
232 1 4.697949643067651 1.5873632795457004 8.025228471616288 0 0 0
2257 1 8.734391943043754 1.916108639191402 9.813926803644714 0 -2 0
1589 1 4.599049640537509 2.5843225134895986 10.077184361914465 1 0 -3
970 1 8.443753876773764 0.9302979374115756 12.094010528433936 1 1 0
1670 1 6.597810170732915 2.1329577750646593 11.175899417919414 1 1 2
28 1 8.705697803343911 1.6291589343302058 6.681685368663283 1 0 0
2616 1 11.298313632303566 1.8961082288294295 6.472220224519219 1 3 3
1082 1 11.967863027665235 4.724787047590889 7.397515489186856 0 0 0
1031 1 11.641752996595926 2.429556531427641 8.81893222850343 -1 0 0
302 1 12.66983257719668 -0.0599249966362399 10.11569049531398 0 0 0
815 1 9.68876089025307 3.4383859597407063 7.72699288290504 0 0 0
494 1 9.61037836634265 4.131732562315964 10.001066766503772 0 0 0
312 1 10.653103773388889 0.2660879197736944 8.614923831862932 0 0 0
100 1 15.069812897331742 3.061417342870063 11.52572184832157 -1 0 0
2283 1 13.183281900262585 1.0609447294529468 8.104353534379348 -3 0 0
259 1 15.479863832000374 1.6931449543241084 7.211430934242264 -1 0 0
357 1 14.840725070791542 1.0252700039248368 9.836954716165394 0 0 0
246 1 16.491663583789013 3.034895508941357 9.283222421746153 0 0 0
967 1 17.07402696647356 1.6108513643028066 11.212572919551189 0 1 0
1058 1 19.320171444106975 -0.13789324796993258 7.766328516993408 -1 2 0
1145 1 18.308446630228886 2.1583538327495995 8.374821771843227 0 1 0
732 1 17.02947731510112 0.44334644495727826 9.112979593301233 0 1 0
962 1 18.862885141394344 0.3798420373970197 10.77265707772314 0 1 0
1980 1 19.297335414915707 2.578094198937091 12.061327526313255 -2 -1 1
1083 1 21.40373505213835 0.5967518851056488 11.36760628037939 -1 1 0
174 1 19.245378162939822 0.03730479153088878 13.667533454530405 0 0 0
689 1 23.72828631321842 0.9307814014392148 9.95619700558104 -1 1 -1
443 1 23.536111190028997 3.635395055833865 9.980989729549766 0 0 0
537 1 21.635457168241928 1.8227493026611787 9.454524556987597 -1 0 0
1707 1 20.320000320813428 23.82341056956065 9.68639828895855 -1 -1 0
224 1 21.908686015197326 24.99526074888172 8.577081840435266 0 -1 0
2001 1 23.430635951810004 0.2209567169381923 13.137475344917311 -1 0 0
19 1 23.83314874316045 2.2832877186438973 12.276410132293046 0 0 0
356 1 3.1187571072578777 3.3373798227548988 7.925955708580447 1 0 0
2455 1 2.519421291503567 3.5080534190213424 11.680817003208338 0 0 1
526 1 25.010670303474576 5.468632858786767 9.400720612489122 -1 0 0
2591 1 1.7912861832577462 7.301033776988569 9.828086443348809 0 -1 2
772 1 3.7802232602374266 7.04457019203853 11.163225637005016 0 1 0
997 1 2.5539252644494734 4.6920643662611505 9.56476171774659 0 1 0
1027 1 0.6260496246329142 3.5963516817412144 10.02157124628252 0 1 0
1742 1 2.7867828027094474 8.506538661042413 7.502205928738893 -1 1 1
1165 1 5.144094152580176 4.152664106155553 8.289679821097396 0 1 0
933 1 7.332097182776478 4.106299444154746 9.933215790320238 0 1 0
2554 1 5.152361007042051 4.745101507946453 10.761214781113098 1 2 4
318 1 6.706028935969067 6.280722049315657 8.153505387298733 0 0 0
361 1 6.575579097005703 6.526224194542607 11.09901287580123 0 0 0
753 1 6.974572613048993 8.14478475449369 13.115148462604003 1 0 0
508 1 5.1964274013783065 8.139146117912196 8.74574977772767 1 0 0
1074 1 8.606461462218094 6.377230662709807 9.870606289079436 0 1 0
2648 1 10.8676957026174 6.617339716399167 9.525426813193585 -1 2 -1
735 1 10.76633586679722 5.8943166591707294 11.899119329642684 0 1 0
2625 1 8.659653784255172 6.426169235101277 12.238332037308325 1 2 0
1521 1 9.357949513008661 7.875330837612294 8.15906035324524 0 1 0
1646 1 13.89057989079418 3.176861724462602 9.091072292832052 1 -2 2
67 1 11.944990386466637 4.150825849795403 10.164694139911326 -1 0 0
971 1 13.179462431463387 6.333683265893805 8.93747696918015 0 1 0
1578 1 15.120694002001832 4.897813986604676 10.099176281138181 -1 1 1
1360 1 14.935493852931822 7.2523418496408265 10.949168948008758 -1 1 0
1625 1 14.969791139491583 4.773998207044372 7.597780654823602 -2 2 3
2194 1 12.522963655280806 8.134503150087546 10.452445859833027 0 1 1
870 1 17.54653387798104 4.86818373729303 8.443358369680919 0 1 0
2014 1 19.5132262839438 6.300651832408256 8.609063997299783 -1 -2 2
2428 1 17.30136810178078 3.8205321963802996 11.390243713786985 0 3 0
1128 1 21.08461628190868 5.355648590300448 10.753193659589668 -1 1 0
1913 1 18.992604872064312 5.814872556483486 10.863899373519683 -1 0 1
2169 1 19.61665873510441 3.4538776992030034 9.795167024581357 1 0 0
1211 1 16.964267838558584 6.729600692280671 10.684164873011543 0 0 0
164 1 19.7641289566982 4.4802061790930585 13.042256213093545 -1 0 0
948 1 21.857758791893637 4.99514505326987 8.630419576833933 0 0 0
1921 1 22.792147564593023 6.707360179598577 9.864949556729036 0 -1 2
572 1 25.002883456019667 7.634621599137402 10.787095059090433 0 0 0
320 1 21.727827224674996 3.079296445139153 11.5342340202865 0 0 0
869 1 22.950518097872376 6.181229577804484 12.172672271697841 -1 1 0
881 1 2.8454397452072424 11.129512622529003 9.786599664208708 1 0 0
934 1 24.75158288261288 7.5992287990278236 8.332225094543581 -1 1 0
1893 1 0.7568538650204704 9.438096534526437 9.01287162247148 0 2 1
739 1 0.11085509181893505 11.705138949586985 9.178705211262745 0 0 0
338 1 3.5942138927130123 9.132977427082063 10.129982401424469 0 0 0
129 1 3.591626547890891 10.57911640998352 12.330962541864412 0 0 0
2200 1 7.946252727621841 8.683773729025319 9.734763641215125 0 0 -2
376 1 6.0701668734516385 10.390279804867683 9.133803964006896 0 0 0
163 1 5.644823162218262 8.774645838573875 11.394770937558006 0 0 0
2717 1 8.063741598332332 10.524677650018031 11.113524144237857 -1 0 0
215 1 3.6518560993728455 13.0419816879262 11.473266675446068 0 0 0
2481 1 4.5769459492833455 12.47660021637153 9.201332969422687 2 -1 1
499 1 8.316740783735764 10.878131564991433 13.365373982524204 0 0 0
279 1 8.36958310384786 10.187656254796304 7.72657023853068 0 0 0
999 1 13.366189465401018 11.642841387878821 5.182807708437463 0 0 0
1612 1 10.28913815468638 10.219037382062414 8.92608390090708 1 0 0
1763 1 10.710829200183445 10.626531415422686 12.68532114174557 1 0 0
221 1 11.80106598785154 10.169996980833064 10.720151826007427 0 0 0
141 1 10.196365681249661 8.480803333159143 11.042233344356973 0 0 0
218 1 12.509802536037641 10.927581829503922 7.693851353251112 0 0 0
701 1 13.639159100130557 10.979734917985793 9.886107495362333 0 0 0
325 1 14.138477275115429 9.38428436320978 11.659116461087274 -1 0 0
2702 1 14.141498708880496 8.405942733186425 9.005258665638685 0 0 1
2506 1 15.637971137039578 9.936210962860963 8.39838634890468 0 -1 3
252 1 15.863672749534976 6.706239077288752 8.66647720014658 0 0 0
1271 1 18.321483870799874 8.228746895900517 9.094568137557847 0 1 0
1239 1 18.15947378975835 10.812822063234192 8.284958710765995 0 0 0
864 1 20.918144797077026 8.248714195975879 10.021267670600547 -1 1 0
887 1 20.339590255552835 9.558436913329052 8.31581228416225 -1 0 0
1386 1 17.492043650404945 11.481307373328738 10.46622885491286 0 -2 0
2261 1 19.6904831839937 10.976756019913932 10.36440805633097 1 -1 0
969 1 22.209822792181534 7.274606237146759 7.894924390480785 0 1 0
93 1 23.824761364233055 9.31950031561138 9.272744031152808 -1 0 0
45 1 21.91360495736142 10.596209018341128 10.237569936970694 -1 0 0
2670 1 25.057136527961262 10.055509194203552 11.392828681315358 -1 0 1
2691 1 23.98873532901836 8.569652671925914 13.452899772228381 -1 0 -2
2020 1 22.98061065843396 8.63868838683608 11.407556299148679 0 0 0
194 1 20.923408367853867 9.371492395202472 12.355368461773493 -1 0 0
104 1 2.5371317727052207 13.504094297691164 8.959767011678228 0 0 0
816 1 -0.1342062531982387 13.35185769400579 7.586899665006943 1 0 0
1143 1 2.0749181409734145 14.693499161475028 10.900975278616091 1 0 0
906 1 -0.09484358042953803 14.300803518977109 9.968611373830562 0 0 0
793 1 3.2518562002623708 16.193787135665275 7.748602044307617 0 0 0
2110 1 6.392296763951846 14.358863104690785 8.664719286887564 -1 1 2
918 1 7.373460087927966 12.554601016727625 10.288453088125237 1 0 0
1053 1 4.203650804396827 15.235627519873052 9.595067719153299 0 0 0
379 1 7.390676855504734 15.267473287350102 10.727630673729807 0 0 0
2528 1 5.344794584268694 16.30512324087144 11.382642383654275 -1 1 3
1146 1 5.6862842727078124 14.006161234222553 11.17085885167383 0 0 0
791 1 8.190045541945192 15.245689687096599 7.482737020033201 0 0 0
643 1 9.797051868809982 12.046964622371346 10.80832379030857 1 0 1
1866 1 9.460426097727815 14.543352680992562 9.963724938213678 -1 0 1
68 1 8.63226857959912 12.665429559936465 8.45710105321202 0 0 0
382 1 10.378488079864182 14.629653471432919 7.648424267914733 0 0 0
966 1 11.904027477339698 15.012956385809902 9.674554951279443 0 0 0
265 1 11.739417804751293 12.549187494595405 9.1711894914717 0 0 0
291 1 14.147568502678553 14.275678722983168 7.760363353759677 0 0 0
2628 1 15.763132496882774 12.273462980340986 9.156937427049733 2 0 2
48 1 17.88219126365275 13.366355976262357 8.952270887488872 0 0 0
1124 1 13.93052840498785 13.635411561415227 10.067376452442979 -1 1 0
1667 1 12.106982924157554 14.147092055929898 14.123335162357643 -2 -1 1
740 1 16.03320735051758 14.985151059914175 9.055972106694483 0 0 0
738 1 15.583612074035548 15.61843163738357 12.727995594435471 0 0 -1
958 1 20.134010270711862 12.133531541693758 8.120080637936347 0 1 0
2220 1 15.965406442617093 13.782314320351077 11.09870532071118 0 -1 -1
377 1 21.285788584500217 12.848886832634296 10.584109367502503 -1 0 0
1571 1 19.730627976209604 14.53277256051441 8.819817808022597 -1 0 1
1645 1 18.803584670929347 14.011640202280704 10.914616105082434 -1 1 0
1332 1 18.148213363865814 15.932674677513537 9.378106989238841 0 0 0
1094 1 23.15517429741596 12.94970506762139 8.766503335837807 -1 0 0
2500 1 24.09602857226715 15.322174751335892 8.36777050840238 -1 1 -1
1732 1 24.85772610946809 16.40822734254388 10.520121870754286 -1 -1 2
116 1 22.57015101406281 14.573961881904127 10.205158442923764 0 -1 0
1706 1 23.85239623940827 12.008895739574797 10.566606793277032 0 2 0
488 1 20.289889963921496 11.549972487576195 12.303585054882209 0 0 0
2146 1 24.84474698027946 14.639257740893267 12.279860174348205 1 2 1
1005 1 1.157652695999428 15.47565523031766 8.617411129093917 0 0 0
1714 1 1.087032416399143 18.889065934626117 10.202212493208823 0 1 0
128 1 1.9008004599324821 18.88838989771279 7.842933837855535 0 0 0
1723 1 2.628393288953604 17.320440976057654 9.757286594812392 -1 0 -1
953 1 3.6766780157468317 19.919365770064594 9.141414759774257 0 0 0
872 1 3.931733908205648 21.496559569207562 7.563990288200048 1 0 0
1847 1 4.83070021482079 18.24030058501441 10.65785827402767 2 0 0
16 1 5.788680330138484 17.130478077156496 8.887668047715692 0 -1 0
347 1 8.507128056760319 19.494175740847943 9.912735213850212 0 -1 0
912 1 5.885619353697395 19.307817131786173 8.663365023864966 0 0 0
844 1 7.433747074224459 17.833084874563177 11.012203331103303 0 0 0
1782 1 4.728776353946304 20.803304370150492 10.936705133910413 1 -1 1
2202 1 13.203655840586297 19.039435534588385 7.996723910075279 0 0 1
2168 1 8.027494636924267 17.21647824706993 8.48525375081863 -2 0 0
1224 1 10.867598027258053 20.043440200449886 10.386738092376373 0 0 0
394 1 11.889191398054754 16.967764108834906 8.56835689816425 -1 0 0
94 1 10.259778587832201 18.652039873225064 7.969814343374617 1 0 0
354 1 12.904483235398882 18.77042103756161 10.499504131526958 0 -1 0
830 1 9.92283473989926 16.873678566489026 9.685955185911816 0 0 0
7 1 13.984662164969908 16.72975958978744 10.477247785795731 -1 0 0
248 1 14.393317018134631 16.738610855725867 8.20193452319021 0 -1 0
2205 1 16.50891599999745 16.98634052267134 10.678657238188052 2 -1 -1
1681 1 15.331930796156488 18.334148367412475 7.027717176562927 -2 0 2
186 1 13.456383041687701 14.99174331573666 12.044845410557258 0 0 0
2303 1 15.371394096224485 19.099026265891034 9.970504736493606 0 0 2
2213 1 17.027173897964396 20.002583665341767 11.496905647113733 0 -1 1
2215 1 12.551770515696075 21.180962290597044 11.854315567275442 1 0 -1
784 1 16.93615420637679 16.662879720790265 7.343436774483683 1 1 0
200 1 20.627644295141323 16.185486349560477 10.507928853709394 -1 0 0
238 1 17.34208506623326 18.550541864877815 8.736343980990174 0 0 0
812 1 20.341920660571184 18.275109616904338 9.234355896783859 0 0 0
957 1 18.804918563608837 17.85071139078883 10.875263687083617 -1 1 0
946 1 24.826037954251227 17.97927808020882 8.779380048109159 -1 0 0
987 1 24.598229508916106 20.427299863930898 9.007672841181297 0 0 0
1449 1 22.1066204854328 17.631091050587003 11.438335243837345 1 0 -1
1884 1 22.482317059356006 19.609483683951794 10.083999737896649 -3 -1 0
169 1 20.646765566309973 19.33855195684535 11.629635634399923 -1 0 0
1306 1 24.43566129604642 18.74186190041742 11.111176989678018 0 0 0
995 1 1.0462034405547442 21.1878825333946 6.891619818917009 0 0 0
594 1 2.629032047068033 22.141180967390127 11.719724371176216 0 -1 0
2558 1 2.012383891125324 24.337827453483968 10.827683057297655 1 -1 0
343 1 3.554592163265562 24.059504814316263 12.623101531510112 1 -1 0
932 1 1.5916227146832307 21.080142782963037 9.441864091373311 0 0 0
1929 1 0.048292643367404076 22.545871043385517 10.6824790010531 0 -1 1
972 1 4.283740229500565 0.06538427402763919 10.010171030567363 0 1 0
626 1 6.760753373877943 20.81575184442808 10.337369928611025 0 0 0
247 1 6.546184971236605 23.19269559511575 9.145670491696329 0 -1 0
765 1 3.369493302393367 22.50359054525012 9.709217572840835 0 0 0
307 1 5.370105844816333 23.438007011884395 11.04265209365196 0 -1 0
1154 1 6.895840234469162 0.022570295399845786 9.794235730565577 0 1 0
1103 1 8.371730593680425 -0.2849789752356031 7.961595831358883 0 1 0
877 1 10.742536619982003 23.375844672286718 9.213330048926053 0 0 0