LAMMPS data file via write_data, version 29 Oct 2020, timestep = 150000

2016 atoms
1 atom types

0.21137712178912693 21.052622878212162 xlo xhi
0.21137712178912693 21.052622878212162 ylo yhi
0.4932132841763206 49.12278671582206 zlo zhi

Masses

1 58.933

Atoms # atomic

226 1 3.1692961976637597 1.9473257741800265 2.643212451588635 0 0 0
145 1 1.2574643466404474 2.3693522167334535 4.007603382960112 0 0 0
24 1 2.7807879439867307 0.3356001716674939 4.224862612391774 1 0 0
1350 1 1.4156292558755592 0.4154275885946713 2.263417564509372 1 3 1
237 1 0.9641855882205327 3.9939680588545046 2.513042415298701 1 0 0
22 1 2.826512012489591 3.850477052692826 4.004423193035359 1 0 0
2001 1 18.585708243088373 16.128642475053134 0.8583359621550499 0 0 1
2007 1 4.8495396003941424 1.8908686684184928 0.8289378687616982 1 2 1
1914 1 5.020557641113356 1.9265076799818102 4.122484281620459 3 3 1
169 1 6.586044847965595 2.0763343496635818 2.3835865413037673 0 0 0
174 1 6.438545885411053 20.908262229162723 4.009043972868124 0 -1 0
11 1 4.877278607980072 0.31925419283273015 2.51643456881901 0 0 0
9 1 8.364231017433228 0.5091835348670045 2.5217292129838826 0 0 0
83 1 4.764617664832396 3.7039550352165937 2.3408601691067727 0 0 0
2015 1 6.368503600106247 0.34449092956511973 0.7004958652548195 0 -2 1
1117 1 15.573601785580486 9.268219200339974 0.7131809939196951 -2 3 1
177 1 6.878246154402434 3.7115532957608144 4.048738457768586 0 0 0
1679 1 20.359191077319366 17.7891301515887 1.0668775922083036 -3 0 1
182 1 8.13051405600135 1.8892886023768851 3.996119492120607 0 0 0
5 1 10.056628033958871 2.2953293388423996 2.2223502555884416 0 0 0
1200 1 11.94641849283432 0.6983736600086872 2.3901303753194703 1 3 1
325 1 11.584508505486767 2.205406110614074 4.207754340263168 0 0 0
153 1 10.158479534828142 0.5283620748870115 4.2561701853717 0 0 0
201 1 10.106596337151274 3.73768114530425 4.06530896256119 0 0 0
37 1 11.880673316538427 3.8447600582371906 2.6780523160360827 0 0 0
205 1 13.470328717330837 3.802142005963507 4.375629602752687 0 0 0
1452 1 13.442952825907165 2.325352264494442 2.1301357375014867 -1 2 1
1437 1 15.232562394645079 2.2423811179728843 4.186083566344555 -1 -1 1
1133 1 14.836732621517875 3.9938711758879446 2.6661653912148875 2 4 1
1763 1 14.947617897301809 0.5000059968540083 2.2299172515055288 2 1 1
186 1 16.724234014214222 0.452515015749318 3.862259945986321 0 0 0
15 1 16.58207422189326 2.3885338862301735 2.3407909120377557 0 0 0
44 1 16.79528277467685 4.13411227784769 4.0258407385396895 0 0 0
140 1 20.522046820851294 0.6008727704768348 0.79916070850582 0 1 0
432 1 16.643485447020133 17.760365262162235 10.947049247576363 0 0 0
1836 1 16.477043791618264 4.1022149432578825 0.8256072678674213 1 1 1
307 1 16.864993858537947 19.448615539114666 9.045948060363553 0 -1 0
1880 1 20.2302142187649 2.235639207805792 2.4033210790455843 0 4 1
21 1 19.896937999692433 3.906251544073213 4.047857224775324 0 0 0
143 1 18.5254188572421 4.106186046646725 2.4350430417773623 0 1 0
189 1 18.551631659041924 2.279201493087781 4.09142537268464 0 0 0
191 1 20.435818440037956 0.6597129069944909 4.052172851539127 0 0 0
1129 1 18.488777875568942 0.3653747631002354 2.4415742393090905 0 -3 1
311 1 20.427326237198436 19.356217460857163 9.398100347799273 0 -1 0
245 1 1.4666606747823228 9.257408775707244 0.9248967525902141 0 0 0
443 1 18.72735611599006 19.702886174867064 10.938800735235972 0 -1 0
216 1 3.0227339810405653 5.544592250361867 2.2940432084860527 1 0 0
102 1 1.1159137915758128 7.582864341848635 2.6424133048061273 0 0 0
1219 1 1.1293211398244747 5.642290439011028 4.129525417654211 2 -2 1
1908 1 3.324351847542313 7.486724769377131 4.026561313219794 -4 2 1
170 1 4.694683502649587 5.66830111538444 3.8010807859148854 0 0 0
1793 1 2.969042753185143 7.425893993325341 0.5403602705000241 0 1 1
35 1 8.390462492323598 3.9445604311541387 2.324816065428772 0 0 0
173 1 4.757681346236174 7.195049137025442 1.9671745024185774 0 0 0
1702 1 6.455016659035517 5.484434931672196 2.3664024110629387 1 3 1
221 1 6.656294040607458 7.89563734719757 3.9300194678153746 0 0 0
1792 1 8.36599006790088 7.2953338371397205 2.0465884474569416 -1 -1 1
158 1 8.347981754888277 5.6574183425135205 3.861385049122558 0 0 0
1910 1 10.08937490163564 0.38243615479858584 0.5715160633786929 -1 -1 1
1157 1 15.35985617098026 5.887601989895308 0.7241263378157201 3 0 1
30 1 3.0821504459418048 3.814241411250377 0.8608521219107295 0 0 0
1074 1 11.755315615591545 7.356341643056621 1.9832219771090336 0 -2 1
1730 1 10.005408821231867 5.6496677575444645 2.119394245704293 -1 2 1
184 1 11.704593456864101 5.204818041969093 4.38738930414265 0 0 0
1037 1 6.286092066913318 7.0783383876020665 0.5486356222348961 -1 -2 1
504 1 20.50330155641533 17.644677317772807 11.207373142309233 0 0 0
54 1 9.696694639492542 7.491167812975139 3.632284846957532 0 0 0
1664 1 16.693995369193253 17.823747834888632 0.5797739653229763 3 0 1
1047 1 13.517021578440088 5.77886536450358 2.007606610913765 5 -1 1
1831 1 14.864874188955827 7.312098966999596 2.6725013518238825 -2 1 1
64 1 12.895114668945753 7.096228343029297 4.212994457275183 0 0 0
209 1 14.83903995735998 5.831933458809083 4.453403012299914 0 0 0
68 1 16.479815247465687 7.571286809714199 4.176392387814428 0 0 0
6 1 16.532136468190203 6.000068408267231 2.632722793030327 0 0 0
10 1 18.4771035224291 2.417664128658485 1.070297636608803 0 0 0
2013 1 14.993337715242687 16.157220658389896 0.5953078290396536 -3 -1 1
84 1 13.626550239302455 10.853047614370725 0.8123798287191146 0 0 0
26 1 20.47476152551441 6.084488601930854 2.337187025774772 -1 0 0
1273 1 18.914064744686694 7.57419624454693 1.9811578788268582 1 4 1
214 1 20.358071436294434 7.282209478151706 4.466433154042215 0 0 0
1920 1 18.752042473019355 5.945587711171914 3.836533788155517 0 1 1
234 1 18.41215077178086 5.6074434541629525 0.5938666821504415 0 0 0
1388 1 1.3145546296352217 2.501346371466983 0.8673888798591003 2 2 1
194 1 3.1979302419416364 9.16812225285068 2.627367590188774 0 0 0
52 1 1.3940779049905059 10.738066275393892 2.75793610223121 0 0 0
239 1 1.0572778622508798 8.854122718076766 4.2830779699014325 1 0 0
222 1 2.985173206945379 10.923606855491176 4.312805811788908 0 0 0
67 1 2.9286090494459316 12.501949349238053 2.481061399200857 1 0 0
244 1 1.043310517162349 12.62978248812177 4.2661991231845215 0 0 0
98 1 4.940082470318237 10.664970283785651 2.122370631378785 0 0 0
1621 1 3.0484769809121346 0.6405145603596503 0.5131912634581726 0 -2 1
129 1 4.670150396951204 5.5120091084430625 0.5086464857468277 0 1 0
195 1 4.865079359266461 9.146246113392314 4.065827879910943 0 0 0
193 1 6.638251905317091 9.037475673975992 1.808494692722083 0 0 0
224 1 6.344657977293285 11.08479171928558 3.785151113837986 0 0 0
253 1 8.349074799050321 9.409789531029237 3.9509565558859103 0 0 0
1223 1 8.128946318762221 10.767365991896531 2.2078832930560393 2 -1 1
77 1 20.054077965920673 4.180614715656252 0.8226708151414521 -1 0 0
1805 1 16.86838641484083 0.5295840725206167 0.6465364167962664 -1 3 1
249 1 6.185841041934187 12.708377731164262 2.254319323827551 0 0 0
430 1 18.596369640883925 17.761724244710603 9.47977970826813 0 0 0
13 1 10.402206765441232 9.377292559974176 2.2015556524041364 0 -1 0
277 1 11.607103506036784 11.147861977353799 2.0053795563875267 0 0 0
227 1 9.567920995930175 11.4212343087927 3.9069839297872266 0 0 0
107 1 11.524086705784791 12.288270463250532 4.036990319550795 0 0 0
74 1 2.503555582382178 17.470399981169997 0.8042951001017125 0 0 0
34 1 11.165517572222813 9.523283226865049 4.26958649641268 0 0 0
258 1 1.224767287895175 19.6225903548738 0.7757071497051315 1 0 0
1727 1 18.553259618832623 19.77054758476302 0.9239646674635227 0 3 1
261 1 13.17676220785648 8.985403544548209 2.407748571645528 0 0 0
1839 1 15.178661265280686 10.87356395971163 2.739508384300237 2 1 1
1066 1 13.288143219637506 10.900114381432916 3.965945498877544 -1 2 1
1512 1 17.059980866004626 9.00468357593529 2.3479760173952107 -1 -2 1
88 1 2.913249956630265 14.00395235976068 0.5015225412657284 0 0 0
181 1 8.527889736440681 9.319482297025516 0.7155180921049352 0 0 0
1282 1 11.697688640800108 19.531137130911667 0.7606208270170622 -1 4 1
240 1 20.21230124076487 9.486686884262571 2.3677882793447345 0 0 0
281 1 18.102282260642536 10.921465272065364 2.3418925154333055 0 0 0
95 1 19.979133394525352 10.993625150514967 3.9436000881893847 0 0 0
141 1 18.6457424049166 8.936422704873573 4.349563874876488 0 0 0
126 1 20.660299471725843 12.090894798556066 1.9578602678543136 -1 0 0
1671 1 4.494741439144125 19.65619541265983 0.9395254873220159 1 -3 1
225 1 1.5629442104816331 5.652850857552485 0.6201745309874124 0 0 0
496 1 6.124479103977205 17.89837485369775 11.119815135725798 0 0 0
1750 1 1.4014512741056593 14.121990062199291 2.661407540832397 2 5 1
1473 1 2.7801001032565917 15.857743145477441 2.7353714378281517 1 0 1
266 1 1.24012951619236 15.911321376913694 4.230744129455223 0 0 0
269 1 3.082612169295613 14.31215624363799 4.238552892764207 0 0 0
250 1 7.751868756837854 12.855252506480557 3.9088632688083864 0 0 0
428 1 14.92158567241137 17.784185925471238 9.402009760331296 0 0 0
491 1 18.79488771827054 12.258702840524405 11.248309810421775 0 0 0
1626 1 4.723089151190825 16.175418765545118 3.9937921602186477 1 -1 1
242 1 5.12162505118264 13.037792858082117 4.095115437294734 0 0 0
270 1 4.93700950869688 14.299594217973821 2.1802331016202596 0 0 0
108 1 6.333604367051872 16.312327143812464 2.681412467238074 0 0 0
103 1 6.519409803806028 14.734030189358194 4.341613356194509 0 0 0
273 1 8.158490611746736 16.403638839603317 4.131905183375412 0 0 0
412 1 1.355066892142793 17.918648975534232 9.164947975785383 0 0 0
229 1 14.91337849766633 12.717808265284733 0.8357640789395827 0 0 0
131 1 7.91940131966557 14.836957182303662 2.3671424997772696 0 0 0
1161 1 18.46493359658501 9.325606567259664 0.7429079779614174 2 0 1
1706 1 9.56394440957749 13.211665044914783 2.340924028747594 4 1 1
247 1 11.24202558428078 14.643888260317542 2.1277561279816597 0 0 0
132 1 9.866996194877697 16.36050189433935 2.3571264766078386 0 0 0
130 1 9.734574246228973 14.575947298762246 4.1188872321017485 0 0 0
163 1 11.638220299025338 16.105809493607573 3.752998590279531 0 -1 0
1911 1 9.766944789084022 11.270685292842042 0.6455035629935703 0 2 1
500 1 13.155039581591247 17.646120526787474 10.991480727384982 0 0 0
66 1 15.23831410577391 12.992536211778976 4.093151865969067 0 0 0
17 1 13.291637019920309 12.80761767553256 2.3826648145665184 0 -1 0
165 1 15.2038100797531 14.52652866238719 2.352005821504296 0 -1 0
138 1 13.35118128326252 16.18395642522964 2.2248517979821276 0 0 0
260 1 13.329280249213458 14.545389923034238 3.8402974750764 0 0 0
284 1 15.177341121866084 16.2033226356479 4.357545667236982 0 0 0
48 1 16.962743017429982 15.779379128014 2.441391783474157 0 -1 0
230 1 16.85692205222606 14.314781213424919 4.3030142732057755 0 0 0
19 1 7.995917057205029 2.153269679878139 0.4951745858420224 0 0 0
291 1 2.975316604840816 19.659652920424122 9.111046185238951 0 -1 0
113 1 16.469876485580983 12.739350232462652 2.28127322699745 0 0 0
119 1 18.14716128460039 12.581653240351695 4.1232688075829635 0 0 0
1759 1 13.495290545801167 17.881359771733578 0.6274846796977681 -3 1 1
89 1 18.484662769598742 14.087531175509273 2.4657747199814968 0 0 0
265 1 20.080773000875553 15.990743944817497 2.570192049801392 -1 0 0
1734 1 20.091004656149245 14.171850220618571 4.212815642376707 -2 3 1
14 1 18.550092825781142 15.979971913033152 4.380947963108792 0 -1 0
139 1 1.1094798109833226 15.81433551559528 0.6432578375607128 1 0 0
433 1 1.0955676936321634 19.740363920091465 10.844185509219106 0 -1 0
1934 1 10.097122254267356 3.843742370962279 0.6609021961098198 0 2 1
28 1 2.9365481950408108 19.766008142003518 2.3936962317625383 0 -1 0
23 1 1.3343522077808687 17.723544956143378 2.6164205552275326 1 -1 0
127 1 2.6788187384377844 17.59753038853527 4.424459250587025 0 0 0
1 1 1.3205673841302408 19.402016470246824 4.373712220548638 0 -1 0
3 1 4.120430615892861 17.68665321512481 2.1439882250411477 0 -1 0
150 1 4.630882101213317 19.416912442009956 4.328729721970207 0 -1 0
4 1 6.379096588063048 19.155060247805963 2.4998350551447452 0 -1 0
12 1 8.181562574664522 17.721606291794547 2.4450312218250807 0 -1 0
274 1 8.146686623711265 19.391899107614655 3.9403979644164773 0 0 0
149 1 6.3995148160041015 17.747030768869468 4.446526662789417 0 -1 0
91 1 15.08567948833655 19.623124494099294 0.6378169460359191 0 0 0
278 1 11.62936732552123 16.366377641029437 0.754515916686139 0 0 0
257 1 16.642420556749215 10.862976941578895 0.5528744011352176 0 0 0
183 1 9.9403407619039 19.84776992321868 2.4289402226241057 0 -1 0
39 1 11.625157249208169 18.070571549569014 2.582550077833018 0 -1 0
110 1 9.97047278316948 17.884486504729203 3.946830972619858 0 0 0
157 1 11.971640782224531 19.949057798610436 4.204307478640952 0 -1 0
57 1 2.893862007259452 10.855082782542144 0.7484425444453389 0 0 0
206 1 13.528675950331245 0.9992361807995139 3.898192515740407 0 0 0
1082 1 13.582315157020236 19.433237778431586 2.224168505443787 -2 -1 1
123 1 15.17776125484268 17.613180578542373 2.305376961046867 -1 0 0
135 1 13.329796306905703 17.91460929240809 3.9897782901896517 0 0 0
159 1 15.218376729223365 19.300442597961037 3.880983302656651 0 -1 0
1780 1 16.872022760338403 19.546201645094243 2.2894680229883515 -1 2 1
142 1 17.16134206285686 18.060448364483467 4.014546298269787 0 0 0
407 1 20.554322843629983 12.486184531124044 9.27933368536247 0 0 0
494 1 3.1982778384589294 17.858719044562413 10.911354491857425 0 0 0
62 1 20.464981074857892 19.70298104027665 2.448659940111576 0 -1 0
1628 1 18.617063583211575 17.696784783352253 2.3579534391234835 -3 -1 1
238 1 20.268070483176572 18.289899016472248 4.110792834421158 0 0 0
120 1 18.6584086437882 19.605570546755494 3.9925091238008394 0 0 0
171 1 2.8874962392160355 2.07555070957077 5.478371151524264 0 0 0
313 1 1.3363813990167133 2.3695989307754393 7.418696808965239 0 0 0
71 1 1.0799641664083404 3.9828166903693005 5.687802269367931 1 0 0
314 1 3.0570097452638434 3.9455530027067693 7.223831177543176 0 0 0
290 1 3.1947012833039863 0.7439320410561614 7.342107751438505 0 0 0
176 1 4.673896357054618 4.105818259939523 5.518747337671037 0 0 0
317 1 4.888143439803275 2.0969677267185007 7.412165594980125 0 0 0
152 1 4.74360773219855 0.3968423925966914 5.682060283734638 0 0 0
175 1 6.675637436706499 1.7571777673671758 5.791318531028254 0 0 0
318 1 6.208272726748474 3.952016235580836 7.670263010014521 0 0 0
180 1 8.023083434455605 3.6759726990753987 5.805336138515073 0 0 0
321 1 8.104295686008072 2.214043655690511 7.716657372760982 0 0 0
294 1 6.444561870915386 0.3015912419060587 7.334616429765945 0 0 0
282 1 9.735131010819732 2.314539686739027 5.728354330820529 0 1 0
179 1 11.537300594969953 2.058206024374845 7.756995405292663 0 0 0
161 1 11.728296273714152 0.5331995693015984 5.889297780798137 0 0 0
322 1 9.468136733501023 4.059710414929137 7.779129925925842 0 0 0
203 1 11.481092766642254 3.9832959530701446 6.1704985056462816 0 0 0
298 1 9.74945355271749 0.5882021932175654 7.213021086177882 0 0 0
164 1 13.497457208333769 2.3826508473144754 5.851844831014964 0 0 0
329 1 15.094765110505605 2.160159652877521 7.826136518038262 0 0 0
326 1 13.428297759809546 3.9249625433013557 7.714833474329904 0 0 0
188 1 15.196983939823106 3.7653900368938813 5.813538686244679 0 0 0
304 1 13.357273873100596 0.455234440693045 7.879558054009826 0 0 0
162 1 15.283926898286895 0.5581047142193416 5.749775162029414 0 0 0
330 1 16.975124304117564 3.668946098903253 7.825600374796227 0 0 0
187 1 17.031855192363125 2.2345757737245333 6.020179850254929 0 0 0
306 1 17.066044786903692 0.5330208148000306 7.6896390546707964 0 0 0
172 1 20.298576204632667 2.1858022793223757 5.961365662774588 -1 0 0
333 1 18.76556099137918 2.0918579843286222 7.743461032678823 0 0 0
357 1 18.489875821933264 3.9798659558721052 5.781304030818238 0 0 0
168 1 18.374205047065388 0.3630015835866304 5.470967772498077 0 0 0
334 1 20.36875851423096 3.6974535484153637 7.841003221743562 0 0 0
310 1 20.408581549479013 0.33054056383268265 7.722047442110639 0 0 0
166 1 1.4289285431807193 7.376551987813274 6.228224238992938 1 0 0
338 1 3.2698520681700978 7.642182197903218 7.254921128648565 0 0 0
196 1 3.0230015897271167 5.8210718837465025 5.692741461047153 0 0 0
337 1 1.579070202291164 5.4800722449343615 7.587622736159458 0 0 0
200 1 5.149963681329741 7.362346972553504 5.857458784278651 0 0 0
341 1 4.858982668758733 5.5171570087481685 7.31329999569792 0 0 0
199 1 6.571510552946424 6.058253089293326 5.158486717885903 0 0 0
342 1 6.713232284070345 7.472700369108475 7.613238391414268 0 0 0
345 1 7.829497348136647 5.500589985963913 7.205590070383189 0 0 0
204 1 8.361285101899774 7.745342259922622 5.497113403844871 0 0 0
55 1 9.726215640637072 5.544368429149234 5.916964752536705 0 0 0
349 1 11.52692190931663 5.877387184803872 7.481392103861794 0 0 0
346 1 9.68722909443 7.548365445504527 7.504578780700854 0 0 0
208 1 11.336554028556662 7.33073604873774 5.707157200456702 0 0 0
350 1 13.006374366296148 7.45398373656746 7.234508501996935 0 0 0
207 1 13.482845610310028 5.565179590245169 5.949427863918712 0 0 0
353 1 15.029846903852915 5.528090499517257 7.84546078776082 0 0 0
212 1 15.202955475290699 7.247104938490477 6.368350018941795 0 0 0
72 1 17.232392422086274 5.676055453417408 5.5743628366944 0 0 0
235 1 17.07842802299618 7.157659485088381 7.607484542586925 0 0 0
354 1 18.628269726901266 5.465737938583403 7.711733595240192 0 0 0
210 1 18.827082801664684 7.29653514535968 6.362721211827977 0 0 0
215 1 20.499445983117674 5.588479876967405 6.218509253776266 0 0 0
358 1 20.663137952963663 7.4873319566214676 7.7797423742733125 0 0 0
219 1 2.849381549749076 9.353888864357588 5.772122249127147 0 0 0
361 1 1.264135138520299 9.32530793841751 7.289711373175968 0 0 0
385 1 2.750512785640406 11.196254231938028 7.3621375278696535 0 0 0
220 1 0.7086425542503461 10.900127729466618 5.849917563529191 0 0 0
80 1 2.892070416833012 12.812312927408195 5.794144827476671 0 0 0
362 1 4.684280377898312 11.450168626500233 5.804073411904524 0 0 0
365 1 4.7051834115076465 9.63944516320072 7.285586377400848 0 0 0
223 1 6.535682899334627 9.629053572154783 5.751223256427089 0 0 0
366 1 6.475391127843311 11.183168783747783 7.724245141881101 0 0 0
228 1 8.13664762682248 11.019153023529153 5.981209995030866 0 0 0
369 1 8.064410894178918 9.140982735150377 7.6266233894864905 0 0 0
389 1 4.263339181242045 12.872855742114245 7.9528948009027465 0 0 0
99 1 6.782708646616523 12.920508680102065 5.940975217379098 0 0 0
393 1 8.348603911857802 12.708252244450218 7.837440522587545 0 0 0
202 1 9.940728285334256 9.211888968526031 5.975266125102243 0 0 0
370 1 9.718905144208444 10.778307615413867 7.974452130933168 0 0 0
373 1 11.662290097351717 9.18833997157047 7.554802330439481 0 0 0
232 1 11.032185718097853 11.001007121985259 6.131635086616715 0 0 0
251 1 9.903646726033124 12.766469019563774 5.840973569269606 0 0 0
198 1 14.757414401001627 9.02913837645954 4.246074821880017 0 0 0
117 1 16.827529713637347 10.666076312838463 4.14888376693094 0 0 0
374 1 13.307202826300918 11.086756870134861 7.366252742251998 0 0 0
231 1 12.981415525292089 9.43946074021325 5.466834525946475 0 0 0
236 1 15.3983809622058 10.840821869596187 5.734321958267865 0 0 0
377 1 15.205483024891103 9.191111923074159 7.447680500796378 0 0 0
255 1 13.335062950503067 12.618113499132303 5.937029822061862 0 0 0
401 1 15.11607062863003 12.174124183043082 7.707867979480648 0 0 0
1692 1 17.105606995313305 9.037186044582008 5.908132209206849 2 -1 1
378 1 16.68401743605408 10.697862795043683 7.465483598325949 0 0 0
1377 1 20.154451265849897 9.145343462775879 5.916005922768956 -1 2 1
381 1 18.723961352064343 9.242479208835253 7.610537790149132 0 0 0
382 1 20.33296227472227 10.830992194389376 7.761863054085029 0 0 0
263 1 18.62781675573585 11.024861745865323 5.998571801253313 0 0 0
241 1 20.591944268690796 12.843722145529679 6.420287228283195 -1 0 0
405 1 18.51141951697706 12.514880223212593 7.5425227732784155 0 0 0
406 1 1.4561463290490193 12.775277649472145 7.902943084482782 1 0 0
268 1 0.8515844900684766 14.442584833460792 5.966993393831206 0 0 0
243 1 2.6065610230270724 14.375304085822386 7.459942356957681 0 0 0
386 1 1.1630539082697238 16.36512095615805 7.486200180109023 0 0 0
267 1 2.7803014602062577 15.884476831079407 5.865083845477322 0 0 0
413 1 4.553170176392884 16.09492797207079 7.559089709356621 0 0 0
248 1 4.781411235572221 14.29099657956321 6.213700313550724 0 0 0
390 1 6.30021126309178 14.503787999093953 7.693255814068172 0 0 0
271 1 6.643715127531705 16.17654649094242 6.031456202314073 0 0 0
252 1 8.399241621770928 14.408025615316099 5.954459680534948 0 0 0
417 1 8.064973577134317 16.316493679237325 7.61465820215831 0 0 0
397 1 11.583607275344129 12.681151016701184 7.619738785170093 0 0 0
394 1 10.142531700047542 14.392827430392622 7.402523595317562 0 0 0
256 1 11.600878192874124 14.47858507997695 5.764937995114544 0 0 0
421 1 11.69140023523021 16.243540772128696 7.671749663615968 0 0 0
275 1 9.816708874132761 16.342295884208223 5.915378384965471 0 0 0
398 1 13.297350349741643 14.526899583544173 7.523007241273881 0 0 0
283 1 15.32822361940019 14.294003326112593 5.892405502952395 0 0 0
425 1 15.112494691427688 15.985568412189549 7.557979117514521 0 0 0
1103 1 13.421291386754024 16.147783540022047 5.558152695788641 1 1 1
402 1 16.785154323902805 14.313382570338637 7.889487160264503 0 0 0
259 1 16.689629823747502 12.634168129643317 5.910352760637752 0 0 0
285 1 17.01517294414214 16.092661573716406 6.148563701655753 0 0 0
287 1 20.093989429527905 16.20665937057774 5.862130015776918 0 0 0
115 1 18.493367184573884 14.194074323683214 6.168137329459426 0 0 0
264 1 20.3624938524776 14.363025971387497 8.045912903666949 0 0 0
429 1 18.271392914481613 16.09758482245533 7.909825126802326 0 0 0
190 1 1.4748550613417533 0.40880462111261345 5.957792945169332 1 0 0
409 1 0.7837382996685796 17.925460821129047 5.9398078588413705 0 0 0
410 1 2.946221831055784 17.827430476115353 7.4941237256097875 0 0 0
146 1 3.078659742807559 19.582684048736567 5.844205126452695 0 -1 0
148 1 1.4564712114715173 19.688647454918865 7.502909961013955 0 -1 0
272 1 4.60578348036707 17.830694828059084 5.931440953520138 0 0 0
293 1 4.578411069529606 19.643486924757074 7.6220232384232505 0 -1 0
156 1 8.33929923635936 0.28320218635620265 5.721364193775276 0 0 0
151 1 6.461427484833661 19.40142660556163 6.070282535217497 0 -1 0
414 1 6.239058237934847 17.89283312101744 7.6875393561578065 0 0 0
297 1 8.148865156881607 19.50671302380392 7.685091767206305 0 -1 0
276 1 8.261244632601699 18.125129846651703 6.007503878235127 0 0 0
279 1 11.51728434220428 17.63805893619651 5.516182306901456 0 0 0
160 1 11.278869102118836 19.645281652156292 7.593843143946836 0 -1 0
155 1 9.917318488564177 19.418258569539358 6.095368874644902 0 -1 0
418 1 9.860803279950161 17.708713194192992 7.719657912449435 0 0 0
422 1 13.238137000755755 18.10694034010745 6.963784084048626 0 0 0
280 1 13.637641150228209 20.27448791524203 5.635800193990213 0 0 0
302 1 15.204025849485294 19.59730223776413 7.650824168024328 0 -1 0
305 1 15.139097945436898 17.966839156410547 5.756087854488521 0 -1 0
309 1 16.953184849328768 19.847140141914615 6.002197059632781 0 -1 0
426 1 16.44670053273552 17.759839410003966 7.477605701634704 0 0 0
147 1 20.34184210304094 19.71557893055292 5.710368362141365 -1 -1 0
289 1 19.88330234499474 17.657320266659912 7.553534084008524 -1 -1 0
167 1 18.893070440019233 19.580499032116187 7.693879170989267 0 -1 0
288 1 18.439321373586996 17.783686934321402 5.672756717140839 0 0 0
292 1 1.3255517582708929 0.49638560564828954 9.135675400261187 0 0 0
315 1 3.0029891749332895 2.1217448914028383 9.252652328822487 0 0 0
445 1 1.1185510395915639 1.9968958183771037 11.158338508558355 0 0 0
316 1 1.2876532020677895 4.109294815252907 9.31473601208918 0 0 0
446 1 2.8501556774758603 3.861210351829781 10.964430435734656 0 0 0
434 1 2.9524003810905257 0.6569275920665008 11.202669290923197 0 0 0
441 1 15.008784096961607 19.845162695174793 11.009226400615756 0 -1 0
320 1 4.569822924998349 3.7145865742168707 9.438001319828494 0 0 0
447 1 4.552283130521035 2.3128782189590087 11.076361213906061 0 0 0
296 1 4.663126810642959 0.5691343785822495 9.11874510804833 0 0 0
319 1 6.369787414059486 2.161627088096488 9.601643215965632 0 0 0
449 1 8.181706848318889 2.180703992758505 11.195819427276184 0 0 0
448 1 6.252789764397755 3.722033558261595 11.167043564934234 0 0 0
324 1 7.843377088273939 3.9758457646991405 9.480441253368499 0 0 0
300 1 8.130319238711719 0.291407839423599 9.411392815849977 0 0 0
301 1 11.450523753592748 0.62030595317548 9.390221120894656 0 0 0
323 1 9.65372003763566 2.3386947375107097 9.18575677267122 0 0 0
451 1 11.11969845785752 2.6018042862954673 10.625260465518632 0 0 0
450 1 9.736992769970191 4.486720679348741 10.795549906967715 0 0 0
438 1 9.658225646500648 0.48901519853119113 11.099751976611726 0 0 0
328 1 11.326835255702743 4.050811830267428 9.01836949151719 0 0 0
440 1 13.278105230318832 0.7420624590127097 10.97794597410171 0 0 0
308 1 15.186799079782613 0.5599879701205484 9.220942215834656 0 0 0
327 1 13.280423865941929 2.3033045511866184 9.432412675764574 0 0 0
453 1 14.960855840010515 2.1437160042928443 11.091217432436109 0 0 0
332 1 14.998043205254803 3.910093796013947 9.313294507823208 0 0 0
452 1 13.294235917416778 4.279879642393198 10.835054156642268 0 0 0
331 1 17.066446785262087 2.280039376244187 9.166424893822967 0 0 0
442 1 16.899725580018455 0.2765377257543089 10.81036629459672 0 0 0
49 1 11.496018617302841 13.028192144964098 0.8997574790047771 0 0 0
454 1 16.51976528521583 4.17399562771362 10.838571428636596 0 0 0
444 1 20.236765418555084 0.4033764524608223 11.250247055976214 0 0 0
312 1 18.776585211410243 0.5273336903633339 9.275670137157864 0 0 0
455 1 18.719561024477002 2.0487796056659655 10.825373829986631 0 0 0
335 1 20.271775939721564 2.0761198271936445 9.420122782851182 0 0 0
456 1 20.78450401826215 4.073003116688945 10.912523134800535 0 0 0
336 1 18.865364961712682 4.150606635113856 9.45970249640525 0 0 0
339 1 3.4094731506389553 5.703089189013195 9.07557602235743 0 0 0
458 1 3.372526464052882 7.384354218174368 10.812745860239756 0 0 0
457 1 1.52376834961544 5.9165613687574705 10.88667556606831 0 0 0
340 1 1.7359328069825344 7.367740872353394 8.89070328441219 0 0 0
344 1 4.59127690409621 7.923353631313654 8.978861016877183 0 0 0
459 1 4.954887253087675 5.594144213282679 11.091301897476978 0 0 0
343 1 6.196544927587912 5.760959441656936 9.179475998898356 0 0 0
460 1 6.170239190102141 7.854714345575098 10.899436250950862 0 0 0
348 1 7.8703304886393015 7.482422498597846 9.591568994037464 0 0 0
461 1 7.515600199862956 5.675071630481008 11.124333205159413 0 0 0
439 1 11.552940667712425 19.59228390292776 10.90292685782106 0 -1 0
462 1 9.921601328959934 7.473183187198276 11.244950464781356 0 0 0
347 1 9.348251703270773 5.843049177983572 8.963860247281511 0 0 0
463 1 11.503582928582047 5.769634200024354 11.045597779663415 0 0 0
352 1 11.465838544330358 7.7921492955879215 9.413188035636992 0 0 0
351 1 13.347670504144052 6.022145388204678 9.408443368912469 0 0 0
464 1 13.322688532808309 7.511185861640011 11.294843028118747 0 0 0
465 1 15.215860036213597 5.943224578767699 10.9130702287656 0 0 0
356 1 15.330000801275064 7.651311831337608 9.1134978785573 0 0 0
466 1 16.87229454805414 8.031506056613766 11.042649283811068 0 0 0
355 1 16.8167881950148 5.853671371460591 9.275533384902078 0 0 0
468 1 20.376665136374175 7.730979529012273 11.219371111916196 0 0 0
467 1 18.4973738698969 6.209151169199802 10.666058949595937 0 0 0
359 1 20.38208293193323 5.9207075415307315 9.506126519271216 0 0 0
360 1 18.474960727343294 7.752634507966918 9.251340360611614 0 0 0
363 1 3.0373168334405607 9.262188258610271 9.334403287425255 0 0 0
470 1 2.884554295826474 10.844462141916937 11.4178970599526 0 0 0
469 1 1.4519092875187358 9.050151175427585 11.112873367188602 0 0 0
364 1 1.4171466859321187 10.717378522195746 9.228637285602929 0 0 0
481 1 1.0106095438486147 12.684785970150823 11.214511566055533 0 0 0
299 1 9.89179793638861 19.76690142701223 9.200783197098483 0 -1 0
303 1 13.238386291417566 19.220702015079233 9.016731777178938 0 -1 0
368 1 4.753106179846401 11.026110964471806 9.46315293443739 0 0 0
471 1 4.675040145206855 9.371014283557084 11.096091586443793 0 0 0
367 1 6.301491999036864 9.37736003217576 9.287579762379584 0 0 0
472 1 6.4679288030419695 11.288895964076078 11.18998563337742 0 0 0
372 1 7.989942838096826 11.066041931998658 9.576296195248291 0 0 0
473 1 7.994372225490417 9.369619791498602 11.392495534322926 0 0 0
391 1 6.308105639432021 12.896237115583165 9.395602138919754 0 0 0
485 1 8.05374013828342 12.823349116826437 10.91054933823804 0 0 0
474 1 9.892386514437634 10.984067998864411 10.857598282830054 0 0 0
371 1 9.63468515836834 9.08431142185601 9.5991424707718 0 0 0
475 1 11.700071901975843 9.00078599802756 11.466966331804823 0 0 0
376 1 11.624326525209081 10.570207261053705 9.277389995435534 0 0 0
487 1 11.487625912201416 12.574422036286435 11.288528951315348 0 0 0
395 1 10.144815269633721 12.466468876133765 9.417994924533962 0 0 0
420 1 7.898977891679701 17.862165231206603 9.412541425244603 0 0 0
375 1 13.353403040597053 8.860872684956725 9.402706211498602 0 0 0
476 1 13.218936614589492 10.959880117780328 11.019737243048644 0 0 0
380 1 14.72141178891894 10.768271295623569 9.378453696939266 0 0 0
477 1 14.883421975511562 9.103125375225153 10.807085414737873 0 0 0
478 1 16.441900782225673 10.906798674850794 10.907293424584928 0 0 0
379 1 16.833932626742122 9.498393099324868 9.354682323138295 0 0 0
399 1 13.019587671679249 12.634060903287766 9.367640071825482 0 0 0
435 1 4.878223176206144 20.045526724686344 11.263175166738005 0 -1 0
480 1 20.47266150933121 10.799293086608161 11.056024787387368 0 0 0
384 1 18.516910014289373 11.027608936707413 9.092802422769928 0 0 0
383 1 20.80857727662801 9.170554337857677 9.397725024554951 0 0 0