LAMMPS data file via write_data, version 29 Oct 2020, timestep = 250000

2744 atoms
1 atom types

-0.022907769297498604 24.83090776929871 xlo xhi
-0.022907769297498604 24.83090776929871 ylo yhi
3.8384191069084785 55.82747784582245 zlo zhi

Masses

1 58.933

Atoms # atomic

5 1 2.8269844957728383 2.596804622856367 6.333260128849141 0 0 0
768 1 1.0895156815601985 0.8498767603605318 6.0136871240053855 0 1 0
2665 1 3.106745543044923 0.698083606970409 7.926811561136316 0 2 2
129 1 1.2196157940817367 2.3498904738953423 8.053798801741362 0 0 0
763 1 1.2408749459514352 2.572235692385337 4.093971305537047 0 1 0
1896 1 2.913134754183344 0.9060665389790744 4.60499139116444 1 -1 1
39 1 4.882016700563776 1.0401307899783296 5.980110531286075 0 0 0
40 1 6.597348870363646 2.815505685484082 6.229527691302179 0 0 0
103 1 4.538816262070152 2.7799298140522253 4.19083354106113 0 0 0
8 1 4.81012142042316 2.525500122368658 8.142069756045268 0 0 0
69 1 6.67438728085496 0.572065419593181 4.362706292742234 0 0 0
108 1 8.430164597298361 2.549333070131369 8.178765136772313 0 0 0
1954 1 7.913051322811551 2.6817664455645684 4.419255591245828 -2 0 1
860 1 8.330476921556409 0.8714338643845797 6.58018827731401 0 1 0
10 1 10.544433998041459 2.302676402216129 6.4551068682273804 0 0 0
769 1 11.924655760904994 0.4652778591350763 6.366721748544139 0 1 0
2600 1 9.764656690857981 0.9399998592952491 4.237446915783571 1 2 2
1553 1 12.2694343292482 2.6689418598568926 4.3058995571873515 1 -1 -1
864 1 10.000347568571824 0.5055221532608383 8.337851820174857 0 1 0
111 1 13.783359202444883 2.4503407869611977 6.248763756999561 0 0 0
776 1 15.27365698495519 0.6031210952553134 6.287380218346405 0 1 0
770 1 13.849793031395826 0.671094964846492 4.46418622131155 0 1 0
2128 1 15.571707210443115 2.259491992063149 4.311633254901772 1 1 0
23 1 17.188475731997606 2.323345404795517 6.325369987912024 0 0 0
880 1 19.11876427559031 0.6567633261512391 6.481784475789696 0 1 0
1449 1 18.95432588825458 2.4541708639935536 4.569078117972823 1 1 -1
1810 1 17.357149646067732 0.6158554565010929 4.568945032587203 -2 -2 1
784 1 20.81860993854653 0.7539199063073603 4.408692062274403 0 1 0
120 1 16.90019345833241 0.6092325456890164 8.264497600038421 0 0 0
126 1 20.66010272044997 2.6205120219881 5.878079226963315 0 0 0
782 1 20.67653764645369 0.8379097635840622 8.125846429967659 0 1 0
1629 1 24.53935256797773 2.5884994024946 6.28102974535125 -2 1 0
760 1 22.405287489651364 1.1234351834645773 6.224247167393103 -1 1 0
4 1 22.709969203293667 2.230670444163605 8.184468073465373 -1 0 0
1887 1 24.428984624632932 0.9291894756878283 4.220903785215961 -1 -2 2
3 1 24.459527281077712 0.6791818047769613 8.106446254910216 -1 0 0
152 1 22.37710986620207 2.6344841774977823 4.109071513252744 0 0 0
1666 1 16.84015288546575 7.752133369841338 4.3985471276766175 -1 2 0
31 1 1.247440895496602 4.440438877583277 6.724675370075305 0 0 0
2073 1 2.862061421190752 4.279682006246322 4.716502121349617 -1 -1 0
60 1 2.809697247417513 6.251312304973346 6.230496499415431 0 0 0
183 1 0.8340487241681115 7.744915887411126 6.017372980578184 0 0 0
127 1 0.644189801108033 6.533456048975032 8.217490778726408 0 0 0
44 1 2.8479447864552525 7.74978231564492 4.22867184902577 0 0 0
159 1 4.683003584589949 5.853155958203482 7.903377490791717 0 0 0
68 1 4.778077698963514 7.8252422345751675 6.150005517058376 0 0 0
1421 1 8.575184392895876 4.417229602574914 6.131533139102091 1 -1 -1
151 1 6.489288988192964 4.114029210588757 4.322137199387131 1 0 0
131 1 6.709194356767855 4.168959829968627 8.22095445868323 0 0 0
83 1 4.8003821246064335 4.38991903488916 6.206051207260829 1 0 0
2190 1 6.545025917241456 6.005444505939458 6.184702690201215 0 0 0
67 1 6.692118742651846 8.189715200459599 4.203284474602921 0 0 0
163 1 6.268868730181942 7.769330625891577 7.87206780040766 0 0 0
42 1 4.523512374453014 6.037466556152443 4.443489403140502 0 0 0
132 1 8.316285219324772 8.133021417829543 6.591286108098353 0 0 0
167 1 8.7028345913366 6.2856987330828495 4.72396471169872 0 0 0
135 1 8.273953544118584 5.867704659881603 8.108348908691694 0 0 0
16 1 10.323980578789813 4.211870037169949 4.10523763749167 0 0 0
76 1 9.977098071121816 8.216077805959193 4.388900635323535 0 0 0
43 1 11.868442016563577 4.390924805932702 6.449330964716896 0 0 0
715 1 11.626889176946 6.368542015860629 4.40965868978744 0 0 0
45 1 10.183922643149774 6.365354841088236 6.322027813165063 0 0 0
48 1 11.798898267939398 8.360557049839697 6.105922341231661 0 0 0
139 1 10.289092992351922 4.297701585733765 7.89834031908573 0 0 0
2169 1 15.314426472234489 4.337820159242795 6.256578631469324 1 0 0
1916 1 15.388481392720996 6.042292701665434 4.189352987085059 0 0 1
47 1 13.357190868423537 6.25622754383981 6.195896194187132 0 0 0
1581 1 15.167984394585986 7.734516241897552 6.304516966259088 0 1 0
143 1 13.474968068350206 3.940602766712579 8.48476515796841 0 0 0
2368 1 13.657111536472229 8.028967473437397 4.187872525898226 1 3 0
71 1 13.257612412556421 4.668346954028894 4.413574652558388 0 0 0
171 1 13.41430929466513 7.967489098091534 7.88313207994014 0 0 0
2467 1 17.0651458318044 15.306545244570435 4.684509863244682 -3 0 0
783 1 20.62517664927345 4.345507739467708 3.9261282060942846 0 1 0
2619 1 18.685891377244708 6.056445198346823 4.34803968559927 -3 0 1
1765 1 18.794507959794444 4.463767183435926 6.349560159360679 -2 -2 1
52 1 16.917739543333155 6.071372719340548 6.183179464973433 0 0 0
175 1 18.528695086832045 7.812887025951565 6.142873870690526 0 0 0
28 1 20.593887709834767 6.191325426263387 6.00409667303542 0 0 0
51 1 20.39860915416898 4.106226897575575 7.867024531371861 0 0 0
75 1 16.917195141636967 7.914989987843501 8.12103704942476 0 0 0
2093 1 17.07390359379994 4.124792014229556 4.320577809174874 0 0 -2
61 1 1.0844018920731542 5.859087190851285 4.577795589765204 0 0 0
2222 1 24.283818321107944 3.865814523378901 4.509016059618492 0 -1 1
130 1 22.12993922942954 4.167116247674008 6.369419796440163 -1 0 0
98 1 23.869872039383885 5.9793842601702645 5.974290557896568 0 0 0
2679 1 22.37875646839801 7.8501620674451065 6.11920891445852 -2 0 1
2118 1 22.405159906538152 5.74163799242752 4.310348818977861 -1 -1 -2
1660 1 23.684568734819074 4.297318468737173 8.066948070865841 1 0 2
27 1 22.049621181067835 6.087322807692728 7.850652321253429 0 0 0
55 1 0.8828458141543869 9.35760866088135 4.003723505679715 1 0 0
687 1 2.842274582160575 9.5411410985044 6.026318654895206 0 0 0
797 1 1.3597791230402883 11.208815873522509 6.274859217914932 1 0 0
727 1 2.9256308952767998 11.356005284832664 3.937230326856282 1 0 0
2606 1 4.64077685163847 11.387274306477236 5.778696155157248 1 1 2
88 1 6.397051162223194 9.732675831209853 5.720729283619505 0 0 0
753 1 20.57204602961933 15.23203923533602 4.383682442715156 0 0 0
160 1 4.561300276298655 9.21461474171892 8.22895197716941 0 0 0
90 1 8.248397601170797 11.590764458346658 6.2086029655561425 0 0 0
2648 1 8.22163804193475 10.19504637302665 4.130150572834046 -1 1 -1
63 1 4.555411199404616 9.839107559752517 4.12732158784264 0 0 0
1714 1 9.728853052324991 9.665738672551157 6.368360418458973 0 1 0
72 1 11.716901661509425 11.318671801707431 6.142702786084957 0 0 0
2287 1 10.27141690867384 11.42574038595272 3.886660141737439 1 1 2
2012 1 11.93424996446993 9.919734857877462 4.219316571874034 0 0 1
2113 1 15.272668839161902 11.919661832125955 6.098896363530034 -2 -1 -1
191 1 13.699967852079912 9.618477632179841 6.199983106919805 0 0 0
97 1 16.847357613955253 9.666821365985165 6.341958028111946 0 0 0
80 1 15.469228485386163 9.665043726279912 4.4178773031023555 0 0 0
2635 1 13.814901405342809 11.498326153832013 4.246149077495137 2 1 -1
180 1 20.55443057852505 7.985886044467279 7.794113275988168 0 0 0
2396 1 18.60790813087452 11.637131505315331 6.135822271754417 1 1 0
795 1 20.50425076801143 11.697051770201902 8.1062023045473 0 0 0
193 1 16.919721692928903 11.45151073308141 8.192659792519528 0 0 0
56 1 20.26853332622092 9.603637985112401 6.328891471833161 0 0 0
2307 1 18.660364518741957 9.935487849362689 4.319074800128255 -3 3 0
721 1 16.948299589706394 11.704257269500145 4.535446541338068 0 0 0
176 1 19.00040145441016 9.66717317034235 7.945960540722216 0 0 0
1 1 20.39582999507293 11.650060272894295 4.526628700683022 -1 0 0
57 1 23.59343798685132 7.782761962497091 8.107843646557303 -1 0 0
29 1 23.782439483525735 7.893193489341385 4.140841178693388 -1 0 0
1948 1 22.04726282850499 9.648591101982651 4.31942192832653 1 -1 1
1834 1 24.05470293574716 9.641613307692984 6.50821806517546 0 1 0
723 1 22.29796110574764 11.437543252117083 6.315249524734291 0 0 0
1841 1 24.17194081620093 11.316333480388405 4.299177950547913 -1 0 2
86 1 24.301683002798278 11.32338381141178 8.108851708173958 -1 0 0
195 1 21.99156228672266 9.622090522018858 7.924214246196756 0 0 0
1973 1 1.0135191335555478 12.797072599084899 4.471297861576437 2 -2 2
1412 1 2.69914676750412 13.018772310447067 6.0238634739491275 -2 0 -1
688 1 1.455880807876189 14.811901306033477 6.40236397881656 0 0 0
1949 1 2.503130067976866 14.689393155969798 4.07600466463354 0 -1 0
2373 1 3.049145038506134 16.513810317076803 5.989269614478841 1 -1 -1
800 1 0.8769738485278088 16.721690596083576 7.995637781485524 0 0 0
785 1 1.1101113076971565 12.801172761832275 8.327461239245494 0 0 0
690 1 4.642437623571305 13.230875882328798 3.944868756051485 0 0 0
706 1 6.515858175573427 14.745264439699032 4.472468840953722 0 0 0
979 1 22.524021508498322 22.077336171096725 13.47003226489557 0 0 0
1469 1 4.531846941189913 14.666783811875737 6.122906365204013 2 0 0
709 1 6.259044281444666 13.117964964987838 5.983193540703816 0 0 0
787 1 4.8830367809510955 12.877930305054127 8.05562991246953 0 0 0
789 1 8.271075359675205 13.41455416608646 8.248350398592322 0 0 0
692 1 8.64286613023887 14.68233232355997 5.9898990167383825 0 0 0
1380 1 11.89005956737758 13.283154004726192 4.30880940047492 -3 2 -1
2148 1 10.093209126983938 12.854268882200046 6.489308111099216 1 0 0
1797 1 11.04105959107978 14.719584905197843 6.187135440649479 2 0 1
811 1 9.60239209130031 15.118503931528029 8.460124906259582 0 0 0
79 1 20.298689712901727 7.884254177233775 4.426408092070793 0 0 0
791 1 11.434852360783442 13.839785515695363 8.221676036539693 0 0 0
1548 1 13.115348402427193 13.129544720616835 6.1216207173819175 2 0 1
94 1 15.127616358194981 15.079031278975766 5.965709862158267 0 0 0
815 1 13.868080893442187 15.417404844109024 7.965341097008455 0 0 0
2532 1 13.120826629822426 15.237304797427432 4.257343047860624 0 0 -1
1521 1 15.3622784273689 13.496054824151017 4.262789026985693 0 1 0
2019 1 13.250420943741466 16.659552744322518 5.899340702435834 -2 1 2
843 1 15.326275050901454 16.90968459746265 7.993364313665487 0 0 0
751 1 17.20572282621196 13.48167283670541 6.311018447470747 0 0 0
223 1 24.124277731120742 23.85934801918048 13.615514367674418 0 -1 0
848 1 18.81147893082271 15.083469803152404 6.30237303835635 0 0 0
2707 1 19.095285961445654 13.440121653054561 4.7165335677788 1 0 2
698 1 18.66826278890111 13.959188336093183 8.143721009498812 0 0 0
749 1 17.18102018858253 17.04343714685416 6.301854596195327 0 0 0
1028 1 21.215544772871688 22.131239297450712 15.477829959666371 0 0 0
823 1 20.867723405918888 15.165900621746879 8.07152741645857 0 0 0
724 1 20.704588550475563 13.522301302505364 6.536801991041699 0 0 0
2637 1 20.676946191297972 16.788478566789593 6.324561476849253 1 2 1
819 1 16.671516912002545 15.347884027162221 7.914496355404379 0 0 0
728 1 24.486287689336265 13.1639779998774 6.587948559970377 0 0 0
851 1 22.451153912137016 15.131004671910848 5.922622923760635 0 0 0
827 1 24.32228934788578 14.595457265257313 4.445346872647309 -1 0 0
700 1 22.46068758782819 13.63541661459058 8.10055277665235 0 0 0
799 1 24.406957755794757 14.99773673460814 8.047175565532642 -1 0 0
701 1 24.469640066642697 16.783914769981806 5.896267124036425 -1 0 0
1429 1 22.413716771664987 13.063267505499201 4.659825541031804 0 0 -3
1464 1 1.2392823137778868 16.752363928856894 4.373422628650433 1 -2 0
1881 1 2.9846077331127994 18.74992811758682 4.272981253016013 2 0 0
1402 1 1.533058608185824 18.48587306949115 6.13274118113631 -2 0 2
2029 1 0.7847549508143857 20.530874541824367 4.206463457014348 1 2 2
731 1 2.626113873504989 20.508475798966714 6.243391741678208 0 0 0
829 1 1.0512974745473396 20.27086552670039 8.057409743986462 0 0 0
831 1 2.7875804692131987 18.486494778658113 7.9629275422762325 0 0 0
707 1 6.115674910538188 16.53413149137451 5.970638573530442 0 0 0
703 1 4.6350621340880584 15.841632404020027 4.085482964929056 0 0 0
2154 1 6.342963418230137 18.39952533155276 4.38765486508996 1 -1 -2
2327 1 4.658279680958738 20.253529894325496 4.502663900679496 1 0 0
1691 1 4.70407260943127 18.466137640054697 6.206289601639387 -1 0 -1
767 1 6.3793669337967795 20.110108233385155 6.339565418538772 0 0 0
839 1 7.935694435302181 18.228999606216185 6.285398288613809 0 0 0
735 1 4.513676671623656 20.272724178216272 8.028171132961507 0 0 0
808 1 7.8797107052975415 16.262180699317426 7.718949914942797 0 0 0
2504 1 7.79156228262255 16.423286566987045 3.992703986238389 -2 0 1
1663 1 11.463270459796817 16.85801154789013 4.2243804284585105 4 -1 -1
746 1 9.717590414806113 16.67906198848489 6.250068054868018 0 0 0
744 1 9.624690941468799 20.059089684039897 6.286569017558872 0 0 0
2198 1 11.516269966572512 18.57987286652891 5.972599026031363 0 -2 1
711 1 9.567942743035065 18.57914627372383 4.342357096612176 0 0 0
1626 1 11.406956914403972 20.299915650878113 4.499678381375167 0 1 2
840 1 11.823803494716651 20.23209080191546 7.6919273026409645 0 0 0
694 1 11.672985382820478 16.889954543578703 7.895733988650818 0 0 0
720 1 15.006316382548576 16.692002020114792 4.2915879450574 0 0 0
105 1 13.220852028524243 18.613743770405378 4.5447831245570125 0 -1 0
1835 1 15.077744603636068 18.169089381486245 6.256902114718816 -1 -1 0
2213 1 15.088790578909759 20.19247847722899 4.427727670285133 0 -1 1
752 1 17.02942649547861 20.403860606556186 6.189816080195193 0 0 0
847 1 16.781319863214243 18.64839228334855 7.763772896263875 0 0 0
747 1 13.392985661362916 20.471331449171934 6.086782315259997 0 0 0
716 1 17.005616326943702 18.39782652865577 4.176960893963482 0 0 0
2170 1 18.92384976937565 16.95087828657774 4.205402694067018 -1 -1 1
2369 1 18.98912799779321 18.6391431841892 6.102717855180982 -1 0 -1
756 1 20.44274053078332 18.74264548629096 7.986596694792463 0 0 0
2463 1 20.461709515044546 20.37952533205341 6.157726936724394 -1 0 1
1622 1 21.055322962759455 18.19901802313803 4.468499975506352 0 -1 1
820 1 18.902536825040045 16.64705081774013 7.93076730618127 0 0 0
780 1 18.669763258109562 20.36863820806959 7.824880881775316 0 0 0
2672 1 18.851003628426426 20.366971229908657 4.433242749751531 0 0 1
853 1 22.61039503474087 16.902272201264353 8.096729443538571 0 0 0
2344 1 22.714179749981774 16.589920001222083 4.208822397050418 -2 0 0
852 1 22.55684164074345 18.235265583224532 6.372915347427847 0 0 0
2683 1 24.55371139452089 20.14529396615361 6.211173781737809 0 -1 0
2317 1 22.41808557340368 20.25223154034454 4.651936350939096 0 0 -1
755 1 24.60293888701746 18.40912689953388 7.724715099991249 0 0 0
2617 1 24.229216782586256 18.680084183193372 4.33956586657365 1 2 2
925 1 22.548814199747852 20.34742718452501 7.925496823690864 -1 0 0
708 1 2.951337313202563 22.12338418410254 4.313435242734276 0 0 0
733 1 0.7885389028973796 23.82869258754213 4.310631293539926 0 0 0
11 1 3.11497756940019 23.70429507162595 5.965671144643346 0 -1 0
1463 1 0.8695885488518416 21.996548585220246 6.32036962711606 0 0 -2
828 1 2.7421209672713043 22.20115908675116 7.882217088917748 0 0 0
197 1 1.2664672116318414 23.668556671325042 8.174480120895128 0 -1 0
1437 1 7.929438700777309 20.31451074483285 4.568934280576769 1 -3 1
35 1 4.654782397205665 24.04216758708953 4.431941267341159 0 -1 0
736 1 4.887395374696831 22.227224302852427 6.513180567669297 0 0 0
862 1 6.530618628424844 23.88386016848424 6.34209825667036 0 0 0
739 1 6.372388956253122 22.152711569401305 4.171635315788409 0 0 0
762 1 4.494876299260007 23.688617032602522 8.082843076067903 0 0 0
740 1 6.387801974221084 21.91255431385443 8.032285329897476 0 0 0
2530 1 7.940048611577332 22.05030822109 6.353232059165254 1 1 1
2386 1 8.089514094687745 23.476518006943166 4.647681795543288 1 -1 0
9 1 9.79335545518185 21.968673812431867 4.478959914302522 0 -1 0
2538 1 9.91680313174335 23.905953672283538 5.997536659180363 1 1 -2
771 1 11.870701908206541 21.99081001534701 5.911502680015243 0 0 0
867 1 10.031448941166826 21.683954527793396 7.761391910333154 0 0 0
1563 1 11.594351953649507 23.604447838716744 4.472197622551704 0 0 1
1836 1 13.599950666468793 22.32675809320846 4.550983975841536 0 0 0
748 1 15.383618736019773 22.024758473877377 5.892406706933244 0 0 0
775 1 13.484327404273555 23.856997704213903 6.194501798029536 0 0 0
872 1 15.419412093243745 23.266731914637894 7.883896495572451 0 0 0
773 1 15.712610158893314 23.84764219956302 4.361791209341232 0 0 0
871 1 13.337877181667107 21.95998622452906 8.025125332770958 0 0 0
2149 1 19.183802058289245 23.956639005704282 4.371440862477751 0 0 0
742 1 17.12001195902861 22.13740374516867 4.2890979515616605 0 0 0
779 1 20.81362931387421 22.34267165555584 4.252885456748043 0 0 0
119 1 17.206021291041132 23.711939841563208 6.366290182122455 0 -1 0
876 1 18.94313356884085 22.046819770899965 6.43336103588903 0 0 0
856 1 21.176540001220886 23.93351796857796 6.0372176771540005 -1 0 0
875 1 18.738336985821853 23.99992652900849 8.106120313342025 0 0 0
844 1 17.283170002953 21.946060259143543 8.305039243447828 0 0 0
855 1 21.070035342550064 22.132554377537453 7.9477125386701655 -1 0 0
1414 1 22.61673085845193 24.135787757189597 4.217689036748727 -1 -3 1
2193 1 23.901038031055364 22.09204966693555 4.295458398255783 -2 1 0
759 1 24.464903636591828 23.97290325616315 6.4500059036768125 -1 0 0
19 1 22.68207678214295 22.090863347439715 6.170143973139632 0 -1 0
1523 1 24.201300618775107 21.959222403582544 8.410387897990887 0 -3 -1
859 1 22.587434328010453 23.863223155543437 8.395012281604536 -1 0 0
7 1 2.8770481036466653 2.510755939481783 10.03350433159217 0 0 0
198 1 1.0554788689251868 3.0811593213192854 11.213088967213077 0 0 0
104 1 1.0187837152563448 0.8228945393697904 9.823428891534693 0 0 0
201 1 2.7171318903943993 0.7393710638753433 11.664302102503736 0 0 0
229 1 3.1856948762188364 4.688775041978843 11.718797971145275 0 0 0
107 1 6.378239807427885 0.8643321147975679 7.8736900605658136 0 0 0
866 1 4.587008575384715 0.797584181714412 9.96876285806498 0 1 0
202 1 4.846059549373778 2.9567554157329874 11.85169378951049 0 0 0
110 1 6.5842014188219045 2.725653502945739 10.061055779740418 0 0 0
205 1 6.576748344105173 0.6260955798463164 11.53845615109357 0 0 0
206 1 8.435844961714766 2.1795994685005193 12.112222723172618 0 0 0
109 1 7.771906454596138 0.6076120664799243 9.616827506564972 0 0 0
112 1 11.908832079965386 2.179532159066706 8.226586687979172 0 0 0
114 1 9.60588207855138 2.354034192802248 10.118016165839443 0 0 0
210 1 11.646010008598724 2.2120361557338866 11.651568730271379 0 0 0
209 1 9.729864786094804 0.3910721123492726 11.659972638316546 0 0 0
113 1 11.828786187611563 0.6946894617581514 10.109590631508265 0 0 0
116 1 15.103838308424377 2.018629558655787 8.226288941779254 0 0 0
115 1 13.66334866722567 0.426971314831496 8.349744982355304 0 0 0
118 1 13.557343536365732 2.1773388976921764 9.93142778880986 0 0 0
214 1 15.655533016520506 2.546630685883403 11.802352373984052 0 0 0
213 1 13.70400408903401 0.20760563272419874 11.711358242833741 0 0 0
117 1 15.376116580644114 0.4786022176001965 10.238205587867386 0 0 0
125 1 18.783275371426058 2.3897517918274147 8.043696698358023 0 0 0
122 1 16.894585477695294 2.5679752390500834 9.923188501835204 0 0 0
217 1 17.019867403496775 0.518888778636674 11.78041568315983 0 0 0
218 1 18.56986154014499 2.5173137477166043 12.01291719459218 0 0 0
121 1 18.78302364258944 0.8034399217378113 9.830378808418885 0 0 0
221 1 20.73636179900386 0.9992204837583194 12.184413205598926 0 0 0
225 1 20.46523041760654 2.5968988450793073 9.63061321402765 -1 0 0
124 1 23.903998565115863 2.435055445992773 10.268936002347242 0 0 0
222 1 22.276082339744384 2.7115651976027704 11.810825635460143 0 0 0
101 1 22.37226891290048 0.880657259552708 10.038007591851652 -1 0 0
199 1 24.26346729426062 0.8015800944981568 11.757184595039995 -1 0 0
128 1 3.121530669222966 4.258004376798722 8.102993750171077 0 0 0
64 1 2.8764338361865973 7.375186262768069 8.358012516783873 0 0 0
100 1 1.1121977712916689 4.551327496734107 9.216069499980973 0 0 0
134 1 2.9339736268406376 5.87375446084922 9.81758224655989 0 0 0
226 1 0.830530785051555 5.427761222832321 11.276589496299177 0 0 0
257 1 2.7670019655939466 7.346513233030072 11.851707218628572 0 0 0
157 1 0.9532232743068985 7.376107505841512 10.172248241127537 0 0 0
233 1 6.9431843715708235 4.288756270740264 11.742681761140323 0 0 0
137 1 8.509025149188517 4.101817725194676 9.791835201763107 0 0 0
133 1 4.831570477417557 4.499653584696909 9.69866876612158 0 0 0
138 1 6.759652472504664 6.147102790058889 9.861272017093404 0 0 0
230 1 5.11090810519731 5.893324104145047 11.501978367403279 0 0 0
165 1 8.125364984511135 7.9766505701023505 9.906235928686876 0 0 0
261 1 6.28189195812927 8.19277559610597 11.593134317776883 0 0 0
234 1 8.33055877990315 6.1351589270818385 11.645528354488228 0 0 0
161 1 4.715475572321555 7.284728448669966 9.94907420413265 0 0 0
136 1 10.183083711218728 7.985776857217338 8.221140654947652 0 0 0
140 1 11.983023918628898 5.915361753146572 8.161866311395755 0 0 0
141 1 11.063614841242458 4.0535741744587925 9.922400408330407 0 0 0
237 1 9.860745012124873 4.030578597824247 11.900945727033136 0 0 0
142 1 9.716506628542827 6.165019132868135 9.867334766139487 0 0 0
238 1 11.255952388048575 5.874759070575653 11.569166661177668 0 0 0
169 1 11.250932316414566 7.7713156531221586 10.189486494579402 0 0 0
265 1 10.03974927607493 7.892219633302008 11.92504398254108 0 0 0
144 1 14.891639842343187 6.151027989613433 7.985778028926136 0 0 0
145 1 15.459086715980284 4.718695991358609 9.59449023748687 0 0 0
241 1 13.193312893984531 4.0638054496603075 11.546432242921181 0 0 0
146 1 13.158467156769374 6.455496782918357 10.002072288950256 0 0 0
242 1 14.862306670633767 5.871565567758476 11.709576660971454 0 0 0
173 1 15.311270192859315 7.816283242516893 9.805609018837735 0 0 0
269 1 13.52414699722804 7.9214532131191495 11.595057114473638 0 0 0
149 1 17.059520575443393 4.272750083836813 7.786976987106826 0 0 0
148 1 18.75594156653301 6.098147109244086 7.9144888533575335 0 0 0
147 1 18.92058874337455 4.1272945484636265 9.757413625681194 0 0 0
249 1 20.442634858476154 4.136583472435141 11.654812946255705 0 0 0
245 1 16.677467039627764 4.631727212782083 11.723629365918404 0 0 0
150 1 17.275418793763613 5.814127290063325 9.905610833083546 0 0 0
246 1 18.972279700000783 5.897604544739238 11.550854512165063 0 0 0
177 1 19.014634410040237 7.823851043141065 9.834083346055872 0 0 0
273 1 17.03499945106134 7.557986040273863 11.695060853434196 0 0 0
154 1 20.41613467172933 5.910379564310539 9.506089720525825 0 0 0
277 1 20.193343682351262 7.858024677504554 11.96577287426779 0 0 0
153 1 22.223347601605226 4.3154289677078665 9.63888958861175 0 0 0
32 1 23.806820825893773 4.369443564944881 11.942444735113158 -1 0 0
155 1 23.798106861304845 5.9130789513373605 9.812772734062342 -1 0 0
250 1 21.76004841696769 5.990592123407931 11.674364437695374 0 0 0
253 1 23.709669335744543 7.652553586419425 11.39492328095714 -1 0 0
181 1 21.79312772905684 7.804824616235562 9.835454608669504 0 0 0
156 1 1.2665416622298349 9.338982846455508 7.993194686319621 0 0 0
185 1 3.1085574513460053 11.210485314810084 8.224135827882844 0 0 0
162 1 2.6459998673586558 9.203881600142346 9.982155716305428 0 0 0
254 1 1.0447484845905384 9.61175759140068 11.844259199202135 0 0 0
283 1 2.8563915789958543 11.17188672701615 11.642339617316296 0 0 0
184 1 1.276583311816647 11.065007230357093 9.774118729180493 0 0 0
187 1 6.376857903519654 11.231362125556501 7.8734713275963 0 0 0
164 1 8.329671322280218 9.845167679974297 8.465423444827692 0 0 0
186 1 4.610272161283402 11.019622032521205 9.95760539509029 0 0 0
258 1 4.313426374254184 9.630064480959001 11.842991347576564 0 0 0
166 1 6.281698807671978 9.54550147833359 9.801505707197443 0 0 0
285 1 6.564686933276977 11.524569944627338 11.728291554596613 0 0 0
262 1 8.127743630813146 9.674735819387134 11.777046877185718 0 0 0
189 1 10.214036968853039 11.420398688870467 8.228825160080195 0 0 0
168 1 11.834960150510245 9.66259268507192 8.080950853257761 0 0 0
188 1 8.469998596333133 11.562334017269793 10.02205631531083 0 0 0
170 1 10.262888426432486 9.690250143220194 10.218616795104719 0 0 0
190 1 11.747294686551063 11.77682436470691 10.111870666451818 0 0 0
287 1 10.408950280665234 11.439001233621491 12.360908527291421 0 0 0
266 1 11.994409221181334 9.538797790691097 11.701889866062814 0 0 0
172 1 15.324258388806669 9.915303714814987 8.338145127194572 0 0 0
696 1 13.408780722330961 11.362373057314343 8.377101829570751 0 0 0
174 1 13.315443625752362 9.260233566682802 9.744885434452865 0 0 0
192 1 15.271102846970313 11.8413921483261 9.904564413060768 0 0 0
270 1 14.939874978947174 9.920794451396985 11.413108200110447 0 0 0
289 1 13.289497915960148 11.460667321613903 12.062838106906687 0 0 0
178 1 17.453834051099513 9.528952814536966 9.935396790077814 0 0 0
291 1 16.961185263045145 11.48052524602782 11.7701877548077 0 0 0
194 1 18.466423662666315 11.638625453361891 9.822063110263699 0 0 0
274 1 18.70947758759857 9.445335640546663 12.010246388596675 0 0 0
293 1 20.375896330471562 11.314762111450076 11.948220161727559 0 0 0
182 1 20.16053346728637 9.7781839525888 10.02466774170506 0 0 0
281 1 23.924243652366357 11.453125288877478 11.541178738258466 -1 0 0
158 1 24.350044618897364 9.51983595200819 9.973084925719292 -1 0 0
196 1 22.41411063511881 11.45474932258497 9.84332101802605 0 0 0
278 1 21.981011639202812 9.337436012275697 11.60559470537384 0 0 0
803 1 3.1127449074848843 14.679441039520123 8.243236751450034 0 0 0
883 1 1.4582128553058937 12.805377283724868 11.899400444573605 0 0 0
788 1 2.773829626010802 12.877441501476266 9.930166608905415 0 0 0
801 1 1.1680609167373712 14.782453792749727 9.649636050626237 0 0 0
901 1 2.9604479140184456 14.620962525868258 11.808431962923622 0 0 0
807 1 6.195248014815951 14.754591540309766 8.088714463040441 0 0 0
885 1 4.557157244874878 12.857923797448159 11.504191310388723 0 0 0
805 1 4.347507567116563 14.870017377233493 10.066518311057228 0 0 0
790 1 6.486904321123157 13.096418624881855 9.906441492810512 0 0 0
905 1 6.493689772798501 14.918931909722303 11.67607974159245 0 0 0
809 1 8.267264863688391 14.818588815579979 10.209141815989575 0 0 0
887 1 8.38370896625864 13.229456199960659 11.82183511063069 0 0 0
792 1 10.139352892703402 13.43139916538771 10.077151417778008 0 0 0
909 1 10.224444116916477 14.798604748807128 12.261130753943661 0 0 0
813 1 11.79692156347669 15.385566122082958 9.83039224476817 0 0 0
889 1 12.180189234115616 13.600522767270222 11.832546093540182 0 0 0
793 1 14.727630021139039 13.180131323669974 8.118809675218923 0 0 0
891 1 15.225285860707475 13.359330291077322 11.665370784721857 0 0 0
794 1 13.376990625783128 13.719368735729379 9.968359815510079 0 0 0
817 1 15.468033249383726 15.100243413722518 9.729050652192853 0 0 0
913 1 13.684518707029609 15.318900874778546 11.797332811110653 0 0 0
917 1 17.150018493090222 15.150951312276902 11.886126676195838 0 0 0
796 1 17.039743373313335 13.644526166681523 9.896591374005926 0 0 0
893 1 18.810364363582863 13.321662613271513 11.912747816064664 0 0 0
821 1 18.769501953372014 15.363283605195344 10.160341990115437 0 0 0
798 1 20.3010461469772 13.125984079457231 9.839996084453194 0 0 0
921 1 20.676125617632778 14.9745337951781 11.562964769340631 0 0 0
786 1 24.10693362970847 13.1064307298293 9.880553391455734 -1 0 0
897 1 23.882983853347078 15.06442777618881 11.342730816853127 -1 0 0
825 1 22.146309087210973 14.784608899688948 10.105894040441918 0 0 0
895 1 22.23292374789993 13.01718071010362 11.609498875460224 0 0 0
898 1 1.1224386545372467 16.27775753700704 11.676454550388263 0 0 0
806 1 2.952791029147101 16.71675873868059 9.461639856664323 0 0 0
704 1 1.0183042060229697 17.961108283825887 9.921908484940385 0 0 0
929 1 2.985475364434829 18.273680306176097 11.511350547360664 0 0 0
834 1 2.7496478150363366 19.94446737719918 9.845417391752171 0 0 0
926 1 1.4648791654063962 19.701836338635864 11.93062697173471 0 0 0
804 1 4.550811801348473 16.416368143783544 7.860389348263768 0 0 0
835 1 6.470141382839012 18.19815500646274 8.194162263594073 0 0 0
902 1 4.717303322031471 16.582200486597145 11.46277769699236 0 0 0
810 1 6.433958165958427 16.513870290379565 9.885020322078448 0 0 0
833 1 4.641177153422278 18.516442213822593 9.91504170198072 0 0 0
933 1 6.228467184423904 18.303348476763198 11.712888124884278 0 0 0
934 1 8.137634235036714 20.449048050647313 11.500061662712753 0 0 0
838 1 6.510615511477447 20.29893923486805 9.647498843307625 0 0 0
837 1 7.9781338984840975 18.39175217171453 9.95620340672012 0 0 0
812 1 9.696665494050757 18.240055848264582 8.140715271828018 0 0 0
906 1 7.919731278533741 16.818349215852514 11.96829882823365 0 0 0
814 1 9.643844497125611 16.6996423804013 10.149438937021708 0 0 0
910 1 11.754884469453046 16.67635453262946 12.26406235830075 0 0 0
841 1 11.94422865007279 18.051537189734674 10.103237740643813 0 0 0
937 1 9.857566353894494 18.41309609131521 11.652377655572288 0 0 0
836 1 8.147823826252829 20.183688345601496 8.033670404957839 0 0 0
842 1 9.908663892822478 19.9419053175791 9.850531559910099 0 0 0
743 1 13.665601004371473 18.477664334165162 7.675565242572146 0 0 0
816 1 15.080984367351313 20.438762195696704 7.719139168556326 0 0 0
818 1 13.730997796776633 16.869752661980435 10.05672933433524 0 0 0
914 1 15.525519051061474 16.83902947204122 12.041104292471921 0 0 0
845 1 15.526865690594388 18.660886362750063 9.873041228095975 0 0 0
941 1 14.017401168396507 18.553849574039965 11.663745369043678 0 0 0