LAMMPS data file via write_data, version 19 Mar 2020, timestep = 100000

2048 atoms
2 atom types

-3.8918650765131524e-01 2.3492402507650048e+01 xlo xhi
-3.8918650765131524e-01 2.3492402507650048e+01 ylo yhi
-7.7837301530263048e-01 4.6984805015300097e+01 zlo zhi

Masses

1 58.71
2 26.982

Atoms # atomic

147 1 2.5032382795779573e+00 2.7870782162436196e+00 2.1654332353030488e+00 0 0 0
2 2 9.6463912159507625e-01 1.1989022791476702e+00 6.1459645244428618e-01 0 0 0
130 2 1.2279601506219209e+00 1.0554156144339100e+00 3.6070394383711060e+00 0 0 0
18 2 1.1012722813141369e+00 4.2501091638012678e+00 6.1991702629592216e-01 0 0 0
146 2 1.0718944521852252e+00 4.0180293323663037e+00 3.7498817869449192e+00 0 0 0
4 2 4.2232796983896481e+00 1.4066329336027603e+00 8.2915451513287097e-01 0 0 0
132 2 3.9841478949679132e+00 1.2193058060568951e+00 3.8638364600278914e+00 0 0 0
20 2 4.1830557510412980e+00 4.3628024328484560e+00 8.0387082651900688e-01 0 0 0
148 2 3.9323376412004727e+00 4.1448305654795856e+00 3.6037013537022640e+00 0 0 0
131 1 2.4663075941618344e+00 -7.7064947561687802e-02 2.0550142260155884e+00 0 0 0
19 1 2.7189660806193894e+00 2.8662985580814695e+00 -5.7971043258613697e-01 0 0 0
149 1 5.5180189598510356e+00 2.6739594379130844e+00 2.3893793191405046e+00 0 0 0
151 1 8.6478647074835546e+00 2.6476420567129892e+00 2.0663750598287156e+00 0 0 0
6 2 7.0666575878484554e+00 1.2522948731786487e+00 6.6595600013017475e-01 0 0 0
134 2 7.1033955449338668e+00 1.1314726863557090e+00 3.6132039046606330e+00 0 0 0
22 2 6.8686786439568577e+00 4.1119042045524639e+00 5.7589833084249320e-01 0 0 0
150 2 7.2622818022501834e+00 4.0695414980748916e+00 3.7976828780522700e+00 0 0 0
5 1 5.4884828882858461e+00 -1.6484908758739503e-01 -7.7169924311711202e-01 0 0 0
133 1 5.5287734995293416e+00 -2.9021051742047854e-01 2.4163728566567086e+00 0 0 0
1935 1 8.7551650074169451e+00 2.8072191186729594e+00 -3.3285477752967307e-01 0 0 1
153 1 1.1479140724226983e+01 2.7141464011758183e+00 2.3274196004189540e+00 0 0 0
8 2 9.9874841545696356e+00 1.1491470122809124e+00 7.8121427613850147e-01 0 0 0
136 2 1.0079475412978644e+01 1.1441478338031026e+00 3.6435327571559926e+00 0 0 0
24 2 1.0007658197588572e+01 4.2289350417232177e+00 9.6750691754608154e-01 0 0 0
152 2 9.9701966234881958e+00 4.3622483172398843e+00 3.9297852027810007e+00 0 0 0
10 2 1.3177021812235655e+01 1.2233399733930492e+00 8.5432936149568772e-01 0 0 0
138 2 1.2987492109491969e+01 9.8326765817409867e-01 3.7609482917927517e+00 0 0 0
26 2 1.3272596282591520e+01 4.1281249300567859e+00 6.1675466470024687e-01 0 0 0
154 2 1.3143685226779873e+01 4.0718570329301391e+00 3.7068616288445648e+00 0 0 0
9 1 1.1529553118630087e+01 -1.3492026034591592e-01 -6.0639629135131057e-01 0 0 0
25 1 1.1442432788817845e+01 2.5088121699367152e+00 -6.5184336161831469e-01 0 0 0
155 1 1.4603984861371337e+01 2.6193063012267332e+00 2.1838499233936233e+00 0 0 0
157 1 1.7691724361522539e+01 2.4352358849575246e+00 2.2067727727095141e+00 0 0 0
12 2 1.5925035927620337e+01 1.0041273613423405e+00 6.0873955029702875e-01 0 0 0
140 2 1.5976137783821590e+01 1.0245276860979635e+00 3.7367197645534169e+00 0 0 0
28 2 1.6215902766571588e+01 4.0418540042857822e+00 9.3270254995351753e-01 0 0 0
156 2 1.6115522255586413e+01 4.1543427469203360e+00 3.6625125661811948e+00 0 0 0
29 1 1.7445472853459314e+01 2.7069605389674201e+00 -5.8209799940364748e-01 0 0 0
145 1 2.3281518137740363e+01 2.6142180547425018e+00 2.0950791426581170e+00 -1 0 0
129 1 2.3391832965676123e+01 -3.2733377873708702e-01 2.2034579039162772e+00 -1 0 0
159 1 2.0524900005838603e+01 2.5653353410401909e+00 2.1348113090152960e+00 0 0 0
14 2 1.9151131411497566e+01 1.0430990236796975e+00 5.8223267313238192e-01 0 0 0
142 2 1.9022277719794403e+01 1.0650818458671032e+00 3.7322145784114946e+00 0 0 0
30 2 1.9062224569595891e+01 4.1680567314817196e+00 8.5186755480150822e-01 0 0 0
158 2 1.9279981443628266e+01 4.0330047098817685e+00 3.7362581023029140e+00 0 0 0
16 2 2.2013704467124811e+01 9.8703666480246643e-01 5.1075203620413534e-01 0 0 0
144 2 2.1986519215594072e+01 1.0323725348689314e+00 3.6405108918529594e+00 0 0 0
32 2 2.2173420870636164e+01 4.1677218201227921e+00 6.6897825463007332e-01 0 0 0
160 2 2.1938792986730263e+01 4.0503968042700507e+00 3.5075112695997444e+00 0 0 0
1725 1 2.3347815831005050e+01 2.8611513903859671e+00 -4.1919404542611483e-01 1 0 1
1712 2 2.0819502454168429e+01 3.0134578965624743e+00 -6.3584025598753291e-01 0 0 1
161 1 -3.7328534307513539e-01 5.6609380937911711e+00 2.2808059142610762e+00 0 0 0
163 1 2.4783194279587897e+00 5.5809672966863451e+00 2.4342568384180825e+00 0 0 0
179 1 2.6752226703242061e+00 8.7525753400573318e+00 2.2925097691838534e+00 0 0 0
34 2 9.9475145962283174e-01 7.1696810246010481e+00 8.7188248397631796e-01 0 0 0
162 2 1.2600610153809384e+00 7.1345673402495935e+00 3.6986462446583861e+00 0 0 0
36 2 4.0119425533495825e+00 7.1739738996510711e+00 7.8663725194748690e-01 0 0 0
164 2 4.1337284434452544e+00 7.2701638070287418e+00 3.8790260199976156e+00 0 0 0
35 1 2.6729038409369479e+00 5.7429389030116189e+00 -6.7047939819759850e-01 0 0 0
51 1 2.6300807199852385e+00 8.4183466793143502e+00 -3.9458795010338887e-01 0 0 0
165 1 5.5502987060734039e+00 5.7307864561561557e+00 2.2907132320109920e+00 0 0 0
181 1 5.4432517326635912e+00 8.7670296726773280e+00 2.2279323641632263e+00 0 0 0
167 1 8.2981035256082389e+00 5.5531506558328960e+00 2.3574696525507064e+00 0 0 0
183 1 8.4622954324711195e+00 8.4473828302654237e+00 2.3515416896918149e+00 0 0 0
38 2 7.0176973029346561e+00 7.2792281914099295e+00 8.1871149018848222e-01 0 0 0
166 2 6.9027287368944990e+00 7.2125073460006863e+00 3.7277992470910135e+00 0 0 0
39 1 8.6267631470357191e+00 5.5800086515537748e+00 -5.2199182861070614e-01 0 0 0
53 1 5.6438693414739829e+00 8.7512266636251805e+00 -6.5502846904260592e-01 0 0 0
1851 1 8.8474099648587341e+00 8.2628005921889489e+00 -6.5332952244259657e-01 0 0 1
41 1 1.1556024860994494e+01 5.5725381977310571e+00 -5.9100796029765235e-01 0 0 0
169 1 1.1705496647032422e+01 5.8134984140661707e+00 2.3197159765315014e+00 0 0 0
185 1 1.1475781984139651e+01 8.6081956626502887e+00 2.1626837332684024e+00 0 0 0
40 2 9.9809946870374340e+00 7.1098425542411947e+00 7.9192416714773417e-01 0 0 0
168 2 1.0302074631767312e+01 7.0239302909513519e+00 3.9090378856356596e+00 0 0 0
42 2 1.3051642290729180e+01 7.0805062882662995e+00 7.7160909503700092e-01 0 0 0
170 2 1.3210534715027139e+01 7.3737954697494388e+00 3.7654302335524852e+00 0 0 0
57 1 1.1472604790730674e+01 8.6812881821022838e+00 -6.8692973298403759e-01 0 0 0
171 1 1.4624566322260314e+01 5.5784277925875880e+00 2.2395014214440558e+00 0 0 0
59 1 1.4382728876969820e+01 8.5948722089247696e+00 -7.2649732171049486e-01 0 0 0
187 1 1.4495922844482488e+01 8.5888719481512954e+00 2.0845624431239211e+00 0 0 0
45 1 1.7659341704990155e+01 5.5729341358553297e+00 -6.6911474047555963e-01 0 0 0
173 1 1.7696916438767182e+01 5.5672664903058742e+00 2.2160555605548966e+00 0 0 0
189 1 1.7393951479476172e+01 8.5306354116123604e+00 2.3790280103690020e+00 0 0 0
44 2 1.5938731478635910e+01 6.9021388442661129e+00 8.2900602869164164e-01 0 0 0
172 2 1.6107365181637952e+01 6.9324437609564820e+00 3.8294941421322015e+00 0 0 0
43 1 1.4595491509835123e+01 5.6016881833081618e+00 -6.9726151033806372e-01 0 0 0
61 1 1.7606042166195508e+01 8.7576171362511452e+00 -5.9173365938553379e-02 0 0 0
177 1 2.3459441350322777e+01 8.7122578896096581e+00 2.3783239925828781e+00 -1 0 0
175 1 2.0593722394784351e+01 5.8271883220944334e+00 2.4043361732019362e+00 0 0 0
191 1 2.0391950255132386e+01 8.4572272358747043e+00 2.2408740846724875e+00 0 0 0
46 2 1.8964559040580170e+01 7.0667271940614702e+00 7.6713837685923147e-01 0 0 0
174 2 1.8951284430635845e+01 7.1150619105186834e+00 3.7647501322940533e+00 0 0 0
48 2 2.2126411855944589e+01 7.1723050519910263e+00 8.6489771503544288e-01 0 0 0
176 2 2.2043829529374904e+01 7.3121698326133364e+00 3.8696203068024868e+00 0 0 0
49 1 2.3469826385152970e+01 8.4270392805937586e+00 -7.6773826555501434e-01 -1 0 0
47 1 2.0537466733498164e+01 5.3988486124533974e+00 -7.5919037485209895e-01 0 0 0
63 1 2.0366703817470366e+01 8.5738840615290535e+00 -7.7351369352478616e-01 0 0 0
195 1 2.4585507016866810e+00 1.1515389681606289e+01 2.1181535562650962e+00 0 0 0
50 2 1.0907267598907302e+00 1.0068712273506563e+01 6.8098796347378565e-01 0 0 0
178 2 1.0248005210241984e+00 1.0286713689312739e+01 3.8178361471872373e+00 0 0 0
66 2 1.0877346881629943e+00 1.3181924257344694e+01 8.4740431441314978e-01 0 0 0
194 2 7.8744371564932614e-01 1.3227627450676092e+01 3.6732435977380069e+00 0 0 0
52 2 4.0456239917390322e+00 1.0117757497059419e+01 7.0532583069832633e-01 0 0 0
180 2 4.0138286515792077e+00 1.0097064583393292e+01 3.9627876924254988e+00 0 0 0
68 2 4.1461726803666945e+00 1.2963879984525470e+01 6.6527426494465480e-01 0 0 0
196 2 4.0599089497159939e+00 1.3112645753709877e+01 3.8247134934545679e+00 0 0 0
1995 1 -2.5942917702047907e-01 1.0962515943408128e+01 -5.5816857455286595e-01 1 0 1
1457 1 5.3729699195903207e+00 1.1861963960898375e+01 -4.2094150583841111e-01 0 0 1
197 1 5.4839619492322385e+00 1.1561286895099339e+01 2.3523861882055770e+00 0 0 0
199 1 8.5864269336100172e+00 1.1484616329271654e+01 2.2182261836962867e+00 0 0 0
54 2 7.0653713428012903e+00 1.0208615149301917e+01 7.2993717563276239e-01 0 0 0
182 2 7.0634178364428424e+00 1.0203349015489538e+01 3.8860249134693534e+00 0 0 0
70 2 7.0774662012920819e+00 1.2955066507648441e+01 8.4071675420165759e-01 0 0 0
198 2 7.3072921732631428e+00 1.3013719691712470e+01 3.8328945590552461e+00 0 0 0
71 1 8.6755798451858617e+00 1.1748763126048617e+01 -6.9353876911508405e-01 0 0 0
95 1 1.1366305084798391e+01 1.1645547022261091e+01 -6.7467286251152259e-01 0 0 0
201 1 1.1405189382530823e+01 1.1451581810843066e+01 2.3516248089328493e+00 0 0 0
56 2 9.8624403562089036e+00 9.9997635944601129e+00 7.6225573628939047e-01 0 0 0
184 2 9.8071404776563842e+00 1.0096376308217355e+01 3.7022560325459564e+00 0 0 0
72 2 1.0127473489059350e+01 1.3109501915015553e+01 8.6367889365512873e-01 0 0 0
200 2 1.0098963776206572e+01 1.3031864641325942e+01 3.8335277957464529e+00 0 0 0
58 2 1.2764940068369922e+01 1.0170122663303989e+01 7.8986954326975667e-01 0 0 0
186 2 1.3145354756357658e+01 1.0198707356349820e+01 3.6568793933137487e+00 0 0 0
74 2 1.3002461189336589e+01 1.3028222965616878e+01 6.2720773927403073e-01 0 0 0
202 2 1.3003490823886052e+01 1.3095377573750843e+01 3.5943271082458148e+00 0 0 0
203 1 1.4443922263365778e+01 1.1710761100811373e+01 2.0489045621969244e+00 0 0 0
205 1 1.7373123525252659e+01 1.1623274625373936e+01 2.4068938388759036e+00 0 0 0
60 2 1.6073219733876094e+01 1.0073762715044335e+01 8.8165678084255639e-01 0 0 0
188 2 1.6040595754918797e+01 1.0005776197107894e+01 3.6755914453576981e+00 0 0 0
76 2 1.6096203559688554e+01 1.3032926004401236e+01 5.8924878495431621e-01 0 0 0
204 2 1.5845894410579346e+01 1.3051977232294288e+01 3.7123109117720281e+00 0 0 0
77 1 1.7611644866229589e+01 1.1201375252655398e+01 -6.2748262204864869e-01 0 0 0
193 1 2.3417897711949813e+01 1.1550501380120108e+01 2.2289703426076257e+00 -1 0 0
207 1 2.0503798070366429e+01 1.1594816252617720e+01 2.1027414431309190e+00 0 0 0
62 2 1.9164364377193856e+01 1.0029193240466990e+01 8.0539167602825978e-01 0 0 0
190 2 1.8945884883148487e+01 1.0133633278561595e+01 3.9083678563461701e+00 0 0 0
78 2 1.9025683717172583e+01 1.3001846846056168e+01 7.7474908132875431e-01 0 0 0
206 2 1.9053522988669421e+01 1.3097991811428894e+01 3.7653561801576263e+00 0 0 0
64 2 2.1871383531245776e+01 1.0077345257296431e+01 6.7363480171621282e-01 0 0 0
192 2 2.1863508795377577e+01 1.0127390400175708e+01 3.7316511866251370e+00 0 0 0
80 2 2.2131667065290628e+01 1.2905362887214162e+01 6.3668295036723332e-01 0 0 0
208 2 2.1967176225113448e+01 1.3085211826749163e+01 3.7231550366966228e+00 0 0 0
1823 1 2.3976661979712870e+00 1.4464846288128440e+01 -2.7085793784808665e-01 1 0 1
211 1 2.5803526641720218e+00 1.4755507893371639e+01 1.9590551980262010e+00 0 0 0
227 1 2.5180830580153071e+00 1.7530375276635532e+01 2.0403720244492809e+00 0 0 0
82 2 1.1035372587920214e+00 1.6068833600668682e+01 5.8219399423534690e-01 0 0 0
210 2 1.0456554363687602e+00 1.5947214157779465e+01 3.7622746011112289e+00 0 0 0
84 2 3.8699303337403848e+00 1.6105693975627098e+01 5.9809700076900274e-01 0 0 0
212 2 3.9548424673130604e+00 1.5873964632536987e+01 3.4768731485841364e+00 0 0 0
1925 1 2.7770797709274935e+00 1.7666495369887187e+01 -3.9528222056182999e-01 0 -1 1
1943 1 5.4561486961158030e+00 1.7825504100971258e+01 -4.8332437747588092e-01 0 -1 1
213 1 5.5037699356074210e+00 1.4421581895441895e+01 2.2291866270537484e+00 0 0 0
229 1 5.6380696769411927e+00 1.7326083982411461e+01 2.2108586723743375e+00 0 0 0
215 1 8.5351233971470304e+00 1.4483713381044007e+01 2.2060093907357832e+00 0 0 0
103 1 8.3876729763468827e+00 1.7616451025302567e+01 -5.6424295552292136e-01 0 0 0
231 1 8.5096825515809531e+00 1.7371144805752145e+01 2.2634127993582487e+00 0 0 0
86 2 7.0135526927900020e+00 1.5898018560577379e+01 8.4947526165840914e-01 0 0 0
214 2 7.0920704633670271e+00 1.5889310600207223e+01 3.8121082405197342e+00 0 0 0
87 1 8.5859524627057429e+00 1.4570395509569318e+01 -7.2036406860777269e-01 0 0 0
85 1 5.5362577671629110e+00 1.4569479726455134e+01 -7.5515838637640054e-01 0 0 0
217 1 1.1441456894746931e+01 1.4559582581698345e+01 2.2133381238576164e+00 0 0 0
233 1 1.1404528188186474e+01 1.7537224951194204e+01 2.3033780526378829e+00 0 0 0
88 2 9.8634946955087237e+00 1.6187864518142668e+01 9.2818838542428428e-01 0 0 0
216 2 1.0087765623680008e+01 1.5991880478062482e+01 3.7094324878499503e+00 0 0 0
90 2 1.3013076515440520e+01 1.6056371604171723e+01 8.4956262406930327e-01 0 0 0
218 2 1.2926232335786420e+01 1.5873098611495928e+01 3.7456360686199535e+00 0 0 0
105 1 1.1284359476643127e+01 1.7581072499167078e+01 -4.2755265599468634e-01 0 0 0
89 1 1.1470736822943868e+01 1.4607052411979353e+01 -7.3005026566136599e-01 0 0 0
219 1 1.4348040460385286e+01 1.4417265694710144e+01 2.1123224356100798e+00 0 0 0
107 1 1.4703443037292606e+01 1.7624162040239675e+01 -7.5302011021953741e-01 0 0 0
235 1 1.4701382036611641e+01 1.7491194299073797e+01 2.2140503461942145e+00 0 0 0
221 1 1.7675801188751876e+01 1.4549658094213084e+01 2.2054103319539120e+00 0 0 0
237 1 1.7707667720449301e+01 1.7442793993261894e+01 2.2186252814503393e+00 0 0 0
92 2 1.6100358153841462e+01 1.5939034767766787e+01 6.4683651196202163e-01 0 0 0
220 2 1.5933263507139886e+01 1.5900944831656721e+01 3.6730436272645308e+00 0 0 0
109 1 1.7559753217763763e+01 1.7610536505947223e+01 -6.1328337809618749e-01 0 0 0
1511 1 1.6910046693477298e+01 1.4568305775856372e+01 -6.6112203222860844e-01 -1 0 1
225 1 2.3369646202314478e+01 1.7421354186661212e+01 2.1782191075706030e+00 -1 0 0
209 1 2.3339079391651850e+01 1.4690363716999565e+01 2.0738426436793151e+00 -1 0 0
223 1 2.0548043311153492e+01 1.4389262991985879e+01 2.1192386637796954e+00 0 0 0
239 1 2.0535843102835798e+01 1.7738295122113385e+01 2.2138606700804049e+00 0 0 0
94 2 1.9077265753024236e+01 1.6026308854989196e+01 5.0308024675036145e-01 0 0 0
222 2 1.9095085490374629e+01 1.5965641721218047e+01 3.5911817020310810e+00 0 0 0
96 2 2.1821452964357420e+01 1.6102139212863776e+01 7.1667148057012575e-01 0 0 0
224 2 2.1869100938433100e+01 1.6027823132343386e+01 3.8605956753292991e+00 0 0 0
81 1 2.3396843445724649e+01 1.4495529816048194e+01 -7.6112732238276004e-01 -1 0 0
2013 1 2.0433803368169599e+01 1.4393530052530815e+01 -2.9333667410874381e-01 0 0 1
243 1 2.4346141230806162e+00 2.0396757779762666e+01 2.1809509141347685e+00 0 0 0
98 2 1.0893105321191381e+00 1.9105910737681953e+01 5.0096620604798492e-01 0 0 0
226 2 1.0026064135004600e+00 1.8853406820542965e+01 3.5436493977422563e+00 0 0 0
114 2 1.3041711499128925e+00 2.1992823317833754e+01 7.1451463456238740e-01 0 0 0
242 2 1.0893486591880481e+00 2.1860985385592329e+01 3.5864399140376531e+00 0 0 0
100 2 4.0697951920832010e+00 1.9159945763182385e+01 6.9761921363549040e-01 0 0 0
228 2 4.1392679047796062e+00 1.9016186611703702e+01 3.7559959455493237e+00 0 0 0
116 2 4.2231972986380901e+00 2.2347652585033863e+01 7.7799688855870075e-01 0 0 0
244 2 3.9020229682432559e+00 2.2231887167813341e+01 3.6320546253432244e+00 0 0 0
1937 1 2.3311430199888115e+00 2.0371281812562792e+01 -7.0174300473356666e-01 0 -1 1
67 1 5.7355629800467014e+00 2.1317475335789986e+01 -6.1187278400775691e-01 0 0 0
135 1 8.6144230853153481e+00 2.3342918889717339e+01 2.1579295589812650e+00 0 -1 0
245 1 5.5225245517211237e+00 2.0646628957385857e+01 2.3461609730689301e+00 0 0 0
247 1 8.3795302353450136e+00 2.0499184540159703e+01 2.1963298423958344e+00 0 0 0
102 2 6.9957671741357546e+00 1.8950045553526060e+01 7.9680436434776669e-01 0 0 0
230 2 7.0473106527297693e+00 1.9037444873563956e+01 3.7184965908089138e+00 0 0 0
118 2 6.9027387628162806e+00 2.1925894855347558e+01 7.4045735789670308e-01 0 0 0
246 2 7.1605679071513739e+00 2.2107685801012281e+01 3.6245436180064301e+00 0 0 0
137 1 1.1482104445529696e+01 2.3491747458499894e+01 2.1334758860375387e+00 0 -1 0
121 1 1.1309484550905408e+01 2.0485901687858060e+01 -6.9377851433145454e-01 0 0 0
249 1 1.1466809701200177e+01 2.0291697014381839e+01 2.1851482274433334e+00 0 0 0
104 2 9.7809746802576711e+00 1.9075053738390238e+01 8.8262002574117093e-01 0 0 0
232 2 9.9593691707622121e+00 1.8970860968181384e+01 3.6529614642972126e+00 0 0 0
120 2 1.0040209019469330e+01 2.1879215806253420e+01 6.3558203403399727e-01 0 0 0
248 2 9.9936169440704958e+00 2.2050577740972763e+01 3.6498189658944709e+00 0 0 0
106 2 1.3061813435786624e+01 1.8967136692089682e+01 7.5477065250945419e-01 0 0 0
234 2 1.3240929327963419e+01 1.8976929378276260e+01 3.6664413519824501e+00 0 0 0
122 2 1.2940749743146325e+01 2.1980213584176283e+01 6.8596817665180065e-01 0 0 0
250 2 1.2961135191350412e+01 2.1929303511698201e+01 3.6006271429290395e+00 0 0 0
139 1 1.4366354177590676e+01 2.3376837924590163e+01 2.2101978521711390e+00 0 -1 0
141 1 1.7618475425468169e+01 2.3375123658302336e+01 2.1702652118985069e+00 0 -1 0
13 1 1.7522602047179021e+01 2.3256664138888731e+01 -6.4516709146920315e-01 0 -1 0
251 1 1.4376185831823273e+01 2.0591377788679203e+01 2.2242748162616008e+00 0 0 0
253 1 1.7577400341191648e+01 2.0459554244738726e+01 2.2276326192642699e+00 0 0 0
108 2 1.6026973644233863e+01 1.9161353005258469e+01 7.7703862160572412e-01 0 0 0
236 2 1.6132577923935841e+01 1.8908547017594842e+01 3.6207343905598055e+00 0 0 0
124 2 1.6117100835046429e+01 2.1972799521735148e+01 7.4350985160121286e-01 0 0 0
252 2 1.6048552517764129e+01 2.2083412569967074e+01 3.6479112848349367e+00 0 0 0
123 1 1.4567171123817515e+01 2.0521673900283865e+01 -7.3023827080826731e-01 0 0 0
11 1 1.4542935100208920e+01 2.3377970503374861e+01 -6.8440347959242165e-01 0 -1 0
143 1 2.0739632783418585e+01 2.3436149522683777e+01 2.1481620161122899e+00 0 -1 0
241 1 2.3296102460969891e+01 2.0578166788516135e+01 2.1609758940934753e+00 -1 0 0
255 1 2.0546388387730076e+01 2.0633033957306523e+01 2.3185395915064406e+00 0 0 0
110 2 1.9221034412338895e+01 1.9183252072004528e+01 6.1163933010577298e-01 0 0 0
238 2 1.9015315834573890e+01 1.8992333014430379e+01 3.5060339460484258e+00 0 0 0
126 2 1.9062225837173472e+01 2.1841758500549183e+01 7.3250185045477734e-01 0 0 0
254 2 1.9022434646375658e+01 2.2048168029128462e+01 3.7582171449627735e+00 0 0 0
112 2 2.1979069700555605e+01 1.8992069981250509e+01 6.6426293124284608e-01 0 0 0
240 2 2.2098078168666255e+01 1.9191733568414705e+01 3.6430722314570501e+00 0 0 0
128 2 2.2107357958586043e+01 2.1881899745554975e+01 4.7251880038302563e-01 0 0 0
256 2 2.1936131695798245e+01 2.1893676824644494e+01 3.9349429195671304e+00 0 0 0
275 1 2.7209109948259740e+00 2.5890841925104287e+00 5.3489583120392385e+00 0 0 0
403 1 2.6004965215267868e+00 2.8052031930947074e+00 8.2053205048822431e+00 0 0 0
258 2 8.6983501326886503e-01 1.1420660779894001e+00 6.6553146817989433e+00 0 0 0
274 2 9.8336261518987467e-01 3.9193821932393069e+00 6.6560940804212541e+00 0 0 0
260 2 3.8533840320457760e+00 1.1352454393566402e+00 6.7277306636053602e+00 0 0 0
276 2 3.9767534140694654e+00 4.1584339861680064e+00 6.7634714643411415e+00 0 0 0
385 1 -3.8236481103841508e-01 -3.3221707928579214e-01 8.2368361794618608e+00 0 0 0
401 1 -2.7328870476701794e-01 2.7034290966890664e+00 8.2339455650850919e+00 0 0 0
259 1 2.3079265951000010e+00 -3.7323279093801359e-01 5.2422761548190140e+00 0 0 0
277 1 5.6190318496214449e+00 2.8242939071709916e+00 5.2600545295926127e+00 0 0 0
405 1 5.4441931916151800e+00 2.8471100911718952e+00 8.2050467398431142e+00 0 0 0
263 1 8.3621304086504935e+00 -3.4304290449605790e-01 5.3091169711597104e+00 0 0 0
391 1 8.5117928568004650e+00 -3.1658105816086568e-01 8.1434403991029107e+00 0 0 0
279 1 8.6503024121098822e+00 2.5405952382977985e+00 5.1641488664587465e+00 0 0 0
407 1 8.5741005990410315e+00 2.6350806889111804e+00 8.2203802979655034e+00 0 0 0
262 2 7.0510604023712791e+00 1.3383099424014300e+00 6.5432081684740986e+00 0 0 0
278 2 7.0505789685331122e+00 4.1301607462854220e+00 6.6383772827699676e+00 0 0 0
261 1 5.4169545521347890e+00 -3.5516344881463485e-01 5.1693233811979287e+00 0 0 0
393 1 1.1587295650374768e+01 -2.1210588161329585e-01 8.1367624779089827e+00 0 0 0
281 1 1.1480781687447150e+01 2.5390042053641357e+00 5.1699466409149109e+00 0 0 0
409 1 1.1723241844571604e+01 2.6114385622066800e+00 8.0395490888473606e+00 0 0 0
264 2 1.0067965378141801e+01 9.9333188749075707e-01 6.8446133711552841e+00 0 0 0
280 2 1.0059524414120544e+01 4.0850329784948292e+00 6.8735181150153881e+00 0 0 0
266 2 1.2865088029280235e+01 1.1327007776113458e+00 6.6757258775944281e+00 0 0 0
282 2 1.3123371796643786e+01 3.9838708300923997e+00 6.5538800567792386e+00 0 0 0
267 1 1.4321641734991269e+01 -2.6498012104699237e-01 5.2314915283166741e+00 0 0 0
283 1 1.4644034679299747e+01 2.4878869918787290e+00 5.0780109997699912e+00 0 0 0
411 1 1.4480939852262642e+01 2.8091332513989093e+00 8.1560399841963829e+00 0 0 0
269 1 1.7336107400846167e+01 -3.2873702453596743e-01 5.5835143499280653e+00 0 0 0
285 1 1.7411589855991615e+01 2.5072297372087320e+00 5.3117958202896673e+00 0 0 0
413 1 1.7773196869991928e+01 2.6397869977736468e+00 8.2659741978968277e+00 0 0 0
268 2 1.5934899132978979e+01 1.1914584079295731e+00 6.7676825289112923e+00 0 0 0
284 2 1.6115645986725070e+01 4.1157354084240581e+00 6.6753302168692592e+00 0 0 0
257 1 2.3434931158089796e+01 -3.7750510548266308e-01 5.0068097782310570e+00 -1 0 0
273 1 2.3434032815683430e+01 2.4584476800031494e+00 5.0089076106554327e+00 -1 0 0
399 1 2.0592321240207745e+01 -3.1450804298577034e-01 8.1672369448722044e+00 0 0 0
287 1 2.0482185269977755e+01 2.4099855769897669e+00 5.2200164843211443e+00 0 0 0
415 1 2.0514833402928708e+01 2.3480790350473861e+00 8.2549706297517407e+00 0 0 0
270 2 1.9121101768648437e+01 1.0178191593597365e+00 6.7320691291914869e+00 0 0 0
286 2 1.9110092081739182e+01 3.9036381463287029e+00 6.6665409442494301e+00 0 0 0
272 2 2.2003984013229136e+01 1.1906373372776582e+00 6.8247829305618781e+00 0 0 0
288 2 2.1869846633549514e+01 3.8613634201623173e+00 6.6575746800366105e+00 0 0 0
291 1 2.3764696593829266e+00 5.6454366514219601e+00 5.2702613849381272e+00 0 0 0
419 1 2.5564307849859125e+00 5.8130501325326280e+00 8.1720685731836777e+00 0 0 0
307 1 2.5901032987484487e+00 8.6269224126208783e+00 5.4035958172959786e+00 0 0 0
435 1 2.6604927570749370e+00 8.8370477424475364e+00 8.0705566541633935e+00 0 0 0
290 2 1.0638199913040574e+00 7.2235809499117654e+00 6.8738685767071130e+00 0 0 0
292 2 4.1733383883464903e+00 7.0968025715922147e+00 6.7957355831646478e+00 0 0 0
417 1 -3.5819216107010499e-01 5.7413989199378586e+00 8.3201520447721844e+00 0 0 0
433 1 -3.5905431780246311e-01 8.5558380885873007e+00 8.3828344349653818e+00 0 0 0
293 1 5.4289641668518342e+00 5.6101481285064478e+00 5.0171012913981166e+00 0 0 0
421 1 5.5496334894836705e+00 5.4594103787571031e+00 8.3125234459170123e+00 0 0 0
309 1 5.4629615287797400e+00 8.5850110647243127e+00 5.3973523882704475e+00 0 0 0
437 1 5.8056063950249435e+00 8.6790406070124781e+00 8.1249118231969248e+00 0 0 0
295 1 8.6046893863646261e+00 5.6660134861274898e+00 5.4964856614963544e+00 0 0 0
423 1 8.6514488782476171e+00 5.6316355890050058e+00 8.1661736262057385e+00 0 0 0
311 1 8.5430091729295707e+00 8.5554685212905603e+00 5.2914637940091511e+00 0 0 0
439 1 8.4838472494347048e+00 8.5230502568966511e+00 8.2151228743738791e+00 0 0 0
294 2 7.0113859448378886e+00 7.0297085489126383e+00 6.7264786363799596e+00 0 0 0
297 1 1.1880826422099751e+01 5.7168340935357858e+00 5.2325107331238065e+00 0 0 0
425 1 1.1641394195974511e+01 5.6969158341748800e+00 8.2055518293991163e+00 0 0 0
313 1 1.1569447546782456e+01 8.6424457618291637e+00 5.1373593326978124e+00 0 0 0
441 1 1.1785122486735100e+01 8.5850310187835337e+00 8.2425657556525067e+00 0 0 0
296 2 1.0311832063247355e+01 7.2263174691979986e+00 6.7386986927007246e+00 0 0 0
298 2 1.3104021306226397e+01 7.1607247446509179e+00 6.6496568078145355e+00 0 0 0
299 1 1.4610404741079511e+01 5.5748702092286937e+00 5.2995312042102043e+00 0 0 0
427 1 1.4641088470931338e+01 5.6167576849396852e+00 8.2760850148687659e+00 0 0 0
315 1 1.4617785398641059e+01 8.8360644625707661e+00 5.1333014936538204e+00 0 0 0
443 1 1.4410986784838538e+01 8.5504558465294505e+00 8.2032385740172877e+00 0 0 0
301 1 1.7559917194128985e+01 5.5721261702305798e+00 5.2665798985559826e+00 0 0 0
429 1 1.7725446630216453e+01 5.6805213866002680e+00 8.1747329518058507e+00 0 0 0
317 1 1.7485310501748735e+01 8.5672858606506903e+00 5.3328621006190584e+00 0 0 0
445 1 1.7522962939782325e+01 8.2826389401692140e+00 8.1397104100363169e+00 0 0 0
300 2 1.5987658704324756e+01 7.1986018578859889e+00 6.8321866813373315e+00 0 0 0
289 1 2.3461297421165540e+01 5.4988598852623234e+00 5.2329067834090228e+00 -1 0 0
305 1 2.3437729537565438e+01 8.6265322801852857e+00 5.2007275528057439e+00 -1 0 0
303 1 2.0612095868502074e+01 5.4262821851694820e+00 5.0596029732293903e+00 0 0 0
431 1 2.0873385709090883e+01 5.6244724789159033e+00 8.1394147645805361e+00 0 0 0
319 1 2.0454120876282680e+01 8.4223170254967172e+00 5.1941699432857558e+00 0 0 0
447 1 2.0510307059148602e+01 8.5237691354061127e+00 7.9901700210448059e+00 0 0 0
302 2 1.9330580783349667e+01 6.6686426723653920e+00 6.7252947517232666e+00 0 0 0
304 2 2.2125774468333489e+01 7.0635609497002223e+00 6.7816743765166247e+00 0 0 0
323 1 2.6751960873701099e+00 1.1592949653778827e+01 5.1369588399138788e+00 0 0 0
451 1 2.6447515373966937e+00 1.1593636999238106e+01 8.3282055850843157e+00 0 0 0
306 2 1.0735435912872202e+00 1.0230000262121331e+01 6.7703490705231912e+00 0 0 0
322 2 1.2073243249155217e+00 1.3106246774256366e+01 6.6521925513275688e+00 0 0 0
308 2 4.0469678111685337e+00 1.0203078388997868e+01 6.8302406736546573e+00 0 0 0
324 2 4.1088619481481539e+00 1.3156972003683519e+01 6.6262122358324014e+00 0 0 0
325 1 5.6163702617344953e+00 1.1575297586848114e+01 5.2905559262536102e+00 0 0 0
453 1 5.6747697548229636e+00 1.1642993244075539e+01 8.2758564268139700e+00 0 0 0
327 1 8.7340223009229732e+00 1.1488034629038113e+01 5.3364365837145620e+00 0 0 0
455 1 8.5476897118227715e+00 1.1476006186606993e+01 8.1920232090088927e+00 0 0 0
310 2 7.1405214863778070e+00 1.0122782334520714e+01 6.7268195496642180e+00 0 0 0
326 2 7.0992347255760553e+00 1.3220670999913812e+01 6.6592930550587308e+00 0 0 0
329 1 1.1363098265609414e+01 1.1459288594530355e+01 5.2967834882648095e+00 0 0 0
457 1 1.1720772999333342e+01 1.1583559296873048e+01 8.3482953059825586e+00 0 0 0
312 2 1.0168513927966675e+01 9.9270368881954667e+00 6.8892900121057057e+00 0 0 0
328 2 1.0073703078460367e+01 1.3075369201536555e+01 6.7751003607295370e+00 0 0 0
314 2 1.2987385521817316e+01 1.0084468184033176e+01 6.6169791315473487e+00 0 0 0
330 2 1.3066521878664894e+01 1.2992440267272441e+01 6.8070357295099919e+00 0 0 0
331 1 1.4666877981287398e+01 1.1797271987335751e+01 5.4590357697439487e+00 0 0 0
459 1 1.4480903229261584e+01 1.1237363063201437e+01 8.1084036147775347e+00 0 0 0
333 1 1.7458205107489540e+01 1.1686165428908540e+01 5.2910530869919965e+00 0 0 0
461 1 1.7694573140299582e+01 1.1314738981473333e+01 8.2324980816335191e+00 0 0 0
316 2 1.6194430343694023e+01 1.0025218122949509e+01 6.6520591014159809e+00 0 0 0
332 2 1.6092298079631171e+01 1.3210618317575376e+01 7.0998558515941204e+00 0 0 0
321 1 2.3461641815380389e+01 1.1769512653211949e+01 5.2269603437392496e+00 -1 0 0
449 1 2.3440838386352056e+01 1.1475810228178794e+01 8.3868755967426303e+00 -1 0 0
335 1 2.0409132220179060e+01 1.1585072096587304e+01 5.3864059903483250e+00 0 0 0
463 1 2.0547195869070102e+01 1.1393805200914711e+01 8.1730698723711761e+00 0 0 0
318 2 1.9086615199037062e+01 9.7842971962693550e+00 6.6292687537804378e+00 0 0 0
334 2 1.8992326757347534e+01 1.2967972732400415e+01 7.0239258251758665e+00 0 0 0
320 2 2.2069895427003715e+01 1.0183069449213590e+01 6.6206110728499992e+00 0 0 0
336 2 2.1995772570047656e+01 1.3176354075851380e+01 6.5216327618841614e+00 0 0 0
339 1 2.6102408839026063e+00 1.4697191838330982e+01 5.0850865603744024e+00 0 0 0
467 1 2.6925396149292249e+00 1.4579689675287895e+01 8.1539676311606630e+00 0 0 0
355 1 2.5319350203206707e+00 1.7559578930547744e+01 5.1614326901448919e+00 0 0 0
483 1 2.8222941278267171e+00 1.7430603022964277e+01 8.1164749756386456e+00 0 0 0
338 2 1.0279479752563656e+00 1.6104535638451537e+01 6.5666186077591977e+00 0 0 0
340 2 4.2871199400729196e+00 1.5879402129061566e+01 6.5759092257968419e+00 0 0 0
337 1 -1.3311114146896041e-01 1.4620520153059152e+01 5.1844185390762130e+00 0 0 0
465 1 -2.8299322858166820e-01 1.4577004217825186e+01 8.1855856951224393e+00 0 0 0
341 1 5.6999009349915362e+00 1.4541131545860846e+01 5.1023863458259937e+00 0 0 0
469 1 5.6187825915402323e+00 1.4637244263676273e+01 8.3029100365502693e+00 0 0 0
357 1 5.4941261160361057e+00 1.7518113194040502e+01 5.1441835392837030e+00 0 0 0
485 1 5.5054914790108551e+00 1.7582413317926722e+01 8.0461037511071254e+00 0 0 0
343 1 8.8419201647809516e+00 1.4583184944434214e+01 5.2448465385739178e+00 0 0 0
471 1 8.6060869162295095e+00 1.4754244180033677e+01 8.1407948855700276e+00 0 0 0