LAMMPS data file via write_data, version 29 Oct 2020, timestep = 400000

2048 atoms
1 atom types

-0.12520996203156542 28.477209962029274 xlo xhi
-0.12520996203156542 28.477209962029274 ylo yhi
-0.12520996203156542 28.477209962029274 zlo zhi

Masses

1 58.933

Atoms # atomic

8 1 3.3971384343788773 1.7847750220887053 1.4290479839115224 0 0 0
35 1 1.4708761075569865 3.3929056597104355 1.7078345575644365 0 0 0
130 1 1.7988665308851453 1.826387974859319 3.5285102870837926 0 0 0
165 1 3.5219216158592466 3.583258669830253 3.2973279975837357 0 0 0
133 1 3.615976541904671 -0.05934077404175954 3.39875120924672 0 0 0
3 1 1.579211484506173 -0.08672833126970617 1.650383630904332 0 0 0
387 1 1.6255570551761191 -0.1039614192675451 12.445887964446468 0 0 0
393 1 7.1922151781597785 -0.08721804274956924 10.629700050778291 0 0 0
1433 1 21.39247764406627 14.014871160482478 10.615340115802775 0 0 0
12 1 7.001928067397289 1.6474968726463266 1.7238785180325025 0 0 0
39 1 5.323644162402697 3.472030751260631 1.4566262940441865 0 0 0
134 1 5.18572611449536 1.888617537721566 3.3410606062325217 0 0 0
169 1 6.961897202456726 3.4098633450359506 3.585474585466348 0 0 0
137 1 6.922338611095098 -0.06805663040388177 3.343535172394622 0 0 0
7 1 5.1991433970974255 0.146132613680922 1.5210919041247466 0 0 0
9 1 7.073460363167863 -0.0620933063248624 0.018415693385132936 0 0 0
10 1 8.780980571678358 1.6430054695883252 -0.09166347636126249 0 0 0
16 1 10.603743889623576 1.7704846730865484 1.6132026511083333 0 0 0
43 1 8.722304116378213 3.377313940615728 1.6140640646662388 0 0 0
138 1 8.813270186492344 1.7270610099229826 3.469815578491679 0 0 0
173 1 10.767014183172858 3.284794890979422 3.5186811172314973 0 0 0
141 1 10.66999029189986 -0.04661107976238471 3.3764001613291454 0 0 0
20 1 14.201630294453116 1.715943449969188 1.7304766062087713 0 0 0
47 1 12.338624326534028 3.457355856295731 1.5891430104273783 0 0 0
51 1 16.06506385248727 3.5786046249903354 1.6907929848290284 0 0 0
142 1 12.446730971587339 1.64812318681439 3.2776269728345504 0 0 0
146 1 15.985164256630739 1.5548738259327246 3.4593950442381387 0 0 0
177 1 14.186204434291785 3.449642050733441 3.4284298149552628 0 0 0
1435 1 23.22067750706052 14.168572981908987 12.468942831529368 0 0 0
484 1 28.454381076872767 12.398135123252912 12.372760371834412 -1 0 0
24 1 17.80003248226579 1.6756397232277922 1.4894522828295342 0 0 0
55 1 19.457507765764245 3.4176127381761594 1.5723418411734906 0 0 0
150 1 19.545950437099616 1.6456842965943181 3.38546632211326 0 0 0
181 1 17.580957598436644 3.3986927440994337 3.5148187462721534 0 0 0
1429 1 17.717512242886045 14.10975220509714 10.566146748956266 0 0 0
149 1 17.7704104391651 -0.0637458292007899 3.397700053871429 0 0 0
23 1 19.507492646682817 -0.11349963932953824 1.7174442507855896 0 0 0
28 1 21.324989389306765 1.838616857960178 1.6153195691115794 0 0 0
59 1 23.251998411906097 3.395363810638897 1.8067144094343184 0 0 0
154 1 23.314185311318273 1.6938154464514519 3.578454164484601 0 0 0
185 1 21.311450678420048 3.4393384458126994 3.49433950492147 0 0 0
57 1 21.51711203103385 3.39754809150958 -0.11653986925733076 0 0 0
161 1 28.418366242998957 3.515894233656842 3.5201521654862122 -1 0 0
129 1 0.006987928053778347 0.08046708363408359 3.4472165595620754 0 0 0
4 1 28.34253463026666 1.7087943929735874 1.691257143202745 -1 0 0
32 1 24.8709349239847 1.637452664048612 1.6084610319578598 0 0 0
63 1 26.606026534915564 3.3815696081786277 1.5858334274761725 0 0 0
158 1 26.656412691818687 1.7050597029167276 3.546950554547013 0 0 0
189 1 24.95313971815372 3.412540338111919 3.5266952194527197 0 0 0
509 1 25.074402042357477 10.543248056538426 10.704910542095488 0 0 0
33 1 28.280796951941475 3.518820610016934 -0.11292933120609763 -1 0 0
30 1 26.66971886525268 1.5844407633906252 -0.1143654218411191 0 0 0
40 1 3.728215556939357 5.2937010441984995 1.6298375168983479 0 0 0
67 1 1.6172637131966254 6.95864992727449 1.6151898876179656 0 0 0
72 1 3.411755821794319 8.773964035546355 1.6153356016005207 0 0 0
162 1 1.8006087334093015 5.2413134309546034 3.3539824987661313 0 0 0
194 1 1.7136977465914687 8.754786833760408 3.40753027551304 0 0 0
197 1 3.50027592366235 6.914479176889098 3.37080309611692 0 0 0
68 1 28.359463146237673 8.806033170902154 1.688307805384892 -1 0 0
1431 1 19.552949029565504 13.973936960892825 12.393646810434449 0 0 0
193 1 -0.12198825554204816 6.972765307275222 3.5140914436125628 0 0 0
36 1 28.44826105168891 5.164134953972248 1.7414608996112655 -1 0 0
69 1 3.4325689090729217 7.056981076011845 -0.12499601142896372 0 0 0
44 1 6.935249655987888 5.220115981881597 1.7209972564067102 0 0 0
71 1 5.339173581993994 7.016404388022974 1.6642596784848291 0 0 0
76 1 7.1462398187153005 8.849754960083471 1.555671488475653 0 0 0
166 1 5.199610095935192 5.101530435094358 3.521318170865994 0 0 0
198 1 5.281591833223949 8.8820059975399 3.378965155348986 0 0 0
201 1 6.998630304054951 7.036981532423066 3.456264504560976 0 0 0
73 1 7.1062069118165 7.0779464710289535 -0.09802273805181289 0 0 0
1427 1 16.0172757248798 14.166701421477148 12.31714533641854 0 0 0
70 1 5.357403794791271 8.794538844208994 -0.04841191697559431 0 0 0
48 1 10.45355192630199 5.085421809560688 1.6881177217112309 0 0 0
75 1 8.732437061006907 6.971111417643044 1.67249537981217 0 0 0
80 1 10.763887723437396 8.697971880712974 1.8277663856319841 0 0 0
170 1 8.75928433172157 5.27125548769171 3.4836686463048405 0 0 0
202 1 8.938110059802531 8.654843594555508 3.47820290362341 0 0 0
205 1 10.766244066626953 6.96353248300731 3.506402207728298 0 0 0
52 1 14.292256875597499 5.1958299102232015 1.5509131077058118 0 0 0
79 1 12.434272025733005 6.808190644251743 1.630652137698221 0 0 0
81 1 14.27663068590639 6.99639420101833 -0.10560175213448737 0 0 0
83 1 15.941372188192467 6.878800640085666 1.8305716814710844 0 0 0
84 1 14.26418479955541 8.664537837405799 1.7221727146415324 0 0 0
174 1 12.43723233924286 5.19726930130793 3.3084470645448816 0 0 0
178 1 15.818828971581317 5.186926824826731 3.6144835127170536 0 0 0
206 1 12.524145021506799 8.714954599569527 3.488228802729445 0 0 0
209 1 14.165516662967393 6.96547469082138 3.5599514502024587 0 0 0
210 1 16.04413247889747 8.702392680907634 3.574610272077357 0 0 0
56 1 17.730116966289934 5.271126467444753 1.6351867764725454 0 0 0
87 1 19.4586148064314 6.9522206953615235 1.798028674524275 0 0 0
88 1 17.755063644284583 8.805228394236508 1.5970806883454662 0 0 0
182 1 19.577784781734387 5.232989735268888 3.560978106485804 0 0 0
213 1 17.719563286717367 6.862948197496346 3.6371185157098016 0 0 0
214 1 19.452110024137014 8.507889806903126 3.5209943541410165 0 0 0
1421 1 10.626227096235988 14.095730405455791 10.666793232620254 0 0 0
60 1 21.335306418645366 5.174829240384766 1.6422989588316077 0 0 0
91 1 23.09448801676515 6.926500028073539 1.648254211702514 0 0 0
92 1 21.218060539589477 8.793216560353946 1.8117029477578674 0 0 0
186 1 23.196028624404043 5.115363910831746 3.430869654102662 0 0 0
217 1 21.324069444598333 6.85000325849341 3.3583590404205577 0 0 0
218 1 22.981187607994492 8.617301839548382 3.492709103454651 0 0 0
58 1 23.113158032769316 5.207635893671647 -0.09967687975639006 0 0 0
89 1 21.307490896411547 7.056407374963857 -0.03808701255035275 0 0 0
285 1 24.890718399853803 -0.06393061136951061 7.0165757820243035 0 0 0
64 1 24.88205678131122 5.245648303285584 1.6227724813873263 0 0 0
95 1 26.62118956421304 6.9485671727420915 1.6701787481300328 0 0 0
96 1 24.836133364827145 8.80002508934807 1.7093758293645829 0 0 0
190 1 26.62755247706937 5.275966020424835 3.413304629947719 0 0 0
221 1 24.792906955125407 7.1331596264407535 3.385334815851614 0 0 0
222 1 26.781189348462238 8.777252554133396 3.514923858001967 0 0 0
159 1 26.646740153300133 0.008320884473647538 5.164987703508417 0 0 0
99 1 1.4734943517603318 10.639205906702815 1.672539521714134 0 0 0
104 1 3.3951549802965832 12.305688409669994 1.788353609082928 0 0 0
226 1 1.622989050269415 12.499809509766028 3.50349716366469 0 0 0
229 1 3.4723262784180857 10.540808974244507 3.4213276345832617 0 0 0
225 1 28.26475752925702 10.653279521707919 3.433709587990071 -1 0 0
97 1 28.436043855848823 10.704810990676048 -0.05038349175861766 -1 0 0
100 1 28.411549699221656 12.425746113297487 1.670690457715804 -1 0 0
510 1 26.84506954831846 12.431300037087643 10.544571392955294 0 0 0
101 1 3.4094510539741436 10.51543005425244 0.020042312990403904 0 0 0
103 1 5.309660923240255 10.578800182473593 1.6478091180140813 0 0 0
108 1 7.148050494033564 12.380570330530162 1.4847596779490553 0 0 0
230 1 5.207760434095321 12.50503065246134 3.3085562997066793 0 0 0
233 1 7.103918192837135 10.543585442376479 3.30593746629818 0 0 0
511 1 26.80657924813606 10.503891017335478 12.256569390236642 0 0 0
512 1 25.041945714541185 12.456578817809227 12.369711944633428 0 0 0
637 1 25.087858318135627 10.51154400238664 14.119364999447289 0 0 0
102 1 5.1139170570748185 12.546566097763677 0.08888654034436927 0 0 0
139 1 9.051826591510352 -0.07633361108651471 5.217148290064268 0 0 0
107 1 8.846553148463677 10.713828743031138 1.5848415799117308 0 0 0
112 1 10.581620317634437 12.387942663413181 1.574810685230885 0 0 0
234 1 8.817616714474111 12.445446034677937 3.3736058845284793 0 0 0
237 1 10.52985224124068 10.601059667246158 3.3920212862657375 0 0 0
505 1 21.464406009765295 10.601371253916914 10.507356996107868 0 0 0
506 1 23.20500053970385 12.384384708976146 10.683695574783298 0 0 0
111 1 12.40990963917508 10.472323988714784 1.7528929897781858 0 0 0
115 1 15.895082900495922 10.655640495267573 1.7093320217737453 0 0 0
116 1 14.150215466263893 12.395543835672074 1.8273948699143994 0 0 0
238 1 12.437289092216753 12.31702640964807 3.4378760501764267 0 0 0
241 1 14.158392517560445 10.456740623881934 3.487520515895021 0 0 0
242 1 15.803075859735307 12.385842801870139 3.48540648285455 0 0 0
265 1 7.107477026605571 -0.03981920193350419 6.9716602885279615 0 0 0
1309 1 24.830707207870184 13.935933629316658 6.818296134036733 0 0 0
119 1 19.50893049780741 10.599357801570212 1.7410898657252631 0 0 0
120 1 17.545198268931667 12.404555421338356 1.6824967521394698 0 0 0
245 1 17.764359019176663 10.37356709400191 3.364774485419836 0 0 0
246 1 19.378731253432587 12.275004727845944 3.4592030080702196 0 0 0
1179 1 22.877838102063887 14.129834025143854 5.185800275129871 0 0 0
1047 1 19.424051383429948 14.027195103254495 1.5857185926767867 0 0 0
1173 1 17.69362086999014 14.090390761731527 3.477935103382092 0 0 0
123 1 23.002218559497354 10.633430451491853 1.7386818143601668 0 0 0
124 1 21.21496835936978 12.305637428950511 1.7199130460236138 0 0 0
249 1 21.129164834258418 10.475565678888831 3.610418243103324 0 0 0
250 1 22.835876434015056 12.384245693523273 3.4710198590890453 0 0 0
1307 1 23.158037263148124 14.018889400888465 8.882902075554899 0 0 0
121 1 21.2122193059025 10.623971144320041 -0.0407740564898386 0 0 0
127 1 26.532360908867133 10.546028062882788 1.513780878271699 0 0 0
128 1 24.639090196167572 12.39661728288243 1.7320978248990484 0 0 0
253 1 24.965368520033795 10.602111003170263 3.414015247968961 0 0 0
254 1 26.498353284643127 12.334127306756857 3.235998669995157 0 0 0
1055 1 26.650810028603765 14.073477553809727 1.5355602867783336 0 0 0
1175 1 19.277075424580527 14.164912267572541 5.370864919865636 0 0 0
131 1 1.781843705954818 0.0385589951422706 5.1463925453495625 0 0 0
136 1 3.545200375588699 1.698760478761232 5.115403878884615 0 0 0
163 1 1.6776659211997977 3.5063893145833864 5.240628890477413 0 0 0
258 1 1.6951981084260666 1.737464446750892 6.85561905742588 0 0 0
264 1 3.5647622651642554 1.6782942655931328 8.806432528435266 0 0 0
291 1 1.8036372896329345 3.45865667747347 8.88231199176088 0 0 0
293 1 3.436618339760113 3.505763959009174 6.9792548391443585 0 0 0
289 1 -0.1200723396194161 3.387810481003916 7.104982727481646 0 0 0
259 1 1.7807956726965009 -0.0399307075316858 8.785728873361512 0 0 0
261 1 3.4419244082565807 0.06826386320951439 7.031541961423669 0 0 0
135 1 5.281198062824077 -0.060438293275425437 5.179857368740719 0 0 0
140 1 7.1325984152383715 1.6168314963173924 5.138676132205893 0 0 0
167 1 5.258816952129466 3.405665885549372 5.36653074729477 0 0 0
262 1 5.347040175228984 1.5895894746742631 7.008539784675268 0 0 0
268 1 7.1030393515185315 1.7716793987281836 8.761356434185842 0 0 0
295 1 5.4001630222481465 3.4703340255437456 8.738458749566988 0 0 0
297 1 7.089221292187934 3.466134900941054 6.9996919493184055 0 0 0
507 1 23.309796619866166 10.63464362989106 12.45765734398219 0 0 0
144 1 10.715136716524562 1.686758705580295 5.19403978359975 0 0 0
171 1 8.839668166115457 3.384402380994843 5.296202349492772 0 0 0
266 1 8.895268258568038 1.5348320102164121 7.057611739373314 0 0 0
272 1 10.868198792098529 1.7000125354143254 8.925427098013223 0 0 0
299 1 8.874011516857456 3.4538880385218924 8.805455993013728 0 0 0
301 1 10.552632505612303 3.4225817800026164 6.971808004729933 0 0 0
267 1 8.809481187505494 -0.031749342801551256 8.845601274363613 0 0 0
508 1 21.408858101284917 12.33253770355941 12.450218131446693 0 0 0
273 1 13.962275582821713 -0.11104310899396688 6.838560593486396 0 0 0
275 1 15.740245259204782 -0.01387090383604464 8.825266135532392 0 0 0
148 1 14.131859337225007 1.5193091628857185 5.0615168772441015 0 0 0
175 1 12.470027624274856 3.412786089148443 5.325988406136091 0 0 0
179 1 15.848885093921915 3.326974110619198 5.177157249180417 0 0 0
270 1 12.33540065989216 1.6110346231292207 6.9936933205077825 0 0 0
274 1 15.9043259741653 1.539367333151907 7.008316791598179 0 0 0
276 1 13.864206415695458 1.5621370468196984 8.916375094836301 0 0 0
303 1 12.31626487362666 3.4826733368823874 8.98675051026551 0 0 0
305 1 14.191312605258137 3.1605057278304645 7.10441204055242 0 0 0
307 1 16.14126940061498 3.4384139546619394 8.754907076034797 0 0 0
1297 1 14.142459011282128 14.171789717971256 7.293228699729266 0 0 0
634 1 23.155949541539243 12.454711479524104 14.107804415146108 0 0 0
277 1 17.69695106646107 -0.105987598545209 7.100142035839923 0 0 0
152 1 17.723008023803672 1.683860592359488 5.265318643814891 0 0 0
183 1 19.542306030963807 3.2727974173299557 5.41636635349898 0 0 0
278 1 19.535204161223945 1.5311505874678681 7.116925951606824 0 0 0
280 1 17.656557718836464 1.4976810608337319 8.755882995303535 0 0 0
309 1 17.837992206731343 3.450495747488831 7.06888773232265 0 0 0
311 1 19.628260824513163 3.58754753603216 8.792280265271009 0 0 0
629 1 17.851942572620306 10.736785857561363 14.165784958086293 0 0 0
155 1 23.263087762280218 -0.12190900021328989 5.252509877421288 0 0 0
501 1 17.739808897674546 10.466450311442292 10.549418961432316 0 0 0
156 1 21.338436455526445 1.6017901671474848 5.164796779664716 0 0 0
187 1 23.077653978921596 3.3993382503164318 5.464900491951255 0 0 0
282 1 23.130932550697302 1.57073871903277 7.161222196957738 0 0 0
284 1 21.31123410757583 1.6405117748049982 8.92660125838482 0 0 0
313 1 21.395763628145975 3.244007842583378 7.127847881110374 0 0 0
315 1 23.18423096632002 3.4419777805051153 8.854993235575272 0 0 0
257 1 28.436109730812273 -0.1063824049597741 6.936591713220063 -1 0 0
260 1 0.02915200754716807 1.5809948658311934 8.93180696018349 0 0 0
132 1 28.42624289052078 1.7903844361463217 5.262704458839601 -1 0 0
160 1 24.993390273823348 1.7870631881887273 5.477422055178804 0 0 0
191 1 26.724186884394797 3.5644776754326863 5.169421627752919 0 0 0
286 1 26.734323617966442 1.7709470763012893 7.104007059996458 0 0 0
288 1 24.92032198573941 1.506220202230381 8.84296540638607 0 0 0
317 1 24.848814824489462 3.59147589304455 7.048172269237152 0 0 0
319 1 26.62547475696722 3.3467666837382746 8.761641471373059 0 0 0
168 1 3.5014519632601604 5.215824259714145 5.185623178882052 0 0 0
195 1 1.7062547526867466 6.9672229998695245 5.131813975551209 0 0 0
200 1 3.435196637672155 8.83369833153266 5.1519106245546125 0 0 0
290 1 1.6725815272628586 5.261650408530375 6.952896645208027 0 0 0
296 1 3.5439986477380843 5.20479141629092 8.817312675388187 0 0 0
322 1 1.5724107853343314 8.759723419123109 7.015088107777291 0 0 0
323 1 1.5639698091199121 6.967181874014478 8.697573402014127 0 0 0
325 1 3.364358567345601 7.062468342900565 6.993664567698672 0 0 0
328 1 3.2640922003044293 8.829805159305126 8.689366583016197 0 0 0
164 1 28.47451403779471 5.227202229720511 5.182887180997119 -1 0 0
196 1 -0.0005638716198266974 8.825501436663378 5.201229846520174 0 0 0
321 1 -0.07454428339996294 6.997270277942442 6.933682328249868 0 0 0
172 1 6.998698933218658 5.298650483590782 5.217304580649216 0 0 0
199 1 5.116816566437811 7.108568753471019 5.262447070153092 0 0 0
204 1 6.975780874876317 8.828017264212226 5.231708699324634 0 0 0
294 1 5.174699304719965 5.292316754739812 6.929822226150338 0 0 0
300 1 7.149396567091205 5.252911014615198 8.773761709405239 0 0 0
326 1 5.170557341249892 9.024297428991403 6.961863909758115 0 0 0
327 1 5.003568864681713 6.9743700292346205 8.780356197227743 0 0 0
329 1 6.984083612639796 7.1400164547106835 7.077841236126048 0 0 0
332 1 7.036739681029308 8.81420349404899 8.83165122315057 0 0 0
176 1 10.737184604298179 5.213398392404946 5.305658171777406 0 0 0
203 1 8.766576801518822 7.022530712315316 5.224243414333003 0 0 0
208 1 10.67441631269348 8.724959985945974 5.191259445736241 0 0 0
298 1 8.939990066534177 5.167009797890486 7.045523397604249 0 0 0
304 1 10.51409657634895 5.146299776511486 8.822180639925666 0 0 0
330 1 9.161282066229678 8.790048455592878 6.950694115283212 0 0 0
331 1 8.745976605563303 7.05266339651977 8.678014403773577 0 0 0
333 1 10.496566490644932 6.909254085651296 7.097434564036553 0 0 0
336 1 10.390475589665742 8.786800788778534 8.944392269310674 0 0 0
180 1 13.957033552987356 5.202097639964801 5.380001876462292 0 0 0
207 1 12.303483443982223 6.880226069147844 5.3939916644521695 0 0 0
211 1 16.14665510308764 6.856238136739255 5.3610086803397 0 0 0
212 1 14.203233295457727 8.859449008768415 5.275525139478716 0 0 0
302 1 12.287608206185677 5.137678956339777 7.180087043624485 0 0 0
306 1 16.089454373407936 5.098757435993891 7.025545717135839 0 0 0
308 1 14.240377920847141 5.011736391229124 8.741140532859264 0 0 0
334 1 12.31879616066232 8.84508793005149 7.017322067684609 0 0 0
335 1 12.432244122185741 6.88087079669617 8.860221751108428 0 0 0
337 1 14.239223706966932 6.895107120289329 7.041818851363687 0 0 0
338 1 16.011941051468717 8.707704896064882 6.976249610684066 0 0 0
339 1 15.97309595275809 6.909249769634214 8.695071590960511 0 0 0
340 1 14.1522878969032 8.788054257207762 8.665196231966991 0 0 0
184 1 17.854753862007517 5.071508856081845 5.33598411165758 0 0 0
215 1 19.426295569900912 7.010287691623244 5.258684007629751 0 0 0
216 1 17.70812995026829 8.795046733583414 5.2429922571435466 0 0 0
310 1 19.605689903681633 5.1933237304404765 6.950216830298604 0 0 0
312 1 17.822900484231766 5.366847141572544 8.803876581693162 0 0 0
341 1 17.907058953916433 6.996760540159905 6.981625826260798 0 0 0
342 1 19.587325481146003 8.78316562092703 7.062299137345012 0 0 0
343 1 19.65302053601316 7.011930139964084 8.932827399301292 0 0 0
344 1 17.650467268367198 8.809447996780483 8.885295700992742 0 0 0
188 1 21.315453161570108 5.106885153945105 5.173477833590281 0 0 0
219 1 23.099208690811608 6.890225319406177 5.270264977742892 0 0 0
220 1 21.168016572088046 8.685014606103044 5.131622419365264 0 0 0
314 1 23.019250955282438 5.343902607659139 7.121562589720422 0 0 0
316 1 21.306723726317536 5.263699042525036 8.6873257663643 0 0 0
345 1 21.347197787880305 7.052695303486973 6.947316681423799 0 0 0
346 1 23.139019520466388 8.753120987732967 7.052981269148371 0 0 0
347 1 22.998579824050253 7.065051402496235 8.687086158265698 0 0 0
348 1 21.374490365804302 8.912270811739191 8.781582597341352 0 0 0
292 1 -0.11744283500315689 5.1731381801366485 8.903091867452165 0 0 0
324 1 28.47367678850344 8.836410791170785 8.720813119304282 -1 0 0
192 1 24.843228048849607 5.210194887736329 5.180467090619056 0 0 0
223 1 26.516999890640932 7.034000829553552 5.196140612502183 0 0 0
224 1 24.840337544191975 9.023398114750405 5.196614255399467 0 0 0
318 1 26.62755642801109 5.300366702629868 6.810953054552862 0 0 0
320 1 25.073202330026817 5.2437025905773025 8.864296213156472 0 0 0
349 1 24.891840406534783 7.062896871302634 7.094380910027516 0 0 0
350 1 26.78686125501527 8.715662930823887 6.989686072832714 0 0 0
351 1 26.68343813382674 7.043247683228914 8.746459496938241 0 0 0
352 1 24.923691693739524 8.736109536503562 8.863220586850511 0 0 0
227 1 1.5926277924233125 10.605148374557533 5.083345244236803 0 0 0
232 1 3.301768225070492 12.398507166770294 5.200598033103027 0 0 0
354 1 1.6008201135222424 12.330795400994948 7.103704838871196 0 0 0
355 1 1.472095739930846 10.569182709146459 8.7429828540186 0 0 0
357 1 3.4194229002961367 10.68554037459393 6.940268662384302 0 0 0
360 1 3.406641624159104 12.298548369029506 8.820324457364572 0 0 0
228 1 -0.10607315041551615 12.419026079405805 5.249040340324756 0 0 0
1283 1 1.6920292268890924 14.106051888197666 8.741177446936236 0 0 0
1285 1 3.387282884309817 14.174663132875716 7.058871576540247 0 0 0
231 1 5.249152489478288 10.692691404354846 4.992345407455336 0 0 0
236 1 7.092018948686251 12.384387080320472 5.211118055155203 0 0 0
358 1 5.291791918935047 12.295447137516959 6.921821966144906 0 0 0
359 1 5.28494125291817 10.699784540932937 8.806069568371981 0 0 0
361 1 7.05112052378385 10.436447156751612 6.890874381921667 0 0 0
364 1 7.017280667208945 12.353377667978597 8.726837570139073 0 0 0
235 1 8.799914824571651 10.668134907394816 5.13937453023659 0 0 0
240 1 10.63502226570201 12.425701468438069 5.2219715983971104 0 0 0
362 1 8.84299931580344 12.247425229089135 6.957524376496411 0 0 0
363 1 8.79706155910193 10.540874797114 8.874660147791934 0 0 0
365 1 10.648867063151075 10.484361927787283 7.1128564143918815 0 0 0
368 1 10.458227086282331 12.385501746357274 8.853877004031098 0 0 0
502 1 19.611983367597247 12.31256346709815 10.567614057972014 0 0 0
1291 1 8.773499062985923 14.086058861323975 8.89618736595137 0 0 0
503 1 19.642758360272147 10.606244255951358 12.281641526517465 0 0 0
239 1 12.251826433230573 10.546172996898354 5.225151328417961 0 0 0
243 1 15.985751538716805 10.4808404993789 5.317669567064893 0 0 0
244 1 14.299152053236378 12.323207578196357 5.248636661694948 0 0 0
366 1 12.278662149717134 12.376111375743287 7.147852670426183 0 0 0
367 1 12.31854719853957 10.530202054404008 8.936416077074407 0 0 0
369 1 14.028248967112797 10.606402935469047 7.161089221176411 0 0 0
370 1 15.987895554754918 12.427914322383378 7.107022168174945 0 0 0
371 1 15.86912791355372 10.587706033322423 8.814884255317128 0 0 0
372 1 14.060456582504473 12.229005999353712 8.84701383109064 0 0 0
504 1 17.757044521482936 12.318417318817982 12.137960091193472 0 0 0
247 1 19.47212339770459 10.755409804504 5.390189510420195 0 0 0
248 1 17.638810198214664 12.30858744226301 5.297862593340831 0 0 0
373 1 17.756002104752465 10.347576817532495 6.912709629392371 0 0 0
374 1 19.45408404322866 12.376724546098748 7.037337693556296 0 0 0
375 1 19.585852077442524 10.595208145326765 8.826313884721515 0 0 0
376 1 17.832717380880837 12.391125254010912 8.852137811490431 0 0 0
1301 1 17.82573189060488 14.170835707916948 7.175023937822192 0 0 0
251 1 23.104423801028403 10.490786272474372 5.145977609257591 0 0 0
252 1 21.174528906931442 12.528718055403546 5.224817576408703 0 0 0
377 1 21.344648422247094 10.568094008420612 6.985591271533996 0 0 0
378 1 23.060847527389882 12.302688082697811 6.9158822381275495 0 0 0
379 1 23.22055238606844 10.486134301837172 8.73506879697645 0 0 0
380 1 21.341777516729298 12.424963948255053 8.723942131062389 0 0 0
353 1 28.413027492779644 10.652040027073744 6.941713897262958 -1 0 0
356 1 28.463292733654185 12.380278642101997 8.784068509427824 -1 0 0
1287 1 5.120007397866896 14.1033147815102 8.670986424958484 0 0 0
255 1 26.533738954504322 10.631107753507994 5.268306332490462 0 0 0
256 1 24.87970057092208 12.464635851353858 5.074828796163858 0 0 0
381 1 24.92600267364103 10.39934425952146 7.119750470063951 0 0 0
382 1 26.541313325782745 12.546185011552769 7.047566286841228 0 0 0
383 1 26.616881671138174 10.6073270139945 8.679004214502271 0 0 0
384 1 24.895073742446883 12.334801416004781 8.850444275313988 0 0 0
389 1 3.451014673607335 -0.028473123733735256 10.516658868878974 0 0 0
386 1 1.7044128765059983 1.5898743630951737 10.58421197337796 0 0 0
392 1 3.4846598199711005 1.4614476236443465 12.56796870539309 0 0 0
419 1 1.7462185278894717 3.3122601612643834 12.47715591189235 0 0 0
421 1 3.5590983092656927 3.3432425205211964 10.74194648855374 0 0 0
625 1 14.249260269572021 10.5650161699855 14.10089371063133 0 0 0
407 1 19.54906941922882 -0.05768703680077536 12.328303295559504 0 0 0
626 1 15.979882560931774 12.372110211608193 13.985075398384932 0 0 0
390 1 5.352049788914717 1.5722037548178445 10.64530132114092 0 0 0
396 1 6.994608610133912 1.6396027389123382 12.38284581331663 0 0 0
423 1 5.311499518851815 3.4685319398226317 12.46540805867267 0 0 0
425 1 7.012259248778412 3.3159126061715534 10.552166898400705 0 0 0
397 1 10.70139556384991 -0.10441835573072007 10.611448912368388 0 0 0
394 1 8.939022227228765 1.6206549058901216 10.587829830375192 0 0 0
395 1 8.841005400180425 -0.03049699051732159 12.475115901344259 0 0 0
400 1 10.579780309280908 1.7315892583037686 12.469323544428105 0 0 0
427 1 8.862587429946245 3.5477013558187185 12.562913447238735 0 0 0
429 1 10.51430356815547 3.53945150136043 10.748943516705207 0 0 0
537 1 21.41339939695996 -0.065688826379521 14.025924294928517 0 0 0
622 1 12.208753454806734 12.563274999453082 13.978603035793165 0 0 0
403 1 16.08141340016935 -0.08587801324735886 12.483837256865742 0 0 0
398 1 12.345230096831743 1.722645923956831 10.849699881802954 0 0 0
402 1 15.994008159093518 1.6941556495940575 10.530567634412577 0 0 0
404 1 14.389869843783512 1.727747118131538 12.480516036757557 0 0 0
431 1 12.322370185262768 3.5971863557611687 12.417409478895422 0 0 0
433 1 14.313614841841058 3.5695581288045406 10.643672479737566 0 0 0
435 1 16.134513682765387 3.488981668530738 12.37399604386342 0 0 0
526 1 12.410398242655333 1.748103990792592 14.135229773991922 0 0 0
561 1 14.222596347208999 3.527896726425651 14.104524719758837 0 0 0
494 1 12.440845185380203 12.267210360815803 10.601576288998045 0 0 0
406 1 19.449077582020784 1.639550410454729 10.559775828206183 0 0 0
408 1 17.72721643363233 1.6851392921546078 12.339607293464715 0 0 0
437 1 17.79038200619811 3.411518884028062 10.471368192988741 0 0 0
439 1 19.544701257019245 3.404176165564174 12.25117880034337 0 0 0
534 1 19.526849404108276 1.8391328070142754 14.051094614946877 0 0 0
410 1 23.160662221323715 1.5798878633553315 10.490518880584592 0 0 0
412 1 21.2817471493557 1.5482753262952362 12.370429790732132 0 0 0
441 1 21.287928383243706 3.368490863786154 10.491529110615323 0 0 0
443 1 23.146537047628073 3.5424261153015766 12.30246049364367 0 0 0
538 1 23.148362135427785 1.6414045416117486 13.938726805467555 0 0 0
495 1 12.375183834986803 10.701848488906808 12.292493586251656 0 0 0
388 1 0.023798485302716443 1.5646060672000055 12.245917811844084 0 0 0
417 1 -0.019649270256277163 3.3029552668067503 10.679843822912717 0 0 0
414 1 26.832069029717704 1.527679115686488 10.531247562295318 0 0 0
416 1 24.98887426693105 1.60418047907744 12.235958046664877 0 0 0
445 1 24.938569581187046 3.3938936783591536 10.49302612668873 0 0 0
447 1 26.777246377770023 3.278397674933124 12.317028961722109 0 0 0
418 1 1.820656177941606 5.152681544607009 10.79555073704981 0 0 0
424 1 3.503815909514474 5.406992927521166 12.549428338135437 0 0 0
450 1 1.7543111040516244 8.77717252125468 10.48526114290256 0 0 0
451 1 1.493409170852131 6.900859088513117 12.373489124557484 0 0 0
453 1 3.5309836987027996 7.041960020466475 10.690094225932823 0 0 0
456 1 3.37029818355058 8.601973396025565 12.426196790743672 0 0 0
452 1 -0.0621118808444034 8.847930527345028 12.24483325901272 0 0 0
411 1 23.22493023102934 -0.11519748474113811 12.185887590284137 0 0 0
420 1 -0.00459663764809129 5.042774313601029 12.24403641936173 0 0 0
422 1 5.297270546875676 5.336980930628272 10.65131563012414 0 0 0
428 1 7.057098381626539 5.110755850631843 12.41806090511749 0 0 0
454 1 5.330339006739881 8.844706122706095 10.49557095502499 0 0 0
455 1 5.403288600006798 7.020102027882616 12.29484679070043 0 0 0
457 1 7.014746469861819 7.017565138245896 10.591281026942154 0 0 0
460 1 7.02115122884488 8.915618036948828 12.499078326875354 0 0 0
1289 1 7.045064015545335 14.104487763498124 7.054424499882452 0 0 0
426 1 8.746697984543623 5.257058389212536 10.660086534242843 0 0 0
432 1 10.660197302240096 5.497080741674565 12.396423076767324 0 0 0
458 1 8.654399789481657 8.66241962192717 10.752219661243503 0 0 0
459 1 8.545544066981542 7.086032578020027 12.502395475104727 0 0 0
461 1 10.47657167706505 7.025367882768091 10.568799847593938 0 0 0
464 1 10.521994297616747 8.841058912961621 12.387888383433232 0 0 0
1159 1 5.199535084045077 14.084948194742838 5.1807858743947826 0 0 0
430 1 12.370483420204074 5.386723869940316 10.672654562025139 0 0 0
434 1 16.026172536715823 5.273430567442068 10.525610271051388 0 0 0
436 1 14.370602228870675 5.28981254069333 12.417369188490717 0 0 0
462 1 12.319262177583575 8.760922132821817 10.69161061066061 0 0 0
463 1 12.4467418903191 7.046832830058548 12.468775875001803 0 0 0
465 1 14.18640101210107 6.935256628281608 10.581601864937925 0 0 0
466 1 15.79724040258793 8.820589122883382 10.465226010845265 0 0 0
467 1 15.97990551212591 7.001228653927087 12.275199971224234 0 0 0
468 1 14.1336823411912 8.761263306835504 12.40548047142443 0 0 0
29 1 24.91352334686197 -0.0876770608150963 -0.11094129496347294 0 0 0
590 1 12.149323783864078 8.825640840784015 14.0554146854469 0 0 0
438 1 19.59842744121696 5.226408652891124 10.644911393757072 0 0 0
440 1 17.815109785258045 5.340274048263194 12.458510932162655 0 0 0
469 1 17.725678253146036 7.130830989948582 10.586232409790213 0 0 0
470 1 19.503333616940143 8.85122955793237 10.584157488829339 0 0 0
471 1 19.683830358774532 7.022093122331613 12.304189454091293 0 0 0