LAMMPS data file via write_data, version 29 Oct 2020, timestep = 400000

2048 atoms
1 atom types

-0.10047267356142342 28.452472673558894 xlo xhi
-0.10047267356142342 28.452472673558894 ylo yhi
-0.10047267356142342 28.452472673558894 zlo zhi

Masses

1 58.933

Atoms # atomic

8 1 3.3824843754469827 1.7612174043710709 1.5038288070130932 0 0 0
35 1 1.7512901099345701 3.545058806796335 1.685255753437111 0 0 0
1431 1 19.511607147588307 14.116755211906307 12.407575302767924 0 0 0
130 1 1.714324086787616 1.660950469951755 3.54168293352606 0 0 0
165 1 3.556025133790181 3.491820820733159 3.491545733206348 0 0 0
161 1 -0.0371463906324299 3.456518077962957 3.3981446440376244 0 0 0
133 1 3.436332245318715 -0.025593692340945412 3.5718693226404925 0 0 0
4 1 28.398876955083736 1.6985578581730403 1.6387526717176768 -1 0 0
1423 1 12.391887147672492 14.107971401922942 12.336494644730191 0 0 0
6 1 5.2997711301358255 1.7688856863951277 -0.02709641909362155 0 0 0
12 1 7.057473239917551 1.8747064702477407 1.77415092523311 0 0 0
39 1 5.282535940384947 3.666749262225989 1.664295260508099 0 0 0
41 1 7.173427307742822 3.538939501727346 -0.08328241451477475 0 0 0
134 1 5.278934249823255 1.6181300381760926 3.3850309598765613 0 0 0
169 1 6.968252267241419 3.5267380728388895 3.5605783597268172 0 0 0
137 1 7.054706413550817 -0.00799293410799122 3.646428263786636 0 0 0
10 1 8.770284207676815 1.6543889089835522 -0.0989958223217962 0 0 0
16 1 10.534050167819005 1.5995183524540657 1.5821421517612761 0 0 0
43 1 8.792161019030427 3.655450493425031 1.6940577891620547 0 0 0
1421 1 10.505590477959336 14.045413059565147 10.66671787200367 0 0 0
138 1 8.750820374652484 1.791085748953299 3.534378637380036 0 0 0
173 1 10.52261868088302 3.5872541447453923 3.2953979603383194 0 0 0
141 1 10.516973137643884 -0.055533582283540765 3.462410301312174 0 0 0
281 1 21.265379523223206 -0.09669586578659661 6.967885864420622 0 0 0
20 1 14.071925331073 1.8202953152432664 1.7209239664873675 0 0 0
47 1 12.359792529527365 3.505245824702711 1.6270917854471028 0 0 0
269 1 10.592877991226834 -0.09039371507057581 7.047206152600535 0 0 0
51 1 15.928238075911363 3.4897490229510932 1.8549777840909814 0 0 0
142 1 12.220618671755643 1.6030561508877734 3.472397328363304 0 0 0
146 1 15.845877496416103 1.600919770603342 3.383459668566851 0 0 0
177 1 14.041360138718664 3.2536179689748015 3.548453641833693 0 0 0
18 1 15.7189750569707 1.7170712028113346 0.07909273949771989 0 0 0
24 1 17.692013159081817 1.5642077795659963 1.7988304103623507 0 0 0
55 1 19.526858393531704 3.3167923439200453 1.8016423465777465 0 0 0
150 1 19.44189097077032 1.636428580178377 3.5659523943826272 0 0 0
181 1 17.639141052017898 3.3070063784431483 3.626114138476897 0 0 0
21 1 17.711149386612114 -0.07922580093486947 -0.09895125565838632 0 0 0
28 1 21.20177575676596 1.6078245657683459 1.65912659121297 0 0 0
59 1 23.21869747975291 3.408713853155338 1.6545279526698744 0 0 0
154 1 23.07346606455012 1.6820889573604412 3.3397340620439633 0 0 0
185 1 21.264329133586696 3.3321568227486913 3.352735055503208 0 0 0
32 1 24.91631090453995 1.5564099301496825 1.6351967509219603 0 0 0
63 1 26.666765241697888 3.3614626953479503 1.6350551184076179 0 0 0
158 1 26.760502279341228 1.6014465167259195 3.512972072398392 0 0 0
189 1 24.974335122211908 3.4073023802259343 3.3571375615677463 0 0 0
31 1 26.72785871735769 -0.06622453757345645 1.5117968948658551 0 0 0
481 1 0.05681075170301497 10.56708873705788 10.606735328190993 0 0 0
265 1 6.963099488055264 -0.04926270327571558 7.153983046203597 0 0 0
131 1 1.6233421040277802 0.045220720729147956 5.374378970320663 0 0 0
40 1 3.5855825533510957 5.454477334672311 1.6119407719316245 0 0 0
67 1 1.7101758576953032 7.071185118585472 1.616554908824947 0 0 0
72 1 3.4492438799827374 8.854204527341665 1.684035417172146 0 0 0
162 1 1.820058560331346 5.166780293226927 3.444507668662694 0 0 0
194 1 1.7500939112466702 8.880030523985088 3.369314604763066 0 0 0
197 1 3.4089625109932213 7.0637890369204035 3.5487785552415234 0 0 0
68 1 -0.045053921833614084 8.606468473725702 1.8203284454829294 0 0 0
65 1 -0.03976799647793113 6.941651892169259 -0.09384433683222324 0 0 0
66 1 1.7377390445203533 8.857724148538173 -0.09011945877627675 0 0 0
1309 1 24.910842114278545 14.084890877280355 6.956872783462677 0 0 0
405 1 17.670648927085175 0.038404720115032376 10.51337920724076 0 0 0
44 1 7.117723933010769 5.278431283946415 1.6670513082707434 0 0 0
71 1 5.291063308893156 7.106085114473893 1.704818549092148 0 0 0
76 1 7.081421828212392 8.925045462554413 1.7199547691011956 0 0 0
166 1 5.1499858330462525 5.4027207173384255 3.455775470041878 0 0 0
198 1 5.27960153966138 8.915235922950883 3.3802458608026726 0 0 0
201 1 7.0252593354288475 7.110869096943961 3.3089303494279396 0 0 0
1305 1 21.3810915926922 14.030310762267051 7.0862041757161265 0 0 0
1179 1 23.0545496531067 14.076655117180637 5.3719018115636 0 0 0
48 1 10.550690408958957 5.309378827160074 1.4926232627039528 0 0 0
75 1 8.847554700736563 7.128812895091445 1.7651686330455156 0 0 0
80 1 10.503966523999692 8.84527108776749 1.6056423232410824 0 0 0
170 1 8.7367696485604 5.348028990497889 3.4273762763902886 0 0 0
202 1 8.768393661239642 8.939412323992766 3.4708967303949025 0 0 0
205 1 10.463589391776454 7.111776188104852 3.677876307517459 0 0 0
1303 1 19.560614431979776 14.091789708291408 8.858780681236825 0 0 0
145 1 14.038299526294384 -0.056226976362964365 3.466486260578367 0 0 0
52 1 14.085388193282729 5.181004915725612 1.7805447355360977 0 0 0
79 1 12.257895979616677 7.015174127335003 1.6107142447710285 0 0 0
81 1 14.2277987653662 6.870135101828853 -0.06414988392809168 0 0 0
83 1 15.915633754629336 6.982248917081451 1.7410782264960292 0 0 0
84 1 14.190779270112921 8.870984871221546 1.7906113874072178 0 0 0
174 1 12.347520366393347 5.20339871451077 3.3902049405920622 0 0 0
178 1 15.938324981613242 5.164814995076312 3.4216559017026205 0 0 0
206 1 12.377999886230034 8.802630747769467 3.414223464883837 0 0 0
209 1 14.035136954247061 7.025278709265517 3.3884539840023176 0 0 0
210 1 15.930066884156428 8.923680818697644 3.400987562479252 0 0 0
15 1 12.363554985187466 0.04118787123378098 1.5284321523814142 0 0 0
56 1 17.793507663307125 5.266714373556912 1.7622477908106506 0 0 0
87 1 19.486415028076703 6.982250414089947 1.6233729015377274 0 0 0
88 1 17.82267237032589 8.791319490308034 1.6936070330435111 0 0 0
182 1 19.572199097921665 5.242484514902472 3.4147352485529603 0 0 0
213 1 17.76912155469474 7.186940500090941 3.332123542312776 0 0 0
214 1 19.624333528742238 8.883232637263495 3.439928482310066 0 0 0
85 1 17.86937643963684 6.9342862608786 -0.09087749173149737 0 0 0
411 1 23.110284156213613 -0.0355080260047238 12.305413436838904 0 0 0
60 1 21.243220781451754 5.180902133790385 1.6178093369740358 0 0 0
91 1 23.25983450435081 6.951254996587247 1.728256673888996 0 0 0
92 1 21.361920454681435 8.868198352075245 1.660222683707787 0 0 0
186 1 23.15654201683614 5.018150066107146 3.4337995237794847 0 0 0
217 1 21.478265848555 6.947358443491557 3.464606409227114 0 0 0
218 1 23.231897206991594 8.837236006331741 3.465163197178492 0 0 0
58 1 23.06780827896716 5.318704252187439 -0.06349321397201353 0 0 0
193 1 -0.04091453823684432 6.840761732106969 3.463097885246397 0 0 0
36 1 28.440047191456305 5.354091635708355 1.6788749857782705 -1 0 0
64 1 24.968218499909206 5.17951915401769 1.6127528976417822 0 0 0
95 1 26.774549953036885 7.105309329167601 1.6094862069440958 0 0 0
96 1 24.977650522708863 8.742600581766089 1.8304075277855532 0 0 0
190 1 26.691939058924337 5.228444588220342 3.35885188926441 0 0 0
221 1 24.972815043530353 6.829276796066216 3.5335040137190474 0 0 0
222 1 26.70574553542425 8.60860697697651 3.627808760320315 0 0 0
17 1 14.17480477454968 -0.05109331467320288 -0.04754223586991349 0 0 0
7 1 5.121108723400312 -0.04729631438069504 1.5725563830505858 0 0 0
99 1 1.6505398948637284 10.627677621078234 1.562251788294286 0 0 0
104 1 3.191395139762261 12.453391744473521 1.8463413787077456 0 0 0
226 1 1.5587952025071417 12.474021484206263 3.4746424181491022 0 0 0
229 1 3.483160339178506 10.679938503688689 3.506611130507727 0 0 0
225 1 0.04219896340515386 10.563077126967954 3.381953758983323 0 0 0
3 1 1.6624801122491946 -0.029295932590692075 1.7065884848590105 0 0 0
129 1 -0.0014138196131389114 -0.05738193265151992 3.4431238963625876 0 0 0
103 1 5.105036608496706 10.588090282493582 1.6538916937618864 0 0 0
1181 1 24.77131713040165 14.105547991135941 3.6909608510436867 0 0 0
108 1 6.942015657141822 12.467438761394538 1.7302183381579277 0 0 0
230 1 5.182682257508245 12.585557479086209 3.494335059700008 0 0 0
233 1 6.888955099826419 10.722789510672927 3.3142751619106483 0 0 0
107 1 8.735182820193783 10.768870262699982 1.6998861109806447 0 0 0
112 1 10.456151454490618 12.5229156229183 1.7344043269393672 0 0 0
234 1 8.829880708669505 12.485095440465349 3.4026152086847357 0 0 0
237 1 10.643832160325342 10.643701522495189 3.402809015943164 0 0 0
106 1 8.821593910906342 12.419483990434943 -0.014570731258651604 0 0 0
111 1 12.233697140506095 10.637788262872418 1.6750859492591414 0 0 0
115 1 15.882852986283607 10.653776674517571 1.6807435364612804 0 0 0
116 1 14.18845690755391 12.486686475254922 1.7589127589521265 0 0 0
238 1 12.272691871671688 12.451062282472334 3.4546292116457633 0 0 0
241 1 14.204301239917323 10.677356604141476 3.5017796386843414 0 0 0
242 1 16.074553577923073 12.525590857143868 3.4364569941743888 0 0 0
114 1 15.906973901879077 12.432878569117639 -0.02405336955700134 0 0 0
117 1 17.74300678875684 10.531512795825142 0.008466047988653164 0 0 0
119 1 19.661407913955134 10.63663621179873 1.7408379762611468 0 0 0
120 1 17.803786714875745 12.423243210187408 1.6911729819070542 0 0 0
245 1 17.693690950607373 10.656333792252582 3.397644236018944 0 0 0
246 1 19.58841664132898 12.455890308663687 3.4847614174887163 0 0 0
484 1 -0.04141085950572432 12.395281066397795 12.388296723061542 0 0 0
123 1 23.21104737761118 10.572941732421102 1.7547353679261612 0 0 0
124 1 21.518217545471845 12.271413018693147 1.553029646512213 0 0 0
249 1 21.341797376736963 10.65146846194408 3.4857359720663954 0 0 0
250 1 23.228935213316543 12.219175524685603 3.4884763894918973 0 0 0
509 1 24.911643310162674 10.568827064461043 10.529209610646106 0 0 0
1051 1 23.13921573383298 14.127539557159581 1.8281512931915131 0 0 0
100 1 28.322963503821054 12.471523418205097 1.5314486900755757 -1 0 0
127 1 26.731301404585476 10.487610724463082 1.622813915218081 0 0 0
128 1 24.917244040306834 12.262024191954422 1.6004452154003022 0 0 0
253 1 25.15189651804871 10.598172386191276 3.4010354562041725 0 0 0
254 1 26.755101070024132 12.428346917608884 3.440839568267793 0 0 0
1025 1 28.405086779468046 14.10702831303706 -0.05817993645535423 -1 0 0
415 1 26.645457746872687 0.03546622485341899 12.347083972620108 0 0 0
136 1 3.4195966751575573 1.6982936055644717 5.395258114942192 0 0 0
163 1 1.7792788921123672 3.3943376980703226 5.224293753809762 0 0 0
258 1 1.6548563487707035 1.5749331163812128 7.1994966448154445 0 0 0
264 1 3.456723854093567 1.5961948387571692 8.835692930989648 0 0 0
291 1 1.8313623908055634 3.4531812605305694 8.88093193249548 0 0 0
293 1 3.597423587492061 3.5015574067940056 7.068667653638666 0 0 0
260 1 -0.07588388826429417 1.6983935062696243 8.850389842824159 0 0 0
289 1 -0.07265072598559824 3.3305185396587667 6.891393592669516 0 0 0
135 1 5.244206164286042 -0.05665815394471294 5.3647692934435405 0 0 0
140 1 6.8919709289630005 1.6949655112724573 5.460318072111351 0 0 0
167 1 5.267938213412923 3.4694688241633593 5.193069365373586 0 0 0
262 1 5.069591988778316 1.6241326716141045 7.22313184448455 0 0 0
268 1 6.917081247370758 1.6990587481558446 8.822977482743147 0 0 0
295 1 5.24336491891998 3.4804473404179617 8.906168945392512 0 0 0
297 1 6.980016003229574 3.5352509127033733 7.1333437852412045 0 0 0
139 1 8.786253010942543 -0.09876337335538098 5.318520006750043 0 0 0
144 1 10.47577318470613 1.7285801782141006 5.2644211364206575 0 0 0
171 1 8.686586032535484 3.522010518467177 5.241774963961981 0 0 0
266 1 8.676849100805628 1.7094871646855547 7.0206091302106115 0 0 0
272 1 10.592669343303251 1.8374741821200116 8.911305552326285 0 0 0
299 1 8.744752459743674 3.400188622627392 8.913244158752955 0 0 0
301 1 10.470302442267307 3.348640220244667 7.062685193519674 0 0 0
1437 1 24.952981369264897 14.072082639018431 10.648442495258015 0 0 0
148 1 14.154280231758461 1.6269197251663963 5.343808439246818 0 0 0
175 1 12.431724070379932 3.4976882641404057 5.2051910829489385 0 0 0
179 1 15.855357873977374 3.3807097983240335 5.209972886338094 0 0 0
270 1 12.243367997891513 1.75020512906643 6.944110346870394 0 0 0
274 1 15.917052011068144 1.7093444453943238 7.006901346597946 0 0 0
276 1 14.133622985790227 1.8639548826334622 8.573587079239037 0 0 0
303 1 12.239399650515047 3.619886946406203 8.755163460572552 0 0 0
305 1 14.216937196628797 3.484654910347529 6.979861499537351 0 0 0
307 1 15.96826891415817 3.615445078794265 8.690160593057346 0 0 0
510 1 26.72391789809448 12.417544222439291 10.703871562501346 0 0 0
147 1 16.039038436547287 -0.05238736019860742 5.283590347922521 0 0 0
271 1 12.55267511262027 -0.0769795683207411 8.780212100020954 0 0 0
511 1 26.71685609350674 10.54738732227927 12.321064653526262 0 0 0
512 1 24.893527581418063 12.179614903097443 12.216067573410932 0 0 0
277 1 17.792731265101313 0.006776602935588655 7.04703299471795 0 0 0
152 1 17.756406731079696 1.6673935676076326 5.209206464468131 0 0 0
183 1 19.504618924699916 3.4645844525440115 5.155624317698996 0 0 0
278 1 19.524021853822926 1.7774646941590209 7.066494432920365 0 0 0
280 1 17.888096184458938 1.795375480706959 8.781537529038777 0 0 0
309 1 17.797970178663146 3.4942641710769755 6.921617259295885 0 0 0
311 1 19.59713340339758 3.6097506169318727 8.818947301126393 0 0 0
279 1 19.583401377027275 -0.06280221310691672 8.834520271624973 0 0 0
1561 1 21.278264050574528 14.174620578651083 13.979655840477502 0 0 0
283 1 23.10470763184015 -0.029914890882277792 8.820091801082565 0 0 0
156 1 21.381160194688476 1.7611200752641185 5.1826272738344965 0 0 0
187 1 23.209209917666666 3.2913987789071895 5.220774550507898 0 0 0
282 1 23.060592544275913 1.7452554242818452 7.084724895534057 0 0 0
284 1 21.2720840251612 1.7026754783742537 8.796377543482116 0 0 0
313 1 21.291524398634277 3.4856757017840807 7.039977684995423 0 0 0
315 1 23.194917029036215 3.4917130149946365 8.746692823015318 0 0 0
1435 1 23.23648265697434 14.121890063475602 12.366609008306138 0 0 0
505 1 21.23411579291993 10.553186031205694 10.427729380781324 0 0 0
132 1 -0.08558471648153088 1.5976692610463012 5.288212901998729 0 0 0
160 1 24.976622043948623 1.5380457717283784 5.150551561270613 0 0 0
191 1 26.70641652333618 3.442858388977173 5.118541257845847 0 0 0
286 1 26.762622821968904 1.6176055574429513 7.046266839289632 0 0 0
288 1 24.962208114600383 1.727717453775257 8.852903540108471 0 0 0
317 1 25.083836281603208 3.4188183225027826 7.030164290081726 0 0 0
319 1 26.80138733818645 3.495194032056654 8.796002394953367 0 0 0
168 1 3.5401158122886365 5.286061664780833 5.30132355338025 0 0 0
195 1 1.7362043689026727 7.035837256590935 5.259654820149425 0 0 0
200 1 3.4293497843192857 8.82100396697727 5.101040414179832 0 0 0
290 1 1.6928219161763396 5.216927035053182 6.916976948898664 0 0 0
296 1 3.449329402715317 5.371850950382595 8.799535966674743 0 0 0
322 1 1.8165093937906929 8.787373930815097 7.045014593561594 0 0 0
323 1 1.7103522437133318 7.083818050844487 8.784525479289114 0 0 0
325 1 3.483787029756624 7.030884500161324 7.021387132038838 0 0 0
328 1 3.54542626180523 8.810569467707415 8.838567117828273 0 0 0
164 1 -0.0451717608792412 5.177718396720473 5.262790568400013 0 0 0
292 1 0.08352651559566884 5.09418264085588 8.720629898962322 0 0 0
324 1 28.44293991370475 8.708026305213664 8.97865996186928 -1 0 0
172 1 6.987647375930199 5.308593754852777 5.339320826151727 0 0 0
199 1 5.257355514461873 7.110436868281085 5.248890660457234 0 0 0
204 1 6.907868132057065 8.917903135862533 5.143760575719642 0 0 0
294 1 5.196158529676723 5.193431975937826 6.984345911211465 0 0 0
300 1 7.085999033763549 5.3583969413370784 8.935329308497286 0 0 0
326 1 5.128224706185148 8.988482311284855 6.9873579065854425 0 0 0
327 1 5.445983499180108 7.033427620972016 8.772679288852279 0 0 0
329 1 6.955152477745131 7.084881652760707 6.8869478629481735 0 0 0
332 1 7.075615427909952 8.888630475719271 8.786787253509457 0 0 0
176 1 10.54879208581963 5.264990845047441 5.272003706138879 0 0 0
203 1 8.667324507108464 6.971867045390939 5.3363304760877 0 0 0
208 1 10.559854144201855 8.929553633099497 5.278206305596816 0 0 0
298 1 8.714013865845626 5.197671314324706 7.176834103179226 0 0 0
304 1 10.417582412846153 5.379626562934379 8.886059176314124 0 0 0
330 1 8.778470150063505 8.954092727403543 7.151401723949857 0 0 0
331 1 8.70976268107078 7.128986698657423 8.768422641707842 0 0 0
333 1 10.559383442122158 7.091822901369429 6.955025289468946 0 0 0
336 1 10.585813841825177 9.032870173537194 8.826035880959104 0 0 0
180 1 14.220154207351374 5.313126362519218 5.235356829249843 0 0 0
207 1 12.35711510865739 7.046470208329739 5.161469981119989 0 0 0
211 1 15.986018293128573 7.023554618651234 5.156337397385914 0 0 0
212 1 13.967780733652763 8.793363752281461 5.179581852315481 0 0 0
302 1 12.382672102573348 5.272700281356732 6.867082960767638 0 0 0
306 1 16.104668787166585 5.365373624130007 6.8959451619655665 0 0 0
308 1 14.214248577138259 5.282998161111117 8.791620950300912 0 0 0
334 1 12.212962607976069 8.867434946234471 6.956159433477046 0 0 0
335 1 12.261340832068084 7.079643886915924 8.793679456082344 0 0 0
337 1 14.04786110558488 7.020843939822764 6.942251677400784 0 0 0
338 1 15.853263694792542 8.796465951368143 6.999480194553008 0 0 0
339 1 15.882911053153746 7.052978668640203 8.875840573710187 0 0 0
340 1 14.110416431691805 8.729169297931938 8.881345120006328 0 0 0
184 1 17.782972905835813 5.316971386413168 5.07277131942442 0 0 0
215 1 19.559782471679988 7.113919973180277 5.144064443101858 0 0 0
216 1 17.67205400619476 8.83218551673579 5.11556279852372 0 0 0
310 1 19.486038430136524 5.349207552257972 6.94883795175683 0 0 0
312 1 17.792506912091582 5.349028505540275 8.67216001773987 0 0 0
341 1 17.60587584561849 7.1653620995750895 6.948094161156562 0 0 0
342 1 19.44530858940231 8.777089078725496 7.19355231990935 0 0 0
343 1 19.607229064759196 7.012110211102031 8.803191265013604 0 0 0
344 1 17.625045576984846 8.832927627462414 8.75574441264014 0 0 0
188 1 21.354683594111453 5.08927875749173 5.169400427963736 0 0 0
219 1 23.161317995582156 6.8811860636397 5.139048044719234 0 0 0
220 1 21.256014988444676 8.818462217572414 5.312458769910948 0 0 0
314 1 23.308755356041203 5.014183739764054 6.883516493304058 0 0 0
316 1 21.3979567163052 5.260396047700363 8.678512386070254 0 0 0
345 1 21.390023463059393 6.947865218987094 6.9657615994398725 0 0 0
346 1 23.220094816235484 8.615583140859332 6.813449588424514 0 0 0
347 1 23.162035607590205 6.95310881618996 8.73919976451044 0 0 0
348 1 21.33837965592378 8.774098503633985 8.814359578127224 0 0 0
196 1 0.04760854051625785 8.750077558430904 5.304228498544715 0 0 0
321 1 -0.05831400478254167 7.000844093668032 7.038911127172983 0 0 0
192 1 25.028124390848504 5.15225800930525 5.2187081001069 0 0 0
223 1 26.7470943383502 7.013059067252267 5.341110199087647 0 0 0
224 1 25.110146935635534 8.712783579257055 5.26583500839951 0 0 0
318 1 26.845960914318372 5.204942647329489 6.998486674053549 0 0 0
320 1 25.091978109128874 5.249058174899269 8.766626659447189 0 0 0
349 1 24.992662131789086 6.930776336209947 6.990799610774193 0 0 0
350 1 26.785890832302094 8.914268922707848 7.1162318223430026 0 0 0
351 1 26.752235593465056 7.000208656797229 8.7130232499986 0 0 0
352 1 24.937188908472407 8.747336697958595 8.852746091875527 0 0 0
506 1 23.10701385009755 12.3911173362521 10.582221909334278 0 0 0
227 1 1.6410402689316064 10.620045323808526 5.187831271135673 0 0 0
232 1 3.4917800677288864 12.503336298106786 5.344522722059335 0 0 0
354 1 1.6660135353632577 12.37431174548434 7.025165030774596 0 0 0
355 1 1.7292307217173346 10.624874502181298 8.894919193067885 0 0 0
357 1 3.3817660153592857 10.743558729669322 7.036756581693248 0 0 0
360 1 3.4243378423532964 12.482279612350364 8.638812546083503 0 0 0
507 1 23.08793992624664 10.524697755264746 12.224317002127272 0 0 0
508 1 21.252725451695103 12.39885636921582 12.137965355047093 0 0 0
231 1 5.130981329156987 10.766633300967266 5.183126182022299 0 0 0
236 1 6.88107744295504 12.475379142422208 5.104014009869009 0 0 0
358 1 5.258128501083558 12.443100160308624 7.056484448197112 0 0 0
359 1 5.176134249937577 10.647611219013065 8.881334666164527 0 0 0
361 1 6.983698986463519 10.669388635347147 7.050489372524454 0 0 0
364 1 6.93735514668375 12.40292227347113 9.026458608775846 0 0 0
501 1 17.54015278183491 10.453625197767302 10.518410775955704 0 0 0
235 1 8.736577526838438 10.658427581968512 5.16958442839477 0 0 0
240 1 10.564570165298315 12.46636561685522 5.170865234454791 0 0 0
362 1 8.655330317035261 12.574823543159498 7.040702449368112 0 0 0
363 1 8.741526302908678 10.58077071054512 8.976156030965905 0 0 0
365 1 10.499654422170693 10.698770753488695 7.149286698211996 0 0 0
368 1 10.527137838845778 12.365216935440815 8.83887107106891 0 0 0
502 1 19.361838066392522 12.415425635716051 10.597544033718938 0 0 0
1293 1 10.397423130686656 14.064671330302836 7.07245983778948 0 0 0
1163 1 8.65970876660003 14.127215598814276 5.294155538919813 0 0 0
1295 1 12.294382059306127 14.119004550508967 8.89153392716269 0 0 0
503 1 19.340973709438753 10.558793127180065 12.439520151636842 0 0 0
504 1 17.59582376760196 12.255466260594734 12.35331368028675 0 0 0
1297 1 14.171542954198168 14.174856872468979 7.139999976655305 0 0 0
1167 1 12.408532794293803 14.159295376427329 5.361306162900267 0 0 0
239 1 12.384115624627682 10.777660173376216 5.257002888008417 0 0 0
243 1 15.91003087868 10.623685276002536 5.198214370883576 0 0 0
244 1 14.14681994313218 12.508189391943974 5.222845315584319 0 0 0
366 1 12.302344572250707 12.400564056970317 7.074924402979099 0 0 0
367 1 12.523792617475443 10.527731021601939 8.816041908710552 0 0 0
369 1 14.184796647131282 10.576847037684791 6.877438804728469 0 0 0
370 1 15.924074746285608 12.51459211477741 6.9488692099471665 0 0 0
371 1 15.876118623885755 10.600813032185842 8.726818177608735 0 0 0
372 1 14.215045256501728 12.352625064798724 8.769311460010147 0 0 0
1429 1 17.51473651733705 14.15183545952468 10.651199114667431 0 0 0
1175 1 19.49863801578194 14.075950994254839 5.137923018202773 0 0 0
247 1 19.557057319889008 10.586464798487864 5.1918186435279665 0 0 0
248 1 17.739989418796963 12.424681928640286 5.270392560733654 0 0 0
373 1 17.808417220301365 10.594415478773964 6.906186425347489 0 0 0
374 1 19.568672663008766 12.343132905376388 6.947097529323139 0 0 0
375 1 19.61885038164107 10.559362885402072 8.79071443745699 0 0 0
376 1 17.692665239346375 12.302157226044331 8.74470879274434 0 0 0
251 1 23.365966136610705 10.538512009813498 5.231044793645385 0 0 0
252 1 21.456497125041793 12.414644479970281 5.156004427120027 0 0 0
377 1 21.342410380869193 10.528976087560398 7.020187549012713 0 0 0
378 1 23.152089973748474 12.126694796498477 7.05618259353631 0 0 0
379 1 23.121308423677455 10.376416118325462 8.86774465101736 0 0 0
380 1 21.389138425069277 12.290872126026969 8.79286193143055 0 0 0
1307 1 23.25387918411247 14.028583919511494 8.818690843589488 0 0 0
1311 1 26.708028276907534 14.070495720304203 8.85396964332753 0 0 0
228 1 28.441288079798085 12.52887004301385 5.349910947791895 -1 0 0
353 1 0.01460303944437058 10.421825422813189 7.088876816373206 0 0 0
356 1 -0.0512702231219464 12.462975445024846 8.944103641033427 0 0 0
255 1 26.72694251396696 10.607664911602356 5.226540060933067 0 0 0
256 1 25.05914470103965 12.288132208828564 5.338916778905249 0 0 0
381 1 24.944350098203394 10.454056290727113 7.048063594440034 0 0 0
382 1 26.626158024955117 12.199661075310141 7.204175341718336 0 0 0
383 1 26.881844596832007 10.653124805000195 8.914143755423057 0 0 0
384 1 24.85955447345886 12.255571358448371 8.936855843540267 0 0 0
386 1 1.7830522869519172 1.6867042344273608 10.664519073106982 0 0 0
626 1 15.874662597639777 12.4026924914602 14.101092473239591 0 0 0
1425 1 14.272930237370142 14.153353239236756 10.597619676970776 0 0 0
392 1 3.475236088481503 1.6329443558042223 12.36193815509526 0 0 0
419 1 1.7586174988966494 3.4826507697864626 12.38735095994386 0 0 0
421 1 3.5709885717578196 3.5116390582791492 10.652495648545848 0 0 0
1055 1 26.458880829872047 14.115006869758824 1.8401815926621472 0 0 0
1169 1 14.290769558887638 14.12594550733254 3.4016797664877054 0 0 0
388 1 0.14367139458793368 1.6700599386737713 12.500318346070229 0 0 0
622 1 12.276236823142607 12.51125049122718 14.159401054755367 0 0 0
494 1 12.379630306137178 12.459682863628098 10.539603661979609 0 0 0
390 1 5.131158500076781 1.4270793422080332 10.657526447142176 0 0 0
396 1 6.959859536317926 1.625328250391325 12.43748181579923 0 0 0
423 1 5.41534283615978 3.4226557796595687 12.336285386345056 0 0 0
425 1 7.060627041888087 3.5292886965387456 10.680848838645131 0 0 0
518 1 5.34673996543727 1.7782450061154225 14.118440793772765 0 0 0
495 1 12.445181156901242 10.674277221469344 12.407270264743754 0 0 0
497 1 14.175842259889375 10.502822691542212 10.698603095363412 0 0 0
394 1 8.723411614592871 1.759596081851761 10.698806533725751 0 0 0
395 1 8.87866716045604 -0.0648022100351699 12.400976129419604 0 0 0
400 1 10.63580277042635 1.6456914415534774 12.406593956266285 0 0 0
427 1 8.797692346813319 3.5580097621574067 12.474800387573941 0 0 0
429 1 10.552151517271238 3.542198269672715 10.69424684058777 0 0 0
1031 1 5.182325029130307 14.133882425648006 1.5837547877117824 0 0 0
1161 1 7.053024547401232 14.117830238371688 3.4446235796085856 0 0 0
498 1 15.924535302190684 12.320757706620132 10.601768950102697 0 0 0
499 1 15.878778973209526 10.58700497696088 12.581261438474911 0 0 0
398 1 12.50476849706576 1.6464745868039383 10.506175122244702 0 0 0
402 1 15.90417705691694 1.8064620592681995 10.49781535564066 0 0 0
404 1 14.214398599239766 1.7357597751773985 12.462260253781524 0 0 0
431 1 12.321417670939239 3.4591925013689404 12.460234318533471 0 0 0
433 1 14.20885901037119 3.4711771325826932 10.505189710558689 0 0 0
435 1 15.956348440269025 3.5297260308209184 12.548511557005785 0 0 0
1029 1 3.2881131962134402 14.107995259224294 -0.0992769140966541 0 0 0
406 1 19.615716438083176 1.6980059395112719 10.583186603222495 0 0 0
408 1 17.59294072313496 1.7962391368028396 12.388410324581411 0 0 0
437 1 17.72976733994799 3.399061665107054 10.58749277237144 0 0 0
439 1 19.544699844187114 3.483257000313358 12.179361094485392 0 0 0
565 1 17.901811719950263 3.446272270018606 14.131138287137654 0 0 0
410 1 23.084121783518942 1.7571765274462805 10.577326943461639 0 0 0
412 1 21.343720186016455 1.6708484296487067 12.291394915271175 0 0 0
441 1 21.393128915882052 3.535301674947642 10.549980458579986 0 0 0
443 1 23.179335168605487 3.494312518874 12.485856115721512 0 0 0
538 1 23.069463516957224 1.70373534593087 14.134537940573562 0 0 0
500 1 14.266101304748252 12.489652048206741 12.217163524277808 0 0 0
385 1 -0.0036794897669985005 -0.07980954036566293 10.563820926610374 0 0 0
417 1 0.053674958992878885 3.471739302883489 10.590312168576476 0 0 0
414 1 26.80490635793005 1.7575543373793834 10.634010997387882 0 0 0
416 1 24.850567309431298 1.8647948728698296 12.361154257850789 0 0 0
445 1 24.88911552372126 3.5352627161678067 10.626291931536077 0 0 0
447 1 26.75556690138789 3.5694707913376442 12.413132226524274 0 0 0
542 1 26.662267851531073 1.7088174062462615 14.156179609451394 0 0 0
413 1 24.90680683491637 0.021671254300191164 10.517011448594582 0 0 0
1027 1 1.5452363927635553 14.143500164671776 1.6693245566359016 0 0 0
490 1 8.92199881196482 12.438081577138918 10.651857478625557 0 0 0
486 1 5.346303231978594 12.451205799498103 10.687023429550688 0 0 0
418 1 1.8578448748307879 5.261987073497891 10.627922413164606 0 0 0
424 1 3.5832347771150372 5.228452737237644 12.316805421578765 0 0 0
450 1 1.770167607249239 8.817516344650501 10.782018014181268 0 0 0
451 1 1.7260563600527754 7.006187783770767 12.449760871623234 0 0 0
453 1 3.5502366282970903 7.21339433798355 10.55185210504208 0 0 0
456 1 3.4154937991229706 8.94752604373631 12.469206788329146 0 0 0
452 1 0.03500630958752626 8.95633032501654 12.425454649323 0 0 0
449 1 -0.030798544328615007 7.120148379901143 10.747004937967143 0 0 0
581 1 3.5506776211416087 7.069758749064928 14.155228339602392 0 0 0
546 1 1.789971377487109 5.239620504733687 14.164847632181562 0 0 0
422 1 5.230139071312465 5.475276935043195 10.560400344143542 0 0 0
428 1 7.035666208018886 5.2994261480211104 12.402748929776617 0 0 0
454 1 5.394820513363949 8.858683756741497 10.61022465420671 0 0 0
455 1 5.284655073731957 7.026738599543076 12.431770856322307 0 0 0
457 1 7.063125591331837 7.095098603809032 10.749058823114327 0 0 0
460 1 7.153263825040574 8.85491015272444 12.555800630656593 0 0 0
585 1 7.0669081259417705 6.956160612377735 14.150099414193813 0 0 0
550 1 5.257589753422038 5.206850669976893 14.124037722712925 0 0 0
426 1 8.856384753108268 5.277100069490917 10.74404913567691 0 0 0
432 1 10.679081365030777 5.319487652263167 12.37513657604662 0 0 0
458 1 8.828204817308784 8.91297748383362 10.625024574631686 0 0 0
459 1 8.94626027522668 7.049755285220435 12.339211381755218 0 0 0
461 1 10.485928074211968 7.249343865967898 10.638577951747052 0 0 0
464 1 10.716369977615585 8.843994479059784 12.468925248748048 0 0 0
491 1 8.914493924209504 10.564114710176495 12.341992356792565 0 0 0
430 1 12.26947041151308 5.291244626236524 10.580270359022013 0 0 0
434 1 15.98073307987218 5.282698120581265 10.65093802505806 0 0 0
436 1 14.153004339081969 5.199567497847266 12.37649721296972 0 0 0
462 1 12.338415613439636 8.936356135630524 10.690245990962241 0 0 0
463 1 12.424499839245769 7.059789376169776 12.44582053450436 0 0 0