LAMMPS data file via write_data, version 29 Oct 2020, timestep = 400000

2048 atoms
1 atom types

-0.08136337082780365 28.43336337082689 xlo xhi
-0.08136337082780365 28.43336337082689 ylo yhi
-0.08136337082780365 28.43336337082689 zlo zhi

Masses

1 58.933

Atoms # atomic

397 1 10.649771753884602 -0.0350808363963111 10.547388214089157 0 0 0
484 1 28.36413561623882 12.337631169667205 12.538755731343906 -1 0 0
8 1 3.419177540066888 1.7249516869384813 1.8147984894191769 0 0 0
35 1 1.6363606803400128 3.4902811370334623 1.916970247565505 0 0 0
37 1 3.399627517416181 3.4855314799103247 -0.07028319309934743 0 0 0
509 1 24.89007172146963 10.656910804837379 10.640127517455836 0 0 0
130 1 1.6529718636673354 1.7207721749925062 3.601345861044291 0 0 0
165 1 3.554517795324357 3.53187798749816 3.6084033424696194 0 0 0
6 1 5.122340278840209 1.6856957663992298 0.042962119682881605 0 0 0
510 1 26.68226349233018 12.379187275879357 10.641661921911927 0 0 0
12 1 7.063375178141229 1.587843374218379 1.7401642621903848 0 0 0
39 1 5.1567309770842895 3.4595425769134076 1.8268075450572838 0 0 0
41 1 6.997423612907001 3.382680459558676 -0.05204664997058888 0 0 0
134 1 5.1872091858504055 1.7125337474847522 3.443586469544087 0 0 0
169 1 6.9720677302272245 3.4172145970785137 3.4964657587292254 0 0 0
10 1 8.830425559656465 1.5630494868950158 -0.06220729885728836 0 0 0
16 1 10.523777830233781 1.6459927126121758 1.7631249412034287 0 0 0
43 1 8.775172220136202 3.379136861446917 1.7286430133976598 0 0 0
45 1 10.661502770497334 3.502683363387991 -0.003011210651745866 0 0 0
138 1 8.789948082584313 1.7507281329595465 3.466461130165021 0 0 0
511 1 26.68004047207632 10.633015201154574 12.564673745553591 0 0 0
173 1 10.656462625164268 3.4923811255794406 3.462651992426123 0 0 0
14 1 12.325393930084843 1.6733459104075876 0.021762041024260395 0 0 0
391 1 5.234372620307115 -0.06832636829143013 12.262150443066272 0 0 0
512 1 24.875757582674353 12.428228219235217 12.401181018591958 0 0 0
20 1 14.14132256474882 1.6551232695371563 1.668316404785048 0 0 0
47 1 12.370257792050978 3.463606103193253 1.6235789504149256 0 0 0
49 1 14.179706476258563 3.33710270748443 -0.042448608557011006 0 0 0
51 1 15.94244428568029 3.389201518675658 1.730891045006609 0 0 0
142 1 12.377386561859538 1.5617896543523375 3.404029858137672 0 0 0
1409 1 28.42333670998579 14.137370477144527 10.734317411188368 -1 0 0
146 1 16.114869702179746 1.7210867134415533 3.4702710651323425 0 0 0
177 1 14.191771567318 3.3609968907926913 3.393286641114557 0 0 0
1435 1 23.100689771764877 14.175388525125618 12.49085418353484 0 0 0
403 1 16.134054082703877 0.017331706413472148 12.379877988990367 0 0 0
24 1 17.800773201199554 1.6726277340587765 1.6703651584630714 0 0 0
1433 1 21.383721910775705 14.032581721047686 10.730299572144851 0 0 0
55 1 19.482532531110657 3.5663532054695226 1.597676698529519 0 0 0
149 1 17.789544118975208 -0.024580369053458777 3.5330826192893823 0 0 0
150 1 19.427204950693444 1.7675228348150598 3.4502956018046014 0 0 0
181 1 17.76479380658548 3.592772662884553 3.508204935294274 0 0 0
1425 1 14.148938096525878 14.159673069976742 10.60915633759863 0 0 0
27 1 23.02082958225097 -0.06480392519657313 1.6600077036900311 0 0 0
28 1 21.212634873063593 1.660428763312983 1.69658158042018 0 0 0
57 1 21.363194064780842 3.4604960480933697 -0.051967176185942446 0 0 0
59 1 23.060456146999 3.519001442719651 1.633993725283849 0 0 0
505 1 21.27275292497348 10.622350357299046 10.664236548660826 0 0 0
154 1 23.048235648120617 1.7380975408141648 3.5180994619714885 0 0 0
185 1 21.323250851301857 3.624580118662712 3.5280975460353123 0 0 0
4 1 28.33844847756736 1.6797714880702275 1.770521968678743 -1 0 0
161 1 -0.07567778415443627 3.4835638567596288 3.3778234197655266 0 0 0
32 1 24.84782622879696 1.6382064923327257 1.7066351103026371 0 0 0
63 1 26.59695783070829 3.453566418339021 1.6856985071595127 0 0 0
506 1 23.355144727027728 12.453364367423505 10.669491548652685 0 0 0
158 1 26.559936201449922 1.5823949619201898 3.510846959503469 0 0 0
189 1 24.73660914878264 3.4560181601769098 3.46947434659478 0 0 0
1419 1 8.888465805062452 14.134966491954566 12.2676098121039 0 0 0
40 1 3.4170806253227064 5.23332984711867 1.6882912668633516 0 0 0
65 1 28.336021704039144 7.01830331745329 -0.03972209453991751 -1 0 0
285 1 24.841526755966242 -0.028762002706244516 7.020056711537565 0 0 0
67 1 1.7782516698025899 7.003705193073236 1.646858823329315 0 0 0
283 1 23.1147876037543 -0.0645713266716399 8.875344825470865 0 0 0
72 1 3.4202110748796235 8.722896973124339 1.498517119750385 0 0 0
162 1 1.8362753821314457 5.308471323778228 3.475572888025339 0 0 0
194 1 1.856386504131806 8.890246510803985 3.3719223499573814 0 0 0
197 1 3.447103203726993 7.047525346346075 3.4251866684166843 0 0 0
38 1 5.242551454347303 5.211294912254843 0.0227519327337177 0 0 0
44 1 6.9262461128740975 5.309694956471092 1.7428674118514056 0 0 0
269 1 10.57515066331618 0.014873954710935777 6.976974707919085 0 0 0
71 1 5.366366807623741 7.002270488285454 1.7455334425679185 0 0 0
135 1 5.210876385278055 -0.07466168437094467 5.196082931451946 0 0 0
76 1 6.97525657842792 8.800206059096741 1.7649253377822387 0 0 0
166 1 5.2770300163304835 5.3020821032440875 3.6219080278230265 0 0 0
198 1 5.135509644436628 8.749473374696402 3.459827058086462 0 0 0
201 1 6.952127328322628 7.071783816472251 3.5634276317527984 0 0 0
42 1 8.851229798607244 5.199275920995519 0.005494715371956463 0 0 0
48 1 10.52077790107884 5.31731661246813 1.8471941779410481 0 0 0
75 1 8.684224735265268 6.957921406544489 1.7278103772385478 0 0 0
263 1 5.281063022063268 -0.025104870398358514 8.83433004796726 0 0 0
80 1 10.581082203937477 8.727873807734543 1.7294093166476314 0 0 0
170 1 8.664038902638097 5.375993444371967 3.4771245065832224 0 0 0
202 1 8.780118020664824 8.801253254639457 3.506938559714382 0 0 0
205 1 10.582013432533262 7.089878504114677 3.4528043979860623 0 0 0
46 1 12.312368431168533 5.306108003624811 0.0034477273669701325 0 0 0
52 1 14.124860569593064 5.160144437870013 1.6443956680202292 0 0 0
79 1 12.429134152637603 7.050331709326619 1.7163389162644442 0 0 0
81 1 14.206269265686812 7.021101247699886 0.014232839261693511 0 0 0
82 1 15.9390874922522 8.865939243720762 0.008047983771999723 0 0 0
83 1 16.019158944286936 7.063965260134011 1.6698398615658487 0 0 0
84 1 14.182237626199784 8.794271328738473 1.764884067227265 0 0 0
174 1 12.4492925432541 5.156591515118377 3.455404515029958 0 0 0
178 1 15.946366588804503 5.29689302913266 3.4515644713549682 0 0 0
206 1 12.410624465547482 8.86606536445241 3.4598169355102595 0 0 0
209 1 14.13815232519815 7.059365802038334 3.4739582437366088 0 0 0
210 1 15.958187054990072 8.831261641113418 3.529185447978397 0 0 0
259 1 1.6539353698005534 -0.03622972154261106 8.946028074532276 0 0 0
56 1 17.742373389046612 5.26138722364433 1.717928973016461 0 0 0
261 1 3.4465997359902696 -0.004642864522260481 7.117090630505987 0 0 0
1311 1 26.526762065957875 14.150695832627186 8.883521308832636 0 0 0
87 1 19.541731159393514 7.092033655200559 1.6615269929336556 0 0 0
88 1 17.829412749832592 8.769592743841883 1.6328050480015626 0 0 0
182 1 19.5092433429932 5.352403483542324 3.414405311456892 0 0 0
213 1 17.78419605002422 7.010694707520004 3.4823227595505877 0 0 0
214 1 19.653421607106274 8.877170283704073 3.503280949416922 0 0 0
1295 1 12.399177906379679 14.145238105108788 8.805879102787351 0 0 0
60 1 21.25785108251266 5.30208913564306 1.6475722313318688 0 0 0
91 1 23.192262041578488 6.897659499970957 1.626738215036483 0 0 0
92 1 21.381755543595716 8.709384013222934 1.7100394950433453 0 0 0
186 1 23.07488254060516 5.301618612241967 3.438980689464638 0 0 0
217 1 21.285453649653157 7.0544924885186395 3.4682403944045515 0 0 0
218 1 23.169836729200213 8.823761951362092 3.435116037387899 0 0 0
36 1 28.42288473513068 5.2497916508883264 1.7235201619174367 -1 0 0
68 1 -0.058667460388448944 8.842594769498165 1.7272788744848255 0 0 0
193 1 -0.04840946055013973 7.065511132049266 3.4917081856103893 0 0 0
64 1 24.94410703568125 5.214774190593491 1.6101049100143148 0 0 0
95 1 26.59725934684446 6.982790658880867 1.7285125503967955 0 0 0
96 1 24.96552382277219 8.848673653634325 1.6654480162730119 0 0 0
190 1 26.619146978432532 5.174541979031716 3.3981802028311825 0 0 0
221 1 24.82114298926345 6.9870384855960515 3.5397644911073827 0 0 0
222 1 26.597321941716025 8.75166633314793 3.4797873464964373 0 0 0
1171 1 15.907513402065616 14.104426875965695 5.186699539749963 0 0 0
99 1 1.6867196357079706 10.66762704387991 1.773430226394162 0 0 0
100 1 28.380405324125785 12.45844306217919 1.6554486246160114 -1 0 0
1287 1 5.223447563466199 14.11300128551821 8.824149923316511 0 0 0
104 1 3.471224210911806 12.41064165761138 1.575342271620148 0 0 0
225 1 28.382138190686316 10.625528642109478 3.5169745113945283 -1 0 0
226 1 1.678579899938034 12.370132638748284 3.4796408330181636 0 0 0
229 1 3.4820956708530106 10.616308229718634 3.396415345931673 0 0 0
1027 1 1.7323053611785437 14.149228257645769 1.6162120975849386 0 0 0
507 1 23.21118360513784 10.702314046873244 12.450073303073635 0 0 0
1283 1 1.6789869536909934 14.104340640761954 8.91290522098617 0 0 0
103 1 5.274508796079392 10.539592826724038 1.557824983703601 0 0 0
105 1 7.112749610101351 10.548240188522383 0.1110615605097553 0 0 0
108 1 6.982126766988985 12.454857329310475 1.7669709811527416 0 0 0
230 1 5.086403233252473 12.507876390441034 3.521128041892404 0 0 0
233 1 6.98037901579185 10.492712684914713 3.3959267058330465 0 0 0
1031 1 5.150922503965974 14.163126811997657 1.5251360152150006 0 0 0
508 1 21.39010849892952 12.30084226823285 12.36647991574999 0 0 0
107 1 8.820612343525966 10.598535491637568 1.7695241036263558 0 0 0
112 1 10.557388026732431 12.377998367692156 1.5998554722043132 0 0 0
234 1 8.760168813997074 12.422399943058064 3.4789923476124875 0 0 0
237 1 10.557810493703638 10.578308305305349 3.4301393163602034 0 0 0
1165 1 10.6378920799176 14.161601978037437 3.4852762717586834 0 0 0
111 1 12.293341768676305 10.540184762175636 1.6969332540742514 0 0 0
29 1 24.857897685953724 0.0015426119720984843 -0.03638359361315952 0 0 0
115 1 15.940187143690475 10.646277556631018 1.7807949060197796 0 0 0
116 1 14.09468551222759 12.344102866440343 1.6936536281777954 0 0 0
238 1 12.387543926886856 12.2826610228685 3.4479949601646545 0 0 0
241 1 14.254938035350317 10.65678410691724 3.53145718900608 0 0 0
242 1 15.984111188896753 12.330672785960529 3.405033958773424 0 0 0
117 1 17.822435465746935 10.475618914861478 -0.05974594717718183 0 0 0
31 1 26.573850248771812 0.03135625824732102 1.7799451850164136 0 0 0
119 1 19.5555490816635 10.60172839626133 1.7384759461023025 0 0 0
120 1 17.727844485988726 12.303459779775238 1.725562431551212 0 0 0
245 1 17.789705329969237 10.58956852038644 3.574640847212029 0 0 0
246 1 19.677354716719258 12.381621918039349 3.6465860971307382 0 0 0
1045 1 17.776981852812384 14.01322529746284 0.03148756642755447 0 0 0
1557 1 17.723146621313347 14.129757900583426 14.166180830086219 0 0 0
415 1 26.7033958115832 -0.04137931487417035 12.380738396995818 0 0 0
123 1 23.13948642103061 10.700266710515608 1.6271257529811627 0 0 0
124 1 21.374039068550296 12.425385588234743 1.8395183955913872 0 0 0
249 1 21.471464557915283 10.647895640778723 3.4344440484235417 0 0 0
250 1 23.185957964880224 12.483620839649193 3.5401215358965232 0 0 0
501 1 17.717563684831603 10.696665182436984 10.598615972803431 0 0 0
502 1 19.521785576484476 12.34758027898124 10.655993443565363 0 0 0
126 1 26.710574580126 12.388546425507283 -0.0761528387874401 0 0 0
127 1 26.718976479080546 10.505148856551775 1.7014034489124714 0 0 0
128 1 24.93135183405292 12.270737767702093 1.638100937562436 0 0 0
253 1 24.94466608696728 10.563208009529239 3.415409475636298 0 0 0
254 1 26.70349753731442 12.415834714449302 3.5314036372458437 0 0 0
503 1 19.489181192072465 10.63224649195266 12.437243539204614 0 0 0
504 1 17.67579580166087 12.387668880345421 12.46689977617497 0 0 0
1431 1 19.47688402212387 14.074277508405089 12.425955056260307 0 0 0
136 1 3.4253927425360433 1.724761738273096 5.345295329142729 0 0 0
163 1 1.6517595413342052 3.4765437310837193 5.253208268395738 0 0 0
258 1 1.6503675716035298 1.6297459924441684 7.126269738490687 0 0 0
264 1 3.3588454419200144 1.7392765348649437 8.78952751283678 0 0 0
291 1 1.7055242881662946 3.4622015624534646 8.849184245878499 0 0 0
293 1 3.4193692691267557 3.431737142277676 7.049418390906409 0 0 0
140 1 6.9382282831211 1.7127926479658862 5.209466441000749 0 0 0
167 1 5.235891628232855 3.5886034818401327 5.357666499872747 0 0 0
262 1 5.22038961439813 1.7200808254357487 7.033479463250736 0 0 0
268 1 7.009982124552592 1.697616688975824 8.808269808960809 0 0 0
295 1 5.26395472719641 3.5899899360959155 8.81829259285833 0 0 0
297 1 6.993485544221895 3.501755853188899 7.119352410436021 0 0 0
139 1 8.797174019045336 -0.07263623003452684 5.25695776654858 0 0 0
144 1 10.63311730017893 1.7222121683708747 5.296847784764429 0 0 0
171 1 8.812159071673168 3.5095242922332903 5.207596182912482 0 0 0
266 1 8.795788543384564 1.7968303925812836 7.049868352655393 0 0 0
3 1 1.614091798822408 -0.038249070341521474 1.7829434735291982 0 0 0
272 1 10.630512635919395 1.7700581939910185 8.756697357018014 0 0 0
299 1 8.793154225276954 3.5583606631357423 8.769118010314576 0 0 0
301 1 10.553959724861722 3.517292427017602 6.908622954984325 0 0 0
622 1 12.365099158813772 12.422699640444788 14.165505551629888 0 0 0
494 1 12.354759560801803 12.450154563794165 10.494004530340737 0 0 0
148 1 14.23201263667083 1.6744835058238154 5.297805432567664 0 0 0
175 1 12.309058955238848 3.3902368357640906 5.254333250497879 0 0 0
179 1 15.978004785375129 3.4363583365560015 5.210765256906027 0 0 0
270 1 12.531355450950073 1.643997102459755 7.181712029827296 0 0 0
274 1 16.051868670877603 1.5397967173945692 7.006941921223114 0 0 0
276 1 14.290001834891665 1.552586107935413 8.766277361911456 0 0 0
303 1 12.405771393592401 3.592852962167346 8.738883456238034 0 0 0
305 1 14.171415788788737 3.4522272392681486 7.074309548109425 0 0 0
307 1 16.009883149232806 3.4682629186576155 8.770014151372237 0 0 0
495 1 12.418875224843871 10.622884612176783 12.310854469736446 0 0 0
152 1 17.825842389853918 1.6514130980199566 5.259372924222365 0 0 0
183 1 19.446248745345663 3.505618798356861 5.348386658428221 0 0 0
278 1 19.547163653500675 1.7324482720381444 7.2027982705830675 0 0 0
497 1 14.14427799614138 10.637530326246878 10.694686307728091 0 0 0
280 1 17.75177997292424 1.6937544381527974 8.879756477514016 0 0 0
309 1 17.811414363303683 3.4141518772582775 7.003305748674465 0 0 0
311 1 19.533800400885582 3.6421732549118615 8.7656509307011 0 0 0
156 1 21.23173182736153 1.6787832912115914 5.231967180207732 0 0 0
187 1 23.076545963680196 3.369470505542645 5.399512442879256 0 0 0
281 1 21.28759144282195 -0.039534733811756005 7.130404108495598 0 0 0
282 1 23.09370427405633 1.62622127718409 7.001736119529179 0 0 0
284 1 21.365592906291134 1.7607513950149438 8.872575266668385 0 0 0
313 1 21.367187145949657 3.507948755204715 7.049529219353301 0 0 0
315 1 23.187086604820763 3.3710672396701002 8.849574288074603 0 0 0
132 1 28.30593372276781 1.60166984004618 5.257046829331293 -1 0 0
498 1 15.94765923433774 12.291306984613804 10.54384059128027 0 0 0
260 1 -0.052605022710267235 1.749747925438619 8.85973653546351 0 0 0
289 1 -0.06859745838705322 3.4715040515353026 7.003185320059522 0 0 0
499 1 15.817982811103706 10.685711041545131 12.53982276181806 0 0 0
160 1 24.84970678045702 1.6541613455585473 5.2454200371814865 0 0 0
191 1 26.803474246203734 3.471834747844091 5.204915244934641 0 0 0
286 1 26.702485355671556 1.5948784808496805 6.982140992188887 0 0 0
288 1 24.950563521159992 1.6925008713351157 8.872465291774638 0 0 0
317 1 24.880642690709863 3.420290132242167 7.023054414176948 0 0 0
319 1 26.69487864593794 3.475287433549989 8.921933160519783 0 0 0
164 1 28.37140263375484 5.287357769461978 5.202053205238871 -1 0 0
168 1 3.3689558290568553 5.266724224308208 5.260854534543882 0 0 0
195 1 1.6675872228177115 7.17596871436531 5.169012558639626 0 0 0
200 1 3.3860137715739302 8.841833482005653 5.205794322759976 0 0 0
290 1 1.727902562959761 5.30572232100865 7.008130221586614 0 0 0
292 1 28.41894772396701 5.294961364306106 8.809755225817623 -1 0 0
296 1 3.435298880441474 5.277880619897652 8.894310456768693 0 0 0
322 1 1.6928235325251433 8.918503810484825 7.0897715954090925 0 0 0
323 1 1.729349386584087 6.990210031946546 8.837797144795163 0 0 0
324 1 28.345644387932975 8.77367829929293 8.885353741788826 -1 0 0
325 1 3.4899082187428037 7.089973197682688 7.110299386595497 0 0 0
328 1 3.4696384047679794 8.829274945208478 8.910816099442158 0 0 0
172 1 7.0117442163603725 5.326093108672024 5.259302468562475 0 0 0
199 1 5.137922463776399 7.046263519162747 5.305146528514891 0 0 0
204 1 7.067720412072194 8.790360129323984 5.297094595556155 0 0 0
294 1 5.3103422370506115 5.39247450065063 7.012567319775851 0 0 0
300 1 7.025903950901155 5.396590229807077 8.825168161879942 0 0 0
326 1 5.047574353147928 8.827084449591885 7.027229951109835 0 0 0
327 1 5.2540585145860765 7.15639132644963 8.855550615143542 0 0 0
329 1 7.023924519458279 7.1166020750147245 6.964612486037912 0 0 0
332 1 7.009115023276808 8.829509632296443 8.840581097494619 0 0 0
176 1 10.615860924010104 5.367999669149804 5.177193275974655 0 0 0
203 1 8.903070238225094 7.079569254568742 5.22376315349747 0 0 0
208 1 10.641971207840367 8.882323549675789 5.174668373359686 0 0 0
298 1 8.708974235905686 5.311881478185817 6.963626171737388 0 0 0
304 1 10.582512678589264 5.290875168423143 8.786141364180468 0 0 0
330 1 8.89877136311631 8.727917751960247 7.084712218914158 0 0 0
331 1 8.850722648779769 6.9258158339221785 8.91315796724931 0 0 0
333 1 10.652383325127445 6.994253931698489 7.136076571785003 0 0 0
336 1 10.570478069013319 8.816698225513484 8.818176373679632 0 0 0
180 1 14.210744630105047 5.218776586507193 5.214741120755929 0 0 0
207 1 12.27612168356173 7.045881932533191 5.291818702796992 0 0 0
211 1 15.94170813473533 7.03350705411355 5.234590643322886 0 0 0
212 1 14.058449476580217 8.953391687700853 5.289805801324487 0 0 0
302 1 12.534767192282345 5.267090596648689 6.950693013576695 0 0 0
306 1 15.876828090325072 5.345179669100784 6.991795518196773 0 0 0
308 1 14.13315581937722 5.430143446090099 8.744607544597955 0 0 0
334 1 12.234192096514448 8.894712986792092 7.0911066006442365 0 0 0
335 1 12.388487411719742 7.170006650572613 8.762115263974954 0 0 0
337 1 14.11989259913969 7.234213634840152 6.962768542732405 0 0 0
338 1 15.941935004505572 9.021536218147927 6.922882924709275 0 0 0
339 1 15.929922718538664 7.181762242853157 8.704278018482771 0 0 0
340 1 14.055615164385763 8.938265785310957 8.77589891502633 0 0 0
184 1 17.674778438384386 5.324415107302436 5.285151605214548 0 0 0
215 1 19.46323479342353 7.099627241914392 5.355353490378091 0 0 0
216 1 17.81291383757614 8.810218536250586 5.187726057944488 0 0 0
310 1 19.527472007636213 5.320015231212532 7.058687387364816 0 0 0
312 1 17.727900397426232 5.453921793118174 8.683596347540497 0 0 0
341 1 17.656605866597438 7.188814538090138 7.002455340089769 0 0 0
342 1 19.51490269265379 8.896394539932361 7.049909677077076 0 0 0
343 1 19.564905736560462 7.2258242512397715 8.859804367963417 0 0 0
344 1 17.752928163242885 8.894774189868702 8.830108868782617 0 0 0
188 1 21.279463701717148 5.274638882218651 5.273782431926801 0 0 0
219 1 23.139258279384848 7.043391589558808 5.464293819653128 0 0 0
220 1 21.268763722634716 8.69889345622271 5.3252847483483245 0 0 0
314 1 23.108866206494696 5.2260825522010625 6.975529968818589 0 0 0
316 1 21.38312547556827 5.355962645635139 8.760330453163913 0 0 0
345 1 21.34249102895201 6.95341330697718 7.0796445272446284 0 0 0
346 1 22.962779191928725 8.76556349880786 7.132786943915676 0 0 0
347 1 23.16272223606591 7.054882641418113 8.903943108169422 0 0 0
348 1 21.252619917910508 8.987871727859734 8.814083846126483 0 0 0
196 1 28.336267901233235 8.882359274677954 5.345496345205814 -1 0 0
321 1 28.383689725564246 6.9409531212183415 7.116883527510453 -1 0 0
192 1 24.920498654286746 5.188060657217284 5.260476233977298 0 0 0
223 1 26.580515913706108 6.974239827267778 5.373450662772409 0 0 0
224 1 24.813433356202573 8.84683222738685 5.334274931987642 0 0 0
318 1 26.593270097190832 5.228477096676784 6.983038247396122 0 0 0
320 1 24.84597522532659 5.238301475113982 8.778211334380696 0 0 0
349 1 24.856937527708418 7.078708769905353 7.171586244079234 0 0 0
350 1 26.584944969866775 8.916374221153655 7.16214709957957 0 0 0
351 1 26.519468841698355 6.984927116743233 8.87331188825129 0 0 0
352 1 24.84842132165462 8.934232295687028 8.827483888046153 0 0 0
227 1 1.5998522590951734 10.629502073745414 5.200638142982967 0 0 0
228 1 28.424153709575766 12.448454630114323 5.2751707442995075 -1 0 0
232 1 3.4922706941690422 12.391697103521905 5.245782750867863 0 0 0
353 1 28.268370140676172 10.722796798173407 7.062783837863272 -1 0 0
354 1 1.660367718433472 12.428027190285016 7.0397993942115775 0 0 0
355 1 1.5667405085742174 10.541581980373344 8.8459447147335 0 0 0
357 1 3.4082936930070766 10.602423217491738 6.97048844398349 0 0 0
360 1 3.4071545402151986 12.388443593583828 8.79775643170591 0 0 0
500 1 14.075785110829427 12.413499759105319 12.479164284770516 0 0 0
1159 1 5.146381899602864 14.116025211773323 5.2946049568332745 0 0 0
231 1 5.162341889029494 10.469414048623134 5.316746500610646 0 0 0
236 1 6.952205397199038 12.298863178350928 5.145870589733617 0 0 0
358 1 5.231112620068013 12.371125292873487 6.947682791784967 0 0 0
359 1 5.235188531577386 10.55379792302438 8.779013433394804 0 0 0
361 1 6.938098552740519 10.538110286533042 7.109007876259093 0 0 0
364 1 6.969599140309033 12.347858631828421 8.855292979653932 0 0 0
1427 1 16.000963365676327 14.081136740786182 12.334731209335331 0 0 0
621 1 10.472059973823605 10.599731599743805 14.034534135371194 0 0 0
235 1 8.836768812768373 10.67372203248206 5.3083428087282005 0 0 0
240 1 10.505501075549448 12.342591734838388 5.172814887350663 0 0 0
362 1 8.739288314706206 12.45416161179898 7.003014341335325 0 0 0
363 1 8.728021726741403 10.553504879424725 8.751962585575725 0 0 0
365 1 10.388080445959659 10.591662509166353 7.045837826362803 0 0 0
368 1 10.52711415045031 12.381016179309052 8.786558400457936 0 0 0
1299 1 16.02686532882346 14.101647006968463 8.892359886585874 0 0 0
1297 1 14.285646332070822 14.066930741388184 7.049058737742403 0 0 0
1167 1 12.249681356649488 14.071132907538368 5.343628158712072 0 0 0
239 1 12.329836366582311 10.594969927597102 5.305225091092947 0 0 0
243 1 15.92797842802184 10.717458076853223 5.255108140136978 0 0 0
244 1 14.003651555247535 12.406549975711643 5.228808746490325 0 0 0
366 1 12.272848106100005 12.359246902190288 7.00427116553849 0 0 0
367 1 12.347389414135296 10.713428277095003 8.73798311871676 0 0 0
369 1 14.125056094471582 10.708102499457922 7.083898214744829 0 0 0
370 1 16.13382821817372 12.359236777365444 7.038264899182209 0 0 0
371 1 16.047679450499587 10.5778578313927 8.789326075425036 0 0 0
372 1 14.255057891336165 12.35806341582224 8.734744628696564 0 0 0
1303 1 19.57484929294837 14.142487644715226 8.873030437659546 0 0 0
1301 1 17.76342067492334 14.158555076148351 6.992533730944677 0 0 0
1175 1 19.57354088676651 14.172829794575824 5.310518308684564 0 0 0
247 1 19.601146589333077 10.591616034464876 5.223350902147482 0 0 0
248 1 17.881792252635222 12.37784507264698 5.194277519489703 0 0 0
373 1 17.816835456913317 10.713206397172153 6.9452991755321705 0 0 0
374 1 19.59416098811385 12.47688337144261 7.030594072413903 0 0 0
375 1 19.49184246266349 10.636088461522471 8.819071989712471 0 0 0
376 1 17.7027965837404 12.366474523409856 8.886143553194856 0 0 0
251 1 23.163717763703055 10.666207940903755 5.209707808294649 0 0 0
252 1 21.478405748430816 12.412810673481138 5.248565319053057 0 0 0
377 1 21.41812682797088 10.569887690714015 7.018119257053984 0 0 0
378 1 23.092118194824614 12.449751818061479 7.15868377157594 0 0 0
379 1 23.079807740163375 10.58698821468264 8.87467838887995 0 0 0
380 1 21.356061455007705 12.321585105352757 8.930763910993964 0 0 0
133 1 3.471262858817433 -0.05337684233375484 3.4381661326153408 0 0 0
1281 1 28.35591186738767 14.107137446657596 7.029043659699894 -1 0 0
356 1 28.386012561286044 12.48075080626302 8.907064480070344 -1 0 0
255 1 26.62935864962958 10.556538823613892 5.2461525943099785 0 0 0
256 1 24.94802067083147 12.480246224825475 5.267153835330682 0 0 0
381 1 24.864729202112713 10.648282535851665 7.074561723174824 0 0 0
382 1 26.607005497189952 12.455601519531106 7.032481262771956 0 0 0
383 1 26.67413309382598 10.646805354154832 8.902988553482206 0 0 0
384 1 24.8969192952421 12.494324558597787 8.890715416889087 0 0 0
386 1 1.7462600857105122 1.834493694573066 10.609665547595426 0 0 0
387 1 1.6557410901795733 0.03844852810662851 12.503015571134926 0 0 0
389 1 3.4514893548208794 -0.020626084144791827 10.627985189960116 0 0 0
392 1 3.4783287867919306 1.8508499213428795 12.40566988423997 0 0 0
419 1 1.6570874519783105 3.5607037311931706 12.408255470451152 0 0 0
421 1 3.5407149917121865 3.4713060153794677 10.545978493686786 0 0 0
514 1 1.7020509674610078 1.8606156921163013 14.172677260879997 0 0 0
1173 1 17.698619719722167 14.101097009860105 3.390189252788514 0 0 0
1169 1 14.150906249131628 14.134158157685349 3.340176677044241 0 0 0
549 1 3.700715607863866 3.6010896962279366 14.042905217726588 0 0 0
390 1 5.1735890224822425 1.7127984704499555 10.454648039295819 0 0 0
393 1 7.137445213041363 0.061187220336505505 10.578206792207759 0 0 0
396 1 7.137825640225879 1.7610448992511554 12.301256584777247 0 0 0
423 1 5.404861816776144 3.5753468430702835 12.268510382345985 0 0 0
425 1 7.053760827578631 3.610447637582813 10.567111659943556 0 0 0
518 1 5.28097674336688 1.7692794123583944 14.059695364334722 0 0 0
1043 1 15.996205619338236 14.101763053044591 1.6606272335426744 0 0 0
394 1 8.882516951594669 1.7564905409943206 10.527359078319655 0 0 0
395 1 8.855491025337974 -0.03303054849135337 12.30111753097185 0 0 0
400 1 10.666615437333158 1.679706175652085 12.228472156980605 0 0 0
427 1 8.804659629056792 3.4907164004781053 12.325204517236813 0 0 0
429 1 10.592611581285501 3.50736663585576 10.583934575859612 0 0 0
1039 1 12.35149033474407 14.143295636814962 1.5984211963276078 0 0 0
557 1 10.633517157616808 3.3008097726653354 14.017000351000451 0 0 0
398 1 12.399264246531086 1.7769118075871533 10.486128180442766 0 0 0
490 1 8.70402750436884 12.343259702894136 10.635992149345494 0 0 0
491 1 8.87996705890566 10.504613305161952 12.335823627986704 0 0 0
402 1 16.06885182565462 1.7095121849949377 10.514446853409359 0 0 0
404 1 14.31183292095008 1.789172938641733 12.266168252515746 0 0 0
431 1 12.427990543649754 3.638960384240916 12.363882981998513 0 0 0
433 1 14.262168407809284 3.5259183445665356 10.514566179597118 0 0 0
435 1 16.007600970937197 3.557277235399474 12.346693657884465 0 0 0
526 1 12.550041133264807 1.7313734320020118 14.099606508789481 0 0 0
529 1 14.316914496843136 -0.06428994927369268 14.044279437646466 0 0 0
530 1 16.067755126530223 1.8643463373428282 14.107651343716386 0 0 0
561 1 14.185481580965979 3.6145854133272897 14.090415009513336 0 0 0
406 1 19.60908183614115 1.8675681514064326 10.556118020140257 0 0 0
493 1 10.464797378872033 10.60020181940251 10.58795685752739 0 0 0
408 1 17.80419828776317 1.6641139888751286 12.311788260996895 0 0 0
437 1 17.762270208813014 3.5183723650348995 10.522645623560448 0 0 0
439 1 19.54540586000558 3.5459698368729207 12.33943512919201 0 0 0
496 1 10.481696621539577 12.417891174296217 12.40713251035339 0 0 0
410 1 23.13074403403663 1.7927063125217795 10.689377873648517 0 0 0
412 1 21.33426752865133 1.6754187500244118 12.334390006681554 0 0 0
441 1 21.358704546986587 3.554310562186657 10.577183138227003 0 0 0
443 1 23.10235520457428 3.585816923770068 12.461448896011346 0 0 0
617 1 7.13283804812393 10.579867010652622 14.085860437504097 0 0 0
385 1 -0.05372467846952844 -0.0063827607631919 10.754658766261048 0 0 0
388 1 -0.06279240906840045 1.8025421834392552 12.415392028337449 0 0 0
417 1 28.34204087348232 3.5279982493678563 10.73435851921126 -1 0 0
414 1 26.737538345555357 1.6500797611711788 10.588480388542337 0 0 0
416 1 25.02239279275195 1.7475944127030587 12.352155288901386 0 0 0
445 1 24.86564236076478 3.601049782304448 10.652546883293873 0 0 0
447 1 26.632829990575097 3.4741020142245618 12.469600525144239 0 0 0
1035 1 8.733601883658556 14.123781144472593 1.728839159851761 0 0 0
542 1 26.75444305507329 1.7651079092098172 14.15932669881217 0 0 0
489 1 6.978277589228311 10.667085877992122 10.64730990831376 0 0 0
418 1 1.6427735984673622 5.2448372243253765 10.63671844660757 0 0 0
424 1 3.496610894437413 5.276402926564321 12.415959047114795 0 0 0
450 1 1.6989062847904146 8.71539909289169 10.61525447733585 0 0 0
451 1 1.6316292259057097 6.985703258062142 12.370061981078535 0 0 0
453 1 3.4574610938877557 6.960021969385781 10.596659454639534 0 0 0
456 1 3.409847158932769 8.822116628359572 12.43740838453706 0 0 0
492 1 6.994119461403852 12.276916438513634 12.355461012159521 0 0 0
422 1 5.241585977300859 5.2955810036599935 10.584657888768119 0 0 0
428 1 7.043638547358588 5.247146383468509 12.425776179493223 0 0 0
454 1 5.16042119478121 8.803073356441361 10.6789749681702 0 0 0
455 1 5.178243465144644 7.05246525188958 12.467216719064128 0 0 0
457 1 6.977864446230033 7.09167210861319 10.557792101976252 0 0 0
460 1 6.868614503458084 8.910719393743994 12.388268874218173 0 0 0
426 1 8.806088868174005 5.307092684535875 10.581917550024333 0 0 0
432 1 10.45986125836597 5.244559949473812 12.34868546897542 0 0 0
458 1 8.797086183481714 8.777745732007558 10.617442788983212 0 0 0
459 1 8.774925997952382 7.1271410570188465 12.280076164510026 0 0 0
461 1 10.654487213521191 7.103997462734401 10.614011600171368 0 0 0
464 1 10.632569583554854 8.829552527816423 12.346451153573417 0 0 0
554 1 8.904853291965873 5.356046329100758 14.094425856405978 0 0 0