LAMMPS (29 Oct 2020)
OMP_NUM_THREADS environment is not set. Defaulting to 1 thread. (src/comm.cpp:94)
  using 1 OpenMP thread(s) per MPI task
package omp 0
using multi-threaded neighbor list subroutines
package omp 2
set 2 OpenMP thread(s) per MPI task
using multi-threaded neighbor list subroutines
units metal
dimension 3
boundary p p p


lattice fcc 3.5440
Lattice spacing in x,y,z = 3.5440000 3.5440000 3.5440000
region box block 0 8 0 8 0 8 units lattice
create_box 1 box
Created orthogonal box = (0.0000000 0.0000000 0.0000000) to (28.352000 28.352000 28.352000)
  1 by 2 by 2 MPI processor grid
create_atoms 1 box
Created 2048 atoms
  create_atoms CPU = 0.001 seconds


# read_restart after_heating_2400.lmp

variable P equal 0
variable dt equal 0.001
variable loopVar loop 22
variable sys_press equal "press/10000"
# print "step temp vol pe" file heating.txt screen no

pair_style eam/alloy
pair_coeff * * Co_Zhou04.eam.alloy Co
Reading eam/alloy potential file Co_Zhou04.eam.alloy with DATE: 2018-03-30




neighbor 2 bin
neigh_modify every 10 check yes

thermo 1000
thermo_style custom step temp vol press ke pe density

timestep $(dt)
timestep 0.0010000000000000000208

# fix 2 all npt temp 300 300 $(dt*100) iso 0 0 $(dt*1000)
# run 30000
# unfix 2





# dump_modify 1 append yes
# dump 3 all custom 10000 traj_npt_new.lammpstrj id type x y z

velocity all create 300 123123

print """
yo aagadi
"""

yo aagadi

label ensemble

print """
Label pachadi solti, hos garam.
"""

Label pachadi solti, hos garam.

variable T equal 200+${loopVar}*100
variable T equal 200+1*100
# variable T equal 1200
# velocity all create 1200 123123
reset_timestep 0
fix 1 all npt temp $T $T $(dt*100) iso 0 0 $(dt*1000)
fix 1 all npt temp 300 $T $(dt*100) iso 0 0 $(dt*1000)
fix 1 all npt temp 300 300 $(dt*100) iso 0 0 $(dt*1000)
fix 1 all npt temp 300 300 0.10000000000000000555 iso 0 0 $(dt*1000)
fix 1 all npt temp 300 300 0.10000000000000000555 iso 0 0 1
print """
<--------------------------------------------------------------------->
<------------------ Equilibrating at temperature $T ----------------->
<--------------------------------------------------------------------->
"""

<--------------------------------------------------------------------->
<------------------ Equilibrating at temperature 300 ----------------->
<--------------------------------------------------------------------->

fix temp all print 100 "$(step) $(temp) $(press) ${sys_press} $(vol) $(ke) $(pe) $(density)" file temp_heat.txt screen no title  "step temp press pressGiga vol ke pe density"
run 350000
Last active /omp style is pair_style eam/alloy/omp
Neighbor list info ...
  update every 10 steps, delay 10 steps, check yes
  max neighbors/atom: 2000, page size: 100000
  master list distance cutoff = 7.6035394
  ghost atom cutoff = 7.6035394
  binsize = 3.8017697, bins = 8 8 8
  1 neighbor lists, perpetual/occasional/extra = 1 0 0
  (1) pair eam/alloy/omp, perpetual
      attributes: half, newton on, omp
      pair build: half/bin/atomonly/newton/omp
      stencil: half/bin/3d/newton
      bin: standard
Per MPI rank memory allocation (min/avg/max) = 4.354 | 4.354 | 4.354 Mbytes
Step Temp Volume Press KinEng PotEng Density 
       0          300    22790.356    11400.454    79.378655    -9015.757        8.794 
    1000    296.80269    23128.992    2974.0656    78.532662   -8934.5116    8.6652453 
    2000    297.77353    23150.772    1527.1632    78.789542   -8934.4643     8.657093 
    3000    295.27772    23153.059    790.79445    78.129161   -8936.4063    8.6562379 
    4000    307.56142    23156.769    1100.4408    81.379372    -8934.567    8.6548511 
    5000    293.91188    23145.251    1522.7515    77.767765   -8935.9811    8.6591581 
    6000    304.56171    23133.514    2190.3151    80.585663    -8937.358    8.6635513 
    7000    290.95994    23128.719    2807.9872    76.986694   -8935.1975    8.6653475 
    8000    296.10032    23144.914     1788.948    78.346817   -8935.0515    8.6592839 
    9000    299.93718    23154.127    737.82991    79.362033   -8936.7376    8.6558388 
   10000    295.81756    23160.037     364.8038    78.271999     -8936.15    8.6536297 
   11000    297.44412    23157.164     968.1188    78.702382   -8934.4161    8.6547035 
   12000     295.3637    23160.323    460.00263     78.15191     -8935.65    8.6535229 
   13000    301.82536    23185.105   -995.89772    79.861638   -8934.5206    8.6442735 
   14000    298.18506    23182.871   -1401.2008     78.89843   -8936.5275    8.6451064 
   15000    299.42592    23182.153   -1101.9941    79.226756   -8935.2469    8.6453743 
   16000    291.55547    23170.733   -792.35013    77.144272   -8937.5873     8.649635 
   17000    305.04568    23175.937   -585.39158    80.713719   -8935.7373    8.6476929 
   18000    293.03698    23180.114    -941.4341    77.536272   -8935.2258    8.6461346 
   19000    310.79733     23195.31   -2251.4554    82.235581   -8936.9383    8.6404701 
   20000     289.9542    23171.894   -658.09508    76.720581   -8936.2488    8.6492017 
   21000    302.24006    23167.048     371.3261    79.971366   -8934.3214     8.651011 
   22000    293.95459     23164.41    116.84064    77.779066   -8936.0529    8.6519963 
   23000    300.30558    23180.554   -809.67225     79.45951   -8934.8176    8.6459706 
   24000    293.60596    23178.537   -956.35685    77.686821   -8936.1808     8.646723 
   25000    290.66195    23184.234   -876.91689     76.90785   -8933.4439     8.644598 
   26000    296.91861    23212.358   -2924.8021    78.563334    -8933.744    8.6341243 
   27000    294.52641     23209.81   -2964.8857    77.930368   -8934.1435    8.6350724 
   28000    306.35168     23194.16   -2103.2567    81.059281   -8936.7945    8.6408986 
   29000    297.65171    23177.312   -675.84105    78.757308   -8935.5202      8.64718 
   30000     306.5205    23180.499    -724.9573     81.10395    -8934.867    8.6459909 
   31000    305.96672    23173.057   -676.82416    80.957423   -8937.1673    8.6487676 
   32000    301.07389    23155.676    1406.8026    79.662801   -8933.3658    8.6552596 
   33000    301.69326    23149.691    1154.0211    79.826684   -8936.6877    8.6574974 
   34000     309.6939    23162.903     957.8468    81.943618   -8933.5242    8.6525589 
   35000    293.41134    23145.839    1173.6339    77.635325   -8936.9127    8.6589381 
   36000    302.54578    23152.286    1330.8421    80.052258   -8934.5797    8.6565271 
   37000    295.15121     23119.57    3529.2411    78.095688   -8935.3961    8.6687766 
   38000    298.34614    23118.513    3762.2395    78.941051   -8935.4597    8.6691728 
   39000    292.04305    23130.585    2598.3567    77.273283   -8935.8989    8.6646483 
   40000    305.14671    23146.344    1349.7118    80.740451   -8937.0586    8.6587493 
   41000    295.60232    23133.777     2411.873     78.21505   -8936.0095    8.6634529 
   42000    306.30155    23140.227    2041.2403    81.046017   -8936.0426    8.6610379 
   43000    302.11265    23116.638      3490.53    79.937653   -8937.6161    8.6698762 
   44000    303.16075    23100.592    5140.3868    80.214976   -8935.6866    8.6758982 
   45000    299.23504    23138.069    2021.0718     79.17625   -8936.3968    8.6618457 
   46000    301.91817    23154.392    960.02803    79.886194   -8936.0746    8.6557396 
   47000     300.5417    23156.966    363.76235    79.521985   -8937.6419    8.6547773 
   48000    307.35838     23163.21    622.70695    81.325649   -8934.6361    8.6524445 
   49000    296.51713    23156.412    1044.5799    78.457104   -8934.1229    8.6549844 
   50000     300.0435    23166.645   -105.62177    79.390164   -8936.3082    8.6511614 
   51000    302.22659    23172.211   -377.87614    79.967802   -8935.6818    8.6490833 
   52000    293.57954    23167.824   -189.94854    77.679831   -8936.0678    8.6507212 
   53000    299.24908    23185.303   -981.91378    79.179966   -8933.6449    8.6441994 
   54000    299.16769    23187.778   -1865.0901    79.158429   -8937.1383    8.6432769 
   55000    297.03475     23214.79   -3156.6522    78.594064   -8933.5157      8.63322 
   56000    294.16302    23209.907   -2891.6585    77.834215   -8933.7261    8.6350363 
   57000    305.52775    23192.898    -2166.177    80.841272    -8937.082    8.6413687 
   58000    301.03434    23195.656   -1593.2628    79.652337   -8933.2406    8.6403414 
   59000     299.9832    23174.771   -785.29313     79.37421   -8936.3925    8.6481281 
   60000    297.72268    23180.459   -791.39266    78.776088   -8934.4614     8.646006 
   61000    295.45786    23171.968   -835.16045    78.176826   -8937.2725    8.6491742 
   62000    295.52898    23174.851   -105.51689    78.195643   -8933.1182    8.6480982 
   63000    293.77814    23175.175   -250.97101    77.732378   -8934.1342    8.6479774 
   64000    307.30289    23170.507    394.81007    81.310967   -8933.0468    8.6497196 
   65000    302.65547    23147.348    1246.3374     80.08128   -8936.7884    8.6583736 
   66000    305.16022    23157.809    869.32517    80.744027   -8935.2152    8.6544622 
   67000    302.90719    23155.695    1114.5905    80.147883   -8934.7188    8.6552527 
   68000    292.67199    23138.204    1847.8818    77.439697   -8936.7961    8.6617953 
   69000    308.49019    23146.528    1537.3331    81.625121   -8936.2558    8.6586805 
   70000    290.64697    23122.538    2966.3703    76.903886   -8936.9996    8.6676639 
   71000    295.92874    23135.928    2750.4591    78.301418   -8933.7058    8.6626474 
   72000    295.56768      23143.4    2048.8371    78.205884   -8934.6768    8.6598507 
   73000    289.61578    23134.136     2340.514    76.631038   -8935.6522    8.6633185 
   74000    301.12333    23135.918    2233.6429    79.675883   -8936.0079     8.662651 
   75000    295.76913    23130.198    2821.2869    78.259186   -8934.6299    8.6647933 
   76000    299.28139    23098.281    4745.5827    79.188514   -8937.8079    8.6767662 
   77000    298.76677    23130.076    3061.2995    79.052349   -8934.6615     8.664839 
   78000    306.57127    23152.973    1083.1155    81.117382   -8935.7765    8.6562701 
   79000    297.97135    23162.311    435.84291    78.841883   -8935.4481    8.6527804 
   80000    313.85964    23163.723    602.08259    83.045853   -8934.8065    8.6522529 
   81000    289.75156    23132.322    1973.6223    76.666964   -8937.8501    8.6639979 
   82000    304.47556    23118.956    3789.3889    80.562869   -8935.3185    8.6690069 
   83000     293.2987    23131.656    2485.3726     77.60552   -8935.9946    8.6642471 
   84000    297.91144    23152.388    1060.3147    78.826032   -8935.8552    8.6564888 
   85000    312.66055    23167.139     393.9365    82.728581   -8934.4603    8.6509768 
   86000    291.53635    23154.188    816.49582    77.139212   -8935.5687    8.6558159 
   87000    298.04654    23156.722    630.84109    78.861778   -8936.2656    8.6548686 
   88000    304.16791    23175.903   -541.17283    80.481466   -8935.2154    8.6477055 
   89000    297.82362    23177.277   -730.19585    78.802794   -8935.6497    8.6471929 
   90000    302.70972    23179.602   -556.50876    80.095636   -8934.0486    8.6463257 
   91000    297.51424     23175.73   -1398.4782    78.720934   -8939.1676    8.6477701 
   92000    301.28683    23188.799   -1628.4434    79.719145   -8935.7281    8.6428965 
   93000    305.21324    23181.381    -792.9797    80.758054   -8935.0737    8.6456619 
   94000    300.94942    23162.481    39.635177    79.629867   -8937.2328    8.6527167 
   95000    301.28855    23167.283    812.04799    79.719598   -8931.9897    8.6509234 
   96000    300.52813    23171.384   -463.06126    79.518395   -8936.6449    8.6493922 
   97000    303.45813    23195.333   -1820.9632    80.293661   -8934.6641    8.6404619 
   98000    294.04991    23196.766   -2022.9485    77.804288   -8934.5032     8.639928 
   99000    298.84528    23187.317   -1241.8807    79.073122   -8934.2466    8.6434488 
  100000    298.96027    23174.987    -603.9832    79.103548   -8935.7742    8.6480473 
  101000    303.61327    23174.697   -415.59274    80.334711   -8935.4468    8.6481558 
  102000    300.01597    23172.986   0.70585198    79.382881   -8933.8616    8.6487941 
  103000    297.56969    23168.611   -388.38685    78.735607   -8936.6781    8.6504272 
  104000    309.24529    23195.671   -2309.2217    81.824918    -8936.595    8.6403359 
  105000    296.17847    23202.059   -2282.3285    78.367494    -8933.764    8.6379569 
  106000    307.03934    23208.921   -2713.3999    81.241234   -8934.1557    8.6354032 
  107000    294.37654     23200.12   -2281.2226    77.890713   -8934.5658    8.6386787 
  108000    301.86052    23189.145   -1242.0915    79.870941   -8933.8701    8.6427673 
  109000    298.50871    23164.851    -76.30326    78.984067   -8936.9662    8.6518313 
  110000    296.90215    23159.821    788.17039    78.558978   -8934.2538    8.6537103 
  111000    294.66273    23143.052    1721.3534    77.966437   -8935.7216    8.6599808 
  112000    298.19467    23146.756    1754.4853    78.900973   -8934.6286    8.6585951 
  113000    305.62625    23166.165     470.9686    80.867335   -8934.2207    8.6513407 
  114000    289.06075    23153.365    1550.0965    76.484177    -8932.703    8.6561233 
  115000    310.32133    23141.633    2151.2315    82.109633   -8935.1446    8.6605116 
  116000    298.75125    23100.894    4880.2971    79.048241   -8936.1372     8.675785 
  117000    296.43899      23121.5    2717.7397    78.436427   -8938.9075     8.668053 
  118000      304.155    23157.649    1003.7279    80.478048    -8934.722    8.6545222 
  119000    297.95838    23163.419   -128.25873    78.838452   -8937.0621    8.6523662 
  120000    302.73966     23188.98   -1244.4582    80.103558   -8934.2528    8.6428289 
  121000    297.83175    23194.615   -1868.7088    78.804946   -8934.5402    8.6407293 
  122000    299.77001    23187.093   -1314.2984    79.317802   -8934.7598    8.6435323 
  123000    310.58747     23180.24   -1096.4207    82.180053   -8936.4044    8.6460875 
  124000    298.12765    23168.344   -116.86432     78.88324   -8935.4946    8.6505272 
  125000    289.01065    23167.892    382.86941    76.470923   -8932.6378    8.6506957 
  126000    297.58828    23165.365   -119.22522    78.740524    -8936.368    8.6516395 
  127000    310.62797    23175.528   -273.83129    82.190769   -8934.4589    8.6478457 
  128000    307.65347     23171.09    -177.0497    81.403729   -8935.5095     8.649502 
  129000     296.7628    23160.214    201.39525    78.522105   -8936.9204    8.6535636 
  130000    297.81655    23172.986   -20.616593    78.800923   -8933.7585    8.6487941 
  131000    296.77098    23176.833   -1295.8033    78.524271   -8938.0785    8.6473585 
  132000     309.4401    23185.872   -1280.4818    81.876463    -8935.841    8.6439873 
  133000    299.80037    23198.871    -2386.374    79.325835   -8935.5656     8.639144 
  134000    308.23866    23203.136   -2379.1853    81.558567   -8934.5978    8.6375558 
  135000    296.59855     23192.75   -1474.1519    78.478647   -8933.6207    8.6414238 
  136000    303.39539    23179.427   -1457.4506    80.277059   -8938.6455    8.6463909 
  137000    299.78276    23193.252   -1490.9056    79.321175   -8933.5433     8.641237 
  138000    294.66274    23228.616   -4597.7347     77.96644   -8935.4341    8.6280813 
  139000    295.71629     23216.33   -3505.3932    78.245205   -8934.6873    8.6326471 
  140000    301.79392    23197.553    -1799.398    79.853318    -8933.851    8.6396349 
  141000    299.15976    23183.366   -1480.5622    79.156332   -8936.5275    8.6449218 
  142000    302.29659    23187.196   -1291.6539    79.986322    -8934.814    8.6434939 
  143000    292.32641    23181.148   -1168.8385    77.348257   -8935.9885    8.6457491 
  144000    303.73773    23192.063   -1064.9716    80.367642   -8932.0678    8.6416799 
  145000    293.93729    23165.949   -36.850246     77.77449   -8936.1984    8.6514213 
  146000    298.46947    23163.916     158.3625    78.973683    -8936.063    8.6521808 
  147000    294.30435    23146.638    1391.4776    77.871611   -8936.2467    8.6586392 
  148000    298.61482    23140.377    1950.0111    79.012143   -8936.0705     8.660982 
  149000    307.96423    23135.839    2226.7307    81.485955   -8936.7713    8.6626805 
  150000    296.15515    23103.222     4466.066    78.361324   -8937.0071    8.6749106 
  151000    300.49258    23134.848    2661.9444    79.508989   -8934.3982    8.6630516 
  152000    292.10183    23141.823    2181.2767    77.288836   -8934.0563    8.6604405 
  153000    310.70054    23158.275    1030.8996    82.209969   -8935.1034    8.6542881 
  154000    302.85176    23141.741     1887.514    80.133219   -8935.9595    8.6604715 
  155000    299.77584    23108.263    4472.4442    79.319342   -8935.5339    8.6730183 
  156000    303.89422    23128.527    3400.2031    80.409049    -8933.652    8.6654194 
  157000    292.47037    23130.311    2398.7759    77.386349   -8936.8715     8.664751 
  158000    306.23665    23146.088    1674.3324    81.028845   -8935.7444    8.6588451 
  159000     292.0478    23136.295    2050.0926    77.274539    -8936.503    8.6625099 
  160000    304.71549    23114.164    3762.2718    80.626352   -8936.7377    8.6708042 
  161000    299.38242    23124.111    3108.8271    79.215245   -8936.2781     8.667074 
  162000    308.91319    23168.045    771.92556    81.737046   -8931.9985    8.6506387 
  163000    297.94589    23156.381    875.82795    78.835146   -8935.2584    8.6549962 
  164000    301.56599    23151.509     1227.735    79.793008   -8935.4661    8.6568175 
  165000    291.69081     23136.84    2083.8937     77.18008   -8936.4292    8.6623061 
  166000    309.87837    23152.487    1285.4224    81.992429    -8935.669    8.6564519 
  167000    299.51487    23164.297    148.38298    79.250292   -8936.0353    8.6520383 
  168000     308.9593    23180.759   -317.91197    81.749245   -8933.2855    8.6458941 
  169000    295.52237     23172.11   -546.58299    78.193895   -8936.4907     8.649121 
  170000    306.81121    23184.285   -1647.3062     81.18087   -8937.9566    8.6445793 
  171000    294.80628     23186.21   -1142.0162    78.004421   -8934.0498    8.6438615 
  172000    298.18802    23205.064   -3265.8743    78.899213   -8937.3839    8.6368384 
  173000    299.30885     23222.86   -3548.3011    79.195781   -8932.7334    8.6302197 
  174000    298.93855    23190.679   -1808.2116    79.097801   -8935.6108    8.6421958 
  175000    305.98306    23189.039   -1473.5201    80.961747    -8935.164    8.6428069 
  176000      303.607    23170.861   -1050.3353    80.333051     -8939.51    8.6495873 
  177000    287.68923    23159.273    804.79858    76.121282   -8933.9486    8.6539153 
  178000      305.507    23166.628    471.64919    80.835782   -8934.1341    8.6511677 
  179000    304.98135    23160.634   -130.62156    80.696698   -8938.8723    8.6534066 
  180000    311.02131    23167.521   -46.684461    82.294845   -8936.5083    8.6508343 
  181000     300.8908    23157.026    104.32632    79.614357   -8938.6275    8.6547551 
  182000    298.00266    23155.635     864.4315    78.850169   -8935.4477     8.655275 
  183000    294.29948    23134.252    2782.6654    77.870322   -8933.9928    8.6632751 
  184000    297.34622    23124.882    3483.8807    78.676477   -8933.8065    8.6667853 
  185000    300.13476    23137.366    2214.4661    79.414312   -8935.7188    8.6621091 
  186000    301.37437    23151.812    1450.8043    79.742308   -8934.5268    8.6567041 
  187000    300.11881    23145.672    1835.2534     79.41009    -8934.727    8.6590007 
  188000    294.49215     23141.47    2009.4922    77.921302    -8935.095    8.6605728 
  189000    305.14591    23168.085    212.41369    80.740239   -8934.6747    8.6506236 
  190000    296.27216    23165.583    337.95513    78.392286   -8934.8678     8.651558 
  191000     304.7041    23184.359   -906.95125    80.623338   -8934.2422    8.6445514 
  192000    298.31245    23199.876   -2727.5677    78.932138   -8936.7369    8.6387698 
  193000    298.89698    23219.878    -3935.635    79.086802   -8935.3388    8.6313282 
  194000    306.59827     23213.92   -3733.4107    81.124528   -8937.0371    8.6335433 
  195000    301.13051    23198.391   -2071.2575    79.677783   -8934.5505    8.6393228 
  196000    303.72645    23188.285   -1573.5539    80.364658   -8936.1017    8.6430881 
  197000    293.28955    23166.114   -436.45725    77.603101   -8937.8224    8.6513596 
  198000    299.55448    23188.775   -1453.8319    79.260773   -8934.9689    8.6429054 
  199000     303.3704    23170.883   -920.89897    80.270449   -8938.7914    8.6495791 
  200000    301.13511    23165.642    101.39698    79.678999   -8935.9253     8.651536 
  201000    297.20783    23153.336     392.1682     78.63986   -8938.5756    8.6561343 
  202000    300.51347    23149.042    1494.7041    79.514516   -8935.3277    8.6577401 
  203000    294.92387    23120.629    3588.6588    78.035534   -8935.2166    8.6683796 
  204000    295.54071      23132.1    2535.8212    78.198748   -8935.9521    8.6640808 
  205000    306.34271    23162.051    928.08241    81.056909   -8933.3168    8.6528773 
  206000    295.40637    23160.019    557.78782    78.163202   -8935.5648    8.6536364 
  207000    301.87069    23164.124    947.64553    79.873631   -8932.1861    8.6521029 
  208000    303.16382    23139.574    1614.6059    80.215788    -8938.111    8.6612824 
  209000    306.96391    23151.861    1459.8382    81.221274   -8934.8845    8.6566857 
  210000    299.58688    23137.621     2055.445    79.269346    -8936.418    8.6620135 
  211000    298.11203    23128.441    3152.5309    78.879107   -8934.7319    8.6654516 
  212000     307.7943     23122.57    2881.5099    81.440993   -8938.1032    8.6676519 
  213000    297.66574    23143.817    1670.7504    78.761021   -8935.7718    8.6596946 
  214000    304.46214    23162.029    304.24446    80.559319   -8936.0987    8.6528854 
  215000    295.92942    23154.172     716.7083    78.301598   -8936.4918    8.6558216 
  216000    312.23469    23161.223    480.42509      82.6159   -8935.7479    8.6531868 
  217000    297.25379    23150.304    1295.6922    78.652021    -8935.046    8.6572681 
  218000    299.27707    23164.773    137.99836    79.187372   -8935.6543    8.6518605 
  219000     299.3106    23171.758   -409.82338    79.196243    -8935.542    8.6492524 
  220000    311.64232     23176.87   -717.39363     82.45916   -8936.2264    8.6473447 
  221000    304.41755    23182.942   -1591.4585     80.54752   -8937.6892    8.6450798 
  222000    299.84944    23185.698   -1559.1866    79.338818    -8936.233    8.6440523 
  223000    305.40671    23196.136   -2055.8573    80.809247   -8935.3116    8.6401625 
  224000    287.68307    23177.241    -848.6959    76.119651   -8935.5178    8.6472063 
  225000    299.20849    23172.736   -224.86114    79.169224   -8934.6584    8.6488873 
  226000    299.13773    23173.636   -92.266835    79.150501   -8933.9436    8.6485516 
  227000    291.62503    23163.316    582.02643    77.162675   -8933.8565    8.6524049 
  228000    306.77902    23175.264   -574.23659    81.172353   -8936.1088    8.6479441 
  229000    304.52078    23171.684   -572.22818    80.574832   -8936.9764    8.6492801 
  230000    295.56501    23159.183    231.76141    78.205176    -8937.093    8.6539487 
  231000    293.93654    23154.405    1456.5553    77.774292   -8932.9268    8.6557348 
  232000    295.15114    23144.396    1025.5975     78.09567   -8938.7499     8.659478 
  233000    305.88726    23165.876    444.69561    80.936398   -8934.4153    8.6514485 
  234000    295.98332    23158.051    550.71961     78.31586    -8936.249    8.6543718 
  235000    298.57561      23152.9    817.11445    79.001769   -8936.7903    8.6562974 
  236000    307.20821    23157.262    1000.8892    81.285915   -8934.9574    8.6546668 
  237000    295.32517     23158.55    1531.0308    78.141715   -8931.1151    8.6541854 
  238000    300.35463    23162.681     275.6193    79.472488   -8936.1412     8.652642 
  239000    294.20348    23170.275    201.52279    77.844921   -8933.2735    8.6498061 
  240000    293.22129    23171.103   -741.79482     77.58504   -8937.0859     8.649497 
  241000    310.13076    23178.989   -602.86688    82.059208    -8935.236    8.6465542 
  242000    299.65656    23172.409   -449.49828    79.287781   -8935.8556    8.6490096 
  243000    306.82745    23180.923   -705.75372    81.185168    -8934.874    8.6458327 
  244000     296.9114    23182.356   -1020.1248    78.561424   -8935.0844    8.6452984 
  245000    298.03724    23197.104   -2321.4363    78.859317   -8935.4431     8.639802 
  246000     298.2889    23199.833    -2149.152    78.925906   -8934.4155    8.6387856 
  247000    292.16049     23186.99   -1508.4728    77.304355   -8935.1612    8.6435708 
  248000    300.61236    23177.358   -817.38803    79.540682   -8935.8984    8.6471626 
  249000    299.41984    23185.662   -544.96637    79.225147   -8931.8203    8.6440657 
  250000    297.37311    23172.983   -402.81934    78.683593   -8935.5757    8.6487953 
  251000     292.5505    23166.821   -225.58383    77.407551   -8936.2534    8.6510957 
  252000    295.13247    23169.774   -127.47709    78.090729   -8934.9432    8.6499931 
  253000    297.95965    23166.363    157.34895    78.838788   -8935.3877    8.6512667 
  254000    306.23571    23152.332    998.53666    81.028597   -8936.7176    8.6565096 
  255000    302.47649    23145.519    1640.0728    80.033924   -8935.7375    8.6590579 
  256000    306.22566    23150.323    1235.2587    81.025937   -8936.4279     8.657261 
  257000    297.10118    23148.038    1270.0441    78.611641   -8936.2425    8.6581156 
  258000    303.21874    23162.984    987.38424    80.230319    -8932.771    8.6525288 
  259000    305.93294    23157.002    955.32972    80.948484   -8935.6757     8.654764 
  260000    303.78698    23163.791     337.6305    80.380674    -8935.581    8.6522272 
  261000    295.40765     23138.92    1986.3443    78.163541   -8935.7871    8.6615274 
  262000    300.12313    23146.007    1394.8532    79.411234   -8936.6024    8.6588753 
  263000    305.76604    23152.632    1418.4926    80.904323   -8934.4263    8.6563974 
  264000    293.93655    23147.435    1434.7864    77.774293   -8936.0053    8.6583411 
  265000    297.37234    23158.533    910.21388    78.683389   -8934.1317    8.6541918 
  266000     297.8632    23161.598      173.414    78.813268   -8936.4548    8.6530465 
  267000    298.28553    23158.288    640.92059    78.925014    -8935.711    8.6542833 
  268000    305.92248    23179.985   -210.92339    80.945717   -8932.4439    8.6461826 
  269000    304.13322    23193.199   -1840.3358    80.472288   -8935.3445    8.6412568 
  270000    293.03961    23176.118   -985.30057    77.536968   -8936.7445    8.6476253 
  271000    306.31416    23188.101   -827.24704    81.049353   -8932.5851    8.6431567 
  272000    299.46056    23173.047   -659.44185    79.235921   -8936.4951    8.6487713 
  273000    305.70684    23190.831   -1186.0448     80.88866   -8933.2502    8.6421391 
  274000    290.43641    23192.611   -1658.2196    76.848171   -8933.7997    8.6414757 
  275000    295.95018    23210.566   -2949.0771     78.30709   -8933.9128     8.634791 
  276000    304.75417    23190.225   -2160.9534    80.636588   -8937.7967     8.642365 
  277000    307.26424    23189.509   -1050.0137    81.300741   -8933.0911    8.6426318 
  278000    299.73623    23174.495   -729.22203    79.308863   -8936.4486    8.6482312 
  279000    302.14829    23180.678   -481.60241    79.947082   -8933.1885    8.6459241 
  280000    295.83979    23166.703    -276.1354    78.277882   -8936.9151    8.6511396 
  281000     308.6517    23169.164    27.518521    81.667855   -8935.0183    8.6502208 
  282000    302.43477    23169.118   -197.73082    80.022885   -8935.7808    8.6502381 
  283000    293.18423    23160.939    305.53412    77.575232   -8935.9861    8.6532927 
  284000    292.15037    23156.716    560.40785    77.301678   -8936.2355     8.654871 
  285000     303.0228    23150.984    1151.7563    80.178474    -8936.233    8.6570136 
  286000    301.21194    23131.928    2659.5988     79.69933   -8935.9126    8.6641452 
  287000    310.10231    23157.557    1410.2835     82.05168   -8933.1401    8.6545564 
  288000    300.37106     23150.26    1216.9097    79.476836   -8936.1308    8.6572846 
  289000    307.83304    23162.154      829.236    81.451242   -8933.5609    8.6528388 
  290000    307.38036    23154.403    572.06975    81.331464   -8937.7099    8.6557353 
  291000    305.67332    23149.734    1596.6422    80.879789   -8934.8809    8.6574811 
  292000    305.83015    23150.879    1387.3785    80.921286   -8935.0089    8.6570532 
  293000    291.11893    23157.227    481.78294    77.028763   -8936.6281    8.6546798 
  294000    303.78826    23174.405   -460.06588    80.381011   -8935.6339    8.6482644 
  295000     299.7375    23166.809   -421.04332    79.309199   -8937.9482    8.6511002 
  296000    300.80582     23178.86   -1027.2547    79.591872   -8936.5049    8.6466023 
  297000    304.67796    23172.163   -131.51017    80.616423     -8934.75    8.6491014 
  298000    286.34896    23166.346    -71.39271    75.766652     -8935.52    8.6512731 
  299000    304.25716    23175.953   -613.22133     80.50508    -8935.612    8.6476869 
  300000    294.70243    23186.229   -1389.4958    77.976941   -8935.6891    8.6438543 
  301000    291.41518    23191.072   -1898.3685    77.107151   -8935.7231    8.6420493 
  302000    309.11906    23202.533   -2613.9267    81.791517   -8935.9752    8.6377805 
  303000    302.75287    23184.689   -1606.9017    80.107052   -8937.4236    8.6444287 
  304000    304.58181    23174.369   -723.94116    80.590982   -8936.8389     8.648278 
  305000    305.33126    23167.125    552.34638    80.789283   -8933.4675    8.6509824 
  306000    298.92201    23155.598     739.4409    79.093424   -8936.2123    8.6552889 
  307000    301.31607    23140.994    2160.1264     79.72688   -8935.1011    8.6607509 
  308000    301.95908    23116.019    2919.7967    79.897019   -8939.7881    8.6701081 
  309000    300.79865    23133.781      2631.29    79.589974    -8934.991    8.6634512 
  310000    296.65184    23151.222    1767.0401    78.492746   -8932.9157    8.6569246 
  311000    297.00017     23156.09    964.76072    78.584914   -8934.7623     8.655105 
  312000    300.71531    23157.672    1099.1593    79.567924   -8933.6872    8.6545136 
  313000    305.52209      23161.7   -48.000558    80.839775   -8938.2041    8.6530084 
  314000    305.26362    23181.256   -1327.7581    80.771386   -8937.2474    8.6457087 
  315000    299.67636    23181.244    -1460.988    79.293022   -8937.4855    8.6457133 
  316000     302.7892    23191.477   -1631.8925    80.116665   -8935.0202    8.6418983 
  317000    301.19076    23184.171   -1262.8693    79.693723   -8935.9994    8.6446215 
  318000    300.32013    23176.752   -432.98323    79.463359   -8934.2487    8.6473889 
  319000    304.34737    23164.803    26.827009     80.52895   -8936.4598    8.6518495 
  320000    292.19044    23164.097    308.74207     77.31228   -8934.9345    8.6521132 
  321000    292.50369    23177.734   -796.46716    77.395165   -8935.5807    8.6470224 
  322000    300.44144    23221.137   -3786.5398    79.495459   -8934.3905      8.63086 
  323000    299.03045    23200.719   -2562.4105    79.122116   -8935.7163    8.6384557 
  324000    297.76341    23182.775   -1509.8109    78.786863   -8937.0731    8.6451421 
  325000    300.09761     23184.96   -943.91123    79.404483   -8933.7067    8.6443274 
  326000    302.44224    23187.211   -1596.4048     80.02486   -8936.2623    8.6434883 
  327000     293.0771    23174.946   -978.99283    77.546887    -8937.324    8.6480626 
  328000    293.40835    23165.276    236.09154    77.634535   -8934.9486    8.6516726 
  329000    303.23929    23163.084     504.5148    80.235756   -8934.7732    8.6524914 
  330000    300.79138    23153.425    842.58847     79.58805   -8936.6177     8.656101 
  331000    294.27997    23139.969    2098.3681    77.865161   -8935.3123    8.6611348 
  332000     308.4519    23134.884    2304.5357    81.614991   -8936.6003    8.6630384 
  333000    304.37471    23109.203    3665.7745    80.536184   -8939.3302    8.6726655 
  334000    303.14213     23143.65    1797.7381    80.210048    -8935.682     8.659757 
  335000    294.90391    23131.712    2054.0553    78.030254   -8938.0063    8.6642261 
  336000    306.06577     23138.46    2123.5115     80.98363   -8936.2979    8.6616996 
  337000    298.27818    23138.612    1521.9265     78.92307   -8938.8309    8.6616426 
  338000    311.17449    23159.989    471.32473    82.335374   -8936.9548    8.6536477 
  339000    294.13026    23154.869    777.58732    77.825547   -8936.0128    8.6555611 
  340000    303.26766    23161.697    830.74654    80.243262   -8934.0929    8.6530096 
  341000    298.14288    23168.867    58.538832    78.887271    -8934.896    8.6503319 
  342000    292.42888    23178.034   -335.30804     77.37537   -8932.9014    8.6469104 
  343000    304.67076    23199.696   -2803.5156    80.614518   -8937.3231    8.6388368 
  344000    295.81041    23179.095    -931.0041    78.270108   -8935.5652    8.6465148 
  345000    300.52008    23172.512    41.000282    79.516266   -8933.5702    8.6489711 
  346000    299.18825    23163.543   -259.89905    79.163871   -8938.0364      8.65232 
  347000    302.46852    23155.057    1335.2418    80.031815   -8933.4987     8.655491 
  348000    304.05851    23147.811    1284.9817    80.452519   -8936.6669    8.6582004 
  349000    310.50118    23166.102    349.62682    82.157221   -8934.9179    8.6513641 
  350000    298.15438     23177.46   -867.40675    78.890313   -8935.7512    8.6471249 
Loop time of 694.91 on 8 procs for 350000 steps with 2048 atoms

Performance: 43.516 ns/day, 0.552 hours/ns, 503.662 timesteps/s
116.2% CPU use with 4 MPI tasks x 2 OpenMP threads

MPI task timing breakdown:
Section |  min time  |  avg time  |  max time  |%varavg| %total
---------------------------------------------------------------
Pair    | 402.92     | 409.52     | 416.43     |  24.3 | 58.93
Neigh   | 0          | 0          | 0          |   0.0 |  0.00
Comm    | 34.787     | 42.132     | 49.099     |  80.1 |  6.06
Output  | 0.0084398  | 0.015167   | 0.01741    |   3.2 |  0.00
Modify  | 241.92     | 242.29     | 242.73     |   1.9 | 34.87
Other   |            | 0.9577     |            |       |  0.14

Nlocal:        512.000 ave         512 max         512 min
Histogram: 4 0 0 0 0 0 0 0 0 0
Nghost:        3101.00 ave        3101 max        3101 min
Histogram: 4 0 0 0 0 0 0 0 0 0
Neighs:        45056.0 ave       47082 max       42995 min
Histogram: 1 0 1 0 0 0 0 1 0 1

Total # of neighbors = 180224
Ave neighs/atom = 88.000000
Neighbor list builds = 0
Dangerous builds = 0


# fix 132 all momentum 100 linear 1 1 1 angular
fix out_file_1 all print 1000 "$(step) $(temp) $(press) ${sys_press} $(vol) $(ke) $(pe) $(density)" file one_phase_heating_$T_.txt screen no title  "step temp press pressGiga vol ke pe density"
fix out_file_1 all print 1000 "$(step) $(temp) $(press) ${sys_press} $(vol) $(ke) $(pe) $(density)" file one_phase_heating_300_.txt screen no title  "step temp press pressGiga vol ke pe density"

# dump 3 all custom 1000 traj_npt_new.lammpstrj id type x y z
run 50000
Last active /omp style is pair_style eam/alloy/omp
Per MPI rank memory allocation (min/avg/max) = 4.354 | 4.354 | 4.354 Mbytes
Step Temp Volume Press KinEng PotEng Density 
  350000    298.15438     23177.46   -867.40675    78.890313   -8935.7512    8.6471249 
  351000    307.82993    23183.607   -1097.6194    81.450419   -8935.2465    8.6448321 
  352000    297.38286     23165.74    245.20952     78.68617   -8934.6446    8.6514995 
  353000    301.17667    23169.348   -55.023245    79.689996   -8934.8593    8.6501522 
  354000    300.76615    23153.246     953.2641    79.581376   -8936.4316    8.6561681 
  355000    295.00564    23143.823    1981.6648     78.05717   -8934.3251    8.6596924 
  356000    300.12336    23135.362    2563.8661    79.411295    -8935.107    8.6628595 
  357000    305.07454    23137.472    2248.8127    80.721355   -8935.7246    8.6620694 
  358000    297.28639    23138.385    2328.5348    78.660647   -8934.5873    8.6617275 
  359000    293.95557    23134.723    2226.5467    77.779326   -8936.2517    8.6630988 
  360000     302.2089    23116.829    3824.0379     79.96312   -8935.8384    8.6698043 
  361000    299.83563    23136.914    1737.9568    79.335163   -8938.1511    8.6622784 
  362000    294.71285    23143.356    1878.3087      77.9797   -8935.0679     8.659867 
  363000    299.35947     23157.41    1381.5302    79.209173   -8932.7744    8.6546113 
  364000    304.71644    23167.412   -85.410485    80.626603   -8936.2168     8.650875 
  365000    298.47584    23170.935     168.9575     78.97537   -8933.7164    8.6495598 
  366000    298.63835    23182.854   -1053.1637    79.018369   -8935.2366    8.6451129 
  367000    299.65093    23201.917   -1926.1085    79.286292   -8932.4802    8.6380097 
  368000    296.99572    23186.781   -1623.3457    78.583736   -8936.3776    8.6436484 
  369000    294.52357    23170.062   -354.39877    77.929617   -8936.2743    8.6498857 
  370000    298.29659    23174.938   -516.04464    78.927939   -8935.3727    8.6480656 
  371000    291.17259    23170.852   -294.98208    77.042963   -8935.3214    8.6495907 
  372000    301.26862    23194.852   -1801.0101    79.714327   -8934.5382    8.6406407 
  373000    292.92854    23168.828   -260.58759    77.507577   -8935.7752    8.6503463 
  374000    307.50599    23166.339    233.42133    81.364707    -8934.961    8.6512756 
  375000    301.12238    23156.569    789.24163    79.675633   -8935.4497     8.654926 
  376000    295.18437    23146.048    1091.3578     78.10446   -8937.5141    8.6588598 
  377000    294.49136    23159.492    1091.9665    77.921092   -8932.7532    8.6538334 
  378000    291.13771     23154.62    25.228793    77.033732   -8939.3438    8.6556542 
  379000    301.09491    23166.639    77.760416    79.668364   -8935.2748    8.6511639 
  380000    301.28715    23156.034    191.91014    79.719229   -8938.7072    8.6551257 
  381000    305.67266    23159.433     873.3041    80.879616   -8934.3696    8.6538554 
  382000    300.27431    23140.065    1872.9372    79.451236   -8936.4129    8.6610988 
  383000    290.88351    23135.254    2099.6025    76.966474   -8936.4665    8.6628999 
  384000    303.43456    23147.018    1479.5606    80.287423    -8935.993    8.6584971 
  385000    298.60537    23140.685    2047.8397    79.009643   -8935.2812    8.6608665 
  386000    299.37658    23141.041    2011.8076    79.213702   -8935.1426    8.6607333 
  387000    304.56714    23117.788    3931.1285    80.587101   -8934.9887    8.6694447 
  388000    297.29249    23120.428    3452.6883    78.662259   -8935.8273    8.6684549 
  389000    312.66245    23153.518    1447.4584    82.729084   -8933.9723    8.6560665 
  390000    292.51475    23145.961    1623.8699    77.398092   -8935.1925    8.6588925 
  391000    304.35465    23162.733     346.0145    80.530875   -8935.5774    8.6526225 
  392000    302.48903    23162.385    318.05605    80.037241   -8936.2501    8.6527525 
  393000    295.04255      23181.3   -915.80261    78.066935   -8934.8716    8.6456922 
  394000    299.20821    23206.411   -3108.1499    79.169151   -8936.1271     8.636337 
  395000    308.36518    23215.534   -3363.4743    81.592044   -8934.8224     8.632943 
  396000    303.95159     23180.92    -1523.043    80.424227   -8938.0843    8.6458339 
  397000    294.85898    23171.479    130.48226    78.018364   -8933.3748    8.6493568 
  398000    297.22912    23166.868   -334.36409    78.645494   -8937.1465    8.6510783 
  399000      301.526    23178.436   -847.19221    79.782429   -8935.4337    8.6467605 
  400000    284.27074    23185.029   -1112.0763    75.216765   -8933.7863    8.6443018 
Loop time of 98.9941 on 8 procs for 50000 steps with 2048 atoms

Performance: 43.639 ns/day, 0.550 hours/ns, 505.081 timesteps/s
118.4% CPU use with 4 MPI tasks x 2 OpenMP threads

MPI task timing breakdown:
Section |  min time  |  avg time  |  max time  |%varavg| %total
---------------------------------------------------------------
Pair    | 57.031     | 57.945     | 59.821     |  14.4 | 58.53
Neigh   | 0          | 0          | 0          |   0.0 |  0.00
Comm    | 4.0332     | 5.9653     | 6.8772     |  46.3 |  6.03
Output  | 0.0013127  | 0.0021685  | 0.0024565  |   1.1 |  0.00
Modify  | 34.909     | 34.951     | 35.01      |   0.6 | 35.31
Other   |            | 0.1305     |            |       |  0.13

Nlocal:        512.000 ave         531 max         492 min
Histogram: 1 1 0 0 0 0 0 0 1 1
Nghost:        3101.00 ave        3121 max        3082 min
Histogram: 1 1 0 0 0 0 0 0 1 1
Neighs:        41952.8 ave       45404 max       40054 min
Histogram: 1 1 1 0 0 0 0 0 0 1

Total # of neighbors = 167811
Ave neighs/atom = 81.938965
Neighbor list builds = 0
Dangerous builds = 0

unfix temp
unfix out_file_1
# unfix 1
# # clear
write_data after_heating_$T.in
write_data after_heating_300.in
System init for write_data ...
Last active /omp style is pair_style eam/alloy/omp
write_restart after_heating_$T.lmp
write_restart after_heating_300.lmp
System init for write_restart ...
Last active /omp style is pair_style eam/alloy/omp
next loopVar
# # # thermo_modify flush yes
jump in.lmp ensemble

print """
Label pachadi solti, hos garam.
"""

Label pachadi solti, hos garam.

variable T equal 200+${loopVar}*100
variable T equal 200+2*100
# variable T equal 1200
# velocity all create 1200 123123
reset_timestep 0
fix 1 all npt temp $T $T $(dt*100) iso 0 0 $(dt*1000)
fix 1 all npt temp 400 $T $(dt*100) iso 0 0 $(dt*1000)
fix 1 all npt temp 400 400 $(dt*100) iso 0 0 $(dt*1000)
fix 1 all npt temp 400 400 0.10000000000000000555 iso 0 0 $(dt*1000)
fix 1 all npt temp 400 400 0.10000000000000000555 iso 0 0 1
print """
<--------------------------------------------------------------------->
<------------------ Equilibrating at temperature $T ----------------->
<--------------------------------------------------------------------->
"""

<--------------------------------------------------------------------->
<------------------ Equilibrating at temperature 400 ----------------->
<--------------------------------------------------------------------->

fix temp all print 100 "$(step) $(temp) $(press) ${sys_press} $(vol) $(ke) $(pe) $(density)" file temp_heat.txt screen no title  "step temp press pressGiga vol ke pe density"
run 350000
Last active /omp style is pair_style eam/alloy/omp
Per MPI rank memory allocation (min/avg/max) = 4.354 | 4.354 | 4.354 Mbytes
Step Temp Volume Press KinEng PotEng Density 
       0    284.27074    23185.029   -1112.0763    75.216765   -8933.7863    8.6443018 
    1000    394.19249    23251.088    78.142538    104.30156   -8911.2791    8.6197423 
    2000    408.84709    23214.069    3909.6137    108.17911   -8906.7437    8.6334879 
    3000    402.06722    23200.559    4596.9699    106.38518   -8908.1298    8.6385153 
    4000    400.93266    23264.275    97.517989    106.08499   -8907.0478    8.6148562 
    5000    403.63712    23289.442   -1837.8759    106.80057   -8907.6587    8.6055471 
    6000    397.38403    23304.264   -2582.2922    105.14603   -8905.0712    8.6000737 
    7000    389.57086    23276.622   -1310.2274     103.0787   -8908.6384    8.6102867 
    8000    405.41576    23266.121   -22.882111    107.27119   -8906.9653    8.6141727 
    9000    395.26563    23194.021    4188.1147    104.58551   -8912.1755    8.6409503 
   10000    396.43308     23214.15    4150.5048    104.89441   -8905.8299    8.6334578 
   11000    400.69768    23267.243   -223.35145    106.02281   -8907.4497    8.6137576 
   12000    402.38886    23288.088   -1507.6989    106.47029   -8906.0002    8.6060471 
   13000    400.92054    23292.452   -2398.7287    106.08178   -8908.7936    8.6044349 
   14000    413.73616    23283.932   -951.48605    109.47273   -8905.9851    8.6075833 
   15000    398.08148     23218.56     2888.204    105.33058   -8909.6342     8.631818 
   16000     414.2152    23249.868    1290.2377    109.59949   -8907.3376    8.6201945 
   17000    387.69171    23250.588    1543.6879    102.58149   -8903.4769    8.6199276 
   18000    395.59963    23264.437   -1089.8384    104.67389   -8911.9271    8.6147965 
   19000    402.05734    23291.885   -1967.9667    106.38257   -8907.0285    8.6046443 
   20000    389.47025    23310.288   -3549.2429    103.05208   -8907.2621    8.5978511 
   21000    401.27846    23249.774    624.15529    106.17648   -8909.2975    8.6202295 
   22000    389.06507    23235.301    1946.3933    102.94487   -8907.4833    8.6255989 
   23000    400.15865    23243.825    1678.8784    105.88019   -8906.6319    8.6224356 
   24000    399.85957    23252.337     563.1113    105.80105   -8908.6531    8.6192793 
   25000    416.72147    23310.552   -2993.2623    110.26263   -8906.5855    8.5977537 
   26000    399.17913    23312.256   -3607.3261    105.62101   -8907.6467    8.5971254 
   27000    397.25985    23264.452   -306.95262    105.11317   -8909.0234    8.6147906 
   28000    402.74911    23241.797    1951.3367    106.56561   -8906.2078     8.623188 
   29000    400.77707    23234.122     1307.955    106.04382   -8911.8728    8.6260366 
   30000    392.42567    23262.444    450.12398    103.83407   -8905.1608    8.6155345 
   31000    401.32039    23276.318    -1164.171    106.18758   -8908.7841     8.610399 
   32000    396.93452    23278.711   -878.75549     105.0271   -8906.6098    8.6095141 
   33000    389.38976    23233.285    2046.2701    103.03078   -8908.2017    8.6263475 
   34000    416.17833     23199.65    4910.6332    110.11892   -8907.8972    8.6388539 
   35000    391.21371    23238.861    1637.1721    103.51339   -8908.1704    8.6242775 
   36000    392.84339    23277.003   -874.88238     103.9446   -8906.6665    8.6101458 
   37000    393.63426    23284.472   -1655.7459    104.15386   -8907.7487    8.6073837 
   38000    400.15123    23279.931   -1116.8318    105.87822   -8906.9985    8.6090629 
   39000    400.68235     23228.37     2321.975    106.01875   -8908.9591    8.6281727 
   40000     413.7947    23201.519    3697.4089    109.48822   -8913.0095     8.638158 
   41000    398.27073    23236.956    2102.3171    105.38065     -8907.26    8.6249845 
   42000    403.30023    23275.068    -190.3259    106.71143   -8904.9933    8.6108614 
   43000    399.47976    23280.205    -1480.651    105.70055   -8908.9501    8.6089614 
   44000    401.16467     23293.69   -1381.9445    106.14637   -8903.9778    8.6039777 
   45000    389.55769      23252.3    671.20612    103.07522   -8907.7718    8.6192932 
   46000    409.37902    23225.416    2593.3847    108.31985   -8909.6517    8.6292701 
   47000    420.61075    23265.232   -124.86513    111.29172   -8908.3416    8.6145019 
   48000    389.60408    23264.856    23.298719    103.08749   -8906.4824    8.6146414 
   49000    396.35451    23307.758   -2549.6472    104.87363   -8903.7839    8.5987843 
   50000    397.84411    23312.974   -3868.6965    105.26777   -8908.4264    8.5968605 
   51000    411.15638    23281.234   -918.53189    108.79013   -8906.3723     8.608581 
   52000    403.27522    23246.058    1428.0707    106.70482   -8906.9564    8.6216075 
   53000    403.39154    23253.036    337.86144    106.73559   -8910.1276    8.6190201 
   54000    400.55532    23251.495     1056.647    105.98514   -8906.8431    8.6195914 
   55000    404.19371    23288.865   -1156.5488    106.94784   -8903.9779    8.6057603 
   56000    397.48516     23316.43   -4140.2482    105.17279   -8908.0708    8.5955861 
   57000    409.46165    23283.773   -1605.0915    108.34172   -8908.1512    8.6076422 
   58000    399.75278     23238.98    1944.7118    105.77279   -8907.0352    8.6242334 
   59000    402.32815    23244.707    1148.4526    106.45422   -8909.0001    8.6221084 
   60000    406.48326    23257.529    899.86326    107.55365   -8905.4176    8.6173552 
   61000    392.22964    23247.793    302.26392     103.7822   -8910.8861    8.6209638 
   62000    413.16991     23298.39   -2659.5338     109.3229   -8909.0725    8.6022418 
   63000    393.14601    23314.614   -3958.1073    104.02467   -8907.9098    8.5962557 
   64000    422.37899    23289.007    -1385.571    111.75959   -8906.2408    8.6057076 
   65000    402.99082     23247.92    749.16848    106.62956   -8909.8497    8.6209169 
   66000    400.50387    23259.302    902.20196    105.97153   -8904.9359    8.6166982 
   67000    400.01381    23253.363    330.41816    105.84186   -8909.8785     8.618899 
   68000     402.3957    23255.647     936.6208     106.4721   -8907.1429    8.6180526 
   69000    388.03848    23243.513    907.34129    102.67324   -8910.0728    8.6225514 
   70000    393.82239    23305.999   -2411.9866    104.20364   -8903.8295    8.5994334 
   71000    397.12283    23308.877   -3265.7927    105.07692   -8907.0217    8.5983715 
   72000    397.88511     23269.78   -419.50067    105.27862    -8907.424    8.6128184 
   73000    408.78905    23273.346   -501.56929    108.16375   -8907.3764    8.6114986 
   74000    405.44282    23263.942   -724.19849    107.27835   -8910.6176    8.6149797 
   75000    398.77103    23265.477   -381.85305    105.51303   -8908.6436    8.6144113 
   76000    394.79907    23264.189    -63.72213    104.46206   -8907.9385    8.6148881 
   77000      393.653     23249.16    1388.0932    104.15882   -8905.7328     8.620457 
   78000    410.57603    23224.189    4050.2276    108.63658   -8902.8427    8.6297259 
   79000    391.05765    23223.647    2805.1716     103.4721   -8908.2617    8.6299273 
   80000    406.43603    23281.283   -1263.8625    107.54115   -8907.3991    8.6085629 
   81000    414.27861    23291.051   -2245.3325    109.61626   -8909.0243    8.6049523 
   82000    398.68182    23285.654   -1722.2813    105.48942   -8907.6198     8.606947 
   83000    406.71959    23246.867    1419.9581    107.61618   -8907.4361    8.6213072 
   84000    399.27493    23183.877    5712.7337    105.64636   -8908.9547    8.6447313 
   85000    401.53321    23241.582    2022.0778    106.24389   -8905.8535     8.623268 
   86000    388.03649    23261.532    310.45123    102.67271   -8906.2203    8.6158723 
   87000    401.39925    23277.101   -1266.4993    106.20844   -8909.1665    8.6101094 
   88000    390.80477    23290.325   -2235.5222    103.40519   -8907.9964    8.6052208 
   89000    398.75162    23266.905   -1150.2845    105.50789   -8911.3793    8.6138824 
   90000    405.91666    23235.023    2375.0775    107.40373   -8906.8343     8.625702 
   91000    393.96194    23217.822    2888.0932    104.24056   -8909.5613    8.6320925 
   92000    404.89777    23254.504    750.88425    107.13413   -8907.3066    8.6184762 
   93000    400.31132    23286.294   -1936.5211    105.92058   -8908.4759    8.6067103 
   94000    393.38302     23279.09   -1640.6965    104.08738   -8909.6723    8.6093736 
   95000     395.7435    23289.008   -1553.9383    104.71196   -8906.0005    8.6057071 
   96000    392.02061    23245.437     1386.888    103.72689   -8907.0724    8.6218379 
   97000    401.11581    23212.706    3913.9259    106.13345    -8907.171    8.6339951 
   98000    407.48843    23247.321    543.34244    107.81961   -8911.7261    8.6211392 
   99000    403.61117    23266.357   -24.207615     106.7937   -8906.8575    8.6140856 
  100000    399.00973    23264.415   -111.88939    105.57619   -8907.9827    8.6148046 
  101000    400.82594    23246.442    1365.8725    106.05675   -8907.4698    8.6214648 
  102000    395.28298    23214.237    3684.4812     104.5901   -8907.5234    8.6334257 
  103000    382.37468    23233.461    1858.8226    101.17463   -8908.9849     8.626282 
  104000    397.60058    23292.421   -1880.6817    105.20333    -8906.201    8.6044463 
  105000    392.00349    23291.221   -2502.5532    103.72237   -8909.0761    8.6048897 
  106000    411.32323    23276.194   -858.69624    108.83428   -8907.4416    8.6104449 
  107000    408.88139    23252.538    576.30364    108.18818   -8908.9496    8.6192048 
  108000    390.58441    23245.402    1774.8062    103.34688   -8904.9927    8.6218506 
  109000    408.92422    23253.767    526.53862    108.19951    -8908.675    8.6187492 
  110000    404.60639    23270.242   -578.21595    107.05704   -8908.2684    8.6126474 
  111000    403.42203    23287.723     -2042.19    106.74366   -8908.7243     8.606182 
  112000      384.112    23290.688    -2507.004    101.63431   -8908.3704    8.6050864 
  113000    402.56936    23287.424   -2107.3487    106.51805   -8909.1921    8.6062928 
  114000    413.36831    23251.708    1179.7413     109.3754   -8906.5593    8.6195124 
  115000    412.20991    23252.446    905.67974    109.06889   -8907.8873    8.6192389 
  116000    392.22231    23249.451    761.29462    103.78027   -8908.1288    8.6203491 
  117000    393.41932    23270.919   -205.60406    104.09699   -8905.4568    8.6123966 
  118000    396.12544    23273.254   -1329.0795    104.81302   -8909.9317    8.6115327 
  119000    401.16017    23266.838   -451.57497    106.14518   -8908.1202    8.6139074 
  120000    399.45225    23227.565    2985.5218    105.69327   -8906.4736    8.6284716 
  121000    401.22328    23223.211    2811.5485    106.16188   -8908.6381    8.6300894 
  122000    404.35552    23286.048   -645.90838    106.99066   -8903.0371    8.6068011 
  123000    396.80143    23289.343   -2036.2866    104.99188   -8907.9913    8.6055836 
  124000    399.52477    23286.148   -1352.0147    105.71246    -8905.646    8.6067642 
  125000    402.24759    23270.144   -141.84951    106.43291   -8906.4201    8.6126834 
  126000     398.7731    23265.947   -109.22409    105.51357   -8907.7024    8.6142372 
  127000    396.18376    23238.411    1689.4321    104.82845   -8908.6208    8.6244446 
  128000    398.97592    23212.132    3872.7026    105.56724   -8907.2145    8.6342086 
  129000    399.71188    23234.589    1622.0484    105.76197   -8910.1318    8.6258631 
  130000    406.32637    23280.936   -1173.4379    107.51213   -8907.8833    8.6086912 
  131000    403.92903    23278.715   -1657.5326    106.87781    -8909.763    8.6095123 
  132000     397.1628    23274.393   -849.82737     105.0875   -8907.6624    8.6111114 
  133000     401.5386    23269.806   -334.87825    106.24531   -8907.4619    8.6128085 
  134000    402.55146    23236.383    1229.9903    106.51331   -8911.6193    8.6251971 
  135000    401.41262     23230.52    2907.6392    106.21198   -8906.0471    8.6273741 
  136000    394.74631    23257.072    529.38174     104.4481   -8907.2187    8.6175245 
  137000    418.53471    23308.655   -2641.2311    110.74241    -8905.846    8.5984537 
  138000    400.09285    23292.559   -2428.9416    105.86277    -8908.918    8.6043955 
  139000    404.92512    23260.746   -49.417584    107.14137   -8909.3466    8.6161634 
  140000    384.88377    23232.363    2199.4325    101.83852   -8907.4507    8.6266896 
  141000    400.01083    23243.242    1564.2584    105.84107   -8907.6044    8.6226519 
  142000    388.00947    23233.242    2295.7905    102.66557    -8907.017    8.6263635 
  143000    391.30875    23294.207   -2099.0176    103.53854   -8906.1919    8.6037865 
  144000    400.83211    23309.881   -3372.8148    106.05838   -8907.4001    8.5980011 
  145000    403.96971    23297.743   -2485.1568    106.88857   -8907.6517    8.6024807 
  146000     399.1638    23259.954   -268.32614    105.61695   -8909.8937    8.6164565 
  147000    400.19389    23250.928    832.13554    105.88951   -8908.1987    8.6198017 
  148000    408.55152    23253.671    813.14678     108.1009   -8907.6656    8.6187847 
  149000     394.7141    23272.307    10.686829    104.43958   -8903.9289    8.6118832 
  150000    394.60713    23312.626   -4039.1477    104.41128   -8908.7286    8.5969888 
  151000    402.28433    23283.449   -1353.5752    106.44263   -8907.3213    8.6077619 
  152000    389.12535    23251.828    339.02355    102.96082   -8909.6821    8.6194681 
  153000     395.5057    23258.604    947.13591    104.64904   -8905.0672    8.6169567 
  154000    396.52134    23238.118    1290.8377    104.91777   -8910.0182    8.6245533 
  155000    407.50332    23209.852    4000.4071    107.82355   -8907.9775    8.6350566 
  156000    397.55016    23242.736    1699.3888    105.18999   -8907.1374    8.6228396 
  157000    397.14897    23284.079   -1590.3621    105.08384   -8908.0001    8.6075292 
  158000    408.62483    23294.344   -1979.7096     108.1203   -8906.5654    8.6037359 
  159000    390.64123    23255.798    143.56113    103.36192   -8908.9988    8.6179965 
  160000    393.66052    23232.684    2836.6801    104.16081   -8904.6621    8.6265704 
  161000    394.51889    23182.567    6055.8792    104.38793   -8907.8463    8.6452196 
  162000    401.86745    23264.835    221.84776    106.33232   -8906.0066     8.614649 
  163000     405.1929    23293.269   -1514.5763    107.21223   -8904.8793     8.604133 
  164000    407.63952    23278.816   -1528.3287    107.85959    -8909.907    8.6094752 
  165000    393.79673    23232.763    2801.5383    104.19685   -8904.6845    8.6265412 
  166000    409.88878    23180.098    5829.2024    108.45473   -8910.1972    8.6461407 
  167000     390.6929    23243.764    1127.0146    103.37559    -8908.453    8.6224583 
  168000    398.28036     23279.64   -1626.2484     105.3832   -8909.7139    8.6091703 
  169000    407.38425    23316.023   -3156.4604    107.79205   -8904.5522    8.5957364 
  170000    397.34143    23273.189    -1090.039    105.13476   -8909.3234    8.6115567 
  171000     410.9415    23266.653    78.063052    108.73328   -8906.9961    8.6139758 
  172000    403.64704    23255.662    542.41304     106.8032   -8908.2985     8.618047 
  173000    395.76467    23236.844    1020.3206    104.71756   -8911.5921    8.6250262 
  174000    390.35493    23234.939    2814.2548    103.28616   -8904.0224    8.6257334 
  175000    396.50124    23289.946   -2168.1818    104.91245   -8908.3442    8.6053609 
  176000     393.6155    23285.843   -2306.9682     104.1489   -8910.4121    8.6068772 
  177000    397.60201    23290.274   -1715.0615    105.20371   -8906.6819    8.6052394 
  178000    392.11594    23265.093   -325.97507    103.75212   -8908.1832    8.6145535 
  179000    405.89295    23243.618    2288.6987    107.39745   -8904.0738    8.6225125 
  180000    404.34105    23224.215     3163.854    106.98683   -8906.8929    8.6297163 
  181000    400.59884    23248.738    598.22293    105.99666   -8909.6535    8.6206135 
  182000    405.22933    23290.784   -2392.6303    107.22186   -8909.3575    8.6050511 
  183000    381.42251    23265.875   -145.39724    100.92269   -8906.6355     8.614264 
  184000    403.88431    23272.895     118.4713    106.86598   -8904.3553    8.6116653 
  185000    392.72034    23247.848    1052.9607    103.91204   -8907.7938    8.6209437 
  186000    391.84837    23174.436    5914.3397    103.68132   -8910.6736    8.6482531 
  187000    402.01285    23224.715    2929.1225     106.3708   -8907.7292    8.6295306 
  188000    396.39462    23263.173   -704.39027    104.88424    -8911.011    8.6152644 
  189000     406.1534    23288.616   -2065.3713    107.46637   -8909.0961     8.605852 
  190000    391.91567    23279.579   -1524.2582    103.69913    -8908.183    8.6091928 
  191000    398.65947    23266.864     110.6838    105.48351   -8906.1749    8.6138976 
  192000    400.25867    23228.654    2404.2679    105.90665    -8908.798    8.6280672 
  193000    421.58602    23206.059    3971.3784    111.54977    -8909.887    8.6364681 
  194000    394.14612    23244.344    1518.2162     104.2893   -8907.1345    8.6222433 
  195000    417.36402    23292.641   -1949.3176    110.43265   -8907.4943    8.6043652 
  196000    397.03338    23278.774   -1321.1415    105.05325    -8908.773    8.6094907 
  197000    396.78061    23256.785    799.74563    104.98637   -8905.9119    8.6176308 
  198000    392.27465    23190.377    5140.8165    103.79411   -8909.1594    8.6423084 
  199000    393.05052    23216.568    3841.3054    103.99941    -8905.467    8.6325588 
  200000    388.57139    23258.611    -216.5073    102.81425   -8909.5843    8.6169543 
  201000    412.10901    23304.932   -1890.5808     109.0422   -8902.4982    8.5998271 
  202000    397.44075    23300.599   -2886.9921    105.16104   -8908.3415    8.6014265 
  203000    398.27779    23271.691    -419.1706    105.38252    -8906.618     8.612111 
  204000    400.82303    23241.783    1466.3136    106.05598   -8908.4925    8.6231933 
  205000     408.9826    23246.943    1392.4274    108.21496   -8907.4998    8.6212794 
  206000    397.90497    23248.862    1013.8363    105.28387   -8907.8257    8.6205675 
  207000    403.01985     23265.48    110.21922    106.63725   -8906.9618      8.61441 
  208000    412.21495    23273.374   -326.24989    109.07023    -8906.529    8.6114882 
  209000    395.48788    23272.549   -615.57004    104.64432   -8907.5486    8.6117936 
  210000    402.27858    23302.114   -1625.0236    106.44111   -8902.1634     8.600867 
  211000     396.9614    23264.626   -113.48207    105.03421   -8907.7586    8.6147265 
  212000    412.50813    23224.073    3735.9484     109.1478   -8904.7566    8.6297691 
  213000    391.39859    23221.641    2835.4461    103.56231   -8908.4629    8.6306729 
  214000     402.5271    23266.296   -219.26852    106.50686   -8907.6047    8.6141079 
  215000    400.37525    23281.142   -1763.1148     105.9375   -8909.7949    8.6086149 
  216000    398.85485    23290.931   -2217.4882     105.5352   -8907.9354    8.6049967 
  217000     413.3017    23285.424     6.994145    109.35778   -8900.9223    8.6070318 
  218000    396.58404    23231.474    1957.4212    104.93436   -8909.1877    8.6270197 
  219000    411.77828    23253.321    844.31622    108.95469   -8908.0202    8.6189144 
  220000    394.92166    23248.024    1328.4199     104.4945   -8906.7248    8.6208784 
  221000     400.7921     23264.25   -648.31638    106.04779   -8910.2966    8.6148655 
  222000    398.94207    23280.221   -1178.9105    105.55828    -8907.496    8.6089556 
  223000    394.21952    23292.078   -2078.5753    104.30872   -8906.6516    8.6045731 
  224000    401.72079    23288.786   -2014.8558    106.29352   -8908.1231    8.6057892 
  225000    389.05417    23242.771    1516.3092    102.94199   -8907.1713    8.6228268 
  226000    400.82995    23230.463    1913.6794    106.05781   -8909.9381    8.6273954 
  227000    396.66704    23249.708    899.87445    104.95632   -8907.8169     8.620254 
  228000     388.5036    23270.542    288.78465    102.79631   -8902.5285    8.6125362 
  229000    393.77222    23285.035   -1658.0448    104.19036   -8907.4554    8.6071755 
  230000    388.60115    23300.261   -1998.9718    102.82212   -8903.9681    8.6015512 
  231000    402.35904    23237.111     1396.162     106.4624   -8910.3525    8.6249268 
  232000    403.42453     23225.41    2866.9329    106.74432   -8907.6106    8.6292721 
  233000    406.75498    23258.586    73.588724    107.62554   -8909.2934    8.6169635 
  234000    412.79611    23291.582   -582.10217      109.224   -8901.1372    8.6047562 
  235000    390.96733    23276.456   -751.89066     103.4482   -8906.1966     8.610348 
  236000     409.2782    23277.145   -311.39822    108.29318   -8905.3367    8.6100931 
  237000    399.71879    23253.459    718.40853     105.7638    -8907.871    8.6188634 
  238000    394.66231    23215.206     2776.129    104.42588   -8911.5882    8.6330653 
  239000    400.61199    23253.884    627.05152    106.00014   -8908.2367    8.6187057 
  240000    403.05678    23288.777   -2224.8614    106.64702   -8909.3904    8.6057925 
  241000    392.01421    23271.889   -554.14585     103.7252   -8907.1564    8.6120376 
  242000    402.05223    23272.004    176.87304    106.38122    -8904.422     8.611995 
  243000     405.2549    23250.788    667.59329    107.22863   -8909.8245    8.6198537 
  244000    397.07669    23245.586    1912.7287    105.06471   -8904.5834    8.6217825 
  245000    400.82535    23232.956    1707.7791    106.05659   -8910.2121    8.6264695 
  246000    404.50562    23267.894    61.140121    107.03037   -8906.1843    8.6135166 
  247000     381.6761    23294.469   -2577.8987    100.98979    -8908.275    8.6036897 
  248000     403.8528    23295.652   -2111.9189    106.85764   -8906.8363    8.6032529 
  249000    390.96804     23261.43    166.61711    103.44839   -8907.1981    8.6159101 
  250000    410.08677    23253.289    657.20328    108.50712   -8908.6983    8.6189263 
  251000     385.5302    23224.511    1840.7561    102.00956   -8911.8361    8.6296064 
  252000    402.25332    23270.867    25.991642    106.43443   -8905.0425    8.6124159 
  253000    393.03567    23299.686   -2683.3962    103.99548   -8906.8271    8.6017632 
  254000    394.75367    23298.331   -2108.3591    104.45005   -8905.0695    8.6022639 
  255000    399.68743    23256.427    743.21663     105.7555   -8906.2638    8.6177633 
  256000    403.28334    23253.161    1183.4204    106.70696   -8906.3917    8.6189739 
  257000    402.36355    23254.058    1047.6405    106.46359   -8906.8664    8.6186412 
  258000     401.7221    23233.591    1087.6652    106.29387   -8912.8059    8.6262338 
  259000    396.67797    23288.182    -1182.876    104.95921   -8904.4268    8.6060124 
  260000    389.06922    23322.653   -4755.8323    102.94597   -8908.9767    8.5932929 
  261000    396.95118    23301.033   -2466.5258     105.0315   -8905.4856     8.601266 
  262000    395.94374     23256.31    444.70227    104.76494   -8907.9999    8.6178067 
  263000    405.31548     23250.57    1450.9292    107.24466   -8905.5422    8.6199344 
  264000    393.93574    23244.593    1325.4534    104.23363   -8907.7665    8.6221509 
  265000    409.59399    23276.515   -1653.1189    108.37673   -8911.1282     8.610326 
  266000     399.4179    23338.719   -5662.5382    105.68419   -8907.6936    8.5873772 
  267000    395.43694    23285.136   -2349.3394    104.63084   -8910.8173    8.6071384 
  268000     406.0126    23264.719    170.00451    107.42911   -8906.7624     8.614692 
  269000    395.90877    23235.436    2087.9643    104.75568   -8907.3338    8.6255489 
  270000    403.12093    23258.326    979.17029    106.66399   -8905.2441    8.6170599 
  271000    401.37471    23303.397   -3622.7567    106.20195   -8910.9526    8.6003935 
  272000    396.69393    23324.321   -4271.4619    104.96344    -8906.101    8.5926782 
  273000    391.45524    23258.563    -267.7214     103.5773   -8910.3389    8.6169719 
  274000    408.07504    23248.472    1131.1679    107.97483   -8907.7404    8.6207123 
  275000    399.07979    23244.939    1900.3305    105.59472   -8905.5353    8.6220225 
  276000    388.35253    23274.046   -673.78695    102.75634   -8906.7624    8.6112398 
  277000    401.23354    23316.233   -3380.3515     106.1646   -8905.3209    8.5956587 
  278000    405.86666    23303.992    -2616.881     107.3905    -8906.627     8.600174 
  279000    414.72385    23253.751    1103.4109    109.73407   -8907.1332    8.6187552 
  280000    404.28347    23232.931    2010.8449    106.97159   -8908.8104    8.6264787 
  281000    415.92553    23243.614    1296.1718    110.05203   -8909.4048     8.622514 
  282000    409.11759    23284.239   -1247.2939    108.25068   -8906.8894    8.6074698 
  283000    393.89141    23330.894   -4959.6474     104.2219   -8906.7465    8.5902575 
  284000    396.01472    23291.023   -2469.0551    104.78372   -8909.2906    8.6049628 
  285000    404.42361     23288.48   -1384.0869    107.00867   -8905.7685    8.6059024 
  286000    396.10194    23250.018    1164.8388     104.8068   -8906.9791     8.620139 
  287000     400.1113    23222.374     2784.954    105.86766   -8908.5388    8.6304005 
  288000    402.46063    23249.163    1419.9615    106.48928   -8906.0767    8.6204559 
  289000    393.34596    23259.592    440.25998    104.07758   -8906.6974    8.6165909 
  290000    409.96373     23279.96   -994.59257    108.47456   -8906.9767     8.609052 
  291000    404.96015    23286.869     -2149.59    107.15064   -8909.3308    8.6064977 
  292000    402.40915     23241.31    1129.8116    106.47566   -8910.0633    8.6233688 
  293000    401.17604    23209.541    3425.2582    106.14938   -8910.6003    8.6351724 
  294000    396.26343    23231.279    1759.5444    104.84953   -8910.1218     8.627092 
  295000    396.72774    23259.148     926.9214    104.97238   -8904.5596    8.6167554 
  296000    398.08048    23264.125   -366.44321    105.33031    -8909.089    8.6149118 
  297000     411.4939    23278.146   -1053.8137    108.87944   -8908.1793     8.609723 
  298000    399.71871    23270.368   -152.38169    105.76378   -8906.2877    8.6126006 
  299000    396.31221    23262.712   -59.323145    104.86243   -8907.8146    8.6154351 
  300000    397.58404    23244.373     2025.085    105.19895     -8904.55    8.6222323 
  301000    403.63199    23208.217    4074.5087    106.79921   -8908.0868     8.635665 
  302000    406.05566    23246.526    1501.0404    107.44051   -8907.4298    8.6214338 
  303000     393.4164    23273.082   -1442.0869    104.09621   -8910.5856    8.6115962 
  304000    406.17003    23288.057   -1355.1637    107.47077   -8906.0408    8.6060588 
  305000    394.22497    23268.178   -893.66631    104.31016   -8909.8656    8.6134112 
  306000    413.40444    23268.126    -432.2511    109.38496   -8908.9833    8.6134305 
  307000    406.24595    23226.004    2472.6337    107.49086   -8909.7769    8.6290515 
  308000    408.88758     23215.08    3228.1886    108.18982   -8909.6701     8.633112 
  309000    395.45543    23247.688    634.90645    104.63573   -8909.7038    8.6210028 
  310000    402.14613    23283.513   -883.57926    106.40606   -8904.5807    8.6077382 
  311000    390.33041     23272.11   -848.71812    103.27968   -8908.0849     8.611956 
  312000      387.824    23246.672    1508.0521    102.61649   -8906.0117    8.6213799 
  313000    410.47554    23215.283    3414.9855    108.60999   -8909.3051    8.6330366 
  314000    392.85654    23221.363    2749.1525    103.94808   -8909.6528    8.6307761 
  315000    406.16884    23279.087   -758.86139    107.47045    -8906.115     8.609375 
  316000    399.85438    23282.544   -1798.7347    105.79968   -8909.4886    8.6080967 
  317000    399.11237    23277.129   -1470.4897    105.60334   -8910.0336    8.6100991 
  318000    398.79943    23234.873    2323.1673    105.52054   -8906.5986    8.6257579 
  319000     397.5193    23215.231    3930.5991    105.18183   -8906.1484     8.633056 
  320000    398.15746    23252.715    651.17882    105.35068   -8907.8324     8.619139 
  321000    391.31716    23281.142   -636.62766    103.54077   -8904.0813    8.6086151 
  322000    388.79743    23267.622    -439.9372    102.87406   -8907.5603     8.613617 
  323000    402.75718    23264.638    138.95503    106.56774   -8907.2129    8.6147219 
  324000    394.14825    23225.706    2397.9932    104.28986   -8909.2037    8.6291621 
  325000    410.98089    23248.162    1773.2398     108.7437   -8905.3659    8.6208272 
  326000    400.75795    23283.686   -1744.8445    106.03876   -8908.8785    8.6076743 
  327000     404.1289    23300.999   -2486.2116     106.9307   -8906.0426    8.6012785 
  328000    398.24484    23270.591   -826.04986     105.3738     -8908.91    8.6125179 
  329000    391.87698    23257.016    1159.1936    103.68889     -8904.56    8.6175453 
  330000     389.9453    23249.919    173.41091    103.17778   -8911.1456    8.6201758 
  331000    411.35178    23294.617   -2038.5106    108.84184   -8907.5066    8.6036351 
  332000    393.07709    23289.697   -2659.2871    104.00644   -8910.3825    8.6054526 
  333000    401.96142    23285.017   -1505.0401    106.35719   -8907.3119    8.6071822 
  334000    395.36261    23233.673    1905.2234    104.61117   -8908.6675    8.6262034 
  335000     393.9032    23230.905    1991.8941    104.22502   -8909.1801    8.6272311 
  336000    413.38817    23257.389    388.94933    109.38066   -8908.7101    8.6174069 
  337000    391.35759    23277.772   -1091.8497    103.55146   -8907.1337    8.6098612 
  338000    395.35348    23325.079    -4571.307    104.60876   -8907.4621    8.5923991 
  339000    391.58535    23265.441    -17.23334    103.61173   -8906.8275    8.6144245 
  340000    394.69197    23245.943    1451.0284    104.43373   -8906.2288      8.62165 
  341000    393.30056    23219.603    2649.8039    104.06557   -8910.0266    8.6314305 
  342000    402.31608    23245.497    1273.1503    106.45103   -8907.9181    8.6218155 
  343000    399.40853    23263.121   -194.39045    105.68171   -8908.7376    8.6152838 
  344000    410.35578    23299.357   -2843.0179     108.5783   -8908.9356    8.6018849 
  345000    407.26243    23292.995   -2363.9401    107.75981   -8909.4619    8.6042344 
  346000    398.56299    23268.035   -741.07148    105.45798   -8909.7528    8.6134643 
  347000    396.29802      23266.3    402.97529    104.85868   -8904.8558    8.6141067 
  348000    409.47843    23254.503    1333.4506    108.34616   -8905.5683    8.6184764 
  349000    392.16344     23272.79   -626.01878    103.76469   -8906.7977    8.6117043 
  350000    396.24713    23310.616   -3697.8059    104.84521   -8908.3044    8.5977303 
Loop time of 713.509 on 8 procs for 350000 steps with 2048 atoms

Performance: 42.382 ns/day, 0.566 hours/ns, 490.534 timesteps/s
116.6% CPU use with 4 MPI tasks x 2 OpenMP threads

MPI task timing breakdown:
Section |  min time  |  avg time  |  max time  |%varavg| %total
---------------------------------------------------------------
Pair    | 408.91     | 418.79     | 429.44     |  36.8 | 58.69
Neigh   | 0          | 0          | 0          |   0.0 |  0.00
Comm    | 29.965     | 40.954     | 51.1       | 120.8 |  5.74
Output  | 0.0085997  | 0.0158     | 0.018249   |   3.3 |  0.00
Modify  | 252.55     | 252.82     | 253.17     |   1.4 | 35.43
Other   |            | 0.9321     |            |       |  0.13

Nlocal:        512.000 ave         520 max         506 min
Histogram: 1 0 1 0 1 0 0 0 0 1
Nghost:        3101.00 ave        3107 max        3093 min
Histogram: 1 0 0 0 0 1 0 1 0 1
Neighs:        41903.8 ave       44665 max       39115 min
Histogram: 1 0 0 1 0 0 1 0 0 1

Total # of neighbors = 167615
Ave neighs/atom = 81.843262
Neighbor list builds = 0
Dangerous builds = 0


# fix 132 all momentum 100 linear 1 1 1 angular
fix out_file_1 all print 1000 "$(step) $(temp) $(press) ${sys_press} $(vol) $(ke) $(pe) $(density)" file one_phase_heating_$T_.txt screen no title  "step temp press pressGiga vol ke pe density"
fix out_file_1 all print 1000 "$(step) $(temp) $(press) ${sys_press} $(vol) $(ke) $(pe) $(density)" file one_phase_heating_400_.txt screen no title  "step temp press pressGiga vol ke pe density"

# dump 3 all custom 1000 traj_npt_new.lammpstrj id type x y z
run 50000
Last active /omp style is pair_style eam/alloy/omp
Per MPI rank memory allocation (min/avg/max) = 4.354 | 4.354 | 4.354 Mbytes
Step Temp Volume Press KinEng PotEng Density 
  350000    396.24713    23310.616   -3697.8059    104.84521   -8908.3044    8.5977303 
  351000    405.48515    23291.083   -2423.0569    107.28955   -8909.8538    8.6049406 
  352000    395.33198    23259.719   -351.93968    104.60307   -8910.3155    8.6165439 
  353000    409.37922     23243.61    1569.1325    108.31991   -8907.3664    8.6225155 
  354000    401.65329    23240.013    1499.8747    106.27566   -8908.3645    8.6238501 
  355000    395.39359    23281.254    -1133.263    104.61937   -8906.9729    8.6085736 
  356000    408.73205    23312.339   -3032.1026    108.14867   -8905.5982    8.5970946 
  357000    393.11362    23256.993    161.94378     104.0161   -8909.1367    8.6175536 
  358000     401.0563    23241.369    2033.6424     106.1177   -8905.8712    8.6233468 
  359000    397.46814    23231.916    2229.3851    105.16829   -8907.9584    8.6268557 
  360000    410.08856    23273.744   -429.35364    108.50759   -8906.9798    8.6113514 
  361000    389.05037    23261.177    302.64474    102.94098   -8906.5098    8.6160035 
  362000    413.87535    23278.275   -517.41524    109.50956   -8905.5148    8.6096753 
  363000    400.84832    23261.051   -75.851766    106.06267   -8908.9208    8.6160504 
  364000    403.26263    23269.342   -144.54626    106.70148   -8906.8357    8.6129803 
  365000    398.74194    23269.283    -317.4121    105.50533   -8907.4166    8.6130023 
  366000    400.93363    23273.749   -16.529372    106.08524   -8904.2527    8.6113495 
  367000    388.91622    23258.288    245.26736    102.90549   -8907.4876     8.617074 
  368000     418.4466    23217.487    2796.0693    110.71909   -8912.0907    8.6322172 
  369000    392.88459    23208.503    3742.6933     103.9555   -8908.8595    8.6355585 
  370000    412.25949    23267.221    -17.23289    109.08201     -8906.94    8.6137655 
  371000    384.21652    23275.779    -1088.308    101.66197   -8907.3774    8.6105984 
  372000    396.79315    23295.809   -2590.7357    104.98969   -8908.1857    8.6031949 
  373000    401.55706    23273.258    -1210.966     106.2502   -8910.3164    8.6115312 
  374000    408.12595    23259.951    757.77182     107.9883   -8906.1989    8.6164577 
  375000    397.83277    23230.186    2933.4655    105.26477    -8905.502     8.627498 
  376000    392.34919    23239.391    2032.0299    103.81384   -8906.2587    8.6240807 
  377000    403.86653    23289.529    -2113.516    106.86127   -8908.5734    8.6055148 
  378000    394.11349    23288.966   -1681.9688    104.28066   -8906.1319    8.6057227 
  379000    403.65396    23273.972   -1116.5612    106.80503   -8909.6857    8.6112671 
  380000    411.16386    23272.699   -250.02341    108.79211    -8906.436    8.6117378 
  381000     402.1866    23255.548    128.19437    106.41677   -8909.9926    8.6180891 
  382000    403.96933    23215.158    3973.0758    106.88847   -8906.7104     8.633083 
  383000    400.82409    23209.314    4086.2791    106.05626   -8907.4581    8.6352566 
  384000     406.8557    23260.087   -80.437401    107.65219   -8910.0331    8.6164073 
  385000    402.99496    23290.178   -1711.4584    106.63066   -8907.1836    8.6052751 
  386000    400.47725    23294.408   -2925.5852    105.96449   -8910.5941    8.6037124 
  387000    404.64188    23285.521   -1156.7074    107.06643   -8905.3075    8.6069959 
  388000    403.87916    23248.142    833.44727    106.86462   -8909.1602    8.6208345 
  389000     395.6529     23217.71    4091.8914    104.68798   -8904.1318    8.6321339 
  390000     403.4844    23234.847    1322.2538    106.76016   -8911.2955    8.6257673 
  391000    392.66848    23284.055   -1659.9534    103.89832     -8907.71    8.6075381 
  392000    395.34896    23301.106   -2392.0676    104.60756   -8905.3872    8.6012391 
  393000    403.28362    23266.286   -865.10677    106.70704   -8911.1197    8.6141118 
  394000    397.97556    23255.442    918.65182    105.30255   -8905.3771    8.6181285 
  395000    398.35017    23251.465    1061.4589    105.40167   -8906.9746    8.6196025 
  396000    397.38021    23258.278    378.11642    105.14502   -8907.9447    8.6170775 
[...]
  282000    489.93054    23368.646   -834.92634    129.63343   -8879.2978      8.57638 
  283000    496.59731     23342.47    972.89161    131.39742   -8880.8145    8.5859975 
  284000    499.92565    23361.432    236.18238    132.27809   -8877.9048    8.5790283 
  285000    484.88375    23356.401    7.6391023    128.29807   -8879.0918    8.5808761 
  286000    510.45858    23332.798    2398.2374    135.06505    -8878.043    8.5895566 
  287000    493.22424    23416.052   -4973.5634    130.50492   -8882.6937    8.5590169 
  288000    504.08317    23328.006    3079.0917    133.37815   -8876.7266    8.5913211 
  289000    494.42825    23366.667   -237.35789     130.8235   -8878.8656    8.5771064 
  290000    501.25331    23378.582   -1173.9294    132.62938   -8878.3347    8.5727348 
  291000    489.62828    23312.822    3309.9689    129.55345   -8879.8907    8.5969166 
  292000    507.42244    23407.104   -3757.3014     134.2617   -8880.5816    8.5622889 
  293000     492.9485    23311.438    2574.5687    130.43196   -8883.4905     8.597427 
  294000    503.89853     23339.48    1335.6899    133.32929   -8880.2448    8.5870974 
  295000    504.22379    23385.101   -2119.3688    133.41535   -8880.9172    8.5703452 
  296000    502.37347    23334.054     2071.524    132.92577   -8879.6314    8.5890942 
  297000    500.01805    23358.848    465.41416    132.30253   -8877.6574    8.5799773 
  298000    516.18128    23420.692   -4054.3175    136.57925   -8878.3881    8.5573213 
  299000    499.02774    23271.464    6532.0824     132.0405   -8879.8254     8.612195 
  300000    521.23568    23413.591   -3295.2938    137.91662   -8877.5238    8.5599167 
  301000    484.15788    23346.007    470.20372      128.106   -8880.9361    8.5846967 
  302000    501.44202     23344.32    881.83928    132.67931   -8881.1424     8.585317 
  303000    510.75611    23389.047   -2141.2803    135.14378   -8879.7733    8.5688991 
  304000    492.98555    23343.084    1169.0808    130.44177   -8879.3147    8.5857715 
  305000     504.2383    23323.233    2535.0482    133.41919   -8880.6733     8.593079 
  306000     480.9665    23391.652   -2765.0101    127.26158   -8880.0326    8.5679448 
  307000    492.32651    23336.013    2145.3333    130.26739   -8877.2929    8.5883731 
  308000    493.94503    23364.886   -398.66419    130.69564   -8879.9369    8.5777602 
  309000    506.80272     23371.61   -1285.7933    134.09773   -8881.2794    8.5752924 
  310000    492.43023    23316.239    2643.7942    130.29483   -8882.0646    8.5956567 
  311000    494.64539        23392    -3150.732    130.88095   -8883.3092    8.5678176 
  312000    504.48051    23371.968    103.74564    133.48328   -8875.0005    8.5751609 
  313000    491.53808    23329.865    2015.4067    130.05877   -8880.1394    8.5906362 
  314000    499.46527    23388.428   -1762.5815    132.15627    -8877.736     8.569126 
  315000    500.56029    23327.979    1828.1854    132.44601   -8881.3764    8.5913308 
  316000    502.69879    23403.269   -3091.0667    133.01185    -8879.065    8.5636921 
  317000    494.22673    23349.444    469.77398    130.77018   -8880.2402    8.5834331 
  318000    500.20112    23331.176    1892.2786    132.35097    -8879.856    8.5901536 
  319000    481.01093     23373.01   -1493.8317    127.27334   -8880.6605    8.5747786 
  320000    497.16198    23328.381    2862.8486    131.54683   -8877.3587     8.591183 
  321000    495.44891    23383.225   -1505.8728    131.09356   -8878.0922    8.5710328 
  322000    486.69181    23323.198    2307.9524    128.77647   -8880.3733    8.5930922 
  323000    509.41823    23352.937    1803.1957    134.78978   -8873.6552     8.582149 
  324000    493.38115    23398.145   -3522.3698    130.54644   -8882.3172    8.5655673 
  325000    507.73004    23340.513    1882.0974    134.34309   -8877.4115    8.5867171 
  326000    499.68156     23377.84   -455.59687     132.2135    -8874.957     8.573007 
  327000    495.67313    23373.377   -1027.5032    131.15289   -8879.3229    8.5746441 
  328000    514.36727    23319.307    3543.6438    136.09927    -8878.044    8.5945259 
  329000    495.13776    23410.559   -4237.9632    131.01123   -8881.7584    8.5610252 
  330000    503.30448     23330.33    2545.6477    133.17211   -8878.5995     8.590465 
  331000    496.64981    23358.529    229.29686    131.41131   -8878.7904    8.5800947 
  332000    491.51712    23359.462   -693.26452    130.05323   -8882.7702    8.5797518 
  333000    510.51062    23337.945    1559.1407    135.07882   -8880.1406    8.5876621 
  334000    490.74435    23410.346   -3942.1993    129.84875   -8880.3773     8.561103 
  335000    496.83897     23344.13    1610.8692    131.46136   -8877.7532     8.585387 
  336000    496.54487    23326.334    1716.8533    131.38355   -8882.7719    8.5919368 
  337000    496.68483    23388.287   -2481.2368    131.42058   -8880.9887    8.5691776 
  338000    512.34182    23333.082    1221.5021    135.56335   -8884.0147     8.589452 
  339000    503.99738    23415.826   -3840.5356    133.35545   -8878.3661    8.5590995 
  340000    514.04893    23324.322    2643.4321    136.01504   -8879.9828     8.592678 
  341000    488.55882    23342.675    999.44314    129.27047   -8880.2185     8.585922 
  342000    480.48971    23374.115   -1583.9897    127.13542   -8880.8225    8.5743732 
  343000    507.70948    23316.338    3033.6298    134.33765   -8880.3209    8.5956202 
  344000    495.23373     23374.14   -2112.7268    131.03663   -8884.2959     8.574364 
  345000    504.99773    23374.789   -394.96773    133.62014   -8876.6098    8.5741261 
  346000    505.56375    23346.654     1080.269     133.7699   -8879.0527    8.5844586 
  347000    505.35012    23383.878   -680.87231    133.71338   -8874.7976    8.5707933 
  348000    493.85105     23340.21    1468.7286    130.67077   -8879.4645    8.5868286 
  349000    489.82354    23361.827     -465.253    129.60511   -8880.8894    8.5788834 
  350000     493.9205     23397.27   -2299.8331    130.68915    -8877.226    8.5658875 
Loop time of 726.346 on 8 procs for 350000 steps with 2048 atoms

Performance: 41.633 ns/day, 0.576 hours/ns, 481.864 timesteps/s
115.8% CPU use with 4 MPI tasks x 2 OpenMP threads

MPI task timing breakdown:
Section |  min time  |  avg time  |  max time  |%varavg| %total
---------------------------------------------------------------
Pair    | 417.4      | 427.29     | 436.23     |  33.6 | 58.83
Neigh   | 0          | 0          | 0          |   0.0 |  0.00
Comm    | 34.705     | 43.991     | 54.112     | 107.7 |  6.06
Output  | 0.0083498  | 0.015667   | 0.018121   |   3.4 |  0.00
Modify  | 253.86     | 254.08     | 254.44     |   1.3 | 34.98
Other   |            | 0.9685     |            |       |  0.13

Nlocal:        512.000 ave         513 max         509 min
Histogram: 1 0 0 0 0 0 0 0 0 3
Nghost:        3101.00 ave        3104 max        3100 min
Histogram: 3 0 0 0 0 0 0 0 0 1
Neighs:        41444.0 ave       43868 max       38653 min
Histogram: 1 0 0 1 0 0 0 1 0 1

Total # of neighbors = 165776
Ave neighs/atom = 80.945312
Neighbor list builds = 0
Dangerous builds = 0


# fix 132 all momentum 100 linear 1 1 1 angular
fix out_file_1 all print 1000 "$(step) $(temp) $(press) ${sys_press} $(vol) $(ke) $(pe) $(density)" file one_phase_heating_$T_.txt screen no title  "step temp press pressGiga vol ke pe density"
fix out_file_1 all print 1000 "$(step) $(temp) $(press) ${sys_press} $(vol) $(ke) $(pe) $(density)" file one_phase_heating_500_.txt screen no title  "step temp press pressGiga vol ke pe density"

# dump 3 all custom 1000 traj_npt_new.lammpstrj id type x y z
run 50000
Last active /omp style is pair_style eam/alloy/omp
Per MPI rank memory allocation (min/avg/max) = 4.354 | 4.354 | 4.354 Mbytes
Step Temp Volume Press KinEng PotEng Density 
  350000     493.9205     23397.27   -2299.8331    130.68915    -8877.226    8.5658875 
  351000    503.12794    23328.434    2018.3769     133.1254   -8881.0285    8.5911632 
  352000     505.4884    23395.659   -2665.3937    133.74996   -8879.9857    8.5664774 
  353000    512.36981      23321.2    2615.2756    135.57075   -8881.6863    8.5938281 
  354000    503.44488    23385.247   -1508.2937    133.20926   -8878.0238    8.5702916 
  355000    501.05101    23374.137    -757.5684    132.57585    -8878.116    8.5743652 
  356000    495.57032    23340.228    1955.3772    131.12568   -8876.9799    8.5868223 
  357000    497.59379    23379.777    -1343.025    131.66109   -8878.9306    8.5722969 
  358000     506.1752    23340.772     1630.438    133.93169    -8878.463    8.5866219 
  359000     504.7326    23378.978   -979.83205    133.54998   -8878.1389    8.5725899 
  360000    488.11355    23370.581   -644.33995    129.15266   -8878.2162    8.5756698 
  361000    496.11873    23301.921    3803.3812    131.27079    -8881.891    8.6009382 
  362000    491.97454    23416.928   -4256.8765    130.17426   -8879.2625    8.5586967 
  363000    506.12349    23341.655    1000.1682    133.91801   -8881.2035    8.5862971 
  364000    500.57231    23356.167    302.32978    132.44919   -8879.6521    8.5809622 
  365000    483.53836    23360.007   -59.760704    127.94208   -8879.4505    8.5795515 
  366000    505.94042    23352.774    968.26167    133.86957   -8877.4532     8.582209 
  367000    498.21609    23417.122    -3939.969    131.82574   -8877.7048     8.558626 
  368000    506.43037     23306.06    4275.6219    133.99921   -8878.4785    8.5994108 
  369000    492.95614    23381.168   -1073.3594    130.43398   -8876.6407    8.5717868 
  370000    499.01827    23363.708   -653.40658      132.038    -8881.816    8.5781926 
  371000    485.29285    23353.152    670.63281    128.40631   -8877.3945      8.58207 
  372000    476.61954    23344.306    171.00107    126.11139   -8883.4467    8.5853222 
  373000    509.09157    23330.435    2391.3493    134.70335   -8879.2236    8.5904264 
  374000    505.20767    23414.498   -3187.2603    133.67568   -8875.4288    8.5595851 
  375000    520.96993    23339.899    123.80379    137.84631   -8887.4911    8.5869431 
  376000    513.30041    23357.562    371.80753    135.81699     -8879.93    8.5804496 
  377000    492.05286    23390.046   -3296.6174    130.19498   -8883.8623    8.5685332 
  378000    495.62224     23326.85    2895.9387    131.13942   -8877.1243    8.5917467 
  379000    503.28822    23379.859   -1876.9907    133.16781   -8881.2203    8.5722667 
  380000    514.46767    23364.909    144.00848    136.12584   -8877.9412    8.5777517 
  381000    496.85376    23351.917    449.41823    131.46528   -8879.9785     8.582524 
  382000    501.17683     23438.09    -5457.452    132.60914   -8877.3425    8.5509693 
  383000    507.62665    23304.073    3601.3143    134.31574   -8882.9663    8.6001443 
  384000     507.4479    23399.369   -1802.8646    134.26844   -8875.1914    8.5651194 
  385000    499.51827    23354.663    188.07971     132.1703   -8880.4224    8.5815149 
  386000    513.32602    23347.506    878.21648    135.82376   -8880.2757    8.5841455 
  387000    494.43022    23410.144    -3664.703    130.82402   -8878.7343     8.561177 
  388000    506.76674    23321.981    3568.1067    134.08821   -8877.0709    8.5935403 
  389000    494.20131    23369.038   -19.327863    130.76345   -8875.9016    8.5762362 
  390000    495.68822    23385.946   -1895.3127    131.15688   -8879.2431    8.5700354 
  391000    513.42482    23347.056    2049.5087     135.8499   -8875.4535    8.5843109 
  392000    507.86392    23373.923     -1744.95    134.37852   -8883.4808    8.5744437 
  393000     499.9864    23371.813   -583.62083    132.29416   -8877.7698    8.5752179 
  394000    495.88756    23299.867    4279.3771    131.20963   -8880.2605    8.6016966 
  395000    485.02149    23411.926   -4446.1181    128.33451    -8881.223    8.5605253 
  396000    513.06364    23330.453     2167.504    135.75434   -8880.1857    8.5904197 
  397000    495.77373     23367.77   -751.11228    131.17951    -8880.198    8.5767015 
  398000    492.45353    23384.515   -1026.2863      130.301   -8876.0798    8.5705597 
  399000    488.07009    23318.202     3437.833    129.14116    -8877.014    8.5949331 
  400000    505.58517    23399.595   -2452.5352    133.77557   -8877.1549    8.5650367 
Loop time of 100.672 on 8 procs for 50000 steps with 2048 atoms

Performance: 42.911 ns/day, 0.559 hours/ns, 496.660 timesteps/s
117.6% CPU use with 4 MPI tasks x 2 OpenMP threads

MPI task timing breakdown:
Section |  min time  |  avg time  |  max time  |%varavg| %total
---------------------------------------------------------------
Pair    | 58.127     | 59.066     | 60.386     |  12.5 | 58.67
Neigh   | 0          | 0          | 0          |   0.0 |  0.00
Comm    | 3.9635     | 5.3336     | 6.2803     |  42.8 |  5.30
Output  | 0.0012043  | 0.0018622  | 0.0020837  |   0.9 |  0.00
Modify  | 36.107     | 36.145     | 36.195     |   0.5 | 35.90
Other   |            | 0.126      |            |       |  0.13

Nlocal:        512.000 ave         519 max         505 min
Histogram: 1 0 0 0 0 2 0 0 0 1
Nghost:        3101.00 ave        3108 max        3094 min
Histogram: 1 0 0 0 0 2 0 0 0 1
Neighs:        40933.0 ave       43236 max       39016 min
Histogram: 2 0 0 0 0 0 0 1 0 1

Total # of neighbors = 163732
Ave neighs/atom = 79.947266
Neighbor list builds = 0
Dangerous builds = 0

unfix temp
unfix out_file_1
# unfix 1
# # clear
write_data after_heating_$T.in
write_data after_heating_500.in
System init for write_data ...
Last active /omp style is pair_style eam/alloy/omp
write_restart after_heating_$T.lmp
write_restart after_heating_500.lmp
System init for write_restart ...
Last active /omp style is pair_style eam/alloy/omp
next loopVar
# # # thermo_modify flush yes
jump in.lmp ensemble

print """
Label pachadi solti, hos garam.
"""

Label pachadi solti, hos garam.

variable T equal 200+${loopVar}*100
variable T equal 200+4*100
# variable T equal 1200
# velocity all create 1200 123123
reset_timestep 0
fix 1 all npt temp $T $T $(dt*100) iso 0 0 $(dt*1000)
fix 1 all npt temp 600 $T $(dt*100) iso 0 0 $(dt*1000)
fix 1 all npt temp 600 600 $(dt*100) iso 0 0 $(dt*1000)
fix 1 all npt temp 600 600 0.10000000000000000555 iso 0 0 $(dt*1000)
fix 1 all npt temp 600 600 0.10000000000000000555 iso 0 0 1
print """
<--------------------------------------------------------------------->
<------------------ Equilibrating at temperature $T ----------------->
<--------------------------------------------------------------------->
"""

<--------------------------------------------------------------------->
<------------------ Equilibrating at temperature 600 ----------------->
<--------------------------------------------------------------------->

fix temp all print 100 "$(step) $(temp) $(press) ${sys_press} $(vol) $(ke) $(pe) $(density)" file temp_heat.txt screen no title  "step temp press pressGiga vol ke pe density"
run 350000
Last active /omp style is pair_style eam/alloy/omp
Per MPI rank memory allocation (min/avg/max) = 4.354 | 4.354 | 4.354 Mbytes
Step Temp Volume Press KinEng PotEng Density 
       0    505.58517    23399.595   -2452.5352    133.77557   -8877.1549    8.5650367 
    1000    583.66631    23445.827    963.36639    154.43549   -8849.9785    8.5481476 
    2000    604.33519    23391.011    4645.4775    159.90438   -8852.4568    8.5681799 
    3000    597.41005    23433.528    2695.1554    158.07202   -8845.9291     8.552634 
    4000    586.28165    23488.282   -2841.1719     155.1275    -8852.791    8.5326966 
    5000    602.99602    23481.094   -1207.4608    159.55004   -8848.5666    8.5353088 
    6000    581.05582    23423.527    1434.4521    153.74476   -8855.3233    8.5562856 
    7000    623.54918    23427.856    1788.4963    164.98832   -8854.2142    8.5547045 
    8000    605.38274    23397.134    3488.7926    160.18156   -8855.3056    8.5659375 
    9000    609.35403    23520.463   -3989.0307    161.23234   -8847.9437    8.5210222 
   10000    583.42047    23488.029   -2034.2246    154.37044   -8848.7467    8.5327886 
   11000    606.81149    23448.305    1122.2748     160.5596   -8848.6281     8.547244 
   12000     592.7902    23420.544    3033.2689    156.84963   -8848.8586    8.5573753 
   13000    601.43626    23461.934    216.33391    159.13734   -8849.0326    8.5422791 
   14000    593.88884    23480.211   -2219.8135    157.14032   -8853.4585    8.5356297 
   15000    592.62917    23454.196    119.11758    156.80702    -8850.243    8.5450974 
   16000    603.94149    23435.787    1437.5254    159.80021   -8851.9266    8.5518094 
   17000    609.07591    23411.157    3261.0058    161.15876   -8852.7094    8.5608065 
   18000    598.68752    23478.497   -1527.3417    158.41003    -8850.329    8.5362526 
   19000    606.94964    23505.045   -3353.5246    160.59615    -8849.994    8.5266114 
   20000     617.5663    23459.546   -1225.6433    163.40527   -8857.1391    8.5431484 
   21000    604.59745    23430.641    2243.4615    159.97378     -8850.06    8.5536878 
   22000    604.83349    23431.795      904.393    160.03623   -8855.7279    8.5532664 
   23000    591.13996    23476.754   -940.91994    156.41298   -8848.6845    8.5368865 
   24000    606.63198    23533.052   -5110.1293     160.5121   -8849.2901    8.5164637 
   25000    607.29972    23452.675    327.24385    160.68878   -8852.0252    8.5456516 
   26000    593.68587    23405.138    3173.3993    157.08662   -8854.3209    8.5630082 
   27000     616.4071    23462.658    99.786992    163.09855    -8849.465    8.5420153 
   28000    601.89773    23468.458   -1416.9907    159.25944   -8854.0919    8.5399043 
   29000    606.46345    23461.337   -686.58987    160.46751    -8852.979    8.5424965 
   30000    600.45582    23460.492   -870.11455    158.87792   -8854.2501    8.5428041 
   31000    582.11855    23444.989    1297.3062    154.02596   -8848.6324    8.5484532 
   32000    616.02622    23425.976    2873.3482    162.99778   -8849.2098    8.5553912 
   33000    603.68832    23458.792   -634.67745    159.73322   -8854.3723    8.5434233 
   34000    606.61551    23524.647   -4445.7856    160.50774   -8848.1401    8.5195065 
   35000    587.20624    23455.548    130.99413    155.37214   -8850.6785    8.5446048 
   36000    608.92531    23443.691     2108.316    161.11891   -8846.8213    8.5489264 
   37000    586.53143    23431.554     1590.788    155.19359   -8851.6565    8.5533545 
   38000     604.0801    23463.377   -1005.0628    159.83689   -8853.9538    8.5417537 
   39000    602.37656    23480.888   -1631.4345    159.38614   -8850.7153    8.5353836 
   40000    597.23976      23435.1    240.95747    158.02696   -8857.2876    8.5520603 
   41000    606.81106    23403.804    4227.9431    160.55949   -8850.1638     8.563496 
   42000    603.80347     23448.75    1236.3473    159.76369   -8847.9057    8.5470819 
   43000    594.96748    23497.934   -2622.1137    157.42573    -8848.792    8.5291918 
   44000    602.53571    23484.268   -2020.9922    159.42825   -8851.4205    8.5341551 
   45000    596.88474    23438.539    883.75821    157.93303   -8853.8548    8.5508054 
   46000    606.23859    23408.085    3560.9984    160.40801   -8851.8373      8.56193 
   47000    594.13473    23439.391    847.13316    157.20539   -8852.5687    8.5504945 
   48000    597.15982    23532.653   -5275.1239    158.00581   -8849.1313    8.5166083 
   49000    590.06449    23477.037   -1135.6097    156.12842   -8849.2275    8.5367838 
   50000    599.05954    23433.832    2075.0963    158.50847   -8849.5032    8.5525229 
   51000    593.27788    23441.583    611.46787    156.97867   -8852.7456     8.549695 
   52000    610.48771    23503.904   -2453.6065    161.53231    -8846.673    8.5270254 
   53000    598.38567    23504.666   -4014.8932    158.33017   -8853.6275    8.5267489 
   54000    610.52395    23455.975    1867.2912     161.5419   -8842.8686    8.5444494 
