LAMMPS data file via write_data, version 29 Oct 2020, timestep = 150000

2016 atoms
1 atom types

0.554987160708329 20.709012839291965 xlo xhi
0.554987160708329 20.709012839291965 ylo yhi
1.2949700416537056 48.32102995834343 zlo zhi

Masses

1 58.933

Atoms # atomic

162 1 19.02761460833896 5.862432898984718 6.132846824241908 0 0 0
1418 1 4.798026956219304 2.5938470531279223 3.4627308959352194 -1 1 1
1854 1 20.407427358844217 3.5792590551075945 3.4089175239493557 -1 1 1
234 1 2.1989393504202956 4.276026933873535 5.332855616796659 1 1 0
1152 1 2.2242845226608656 2.8478265017777704 3.7654560207486436 -1 0 1
1691 1 4.541321234969212 20.158867342779395 2.646819266839013 0 -1 1
145 1 1.6518077099853232 3.068287594712912 1.6694412700329013 0 0 0
975 1 1.9666319268269303 18.980305995694497 10.376392961224298 0 -1 0
147 1 7.176048103794203 20.304262476655754 2.409264513019126 0 -1 0
382 1 4.581907167912593 3.6255015169840488 5.4036113255776295 1 0 0
1583 1 5.648572535022484 3.7963603870762417 2.149286355939757 1 2 1
554 1 8.156914815098544 4.592904171116975 3.198262988955264 0 0 0
39 1 6.434201482574289 0.781178398819011 4.084496087634974 0 0 0
231 1 19.523704994524508 4.714938247197195 1.329454767714358 0 0 0
20 1 8.660225414991656 1.457888869612618 3.4710974183371217 1 0 0
1927 1 11.402368764803079 2.6135227681135618 4.123900836331281 0 3 1
1188 1 10.418220325787654 4.664912000470343 3.006113352546994 1 0 1
1356 1 11.397826994630663 20.41351184811361 3.723113127420375 -3 1 1
1245 1 12.343297283545642 3.600909142189867 2.3195924790069795 0 2 1
59 1 13.368710792899885 1.4553020022565908 3.7249450775360344 0 0 0
1842 1 10.150047668692691 2.5340257301411584 2.460030028749599 2 1 1
1378 1 15.638953728967344 1.8105825556884594 3.4285221513791053 1 1 1
117 1 16.47743144166792 3.0685224983161437 4.542877634148697 0 1 0
31 1 14.659926393927693 4.11311324569844 3.216343047090545 0 0 0
1822 1 14.120463290697158 2.3927071913632316 1.8954741988888504 -2 5 1
8 1 16.912616025790726 0.6863910563079964 5.33645772705005 0 0 0
186 1 18.572621067439062 1.8566243202014452 3.727636580801496 0 0 0
132 1 20.273495429182304 3.3042112953701936 5.530310487238432 0 1 0
1941 1 19.654403200500663 0.939564191029612 5.883370266051641 -3 2 1
52 1 16.939322524212606 4.908472739002519 6.101648989363752 -1 0 0
165 1 18.405623925134204 4.327128103020039 4.492762988826875 0 -1 0
1706 1 17.870411655401572 3.7005278761646343 2.5287939577751435 3 1 1
1517 1 4.8633201344833 6.186194537610897 1.836136901742857 -1 -1 1
1342 1 20.160204838699386 0.7755955965898194 2.4389025137699627 1 4 1
233 1 3.7189060409499244 4.428990584461635 3.036959081358166 1 0 0
281 1 2.7052803387524467 6.121827827392112 4.10070733786889 1 1 0
355 1 9.631393622912013 12.52862500074683 1.9307366870242844 0 0 0
238 1 1.367890045265168 5.1552316284177255 2.41358902719994 1 0 0
426 1 4.547399753556885 6.900462435278273 3.7483435757070858 1 1 0
1223 1 0.9256695946036322 6.994238901995412 2.768405361281748 3 -1 1
314 1 4.15066462921927 5.750067734134173 5.729831251071745 0 0 0
361 1 7.066583868309563 6.7188279688804515 3.1255213042512695 0 0 0
7 1 7.294997318633529 5.111530753177338 5.176970563373098 0 0 0
121 1 5.538267769617899 5.039978444232128 4.124037057540356 0 1 0
1276 1 9.195592949926246 7.023794026427402 3.0923946733259244 -6 4 1
46 1 7.170248532334561 8.115708117321043 4.481148739616872 1 0 0
171 1 10.957440578449917 6.633138361462626 1.8822275570387172 0 0 0
1055 1 8.049943318661628 8.063163799632303 1.4479356450438265 2 1 1
254 1 10.043402138621028 10.93767452489424 3.8504471474343362 0 0 0
535 1 9.09302853507046 10.482313772911214 1.3646928185287324 0 0 0
27 1 11.057374845299535 7.064132833905384 4.239114074444472 0 0 0
276 1 10.493691599367729 8.609583263937811 2.4134268431924886 0 1 0
449 1 13.196324458281559 7.53140211119794 3.3833609733914782 0 0 0
178 1 15.173826368931783 5.572474773183837 1.5831567995461502 0 0 0
61 1 14.837360241066374 6.192715459133091 3.722942609167752 0 0 0
354 1 13.964454271811997 9.303463049689963 2.474221417597518 0 0 0
1894 1 14.933910884208364 7.487456578980549 1.9283494905511696 -1 2 0
201 1 12.459705171598454 5.46482647138377 3.565499108884799 0 0 0
1018 1 15.571211846303179 7.2282453007894185 5.712045274820652 -1 3 1
236 1 16.430367323123555 5.100736080508508 3.611663236043765 0 1 0
1964 1 16.13384670869631 3.1823172096116 1.3789736621267024 3 2 1
1071 1 19.18921122671558 5.891996511054052 3.296556548978287 1 -1 1
11 1 19.57511553681452 7.9699912986520145 3.976502164118729 0 0 0
205 1 17.184804895992276 7.511735721843393 3.2405666397535713 0 0 0
226 1 2.7313745820057647 8.356127666207545 3.882681718947494 0 0 0
1600 1 4.05202771185807 12.377731715941438 3.756308754865229 -2 -1 1
693 1 6.985756338916777 15.005984201832486 12.144062982554358 0 0 0
82 1 4.209397614370129 10.361030586099082 2.703782568015689 0 0 0
1423 1 19.883105128602075 12.503378498813902 1.6142803190191364 0 4 1
305 1 2.608622687903977 10.800754267031222 4.405760066933999 1 0 0
142 1 4.970070251499934 8.929523340685495 4.567813006801213 1 0 0
245 1 0.8884039564737674 11.42624966887194 3.4237498788418046 0 0 0
1788 1 6.404244377126014 11.240825796379474 1.8718927271721328 2 -1 1
1189 1 6.2876689406613115 8.930581864072634 2.730591104413015 -3 2 1
106 1 6.119185629490512 10.753431795242035 4.20394863952351 0 0 0
182 1 2.3579559661931784 11.3639291259317 1.9956494537172638 1 0 0
76 1 8.31627035035332 9.463609964606396 3.456039787325595 0 0 0
42 1 8.113942842842512 11.632432539077627 3.05879176038379 1 -1 0
241 1 2.6235121994679282 15.396758818346786 1.3690759973513957 0 0 0
1416 1 6.038704499075809 14.766340431022096 1.6451250109723268 2 -1 1
270 1 7.9555337679302225 10.407822031141551 5.238673019347054 0 0 0
447 1 11.91706250902907 10.210801163378395 2.35075271974679 0 0 0
41 1 11.335418801525096 9.358840829865306 4.365932309643682 0 -1 0
1718 1 11.700484708961273 12.329486574803873 2.971420554453955 -1 0 1
418 1 9.351911116919283 8.542346207175951 5.014925768698998 0 0 0
1227 1 8.940887951580375 7.576578976747678 12.640832177703189 1 3 0
507 1 17.869151573084377 17.169225715503952 11.569378859023674 0 -1 0
218 1 7.928230795579689 18.398208451904154 2.938362069396991 0 0 0
1724 1 13.45261040539707 11.546082702921378 3.937220667198731 3 4 1
541 1 15.266290477038915 8.60275830774738 3.9352158912952104 -1 0 0
273 1 15.317956630342055 11.179806678147532 2.087334353447284 0 0 0
60 1 15.580273249518354 11.164425364734539 4.311634754425105 0 0 0
1058 1 18.54904199279189 18.244472434451936 1.3792022837432696 -2 1 1
251 1 19.180620320127574 10.28176363333055 2.898945331894342 0 0 0
1424 1 3.8269113205399807 18.328050546305533 1.6456122290676216 3 0 1
266 1 0.9061906802580266 9.365470105981073 3.2312283014014556 0 0 0
99 1 16.77821978865002 9.388154629044712 2.3656359089244963 -1 0 0
312 1 1.2218204926622138 8.681393689124786 5.523268956283932 1 0 0
421 1 17.14332474249194 12.02091294969441 3.0174675318392836 0 0 0
224 1 2.754056042884107 16.677981836279372 2.971486903497931 0 0 0
1792 1 2.4052380707026435 13.551019959851335 2.6887744006036707 0 -1 1
1232 1 3.992539573406469 14.563060411508845 3.1465438043025475 -1 2 1
512 1 1.5718914208201475 15.49419707826737 4.0875094162884 1 -1 0
4 1 2.652261114906426 13.741640837847646 4.9662470687539315 0 0 0
598 1 16.4261097932988 1.4758273793533003 12.53047753426096 0 0 0
2002 1 6.135953218691191 12.97200037947315 3.3553404903242754 2 0 1
1560 1 7.451840093237673 14.7995239181644 5.020390753936835 0 3 1
17 1 9.576475068924422 15.591009206432744 4.607604087430051 1 -1 0
387 1 5.33510712948326 13.352332415204863 5.5159835977604335 0 0 0
1235 1 5.714349123915397 14.924517864623581 3.9527035124665866 5 0 1
103 1 7.816300992732594 14.109519801219841 3.0415619841828767 0 0 0
123 1 11.661941253596567 14.393966372628956 3.6127566385642687 0 0 0
415 1 9.85519449822161 13.058441953564435 4.194046885058775 0 0 0
1368 1 10.586178667630078 17.227227572403766 5.581222335707231 2 -1 1
34 1 11.603574011547444 15.222164939396995 6.205247888814289 0 -1 0
129 1 9.551466882689814 14.95899238989351 2.1785467087002894 0 0 0
337 1 1.680350036564262 0.9651300369957159 12.563168648035308 0 0 0
594 1 19.85619119539437 17.75735678479219 11.004311951572058 0 -1 0
621 1 17.110943130899056 19.329705702531662 12.686578841870949 0 -1 0
2007 1 13.674590634324385 13.559382660790877 3.429848984933563 1 1 1
1159 1 15.913123181828245 15.138770272511337 4.360471492444436 -4 2 1
1293 1 14.969210104749902 15.974976861539265 2.3448780344201605 -3 3 1
180 1 15.022998086331034 13.005181269426567 5.213037533899035 0 0 0
335 1 12.879808614227395 15.234672330762873 2.149279010240119 1 -1 0
516 1 19.395246723439787 20.676597339553275 12.73210581303178 0 -1 0
90 1 20.44673361477827 14.414706787804937 2.75315942280022 0 0 0
1209 1 15.96983633844656 13.776250966917003 2.8497029445081576 -1 0 1
1250 1 19.00711198403899 12.694549168537838 3.7481353674304976 -2 1 1
74 1 19.88060226531296 16.564955850679148 2.9411769544326116 -1 0 0
1931 1 18.279852601369846 14.071482319537164 2.6669040587793025 -2 0 1
348 1 17.49029096145139 13.656259430789213 5.013133191944453 0 0 0
72 1 13.361000469334591 11.960855381561055 1.6125723753566124 0 0 0
1210 1 3.723648018375418 15.739189884351664 4.894072559330601 3 -1 1
148 1 0.7676372662884778 18.464406100948892 2.241163552345908 0 -1 0
1873 1 2.786439411783572 1.3799187789947118 2.2966831373920717 0 4 1
271 1 2.1307978678911232 19.845972816636323 2.894765690582693 0 0 0
383 1 1.3207000697041553 1.1475578761723753 4.203684297790414 1 1 0
379 1 16.75115689909725 15.686778426378048 12.513057622070576 0 0 0
173 1 6.628270012908262 18.9107748342132 4.666716161784804 0 -1 0
390 1 4.851854526968279 16.606663817900333 1.8942403369451892 0 0 0
422 1 5.836637678062833 18.400527342652932 2.583069795164632 0 0 0
628 1 7.535230656219894 16.381419895310295 1.7864907002349866 0 -1 0
552 1 2.80162935734253 6.9590510044363265 1.8210262596819144 1 0 0
1168 1 3.7722163604363375 18.064152654336002 4.083225053268984 2 1 1
1350 1 5.443356218484809 17.031310664056203 3.958080033287089 1 2 1
1160 1 10.019183555879874 18.489627791603613 4.050285946691018 0 0 1
151 1 12.835596418653363 18.449329235710046 4.367898683575392 0 -1 0
1889 1 9.63536679015537 17.23229790353897 2.254196192315705 -1 -2 1
181 1 11.65818652622125 18.456965652688837 2.3888456327367837 0 -1 0
1999 1 7.889854576355877 16.4224161654357 3.8994227862913893 1 0 1
1585 1 12.83944707564296 16.99926209431854 5.69102826075276 -1 1 1
462 1 11.515832162735656 16.492961582569908 3.464057968429826 0 -1 0
246 1 14.713374855140742 20.02252956460352 3.708925680578081 0 0 0
1014 1 15.953067831786699 18.06296139773573 2.168597145125957 1 4 1
67 1 18.817993581413333 8.259030922815729 2.1039207876931125 0 0 0
1112 1 13.243836879573 20.06424731369265 2.0493335759260987 -3 5 1
1389 1 13.693499737240524 17.601443478086097 2.5361520926725944 4 3 1
1954 1 16.397596455167324 18.939214905122114 4.657169866806283 -1 5 1
45 1 7.392953945171779 5.429156836056 1.6908445144831692 0 0 0
564 1 15.266602568570214 17.245222747398024 4.5662160770724896 0 0 0
1714 1 7.537523712074496 2.7286134421467025 2.038538747812023 -3 -1 1
1370 1 17.331268791920085 16.34911429354098 2.9224171199942854 -1 -1 1
253 1 19.101484863432415 19.92639053558574 4.083378648172348 0 0 0
43 1 19.211445489543653 15.149190647794287 4.535062474398439 0 -1 0
1183 1 18.31550840102436 18.040288192077362 4.066595506003882 -3 -2 1
1817 1 0.8590973269087001 19.248819932724814 4.530608773137802 -2 1 1
1624 1 2.421850663895928 1.855078586949937 8.08581492612743 1 1 1
163 1 2.6257631638288794 2.3659740790943062 6.068117848536681 1 0 0
596 1 3.6234013400938188 1.1872100850193057 4.558180809159838 1 0 0
467 1 2.7798508683227254 4.304898652794036 7.227398545102372 1 0 0
412 1 3.3472280877581575 20.32957898048995 9.168857734849759 0 0 0
417 1 1.4497846593680093 20.70536209484311 6.632362699746554 0 0 0
1064 1 3.6895869071859804 20.65559379935398 7.0796604346052865 -2 1 0
1430 1 6.652452119662372 3.159022777603069 4.103519429722609 -1 -1 1
286 1 4.589273497216547 2.821258385798606 7.8931981912208595 1 1 0
239 1 6.794730840475391 3.096342469941289 6.460855747193513 1 0 0
1591 1 5.331733290696043 1.6615405947110287 6.082857575211634 -1 3 0
473 1 7.994836118306843 1.5084624694544977 5.7171549922449225 0 0 0
160 1 9.845460283044261 2.2160983018629086 6.993176417885671 0 0 0
202 1 8.185982888737582 2.9783169033204535 8.045066719504575 0 0 0
757 1 5.8220793737259315 0.7260580721314266 8.444759181040428 0 0 0
12 1 9.667431861699894 3.1192883282185604 4.717897625824067 0 0 0
269 1 10.076137324457921 1.1674296900797412 5.1229769142881185 0 1 0
9 1 12.603529859022306 0.6491266412505254 5.2043088214360775 0 0 0
311 1 11.757027660462308 2.7794919734361945 6.613220129369549 1 0 0
496 1 11.458750265815569 0.8223458525992138 7.596721612650895 0 1 0
322 1 9.720370861305499 20.05468565659558 7.516572893859212 0 0 0
18 1 13.3019043731173 1.3359248719255983 7.417909029888854 0 0 0
575 1 12.93347520208425 2.693045304777436 8.994503857493388 1 1 0
1612 1 14.399024550612493 2.0296504563434783 5.744332901874352 -3 -1 1
540 1 14.399353919757838 4.068605243307811 7.084461381814496 0 0 0
161 1 16.4043710911021 20.389707834774164 7.599650660842401 0 -1 0
329 1 13.198725028793366 3.7700989836014513 4.913599688523736 0 0 0
195 1 16.386588660670988 4.265949677129164 8.1848926406056 -1 0 0
345 1 18.297305565896743 3.7011978997555506 7.60933164809326 -1 0 0
115 1 16.147317986546902 2.681820010118674 6.494300014291732 0 1 0
332 1 18.07720583493051 2.6264385824104597 5.765258038190994 0 0 0
1441 1 19.36572325700774 1.0092582318791736 9.925254988452354 -2 2 1
2 1 20.548010746060946 2.3773735145981827 7.687243349682496 0 0 0
334 1 17.409895559829856 1.9049012626326696 8.47230674216484 0 0 0
470 1 20.11242468297616 3.5757102167603083 9.212720915497266 -1 0 0
574 1 2.3839311954737177 6.263918339762838 6.748739958550603 1 1 0
1904 1 20.65056723776436 4.667627777368056 7.090884796367325 1 -2 1
26 1 0.7641613422265942 6.682530506664303 4.962443438525369 0 -1 0
344 1 3.371505271486903 7.705861062807917 5.885621952213888 0 0 0
722 1 19.966511239116766 5.664037217947315 9.585808217745333 -1 -1 0
317 1 1.78101349178472 5.455478321658444 8.850139751207434 0 0 0
336 1 4.160812895882007 6.255491161898592 8.13638233579597 1 0 0
174 1 8.897216363925057 4.506723797205999 6.568978209468975 0 0 0
1746 1 5.641838792021942 4.970942721092809 7.136276108343209 2 2 1
934 1 8.09434587205493 6.665038460770007 6.25755012768075 0 1 0
362 1 10.889323463029223 6.85057385946318 6.192005635663128 0 0 0
725 1 6.3039819785283395 7.056524553194265 7.843304143232864 -1 0 0
2009 1 11.182323587787275 4.717772352756002 5.218312337011002 1 1 1
23 1 10.545893336846536 4.8543415068799 7.493318950500151 0 0 0
1857 1 9.337737484095916 5.795018949472912 4.932099818399346 -2 4 1
223 1 9.418554081438916 6.807752715654176 8.010911429268123 0 0 0
561 1 8.728993296636393 8.657314864693111 7.250517268598551 0 0 0
343 1 12.57671887761448 5.224612133796757 6.648615525051228 -1 0 0
213 1 11.927943338588488 8.55214518913593 6.226342610195499 0 0 0
525 1 14.187693294307897 5.772098180879952 8.046376424890816 0 0 0
851 1 14.727263035446793 5.185331631468619 5.330733517023938 0 1 0
811 1 12.364088586372423 7.157459614587685 7.874824925292833 0 1 0
350 1 15.918480132383218 8.32072680642604 8.350843862668988 0 0 0
278 1 12.94035030435785 6.887725134963831 5.407175083751291 0 1 0
1611 1 16.178776216799683 6.022862325017748 9.862805288604683 -2 2 1
169 1 14.634495475349018 7.289087477710234 9.603556327740204 -1 0 0
323 1 20.496774352251293 7.035046219352205 7.406077880619401 0 0 0
479 1 18.065020426074938 5.701320063748594 7.960268026085485 0 0 0
444 1 16.16879226396523 6.326979256361847 7.620469255322386 1 0 0
439 1 17.593873227796717 6.823051625572258 5.2085617400442406 0 0 0
374 1 17.774760686154618 9.294120183711527 4.2735975479662365 0 0 0
801 1 17.895712110425148 8.0031911965842 7.4660506533592 -1 0 0
1573 1 4.46581839250684 9.1418620401664 7.025518065376558 -4 -2 1
1412 1 2.534304685096873 8.053828142093618 8.342934062332255 0 0 1
798 1 20.534682121047833 9.005685489418912 7.652305184009542 -1 0 0
191 1 4.190503936387593 11.338248163003103 5.784499577857859 1 0 0
339 1 2.456771471870606 10.01898998704695 6.592219283511509 0 0 0
568 1 5.120054049338091 10.872415859611872 8.195381475087789 0 0 0
122 1 20.104031291100217 10.600151856333875 4.979588176673176 -1 0 0
340 1 1.1398064696098023 10.93779437133393 8.131560647028953 0 0 0
264 1 3.265075230812419 10.22637359081347 8.997027036879256 1 0 0
77 1 5.977749142416838 6.878689889063725 5.724880212669061 0 0 0
96 1 7.645471655058588 12.682128343858064 4.987457459927551 1 0 0
219 1 8.904938109387714 12.774061007848069 7.980497191445434 0 0 0
1544 1 6.721883659495175 9.587231014705713 8.370783935502217 4 -2 0
909 1 8.17521616048274 11.120142981710512 7.270832408460772 1 -1 0
287 1 6.447259608498793 8.874723495161223 6.457316625568895 1 0 0
299 1 9.84285205972705 11.70000442265744 5.829867439084686 0 -1 0
265 1 12.264556887135026 13.302531950699002 5.232995999994982 0 0 0
30 1 10.336518798624189 9.685686617827193 6.479289262256732 0 0 0
358 1 11.188770354109392 8.942403091857626 8.740064329830993 1 0 0
695 1 12.77286243541596 10.279795758800228 7.683497371307975 0 0 0
1178 1 11.153856039833025 12.8425767659196 7.0724894651426995 1 -3 1
503 1 13.484229236265849 9.462706645673158 4.929893359074858 0 0 0
179 1 10.567175315986464 10.853054946839318 8.136477327456252 0 0 0
284 1 11.975291340251744 10.989457561536032 5.750200259242158 0 0 0
1489 1 14.766790579848605 10.660989049513173 7.933159939868651 -1 1 1
978 1 16.32090929116403 9.339503371440392 6.0728357927342485 0 1 0
208 1 13.884516436809045 11.65464227134111 6.3331835367410205 0 0 0
510 1 14.10322971107512 8.296207274410513 6.958280018897096 0 0 0
1908 1 17.585452887950396 11.177636512507055 4.85854152584867 -4 2 1
398 1 19.157834600145105 12.396867501046124 6.0577731599032605 0 0 0
188 1 19.322374791080257 8.339865561476792 6.043993835171888 0 0 0
772 1 16.58992791673192 12.097004848798738 6.606857185436907 -1 0 0
782 1 19.00662633055668 10.467341407328837 7.041139264753828 0 0 0
542 1 17.050521185561827 10.36180576346276 8.135939022608289 0 0 0
553 1 16.899111277074972 12.68346972820829 9.039449191927174 -1 1 0
244 1 1.3096249109701485 11.948429770922466 6.150717678674291 0 0 0
194 1 4.904866706920128 13.029113023938475 8.173041852318763 0 -1 0
85 1 2.470120105624141 13.683317065657356 7.35470254318429 0 0 0
381 1 0.9158541131237383 14.834614225412407 6.2242428256034525 1 0 0
607 1 4.372583338747615 14.70974464656748 6.737588288119879 0 0 0
717 1 3.5536494225072706 14.540497430813502 9.344649700167832 1 0 0
1078 1 6.655848350023982 12.149540426461964 8.817527487254942 2 1 0
102 1 6.2131166197788685 11.416670424676186 6.338994334213451 0 0 0
35 1 5.8942344099849855 15.98619254807689 6.03185557234119 0 -1 0
97 1 6.7022473473355175 13.582444815661216 6.945124126088601 0 0 0
15 1 8.709564542333393 16.212808151510018 6.803584958088158 1 -1 0
860 1 5.990345967872783 11.519683368168403 11.104289325489868 1 1 0
442 1 5.6873594865789565 15.119692503852733 8.795149864923095 1 -1 0
1029 1 13.22902836361632 15.832013396876134 7.785458532585685 2 1 1
369 1 9.45338327701039 14.105726819357432 6.525395625293448 0 0 0
255 1 10.488741211672162 15.756651035641568 7.785478613255051 0 0 0
1731 1 9.762161502038065 14.623399076677812 9.476107625720042 -5 -2 1
199 1 7.913569642853441 14.680574459489094 7.897305868577072 0 -1 0
221 1 13.236867210917085 13.636380953310535 7.199208314985208 0 -1 0
1709 1 13.421722250712698 15.379296495121654 4.7688231858789845 -5 4 1
378 1 15.050353529063248 13.0584222501793 7.780580370066476 0 0 0
263 1 16.6758115562311 16.11003462959914 7.2470237946878315 0 0 0
373 1 13.046574212723746 17.060661691513012 9.377795352891043 0 0 0
713 1 14.902711232247466 15.108338437920244 6.490008804457875 0 0 0
521 1 17.530844358562177 16.459374053089192 9.545421261513326 0 -1 0
158 1 12.577298605856557 12.065198488273962 8.799681388236849 0 0 0
130 1 20.33228495416202 13.161845031561533 7.7712813097011635 -1 0 0
349 1 18.561495623745582 12.137861594773412 8.08008345131035 0 0 0
310 1 16.738339918042584 14.191004423693567 6.610704620626987 0 -1 0
333 1 0.6784560069250343 13.214251788338442 4.719045056209359 1 0 0
211 1 18.807378633354276 14.68283438861072 6.608379345594321 0 -1 0
428 1 20.145552229626045 16.356942624027358 7.210376265538795 0 0 0
392 1 18.65376877590162 14.715064897541408 8.906113046461975 -1 0 0
1257 1 2.7409682761751317 19.53560017767426 5.20922334688186 0 1 1
1861 1 2.5617099272220205 16.112489582975908 6.971495332420354 0 -5 1
1283 1 1.8488397537604484 17.59508549824394 5.241394928688733 0 -2 1
1734 1 0.5830052331415523 19.919116250520677 8.448802677445737 -1 3 1
167 1 20.670821415896462 18.6185247511184 6.657896250597916 0 -1 0
146 1 2.5970099251799885 18.467054403869504 7.717749442629725 0 -1 0
779 1 4.287759770592241 16.80112579613353 8.528785352336108 0 -1 0
501 1 4.91769478778639 19.663134176358778 5.641393886536884 1 0 0
1620 1 6.833799131700016 16.727407509056825 8.103295829173451 1 -2 0
69 1 4.262683377911188 17.520983098416224 6.261108948511941 1 0 0
267 1 6.897191168582325 19.98025197206034 6.538915981564169 0 0 0
19 1 5.0885994623923665 18.72182971295768 7.991614401047835 1 -1 0
366 1 7.318314583798405 17.83506349562364 6.273562611157899 0 0 0
578 1 7.888716408348116 18.86609657652611 8.751004070971042 0 -1 0
87 1 9.57287490728321 18.234868941634108 6.89822441017397 0 -1 0
319 1 8.700616681419692 19.622819004440963 5.389212093374234 0 -1 0
309 1 11.07045092422578 19.324971525331843 5.462453462750228 1 -1 0
243 1 10.447881168943976 18.551375341651003 9.093566967526652 0 0 0
315 1 11.701961391345845 17.26475012876059 7.684839216138297 0 -1 0
140 1 14.73466194180877 19.43198591303422 8.20426672756835 0 0 0
557 1 14.686522355252276 20.051556508109094 5.884026377041547 0 0 0
452 1 12.501551378028406 19.270251790157563 8.819253342787649 0 -1 0
475 1 15.280428869422547 17.417903942123893 8.692143864475431 0 -1 0
175 1 12.771999912126667 19.115089000406908 6.560815954646315 0 -1 0
164 1 14.387561416322727 17.322994382879486 6.786184874359663 0 -1 0
822 1 16.099175917526903 18.487236421282745 6.717238276370642 -1 0 0
400 1 17.452818192170614 16.422415188083455 5.14800670579621 0 0 0
614 1 16.78274580861382 18.809007271366013 9.113558952868654 0 -1 0
280 1 20.262923140200474 16.889907654199124 5.011480370579739 0 0 0
119 1 19.021021833268225 18.536589332045732 9.058584170354045 0 0 0
297 1 18.480254995567137 19.076460345603827 5.7828561994927385 0 -1 0
127 1 18.73178820207121 20.397934195426682 7.691142086506095 0 0 0
526 1 18.049187744264273 17.793749423149336 7.3089476324132985 0 -1 0
459 1 3.08985291228489 4.590271476696432 12.891180181911421 0 0 0
1847 1 2.6700604521500395 2.4672995638186723 11.727453872605592 -4 -1 0
738 1 5.004724368376107 3.6468165049227785 11.6592128143213 0 0 0
1385 1 13.189819666027697 14.492835571940178 12.116256792598367 -2 2 0
1361 1 4.154891223471636 2.1562590629770435 9.874901375599146 0 3 0
1051 1 19.486403810297023 2.6170643248657 1.4740880034279467 -1 0 1
248 1 7.899668998344931 0.9982022366400185 8.131702363367113 0 1 0
441 1 6.300998644733722 2.2380544140681113 10.27878249940328 1 0 0
406 1 8.497502474293324 0.720432911692116 12.48087510379926 1 1 0
827 1 6.91044644248865 4.40374400452113 10.65531576315857 0 1 0
638 1 1.1176825347149184 18.426736679871446 12.122815916843146 2 -1 0
37 1 17.31696549326567 19.828531773266608 2.739811840802094 0 -1 0
414 1 8.367392687424067 2.1475524619495827 10.104102864349935 0 1 0
985 1 10.772100016504908 2.785281037846572 8.891825067412942 -1 1 0
300 1 10.218639287383898 2.5131930574173973 10.948445728202405 0 0 0
405 1 12.857250976330807 2.0642561523032503 11.447628978933356 0 0 0
1707 1 10.553799886794554 20.62664957369126 11.823999800035933 -2 0 0
874 1 15.135536432473103 1.943137203729488 8.414239929437265 0 0 0
93 1 12.019978792364096 3.891967432044028 10.818029355330951 1 0 0
156 1 12.63996475204124 5.352865313839251 12.288155209714072 0 0 0
509 1 16.573687334485758 20.61138321430559 10.103377462297356 0 -1 0
351 1 15.189526394573852 20.160226678653117 11.759412714017708 0 -1 0
55 1 10.037921716125442 20.185403971231437 1.9281514541620657 0 -1 0
650 1 14.45695900221447 4.156782682794134 9.684357620887736 0 0 0
908 1 20.342601843654112 1.941243944036421 11.538653199482063 0 0 0
289 1 1.7653730211767704 0.9723894493377111 10.305424415645774 0 0 0
457 1 18.18780706973604 19.68531434639222 10.847890666388592 -1 -1 0
460 1 16.08327996345943 2.7213188916616198 10.545316893739894 0 0 0
432 1 6.726298486859544 2.6952049759024974 12.312079359709832 1 1 0
291 1 20.347948908736814 19.828989268735025 10.924950097958613 -1 -1 0
639 1 17.954788042392625 1.941526841382623 11.216684766965136 0 0 0
215 1 3.9637044821218987 4.832767006408012 9.812181877837588 1 0 0
734 1 4.6743472831754245 5.985225254319624 11.91019638773109 0 0 0
308 1 1.0095250328269756 4.405577600475633 11.134829542169765 1 0 0
775 1 2.1067649603946674 6.477183529564885 11.984121078021584 0 0 0
1043 1 2.329182920291253 3.405970634084722 9.578904580036465 0 -1 0
228 1 1.3009839860896117 7.19086814326386 9.856820938522882 1 0 0
359 1 7.768652640536928 5.3796839618768875 8.406164378254697 1 0 0
272 1 9.118005968997105 4.115022508718406 9.721484078832619 0 1 0
508 1 7.030541067790371 6.849786336474325 11.911899482529545 0 0 0
198 1 4.913483960238726 8.442564537787351 8.893738802918275 0 0 0
563 1 5.811719839145673 6.108909776469994 9.73446623220497 1 1 0
1958 1 6.258456751441017 3.7104131605611443 8.820064188205954 1 3 0
346 1 7.056251270822902 7.981668286217578 9.894436048986119 0 0 0
81 1 11.643057749389492 8.600695422659555 12.154354488320912 0 0 0
802 1 10.887486796903032 6.654295266985899 12.867579512312698 0 0 0
293 1 10.70087898064308 5.996841813514266 9.82715293743502 0 0 0
388 1 4.287667169254796 8.526365338548052 1.9271019219179015 0 0 0
658 1 8.799246151939489 5.639481595319298 11.019654622637052 0 0 0
386 1 9.304686870241632 7.572118700575767 10.458292179184252 -1 0 0
105 1 12.188660976367638 5.030968887788351 8.848030799956652 0 0 0
688 1 13.404494082477806 6.0283924810335385 10.405422021801476 0 1 0
458 1 12.153557764432819 7.6574154441386355 10.226297437239255 0 0 0
79 1 9.135841308914129 9.417437852791439 9.328092512087123 0 0 0
275 1 13.152459018596739 7.3449012320668245 12.57705228660431 0 0 0
38 1 13.784078143076327 9.259452649874719 11.586492565382207 0 0 0
586 1 15.057534613244862 5.283200287815586 11.532202836924133 0 0 0
1928 1 11.876193881595368 1.4913237562844022 1.7659251194520484 -2 1 1
183 1 17.51595520033348 7.253153113590269 11.958350907072555 0 0 0
440 1 14.560575579942231 3.429986920849764 11.68019621830979 0 0 0
1332 1 15.242812498411705 9.34035201999419 10.245055301491492 -3 -1 1
274 1 11.477649940770856 16.347969491105893 12.462885426597776 0 0 0
640 1 20.05531769354734 7.2779834884791645 11.320818725157388 0 0 0
159 1 18.095842863424494 3.789585094744684 9.591659704894237 0 0 0
524 1 18.135667945163263 6.01820538376595 10.195722241838437 -1 0 0
377 1 18.978317677956046 9.092466038091352 11.29271832528932 0 0 0
520 1 19.030355427435264 4.698011346394478 11.262670169686988 -1 0 0
443 1 0.9866712439272058 9.255958949791685 9.780680005749533 1 0 0
203 1 2.277363775425184 11.168322129605853 11.397772179118313 1 0 0
850 1 2.996361330958841 11.731237988234072 7.611612741977145 0 0 0
92 1 2.695746705785612 8.785674067638992 11.344022174828352 1 0 0
401 1 20.25431867940482 11.48137352368048 10.279989485750992 0 0 0
189 1 5.615339066039277 1.5472168139396545 1.9648470869520847 1 0 0
849 1 6.427900024431997 5.027395894516234 13.038432149849408 0 1 0
445 1 2.377993890442861 9.343242400610393 1.6879347466902264 0 0 0
502 1 5.219098215011859 9.997145685828048 10.224977137581769 1 0 0
330 1 7.607103170558975 9.341602615833215 11.312024726340333 1 0 0
307 1 5.641279221394594 8.177250707619438 11.519428533241811 1 0 0
1191 1 8.751004242527147 18.765416938739993 13.031167826202024 -1 2 0
294 1 4.339459852262008 9.628673515146925 12.344846928481362 0 0 0
225 1 7.757601135034629 10.917463059738775 9.704581429753 0 0 0
44 1 13.2514253866 8.916150013098372 9.123652825116883 0 0 0
763 1 9.196397423462047 11.738570332966944 10.980557388514983 0 0 0
1741 1 15.424080874887075 20.648035729614342 1.3224973568552256 2 -1 1
1635 1 9.862316158449323 9.408876058445095 11.36411527477689 -2 -1 0
1126 1 11.79063789472607 10.317625333285763 10.177594164209845 0 -1 0
240 1 10.247478135553765 12.522591805367362 9.34332318585053 0 0 0
389 1 11.095325418365583 11.110137964158014 12.141669699069597 0 0 0
477 1 13.786159926213253 10.951321414737846 9.911330546993806 0 0 0
1996 1 17.350501533530707 1.6008079951529015 2.0441055033343796 -2 3 1
408 1 16.766231319531855 9.339039873476302 12.08550256694999 0 0 0
484 1 16.863587126819503 10.957074657033347 10.3546123363075 0 0 0
1304 1 14.835076426104633 12.578454743044954 10.425635255205176 1 1 1
425 1 14.919734811024876 11.027119305052775 11.77503233952462 0 0 0
131 1 16.47682375644425 12.401836650986631 12.109319027910693 0 0 0
124 1 14.867541776274157 18.476528210499005 12.880069634738229 0 0 0
539 1 15.31550007384572 7.374416031756365 11.36163235579409 0 0 0
1920 1 19.43674680304109 7.800690025799707 9.126647491332488 0 1 1
184 1 17.44171525686242 8.575954311285512 9.929065747988842 0 0 0
375 1 18.858601794750047 11.041292464299985 12.084646523522661 0 0 0
562 1 19.121826027956505 10.186293656620572 9.431361409458965 0 0 0
229 1 0.932428127233228 9.237841473384133 12.052361336311705 1 0 0
125 1 2.0260229353285144 12.459870611840756 9.443233265822878 0 0 0
478 1 2.0938916691350986 12.688370314493032 12.88338615048219 1 0 0
626 1 1.0623084327131878 14.972439085240284 8.429194752071826 0 0 0