LAMMPS data file via write_data, version 29 Oct 2020, timestep = 300000

2048 atoms
1 atom types

1.008553215846284 27.343446784150924 xlo xhi
1.008553215846284 27.343446784150924 ylo yhi
1.008553215846284 27.343446784150924 zlo zhi

Masses

1 58.933

Atoms # atomic

1633 1 4.825002361350992 5.441071904721023 4.462337934822063 0 -3 0
1587 1 4.804551404112546 3.0557448251370536 3.086708913569086 4 0 3
470 1 3.377715889217211 3.018351349511387 4.7418226274512465 -2 -1 0
466 1 1.9800628287210178 1.141766641196486 11.470983788303325 -2 1 0
1963 1 2.5843563888786947 2.9898550337873964 2.415054884431714 5 0 0
1091 1 1.3447040617338095 2.0580591625740503 3.633322571059138 2 -1 0
1261 1 5.716014987031922 5.523836705561436 2.202479707513189 3 0 0
1394 1 1.1942924919266569 5.176523693061152 3.2759786151724986 -5 -5 3
2002 1 4.145636152104284 1.684205004178596 1.2902957502003747 2 3 0
1387 1 5.6041431918952895 1.8152586559958395 4.776152738891289 1 2 -1
688 1 6.270905285441751 4.074135661775018 4.025135658732141 2 3 0
1475 1 7.28416963944229 2.7966291966465144 5.593834070216598 1 4 -1
86 1 10.125948912001858 4.188458366923843 2.317652429618918 2 0 -2
1737 1 8.023656809451602 4.804638716205229 2.0868250999564593 1 6 -1
1168 1 7.540303513237587 2.6013694379660186 3.0719527997333302 -2 1 -2
338 1 6.230154109643633 3.2628806515072997 1.4061805720896807 7 2 4
47 1 6.131387569663959 1.2597347781967652 1.9861568854434872 -1 -1 0
1842 1 10.64163025412759 2.355444107921638 1.020053377033365 0 -3 1
852 1 12.439008385881873 4.1000760270275425 2.8271824999132082 -1 4 1
792 1 11.981422746690534 2.072286952302484 2.5794774320187326 -1 -2 1
393 1 13.879120930945898 4.835149332540858 1.4382960993842935 -1 -1 1
326 1 13.420748949533163 2.746489957464158 4.384121921267864 2 0 -3
233 1 9.761308323169386 2.2006225931560897 3.2405073203045363 -2 0 -2
1341 1 10.799789329015574 3.8593758010496164 4.475582641459564 2 2 -2
331 1 5.467498885227888 1.677376157687812 12.843681975402163 3 -1 -2
970 1 15.289641168042797 8.63670193944258 1.462964228001256 1 0 0
764 1 15.986054376523265 10.949418926626453 1.4749683214024027 3 0 1
676 1 14.076197301919072 2.2135434773957163 1.645142221288657 1 1 2
406 1 16.497908548074577 2.8179230174331034 2.3948257405762092 0 0 1
28 1 15.241530370899468 1.7051458956805003 3.6524927615071747 -1 -1 0
535 1 14.584203357441753 3.9497801199749722 3.2138555917463596 -1 -1 2
1532 1 17.335578873015727 4.7119972678135 3.4343792129648416 0 2 1
1997 1 17.931568402415554 2.0742296725103015 3.7582204185316255 1 2 2
1152 1 12.879777390830991 13.582318360605113 12.646204866078351 1 2 3
45 1 23.659811747153924 13.219597517681413 11.30214996673201 -1 -2 -2
1497 1 19.2970828803228 3.809367281476176 3.0735382957636825 0 -2 -2
1445 1 11.892313912790579 1.120186002323418 4.516068248750222 -1 2 0
853 1 19.65866547163698 12.409520659055145 13.303209722270124 1 2 -2
460 1 19.423778267495287 1.6430503885720444 2.0769668815581914 -1 1 -1
1382 1 18.981650666686825 5.960147988278748 3.532858692005714 -2 -1 -1
776 1 21.342054914072737 1.890505787439377 2.946060953609558 0 1 -3
1641 1 21.40292333551648 4.095459510151533 2.7863792941000796 -1 0 -1
228 1 16.44455944855583 4.346675924212999 1.0312078048000992 -1 -1 1
559 1 25.961355169475336 1.518212500526724 2.349089474082458 -2 2 3
1985 1 21.908513657666894 2.8634394015683133 4.848298771435356 -4 2 2
1724 1 20.0145023925056 2.4539411965661078 4.412947576859207 3 0 0
199 1 20.047664078018087 4.578245787062132 5.095289385374902 -4 -1 0
1558 1 22.312211296212883 4.574257532394652 1.0706700559787836 4 1 0
517 1 23.229004150819048 3.107894106521923 3.050566804391298 -2 2 -1
542 1 25.803839771926754 3.1810368269538047 3.9720787170872924 -3 -2 1
1758 1 26.859734578974773 3.555321941782671 1.9130070232970457 4 -2 0
2028 1 24.829637705845748 4.77506959363583 2.8945607478409974 -1 1 2
1846 1 24.049091194613375 4.289491931093208 4.738374233333888 -1 2 1
1298 1 24.785104703090433 3.153299418943018 1.577168652089111 1 2 0
726 1 3.826848553954388 4.677859391089305 14.1701555632998 1 -2 -1
595 1 2.873647179881696 10.512996234289483 13.754305409902631 2 -2 -1
901 1 26.32857349209208 5.234740172075978 4.935601033236434 -3 1 -1
1711 1 1.8683225618139618 12.326535386356866 1.0088933618190088 1 1 0
1736 1 2.549053767340917 6.9957673679545636 3.053712320596548 2 0 2
1669 1 4.124631806764766 6.2983666431737895 1.5477568171722922 1 3 -2
274 1 2.3281566320519325 4.93488253424786 1.4582532061202638 -1 1 -1
705 1 5.090992788818078 7.37032924775286 2.946620326863703 -1 0 1
617 1 3.4504432909471645 4.654324591295866 3.172449568358607 1 -1 -2
744 1 1.294033783314434 10.113233133765785 5.169268737832126 -3 -2 2
1986 1 1.854207918916322 7.564229260887474 5.077600076181363 -1 -1 0
1820 1 5.024295060796676 9.71714004236714 6.801822270722109 3 0 -3
1478 1 3.4055576664741394 8.998155754288454 3.83639807760761 -1 -2 3
1250 1 3.859645583700131 7.322018173743338 5.0367130691096795 -1 0 1
809 1 21.645789492728525 13.656779549691048 12.502099817608151 1 0 3
1709 1 8.662618817956469 4.349458816438586 4.17330241785019 3 0 2
1210 1 7.091336201639207 6.036784750157707 3.952660992631644 2 3 2
928 1 6.984294696124646 7.0948432371715775 1.7901134437432225 1 0 2
2025 1 6.980078359500861 8.490253659337416 3.5049162764658206 -4 0 2
1097 1 5.47254809491573 9.451682806484296 2.3779762566446094 0 -1 1
590 1 8.732066206369364 9.597381441303643 4.020156337222316 -1 -1 2
987 1 9.025778667770625 6.642424701717312 3.6264560761705558 -1 -1 0
447 1 7.320566729857323 10.06416804145916 6.055149696004453 -1 -3 5
1560 1 8.876466578412812 8.412598348599902 2.159115450541699 0 2 1
1037 1 8.095680501191726 8.267141173142079 5.4213193515637546 0 0 1
194 1 8.60626910530874 14.130601349034235 4.346750723185844 0 2 0
127 1 13.490116664830394 6.066738088010376 3.3584085684179166 -1 0 0
361 1 10.974038532884775 5.997297364102785 3.684135988957731 -1 1 -3
1935 1 13.171997326738397 8.540864086617205 2.724525484865106 -3 2 -1
2040 1 11.068230687936584 8.242271378059357 2.691477036101379 5 0 5
1049 1 12.394291479917518 7.512397374177879 4.923981382031447 0 1 1
1811 1 10.356349704725607 8.099967572161123 4.528551651293138 3 5 -1
1541 1 14.555265924819597 7.242330885802318 5.256705474431362 0 2 -1
43 1 11.971704893451776 6.458671292251188 1.8530602991240979 2 2 1
784 1 22.828951809146204 13.116681463946312 1.9441962123382734 -2 -3 2
674 1 17.2775219819472 9.54660218751561 2.764007878682713 -3 1 2
668 1 14.078296773657943 6.972348765733573 1.268808152038266 0 -2 -1
1546 1 14.146399909834573 9.185226217210898 4.572011496480913 0 2 -1
322 1 15.6715433859049 5.595986978880823 2.7480231337562895 3 0 1
835 1 14.746360048409128 9.962349236188693 2.863610655915388 1 1 -2
109 1 15.195730024129999 7.636443589822133 3.2335220331507752 -2 0 1
1072 1 16.265757550340325 6.154477129504638 4.694131765815495 -3 1 0
633 1 17.719077897557654 7.6744604263585305 4.7744925503266975 2 0 -3
1116 1 18.187980956921816 5.474118061719029 1.1601732824072732 -3 3 -2
2033 1 8.418204625750779 2.4513564175290465 1.0774335774677082 -1 2 -4
1799 1 17.29224166835928 7.081652318163649 2.8426273752513085 3 2 2
1636 1 20.77207012814747 6.836814240367548 3.060478135024975 0 -1 -1
638 1 19.132847917357715 8.719712631454147 3.4360832566567474 -3 0 3
1835 1 21.271883407090993 8.948362895959779 4.049623264757129 1 -2 1
759 1 19.878496328536265 6.958384541710469 5.1727404033532975 0 0 3
1078 1 22.805659371140585 8.89771930360191 2.666916790057064 -3 0 1
339 1 21.9727372257367 5.071427150861357 4.329045820516072 -1 0 -3
57 1 3.7405565807912677 8.56377360063346 1.8050591000559797 -1 -1 1
1453 1 20.944562212989883 8.827464419917634 1.5639863186396923 1 2 2
1123 1 23.094940101161402 5.701930185030308 2.8831115350340264 -2 2 -2
837 1 4.154856704768022 3.9038541954584702 1.3059155477722375 -1 0 2
225 1 24.842394227382574 6.451314145713142 4.343914959848495 -2 0 -2
836 1 26.48911312080535 7.454492224953196 3.313092681589839 0 0 0
985 1 26.040211130681794 8.531507278894527 4.955320987151451 3 -3 2
278 1 22.9157071751303 7.341252022828878 4.308926081293145 -1 -1 1
1685 1 1.0790708717484878 9.237948876515626 2.992791880089592 3 1 -1
1813 1 24.496227966413002 7.544695386829978 2.3611456093869307 2 4 -3
1309 1 5.8344027338679165 5.622099338725145 13.859314224702338 3 1 -1
1824 1 9.81480571380853 6.319390883196594 1.6067237342748104 1 -1 4
1967 1 5.67996194027556 13.637647418534739 13.283552209743002 1 0 4
1977 1 3.1145051946386024 12.983336575600042 2.8134778596435974 1 2 1
964 1 3.2372276323945055 11.13750981803996 5.283944193179289 -1 1 1
1093 1 1.4965798601136602 12.473244197462199 4.869482768476267 -1 -2 3
605 1 4.402650168514825 11.069248925066017 3.7422477628792117 2 2 0
680 1 4.296965027405994 13.03991743776501 5.0278628496771365 -3 0 3
115 1 2.2680187687666282 11.102902957410603 2.9835866235828137 -3 -4 0
1897 1 5.682150646963939 9.20205216246646 4.64271729991321 4 -2 1
1081 1 23.541510016081645 12.628453686097362 13.231422586930332 -2 2 -2
768 1 10.608503180105753 9.897142809081577 13.670356618135322 0 0 1
1013 1 26.698321420568995 12.274751610886298 12.216031975555138 1 -1 -1
1275 1 5.524026607688561 11.537706020677904 5.997762362335788 3 1 1
220 1 7.687822415031444 12.294161470298894 5.454211818844519 3 0 1
1676 1 6.780496534584603 10.807055257152959 3.867061389472303 1 -2 1
1905 1 5.758005832407991 12.785824604756005 3.619167889079536 -2 1 4
1114 1 5.92558175547044 11.460428325416917 1.9573552584567397 0 1 -2
347 1 7.732477990904382 12.5486942685505 2.810835237773925 0 2 -3
184 1 20.22898493094901 5.2660204539726845 1.3828676215093307 0 0 0
369 1 9.501062813409812 11.597694030090734 4.117884319432359 3 4 -3
1707 1 11.726249745256666 9.689561289182562 4.539446705064476 -1 -2 1
1926 1 12.328295798155171 10.220608781158418 1.727530201521141 2 2 1
1595 1 10.026083506761205 13.304153180959139 2.8864751801990094 -1 2 0
890 1 10.213510868626933 10.443089814409014 2.2513646835870125 -1 0 0
329 1 12.218322811678684 13.283318654707516 5.016593125300518 -3 -1 0
1608 1 18.486866501511766 3.2667833304934817 1.1447262681546362 -2 -3 0
1898 1 13.497101137363833 11.187305239349538 4.0669848106892985 -3 1 2
2000 1 13.62410273676932 11.852024248990578 1.9828722509121195 3 -2 2
1733 1 11.47474557154892 11.69278189273881 3.5107419921701486 -1 0 -1
27 1 24.858849388795843 10.938197383054922 12.646461034967393 0 -1 1
1850 1 15.670228941981849 13.0498899040793 2.350397171964026 -1 2 -1
651 1 14.218118084790131 12.815718420056314 5.819735716447211 0 1 -1
427 1 17.6488716151288 11.68162834942793 2.63637582749989 1 -1 1
323 1 15.892481186845147 11.384675783422413 3.924878505045808 -1 -4 2
1974 1 17.0023124673334 12.241242454037518 5.957986775886309 1 -2 3
875 1 13.882498136567797 13.242125056730107 3.6052405589375063 1 0 1
11 1 16.483371868249044 9.30146056689856 4.990243628275124 -3 0 1
2034 1 15.34831320506876 10.7873143001484 5.910287778640533 -2 1 0
1879 1 19.177510991712595 9.816833333265045 1.3262866053758848 -1 2 0
1035 1 19.0879749019886 12.550937482165333 4.236895942141482 3 -1 0
917 1 20.900543021121994 12.813959986047145 2.8974813691413472 -3 -2 1
291 1 19.932763141211087 10.905724464949893 2.95886887367731 -1 -2 0
1576 1 22.28757039951697 10.889236857899478 3.755325737832001 -2 4 -1
2001 1 20.482493212258483 10.58614702024972 5.066276519838137 2 3 0
1950 1 20.925117874375626 12.81356774280234 5.277462904797308 -3 4 1
1233 1 19.395641849869538 12.098125867440055 1.2950162268008303 2 2 -1
1485 1 24.051602727871295 10.97127283737593 2.5190976599165547 -2 1 1
1741 1 22.6837180490873 12.959947184178287 4.3051004718751145 -2 4 0
1130 1 27.153280612042753 13.153119374169998 2.847864590349541 -2 1 -1
1788 1 25.825047423127188 13.430443390861475 4.577784569772248 2 1 -1
302 1 24.98545833590234 12.723727541753876 2.145986962560514 0 -3 1
218 1 24.901958306446538 9.329302537897052 3.4565549429298374 1 -1 -1
1518 1 24.184394435796975 11.786321040889806 4.624582963880164 2 0 0
1401 1 26.423170486227676 10.875720911433373 1.9036709674678773 -1 -2 -1
1281 1 23.417799648307106 9.724746918664 5.13564114519457 -3 -1 0
1025 1 26.191897736554083 11.358182879501987 3.9583500053541325 -3 2 0
1068 1 4.160257463901724 1.65688651750199 6.409091410599076 -1 2 -2
1053 1 1.447037100795443 3.6670011713477026 5.265702807006432 -2 1 2
552 1 2.098926599175204 2.2829040920618047 7.290733570017159 2 2 1
719 1 3.4229276719850517 3.8330553415606743 6.483891943208819 -2 1 -1
892 1 4.341281670180215 3.2722904533081034 8.301615394541054 2 1 -2
1619 1 2.0442818935131974 3.7884293894190084 8.923995243240284 -1 4 0
50 1 5.577029425709109 5.030368253151203 9.092518631788257 2 1 0
1861 1 2.907975505258908 5.5870071560354315 5.192118507772574 1 4 -5
1924 1 5.2080625844241935 3.3870548250468104 5.8874639617149755 0 -3 0
279 1 3.194553213238001 5.379108467631419 8.245425197120957 1 -2 3
572 1 4.8465940697671375 1.264218359777037 8.828029378692682 1 -1 0
1319 1 6.93642584965338 4.930521616686683 5.6432083277795995 -1 2 -2
500 1 6.029859558935687 2.0563371305673837 7.303582667416963 1 0 -3
569 1 7.036391853557401 4.234909347843029 7.443924621087046 3 -3 4
511 1 9.509473584827957 2.5168087318535237 5.649841356054373 3 -1 0
505 1 8.545330701293203 2.531556845795914 7.759876339511748 4 -2 4
1503 1 10.055995924533098 3.7928101388134166 8.315062280588208 2 0 1
1488 1 7.074796356361679 4.732713034155804 10.279815674635364 1 -2 0
1654 1 6.762659027873611 2.752728557867125 9.087950669976184 0 2 2
1740 1 12.518325023008638 5.054350229363535 5.2276748883431505 -1 1 -2
611 1 11.810166826927738 2.528921195874328 8.409706206141102 -2 -1 2
1626 1 11.965733695118018 2.7774496621416174 6.020822640352826 0 0 4
2045 1 11.92877390444276 4.784202297237538 7.523909350195271 2 0 -1
307 1 13.595560389785483 3.6348197053209774 7.244003868901934 1 2 1
1885 1 13.958610480736596 2.099145506193074 8.676884605823208 -5 6 -2
1004 1 9.066706639281707 4.407252417029017 6.4599202657410215 -3 -2 2
1764 1 13.638486983174095 4.805167586702257 9.187103125020746 -2 1 0
888 1 24.82623118858127 6.581976237397833 13.801542148874184 -2 1 0
710 1 11.381817013309607 5.691823655663335 13.972022276204742 1 1 3
72 1 26.69201086822287 11.09031427797662 10.15958883820202 -1 1 1
534 1 14.642075589772276 4.595284060893279 5.181792147537601 -1 -2 -2
1601 1 16.627978809322915 3.4022951660023004 4.745855544493631 -1 1 -1
443 1 17.091535782202033 2.066169283843979 6.497495059040911 0 -3 1
953 1 16.022963831265074 4.015091485294848 6.7647660429773335 1 0 -1
357 1 14.963451780574394 2.295045118240663 5.948823041642292 0 0 0
1402 1 15.835681789620038 2.602982375122709 8.18023821176157 1 7 1
74 1 17.89618259664476 5.023231815842268 7.829247439502615 2 2 2
1379 1 17.285802777961447 3.5442744573387044 9.58138160631999 2 2 -1
1198 1 18.385927355797275 3.4773687103103685 5.819825600414926 -4 0 3
1225 1 19.308001675674088 1.4058249474847324 6.413367189779531 1 1 1
229 1 22.847875154717055 2.169118465252944 7.547713022092542 -3 2 1
1840 1 20.7932730387254 3.1055572155980053 6.730318479292575 -1 -3 -1
1668 1 19.664602030644136 4.145708115670443 9.21032835998821 1 -1 2
939 1 20.464106144394826 2.1188005443670668 8.436605522722731 2 0 2
1581 1 18.38440466669992 2.966330285910624 7.895104119647891 0 2 -2
1647 1 21.720457768610217 4.112849405642063 8.776817202639904 1 0 4
105 1 22.50830448519655 4.23131256159689 6.529100773942672 -4 -2 -1
1732 1 22.92117261717203 2.599616702617582 9.631988970132326 0 5 0
767 1 25.847071947796312 13.596985599715794 10.740952829542247 -1 -4 -4
407 1 24.34107977990246 1.8053440999682984 4.1738273599817886 -1 -2 -1
1449 1 23.867631310919425 4.090918501238223 7.964879980817778 -1 0 -2
1194 1 24.579255209199808 2.8900166774758884 6.3635584276724355 2 -1 -3
1399 1 24.780539578241047 1.9622995576495534 8.629321804727057 1 0 -1
197 1 26.4124325017859 2.99212599525835 7.506316088042455 0 1 -1
616 1 25.591613614041673 4.963517186662331 6.948981920058047 -3 0 4
133 1 26.753553104125963 2.425137609576375 9.768799964782389 -4 2 -3
731 1 1.429090440196524 4.986877048673557 7.024385942791112 -2 -1 1
486 1 26.528490676813828 4.7234881512371665 9.072231457316985 0 1 5
1447 1 24.926429800619136 3.8282973228231683 10.1386348429064 -2 1 2
1570 1 4.751063933140104 5.52263739565148 6.610700782083872 0 0 1
799 1 3.1492057372652558 9.105824069934814 5.922246622097015 4 1 -3
1095 1 2.6660046311115826 6.904782846995929 7.11518373279788 3 0 -2
1324 1 4.567807514723357 7.069814065147647 8.88420496283057 -1 1 1
909 1 1.586721582544112 9.662873352576852 9.45960742209869 2 -2 0
931 1 2.3371787048733634 7.408791868207012 9.139305373269924 1 1 -4
89 1 2.9762187229935546 9.047022005943235 7.852738061067585 3 1 0
540 1 1.0511621126355755 8.584376760101977 7.050651922728568 1 -3 2
1256 1 5.240241531402603 9.115809839067659 8.83400172098951 -1 -1 2
1134 1 4.603729132388564 7.669238156674806 6.999659551304215 1 1 2
216 1 6.980745057632327 8.443137588948842 7.289268775953445 0 -3 -1
856 1 6.033022167207359 7.243877195875386 5.448916202341616 -2 1 1
1604 1 8.514505196014458 6.511939872861736 6.293163298506096 2 4 -2
1024 1 6.602100923865332 6.338996681952402 7.399030492195045 5 -3 0
1928 1 8.282674865732911 5.32320949003887 8.664712542431346 -3 -2 1
311 1 9.092810696545433 7.675901350040576 8.548959022867734 -1 2 -2
108 1 9.74357857877789 9.695209114025854 9.888973352617642 -3 -2 -2
1925 1 9.940657430166326 8.40880650054775 6.602209024820029 1 -2 2
1174 1 10.44670842950752 6.036246292067774 5.662910719269382 1 0 -2
851 1 13.560356698129414 5.901209854534666 7.0314948412635205 1 0 -2
741 1 12.46813772122118 6.678043821634016 8.944021535964605 1 -2 0
1646 1 11.69260524624959 9.435210094822802 6.647109861077624 2 0 -1
1577 1 10.313703719274862 5.983631123016382 8.035500852330314 2 1 2
1438 1 11.969914037849074 7.117000343839986 6.915010142057169 -3 -3 -1
1034 1 11.191097944394437 8.641537693081947 8.658004598275822 1 0 -1
1303 1 13.158725123457701 8.671236065017023 9.003058335888202 -1 -2 -1
2006 1 13.710380933298483 8.335137076318642 6.730435292537282 0 2 4
1845 1 14.870567211251116 6.796391100364154 8.524571282590351 1 -1 2
166 1 16.270097055372425 6.1708620209215 6.853392624421087 -1 1 2
319 1 18.06445016483053 5.370946799330103 5.552324333772739 0 -1 -2
1585 1 18.45625328672972 7.147623869689092 6.9790028228887575 4 1 0
1814 1 16.060256539559653 8.106067839246094 6.633091728369337 1 1 1
1865 1 16.038426339957038 5.076108362632096 8.854002647391003 2 -2 1
149 1 16.870925039595512 8.681100330754004 8.308970877775462 -1 1 -1
1272 1 17.37934472089612 6.752118607600515 8.900114148951653 -1 -2 -1
1660 1 20.15602659603967 5.263456426493747 7.201975875704354 -1 2 -1
1911 1 19.188726459220835 8.720430484922623 8.868334746758432 2 2 1
1099 1 19.699445682435357 6.480522480966524 8.900777661384069 -1 0 -1
400 1 21.812125002468587 6.529487995647915 6.092414921476429 0 0 2
805 1 22.401191178134898 6.043327867330271 7.906760763847797 1 -1 2
754 1 19.325826260659625 8.939296750918338 5.879777682121244 2 0 3
202 1 20.691524412737113 7.718738689558386 7.464789464229925 -2 -1 -1
1239 1 21.71438317401752 8.647071906505552 6.095103591283019 1 1 2
1561 1 25.63361791401486 10.363896821551682 5.852383383548837 1 0 -3
1945 1 26.071567094944655 7.074184412066418 6.291710282576572 2 2 3
1952 1 23.966411781681934 7.757479030606148 5.934933000838199 -2 0 0
2008 1 26.941860073072426 6.600040430633082 8.035739563374268 -1 1 2
95 1 23.895644592067192 5.840336614134514 6.3633449085296085 -2 -3 0
707 1 24.515614717832864 6.3479665394839 8.349354212265705 -3 0 0
217 1 25.238545237915 8.35255543592806 7.6465281680005095 0 1 1
1345 1 22.967225253764358 8.03970619423885 7.9529133449064915 0 0 0
1362 1 24.81756225258389 9.75779131172119 9.294749398330643 1 2 -1
1167 1 3.495354656233276 13.647399999757432 9.037278627847506 0 3 -3
1457 1 2.5904969581861663 13.024432125030428 6.826665746363495 0 1 1
332 1 2.096854963307148 11.916799097597345 8.97178522155123 -3 1 -6
1790 1 1.7922168548678195 11.031121298607333 6.993565165220579 3 0 3
152 1 3.942933036418297 11.022479119215646 7.661159950301212 3 4 -2
1328 1 4.79099466130814 13.34809581038578 7.22288310349519 2 1 -1
1881 1 3.5760109061862706 11.138798789519269 10.085963371451754 1 3 2
1610 1 12.401490076132912 1.0348484714204988 9.850985388166869 -2 -1 -1
563 1 9.010605690076666 11.867451156321144 7.323840830453601 1 2 1
804 1 10.170369174454468 13.388253550623697 5.686474233709109 1 2 1
1904 1 6.83570163369532 10.821489082480126 7.823321621773155 0 2 1
957 1 7.402363477991717 9.688698061817954 9.29857948524822 -1 1 -2
367 1 9.480550955829752 10.366097383387837 5.661526509196404 2 1 0
877 1 6.932817678814047 12.984994525371834 7.2093985463747945 1 2 3
56 1 8.833601626341059 9.847122535525767 7.513882840683809 1 1 1
907 1 8.235455951971899 13.72250267554456 8.724557147124475 -2 -2 5
772 1 10.278537367514677 13.596409039644309 7.804076445066588 3 0 0
412 1 20.255132826367003 10.251542010853608 13.195210308404747 -3 1 -1
528 1 7.553026334704024 12.005285747805159 9.59698315673397 1 1 -2
1509 1 17.49698646240539 13.870703752225806 3.2092208326950025 -3 0 -1
301 1 13.048797845741374 10.667142184123698 8.114270100706548 1 1 -1
1860 1 10.784096706725876 11.091942807047026 8.096823769002881 1 -1 1
1519 1 11.133353321605776 11.579953602972175 5.9750866735594474 -1 -5 0
783 1 9.688466637079019 11.972106466552097 9.589053048519357 0 -3 1
355 1 12.29705765845345 12.677538684281712 7.406208063420124 0 -2 -1
769 1 22.62925071568263 9.983633819211136 13.37848952473571 -3 1 0
1214 1 13.316651269346513 10.876192520899794 6.099483464714684 -3 0 0
658 1 14.254755385239585 12.390218295106768 7.98060218969168 -2 -2 1
1223 1 14.970611371522061 9.835062074850894 7.676319930840405 -1 -1 0
1372 1 15.311448525247995 8.808413343654138 9.574867091427036 1 2 0
1455 1 16.0528071954067 13.700711892792762 9.115722139992977 2 -2 -1
557 1 18.218777117053477 13.193122550181611 7.684457095042943 0 -2 4
1772 1 17.617779842618855 9.804453330489578 6.7776465030238136 -1 1 2
1819 1 16.395220573793345 11.778208635775698 7.85078883859023 1 1 2
1705 1 15.600201894882797 11.124405674909923 9.670532540327189 0 1 0
1356 1 18.090939240787034 10.75360121659121 8.508672588838817 -2 -1 0
88 1 22.35051271219091 7.108507797670446 1.3993872329768915 1 1 -1
1094 1 19.161430791064944 11.643496229689447 6.497859606657121 -2 -1 0
1674 1 18.191710554542944 10.664505735104093 4.604416622533767 0 4 0
1199 1 20.117492194595574 10.096057934816724 7.452572087487925 0 1 -3
303 1 20.779903526700497 12.175236843476496 7.705730749511402 0 1 3
68 1 19.56384126554105 12.294753106812543 9.310719335914673 2 2 1
310 1 22.143284656067596 10.098915851418452 7.840099800550212 -4 0 -2
81 1 22.381482348590417 11.39250769094725 6.22701055015125 -2 0 1
1437 1 20.950102506062983 10.810876101233376 9.418016725281099 0 1 3
721 1 26.321290243416914 5.892977822568207 1.7359862287497634 -3 0 1
941 1 24.02882183472894 10.175657975487646 7.225550412757983 -2 1 1
1351 1 26.515753522989364 12.156887718120744 6.53277155301916 -1 1 -1
1056 1 22.59152531989632 13.328975965069429 7.076359446145038 1 2 2
1155 1 26.39599650683683 10.511917105921494 8.064477541160556 -3 2 2
268 1 25.68008080811017 12.340862681413148 8.570822811404541 -2 1 -1
344 1 27.249287361802068 13.537729012266524 8.726729997623867 -1 -1 1
968 1 24.42974701984914 12.282961992435315 6.695412375679282 1 2 -1
1452 1 15.6502492531467 13.910174399388131 6.9513729562382975 -2 -2 0
492 1 23.10251114288345 11.802633248450997 8.63161306423018 -3 -3 3
1331 1 1.7793527520031716 7.651744128840718 1.299064268339457 -1 1 -2
1059 1 2.782814549435696 1.7685287725775733 9.268569701972837 5 1 0
1777 1 4.227157817334566 1.6025663820994884 11.095931943407654 0 2 -1
891 1 3.4599075280933733 1.5378271873155485 13.888676018771323 4 1 1
1657 1 2.344675755675609 3.2483494482126267 11.164355116325694 2 0 -1
408 1 3.693447889435209 3.1489071520804788 12.694260411057893 1 -3 3
650 1 1.6805315022473928 3.384242227637776 13.244018358235394 0 2 5
375 1 5.871153537138767 3.8082763875046806 12.99760028122929 1 -2 -3
1436 1 16.164042063697117 10.057062422851455 13.727295862840068 3 1 -2
26 1 25.21911545554933 13.825324593057 12.890597201191067 3 -1 4
386 1 19.091323652743565 7.393071951232372 1.4543040850495617 -4 2 -1
118 1 9.489321081983478 5.0976760154240015 10.287647864560254 0 -3 -3
589 1 7.758737238086366 10.383987610007248 2.0114876819276413 1 -2 -1
1006 1 20.231685855684706 11.69383903791604 11.531701099124106 2 1 2
185 1 7.107565228037692 2.541368793219578 11.648117787242663 2 0 1
1921 1 7.706372035678016 5.20624787097344 12.268541432413604 -4 -1 3
1446 1 8.630552606488385 3.1975397936208405 9.93370440150407 0 3 -2
251 1 5.521774208051274 3.326219718586692 10.647497022499719 2 0 1
1634 1 9.67173805849673 3.533057906339525 11.980638369399191 2 -3 -1
1067 1 9.471494355687957 5.250823507650639 13.201873260086211 -1 0 0
1320 1 10.767389209841944 2.7245251980876963 10.374770039188146 0 1 3
1226 1 13.059858766354917 3.2743070551298294 10.582489748537618 1 0 0
1627 1 10.622848293353362 2.3580344769326023 13.509380771950498 0 -2 3
636 1 11.643765505327558 4.739548218245041 10.035773856101414 -1 0 -1
232 1 12.094027506760353 1.793770817737026 11.767431483745522 0 1 -2
1746 1 14.285616224289459 1.0752008364248407 10.981046604933526 0 0 2
1996 1 14.213302903469923 4.044451244777413 12.482399064168806 -3 2 3
25 1 11.923643238064232 3.985604393208657 12.428216475131059 1 2 -4
431 1 13.57547778003764 2.147778289780388 13.237727258936118 -1 1 1
925 1 14.962379633607455 3.0052382051004667 10.416002729280152 1 3 -3
53 1 22.28634272147913 11.528569776296838 11.737607379777641 1 3 -3
734 1 17.772076895477635 2.731926754293372 13.104820087662151 -2 0 3
137 1 16.53228734966031 4.065247382972302 11.618499952745097 -3 -2 2
1476 1 16.783439559216824 2.0634741214804198 11.18142935230717 -3 2 1
354 1 15.923764464557104 1.5100009662996055 12.8631997410438 -1 0 -3
709 1 18.239405549604882 4.839465348507167 12.71550349582671 -3 -3 -1
374 1 23.84760139545878 13.763944947859384 9.08618629268732 0 -1 0
380 1 15.004451134387619 5.315587032081829 11.112191838198571 -1 1 4
1311 1 20.322588313448385 1.260338574601065 10.491718749270897 0 1 3
1173 1 22.80470985413464 3.0228788368580104 13.215438024378347 0 5 -1
2043 1 18.908575954048487 3.1163699421126014 11.2052708027502 3 -1 0
1267 1 20.0710104403298 1.8747774704363165 12.914606228160991 2 1 0
1172 1 21.177198683434476 3.2812918720363204 10.63010654581012 2 -1 1
1939 1 22.161323158138558 1.2091379820855748 11.388346049457187 -2 -1 1
1563 1 22.740881715633098 4.259712512049154 11.669824896967159 -1 -4 -1
867 1 20.711178658081277 3.9116709467455673 12.781404323246324 -3 -1 1
1156 1 24.618853619445094 11.62721762841347 10.604438382431411 -1 -1 -2
884 1 22.881701345638714 10.063715888949304 9.877981242199798 2 -4 0
320 1 23.38096066868042 5.350383443344444 13.8158836652807 -1 0 1
383 1 26.350574555935196 2.1841027743318806 12.209448824189007 -1 -1 0
697 1 24.324284003279935 2.2958701369559025 11.369353128244038 -1 -3 1
1251 1 8.945451681245792 1.5307344301869503 12.307589487090617 2 0 -3
23 1 26.679476432872317 4.105624325314077 11.35480878484144 2 0 1
732 1 25.113231567723645 2.408197064148739 13.822396867557325 -2 -1 0
2023 1 18.39560371118118 1.0429967572129881 12.03868892471932 -1 -1 -5
39 1 25.058742634442655 4.2293534951083425 12.513318363186919 -3 0 -3
932 1 23.54044302272302 5.348216267507156 9.851028622344773 -3 -2 -2
1502 1 3.753671010870727 7.024223853724378 10.706140082929863 0 1 -2
77 1 4.965839906689014 7.219412382232983 13.119354154497557 0 1 0
991 1 2.841085895078329 7.944546305785665 12.51692851252347 -1 1 5
464 1 1.9956172072439808 5.513435562171353 10.249046420138276 0 -2 0
1650 1 3.866108489797711 4.476296290766809 10.325888302116937 -1 2 2
738 1 4.489713212236236 5.364275133057756 12.157680276592579 2 -2 1
396 1 1.2534333671313203 7.668926453785072 10.997802255432598 -1 -3 0
41 1 4.203916705084377 9.889237790107503 12.345545748192558 -5 -1 1
365 1 3.662239445031588 9.149691194666344 10.467547402268407 1 -2 2
389 1 26.95471176425768 10.30030665892348 13.41771763479366 0 1 -1
788 1 2.3901427639671624 5.653667378944637 12.421495870574915 0 -2 -2
1855 1 8.491835201335668 9.76407371655311 13.561478272963951 3 3 1
2037 1 7.068890249358935 7.440543378399175 9.496583376803104 1 1 1
1728 1 5.767643831859063 10.674876241831607 10.6247321993563 0 1 0
1891 1 6.018254614605808 6.407306790186502 11.216957614429932 1 1 1
1667 1 7.124442683889019 7.614780652603486 12.736679787129146 1 3 0
919 1 8.419035862471322 6.813469295139565 11.061859185592605 6 -1 -1
1469 1 7.925450274669493 8.961022267901745 11.277405248606716 1 -2 -2
282 1 5.69584228702448 8.422811854445396 10.862146201145398 0 -1 -2
481 1 8.878448335315966 7.2078096355394035 13.684139719933604 -1 0 -2
1722 1 6.387603034795681 9.40792035856251 12.724016660681983 2 0 0
1278 1 11.053521995461473 6.047159887661384 11.991209427287904 0 -1 2
628 1 10.352527742122394 6.922271712739847 10.1233036082779 -3 0 -1
10 1 12.574195369976078 7.852597136477515 12.598697705634585 2 -4 1
711 1 3.869062010145649 11.120315929178672 1.6800514976649272 -1 -1 1
1745 1 13.147101229032835 5.7491052827658375 11.289486151636465 0 0 1
1077 1 13.912585136642111 7.883503891969653 10.97541895817103 3 1 -2
864 1 9.91250250611663 8.195832802248482 12.00195042697128 3 2 2
359 1 13.405621144144714 5.731637401270712 13.3283003403067 -2 3 0
936 1 11.82895845009834 8.16972122210147 10.71089207784978 0 -2 4
1240 1 4.829592597445411 13.672932861298877 1.696140806969213 1 -1 0
671 1 21.764495850504442 11.006729007460505 1.484592812852864 1 -1 4
641 1 15.670648684553953 5.41999270816999 13.507818955099824 -1 2 2
1623 1 17.83898507262519 5.228100219235387 10.55910392532518 -3 -3 1
880 1 14.736160981471299 7.30196719711074 12.934772393045783 -1 -2 2
34 1 16.96220035210301 6.665718969214387 12.34299096404963 -1 -2 -2