LAMMPS data file via write_data, version 29 Oct 2020, timestep = 300000

2048 atoms
1 atom types

0.9530398880502702 27.398960111946735 xlo xhi
0.9530398880502702 27.398960111946735 ylo yhi
0.9530398880502702 27.398960111946735 zlo zhi

Masses

1 58.933

Atoms # atomic

1318 1 3.378789846392499 1.8438715965591042 3.2089043585596673 2 4 0
349 1 4.12777471921318 3.4910026239751306 1.6891603365729138 0 0 4
1013 1 2.9519484855069096 4.322470491919251 3.53556291293676 2 0 0
1535 1 5.057051210916849 4.609067586518991 3.5895956692152597 4 0 -1
571 1 1.5062959448716833 2.8471185324450583 2.294929775234562 1 -2 2
596 1 1.895212416314914 2.772889114970752 4.678055609653819 0 4 3
906 1 3.7434949292991293 2.8279942711282784 5.082640281079867 3 0 0
1030 1 5.452392033283786 2.0903067520520215 3.936783278415682 -2 0 -1
803 1 6.759319787726354 3.8554324587328597 4.864269370172169 1 0 3
154 1 7.592999178070881 1.7567296477168322 4.393967174238928 -1 1 3
273 1 7.595928943609821 3.086554787671763 2.8601027055779893 0 2 2
981 1 9.497881279405153 2.9769363888990776 4.6687030907111815 1 1 0
1661 1 8.037036751843662 2.327708917658918 0.9741795554047918 -3 2 0
1524 1 9.176856679869578 4.8971055749554075 3.7091370912040644 -2 -2 0
1151 1 6.275233426703564 3.458781304078766 1.3460631653654158 2 4 -1
504 1 9.564569046798503 3.6490418385047882 1.825099438727396 2 2 -2
2033 1 7.147579649594962 5.253744246094274 2.9993342304816375 -1 1 -5
1839 1 10.573106113297118 1.8687469554691147 2.59697089709689 -1 -2 1
1333 1 11.480526424852831 3.0620885017562998 4.308952383425909 4 0 1
580 1 13.301896180424178 3.0540517988984606 2.2373503002023707 0 -1 2
1386 1 12.342443499303128 5.086939476743095 4.591719251380988 2 1 -1
1354 1 13.456070554551422 2.6940933025915825 4.619303599998781 -3 -1 4
387 1 11.81072709723047 4.27994328321584 2.777623089642221 -2 -3 -2
1012 1 12.972285111114555 1.0780597680099158 1.2038386973185489 0 4 -3
186 1 14.484593785523517 4.355104295171648 3.8681532997701424 0 4 2
245 1 18.40291514525015 2.026334557694419 3.3650924838174037 1 1 0
545 1 17.39101154259417 3.1221173043676558 4.881145593505558 2 1 -2
1744 1 15.044187478910617 2.1324914634400027 1.407526764223715 1 -2 -2
988 1 18.279416595822855 3.882102085684496 2.136118769923784 0 2 3
500 1 16.13379407025762 3.201331053315601 2.954230131291586 1 0 -2
1381 1 15.554974368035202 2.116778782633671 4.797574313104262 -1 2 -1
393 1 14.825084351881626 4.296834289915283 1.100922386672427 -1 -1 1
1508 1 17.345634965056654 1.6115065433460773 1.0327908917612874 1 -1 2
1913 1 21.582136039803395 4.185864300468326 3.6837207260687466 0 0 1
1515 1 22.697990655599757 1.8171556422140878 3.4791296474791515 2 3 -1
1486 1 19.237751602802025 0.9791382777866494 5.10830781301337 2 -2 0
1256 1 20.633873550623225 1.7830100419397965 3.2313686840163847 -2 -1 2
1601 1 21.842595878654965 3.0116142898769422 1.9182028540092975 -1 1 0
1483 1 19.448620666964988 3.504767031124685 4.148317362716412 3 1 0
1927 1 22.47573502425416 4.953568518721833 1.1161703046420555 -1 3 -1
1598 1 20.317194027187117 4.555301707882501 1.8588134135002734 0 0 3
1953 1 18.69073856775035 5.135731581009649 5.121270492114788 -1 0 0
1793 1 19.558556389313992 2.625508424573003 1.1982959749421855 1 -1 0
780 1 23.650289026394827 3.8967515493551734 3.965138325673197 3 -2 -1
673 1 24.676145920124696 1.8039604187521971 4.135470116382304 -2 0 0
940 1 26.11263072912527 1.7782267407203445 1.8879350242214152 3 4 1
1786 1 26.311619233168 3.4408568267970887 3.162823784519631 -1 1 4
1292 1 24.20582504189175 3.0884329800948387 2.041778894031826 -4 3 1
1648 1 27.152468040105745 4.839697006430508 4.3544319796180435 0 1 2
1367 1 25.447807974488388 3.3471569385918674 5.216551002487313 3 -1 1
578 1 27.196651498918424 1.2731089013592107 3.6541714824692835 -3 -1 3
1145 1 26.263033109244233 4.233805982530104 0.9668424668381022 -3 2 3
1600 1 3.783514404692612 5.544798567519269 1.432032195583175 1 0 0
271 1 1.7476108443481508 8.482241051442521 3.4258598023310842 2 1 2
371 1 5.356982547280318 7.165872318814838 2.270920332705578 0 -2 0
1359 1 1.998853999952369 5.970886633514062 2.855007949231843 2 1 0
452 1 3.7998789083856566 6.676457232892704 3.468431766933748 0 -3 0
711 1 4.100121522092218 8.564509958497759 4.08556490710049 -1 -1 2
1628 1 3.355152785529635 8.147604403128263 1.7984956823629645 0 3 -1
1457 1 5.317407274718523 9.392283202771573 1.867245496225308 1 1 1
499 1 2.4983901973648472 6.368654869044694 4.98016615548107 1 0 3
1984 1 1.625837946050956 8.189314421009634 5.355864086603886 3 -1 0
304 1 5.954642673688557 5.4155119373824245 1.3263252948214694 2 2 2
1938 1 6.154160812108688 6.577434981280232 4.303306041835285 -1 -1 -2
1538 1 7.006884964352686 8.04459429688454 2.8999621277670475 0 -4 0
1575 1 8.738236829670406 6.0603946586942214 1.5504956608858675 0 2 0
1741 1 8.606867568794094 6.93098833852484 3.9815591190978856 -1 3 -1
1617 1 9.013979045710016 8.282551448235202 2.343248609743478 -2 -2 0
80 1 13.432028467531087 5.526009180561529 2.328523556834727 -2 -1 -2
1696 1 12.171268488211942 7.212351429364347 3.404102527267307 2 0 3
1653 1 10.612623636178443 6.297700135103729 2.7196232326901413 2 1 0
1775 1 10.310915411071631 8.450251801149417 4.493235929876641 0 0 1
1261 1 12.33027196280537 9.026093267443514 4.749020035400204 2 0 -1
1516 1 11.5519646773889 8.661970903076838 1.9681391359828537 0 0 -3
1976 1 14.151668514775103 6.7393891489745235 4.086271166219495 0 1 2
339 1 13.781954009096657 7.988585658429968 2.165459987303631 -1 0 -4
79 1 10.401486368041967 6.059114838598612 4.773727338405427 0 2 -2
1337 1 16.08621341274887 5.453951124157773 2.5407959897583057 -1 2 0
450 1 15.99780006235382 5.718636528942509 4.776321614941811 1 1 5
960 1 16.078864661927575 7.523569842421608 2.0582220186194795 -1 2 3
943 1 16.358519176994893 7.561537623827663 4.29980240569582 -1 0 3
1552 1 16.358910340627364 9.631891529888447 2.8605766441658966 -1 2 0
652 1 17.950543374703127 5.578379756886444 3.493399265112129 -2 0 -1
1914 1 15.982687414524156 9.623718955518088 5.171697298180871 2 1 0
126 1 18.50988692097685 7.441290956793457 5.038704253359009 -2 0 -1
179 1 18.1438855805981 7.718414550938817 2.9309734203774154 0 0 1
1050 1 14.464042930765437 9.004594087148618 3.67894030731143 4 0 1
966 1 17.984080333593646 9.3555840982592 4.515774185102301 0 1 1
1217 1 14.50248033997784 6.548900414507724 1.0415029296173197 0 1 -2
1643 1 18.731312740644178 6.112502531238083 1.545447582495591 0 1 -2
876 1 20.219836447041555 6.309435748945596 3.6371974782934426 1 1 2
1571 1 20.032988141725493 8.604780423948075 4.462086739742286 0 1 2
1821 1 22.456639005082618 5.815344241510489 3.0750348011797457 -2 -3 2
1144 1 21.779150403862438 7.992785748766049 3.1303808098991937 1 1 0
1567 1 20.148728658044643 8.570530304266448 2.14589982999298 1 -1 0
1332 1 20.83091257421832 6.599654545951408 1.5325412951828166 0 0 1
1733 1 21.93499201810861 7.2910798321106665 5.011261770400321 0 0 0
695 1 21.976293026341843 9.343585490379391 4.954747693843629 -3 1 4
1943 1 25.241748080676317 5.39828623352574 4.3637126960630965 0 -2 2
10 1 27.2000360165696 7.797442495083274 1.9613070592579969 1 -2 2
2034 1 26.206514567728014 6.178737106587751 1.8077493940357887 -4 2 1
109 1 23.91954512290648 7.294123387816599 3.2712226533190196 -1 -1 1
161 1 26.65285246840324 6.942416748141812 3.9203618028068097 -1 -3 -1
99 1 23.824215976571544 9.677814533489565 3.754604616139199 -1 0 -1
620 1 24.265991844018142 5.381380860933221 2.34688206346238 -1 1 1
686 1 23.398209778386367 5.855891728183522 5.301851513272173 -4 1 -2
332 1 25.05432350280153 7.7479853440079856 5.044974203408841 -4 1 -5
562 1 25.290745507083837 8.93180994623409 2.1460008492075335 1 3 0
441 1 23.20811140262417 8.673489447150725 1.7389017261989717 0 -2 0
1286 1 2.748053363806286 10.291954291918337 1.3932036571652904 -4 0 0
875 1 4.075951881203029 10.466700327699735 3.2826264899023974 1 0 1
642 1 4.348747137558798 13.284786935564128 2.605549760030139 0 0 1
2044 1 2.1011791181190214 10.48589601199432 4.163983546092213 0 3 -1
118 1 2.4075649945110147 12.179214009742275 2.2090042203837217 0 -3 -2
547 1 4.551049091285973 12.190825955557395 4.575380467978173 -2 2 -1
1736 1 2.3816016500546784 12.779069945561996 4.284327397970151 1 1 3
513 1 4.415744276308828 11.630134311970552 1.1896833730377487 1 -1 1
1678 1 6.441129702802032 9.8078365551262 3.9516504475300533 0 3 0
1807 1 7.609735870825527 9.99188023240872 1.9174782219343507 1 3 -1
537 1 8.458372988131424 9.789712346807132 4.093973760241816 1 -4 -1
926 1 5.834755182795398 11.49884814141758 2.6510748659935928 2 -2 5
1630 1 6.489819384420785 13.78281279406357 3.468034384898534 0 -2 -1
755 1 9.67161511538365 12.04154040700869 3.69219390911784 1 -1 -2
575 1 8.401030828279291 13.933634995895524 3.726764400930558 -1 -1 1
1319 1 7.803895167572636 12.11059403406981 2.4008197747921405 0 2 -1
22 1 6.9063412360510545 11.632505024577242 4.488377197404499 2 0 -1
2028 1 9.532117606839506 10.378234318703988 1.828535144625742 0 1 1
366 1 5.507891177451445 14.063886258254097 5.118099042297943 0 2 0
746 1 6.186067182154075 13.43599639030587 1.1583303358548196 1 1 -2
1180 1 10.870302191882386 10.362192408009413 3.9012922626762347 2 -1 0
565 1 13.178079902560187 10.941693220205625 4.578898414905597 1 -1 1
1414 1 10.437105336637837 14.095182975167146 3.534179648876623 -1 2 0
56 1 11.951958619473862 12.285325790197097 3.6678458621778725 1 0 2
1579 1 12.922719616478522 10.264974820603767 2.645160019221769 0 -2 -2
858 1 13.593764777231225 12.277806608901662 2.5123159679568063 -1 3 2
616 1 9.965332206868066 12.90337400835745 1.8285808922837776 -4 0 4
1489 1 13.900611764156036 12.91517488467544 4.854401831619171 1 2 1
294 1 11.475817319346536 11.235880211090153 1.470386925135436 -2 -2 0
1412 1 11.83371884627946 13.501625445611541 1.6977405691590235 -3 2 -1
1986 1 15.583847441473411 11.415143275712092 4.1192155954597 -1 0 0
662 1 15.519450413971237 11.380075400736384 1.895625558848903 1 -1 3
1935 1 17.371808857139733 11.447185346342582 5.008494631064401 -3 2 -1
590 1 17.595708308025092 11.455635743333675 2.61865045099011 -3 -1 2
1164 1 17.249540944324245 13.640254966589712 3.9602684341846097 -4 0 3
100 1 16.851416515743658 13.877827146662863 1.7205745782709183 -1 0 0
1273 1 15.177952865702371 13.870389441747541 3.2486283136086964 -2 3 1
873 1 18.05128652861471 9.797352306861118 1.614392580437314 2 -5 2
664 1 22.91124737625093 10.746060590983866 1.108268966867933 1 1 3
922 1 21.62509137761312 10.310417806750817 2.917604471922541 0 0 1
762 1 20.743341124919553 11.22529633770526 4.635277255029781 1 0 -2
321 1 20.654243220491107 12.584320438009312 2.58516429674257 -2 0 0
1979 1 19.103449877953842 12.322981794120945 4.676735666148801 0 3 1
714 1 19.250204478265847 10.474868293581396 3.086133831923071 1 -2 2
93 1 21.27475721429992 13.152218648652271 4.680930334272343 4 -2 -3
1449 1 18.763026471307736 13.547674898713906 2.6254950554476624 0 0 -2
86 1 22.47159173057923 13.974885865719026 2.595340374410151 1 0 -2
1746 1 19.147485543012138 11.918920645993383 1.1878959049355968 -1 -1 1
889 1 24.480697785859224 13.743632804646552 2.874887558393284 -1 -1 0
425 1 26.250795705647306 12.867687841566967 1.6202165430746462 -2 -3 -1
1992 1 23.017897990782405 12.007432540490615 3.184890626255888 1 1 2
1107 1 27.01315969292784 10.275276560083606 2.430771832982723 2 1 -1
1034 1 25.831552347284415 9.99798224909831 4.431785727610024 0 -1 -2
1347 1 27.006480474818584 11.895466543332535 3.6359708584604875 -6 2 -2
1595 1 25.903052432523953 13.761579932676021 4.291518184028893 -1 2 1
523 1 24.8053628672725 11.88289272347948 4.42634102361243 -3 1 -2
1426 1 24.727928457216766 10.956269425672664 2.5394876725877182 0 1 -2
128 1 23.176614473199056 13.85480157047984 4.614640539129378 0 1 0
787 1 24.001183606904874 12.750388517852421 0.9591293378652495 3 2 4
902 1 2.1425359745346997 1.8245307876157604 6.546978182001169 3 -2 2
2042 1 2.6413839053333708 4.492137694885621 6.215298235046947 1 1 2
314 1 4.805091176386274 4.984104839402721 5.610511399790868 1 1 -1
1276 1 4.432782741891431 5.208568887668877 7.680465992593852 -2 0 1
607 1 3.427715697194262 4.771046876380225 9.1766325986087 -2 1 0
984 1 4.165310770149384 2.8539005772369572 7.253818326702052 0 0 -1
527 1 2.171922573497702 3.3045997896560713 8.123438830645433 1 -1 2
63 1 3.3280787515647576 2.476674250430345 9.682575959170784 2 -4 0
1249 1 5.20381868226129 3.456715893143069 9.356747595404208 0 2 3
1002 1 8.31860992383347 3.4175530515185604 6.456200882899949 0 -2 1
358 1 5.928174814251371 1.9852140633240336 6.0800236549675 1 -1 -1
1447 1 6.375332232144451 3.7137191680224624 7.339794222918634 -1 1 2
1340 1 8.199535119386688 2.3744078739004357 8.12721510734412 4 3 2
2000 1 7.404158276873602 3.8659003543908037 9.245522173720602 3 -1 1
1827 1 6.470950451720678 1.2044323412665237 8.025161830612493 -1 2 0
1101 1 8.77779071941578 4.965466273314039 7.566956769786307 2 -4 -3
1297 1 9.182320964485474 5.280022081099443 9.540710432586256 -1 -1 -1
1142 1 12.348701276755452 3.6706365076066403 6.598122872290449 3 -1 0
623 1 11.827544687680826 1.7598552613776093 5.842705070937167 -3 2 -2
1869 1 10.294442977737031 4.511103939700301 5.809318512544411 0 1 -1
679 1 9.969276193881349 2.172510831550569 6.863100113787515 -2 4 1
1700 1 12.628136496283462 3.8155954253555757 9.380879375453462 -2 6 -2
176 1 12.051512959230347 1.9575930106026274 7.9524792826111215 0 2 -1
60 1 10.302857603516069 1.5403708779443315 9.145197481183985 -1 -3 1
266 1 10.898764499035185 4.0949438271615435 8.220781340785518 -1 1 1
1780 1 13.939647619361931 3.9829151315835967 7.630051047505186 1 2 2
1396 1 18.27928994729659 0.989845361982546 7.236725939635192 -1 3 1
232 1 15.353530778091644 4.073180741806917 5.704052074371627 -1 -1 -2
74 1 14.376041773067069 2.1937034697087636 6.377150765432647 2 1 2
1841 1 16.305849753564573 2.24893782836629 6.901316954322908 1 2 1
784 1 15.955132477595077 3.3557339197037477 8.615454144963845 -2 -2 2
430 1 17.314439268096837 4.3631106134229505 6.842544304372861 1 1 -3
1982 1 14.270171609255934 1.9344198517923974 8.993625527784687 1 0 1
208 1 17.93813408094216 4.726656730160916 8.990765393185553 -1 -1 0
290 1 18.25232549903556 2.8495653079518406 8.35086415740058 -1 1 0
1224 1 14.353275053411256 4.973077481565409 9.608701804945605 2 3 -1
1154 1 16.25004881646136 1.1204746365556701 8.702102041300716 -2 0 2
1978 1 20.807624717198266 2.594285802666894 5.721950654294629 0 1 -2
1936 1 22.495044900749843 1.4901223409759146 7.689844360178688 0 0 1
1026 1 19.037303181124262 2.8609484730386585 6.406377232132399 -2 -2 0
1662 1 20.186112156686953 3.4455316405946554 9.384518351181024 -1 1 1
1681 1 19.645138752046787 5.004302105710342 7.716975164564027 -3 2 4
1618 1 19.94353160738718 1.2986154418146496 9.208489232381089 -2 0 -3
37 1 21.648039375189835 4.977260654829761 9.585966276327616 0 2 3
1505 1 21.175437046561047 3.2688833215099566 7.692163612858709 -1 1 2
147 1 21.078965102658618 4.713288918298717 5.748646891322012 0 -2 -1
1738 1 26.207570657849384 1.1568297623537076 5.619958463791174 0 2 -2
278 1 27.13426201872733 2.96238444446049 9.562732879620075 -1 0 1
1494 1 25.143107303717894 1.2213903566886457 9.05954553641416 0 2 0
1343 1 23.42854886652378 3.8335049175471534 6.55827487876649 2 -2 -2
741 1 23.15775278187504 2.086812389094998 5.464407933015142 1 -2 0
541 1 26.9290909367077 1.6732767378702698 7.700212347784922 0 -1 -1
216 1 24.66909862852822 1.8685722387244095 6.961024199892735 -1 -2 -1
270 1 27.22638174869059 3.5175541284101572 6.258330834637021 1 -1 1
57 1 25.66909071752393 3.649908792879672 8.00175545506152 -1 0 1
1429 1 26.250663027526354 5.162523283941976 9.507392451408297 -3 1 -1
1971 1 25.55183812911505 5.266026707724221 6.705363799010519 -4 2 -2
1235 1 24.19163523000094 5.358284362874813 8.388222281476281 2 -1 0
1675 1 23.354550116112968 3.3445503987284084 8.763531089200338 1 1 2
1795 1 1.099973236413108 5.539643245685264 7.70022062539967 -2 0 -2
958 1 2.7344154440945365 6.963188218350741 7.138640697107866 0 -2 0
341 1 1.2890601810114637 8.506533364584762 7.622896029869071 -2 1 1
550 1 4.252741329690689 7.044028355302705 5.733634628153806 -4 2 1
654 1 3.068514659988448 9.148230325756009 8.392789110289007 -1 1 1
152 1 3.231974714507325 9.154196854271897 6.164894147323554 2 3 -2
1055 1 4.984742756245639 7.817575816204886 7.696141092851361 1 2 -2
558 1 2.231365072683538 7.212625637846659 9.311993746077047 -1 -1 2
1655 1 4.203191400702286 6.920422107670679 9.427347719967315 1 1 1
1713 1 7.979271128303401 5.452407271477134 5.419809213930561 -1 1 0
420 1 9.326893939123405 6.807231654315677 6.249288890194077 2 -2 0
1556 1 6.3580580478356605 6.452352034289565 6.7582650826150905 2 -2 3
1586 1 6.403247001010952 5.600646600620596 8.653182074817154 -2 -3 -5
611 1 7.602871300079018 7.8359183519720075 5.4935630495005565 -1 -1 2
1038 1 7.127685517340397 8.592443251915416 7.559808372873927 0 1 -1
2041 1 8.379424685714184 7.005330700710822 8.43724915594682 1 -1 3
1009 1 5.749269881686463 8.560878648643603 5.5686263963361595 -1 -3 3
1743 1 5.560687037723725 9.604223978695126 7.745495690103114 -3 1 -2
1865 1 8.90958496117112 9.491904833290318 6.268737948705858 3 -2 2
310 1 6.532906409254315 7.869084052865198 9.516780063475135 -1 0 -2
1947 1 8.883883875479375 9.020153249502282 9.464802055901309 -3 3 2
1856 1 11.327458471771264 7.619996501914248 6.5229007481587145 0 0 1
1861 1 12.323758859730878 5.752590602709703 6.854228952164949 1 4 -4
78 1 13.945330469232358 5.478610670559951 5.8598374637642765 -1 3 -1
1398 1 13.25690281601635 7.41447811390222 5.6322298191940225 -4 2 -3
1580 1 9.86944821816169 8.412474838022087 7.754928239363387 0 2 2
484 1 13.932364130107821 9.526246067028808 5.9422559219137945 -2 0 1
1434 1 12.841061565538782 9.560733900836533 7.765915097321651 0 0 -3
1468 1 13.774479737495428 7.231350249885063 7.498361730416623 -1 -1 0
1969 1 10.452845642233962 6.2629426702469235 7.9662892123310804 3 2 4
81 1 11.982129582485609 7.992887660049585 8.56660180005322 -1 1 0
1542 1 12.7190171508436 5.9648476517290625 8.894835843891254 -2 1 0
1999 1 10.477292480727831 7.153377083713637 9.768319689766548 -2 -2 3
1977 1 17.145842006676055 6.353187736166951 6.4712863964814735 0 3 0
1069 1 15.579564902227897 5.408229159173623 7.78871270939139 -1 0 0
744 1 18.556599816596012 7.088119749818775 7.746871888927342 -3 -1 2
82 1 15.377037073390682 7.278648042281467 6.3580619105021015 1 1 3
1476 1 15.526639663332436 7.347867685626185 8.598575066348179 -3 1 1
778 1 17.321021130547887 8.765970017598388 7.148475430835996 -1 -2 3
323 1 17.134384489006912 8.79246229180687 9.326920585055403 1 -4 0
472 1 14.459859133715856 9.042205535839635 9.523020285637337 -1 2 -2
1185 1 17.632056990648948 6.7845091115949145 9.35034351359913 0 0 -2
1657 1 15.183143132027983 9.42341774902011 7.280138398265048 2 0 -2
1405 1 18.928954551350568 9.359478549362551 8.5400450855111 0 3 1
1752 1 20.73146549378699 6.927311644952142 8.264352560189291 -2 1 4
2013 1 20.3116987181194 8.851222358113468 6.525194011541966 0 -2 2
518 1 20.112670447552343 6.740424013722739 6.248404132399086 1 1 0
1214 1 20.905396849505433 9.24065087845763 8.557355846410193 -3 1 -1
680 1 22.20774143282916 5.597791010667309 7.623116973295553 -3 1 3
1054 1 22.7491635547704 7.20097710107774 9.13372545177364 1 -1 0
1940 1 22.328775640137646 7.81022292440765 6.975143835365165 0 2 -1
40 1 23.85503156457271 9.304750888623222 6.021442416006105 -1 1 0
1732 1 26.84894820349544 6.45998808153834 6.001474670029238 0 3 1
1388 1 26.627680311064342 7.196887770394976 8.990252402474999 -4 3 -1
942 1 24.474427106591563 7.12232921831955 7.172971882620093 -3 1 3
830 1 23.452669001030166 9.32902828541558 8.306800625346964 1 -1 -2
416 1 25.728843670116547 9.67544284550725 8.575360957643092 1 -2 1
972 1 25.93366153589008 8.780781499785057 6.720138889799856 -1 -2 0
1862 1 24.720516384179803 7.805615624115773 9.263102924390225 -1 4 3
1466 1 3.6738714351510593 13.584806470401714 6.043239652840432 -2 4 0
1697 1 4.0933036810627375 11.11308889731932 8.162417222459476 -2 -1 0
821 1 2.998633553906338 11.672528757828106 6.402548999078494 0 -2 1
1668 1 4.691671820673291 10.698374197655264 5.597088951682132 2 -2 3
1091 1 1.0645200519323277 10.482548014062088 5.96750992437069 1 0 0
1521 1 2.9694064485451266 12.703921132868802 8.475037237087072 2 -1 -1
1196 1 4.96114111175337 10.130994138546 9.714847231619883 -1 -1 -1
910 1 1.6550402300577267 10.855286734087267 7.998301571628458 -1 2 0
443 1 1.5949357955310184 13.54958545174595 7.227809604462365 1 -3 1
1016 1 4.786560558123725 13.911149414880805 8.642519807559417 3 2 2
1798 1 9.706763869388675 14.013751288794559 5.851287978599291 0 3 -2
1020 1 7.348006124766441 13.172260654474943 6.002560346649317 3 -2 1
396 1 5.4095988353764675 12.283851094116965 6.664978356293799 -1 -3 0
1951 1 5.8994617778589395 11.894510249848995 8.617273535382445 2 -2 2
373 1 6.9633975637502505 10.052619352868746 9.5225444218221 0 -1 0
781 1 6.839253955355889 10.442254588436931 6.156118409790248 1 -4 3
895 1 8.757545268714711 11.73478185445787 5.656083939411219 2 -1 2
887 1 7.872894146770434 11.145519988684665 7.960912030348104 1 0 1
1384 1 6.622716056070104 13.91601649468628 7.859741243270966 3 -3 -1
850 1 8.811700485008299 13.081059224997238 7.879471045823227 -2 -2 0
682 1 9.191707189739688 11.36426884457363 9.729368243037358 -1 2 1
1991 1 10.503714945964157 13.192253425272073 9.19742909941726 -1 1 2
1404 1 10.90749575350917 11.941959831355867 5.481125509800571 -1 -1 1
1116 1 12.500729591095403 13.324844646857066 9.38790239263275 -1 2 -1
797 1 11.064413327650366 10.059635001229946 6.364074911032315 1 0 1
1519 1 10.730482033684018 9.996390336391556 8.809168257261195 -1 -4 0
1939 1 9.869760447293535 11.63066900788782 7.2290630400493745 -2 -1 1
1912 1 12.973882592507026 11.626288836801711 6.460606925943697 0 -2 0
1131 1 11.975725054669114 13.65646762744475 6.10275803645448 -2 2 -1
1453 1 13.767192614839644 11.219775464156939 8.747680107256585 2 1 2
542 1 11.65143717691669 11.628237929389897 8.223726025909382 -1 -3 0
135 1 13.964608003651371 13.295153934079108 7.475249966377759 -3 -2 3
462 1 16.04081238957105 13.275624561728915 5.655111257164811 -2 1 -1
448 1 14.967260179535458 11.506853080850156 6.528169919039662 3 0 0
1900 1 18.122401671886983 12.827380113798712 6.429743965805809 0 1 1
880 1 17.70316534108834 11.928772758022143 8.429800639642625 -1 -2 1
476 1 17.102126555893975 10.873990488831767 7.01837154918168 -1 1 -3
151 1 15.940060338704708 10.642785696300182 9.013038609870824 0 -2 1
414 1 16.137330521943582 13.052122070460046 7.984340264389725 -2 -2 -1
1640 1 14.795395769659635 12.920009740868675 9.66776304408087 0 -1 -1
1199 1 22.657382424524833 13.103621913592974 6.565885402912331 -1 1 -3
1547 1 19.100473805634987 10.599756404811378 6.328645276888351 3 3 0
194 1 19.90156031819074 11.252056476844537 8.146208499759133 0 1 0
166 1 21.820081631060567 12.609218620614392 8.291039087868146 0 1 2
1272 1 21.91630556233703 10.294561704110759 7.11613338917812 -1 -2 -1
1616 1 20.640099231323077 12.200030826520939 6.608554041036284 -3 0 -1
101 1 19.105909544289197 13.547812753743564 8.197720554222338 -3 -2 0
936 1 26.45898542353961 13.942832067090396 8.446012312340535 -1 -1 4
1021 1 23.93093437886526 13.783036695717959 8.194285013036787 -2 -1 4
354 1 23.11449919877413 11.486747901335416 5.554024439599981 -2 0 -3
2020 1 23.619884034459616 11.600496405758605 8.187248687941842 0 1 1
1189 1 27.10186554723914 12.442962723254075 5.669835910972888 -3 5 2
1559 1 25.002546831368186 13.105011717496275 6.310927080952924 2 0 1
1670 1 24.99831255233093 10.80951797734358 6.6464741491490305 -2 -1 1
757 1 26.242664840808295 11.7156525094015 7.995586121004259 -1 0 2
924 1 1.3703408406134958 1.320202776154851 14.083496424083876 0 -2 1
1143 1 4.494156129275928 1.907966139718709 11.581343257819402 1 4 2
1946 1 1.7269686474438797 4.591017368897818 10.68959692980812 2 -2 0
754 1 2.9165651528019523 2.76485147122982 13.514438963085636 3 0 3
59 1 1.8208416554944789 4.451771751037963 12.936066776343091 2 0 -2
488 1 3.837033679136453 3.9702777790448516 11.733784314352743 0 1 0
400 1 5.175170448889412 3.5753948352057945 13.529572963498822 1 0 1
921 1 5.268222452220361 5.1852445571381205 10.568444679892876 0 1 2
1819 1 2.0656174691322096 2.539433099471762 11.319284808832123 2 2 2
269 1 4.991753010342657 1.3336977735443434 13.945777350943672 1 -1 0
247 1 7.786264648709578 3.3991184230691203 13.856298212116737 1 -1 -4
1194 1 6.6291539075419506 1.9149938470955976 12.637004324214248 2 0 -3
986 1 6.040508423993217 1.4551796435482174 10.122752462835898 -3 -1 0
1824 1 6.470299123818469 3.5931230851343288 11.432875636662102 0 -1 4
1241 1 8.184563964982505 1.9184869041107024 10.611697474349839 2 0 -2
965 1 9.752174553947903 3.384299984712587 10.115845944514993 -1 1 1
712 1 7.234577622959025 5.244115887192534 12.994553822734227 -1 -2 4
1748 1 8.866960819882214 4.177598217668793 12.004318983657068 -2 1 -2
1193 1 8.878806889515435 1.6409363109448472 12.906614135959089 0 1 1
333 1 10.114902473102708 1.0885233745425547 11.264889249672063 0 3 -1
670 1 12.983655692397958 3.1367085249780127 12.987179402809403 2 2 3
272 1 11.241209998589666 5.085773280878211 10.458958135046135 2 -2 1
1032 1 10.876367303996616 3.398338051432187 12.053331518561386 2 2 -1
560 1 13.207909179847942 5.122099924390704 11.363785275360456 0 0 3
969 1 11.883968473612754 2.28982552816296 10.512386514915713 0 0 -1
1431 1 10.617256947684801 2.3749251152087956 13.921118429064535 1 -1 0
1853 1 12.141924009897544 5.0447170045229885 13.368388971293324 0 0 -2
1915 1 10.325795866159101 4.421717583869604 13.965888588748786 2 1 3
1612 1 11.69833373981551 1.1916198104055262 12.850926488474922 -3 2 0
1096 1 14.885916760444447 2.258406640095087 13.91134246013088 -1 -2 1
1141 1 17.771236599533445 2.63593138409123 10.336656484085614 1 0 -1
845 1 16.129961717566772 3.9230002690829537 10.58081612141382 -1 -1 -2
1625 1 17.500631865888764 0.9827043378228417 11.962426774517331 2 1 -2
2016 1 14.232319878552113 3.0603771685896475 10.890699600748977 3 2 1
951 1 15.313819002043997 5.0095354127456915 12.05785910473991 1 -3 1
90 1 15.72737579053956 1.5919882173858144 10.709989282142613 1 1 -2
883 1 15.859795988700737 3.1544664023368436 12.315213917501575 0 -2 1
1857 1 18.418194008867808 2.787383038874588 12.839474416873072 0 0 -1
765 1 14.538008920047965 4.424949115316155 13.995766845245486 1 0 1
58 1 18.01681915681817 5.106748085752072 13.426481131067588 2 2 -2
1994 1 16.96867264052506 1.9179946514075665 13.9408403705887 -2 -1 -2
282 1 19.43494739244901 1.8043201118128547 11.323431913625303 -1 -1 -1
977 1 22.334285831026502 3.7178113375891146 13.329413734753558 2 4 -2
730 1 18.82161848289594 4.255534879671092 11.206114720784463 -2 1 -1
75 1 21.90439252592249 2.3478802371088925 9.956072957919185 -4 0 -1
1309 1 20.664881652078247 4.233987836417958 11.594293224761016 1 1 -1
1817 1 19.971117960597887 4.490249957241924 13.685273537379556 0 -1 -1
1720 1 21.437439916075125 2.21202436602782 12.077412247428125 1 0 -2
621 1 22.702090613516265 3.718034328010188 11.211716803738774 -4 1 0
26 1 20.296215325806582 2.2415309454689742 14.090554190622857 1 -1 2
1588 1 23.858963874479954 1.9782712050515334 11.0861040916321 1 0 -1
1306 1 25.50104124310626 1.2668503788112133 13.053080098415153 -2 -1 3
788 1 23.412222662951397 1.2881712250805093 13.086946895300242 -2 -2 -2
1531 1 25.878200222548685 2.0453575832946527 11.016463129549287 1 4 -1
1964 1 24.77790720121554 3.9411299863833915 10.140924432190458 0 -1 -1
1117 1 27.048566556619356 2.7323743060614456 12.65087641018211 0 2 2
1762 1 24.486966942589525 3.3447081441038478 12.524943110106978 2 2 4
76 1 26.262983676903676 4.5413964281956805 11.61103266586166 -2 2 0
315 1 26.079946067812646 4.4042894537659265 14.01965432377564 2 -1 0
1872 1 3.453269104589787 5.395273586439803 14.037220131587542 -1 1 0
761 1 1.5758984402553509 9.265421225695253 9.842622051919067 2 2 2
879 1 3.1243603190878786 6.091155420814157 11.162615706548337 0 -1 0
953 1 5.11089969499515 5.5370725065300475 12.465860837939276 2 0 -1
95 1 3.121081331296851 9.290435396583906 13.187937924949898 0 -1 -1
1574 1 3.892493130205652 7.698348132119157 12.223006270262092 -1 -2 2
300 1 2.0957351081286477 7.06170414881175 12.979678486002985 1 1 1
1894 1 3.4550052374538516 9.046856700046003 10.782230829750652 1 1 0
1814 1 1.4698478690266419 8.547651593801472 11.54644055006272 1 1 1
615 1 5.1792456538196046 7.079545380914886 14.019819999857551 1 -2 -1
820 1 1.0494050218059883 6.707782462017461 11.01107267722845 -1 -1 -2
800 1 8.609379605125397 9.756296239743074 13.161001281312284 1 0 1
1974 1 7.505339242031344 5.701215658732684 10.8625996431899 2 -1 2
66 1 6.520128524714663 9.254074215363339 13.674802877536784 -1 0 1
1526 1 5.377229204083978 9.306258244879098 11.860323295687415 -1 0 2
1077 1 8.956063496136883 6.017093064364602 13.9420032699407 3 2 -1
1972 1 7.581046513457938 7.5098869616049715 12.880085668789585 1 2 -1
211 1 5.975795611079862 7.335285482256412 11.399715668494686 1 3 -1
65 1 8.675268827821224 7.488201244688902 10.879666368137027 0 -2 0
872 1 7.622723701983987 9.070374922537972 11.21287224296539 1 0 0
140 1 9.812692868881472 6.003534136608958 12.110859979851448 1 1 -1
1465 1 13.823748821781283 6.403051505216822 13.209837505618312 0 2 -2
1031 1 12.065486526278118 8.12015523073564 13.140670862871632 -3 0 0
805 1 11.988742140498278 6.643261778048889 11.724958258353452 1 0 1
773 1 10.207716642003513 9.649195392284218 10.940189919153939 1 0 0
1960 1 12.097077230995952 8.279257587415543 10.731304888335732 -1 1 0
677 1 9.884540026603846 8.063210441896523 12.51353336843787 -4 2 1
817 1 14.02905644868296 7.208409250333056 10.772394879708221 1 2 0
791 1 13.957649234455605 8.822305034495344 12.085978478072057 -1 2 0
1475 1 10.842378204646245 6.68801125213538 14.08570491769572 1 3 -1
1093 1 15.729415448637006 6.38339029177252 10.512474773936212 -1 -1 2
2 1 16.133927317786792 6.14695413680667 13.782598367150442 0 2 -2