LAMMPS data file via write_data, version 29 Oct 2020, timestep = 300000

2048 atoms
1 atom types

1.0874820230626803 27.26451797693496 xlo xhi
1.0874820230626803 27.26451797693496 ylo yhi
1.0874820230626803 27.26451797693496 zlo zhi

Masses

1 58.933

Atoms # atomic

364 1 2.0015087307652015 3.118192387309563 3.803298489931587 0 2 2
1378 1 2.358887540938907 2.3857734432847035 1.740697994172967 3 -1 -1
1094 1 2.8080772717468223 4.689061849905746 1.864622630434448 -2 -1 0
351 1 4.247400039652245 3.386325529960297 3.5217607165397924 2 0 3
458 1 3.1605050739218874 2.2475421171065904 5.262044023591472 -2 0 0
2015 1 2.4710350222399953 5.306529132212157 3.81427213766256 1 1 -1
1180 1 4.593865455031786 5.224631033385018 3.5482624712212916 3 -2 -1
611 1 4.999531846082876 4.931528177814959 1.494543897668809 -2 -1 2
1512 1 8.718458552064954 9.140920052223754 1.446739784556431 -2 0 2
1883 1 23.850918079600028 11.837702728718218 13.287767743100714 -2 0 1
189 1 5.401481972289411 2.080194109920833 4.820080618391215 0 4 0
1853 1 7.810228940841427 2.1261350178575364 4.583584124676423 0 1 -3
66 1 6.211850885198024 3.577583772281001 2.9793600271076963 1 0 1
616 1 8.557445299699207 4.031347022084944 4.816854678324875 -2 0 4
141 1 8.513328989541659 3.6856365648844043 2.7378270085649588 -1 4 -3
1089 1 6.036853964424368 4.151893346168102 4.821439336968128 1 2 0
1393 1 7.897628076780794 1.6612559338040986 2.163394614540289 0 1 1
505 1 7.109390262422374 5.658586858927673 3.2047916320213905 4 -2 4
387 1 24.42113706081469 11.122616310675792 11.208919102382405 -1 -3 -2
1344 1 9.854013325739514 2.4026927798568853 4.1408764759328545 -1 -4 5
1595 1 11.76237690860429 2.3778896791154804 3.417108499342446 -1 2 0
357 1 10.75299751084801 4.500872637158749 4.125361951336888 0 0 0
1585 1 10.775700865993857 3.9048994220721367 2.1162904100694906 4 1 0
731 1 12.840153090416335 4.582745096206423 3.7789271629163963 -2 -1 1
1850 1 12.922543252564823 3.808827772136314 1.6254530849113453 -1 2 -1
1437 1 13.865073416749718 3.26864111110467 4.9564724354398635 0 1 3
1014 1 9.98412484152965 1.7274476787772428 1.9616977322963902 1 0 3
1000 1 12.224020218086272 1.640101944280946 1.4483981175046168 -2 1 -1
734 1 24.069014632407242 13.824822672816124 2.639139121201415 -2 0 3
1409 1 14.07482789238465 2.529955741950411 2.9584851680441764 0 3 0
729 1 16.335718600285446 3.6827609237407577 4.485936604128332 0 1 2
805 1 14.988540771077195 4.456541438548488 2.9065641173259027 1 -1 2
578 1 16.153967633045134 2.774876258278112 2.3495691162857364 -2 0 4
1755 1 17.291380071728906 4.781388744174267 2.751490354702149 1 2 1
953 1 18.41812812989653 3.688594542333376 4.284287103356675 1 0 -1
571 1 16.749959515761205 1.3263609244388435 13.524244041214306 2 -1 1
1445 1 17.69456464461085 1.669512674309213 4.025002958928114 -1 2 0
1524 1 18.45961995817074 2.7890960461361063 2.2540785025420425 -2 -2 0
1796 1 20.607360016707027 3.8957793186787906 4.003546373104886 -1 3 0
927 1 21.828327768929615 1.533920773764543 3.0918740934407416 0 -1 1
1786 1 19.474243767043088 5.08746403083339 2.4694083006145195 -2 2 4
1031 1 20.676649892048268 3.132207627741431 1.8476151060783557 -3 0 1
1446 1 19.83698596124931 1.8570651086338688 3.527901899195076 0 3 -2
1099 1 22.326818816182882 4.674457711021005 5.448074380715538 -1 0 -1
231 1 22.593142698524204 3.707704112424643 3.449056362398929 1 2 1
217 1 21.61049687842339 2.5226965704584883 5.133000082854639 0 1 1
389 1 26.374611457855714 11.93601830513867 12.863109042783778 0 1 -1
1095 1 26.98790359084849 4.522803309575663 2.321256896492728 2 0 -2
679 1 26.26026402717129 2.1635447118423246 2.0619692802813856 -3 3 0
1748 1 25.801006523726045 2.737421877856045 4.178900519461191 -3 1 -2
104 1 24.861047208927737 4.244783077203824 2.9565403744629704 2 2 1
1548 1 24.550225643094244 4.611207738055507 5.054293754807395 -5 4 2
1473 1 23.745682239232146 2.342506934726826 4.479360396955972 -1 0 0
500 1 24.0471006506552 2.1008798123756227 2.5850656446928753 0 0 -3
1439 1 26.595214596973253 4.950897245292582 4.361195662981561 3 2 -4
1264 1 2.9649726217091343 7.461688357454049 3.9138638309050036 0 3 -1
1861 1 2.0205068089010254 8.867920722181395 2.736559615376171 1 4 -5
1505 1 4.255379314703219 8.996523855403254 2.1611935812162275 0 0 3
1686 1 3.906287382465359 6.760625513797742 2.1869605488768507 -5 0 2
1775 1 1.848350126379681 9.562637787940806 4.886713175481017 -1 0 0
631 1 1.4847139003394692 6.773939412669942 2.5244321572061983 5 2 2
879 1 5.33622893562664 7.6187553833732915 3.785137808251871 0 -1 0
1541 1 9.386982043371637 5.755173808615591 2.7925928727489517 0 2 -1
392 1 15.550376643737273 1.6420902978777625 4.653932270612542 3 2 0
1021 1 7.645766406502375 7.744175451217922 3.302567947692228 -1 0 5
1432 1 8.86905129111997 6.372594289436869 4.538779697598093 1 0 0
276 1 6.479053515559573 9.166624601248762 1.770845272520586 2 2 2
1250 1 5.921964485629404 6.922444879961582 1.779980430819367 -1 0 1
1062 1 9.364729054641247 8.826280900673023 4.956018245039831 -1 0 -1
885 1 5.869204123063337 10.065515831963468 3.837393880759984 1 -2 1
258 1 9.924066316068405 7.996095605721469 2.9488709531750246 2 0 -1
1877 1 14.762661015594421 13.722870505392319 6.202334333613003 -1 2 3
1034 1 11.56221452297637 6.204654439706075 2.0973177087889914 1 0 -1
735 1 10.945915657161597 6.783983617187129 4.312612482108161 1 -3 -2
1823 1 11.432482947795858 8.885626317580392 4.292808088467968 3 0 0
536 1 13.036096875330749 6.6627059219066505 3.879324738917119 3 -1 -2
1917 1 12.20058220244043 8.185918872106846 2.38098063587414 -1 3 -4
1926 1 13.822009328079819 5.962295744157123 1.6780289087414204 2 2 1
1165 1 13.641515137043584 8.73130629904464 4.0845945927904275 -2 3 -1
1449 1 16.302360369903717 8.355055729248138 1.4536971201665099 -1 0 -2
355 1 14.45404464154575 5.572319418377954 5.268110222195557 0 -2 -1
159 1 14.263393162675413 8.149797662631798 2.0569072740337906 0 -1 0
168 1 16.95003427511778 5.868414446100168 4.863119349299534 -1 2 2
277 1 15.40363352827348 6.611654131373337 3.220689077382325 -1 -2 1
1787 1 15.95614340206495 8.782596803741676 3.750745972466681 1 1 2
1151 1 17.79194763115041 7.157117430706703 2.9870528851170297 1 3 -2
1593 1 17.26516763644182 8.062109325341718 5.024270712473306 1 -3 1
218 1 18.40116815665622 9.341648295213163 3.2475926613285977 1 -1 -1
477 1 12.558229715745544 14.12494340488087 6.958526674016786 1 -1 0
561 1 16.25566913847951 1.1762782763139132 8.107607608562502 0 0 0
443 1 21.50233936953888 5.005958196979886 2.0970404071788087 0 -3 1
470 1 19.037761446965703 5.778536365568009 4.477119424776622 -3 -1 0
1997 1 21.169344831400103 6.016726477662367 4.057813236564433 1 2 2
2004 1 20.106742669026836 7.254807190983129 2.5178715213693676 -2 -3 -3
1252 1 21.680535927617367 8.387255369653602 4.099405138604901 3 0 -3
935 1 19.575154339983087 7.776450054681849 4.6538225434031055 2 -1 -1
1114 1 22.319766585003087 7.016997022089208 2.2204889157681746 -1 1 -2
1991 1 20.55277232793503 9.77810211387664 2.731041962464747 -3 1 1
1556 1 22.581154774121167 9.13846856829559 2.1512132714841226 1 -3 3
916 1 22.899093045882204 7.050308411616149 5.440950946954886 -3 1 1
615 1 24.23612768902954 7.5772629418929105 1.4050556559810157 0 -3 0
917 1 27.024174400031644 7.208419832606082 4.479437675231643 -3 -2 1
1828 1 22.296773840760217 13.975538829675287 8.751148474159738 2 1 1
587 1 23.27376526860955 5.9510710572586145 3.7208354069303806 2 -2 0
1916 1 24.024268572482974 8.08037572580765 3.835928049480192 2 1 0
973 1 25.930159801098878 8.720486161628001 3.041370402233955 -3 -2 0
617 1 25.426453945195853 6.324643998685645 2.977589171328998 0 -1 -2
1577 1 24.977255658404037 6.784592331029802 5.096180146426213 2 1 2
1830 1 25.756700716256134 9.036398100755818 5.2526150591216965 -2 1 2
1973 1 5.468955302166505 13.96656779953487 4.867861443660805 -1 2 1
435 1 4.000448607064758 9.362262804012067 4.348719811992056 -2 -1 1
983 1 3.170608262527231 14.072302500484074 5.0355529053298715 -2 1 3
1963 1 1.812166481091574 12.384841150510518 1.3948116658337653 5 0 0
1820 1 4.915497785875889 11.296912384117244 2.329306651867607 3 0 -3
1895 1 3.4571964147248373 12.98981909058427 3.071962664672025 -3 0 0
115 1 4.789300279737387 11.704391262489745 4.64343613301604 -3 -4 0
1390 1 2.857708732580728 10.740609063521651 2.9216311544631 1 0 -1
1402 1 2.837333356417812 11.582156615601457 4.993054492471654 2 7 1
1281 1 1.4251690230846956 12.701823273753249 3.5545527927746097 -2 -1 0
336 1 22.660469650180058 3.2294433983047446 1.2915491650928734 0 3 0
553 1 5.7346715250837725 13.52486940319184 2.5601674045245026 -1 2 3
1811 1 8.152416366292936 9.815930252342442 3.618425071469945 3 5 -1
225 1 9.48547394222531 11.523422953777587 1.3665861172734586 -1 0 -2
1518 1 7.330588806512667 11.355296307032221 1.9791199664058812 3 0 0
1882 1 6.915143577838092 12.105204071270009 4.062680622321009 1 0 2
1586 1 9.020323600520854 11.991319316027976 3.438567547850674 -2 -4 -4
800 1 7.981635757624324 13.490910898489354 2.0134335858464807 2 0 0
425 1 18.749322622297836 8.7493709728698 1.123456532270703 -3 -3 -1
303 1 21.919651583651827 11.956873447149272 13.972048798742874 0 1 3
1771 1 10.003843037905536 10.779557072577672 5.032869646263069 -1 3 2
1760 1 10.288394601255593 10.052572575426746 2.804438930669096 -1 -2 -2
513 1 10.24110705469896 13.570035040858505 2.0181434226937096 0 -1 1
1308 1 13.100684633162532 10.14053009278014 2.5553720172591534 1 -3 -1
278 1 12.311287260257423 10.892367926417903 4.620164109594503 -1 -1 1
1544 1 11.342053687552527 11.812646435291686 3.188743079721031 1 -2 1
692 1 13.445793530595232 12.208184770801024 2.8117176263233907 2 0 -3
2039 1 12.903615810157063 13.134342423256639 5.072740385555358 -1 -1 4
886 1 10.761185441847164 12.897163178444425 5.167572528865402 2 -2 3
1688 1 5.661224945446373 1.3212652740167052 2.51146898441523 2 -1 1
427 1 17.281560860399892 10.391008551151163 1.5846469861027888 1 -1 1
1740 1 14.474841028699899 10.691160071385761 4.234915531541526 -1 1 -2
1503 1 14.874484983841894 10.07865270394982 1.6683114083858024 2 0 1
202 1 18.047760847876688 12.542223749505371 1.6216728436854322 -2 -1 -1
1107 1 17.703340102995217 13.10106621689426 3.6816647459178244 2 0 0
1979 1 16.659019444021748 10.878747812550978 3.6875635605938974 0 1 1
1934 1 15.75921762715387 12.322754288258974 2.3114493066853434 0 0 0
564 1 15.417508572626227 13.089688170069488 4.400749267037339 0 -2 1
1394 1 18.19315715056584 10.13107406692677 5.420733561980871 -6 -5 3
1947 1 19.89057987422375 13.096404940859335 1.2705235855557522 -5 3 2
332 1 2.9314635970270455 9.05640108216339 13.802078867538933 -3 1 -6
608 1 18.874602203376302 11.396137338322134 3.314219761225725 1 2 3
1814 1 19.921597402176484 13.292657231168594 3.5357784373085415 1 1 1
1879 1 20.306581697594844 9.845036421368379 4.849565555257205 -1 2 0
912 1 21.206604208349866 11.735231302979527 2.647377681313328 -1 1 3
1736 1 22.373125844480658 10.388918975968345 4.100668928395825 1 0 2
1382 1 21.02816619302828 12.023037095450047 5.08269299639079 -2 -1 -1
636 1 18.836187755551425 12.475513898457624 5.548259023550061 -1 0 -1
1298 1 20.58639416140599 1.3030586698009867 7.283314859001339 1 2 0
969 1 24.898622288752012 9.878121111803353 1.5806033601312681 0 0 0
1278 1 23.107900792939947 12.548272934007306 4.5592657651530235 0 -1 2
1791 1 26.9471691352629 10.611775008809149 3.5516484806341264 -3 1 -3
1656 1 23.40071959497391 11.810706953453952 2.1741405476060303 -2 0 -1
1415 1 25.33045645043131 12.673572757515364 4.262505296241682 -2 -3 -2
1905 1 25.69943539956051 11.872277311393884 2.2471741121444557 -3 1 4
588 1 24.386374693923965 10.374579774396448 3.562870529342779 -2 -1 -1
1037 1 21.95895378674842 13.775346069242058 2.9709016793681995 -1 0 1
1558 1 24.88758382959713 1.22814748216848 6.288437769141256 4 1 0
737 1 3.7544369031703666 4.224679574845266 5.5562330231180095 2 3 0
707 1 26.564062403163483 7.896255137132707 1.1847877419356914 -3 0 0
540 1 1.3912289450101394 3.6690068981545543 5.870390441096644 1 -3 2
1179 1 4.762172718988445 3.4388318989805184 9.040158480363614 0 3 1
77 1 5.104909024917264 2.9214857238543903 6.980036061300075 0 1 0
17 1 3.475978594827214 4.427574566735891 7.800790543202591 -1 1 0
1051 1 2.9148111351071053 2.4096989543620655 7.553814245818655 3 2 0
72 1 2.483987362764638 2.974630135655719 9.579061400046923 0 1 1
1948 1 1.337957379316903 4.36426117039642 8.058585562901197 0 3 0
1778 1 3.0491220628239875 5.407747103931505 9.63130680504909 -1 1 1
1112 1 27.028852189916417 1.525945851579588 5.737678378020782 1 3 1
101 1 6.4265685401296535 1.6090066024712861 8.579879246042712 -3 -1 -1
1210 1 5.447012014936917 4.9423019313644865 7.069636884195564 2 3 2
765 1 6.800091804160497 3.8615487141152265 8.537391949260691 0 1 1
362 1 7.2419511338658635 3.2705685280589556 6.394147678433049 1 0 -4
1592 1 9.148275998870027 4.375642600813066 7.985847305261313 0 1 2
1928 1 9.7952432472996 3.0092358793333203 6.357663020409148 -3 -2 1
1733 1 7.716654241651361 5.3155699701614 6.308683290270204 -1 0 -1
1169 1 8.600543903393287 2.0006538628234383 7.955629677369363 -1 1 -3
569 1 11.727962330549463 3.2689000865813043 5.673459861138821 3 -3 4
147 1 10.172948608018583 5.424312379234379 6.250653649414481 1 -3 0
1256 1 10.810059852116202 1.9088756333692225 7.568648877795825 -1 -1 2
1904 1 11.403629560337224 4.09787635283468 7.437227864709211 0 2 1
1024 1 12.800552848700505 2.0300351273485235 7.220834233813871 5 -3 0
2045 1 13.519893024498955 4.037634685971999 6.852468352925966 2 0 -1
584 1 13.085996145058704 4.9889386308522665 8.994397164450953 2 -2 -1
730 1 12.359720998001697 2.710102950912951 9.069738332798194 -2 1 -2
1134 1 10.31946278784451 2.4602311983606038 9.579767883191044 1 1 2
56 1 11.020677155218285 4.7341119409971135 9.407127974335552 1 1 1
450 1 12.383283983423047 5.478945073001519 5.747331358334293 1 2 4
1337 1 25.64866940503535 9.889502380856664 12.694214785870635 -1 2 0
1770 1 14.472195000663412 2.680784997239375 8.80468928414073 3 0 -4
301 1 15.079696309431418 2.3613020279362766 6.538600693497781 1 1 -1
999 1 15.657378238645538 4.5350139236267175 6.641281494929812 5 -2 2
633 1 18.019044844830834 4.459651807332829 6.378245571917596 2 0 -3
460 1 17.32045610065296 2.0849105613111427 6.179294930124129 -1 1 -1
1837 1 16.73519684625955 3.281989733429419 7.918613566552939 2 5 -3
446 1 15.069173227190143 4.831980786315062 8.68115617100442 0 -1 0
1290 1 17.843424990268005 1.8691899923319526 9.776635829851434 1 0 -1
712 1 17.351292371274553 5.294840224136357 8.193953658454422 -1 -2 3
809 1 18.344568378225027 4.211574960139736 9.7143138498881 1 0 3
433 1 23.624297152377945 5.13476185376033 1.5110521542522433 -1 -2 0
534 1 19.395949954048707 2.187021544636578 5.573821550844357 -1 -2 -2
1662 1 19.965807970089372 4.599445020414135 5.9639876572757045 -1 1 3
1207 1 18.926202662281206 3.0714950444623703 7.751717152559149 1 -1 -1
947 1 21.035742795307552 3.2975377422648053 7.3555676353623145 1 1 2
469 1 19.96607939212015 1.583233328722498 9.25612030116096 1 1 3
524 1 20.89377951884566 3.8003791884767915 9.372334062890292 1 0 -2
178 1 22.447155879085216 2.195487984093327 8.5907610072697 1 2 1
1812 1 23.215667387843375 4.045740394794862 8.703484834559834 1 2 -2
1372 1 15.907974744803756 6.1707534482183934 1.1677149204394837 1 2 0
1345 1 24.426775545061936 14.160322597483729 8.18684243242986 0 0 0
1053 1 23.257931909771717 3.330362978305877 6.740848413008154 -3 1 2
514 1 24.53589455661013 2.144581330169579 8.292135059261021 -3 -2 1
1138 1 25.518208048807978 3.41130679128144 6.144923064913239 0 1 0
1939 1 25.28221915446222 4.327867758429706 8.047429330376016 -2 -1 1
898 1 26.847983142469126 2.406196351651036 8.113069229559937 0 2 0
216 1 12.266651527276917 13.5938348024357 1.8286526677445765 0 -3 -1
763 1 4.42114021774907 6.194957031798053 5.252011797719201 -3 2 0
1052 1 2.1885701529568293 5.7290697461754725 6.131005938044784 1 0 -1
1077 1 1.8803233836090092 6.528457406004079 8.192616669381604 4 1 -2
698 1 3.899383347753467 6.631819933022891 7.71120553732819 3 2 -4
1262 1 2.7227163197819895 7.818454715795341 6.266034749338345 -2 0 2
1239 1 2.6993028042923406 8.463607572861935 8.275886339284206 2 1 2
606 1 4.7320456560055675 8.543093830944798 7.854712608181943 2 -4 -3
1945 1 5.217349563047656 8.344811694241827 5.924457739405183 3 2 3
554 1 5.083832945781981 5.440541210192657 9.19358243360416 -4 -1 -1
1 1 6.559223379263492 6.777552958249978 5.012990554994538 -4 0 -1
1935 1 7.154068290750978 8.743422985100311 5.10584508038052 -3 2 -1
103 1 7.3573064166985445 5.814480164878366 8.581766300875943 1 3 0
775 1 6.055834494599244 7.7169797025954985 9.329239121759816 0 0 1
1561 1 6.386795216754229 7.07524928735192 7.228310969864884 2 0 -3
589 1 8.027478600671568 7.856139904297841 8.704529349966542 1 -2 -1
1750 1 8.522937006947142 7.372884901103961 6.48906422180262 0 3 3
1758 1 6.956735076814059 9.271933054231114 7.179925726683542 5 -2 0
385 1 9.089544628253735 9.71969881976803 6.972094397862528 0 -5 1
1640 1 9.666910952505324 6.243606429371157 8.097177908141225 0 -2 -2
511 1 11.83745167135332 6.0497497544873395 7.614994012879427 3 -1 0
808 1 10.894494054182708 7.6612410252552765 6.463525149227319 -2 3 -1
910 1 12.974708240662613 7.563173493142282 6.1082903494854595 -1 3 -1
1441 1 10.302803110568084 8.313569086104192 8.667126888120201 0 -2 1
1646 1 12.579819016629234 8.363803320777961 7.964294381629057 2 0 -1
10 1 13.723211049746107 7.136783665248264 9.151315208376293 2 -4 1
1865 1 14.251826724719646 6.2156270805250875 7.338737812138366 2 -2 1
1943 1 11.381560575549237 9.771471945455097 6.453409725389978 0 -3 3
1140 1 13.5978586238263 9.611380717546997 6.017101742027504 -5 3 -4
641 1 14.906394563861248 7.499181278614005 5.141346978565205 -1 2 2
23 1 14.422110530450803 9.19020717854074 9.355976618612825 3 0 1
1198 1 16.36044542289676 6.605689112021738 6.944755388139757 -4 0 3
109 1 15.017731741979349 8.52179797367023 7.340813351680764 -2 0 1
94 1 15.831369661390605 6.886478649822141 9.10587805068298 0 0 2
1824 1 16.966064804712516 8.735257757505323 7.0567944448645 1 -1 4
1927 1 16.782415601262727 9.006017171930024 9.140627034219246 -1 3 -1
1118 1 18.302009245906234 7.353364412483354 8.407073891306311 -4 3 1
442 1 18.64054872678977 6.487734389271156 6.53458630999886 -2 0 1
1057 1 15.901600618779485 9.852243961333699 5.802472525515048 -1 -1 0
1580 1 19.826587084297742 5.384592849634422 8.030454429671185 -1 2 2
123 1 21.943914257215294 5.519310331824609 7.551401462435398 2 0 -3
812 1 18.706713739489967 9.570638755549874 8.422129001643716 -1 -1 -1
220 1 19.39606198233652 8.725411074126093 6.550548219681474 3 0 1
434 1 20.95230029695532 6.567112094244998 6.081610839906119 -1 1 2
1540 1 20.547961654867784 7.375781878061757 8.124576987127506 -2 0 0
1331 1 21.419997124901265 8.802441808603618 6.1578290733294985 -2 1 -2
221 1 22.71665914219432 7.5162997650692045 7.587622240449086 2 3 -1
1195 1 21.525747736840792 5.995949539322221 9.683344230573503 0 -1 2
1272 1 22.074075861266415 8.211332564873157 9.489486543842952 -1 -2 -1
69 1 24.058742865283257 5.431228009231669 6.872870801145739 -2 3 2
43 1 26.863247238720213 7.8682051206348795 6.553377586779216 2 2 1
7 1 26.248418943995336 5.865047218438056 6.590057102727613 -3 -1 -1
1549 1 23.620702258970336 9.10771782393069 5.532926092086917 -1 0 -2
29 1 24.720811908171076 7.5337816261426225 6.9709594575612295 0 -1 4
1157 1 24.360326650401046 8.090296837027312 9.218039529415586 -2 0 -3
1490 1 25.850346403135074 6.2910303767346 8.624573837328292 -1 2 0
1840 1 26.512299119080176 8.313713282073659 8.774172035399374 -1 -3 -1
1668 1 23.513646121065317 6.056382975686218 9.193360360437302 1 -1 2
1389 1 23.31311434196474 9.596313940643853 7.691853249471523 1 0 0
396 1 3.6074480595370733 10.008386556391141 6.322093638012501 -1 -3 0
877 1 3.812465643303166 13.032508066244503 8.517327571785408 1 2 3
1233 1 3.047460634842026 10.892230620497799 8.152446757755607 3 2 -1
721 1 4.150965413641647 12.262394450442862 6.531759715548169 -2 0 1
1836 1 1.9657415304940888 12.259107696075068 6.898279584847947 5 1 1
1870 1 1.4199319334060732 12.760870286711977 8.801793313874915 3 -1 0
9 1 5.213972487640318 11.312751781701676 8.167852343484974 -1 3 1
705 1 7.868521047443803 11.013366177916707 5.593770303082645 -1 0 1
49 1 8.548775580305332 13.168973721449976 5.485157697896845 -1 -2 1
526 1 6.653709109846841 9.75907673348449 9.281844070514865 1 2 6
163 1 5.765784541795322 10.721034821394925 6.051467622565798 4 0 -2
719 1 9.164082956911491 10.063916366854894 9.00445904107444 -2 1 -1
669 1 8.152204247025175 13.45466929867558 7.522758800745967 1 -3 0
1784 1 5.907554269524029 13.470948508581584 7.977202520720161 2 0 -2
1704 1 6.369669544498906 12.569739914055571 6.1554249307924325 3 -1 -1
813 1 7.587596954393247 11.306495375515638 7.847309281192171 1 0 1
279 1 9.385888762042253 12.260130361994678 9.095897319858107 1 -2 3
1815 1 6.929979712239966 12.090702095112764 9.656044256039497 0 -1 0
630 1 9.86463163296614 11.65373457572283 7.046141371985465 2 0 -1
1674 1 19.183715575714697 12.472011584182193 10.973536966485286 0 4 0
643 1 3.7539986251923216 11.03861564603132 13.84822602056994 0 -1 0
1050 1 11.396085544880526 10.180609737931812 8.594927347443559 6 0 1
1174 1 12.33869857458803 11.840563107387187 6.818943955301472 1 0 -2
945 1 11.542425083458017 12.489697319619944 8.833954633962549 0 0 1
1768 1 13.491604491062144 10.519771815217519 7.98448770542069 4 2 2
474 1 13.873989813102664 12.672190514080647 8.314037242958054 0 2 1
590 1 14.159680169082359 11.745618378496086 6.090339493222965 -1 -1 2
84 1 14.09574084770143 12.809260808324172 13.713743434057916 0 0 -2
1438 1 16.586841006642906 11.894411000896547 5.43210352684869 -3 -3 -1
572 1 15.426250565891504 10.591144695730934 7.798716612903082 1 -1 0
1511 1 17.572950339832186 10.964710638846526 7.049222269893468 3 -3 1
71 1 16.97130366810963 11.303427836756429 9.014689798483198 2 -4 0
1618 1 16.00632363270696 12.778708165431977 7.643932925842616 -1 -1 -3
579 1 18.483927727222987 13.091823910944889 7.621914603688119 1 1 1
915 1 17.872673765578263 13.732879691357796 9.456802596154521 0 -2 0
793 1 14.896593039015832 11.416816595891484 9.739828114639879 2 1 1
908 1 15.502629864916774 13.607086390414727 9.654120430043756 -1 -2 2
1267 1 21.029619279020878 9.744667475806093 8.285387347661143 2 1 0
1675 1 20.145136578605683 13.81897689010114 9.284291646451864 1 1 3
1523 1 19.77956636480062 11.059006425593378 6.665581912382616 1 0 -2
388 1 19.485569919111907 11.723432582175208 8.966223330996211 -1 0 -3
1713 1 22.22592352206329 10.943674201332692 6.578819677760642 0 1 0
236 1 21.93701659278842 12.020298628492053 8.414995996617936 1 1 1
153 1 20.636279478289275 13.07142538908452 6.943140866037895 0 2 -4
1952 1 22.89283982924602 13.418178499927116 6.5066939975804345 -2 0 0
591 1 22.796248198176162 10.401648248004813 9.687097742777091 -2 -1 -3
144 1 25.14111640968363 13.412402417368018 11.887160338882303 -3 1 -1
1123 1 1.674539391483772 9.852015138801328 6.917129438762775 -1 2 -2
1466 1 26.66496983167501 11.225647031355715 5.432030514351277 -1 3 0
1035 1 25.500404945941522 9.788954497514064 6.971902586842173 3 -1 0
1977 1 27.051128724247164 10.330435737463002 8.801256524527922 0 2 1
167 1 27.037244596457146 13.391098798171589 5.59727955180027 -2 -4 -2
242 1 25.39039458523018 12.324453526124596 9.633446468530567 0 -2 -1
1876 1 24.289357810034186 11.314030426411474 5.657307015576301 -2 2 1
1664 1 25.038894539490602 13.458527219960018 6.16881316040982 0 0 1
1773 1 24.90901783506667 10.141380304482173 9.059543924150098 0 0 -2
1066 1 26.10856086041685 11.634387510563013 7.593947547704991 -1 0 2
170 1 23.97948506358423 12.042001051175431 8.136908132836208 -1 -3 -1
883 1 2.224287346070584 4.073793043320517 11.709947265758132 1 -2 1
1211 1 4.175524316981491 4.958777323729573 13.31920725416211 3 -3 -5
592 1 3.3696755706705113 3.0189616176000778 13.099637004332802 0 0 1
1411 1 1.8064866951684788 4.573117276223217 13.82897347568425 0 0 0
1567 1 3.8036699525615862 2.3763322285251927 11.072636564958506 3 0 0
1980 1 1.5142698815110456 1.8590076477488657 11.66734410390243 -2 1 0
1647 1 4.565016698418137 4.2827189936907715 11.199826064341982 2 0 4
1236 1 5.667979956761926 2.8221538864591533 12.877030149526455 3 2 1
791 1 8.10868509601972 2.4496908433051843 9.84394899105706 0 2 0
1985 1 6.856122469910572 1.1792875105766338 12.233873445705242 -3 2 2
1676 1 9.08562603242876 4.5724130342463205 10.147075709747309 1 -2 1
1284 1 6.008090275799151 2.582538531753252 10.633052754899378 -1 0 5
1081 1 7.536282244986043 3.3287481411410185 12.009260045525934 -1 2 -2
1462 1 8.896328643668955 1.8211093858339151 13.577181503693884 0 1 -1
481 1 9.524683813809917 3.980081177683416 13.438265191695578 -1 0 -2
757 1 6.286977173081722 5.084670367351412 12.66919858625436 -1 -1 3
1038 1 6.906046063169653 4.607108246116507 10.61692792284002 2 1 -1
335 1 18.695273300923372 1.1854817518947776 12.809719908120185 -1 1 -1
1136 1 4.6212075570465405 2.6015375468120236 1.1768308931911682 0 4 1
1419 1 9.577026439603323 3.1179109285226967 11.489993043123139 -1 -3 -2
1225 1 11.860138291556897 3.526469052737271 11.331224454357907 1 1 1
1459 1 11.015088261224072 2.228859734039996 12.994657379370022 -3 2 2
431 1 12.919594449214825 2.397775881914108 12.465986419732696 -1 1 1
871 1 11.783634063102202 4.31176104500944 13.473737268438837 3 2 4
1469 1 13.92856513616549 4.433016469971873 12.796571388799707 1 -2 -2
921 1 10.561006390574262 5.367130407852873 11.5828354032707 -1 1 2
515 1 14.083393923965236 3.5655108028095386 10.814771822913812 3 2 1
740 1 13.527283464795213 1.1924200762868642 10.638394395058668 1 4 0
992 1 22.664140239486347 1.2444733514076876 6.596275391307716 1 3 -1
1026 1 1.130501591723907 13.044057606752176 10.90941067642311 -1 -1 0
693 1 15.878195299785528 1.3394219812530181 10.209241866450297 -2 1 0
773 1 16.145779378676785 3.5627965590705135 10.131481938580585 -1 0 0
200 1 15.28238138140287 2.3719120064413195 12.102223187433912 -3 -1 -1
1055 1 17.296340180113756 2.5339827921256437 11.697625224060756 1 2 -2
986 1 16.115224372487784 4.534447715291707 12.158044334093548 -3 -2 1
1247 1 18.4281524353623 4.5530659208945785 11.758803902396162 2 1 0
1915 1 17.469384378064593 3.123956321697798 13.670223609692203 2 1 1
1436 1 17.737861269755705 5.295110265217333 13.812978851716197 3 1 -2
2023 1 24.592607400319817 14.147241753933963 13.71609005437241 -1 -2 -5
614 1 19.677589384253313 3.354596451690831 13.202742897827074 -1 2 0
465 1 19.604484676028186 2.728175910499309 11.201322708260417 -1 4 2
521 1 21.724529389104944 2.7996670698322603 10.815811714899063 0 -4 1
1764 1 21.805043053300274 3.29727455002526 12.728184772232863 -2 1 0
1745 1 20.706619074426225 4.634126947676693 11.506496884740859 0 0 1
1015 1 22.623397138482563 4.903297965945146 11.25824905480044 1 -1 -1
894 1 20.738116387899897 10.576911320797155 10.356693653467376 -2 1 1
651 1 26.19119842259813 14.004698863563155 2.478872342346737 -1 1 -1
1251 1 10.712452249276161 8.677774637302077 13.482452707169692 2 0 -3
39 1 26.454521652634625 2.9645050873852092 10.019920700117863 -3 0 -3
1215 1 25.408819491252807 1.6795126495472652 11.701265718871259 1 0 1
1206 1 1.1288647739083968 2.305530683081553 13.552079875455235 3 0 1
857 1 24.02152637255805 3.329276975690681 12.35477945151138 -1 -1 0
841 1 26.33538066481044 3.572133783108536 12.169098787619399 -2 1 1
853 1 23.77066471463841 2.7128753476224308 10.361630680493358 1 2 -2
1291 1 24.954065328581027 4.595167257113262 10.394308450366255 0 -1 3
188 1 25.156826036972245 2.1405342586620613 14.0514230604942 -2 1 -2
315 1 27.201384735352402 4.979957404462292 10.175558889279491 1 -1 1
400 1 3.7656337867660845 7.7331300527176365 10.036561964824044 1 0 2
1319 1 2.7936364995558165 6.202437304532714 11.617490394900232 -1 2 -2
486 1 2.375335840161517 6.698881940647127 13.789656589227006 1 1 5
463 1 1.7319480672839282 7.062297901097414 10.148550385673541 2 1 2
174 1 4.702658092396506 7.212627729203472 13.289150726668367 -1 -2 -2
1584 1 5.105892597406865 9.07919474090762 13.322939108311123 -1 -1 -2
1839 1 3.230893799858614 8.551390870490584 11.819995499011668 -1 -1 0
901 1 1.9136294340807094 9.227056194596567 10.267807605134898 -2 1 -1
784 1 5.286624975962508 6.594594725969427 11.121994068721825 -1 -3 2
1356 1 4.353449608369111 9.883596497208979 9.561675200159344 -1 -1 0
74 1 1.1193290148369082 8.000129762665118 12.236293819960302 3 2 2
50 1 8.279146925853222 5.401050880334519 12.415921376474685 2 1 0
300 1 9.549211291926657 6.698124013412168 10.201143784418775 0 1 1
89 1 7.449391411007081 6.841735870723122 10.65681909473774 3 1 0
1327 1 6.791755350864416 7.415106024379009 12.886862985806244 0 -1 -2
897 1 8.955266619646492 7.526367364043475 12.26343446029399 0 0 -1
2028 1 5.302059184254067 8.705253261449462 11.228811241761496 0 1 2
1128 1 8.207737626940602 8.87726965924902 10.929017974907547 0 -1 1
929 1 7.4534641469858 9.313777654233103 12.760908831034325 2 -1 -1
177 1 9.708322281975239 9.925314532449038 12.337896688338924 -1 -1 4
47 1 11.594415295102651 6.934551980033569 9.787342154759239 -1 -1 0
585 1 10.288889958481535 8.92546303100508 10.521585637490169 -2 0 1
1599 1 12.545618610064572 8.745363170771412 9.987244402497087 2 1 3
1228 1 10.186327383028996 6.267654432687721 13.80381653984391 1 2 -1
1292 1 12.672977130659397 5.489033590031308 11.385591557015378 -3 3 1
551 1 12.475211631133543 6.418520397538877 13.23830602606822 4 3 3
689 1 11.265166787788448 7.608927052565481 11.917671472467585 1 0 3
835 1 13.564206548324849 7.674631796068911 11.45021551098892 1 1 -2
1274 1 12.85101135250175 8.598078327297106 13.38000788103445 2 3 3
767 1 26.94261882388866 10.129157647665092 1.443899510425125 -1 -4 -4
925 1 14.834899214444333 6.499885859884805 12.879765992299701 1 3 -3
932 1 14.756008894031076 5.784494554549114 10.793718998697223 -3 -2 -2
639 1 16.9153619339127 5.7738999162007305 10.468214241720826 0 3 6
1045 1 15.57991473141387 7.927482173765217 10.950179078035001 -1 0 0