LAMMPS data file via write_data, version 29 Oct 2020, timestep = 300000

2048 atoms
1 atom types

0.973775104117566 27.37822489587927 xlo xhi
0.973775104117566 27.37822489587927 ylo yhi
0.973775104117566 27.37822489587927 zlo zhi

Masses

1 58.933

Atoms # atomic

1378 1 2.8137439798774038 4.398815124522798 3.421686861432137 3 -1 0
1985 1 1.0872933281538977 1.3530544791928791 1.5023486779994786 -2 1 1
1281 1 2.728286560657968 1.766050396322016 3.972781628964146 -2 -2 1
329 1 2.6328952599457702 2.563731253243872 1.9863750533902738 -2 -2 0
961 1 4.682877640058265 5.271814491541335 4.684097549028908 0 1 0
889 1 4.30593915621397 2.9204583738336485 3.32709967085833 0 -2 0
834 1 1.3335316467860352 2.9427825793471922 5.1927576868918806 1 0 1
462 1 1.3056643201994176 4.811678813464993 1.9412982284809037 -2 2 0
1701 1 4.45310471879589 3.956719192047773 1.3713223660976752 1 0 -2
553 1 4.4625682733941865 1.449519752539478 1.5346594270283929 0 2 1
1163 1 7.206554067826865 4.571031999084908 4.167503439190581 -3 -1 -3
87 1 8.079822107766196 3.4726936140990974 1.9407871445937688 -1 -2 0
53 1 8.570432962675168 2.1639897104376424 3.2264938375921464 0 3 -2
1381 1 6.427512064461992 2.1786218811528437 3.7875478396553417 -1 2 -1
425 1 5.933336541475964 4.640709104157231 2.6152508779937778 -1 -3 -1
467 1 5.4866165344307385 3.351076864665732 5.142483364242307 0 2 0
379 1 6.117382500070813 2.506410951384339 1.4882771049720898 -1 1 0
1106 1 8.456688959773594 5.299856975878635 1.0062726548531666 0 2 -1
429 1 9.365721032830294 3.575802287619112 5.119193794815251 -1 -1 0
647 1 9.398332855520126 1.2445335732058003 4.929663101295043 1 -2 0
1572 1 9.903283100287588 4.589881867730025 2.964764967957234 -1 -1 1
251 1 13.155405102452953 3.0455269842518407 3.5903025419574712 1 1 2
1788 1 11.736156648581845 4.1083607452731785 2.111650222398116 3 2 0
1349 1 11.521809136689596 3.7868848443969347 4.769090552440541 -4 1 0
1483 1 12.546601875432605 1.8841542559470135 1.8283804753479966 3 1 0
1421 1 13.76875902214613 4.967070885144193 2.486063838096727 -1 -1 0
807 1 11.089033851120048 1.9787089362677068 3.8146652916737054 -3 3 2
556 1 10.30727382530778 2.352234534291787 1.9557335120452475 -4 0 0
1039 1 14.101163376625975 3.1654476737346564 1.4760716588379834 -1 -1 0
637 1 14.848716645466615 1.6891683760631326 3.705612118483354 1 -2 2
315 1 14.839061434729231 4.14665210790081 4.55729051754722 3 -1 0
2040 1 16.354435700176953 5.279183164451743 3.40693200845266 4 1 5
356 1 17.2484872689731 1.5644330997046592 3.0436250811417147 -1 2 2
209 1 16.311637021395548 2.1155490992640082 5.340350997446249 0 1 1
1147 1 17.655549141473514 3.75432539582677 3.8139997470892117 -2 2 -1
1183 1 15.673262705702617 3.368689361570518 2.569348755446356 1 1 0
689 1 17.227763558958387 4.475609420924958 1.4295099466875543 1 1 3
19 1 15.448805080424794 1.2547102796716265 1.5690567188547024 -2 -1 3
1474 1 20.977309391195817 2.414956605061566 4.394465562809965 1 3 3
534 1 18.788237847345016 2.5528386851498417 4.957709263992432 -1 -3 -2
735 1 22.595541652907826 2.807762201846606 2.6425482976584007 2 -2 -2
1765 1 20.591386695599716 3.965217657205663 3.5250081597367537 1 2 0
271 1 22.07502551718504 4.4234036277975335 5.060704893020138 1 2 2
609 1 20.330214668522984 4.646100159767314 1.261278264752924 -1 1 2
192 1 18.673910993682718 5.240167653116948 2.9612752576764567 1 0 0
910 1 22.109088874063232 4.873559975434432 2.321531490172011 -2 2 0
1910 1 20.69760248759549 2.2223225321267464 2.0892712824140167 -3 2 -1
322 1 19.24153919713892 1.135887255171026 3.495378476367082 2 0 1
727 1 18.913321824302955 3.0650072781183106 2.189006939253765 2 1 1
1447 1 25.5252164656643 4.5359243224590955 2.774575612416603 -1 1 2
60 1 23.420892937479444 1.7659672194316114 4.202827047575006 -1 -2 2
1795 1 26.86535276608481 2.663231742723269 3.1624447005534795 -3 0 -1
1675 1 24.994223009787618 2.396505610161955 2.9781144254540948 1 1 3
50 1 25.60562764220503 1.679690717914177 5.091244175220422 1 0 -1
1171 1 23.80427539164836 4.349873879277606 3.925605643500494 -1 2 -2
269 1 24.037159185806125 4.4917165402453385 1.2079559315811859 0 -1 0
724 1 27.101614978312085 4.802222277673668 4.4050085215415855 1 0 0
883 1 25.45154030427843 3.951741818058683 5.226411889536462 0 -2 1
1082 1 3.2208467579344173 5.70441995391598 1.5724291560474941 1 2 0
1579 1 3.2473522746313352 6.845025716990225 3.8237151594646126 1 -2 -1
1593 1 3.5517779643750806 8.901548294333043 4.097536790630192 4 -2 0
108 1 2.0468378978801014 8.934519752062194 2.864266752889266 -2 -1 -1
1417 1 4.720595689868422 7.579693741271645 4.842432783595871 1 -1 0
968 1 1.364060558130407 6.49764450750433 3.260007739289719 2 1 1
1844 1 3.597781833170947 8.026304390454897 1.8714322540835258 2 2 3
1509 1 5.049897606488356 6.5687399175044145 2.821767803142153 -1 0 -2
1956 1 1.6050920206595272 7.483434128038384 1.5361104941625798 1 1 0
1942 1 8.225211963260257 6.2305718164967505 3.064979959666782 -3 0 2
1491 1 5.461145792155236 8.850064453457916 3.067542729675322 0 3 1
485 1 6.714514493469409 6.241446093842097 1.3676719137940951 -1 2 -2
832 1 7.307214059885159 8.28137879352675 2.2247535839976154 1 0 0
276 1 8.430197669412092 7.968303074820981 4.129514856016193 0 2 2
219 1 6.610403072226597 6.92555612835474 4.096257440493569 2 3 -2
1858 1 6.109194102544644 9.179901911329058 5.252233537946456 -1 -1 -1
1849 1 9.543308692114012 8.835264137246508 1.6913081283003173 1 0 2
505 1 8.7233949430885 5.939462688753152 5.332521875917929 3 -1 4
705 1 12.87492671223523 5.487855497625077 4.91814966752967 -1 -2 1
85 1 13.881878645488419 6.937368061350764 1.3756350547701632 -1 0 2
737 1 9.884751076374645 6.69513852390917 1.928383939421396 3 2 1
1694 1 12.185756621789762 6.283502630302375 2.6344947209118237 1 2 1
328 1 11.039985902241499 8.291737232048025 3.469722689485378 0 -4 0
1917 1 11.767874232889188 7.806763403570747 1.2971990249134135 -1 3 -5
754 1 10.549918927073362 6.370046950848014 3.9761565759293283 2 0 4
652 1 10.312350280966886 9.4613711693794 5.287372895878813 -2 -1 -1
1471 1 13.490948875636402 8.5289707763047 2.937611878112701 -2 1 -4
1309 1 12.476275430290938 7.790886075593744 5.342068312529666 1 0 -1
893 1 13.046122642946779 9.621758326731907 4.682558023185042 -2 2 0
1536 1 18.470481574702582 8.538505194284223 1.1562972866330674 -1 0 -1
1121 1 14.69158403417736 6.724487626973972 3.878723662475229 0 0 -2
752 1 15.614603703809726 8.403368487572532 1.6535108826914435 -1 0 1
2013 1 17.860655197173536 6.20174731839559 4.586037390069137 0 -2 2
1102 1 16.63198423826036 7.506026492895211 3.192131104010388 -1 0 0
1301 1 16.86075178394683 8.469331170085871 4.996652700397806 2 2 -2
1927 1 17.658461529141753 6.467279259237902 1.2767359827917888 -1 3 -1
377 1 15.488511293307944 5.480480593414051 1.291054721222047 0 -1 1
667 1 15.093008394403215 9.480904944903308 3.7283109745841614 2 0 0
848 1 18.645980803967063 8.046937440716338 3.3088308436451053 0 -1 0
1787 1 21.94586551279812 7.0247348507468 1.9626583194416936 1 2 1
1620 1 21.159760932303463 8.225999651872876 3.550571116774466 -1 -2 -1
54 1 20.940902582813578 8.72778086479381 1.674659086398938 0 -1 -4
1703 1 20.556241960140248 5.9709514109331385 3.9257937968136845 -1 -1 1
884 1 19.754175150906903 6.810856566565151 1.6624678687158712 1 -2 0
1826 1 21.086570735456007 9.622392964690865 5.199759624280871 -2 1 1
790 1 19.749735396089783 7.431217299704268 5.126802602189999 0 -1 1
1290 1 22.868351463743387 6.360313558636359 4.084474974557854 0 0 -1
1372 1 22.72622308820248 9.681921194726296 1.4044804397230242 1 2 1
1671 1 18.858975519272732 9.497604895098144 4.944687284019682 0 0 0
717 1 25.288791300144254 6.276727318046305 4.559502277238689 1 1 3
819 1 23.98988356004113 6.393999552959407 2.11069322033502 0 1 1
1231 1 23.508186945541 8.386876244699254 3.240483391410923 2 1 -2
159 1 26.026911533004316 8.253405573779824 3.5462469432322044 0 0 0
994 1 27.005047955082155 7.105626779402569 5.044151542405712 -2 1 -2
1707 1 24.546474121176004 8.011361093750299 5.259548852008062 -2 -2 1
160 1 24.61332635462884 8.541737017704715 1.1428836136651328 1 0 2
1592 1 26.06916626925127 6.629427246048165 1.7772549070847674 0 2 3
291 1 3.1174912311846583 11.136959697062256 3.355678215888059 0 -2 -1
804 1 3.4695167333693884 12.556707045046183 1.6805376060989392 1 2 1
1269 1 4.042840402444292 10.049724044557475 1.7438132516330798 3 0 0
1407 1 1.3099386455704365 12.006464600124133 3.21016272530637 -1 -1 1
1160 1 2.304820649661562 10.630675490611079 1.3217772521447482 -4 -1 0
458 1 5.098351541508005 10.666562686439075 4.3462742180299685 -1 1 0
602 1 2.665448556375042 12.50967789023384 5.365020456424321 2 4 1
83 1 4.577981842350093 12.851489117928958 3.788251518183575 -2 -2 -1
459 1 1.4360258262950094 9.859830411113075 4.850421953222847 1 -2 -1
1108 1 1.462213294878408 14.127181482072467 1.532269801063892 0 0 1
1932 1 2.6058777666172035 13.618901618883736 3.4647734200218587 1 1 2
473 1 7.957281379773282 13.95096326331351 1.3147181814893913 -2 2 -1
677 1 9.486220924792764 9.958448415062074 3.4244023491584965 -4 2 1
1318 1 7.147389969943754 10.099403620176053 3.494371482464639 2 3 0
1633 1 5.702766213137242 11.390437989684033 2.1551250834520053 -1 -2 -1
197 1 6.280554409131199 13.722253935145638 3.123061640266421 1 1 0
979 1 6.647200766478668 11.812498035287877 4.663719620708678 -2 0 0
1279 1 7.873039765838309 12.016985955151737 2.669979811379366 3 -1 0
540 1 8.63866054144909 11.062305582190834 5.129785002833953 0 -4 2
645 1 8.144983525849177 13.144348492547268 4.661208615978921 -3 0 1
1934 1 7.796943510514556 10.06165423077592 1.6278726082270039 0 0 -1
1181 1 11.930523730675683 9.834367709502809 2.048406041222486 -1 0 -1
1095 1 9.966955601695608 12.556388245225575 2.81135013211028 2 -1 -2
1856 1 11.272372667538129 11.260984170501867 3.6839287449904714 0 0 2
264 1 13.376451342174654 11.025931786171402 3.049627623624955 0 0 2
824 1 13.938941528279553 13.244636642519808 3.8564468409711288 -1 2 4
1322 1 12.54681578860767 12.146272019309764 5.219473336091 -2 0 -3
2047 1 11.939859612583032 12.278701939841637 1.635388787657451 4 1 3
703 1 11.326852261567359 13.887005914761646 3.8533500265236245 -3 -2 2
1166 1 10.004438854416419 11.076613891623843 1.4800784877858977 -2 2 1
1376 1 16.614084744917374 12.939183072957942 1.2523600651375977 2 -4 -1
314 1 17.362348414943106 9.829951135738346 3.183430818033902 1 1 -1
1515 1 14.938245286637788 11.545943721761226 4.717340467207794 2 3 -1
369 1 16.29413417870835 11.95297379248956 3.233963061983987 2 3 -2
1002 1 15.765013301158568 10.55087667839606 1.7977196674483347 -1 -2 1
741 1 18.565841228891586 11.793652304126383 3.6402890788519264 1 -3 1
1558 1 14.296433632689496 12.460557370133563 1.904353647769168 3 0 1
685 1 17.392807844830664 13.110472012971947 4.727216326897759 -4 0 -2
707 1 18.227839100504255 10.847834089834445 1.5769908094315785 -2 0 0
1048 1 17.27237969922333 10.846344343915264 4.993894658240962 3 0 -1
1534 1 15.584236157609968 14.009532830453185 2.6825917433074014 0 5 2
1144 1 18.137985111524486 13.952289214988859 2.1757838329454344 1 0 0
1019 1 21.316564580206297 13.428831839549654 3.71839691743987 1 2 -1
1815 1 19.97395710362793 9.95332254490002 3.1013903040576647 0 0 -1
1551 1 19.832001283331415 12.465960210651486 2.1895348822181555 0 -2 0
1190 1 20.341645425527467 11.559693838297356 4.502032947056094 -3 0 1
1727 1 21.98792739520686 10.421922703243949 3.3790938401726907 1 0 -2
1616 1 21.98670675119517 11.985456781836662 1.9617646312293906 -3 0 -1
342 1 19.340188468808243 14.161250285032198 4.176158136437319 -1 0 0
1384 1 22.74078061666239 13.934731506487736 2.567983657604286 1 -3 -1
1433 1 20.6578312065933 10.726863435720563 1.2636265864304121 -2 1 5
784 1 23.26565919453484 12.184090116782706 4.245303133824846 -2 -2 2
779 1 24.648385077066642 12.295784903330171 1.2569587830696767 2 -3 -1
1505 1 23.21890216540892 9.789636198314533 4.875152726651654 -1 0 2
256 1 26.22638911228156 10.367543824115357 2.536030313258667 1 -1 0
700 1 24.1101056750799 10.462194859581533 2.705436465062377 -3 -3 -2
436 1 26.88614920126767 11.81692346778641 1.1300423869632066 1 0 0
811 1 25.555206639783492 12.290593787891048 3.3947417732062353 0 0 1
1943 1 25.528887670765712 13.38180785037088 5.303901603977386 0 -2 2
1497 1 25.555912719155778 10.064132246838351 4.490446442409004 -1 -1 -3
864 1 26.81337352303867 11.64761158713628 5.181820824992007 1 1 3
1490 1 26.943386064726326 13.95168682632247 3.9741126822970103 -1 2 0
550 1 3.4300550626372672 3.7620639755303293 5.380742238606564 -4 2 1
1325 1 4.128414322809314 2.462566125950758 7.733625043982657 3 -1 -1
154 1 3.296047895054976 4.723203797818998 7.455596082171571 -1 1 3
1738 1 2.429840629259999 1.6837908119510783 9.06058287992167 2 2 -2
435 1 2.1529626210390136 2.762191384306643 7.253223997880717 -3 -1 0
611 1 3.3282158710429535 4.021695835278189 9.430938742493385 -1 -1 1
975 1 5.19821801864676 5.2286193034054405 8.800452052410787 -1 1 1
822 1 5.23154611827682 4.061830760715735 7.018384914441243 0 1 2
631 1 1.1991387812140324 4.442084814867091 6.719623551386831 3 1 3
207 1 1.2333106287873592 3.848942941182011 8.78966998486609 2 3 -2
1404 1 2.3871025839325712 1.2070725584326993 6.0410179214066355 -1 0 1
11 1 4.4486038029875665 1.3297947709869027 5.543704601110186 -2 1 0
821 1 5.561365965399665 3.2460669690863155 9.179871969850101 0 -1 1
1346 1 6.69014299485618 5.27390160585359 6.063405775690579 0 0 0
1219 1 7.0450267065115435 3.813154474557485 7.736999971075137 1 2 -1
1397 1 7.216970832208643 1.3325810508311053 8.863983719385908 1 3 -2
236 1 8.877575390586035 4.766188493735378 9.194781279459637 2 1 1
405 1 7.509165733928809 2.6298822424623145 6.1227100131002645 -1 4 -1
37 1 9.60620637259619 2.7502796600601758 9.292692491055952 0 3 3
786 1 8.866524803094759 4.543716412008163 6.8711541768671145 -1 0 3
704 1 5.951109244621621 1.6552832195308125 6.908999374065538 3 1 -1
600 1 9.314164273965398 2.1610568751024424 7.375282893022539 1 4 -1
642 1 11.228815277146099 2.1566786215429197 6.27567467908717 0 1 1
535 1 13.031075777598238 1.4696095083775196 7.420761609666963 0 -1 2
420 1 10.723384933231092 3.642499325703299 7.454110558308446 2 -2 0
827 1 13.195390971847539 2.9736415547310378 5.820552253068387 0 1 1
1747 1 11.691948184645138 2.206217123834592 8.962018352868439 0 1 3
2000 1 11.218044911160804 4.437330444185282 9.541820753371534 3 -1 1
714 1 12.632699160272276 4.092310456550026 7.826384169003279 1 -2 1
1887 1 10.601486275374304 5.299992316052522 6.025923028783498 1 -3 0
603 1 14.521463591346874 1.209056080658303 5.7579359621378154 1 2 1
1192 1 16.79246848452707 4.252439187397301 5.727274128086758 2 4 1
1340 1 15.136326888706902 3.515454680252153 6.5592301930680454 4 3 2
175 1 16.19536320672758 3.5744324859467236 9.310572052150311 -2 3 -2
1595 1 15.085588829144166 4.827972891538483 8.321016559397272 -1 3 1
720 1 17.17386935779558 1.532632455588384 9.310084949133158 -3 -1 2
687 1 15.529014160970252 1.2282696733422647 7.774583420462823 0 0 -2
630 1 17.371207642820103 3.447327112701622 7.45389249604443 1 2 -1
970 1 14.248655130597914 2.788277766443776 8.291090293251813 1 0 1
1091 1 18.454267459023356 4.365664955938838 9.523798320644254 1 1 -1
1649 1 18.36895613719352 5.35083442561384 6.851978766059415 -1 4 3
1982 1 17.639621124459616 1.415666558124019 6.9283940845124015 1 0 1
879 1 19.591667567905056 4.2237893141888545 5.5235859071347795 0 0 0
976 1 21.319600220584114 3.169396559217801 6.354037540466697 0 2 2
2011 1 19.116044422448475 3.0034574513531638 7.150140725814746 2 2 0
1054 1 19.31876678544247 1.8774219398595933 9.199453387548752 1 0 0
1094 1 20.216796744683798 5.2371697514853315 7.8486491535856215 -2 0 0
732 1 22.21065580841494 1.915499696145492 7.926459045986427 -2 0 -1
1352 1 21.11828830996391 3.656610840839195 9.04174493377296 -4 1 -2
1689 1 22.29570677658898 4.66421260227102 7.499675321412093 -2 -2 2
1811 1 21.75892345861992 1.150811302725259 5.802217042743583 2 4 -2
1156 1 23.589221589623506 3.278694420071332 6.102215192161435 -1 -1 -1
536 1 23.997438273485052 1.0613119155943593 6.510854308046084 2 -1 -1
513 1 25.724466980530764 4.142956493761483 7.487867906956454 1 -1 1
396 1 26.578438870636525 1.9936827238605412 9.484969057184186 -2 -3 1
1644 1 24.682063836660305 2.528745864401538 8.060209771780668 -2 -2 1
563 1 26.386579031029108 1.8750104096386344 7.034922397186351 0 2 1
1741 1 23.44164439451614 3.5207304896616547 9.407953840532342 -1 3 -1
1609 1 2.7043783890747655 7.999700359128706 5.7168332645544515 1 1 -1
683 1 2.3911989481131943 5.605571376282954 5.542921362113016 1 -1 -2
1530 1 4.376546302091345 9.074399036721596 6.863206954635253 1 2 -1
858 1 4.658740752625717 6.302119756591207 6.568058600926689 -1 3 2
1273 1 3.568104385316337 7.3054604187798775 7.926260402819935 -1 3 1
1207 1 3.5075921079979313 9.557639665902954 8.742254435704734 2 -1 -1
59 1 2.002294313267767 9.218802550750445 7.257848719405261 2 0 -2
771 1 1.5190088235650188 6.811571249933276 6.9472990287208285 -1 -1 0
919 1 1.292761637277315 7.719294637011214 8.702808673901362 4 -1 -1
101 1 2.385155287859431 5.915110838458382 9.37044781773317 -2 -1 1
1637 1 8.307129415786697 8.748270797432655 6.136026030947011 2 -1 5
1999 1 7.110203884382628 5.885565484831701 8.149013403975399 -2 -2 3
755 1 5.8570035495003525 9.574630223858568 8.52256880724994 1 -1 -2
528 1 9.095332786569745 6.874108380248442 7.4582551524212946 1 1 -1
787 1 6.764556451703984 7.198586270694712 6.243379257069884 3 2 5
449 1 5.791773008320069 7.588900670181439 8.104113473164036 -2 1 -2
1668 1 7.979247420035051 7.252856013376386 9.532761442084793 2 -1 2
1151 1 9.272755918563808 9.342313060148525 9.589929850906781 2 4 -1
1784 1 7.900987841443608 8.716189755659228 8.129192360387727 2 1 0
1379 1 10.823574345681388 5.910859069598443 8.035395082897358 1 1 -1
86 1 12.609504113898225 6.154015888496512 6.791271384005224 1 1 -2
89 1 9.944926006568146 8.998707212881483 7.55377544783078 2 1 0
967 1 10.047984044267313 7.133892168197344 9.271552620970581 0 0 0
1936 1 10.293034629203673 7.487467289488122 5.819157284006807 1 0 1
767 1 13.60878025484166 8.995313595474078 7.042883651650422 -2 -3 -3
1431 1 12.693904666938016 6.141913099098454 9.242068077188751 1 -1 0
622 1 11.346107166750116 8.814971246292625 9.647557958118032 1 -2 0
127 1 11.774347566913766 7.844032825813239 7.750431209538738 -1 1 0
859 1 13.577653725022834 8.568734764111593 9.43640257589402 1 2 0
561 1 14.557630852277924 7.836625895107882 5.488782331335936 0 0 1
1642 1 16.26722341053727 6.254012083714101 5.806806136761388 0 4 -4
268 1 14.484158090132363 5.654134012538605 6.249950080510799 -2 1 -2
1667 1 16.6000121142578 6.106460640717262 8.165207391006408 0 2 0
1892 1 15.916675346309852 7.7746567723336835 9.674212190630564 1 0 0
257 1 14.525185634450471 7.150546780724199 7.9692830094552995 1 3 1
1439 1 18.22363875800385 8.45817803557371 8.54271483588785 2 2 -4
1891 1 18.250042861965262 7.621873365469841 6.45304685252226 0 1 1
12 1 16.142664086050058 8.009534299322022 7.052241564212217 -2 -1 -1
157 1 17.16160920997627 9.682596151023073 6.983020613149338 -2 -1 1
1557 1 22.330869473462478 7.973018776156412 5.658502556321977 2 4 -3
2020 1 21.837228514380506 6.091164064749992 9.50241714063617 0 1 1
638 1 19.973418024429236 7.405810217057824 7.777371195835295 -1 0 3
1510 1 21.06989485523151 6.032494278839525 6.15595583517675 -1 1 2
366 1 18.696653787069486 6.387952111550537 9.069468250712665 0 2 0
1358 1 22.32752914156878 7.386245231645283 7.566640010690444 2 2 0
1413 1 19.798807880450283 9.433813333668235 7.008669097024064 0 0 2
2019 1 21.603182324139915 8.910582647352609 9.287390740115649 -1 2 -1
1373 1 22.074781846752487 9.604543068528042 7.23332688348303 0 2 1
235 1 25.975124665943028 5.889546779482439 6.52542157383834 2 1 1
1918 1 24.423954520023656 5.622157991740597 8.587200378017208 -3 1 -1
84 1 26.76730229567795 5.876143628642185 8.51987362560151 0 1 -1
1828 1 23.55067758301258 7.7203684729604936 9.081300924403381 0 0 1
1882 1 26.78149996706893 8.584703703625697 6.412948227192652 1 0 1
1150 1 23.688817697332993 5.612631429515034 6.22456367132533 2 1 -2
1251 1 24.77011168676532 7.268111680269713 7.179106530580899 1 0 -3
152 1 25.584531373075023 8.692244032652031 8.5122926388864 1 3 -2
265 1 24.213943052870093 9.194408908664458 6.860776961006446 -1 -1 2
661 1 3.5302625695031367 10.700245756385419 5.814295652852889 1 0 0
1725 1 5.046055571078733 12.881296622326715 6.1151445941162885 0 0 1
367 1 1.327428776192457 10.0121050834225 9.043168127284074 1 1 0
240 1 4.333605129062685 11.391607109105266 7.812601926642264 -3 -1 -1
761 1 2.845401302981819 11.679672832450079 9.10324490149316 2 2 2
79 1 3.3426347286450286 13.32342722314753 7.690500912622984 0 2 -2
494 1 2.030003922048277 11.722440566286597 6.9970060320601055 2 1 1
1416 1 5.021843867666958 11.080262978821587 9.649005317464768 1 3 -1
2002 1 3.380247302671107 13.66466311467167 9.738968573033334 1 2 0
958 1 1.217396842105984 13.795656663396295 8.38014429748026 0 -3 0
959 1 1.2378546300699043 13.753753213262229 6.137006690482992 1 -1 2
324 1 5.385104267058136 13.110387180970111 9.699503725070288 2 0 4
1032 1 5.943737590657847 10.720937961970144 6.483106942505496 2 2 -1
903 1 6.5102168176562545 11.968093076589152 8.232519673451126 0 -2 2
1970 1 9.279559909645577 13.837455098500605 7.434663430354161 -1 1 2
1786 1 8.141562602172517 10.545749621319306 7.252561021801137 -1 1 4
1202 1 8.586414232376377 12.05439684595813 8.639382717049138 -1 2 -2
1907 1 7.521108970985646 12.968345749903355 6.520131177143082 0 1 2
865 1 7.574617618164498 13.913862904754541 9.181282042986394 2 -1 -2
120 1 5.6799794592892 14.103057147086938 7.745085193244592 0 0 0
1604 1 13.61802443871891 13.606521235519873 6.467077903346447 2 3 -1
835 1 10.109356048225747 12.833687512145167 5.424148647480561 2 1 0
1790 1 10.4125298485683 10.762713983914152 8.69732431312407 3 1 1
712 1 12.692105543408568 10.56034533304928 8.791110970889392 -1 -2 4
1161 1 12.029202203045614 10.240161823911818 6.422129543506674 -1 0 -1
1824 1 10.055487030866088 11.435247884360441 6.726449820335925 0 -1 4
1284 1 11.508118830570432 12.749280110746362 7.35759591264369 0 1 3
1940 1 12.453720194111348 12.898150703323642 9.13715964522696 1 1 -1
2018 1 13.801329166435243 11.353374162980067 7.157356981115023 -1 3 2
565 1 18.465710896103616 12.074315870249533 6.49530671814673 1 -1 1
133 1 15.451471000832916 13.214014078027684 5.493034126964867 -2 1 -2
1360 1 15.118981499402746 9.987865173093065 5.983260713989092 2 0 0
924 1 15.36964394036337 9.873430848489537 8.476035943768053 0 -2 1
1354 1 16.559954796551075 11.579774787390257 8.93723983241249 -3 -1 4
361 1 16.120168751188597 11.571177383058185 6.696645058706456 -1 1 0
654 1 17.34330761013686 13.456777232183207 7.925264375809003 -1 1 1
1473 1 14.91937379035607 13.349206588787576 8.033616777084054 0 -1 -1
1690 1 18.144822678382077 10.982692247894734 8.063664228960732 0 1 0
1299 1 14.518157847711576 11.614469700844275 9.51320142056085 0 -3 1
1750 1 22.81131489646706 13.051097254589765 9.566076806782537 -1 3 3
214 1 21.764851422430752 13.25638647383002 7.772922016126048 -1 1 0
1532 1 22.77222211587553 13.607307979779423 5.642521029192075 1 2 1
150 1 21.508255282050285 11.04691470446257 8.492176291349274 1 -1 0
339 1 20.22691700827832 11.475586610685683 7.018328209833225 -1 0 -4
1588 1 22.04251205944464 11.38415394657358 5.967509923301624 1 0 -1
1242 1 19.841901224917486 10.248690127152582 8.960703262027039 1 0 2
1760 1 20.438709981437903 13.310746341542568 6.04630047938915 1 -1 -1
1422 1 19.595702538874185 12.67402729600368 8.66052656058022 0 -2 -1
410 1 23.52998546994783 11.699445577197924 7.667088188161684 -2 -2 -1
1361 1 23.748923803727195 9.880224044094554 8.896602541671893 -1 0 0
144 1 25.65390472883447 12.413927570860482 7.589917919807903 -3 1 -2
918 1 24.584859850775295 11.356772997926827 5.844815897918166 -4 -1 0
331 1 25.98625074533875 10.394557044894603 7.210202545619296 1 0 -1
948 1 26.947453886070498 11.948853932399283 9.1199289262577 -1 0 1
300 1 24.53620361118532 12.152682218106468 9.4870502798092 0 1 1
1125 1 3.208684736499886 1.8236799616646613 12.829051657376215 -1 0 -1
1327 1 1.418705267685663 2.1737431513224825 11.211328323845386 0 0 -1
974 1 1.5563553726244959 4.229327460594249 11.146078342712226 -1 1 2
363 1 3.892307641337208 2.4394145813324775 10.567265921410435 0 2 -2
831 1 5.030721234563191 3.6312469226966417 12.27456914364025 1 0 1
354 1 3.0839383556477893 3.973204338756332 12.741337877887007 -1 1 -3
434 1 6.268865946344853 2.2069412134933355 11.124575783783914 0 1 2
538 1 8.927139661397408 2.1599704565315827 12.01876318337498 0 1 -2
1191 1 7.099408558571996 4.08073784059281 12.31465536087931 1 -1 -2
1351 1 7.893016526671206 3.119449451588759 10.167669293081989 1 1 -2
131 1 9.499795235564672 4.061302001809363 11.155688353503294 0 0 0
194 1 6.6508216910339035 4.940018640165643 10.069402036486839 1 1 0
173 1 8.770569909514238 5.049609630721203 13.25415694994528 -2 -1 -1
1258 1 7.116590532568568 2.0496523551957786 13.537154928581712 1 0 -4
1546 1 10.562803982790708 2.7145580139610495 13.18692181702956 -1 2 -2
650 1 10.516570129612383 1.3757782642912453 10.503333445596711 -2 2 5
1915 1 11.501503949221165 2.9351891259154286 11.006527429870209 2 1 3
2008 1 13.223546410140631 1.7071206406545922 10.312772546946482 -1 1 2
1921 1 13.362513946985988 3.8497214397192145 12.14120032543714 -4 -1 2
1693 1 12.56089633549798 1.870793138911286 12.588044562821604 0 1 0
1060 1 11.285335929836497 4.587098284005364 12.333628472165516 0 -2 -1
1389 1 13.412200878792293 4.043167266549109 9.929560401621382 1 -1 1
1395 1 12.414234674816575 3.721692954475108 13.932575568243113 -1 0 0
1368 1 15.331869414573237 1.6122465716374628 9.99516922304334 3 -2 0
1865 1 14.829013200184045 2.2961144724439295 11.88256785409444 3 -1 1
1971 1 16.88164100320487 2.7762405082178976 11.26286827821723 -3 3 -2
1584 1 15.923266143631666 4.202296914439123 12.869228208687913 0 -1 -2
93 1 15.095200843155641 4.299284251011016 11.052726548366396 4 -1 -3
1913 1 17.885634576665176 4.433715112323249 11.59190647253312 0 0 0
1133 1 16.897386792602532 2.0987225829907654 13.31499654193195 -1 1 -1
259 1 17.954156420328466 4.684301531554067 13.942344185742968 -2 0 -1
135 1 18.689754197086636 1.3659760774267025 11.466222611739001 -2 -1 2
158 1 21.993530131119485 2.0510840030036253 10.43162352616456 2 4 -1
1031 1 18.917335616707973 2.747570056908999 13.145374279736691 -3 0 0
162 1 20.21900328399432 4.970304515863982 10.262401189888417 -1 1 0
1768 1 19.771480927180882 4.678034312369048 12.568578189544276 3 2 2
1428 1 22.972968688262263 3.6596249174047855 13.61524768507708 -4 1 0
1468 1 19.88022902280931 2.7411356277678807 11.248576120531355 -1 -1 0
1842 1 21.64302096640875 4.1140865471419445 11.570166374195072 1 -3 -1
250 1 20.93705107532378 3.1614143675533684 13.466913226870272 0 1 -2
1998 1 20.17098851018372 1.0325644214298966 13.874803941740405 0 1 -1
229 1 21.41548107334593 1.33557389321002 12.34717428731151 -3 1 1
164 1 25.77584060878756 4.3328046110467575 9.931050792335697 -3 -1 1
1556 1 24.842993883619236 2.680248514179451 13.605215203282235 1 -2 3
296 1 24.701255452539463 4.673482935360649 13.93395854233544 2 -3 0
1852 1 27.032506353866292 1.8552555364236492 13.411352188750804 -1 1 1
112 1 24.606155308582387 2.042022918922659 10.321867891264166 0 0 0
665 1 25.966476374759083 3.2801576101745984 11.83133860681658 -1 0 1
1945 1 23.50878715483205 1.7062997442795258 12.480369973475586 3 2 2
423 1 27.197110392425472 4.489269448618387 13.257326181911798 1 0 -1
709 1 23.624668580015552 3.878740167211607 11.46174727801395 -2 -3 0
1367 1 25.6247647339683 1.1366650966078495 11.769882930588418 3 -1 1
493 1 2.1397695286948215 7.411279159479903 14.0824527399122 0 1 -1
368 1 4.463814576548896 5.98348117528261 13.442901826949123 1 0 -5
1441 1 3.8336441417010723 5.575644675284909 11.06443292504744 0 -2 1
1184 1 2.6402378104505795 7.916679809354146 10.257013235852702 0 2 2
697 1 2.3818431528119675 6.08812089602195 12.545762630450367 0 -2 0
1961 1 1.750619431759345 8.326358980244546 12.1539662598657 0 -3 -2
569 1 4.552818393322095 9.042335933335764 10.688789913628943 2 -2 3
805 1 4.818718636287246 7.119321257571439 10.04489563200033 1 0 1
983 1 3.8950661547900283 7.697112734454962 12.415063321676069 -2 1 1
2036 1 6.592598592240352 8.368184132590596 10.246099437979902 -2 0 0
636 1 8.187539805143208 5.989055019052207 11.45622725312091 1 0 0
24 1 6.274451218432231 8.215727994288674 12.805340133310043 0 0 -1
1449 1 8.22297194320856 9.006961531291811 11.643897331837525 0 0 -3
1170 1 8.36445742229429 7.224114455883908 13.354444350501513 0 2 0
409 1 6.017063082756936 6.5524210736129245 11.527090363369702 1 2 2
816 1 6.655205271598099 5.809799768181918 13.800427972666414 0 -2 1
1575 1 7.767701440940817 9.541372369231048 13.960867744254024 1 3 0
220 1 12.887778747126887 6.214247019821661 11.215050604373067 3 1 0
1463 1 9.920932703892296 7.886165287081467 11.266268260180171 2 -2 0
1623 1 10.471645444565803 5.918983518065981 10.740150731991564 -1 -2 1
212 1 10.724559605801101 6.49835833008224 12.655613748698944 0 -2 4
272 1 13.991423776859028 7.903007743391571 11.725029774895896 2 -2 1
1898 1 12.014339627494177 8.278104228898915 11.611866470473034 -2 1 1
971 1 9.835421000578366 8.7457706573182 13.502684625306895 -3 -3 0
1057 1 13.244277456247572 9.583072345482524 13.018406557347763 -1 0 1
1115 1 10.343263731917753 9.75799336244066 11.603529002146102 0 0 0
525 1 12.937497250567313 6.004290749021442 13.47236985841546 1 -1 1
702 1 11.935606599705553 7.92428465814458 13.967918376212415 0 1 0
1682 1 14.407839773494505 6.343162284242418 9.898215176941285 -2 -1 -1
1444 1 14.205708269678164 7.4859973162714875 13.884973946424253 -1 0 -2
539 1 16.63773921637372 5.706141183351265 10.270771282918933 -2 -1 0
1003 1 18.158981180855818 8.689237496930627 12.93858237363828 -1 0 -1
1023 1 14.808340818651294 6.008321950897448 12.28773819853501 -1 0 1
567 1 15.200395633107274 9.684942170014114 10.700872313831049 -1 1 1