LAMMPS data file via write_data, version 29 Oct 2020, timestep = 300000

2048 atoms
1 atom types

1.0959429813384052 27.25605701865531 xlo xhi
1.0959429813384052 27.25605701865531 ylo yhi
1.0959429813384052 27.25605701865531 zlo zhi

Masses

1 58.933

Atoms # atomic

1296 1 4.671354016962809 2.799767787859188 2.025689225407519 2 -2 0
1019 1 3.023782774624234 2.8219543684237878 4.714700867939374 3 3 0
1230 1 2.6477934368693825 2.074199482775533 2.6885165128933655 0 -1 1
677 1 3.078635444553275 4.382106937375959 2.786247724700038 -2 1 2
1764 1 1.268196297264638 1.9187399754956185 5.437012039904122 -3 1 0
784 1 27.157724898642613 3.550203338439691 3.4968553218955316 -3 -2 3
47 1 4.980098817516634 3.937270808004636 4.081648390711569 -2 -1 0
793 1 12.570007185964933 4.840257776853742 1.4328448932931814 3 1 1
790 1 11.2219140583827 1.2420791307195351 5.37457755316816 1 0 1
147 1 9.159369098618908 1.7901140902348405 4.205538639007898 1 -3 -1
1613 1 6.444128958613802 2.4180314612828973 3.2722319977485754 1 4 -3
516 1 7.779919159759579 3.345037720784424 5.049613847430898 4 -2 1
1843 1 8.35984562664866 2.9764104448477404 2.5886723229883977 0 0 2
52 1 7.083790788298473 4.710949176839396 3.2539552287452986 2 0 -1
1841 1 9.704801184597148 4.082504647991863 4.360254412796946 0 3 1
449 1 9.921651007858063 1.6250538341662684 1.9454687381462614 -2 2 -1
1745 1 4.760138410773235 2.6257162048696676 13.950812075642657 0 0 1
291 1 6.431212492023072 3.733203279233888 1.4411791101581108 1 -2 0
1647 1 10.887063276799507 2.831354794193585 3.3987734853662195 2 0 5
1294 1 13.12027463557388 3.383219788380533 3.0442662536698415 1 1 0
1776 1 13.464107727189422 1.8698997920994072 4.63794836844506 -1 4 2
2012 1 13.842284997385477 4.711775543421096 4.788948137206278 3 0 1
1792 1 10.561118795296087 3.980511148235258 1.5242377859544045 2 0 1
750 1 11.295517264585577 4.914783892805949 3.581188533533386 0 5 2
1860 1 12.016362041310764 3.347583332803238 5.023354319603772 1 -1 2
1509 1 14.466051697646297 1.9573349929860835 2.2380568979424806 -2 0 -2
353 1 2.9860514009346595 8.466397835636823 1.3314058245845315 5 -1 1
335 1 25.936654698904114 13.892661672526476 11.17595939831241 -2 1 -2
21 1 24.40010728263126 12.764333929130204 12.060442800811888 -1 1 -3
837 1 15.05011329896894 4.243480629117416 2.3479395254332953 -2 -1 2
386 1 16.367862009292725 2.7534070415665832 1.8170523138134942 -3 3 -1
1340 1 17.220036826623158 4.034273247168665 3.17219562297645 3 3 2
1902 1 15.174483973332253 3.0473737523017643 4.110046815548704 1 0 4
1428 1 17.333491772669312 2.456104503770794 5.149077611331036 -4 1 1
1513 1 16.804210874422758 5.436541785266451 1.3429940064910915 3 0 0
607 1 17.716197994363206 5.198994448009923 5.034478825216797 -2 0 -1
252 1 15.237905281435538 13.833055981774054 2.3187134864915353 -1 -1 -3
689 1 6.289887413182228 13.907505408213417 6.179105485429723 2 -1 3
1981 1 18.447061010347767 2.202917351065918 2.955935493991052 1 1 6
1637 1 19.28252261550724 3.8041718426617512 4.344967615125105 2 -1 5
710 1 21.460016207230957 4.262956250975407 3.700618842884186 0 1 2
1118 1 20.523113080307837 1.964426939101128 3.9053207726507773 -5 2 1
100 1 19.089303820212322 5.05216853602011 2.6560488246485585 -1 0 0
1265 1 20.733274737052128 3.043193563742081 2.024406680096187 -1 4 2
407 1 22.109341866801408 1.1927128935065165 1.592508144871859 -1 -1 -1
468 1 22.29749205971195 4.234922505380684 1.4006373425927072 1 -1 5
983 1 22.958898630115357 2.8397264324917817 3.040485004040794 -3 1 3
629 1 26.663340879696364 4.885950154623979 1.7236932753423995 -2 1 1
164 1 24.76309714530811 4.10554369545881 2.542771013992634 -2 -1 0
441 1 23.976473408488523 3.9740959916034186 4.68085943163646 -1 -2 -1
605 1 25.350350156061275 2.3603542101707937 4.152688697930471 1 3 1
1891 1 26.20012190247013 2.0776044783825034 1.8635321990100504 1 2 2
1970 1 25.957645215597665 4.9425015856665695 4.158321006590798 -2 1 2
632 1 23.39932473709721 1.3886492257575842 5.209279653450619 -3 4 2
1641 1 13.483728176045025 7.341423458963714 1.1947568559198494 0 1 0
173 1 5.032058176077124 5.380591468989909 2.363587800930867 -2 -3 0
1141 1 4.016888499326107 5.504783240143482 4.691732086095458 2 -1 0
1457 1 4.824217934771391 1.4169300034737615 3.9933971345820014 0 1 2
125 1 4.0462813608302675 9.466208954178054 2.911709583641232 2 -1 -1
1529 1 3.2551072962312237 6.837123894225916 2.820467235396169 -2 -2 2
1188 1 4.412115176857094 8.007537793360939 4.381852229150896 0 1 1
1031 1 2.018549878830677 8.61407575910027 3.4496567968439433 -2 0 0
1980 1 1.627891908589123 5.930623588649382 3.4055613494928756 -3 1 0
1260 1 2.3051261729566965 7.171720440923294 5.17460078771694 -2 0 1
294 1 1.2594490082292844 7.28265433672952 1.6577262833336643 -1 -2 0
135 1 5.311568444101001 7.941785213859815 2.290326909290875 -4 -3 3
222 1 9.331931512223058 5.6490198954502935 2.591900009043993 1 3 -2
375 1 5.906159093422974 6.524085870872973 3.9958563958438553 -1 -3 -2
1392 1 6.595681935725373 8.65030202921651 4.046552204091441 1 -3 -1
456 1 8.925187329002686 8.131893655665362 4.728657575649161 -3 1 0
1013 1 8.403271598400115 5.649356628692177 4.807029606278563 1 -1 -1
1483 1 7.7643734320359306 7.118705225120266 3.179903923736127 5 1 -1
2036 1 6.9562503752537115 6.254063579683632 1.5519019880695706 -2 1 3
1997 1 8.372066472396792 9.727352771660486 3.213754283479073 2 2 1
867 1 7.445979710993885 8.545938273471496 1.5171784678874376 -2 -1 2
2004 1 9.70205436002871 8.098153838822627 2.4444042822678416 -1 -2 -4
573 1 10.54804179532348 6.954329059000408 4.229067344166796 2 -2 -5
365 1 11.230916426695485 6.51475606092881 1.834722256723361 0 -2 2
195 1 13.674807978751945 5.888062683909063 2.8815351529435143 -1 3 1
1178 1 10.83278079366211 9.317496822489959 4.010047941963434 3 -1 0
247 1 13.097297611478789 8.881076501743214 5.195954873776745 1 0 -4
1029 1 12.414932427705018 7.698523225200254 3.311669008038434 -1 3 1
508 1 12.486853739073153 6.146928910932637 5.146074167035408 0 1 -2
593 1 14.503884530711389 8.529056611318591 3.1373211865591286 -2 1 4
1875 1 11.660222990627407 8.79883484217904 1.888400592053296 3 1 1
879 1 25.492682470275085 1.2840090369860893 11.515110857909987 -1 0 -1
1523 1 14.309404837038825 7.197348535062712 4.571999466911407 1 0 -2
1557 1 15.631131240508864 5.691269378091527 3.727252126371482 2 5 -4
293 1 15.432395130277055 7.082269921365821 2.069962867332226 -1 -2 -2
1577 1 16.408219470029522 8.52671278314067 3.815641891883251 2 1 3
43 1 17.702891180891974 6.89238910931337 3.4845739861864486 1 2 0
767 1 18.527955838960082 9.30688245588591 3.1717830429660894 -1 -4 -4
942 1 16.003891078672744 9.888070886947244 2.176272430282327 -4 1 3
491 1 15.13599667565238 10.150855211170743 4.481284166143002 0 -1 5
389 1 17.082409360155342 9.441685345571639 5.467102417192025 -1 1 -1
7 1 18.610250067697002 8.01997808985881 4.996476117312401 -2 -1 -1
952 1 19.68694522020283 7.51168903744753 2.455893353109893 1 -1 2
1449 1 22.105710777661038 7.070274176189641 3.52851744783635 -1 0 -2
1016 1 20.647103949468466 8.669030960654329 3.9538814450559223 2 2 2
1119 1 19.847443957555072 6.224392742569623 4.329297493091653 1 0 -2
1233 1 21.70113791102016 8.541717942651452 1.9237286609480104 2 2 -1
939 1 20.95877257169419 5.798965456170692 1.8338763798233972 2 0 2
819 1 22.5640379117795 9.839947505331562 3.514259469604973 -1 1 0
1234 1 22.14120059561882 5.733739082970866 5.408564065817935 2 -1 1
1507 1 24.550553327093667 1.4644573951490867 8.407037626690588 2 1 -3
982 1 23.26476975437336 5.414141198447812 2.973125002016973 -1 3 -2
111 1 25.37106570871275 6.486759092411949 2.5657174845967807 0 -1 1
1018 1 24.14338178328387 6.7181281408455815 4.72584293381447 0 0 0
680 1 24.042470614986726 8.09619772256741 3.071398105545554 -4 1 3
880 1 26.356705093448717 7.530356711622554 4.184606381657639 -2 -3 3
30 1 24.75000276041947 9.44616469931573 4.521509333558502 -1 0 2
1211 1 25.87299323861466 8.740807379836124 2.2333496422029464 2 -3 -4
1938 1 22.86330028356373 8.544752540570897 5.139018006036621 -2 -2 -2
198 1 23.985528796615398 14.13545441041466 10.547012583202275 4 -1 2
1652 1 3.1512244901831488 9.4079112715532 5.131895389554245 3 3 1
766 1 1.6066266997961094 10.01666864266266 1.4947551346041572 -1 -3 4
410 1 4.603436487565619 11.657305674370148 2.7400472982019153 -2 -3 -1
2048 1 2.5793263222942486 10.73783595519674 3.4676669086061302 3 3 0
1213 1 5.385284440903759 10.307875649066126 4.417195371949337 0 2 -2
1990 1 3.473139236527824 11.6989702216526 5.144610965104658 0 2 -2
1109 1 3.399169138544554 13.320026037425121 3.6899025013011233 -3 3 3
1309 1 2.319139585345891 12.44085224316151 1.6156110485362734 3 0 -1
213 1 1.4251921857637364 12.807561729357817 3.9840892183395287 0 2 2
1301 1 12.763236908463748 14.133239147797696 1.1696652647793528 2 1 -1
735 1 7.68133653528989 13.775340548512613 3.7818967781785355 2 -2 -2
803 1 5.560747140531903 12.618421014574599 4.5262004771833055 0 2 4
1229 1 6.13729851484465 10.327014967931998 1.9156773067811406 1 -3 1
568 1 9.260431683938807 11.068190784898835 4.82281049473711 -2 0 2
1709 1 7.170101113130475 11.566276541193176 3.847395313995141 3 0 2
1320 1 9.038658461761742 12.030206037676148 2.8411312739157113 0 1 3
469 1 6.7189837260866 12.674770381637606 2.0841835246351703 2 0 3
1634 1 5.894638770655747 7.797589830462244 13.903370520773565 2 -4 -1
1274 1 9.71306817109804 13.280814213618594 4.430795249840228 3 3 4
70 1 10.342325874059513 10.496492563741727 1.9030861158198094 -1 -1 0
1933 1 11.028942744315907 13.35206082465976 2.266085002350505 1 0 2
1554 1 11.11419455751317 11.617891727504432 3.803588225263852 0 2 2
1897 1 13.08731165816369 10.153258621328135 3.4455734051293243 4 -2 1
720 1 13.019377905593075 12.818822100643889 2.9044898444727316 -1 -3 3
376 1 13.58178614906109 11.492777618954623 4.962850473348684 -2 -2 0
138 1 12.108998154971598 11.588199250697409 1.2901000890954406 0 -4 1
91 1 18.636117284415135 13.917457575992803 12.368209774332524 -1 2 0
1975 1 17.854662797044355 1.3875951524912353 6.881700725416994 0 1 0
1896 1 12.101117926781395 14.120868687159938 10.450985373046887 -3 -1 0
1516 1 14.553147736189766 11.518339069853049 2.752656546103414 -3 0 -4
325 1 16.805236812656602 11.933348490505566 1.7476575622387327 -1 -5 0
874 1 15.459317937748175 12.689391283037478 4.274107749314425 0 3 0
1423 1 17.54826659844879 13.366271150336354 3.57939102662253 -1 -7 -2
749 1 17.046834472316007 10.914950242732022 3.8708220196597614 0 0 2
926 1 17.989528314947847 11.880407836994028 5.4082548103786605 1 -1 4
1519 1 17.968376524381107 10.311009636779877 1.2442291009542812 -1 -5 0
572 1 19.00375758825937 11.554037056879249 3.211919065122501 0 -2 0
892 1 20.28425026333794 9.893217683230796 2.0666635096467183 1 0 -1
594 1 22.10693609550556 11.063996718015126 1.783731098100084 -2 1 0
1381 1 19.48027725292323 10.108803747493573 4.976695061154448 -1 3 -1
1919 1 19.697394069227848 13.172456000902816 4.689916573853708 0 1 1
287 1 21.180373338812522 11.454965188682255 3.937313280797482 0 1 -3
1440 1 20.772128516520567 12.742399206781707 2.1453847253004508 2 -2 1
1125 1 22.547844332230675 13.743968605206382 1.3407381319034077 -3 0 -2
408 1 21.893607250097993 12.931890826880483 5.727264977477858 0 -4 4
1701 1 24.270949963876383 9.585284056505518 10.18511601950465 0 0 -2
1848 1 23.927944670523978 13.699325660364199 4.9218586044215265 -1 -5 3
243 1 23.055012079200594 12.190346461199562 3.1213937183327767 1 -2 -2
40 1 23.55138433745057 11.430663797200744 5.054084562411719 0 0 0
458 1 26.513269359984456 10.350711533886484 3.6578273251113718 -3 1 1
771 1 24.732919718972177 10.755109337201548 2.837987465933846 -2 -1 1
1492 1 24.881269591044926 13.559624360479251 2.901370332435114 -2 -2 0
3 1 25.476459020762093 12.340259876826956 4.506960628275639 -3 0 1
1149 1 26.515637862967978 11.98038556622675 2.1453973319727684 -1 2 -3
1237 1 26.59170794804399 9.505590464964063 13.055414332891193 2 5 0
272 1 1.9136737843279692 4.747339312783193 5.251227182485585 2 -1 1
1824 1 3.803617268958192 1.5940754280543126 6.290357156092064 1 -1 3
2035 1 2.08441662744732 3.1348558628916594 6.832435025171676 0 2 -1
833 1 2.335567506109599 1.9496004251593364 8.666132623490174 0 2 -1
204 1 2.9211704909096508 4.3137745457075845 8.421064829164528 2 0 1
923 1 4.217652091074417 2.5603584618849506 8.235414995027414 -1 -1 2
1665 1 4.111109887611045 3.974108788381238 6.33441143255648 0 1 -2
1217 1 5.003588241201125 5.4329198421158305 7.9057859807747555 0 3 -2
420 1 5.913937772903765 2.4561105686958205 5.55261403695215 1 -2 1
1096 1 25.323388283777206 10.539728908354641 11.720259945214249 -1 -3 0
947 1 6.307687112695618 4.931117534487211 5.829129473782568 1 1 2
1360 1 7.738323878370273 2.245365397084059 7.036854708121871 1 1 1
1808 1 6.2777363698208495 3.6360233075376422 7.574904936738651 1 -1 0
29 1 9.003885975780847 3.091700614812081 8.595223459219163 1 -1 4
1319 1 6.964768928626506 2.278208315200776 9.355076498861141 -1 3 -2
1159 1 8.358871767231282 4.497335468490845 6.96422201182683 2 3 3
454 1 7.670698084372385 4.543812693323899 9.28226177464022 -1 2 3
1368 1 9.891238550424381 3.026006327023325 6.274076077862726 3 -2 1
1935 1 5.546741037691116 3.9408343369793104 9.651312187414792 -3 3 -1
1957 1 24.42728931465151 9.136316940088157 13.73819064139262 -1 -2 -1
221 1 10.09970023091726 1.465084521512273 7.719011558616968 2 3 -2
1777 1 11.004103490095705 3.8045691221826266 7.9317866342657695 0 2 0
1236 1 11.01323738545452 2.4013222178881963 9.685587050533583 2 1 1
582 1 12.282819393455906 2.4068168345951837 6.964491313552555 0 -5 -2
1156 1 12.908449656756252 3.2510271583091694 8.80998310620809 0 -1 -2
299 1 12.635820711491242 4.687126680337016 6.879934352214618 -4 -1 -1
660 1 11.947691804695822 4.968676411416931 9.480303004392635 1 2 1
1874 1 14.28183984551387 3.301851292728942 6.27216890205257 1 -4 1
303 1 10.720202784819326 5.158152084766928 5.898545953207049 0 1 3
1886 1 23.690017716992692 9.490292786770436 1.3839398092397523 0 -3 3
1355 1 16.088144101418756 4.23663262733719 5.642952813673296 -1 2 -2
1187 1 15.582830162970849 1.5119054067073743 6.030561177038935 -1 1 2
1966 1 17.051789212950062 1.429619175773273 8.931795781776504 0 2 -1
387 1 14.641546219966191 1.9660746260664106 8.028378342652545 -2 -2 -2
1663 1 14.958910189330389 4.369001598452066 8.207079805658122 1 0 -1
1308 1 16.422212478820075 2.9454410986944684 7.426776773158929 2 -2 -2
1025 1 17.414564954731702 4.124485939686721 8.974004910199765 -4 2 -1
98 1 18.244972929989537 3.9321898654417793 6.426197636552526 -1 0 2
11 1 18.815719912080013 2.8859345877659206 8.212118191479188 -3 1 1
1321 1 21.707703309145217 3.0137021586181847 5.53921645605283 -5 0 -3
1001 1 19.665112124659906 2.3523951439582955 6.01510757795997 3 -1 3
525 1 20.370756759130487 4.784902467416838 5.8222599843418195 2 -2 0
597 1 22.312183740912666 1.7137177919488074 7.5695555620217965 -2 -2 0
289 1 20.78585199480115 3.554398197241081 7.754633518085433 0 1 -2
1762 1 21.49846386422398 4.985819566782958 9.277460339570903 2 2 5
1725 1 19.347871409146663 5.107765383258754 8.374929198852278 1 2 1
1416 1 21.14745855006136 2.3267049638141906 9.49162675056146 0 3 1
109 1 22.656230660658984 4.635114733657836 6.850577956548619 -2 0 1
515 1 1.2162823396970392 3.542312367448667 9.514066950945569 3 2 1
722 1 27.018096201261898 4.817549791456388 7.520815843365335 1 2 2
601 1 22.775257769333308 3.324328715445301 8.95034486299651 -2 0 3
760 1 25.870205442397577 3.4810280448251985 5.996460198872501 2 2 0
910 1 26.437656443208333 2.0643792099330813 7.646452027791743 -1 3 -2
631 1 24.71012177266931 4.11878847818666 8.371362114588827 4 2 2
1618 1 23.83466317654357 2.735241668737954 6.721471359167431 -1 0 -3
439 1 24.534723061457278 5.301454943065285 6.324272214713006 0 0 2
1801 1 23.502784599218344 5.82416806227448 8.494596477676328 -1 2 2
741 1 19.118046816801666 10.9093928240029 10.317828756129952 1 -3 -1
580 1 24.803062405853396 11.151934181532638 13.868533493426922 -2 -1 2
1735 1 2.9290054534152508 5.757048043117501 6.774418410276685 0 1 2
486 1 5.110865553183092 6.702058874116575 6.122541714218742 2 1 6
1579 1 3.5919101675915077 6.812388906087102 8.496570045695137 0 -2 -1
1545 1 3.442901834384972 8.327878380346771 6.903895251361785 2 1 2
1673 1 2.336260143903411 8.557088138498038 9.095403024299603 -2 2 -1
1198 1 1.6977673483824378 6.205562638961841 9.271206987936782 -2 -2 2
218 1 4.471983491693291 9.658365032769643 8.607147617634098 3 -1 -1
831 1 1.2264051967258114 7.5204347626462935 7.40462348772593 1 0 2
267 1 1.9412942042468113 9.815232233773331 7.365108487309017 2 -2 0
283 1 27.039309340607105 9.23134915240974 5.495563868330035 -2 -4 2
906 1 5.383675691464159 8.99447656552817 6.3361336804444734 4 1 0
1493 1 9.63246370799756 5.6500685601583065 8.125164665489258 -2 3 -1
941 1 7.100534191380074 7.213950995379724 5.7625976691403435 -1 0 0
1684 1 5.460909347253663 7.582749661354193 7.961088180374772 -2 1 2
305 1 7.984878006976391 8.713714690634628 7.494364831686733 5 0 -1
1459 1 9.30937168987609 6.913245688615318 6.508241301451238 -3 2 3
354 1 7.052269899651003 6.073297997469454 7.3953623755366396 -1 0 -3
89 1 8.03867578630716 7.101718703014089 8.920421008595692 2 1 0
1677 1 9.966606372322383 9.491642769665527 6.274798107855693 -2 1 0
1911 1 6.154562517168732 6.463470564827652 9.645960256125006 3 2 1
1827 1 8.596911263026021 10.104207538678992 9.13716130421174 -2 1 0
496 1 6.829541382065989 8.75202682062512 9.543419413450852 -2 -2 -3
1270 1 9.94854989102385 8.393158728179209 8.29588943989365 0 3 0
1703 1 13.374524934395335 5.879936161871412 8.521306535216818 -1 -2 2
350 1 11.388820688445806 7.832364151955081 6.11474743146502 1 0 -1
2001 1 12.122862979482287 9.367811488311032 7.442030975742573 2 3 1
1892 1 11.496005378826911 6.643013994829419 7.747318797731963 0 0 1
1853 1 12.312665085516354 7.928302919303467 9.187543793132363 0 0 -3
1189 1 13.458188468220866 7.4638971472550635 6.9704946205469955 -2 4 3
782 1 14.374758576726808 8.67307413063747 8.767900517656807 1 -1 0
45 1 16.519384580848023 6.94674754827327 5.490620171386386 0 -2 -2
1377 1 16.85680930171084 5.583501117978349 7.25794186740472 -3 1 0
1501 1 16.04989204379961 5.791862045780738 9.658914926116429 -3 2 1
695 1 15.208393424311907 8.564449827411252 6.073391930383824 -2 2 4
1221 1 14.608050079617685 5.5810234323486165 6.512880963050635 0 -3 0
1852 1 17.90914057490604 6.69472204331916 8.900033406802802 0 3 2
873 1 15.378910329048948 7.001664196277772 8.088397827120042 2 -4 3
1175 1 17.359621116844217 7.824501308237084 7.005811156161181 1 4 2
321 1 16.617607178733593 8.19486127258633 9.430447048163591 0 1 -1
763 1 18.50985684329909 9.133177283238851 8.723051158024507 -4 2 -1
745 1 16.35461636273653 9.81772601684 7.478419685768789 1 0 -1
99 1 18.80670403428951 6.427370246843334 6.417917441924188 -1 0 -2
1145 1 21.255188198510986 6.098708001783775 7.571954152312365 -4 3 2
1879 1 21.090393356638977 7.640409489325315 5.8367263710382975 0 2 0
1867 1 19.669948527746868 7.428878535823287 8.06568164028996 -2 0 -3
772 1 21.74310879519586 8.494465205245568 7.6579333137796475 3 0 0
1366 1 19.33430637502952 9.162565186716442 6.761484664738201 0 -1 0
171 1 22.145281410082774 7.541206447612172 9.282504039719049 -2 -2 2
53 1 20.599599769436715 9.013302782493245 9.871622808182773 1 3 -3
1373 1 23.211204970801376 7.105488613172507 6.9054254852512695 1 2 0
177 1 26.53956939205773 6.187362751705062 5.995297951250837 -1 0 4
36 1 25.329896570008984 6.776380289120243 8.113973432084125 0 -4 -3
1907 1 23.79199190463681 8.633085491662047 8.283166063310748 -2 1 1
96 1 25.023238907086338 7.887357668998561 6.207981784422994 -2 -1 -2
1662 1 25.828264707122933 9.319673325591372 7.612418383783865 -2 1 3
845 1 26.31362109239094 7.9848564617304705 9.383614458300642 -2 -1 -1
542 1 1.5068550059547159 11.37764103895786 5.506743834004457 -1 -3 1
300 1 4.457104421582686 12.897798391875778 6.627572845665811 0 1 1
1150 1 4.101231268547167 10.669336533792718 6.7680356712189464 4 1 -2
748 1 4.511759625173065 11.693069180593449 8.685638318713695 1 2 -3
1387 1 2.512915495265082 12.184532783179916 7.503826151552361 2 1 -1
1495 1 2.3445941848938796 13.57084979754462 5.824200964738449 -3 1 1
406 1 3.435301124076332 13.23234164465293 9.438323650895018 0 -1 1
434 1 7.934215915253546 12.42135188184174 5.751194463325267 1 1 2
828 1 7.418817899616963 9.85878185870781 5.609105010729056 6 0 -1
783 1 6.114803077629929 11.32547453714711 6.26711384329642 0 -3 1
1182 1 6.3407955828821985 10.23375216467834 8.322538288244015 1 -1 0
349 1 8.561021259708257 10.907584704152336 7.155871403175429 0 -1 5
504 1 6.633585283415142 12.670009795938856 7.815667486226188 3 1 -2
1716 1 9.289988640320452 12.498299557762932 9.046963721708265 2 1 1
1731 1 8.761935997893962 13.673094977353838 7.304679026630116 1 -1 0
1620 1 5.860743274814531 1.329625039381126 7.515737591643654 0 -1 -3
500 1 10.150503250257348 12.311089095588828 6.620146287400016 1 0 -4
1497 1 12.222349320665051 12.890830853418686 5.550595327692381 1 -2 -1
985 1 11.484624578946846 10.836095332415963 5.747222094674604 4 -3 2
1014 1 10.525645953326862 10.546655165158667 8.221091289176025 2 0 3
1711 1 13.199623397586045 13.661409825318529 8.40042477332402 0 1 -2
1622 1 12.217066416156106 11.825595071399642 7.486713962007296 5 1 2
463 1 10.979370346916962 13.445462053885127 8.233032193035388 2 0 2
980 1 14.008707147522767 10.238706302481035 6.945728617435307 -1 0 1
1467 1 14.273988115574664 13.149977615423747 6.212968161206495 1 0 1
987 1 13.084765308472608 10.241552305142426 9.16918366404397 -1 -1 0
1723 1 20.461932082498365 11.023517460644166 13.717580783916 1 0 3
693 1 16.32705801720416 13.917239659019767 5.893638704017443 -2 1 0
787 1 15.744309405454157 11.451975941762024 6.154618815773624 3 2 4
1759 1 18.20644495179819 10.835260803641482 7.126864347559962 -1 -2 1
1455 1 16.954790785037503 12.590627102190782 7.449802731638185 2 -2 -1
1996 1 17.305811864381326 11.071107894499177 9.271868003676254 -3 2 3
1807 1 14.72155963286833 12.002987602437775 8.092672446920616 1 3 -1
1130 1 2.3159556322589117 9.752811341340198 13.57036519278138 -1 1 -2
984 1 18.475924757793877 14.007862198709722 6.508796546296682 -1 -1 -1
1873 1 15.932250061768817 13.103579811456765 9.943742629020814 -2 1 1
1595 1 19.044525631693055 1.4558465167613583 10.033038846957412 -1 3 0
670 1 21.508616758407136 9.87047795979934 5.739540142824693 3 1 3
815 1 22.303564659477566 10.283571261914744 9.01568871661942 2 -3 3
1418 1 20.216109283563497 10.218674446205197 8.200409820567332 1 -1 0
1325 1 19.024696375588825 12.321155403414275 8.51466822412018 2 0 -1
799 1 20.028756940501964 11.904431129608666 6.259157081159976 4 1 -3
2011 1 20.75954737892694 13.374551296570786 7.811142900186701 1 2 -1
1842 1 22.07421921242186 11.176419666666893 7.1604293471105445 0 -3 1
830 1 20.890444314754035 11.890571566091417 9.59109810957953 2 0 -2
1434 1 22.793661966915288 12.843286233008454 8.889061871971311 -1 -1 -2
954 1 25.065629414308162 13.488652072725028 8.656114304150556 3 0 1
1578 1 23.724075685872634 9.982796313221428 6.701402776509282 -2 0 4
196 1 27.24077097287426 13.670464465311287 8.538413763917013 -1 -1 2
543 1 26.604131301739322 10.02968429865647 9.874163892872742 -1 2 2
986 1 26.244302812083852 12.926399947322798 6.818679808112294 -3 -3 1
1426 1 24.46854093058453 10.960257826304028 8.518751014987146 0 1 -1
1834 1 25.67624804438465 10.773188123732012 6.19132304869327 -1 -1 1
1267 1 26.71520285128718 11.47185344501073 8.268213208062281 2 1 0
1261 1 24.101597456856368 12.498527656663395 6.975755377381795 2 0 0
858 1 25.38648673718661 12.117576681714986 10.187151140192888 -1 4 3
81 1 4.942782190068774 1.435707602958474 9.938401222060518 -1 1 1
1913 1 3.9574376804136597 1.7167745015469174 12.362254753607777 0 -1 0
418 1 3.7268371705682517 3.268391661421493 10.42964301148288 -1 0 -1
550 1 2.490217950652955 3.610175245755672 12.614964704931683 -4 3 2
972 1 4.467063709652015 4.428047313250133 12.219823393829381 1 -2 0
1095 1 2.233977479400977 4.838941950916624 10.840444196303414 3 0 -2
1713 1 1.485711069693808 2.1753481090679188 11.19129656298103 0 1 1
385 1 4.464631897953338 5.613363371286701 10.516939576634378 0 -4 1
288 1 20.23730526539579 12.190230775804073 11.737911454991758 3 1 -2
1681 1 9.004588067032964 1.8065693468281867 10.288775381554037 -3 1 2
1262 1 5.858769924673281 2.70099410988421 11.65755936097886 -2 -1 2
2024 1 8.110641851407536 1.9862630167335102 12.549035460051128 3 -1 0
1920 1 7.016589424656825 3.737902176350927 13.122127347934049 1 0 -2
513 1 7.946796242304344 3.384591958506817 10.868974868181482 1 -1 0
1508 1 8.998223506611264 4.592013596814818 12.408162039188552 1 -1 1
933 1 6.526431210489881 5.023419086942027 11.295789356033342 0 -1 0
1086 1 21.508231372901257 10.743233174527521 11.330741732327333 2 -2 -3
404 1 19.869906172857327 13.855391145778137 10.080276059115803 2 -1 -1
141 1 9.990696831281522 4.453436972668079 9.981654625279523 -1 4 -3
1163 1 10.178649954917766 2.983958084424005 11.790350115675784 -2 -1 -4
1572 1 10.254850910140481 1.388273488432592 13.56967543877308 1 0 1
472 1 12.20372403520409 2.349464766435636 13.221542852202028 -1 3 -4
527 1 12.197414655931826 3.819259709825546 11.168313201832868 1 1 1
1553 1 11.026753971556547 4.256728012737517 13.383280575308525 0 2 0
1555 1 13.612778869536692 2.1670081710776774 10.362642950951116 0 0 4
228 1 12.942563475374204 5.0455557020733455 12.66403838089136 0 -1 0
1936 1 14.14615867009965 4.61972226197875 10.118904703230568 -1 2 -1
121 1 14.220194546653525 3.446402744753072 12.136473897212678 -2 2 0
950 1 10.646655194755132 5.381203761407941 11.774415154521767 4 -1 -3
1988 1 14.563243471632342 2.2398817607608903 13.863614196538336 2 1 -2
1327 1 15.49080120350502 2.9064716045037047 9.769415583213727 0 -1 -2
1747 1 17.812049692826548 1.614784622053925 12.701660717349046 0 2 3
1987 1 15.645310278470756 1.9466503330366702 11.613093069811063 -2 -3 1
1329 1 17.452846436311297 2.8395749756676087 10.71692579173679 0 1 1
1087 1 16.17550205046402 4.4661215579273135 11.273530337132476 2 1 1
493 1 16.66806435469703 3.399553565313872 13.123424935004268 0 2 -1
1561 1 15.094831403413044 5.0346483462252625 13.38740148097181 2 0 -4
966 1 18.018177278105398 5.35543102129528 10.679652758916067 0 3 0
603 1 18.71613734708089 4.033007837857157 12.25561418524957 1 0 1
807 1 19.73657841218546 3.785925243844712 10.30374637743265 -4 2 2
1625 1 22.17700782695573 1.9174738044216841 12.89767530356744 1 2 -2
615 1 19.96728484955699 2.1970872470333944 12.153614288525102 0 -2 -2
754 1 21.067673604017692 3.649665441091261 13.30986010458273 3 0 4
203 1 21.94885350741351 3.3216960543835388 11.10303182967498 -3 2 -2
1543 1 20.71473790394665 5.184253191971278 11.742443342622048 -4 2 0
1921 1 22.84773905123518 4.79998436085309 12.595828412176052 -5 -1 4
674 1 22.26930527620327 12.005152807936527 13.011494847514534 -3 1 2
686 1 23.309506936437728 10.339406626875517 12.161282451515321 -5 1 -2
1269 1 26.130473679980724 12.495100345886849 12.65189875074353 3 -1 -1
876 1 25.80061308801374 5.2793483619697215 9.526391875229594 1 -1 1
72 1 23.536102603477772 1.9172139084635798 10.351402845356912 -1 1 0
566 1 25.051645445186118 4.380842239952026 13.89224052933565 -1 3 1
1546 1 25.377309796138583 2.8963796498806023 9.85335451296877 0 2 -1
1099 1 24.19163532612818 2.9533384541406003 12.329137814700031 -1 1 -1
489 1 24.08458278888024 4.402604470343698 10.482865978019063 0 0 -3
1353 1 26.29413188153643 4.049300615892973 11.28905315039231 -2 2 -1
1984 1 26.393471067544333 2.6948998007379554 13.062662642339378 0 -1 0
1232 1 3.063170923456447 6.032054203811082 12.793092292323324 2 2 -1
733 1 22.731430863675186 6.755031155789577 1.27118388266368 -1 -1 3
1748 1 4.955252502326045 8.036663552563624 10.532820602870496 -2 0 -2
775 1 3.025373605522181 7.341243696278739 10.871861066732343 1 0 0
1828 1 3.6189587219748063 8.195355217013155 12.741563679985003 3 3 1
1208 1 5.2262561070855265 6.567160754501468 12.290217274768093 3 1 -1
59 1 3.519097988909351 9.469430097948315 10.626747678017347 4 1 -2
1396 1 5.817510994428649 9.171788375377576 12.210710427915838 0 3 -1
1452 1 8.353496754222336 5.984291499231819 10.797815354222056 -1 -2 0
1205 1 7.434392024855188 5.974889597554324 13.233395856374631 2 1 -2
178 1 6.933621907127507 7.48901846536852 11.489471018725908 2 1 1
1142 1 8.927083133870585 8.310607075605077 10.793800789194297 4 0 -1
467 1 7.754903914141878 8.603255935720602 13.123855250698648 -2 2 0
39 1 9.060622099713697 7.19045957332302 12.635580588512775 -2 0 -3
1263 1 9.883233580988716 9.298959431344816 12.871185659330033 -2 0 0
1021 1 7.456245835005499 10.26973892929195 11.341701271324514 0 1 4
1151 1 11.17965611840208 9.71069850096633 9.902047283411722 2 3 -2
505 1 10.402469030034172 6.630303039902956 9.97449313769732 4 -2 4
1078 1 12.548080804698984 6.279789185755635 10.792923990535602 -2 0 0
1334 1 11.101012880778567 8.043076490324466 11.44288734918819 -2 2 0
1266 1 13.507803594063011 7.138913037770485 13.135763215485609 0 3 1
762 1 13.265836227848151 8.551030309208624 11.074706340851174 2 1 -2
1219 1 11.468508901696886 6.683443174479559 13.147731232514007 2 2 -2
260 1 12.088796508710663 8.801689693214866 13.454649711845793 1 -4 4
1751 1 17.22022765169944 5.726793708176743 12.940942170655898 -1 -1 1
206 1 14.396251587036545 7.138824104878858 10.125133552326693 -3 1 -2
725 1 13.8136231439313 9.358933466903714 13.254730705239524 0 0 3
205 1 15.720739320230795 7.35005185481463 13.314349397042061 2 2 2
278 1 14.802296380581897 6.014910368681409 11.719017811393407 -1 -1 1
998 1 16.89683876079276 7.131955756616656 11.345190425994092 1 1 1
1514 1 17.845742247988383 8.666968189965385 12.700819693418152 0 2 -1
1113 1 15.244540464992482 8.88115694856029 10.973847267431537 2 1 1
1328 1 17.170788389734447 9.745284652501097 10.940668038972586 3 1 -2
1643 1 21.90493058483284 13.158109130638834 11.174270729256595 1 0 -2
1082 1 22.69153645902393 6.170634106307856 11.068743197701766 0 3 0
948 1 18.681914071592047 8.072879283395661 10.619814551923513 -1 1 1