LAMMPS data file via write_data, version 29 Oct 2020, timestep = 300000

2048 atoms
1 atom types

0.9909430152420047 27.361056984754818 xlo xhi
0.9909430152420047 27.361056984754818 ylo yhi
0.9909430152420047 27.361056984754818 zlo zhi

Masses

1 58.933

Atoms # atomic

57 1 3.344655641856985 4.417586188565956 3.704238675102946 -1 -1 1
996 1 4.176939653078722 2.392814831562668 5.251605282934004 2 -2 -1
1015 1 2.3256297421183607 3.4042040098629136 1.6662165279814456 2 0 0
901 1 2.185253658364374 2.884947086421482 4.808178982203197 -2 1 -1
107 1 2.217205949368833 5.462120151956277 2.0901184836827005 -1 -2 -1
998 1 9.53822750184276 1.6999433414737797 8.050552657757844 2 1 2
414 1 5.245928175046451 2.8054057016763623 3.5090630767562048 0 -2 0
846 1 8.917323623542034 1.325083279027059 5.956763719026317 -1 4 1
777 1 5.789341987851219 5.8277202088512725 3.0892810155974746 1 -2 3
1555 1 5.139693929004575 4.744606847318894 5.092139399313263 -1 0 4
1947 1 8.457379970758677 3.585027292554681 5.109488830038564 -4 3 1
617 1 6.391239842067627 2.481736548138393 5.271444746286914 1 0 -1
1384 1 7.698733869784668 5.665590142564162 2.093029322965648 3 -3 -1
1078 1 7.368594257640474 3.6949155934220967 3.0708148842892395 -2 0 1
1598 1 3.119408393166389 13.80087548972175 10.16200520112378 1 0 3
1632 1 8.867664646741968 5.65672702871788 6.058386436620505 2 5 -3
867 1 6.25378180781154 1.4347097025206799 2.2333803878780634 -2 -1 1
1719 1 6.2058047789707365 10.700220623426839 1.1444497159455298 1 0 0
1826 1 18.788039285638 6.482240811077989 14.037793515997762 -3 2 1
1156 1 10.132829188867166 1.870627448492576 3.8685843838000316 0 -1 -2
926 1 10.713958630500608 3.4404479723435912 4.889928962827646 1 -2 5
1494 1 9.633381644994856 3.8304499014167606 3.1291828436689872 0 1 0
1370 1 10.535914351996238 5.133890188376122 1.529816628534213 -1 2 0
1685 1 11.69998886952025 2.761040430788892 2.5038715233239115 2 1 -1
1950 1 13.898338385323175 3.3215260025870887 2.7101212983624654 -2 4 1
560 1 12.903198113720022 1.114473677844696 2.6295717442554745 0 0 4
252 1 17.964977766046268 1.1809156246524237 11.262376442422902 0 0 -3
287 1 11.58653601618217 4.924418582066861 3.343646377965518 1 1 -2
16 1 7.913910353259236 1.7330614829216562 1.072842370954579 0 1 -1
1263 1 7.901249201730745 1.7686423839248766 4.049347105928889 -2 1 1
135 1 8.656064948301918 1.0602915119680714 10.743669458023966 -3 -2 3
1860 1 12.797961889279879 2.558416556594237 4.318497127752723 1 0 2
1457 1 15.644541350844117 3.4469072036998343 4.391110348355529 0 1 1
888 1 16.029514341661883 3.313713263998461 2.4199667452591433 -2 1 0
1323 1 18.12110191134392 2.719386999329185 1.724087432546785 -1 3 -1
1864 1 14.266153528868099 2.0146241033089325 5.370584327653695 0 -2 2
796 1 23.635374803072224 14.063526817842767 13.49085732743043 -5 -2 -2
516 1 17.33772801824331 2.110726773713212 3.658896543468102 3 -2 0
574 1 15.405676057358882 1.3229542127679483 3.2800115474949365 -1 0 -3
164 1 6.807532487581753 7.086442539279697 1.0882068805473581 -2 -1 1
406 1 20.148096246584487 3.064068013819964 3.7915609766011316 0 -1 1
1439 1 22.462311160218334 3.564407943713411 3.4704984527972624 3 2 -4
1971 1 20.34214053692002 3.1974319635524955 1.565178687479647 -4 1 -2
797 1 21.756052361332735 4.4215416910858 1.5167201401824677 1 0 1
283 1 13.933179610518508 14.163738981238055 6.509860192703251 -2 -4 1
677 1 20.18318731765558 5.016825286240834 3.2168111004263484 -4 1 2
55 1 4.673978544594601 6.543131913104882 1.3475100293341613 2 0 0
907 1 21.911222289220994 2.382446023469292 5.383080275288272 -2 -2 4
662 1 27.297559173906016 2.2454964351672686 3.1638181114453587 1 0 3
210 1 13.953511482226938 13.930425834934502 10.499077251446922 0 3 3
1281 1 27.272510162633075 4.2903526724607985 3.4029215299560955 -3 -1 0
602 1 23.568433100550024 1.719739793297702 3.835469735558357 2 4 1
1162 1 25.118884820772337 2.8825088766308893 2.5817019012423117 -1 3 0
143 1 6.944613358034336 14.063428072489101 3.4341861766693733 -1 1 1
1039 1 24.071832077459554 4.589414869972331 1.8419809281113877 -2 -1 0
1526 1 9.643121425894831 1.9449425784866774 1.8559913915477586 -1 1 3
1575 1 22.989235776727526 2.2803553000849726 1.7781348371103274 -2 2 0
1795 1 4.10178163298262 6.4276872261208196 5.715530869989882 -2 0 -1
1452 1 4.407011838332173 10.149148721438152 1.129840479328801 -1 -2 1
1296 1 5.699923481554357 7.5508926865251205 4.511301945216182 2 -1 0
691 1 2.2637468688708164 7.787579263764425 4.736449198520029 2 0 3
723 1 3.9974871935278555 6.342808134548879 3.50822793787004 -1 2 1
1737 1 4.2648566302097635 8.683383684602084 3.6263666464385067 1 5 -1
1800 1 1.0989690389862283 6.982945932158434 3.2268043174069017 1 0 0
1172 1 1.7447824001528458 9.422773724008916 3.281663473083873 1 -2 1
1295 1 2.1691342951631496 5.650159650546423 5.121975353125844 1 1 0
1665 1 5.420712413638468 8.713645889044617 2.027987066582693 0 0 -2
1910 1 11.302459572874202 6.955636341470073 1.127051781553047 -3 1 -1
1054 1 4.553551022289722 8.607307901347657 6.1050026442742595 2 -1 0
1953 1 7.258498958698282 5.345560754313859 4.549468618101385 -2 1 0
355 1 6.97091307448268 9.423245190441818 4.698700492223496 0 -2 -1
1166 1 7.339225438460819 7.9530455811870455 3.010224464629919 -1 3 0
531 1 9.183077938069967 6.007782134441248 3.8560297967893455 5 5 0
1769 1 6.127008640620883 6.786314966646926 6.875697559942317 0 1 0
703 1 9.36990541021272 8.230747138093292 3.8146936316431117 -3 -2 1
704 1 5.449165043649924 10.404552509982494 3.396251191080105 3 0 -1
1374 1 7.8572608639004144 7.442999033093427 5.145721866187765 0 -1 -1
1319 1 9.949375683110759 13.625451731506436 1.3606313260017138 -1 2 -1
1789 1 11.06258859806908 6.792219659904402 3.0676828091992103 4 0 2
1627 1 14.412278181639891 8.058892061156339 3.7466000312421763 0 -2 3
177 1 12.434116507293357 8.404044279951574 2.5239418848003643 -1 0 4
216 1 13.45481988222611 6.552781872794059 2.6782289599334734 0 -3 -1
1989 1 9.801801790626838 9.021851510943458 1.586221850581535 -2 -3 1
185 1 12.63650257096059 6.84167601416274 4.553586049882371 1 0 1
297 1 11.681475758728824 10.280836875836512 2.1189127492045117 -3 -2 1
1908 1 11.440764657669623 9.02433714839952 4.035393970369059 2 -2 -3
42 1 17.824120487194755 4.591891610236489 3.0926876693366525 0 0 0
95 1 16.89259155103715 5.4218885554505185 4.842546099093115 -2 -2 0
129 1 15.06422047681403 6.5039224910905915 5.127079348217223 -4 0 0
364 1 15.448520614087593 5.57742911361443 3.1153920265290536 0 2 1
546 1 17.008576527109014 6.45169606029456 2.0155949926817374 1 -2 0
1606 1 15.153805311454963 7.498596282008507 1.6237456689148553 2 1 3
2043 1 16.717409272804066 7.501272431364515 3.8222873451149066 3 -1 1
115 1 6.75632177402333 14.115271483356759 13.073497721075398 -3 -4 0
817 1 16.037217384537936 9.50296169977909 2.9411667039243143 1 2 0
1191 1 5.674251335138215 14.163773420811165 1.6594924422859882 1 -1 -2
1146 1 18.027922754100352 8.721107448121824 2.635782063562244 -2 2 0
712 1 19.16982241178873 7.450612899546775 1.4695144627224344 -2 -2 4
825 1 18.712672546418005 6.58145718436717 3.7333893447306066 0 -1 1
774 1 21.03069671154207 6.548036571716526 2.6854068482689906 -2 3 1
1844 1 22.887143242240704 5.736210436158894 3.8127452749299953 1 2 2
1473 1 19.948498437695555 8.513195933009005 3.5352953314162905 -1 -1 0
1041 1 22.733925922399557 7.738508058779418 3.853680420280268 0 2 -2
558 1 23.856919894263427 10.150541866315136 3.595873332123967 -1 -1 2
557 1 20.91478323421628 6.863113756512023 4.74513978003165 0 -2 4
1044 1 7.8089041139549895 1.7807492080412992 12.984067967482602 1 3 1
1096 1 26.300545687449066 6.072631798339248 4.895759480822962 -1 -2 1
1159 1 25.9779402082343 8.199672199572834 4.656075196475614 2 3 4
119 1 22.958109781645817 6.824155125075919 1.8570016045610984 -1 0 -4
1373 1 26.112147685756376 5.112612192219409 1.9800190888632552 1 3 0
1031 1 24.675692483922944 4.881510321068847 3.764983102597599 -4 0 1
1104 1 25.143227999859263 6.858806579955752 2.5146654922801517 -2 1 0
91 1 24.429713123554293 6.86100502194163 4.790985663187258 -1 2 -1
45 1 25.833141960650465 9.010480716260306 2.6870256520084834 -1 -2 -2
532 1 27.02380417226005 10.257356142237171 1.8102187059780275 -2 0 -3
577 1 23.812748365266543 8.8187759632543 2.207540275422552 -1 0 2
1579 1 21.094321536763005 11.645703623535526 1.3765087027267218 -1 -2 -1
368 1 3.25879603533939 10.05100858081384 4.906251818359753 2 -1 -5
1951 1 26.281784696790297 1.1310235543229215 1.8298549110759135 1 -1 2
1978 1 2.3160421367605735 13.845333513296412 4.661600111396386 0 0 -1
751 1 3.2288583319843704 10.906128801375452 2.926096174287731 -1 -2 2
1707 1 1.7500424773317702 11.61455075690898 5.037098029899496 -1 -2 1
1488 1 5.078331588356595 12.207578666556282 6.648537911747562 1 -3 1
1510 1 2.715128387718952 13.024005865102657 2.7063250450993843 0 1 3
1051 1 19.19770340832099 5.1311712805151775 1.1500704087120823 2 1 1
413 1 7.853280629059543 2.266507371766137 9.3320970512216 -2 -2 1
11 1 5.2858172451928 12.451873004192533 2.655787848630922 -2 1 1
1586 1 7.737768399392698 10.43522315886253 2.7621317580434974 -2 -4 -5
1453 1 6.833217782405871 12.012713479362507 4.186581401491718 2 1 3
358 1 7.607786329659268 12.533743668291853 2.1481596330443296 1 -2 -1
785 1 8.415893526285947 10.95856690567893 4.914342279565987 -3 0 0
799 1 6.365578868275267 4.076739583234147 1.295982423209861 4 1 -3
1948 1 9.109131601952424 12.596993907300343 3.5972456989713146 0 3 1
71 1 4.081432157050662 12.407461976078038 4.525759966566506 2 -3 1
713 1 2.315561556557534 11.821509136370342 1.2201573205669578 0 1 1
736 1 13.773157047936806 12.858233298496256 1.3032634622234553 -1 4 -1
1657 1 9.91405155358628 10.589673008981377 3.2912623969565487 2 0 -1
830 1 13.997715834553516 10.038061238463184 2.8105910017158355 2 -1 -2
130 1 11.18178120654898 12.32055543230775 2.760033607996334 1 0 -1
1143 1 12.394399918416143 12.641577648067774 4.6083319276970265 0 3 3
948 1 13.694469526504374 11.81325564065734 3.1907864200050486 0 1 1
1622 1 19.49776623919424 1.360078824265329 2.947489088811352 5 1 2
484 1 24.29390647403283 5.5723851490763945 13.756883834696136 -2 0 1
1158 1 15.918796817432943 12.212813420031695 3.502236102074572 -1 3 -2
1190 1 17.551191669592036 11.155818982207935 2.1000336553266994 -3 0 1
145 1 17.344726185622243 10.55232743215726 4.334347188752783 -3 2 0
969 1 15.387123032644675 11.453712909877963 1.5183824306725007 1 0 0
917 1 16.945492658920184 13.101661711202052 1.7751848892600794 -3 -1 1
837 1 15.013410601683173 10.273539263706095 4.68805880808257 -2 -1 1
1995 1 27.098075098132803 7.49153278533915 1.1012926181539915 -3 0 2
1427 1 2.1535734965299778 1.2445698622342987 1.0117812449814354 1 0 0
1870 1 6.501360564804248 1.3749278319046945 7.632745486606971 2 0 1
1389 1 18.142011536187404 12.548363062294491 3.796142527473724 1 -1 1
1203 1 22.71546089178444 12.232364538707978 2.656371545752922 -1 3 -1
381 1 20.279620005155735 13.270745020268789 3.243040194060956 -1 0 0
579 1 21.930809731730932 9.764944921921566 2.6490688273158485 0 1 1
1892 1 19.508020815262313 10.54181044179866 5.029554935624074 1 0 0
1485 1 21.818134316098693 12.2969585210112 4.590988325004869 -2 1 1
1251 1 22.065668551386253 9.967939951883775 5.0195851917375975 1 0 -3
465 1 19.853247012744376 11.300967629426049 3.2032546505366915 -1 4 3
1259 1 14.946892049692359 1.7155004660637243 1.3353566653302082 -1 0 -3
802 1 18.51281972383878 1.9306245332624288 9.304002182363295 0 0 0
1215 1 25.503417540133995 3.232476820870422 6.892994488783578 1 0 2
467 1 4.198530587395636 2.4122070679141947 1.3736025955983082 -1 3 1
1970 1 19.321259812097374 13.571834309352822 1.4513560636540284 -1 1 3
1048 1 27.22129566050537 12.237270458804094 2.94798639587509 2 1 -1
1686 1 26.19882761514858 10.425931550180781 4.211125148483047 -5 -1 2
1946 1 3.1970977672691503 1.6853931317647532 3.198558118179545 2 -2 0
1845 1 26.000470213596536 13.258264482075763 4.7863770317116465 0 -1 2
1720 1 24.915715226423792 11.932497302726912 2.6914383385666154 1 -1 -1
1673 1 24.194143610723224 9.00422885457364 5.571183681638287 -2 2 -2
813 1 23.895243785817705 12.11368765545687 4.755265660563125 1 -1 1
1959 1 1.7778137467118826 2.1685872979627847 6.870163278001605 1 -1 0
1446 1 3.1755066963322256 3.869502447547146 6.607686005167976 1 2 -2
620 1 1.9753602462932893 4.1332992122660865 8.441758824174578 1 2 1
1255 1 3.5998166978603066 2.1654804063172617 8.259337374418216 -3 1 -1
1518 1 1.083641667631234 4.120606427115114 6.0770002648279045 3 1 0
635 1 4.025780326608691 4.473776280304763 9.032461325434344 3 3 3
1309 1 5.715665514675902 2.271961121707724 10.015788331403744 2 1 -1
993 1 24.294070345947254 1.4982701003802579 5.85849998984434 -3 2 2
1185 1 5.275082008968059 2.930033537699914 7.250653611381376 1 0 -1
305 1 6.373076626083035 3.851187268443818 8.781972000613411 4 -1 -1
1540 1 7.952596711256546 2.918946956093092 7.314629679061739 -2 0 0
1155 1 6.920201939464726 4.63253407114388 6.581153991000038 -2 2 2
1674 1 4.892917004515356 5.245655678413935 7.276845312946244 1 4 0
801 1 9.141723247041046 7.034391351140213 1.8435053548550422 -2 4 1
1121 1 8.660222839266385 4.344038672355083 9.166510635074395 1 1 -2
1050 1 5.382763290344384 5.865211733763207 9.452603262710257 6 0 1
1409 1 10.73393485329385 4.8042853855170256 9.848971024233643 1 3 0
1788 1 9.62876353184349 3.84647216228147 6.918447736268673 3 1 0
391 1 11.080091585576053 5.366466737132567 5.648497841305009 0 1 -3
2030 1 10.757599030395536 1.990500501702147 6.340854421124478 -1 -1 -2
1230 1 9.873706650344843 2.830177400621377 9.812535752231605 0 0 0
769 1 11.333288210590178 3.5198433799940267 8.137710782924959 -1 2 0
156 1 11.663779956462092 1.3887538917580344 8.589599069081306 -1 -1 1
631 1 13.67018218306572 2.5934308458844395 9.331387683831311 4 2 2
1364 1 12.330789023893068 3.6179370613537505 6.2324764391962315 -1 -2 -1
1083 1 13.615914512926107 4.292481105121528 8.111818011511833 -2 -2 -2
1599 1 11.857873188257097 5.531355827173078 8.141268814184894 3 1 3
578 1 13.370136218460445 2.189547269836684 7.359208035898996 -2 -1 4
495 1 18.35352132511845 2.7035110950902244 7.37521067021713 -2 5 1
2007 1 18.536920369651952 1.908603117505894 5.300572854520194 1 -1 1
698 1 14.744257649235166 4.126400226010812 6.10476006354931 2 2 -4
1337 1 17.428427060057814 3.722552953328487 9.189365128225823 0 2 0
111 1 16.914803720396364 4.187289234782957 6.822749110105895 1 -1 1
491 1 16.402035092879295 2.145745352776152 6.231988693904785 -2 -1 4
1696 1 15.592859769693407 2.9583089801951994 8.069558119320641 2 0 4
600 1 18.19992068008355 3.797050854603417 14.052829669822646 1 4 0
458 1 24.894734242066612 10.934107381464974 1.1175808937039362 -3 0 1
137 1 20.82597065920355 4.577968477542951 5.2116139506608254 -3 -2 2
2 1 20.343418314251387 2.7994400872874508 6.558681672018478 -1 3 -2
26 1 22.031939865817897 4.35138747330477 6.92543386517244 2 -1 4
554 1 18.77649761922565 3.9801106556885073 5.196730701510563 -5 -1 0
563 1 9.267176616717926 11.224095293219426 1.2630693474737682 1 2 1
1820 1 19.711652886095493 4.866178850239533 7.410214854007524 3 0 -3
1475 1 21.617352359607793 2.5792643373387496 8.74456678618125 1 3 -1
1368 1 19.819865412738373 3.5545062644679666 9.0732499201779 3 -1 0
544 1 23.998041667571293 10.481160746692646 12.597339746956193 -1 2 0
240 1 23.54529771795874 3.7364458908151463 5.417155967244524 -3 0 -2
1938 1 1.381717738269915 2.782235097944875 9.913663365512237 -1 -1 -2
1595 1 26.75817763578646 2.844148454086091 8.275101691416623 -1 2 0
1878 1 24.05562420962452 4.6584862109129155 7.839749786739189 3 -1 0
1450 1 24.54773985313883 2.7476923827111843 8.803030373630218 -1 1 -1
141 1 23.222800044284313 2.4935645326166913 7.150848711509626 -1 4 -3
444 1 25.78181850438208 3.0062765488183807 4.4878052978476894 -2 0 0
1583 1 24.91109211011372 13.85094084334419 10.556557262740007 1 -4 -2
1363 1 24.7423761617682 5.110048927836876 5.949402282567579 -1 3 -1
597 1 25.418179815973133 2.6650173317175865 10.760522883793508 -2 -2 0
1284 1 24.074195023486283 12.439117116504715 12.131458219705603 -1 0 4
918 1 1.0669473441530413 5.4587498549550855 9.817877595264704 -4 0 -1
537 1 2.4711507875738654 5.829737926091581 7.366068487601516 1 -4 -1
815 1 27.075017235811664 7.268488554491121 6.282225743096812 2 -2 3
2026 1 2.6949224221560604 7.8650369646690095 6.8771119032708175 3 -2 -2
2037 1 27.01094522580638 6.968366324204511 8.392543865270937 0 1 1
357 1 3.6101720866970193 9.426018896050504 8.887510436788904 0 0 0
1545 1 26.217860510198683 5.3572505254272205 7.41858859119335 1 1 1
1311 1 2.6356144024223007 7.172161384601764 9.207346289829033 1 2 3
300 1 5.207156346023649 9.674259635749955 7.56139659141565 1 1 1
76 1 4.684139321606276 7.509374441875507 8.096028370430135 -1 1 1
622 1 7.381155511138761 5.624254404034173 8.284601869950434 1 -3 -1
392 1 8.965273852027554 6.598556909175651 9.715927236204111 2 2 1
1569 1 6.7715624274144846 8.856481801668291 6.684347156138054 0 0 -1
1265 1 9.828693559580518 9.249812920175845 5.503376693945376 1 3 1
1625 1 6.569937075232951 7.464854517088359 9.133503263175346 2 1 -1
1445 1 9.36695748438359 8.459112605932408 9.652639725359066 -1 1 0
166 1 8.351448018960609 7.868421715341417 7.565799220053111 0 1 2
1508 1 10.397741955870204 7.455595737992031 5.536290852674545 1 -1 2
1282 1 10.005589600140883 6.160991211175273 7.825353972235889 -1 3 -1
1923 1 11.695341117877811 7.134014416550133 6.91360405812587 -3 -2 -1
39 1 13.936760390357211 6.698555365944988 8.596468425657765 -2 0 -3
1776 1 10.46773575413741 8.722583834399815 7.612978595238258 0 4 2
38 1 13.715654259184616 8.103062767339186 5.681172186200462 -3 5 -1
1584 1 12.788869549475303 8.605336203204295 8.231622311546987 -1 -1 -3
1557 1 11.218848279438769 7.048841399061896 9.384962433341325 2 5 -4
779 1 11.57586116125399 9.76539694262946 9.54052246649867 3 -4 -1
1110 1 13.775458433772584 4.684105916223416 4.321427247007826 1 1 0
1858 1 16.11810196860809 8.497622491375868 5.764909536101055 -2 -2 -1
1604 1 13.40390913665105 5.890376969286542 6.585157243857955 2 4 -2
113 1 18.173953351136376 8.597524772475964 5.1454852139227265 4 3 2
1460 1 15.548213341921484 5.797609491792281 7.295469638941213 -1 -1 4
1126 1 14.96064472578607 8.188205978143163 7.470859577886583 1 0 -3
1664 1 17.300860499969232 6.97941018906512 6.577852963407538 0 0 1
1292 1 17.945824904181727 5.596994452914891 8.176545302688762 -3 3 1
146 1 16.30302577853078 6.847641552184154 8.896597520739046 -4 1 -3
1571 1 17.349547372049713 8.456359397012985 7.836524478117698 0 1 1
1658 1 22.42913798618953 7.991305935371097 5.9525046012089415 -2 2 -1
1120 1 18.89932417457355 6.0777595204235615 5.834575921432274 -2 0 0
1803 1 20.972336928966357 6.372519490501964 7.130860008592325 -1 -2 1
450 1 19.28498917344433 7.189968113985964 7.818218581694147 1 2 4
1933 1 21.612850529128416 8.428807567084675 8.057561137370577 0 0 2
1755 1 19.951755635180994 8.557943829660504 6.299963058968451 1 2 1
1068 1 21.840140197719947 4.893008024955644 9.03111824392265 -2 2 -2
1184 1 1.3303206223214716 9.070404793446835 8.137514768588877 -1 1 2
266 1 24.588581222897183 6.947343743464771 6.979090493269686 -2 1 2
851 1 26.057700348601024 9.06248070063233 6.556269588062125 1 0 -2
1770 1 25.71401698710276 8.675229418660717 8.904011330277719 2 0 -4
426 1 22.75412092014438 6.426696673989544 8.255296640668192 -3 0 2
1668 1 22.706373132792855 5.965566971902249 5.935362609459784 1 -1 2
971 1 23.77307985187967 8.929038812093019 7.98395910886936 -4 -3 1
463 1 24.877437094030995 6.431982396510059 9.067997498468644 1 1 1
1094 1 24.16574064547158 9.643012963655458 9.973976213043455 -2 -1 0
48 1 20.398609938978204 1.4900255054592475 10.173989112430839 0 2 1
1207 1 2.0988063993098605 13.148501907466002 8.422396814452359 2 -2 -1
1471 1 3.003540863428605 10.276861015020097 6.998148218604332 -2 0 -3
318 1 2.9197321880400384 12.460121964987925 6.613718789815461 0 -1 -1
1822 1 2.6011083032655584 11.45711371479137 9.7025021943657 4 1 -3
1357 1 4.254577893027781 11.460658667166506 8.485729977086091 -2 -3 -1
1589 1 1.3043991245248647 9.674632357588226 5.750700162442465 0 2 -1
1715 1 6.494835000754218 13.846380742170902 7.678112767198988 -1 -1 1
956 1 26.969467907508204 10.853195267146871 9.381518479189863 1 0 0
1396 1 5.489858407255777 10.419272898543483 5.481590091419988 0 3 1
654 1 6.282772096652155 12.939348870600067 9.822023074473814 -1 1 1
191 1 8.561542481362533 10.273591027299167 7.088333733851962 -2 -1 2
1167 1 8.495570252129152 13.726860589290911 5.25391222071921 0 3 -3
1814 1 9.566854327977198 11.987067073262066 6.465095364269485 1 1 1
1973 1 7.534313972504881 9.56043093064159 8.930337415264894 -1 2 1
1754 1 7.573950629885464 12.374083402376677 6.611023441343955 3 0 0
291 1 6.4952867496549604 11.524650094709365 8.411891327741001 0 -2 0
173 1 8.26570791550508 12.740181704866496 8.894780043373235 -2 -2 -1
405 1 10.425553488901487 12.990209710316988 8.55479071014611 -2 4 -1
605 1 10.576328013008093 13.276718254583459 4.969702052101615 1 2 0
333 1 10.966957775542031 10.760318862458554 7.505593206301591 0 3 -1
1239 1 10.989459947982494 11.080416537451049 4.988347983504312 2 1 2
98 1 12.242871880881236 11.615283632608703 6.611791923917542 -1 0 2
1562 1 13.062045277216972 10.666717736751957 4.745041975157999 0 -2 2
1046 1 11.885145977632558 9.22450593018024 6.086580959877704 3 1 0
1882 1 13.62596490536999 12.41109920381403 8.146693881227861 1 -1 1
1214 1 14.381063435964872 12.018779847507263 6.258000473559694 -3 0 0
1081 1 11.993033332543538 11.724707965889792 9.085904910397561 -1 2 -2
1118 1 16.09601085372765 12.700271559166293 5.463521402066909 -3 2 1
1705 1 16.53230551092662 13.340117097686425 9.723613330297677 0 1 0
1000 1 15.909928320001546 9.738337030613259 8.534248907080876 -2 1 -1
1276 1 17.813031497002775 14.159906333818963 7.969017902600302 -2 0 1
524 1 15.359202023721767 11.644823687331463 9.541215575845262 1 -1 -1
760 1 16.064749846220856 12.969160079432712 7.610853746387898 2 1 0
1336 1 16.088198982503165 10.76101709220257 6.611411631763737 0 1 -1
734 1 13.884039401827065 10.026292412354252 7.095429455515237 -2 0 3
938 1 17.663798619257648 11.800310572851696 8.52355853483397 -3 -2 -3
376 1 18.431191168192548 10.074400438642032 6.959820802264585 -1 -1 0
984 1 19.297210370107457 11.03436811050747 10.01891749017365 -1 -1 -1
209 1 21.997217012465526 9.482175377632725 13.431326695355223 -1 1 1
341 1 24.355695010555934 13.9308857597092 3.671939251473952 -3 2 2
1676 1 19.74547618783079 14.030411242630946 7.077547038037487 1 -2 0
527 1 17.8314632854863 12.04068384057286 5.981243525101778 0 0 2
1496 1 19.584839233084935 9.18295620695092 8.58128416585 -5 2 0
1522 1 20.857984486873896 10.29146837422294 6.970166660605445 -3 2 -1
820 1 19.497634390957046 11.911561726087383 7.624179152250624 -1 -1 -2
267 1 22.88027503468961 10.740213419363215 8.616355786650209 1 -1 0
116 1 21.98761568640294 12.354773126858095 6.960836840658133 -3 -2 0
237 1 19.825264853875943 12.491925449794731 5.291383555708695 1 -1 0
500 1 25.110437633511786 10.670278988174402 8.078709206926202 0 0 -3
987 1 23.800906967647826 12.630723307718785 8.880203126181748 -2 -2 0
1062 1 27.15149631465261 13.316229087936856 6.454336531430353 -2 0 -1
1949 1 23.53528668365766 10.873249387549624 6.607312189582768 -3 4 -1
835 1 25.752663771140924 11.506863319534041 6.051398546316989 1 1 -1
1464 1 1.116076632720422 11.373510357157087 7.2288789239868905 -1 3 1
656 1 25.887276811532125 12.755810277950511 8.170757334125124 0 1 0
1766 1 24.165218834895683 13.132119245250392 6.752865915439813 -1 -2 -1
1833 1 5.303552683945931 14.162705566364043 11.344876827401563 2 -1 3
511 1 3.4898601647664913 2.4240881659630222 10.082718875598436 3 -1 0
977 1 4.677440620163042 4.706040877428603 13.034296999360084 3 4 -3
1624 1 1.1853817408879743 2.251718711060856 12.498854695776908 0 2 4
2009 1 2.7943828553907077 4.245685909339134 11.40225750119569 -1 1 -1
506 1 5.4042056148237485 4.349571057946875 11.11782848713838 1 1 3
1739 1 3.865848580306389 2.6394135086295156 12.563917779039246 2 2 1
1347 1 1.813755730584516 4.061202517082494 13.422086878364604 -5 2 -2
883 1 5.131024212111363 12.505392021130067 13.566413057932067 1 -3 1
863 1 7.21119294047989 5.238447590175088 10.473737402675535 0 -1 0
2000 1 5.898824874186989 2.675390718907445 12.318887824591078 3 -1 1
1 1 9.058382640404364 3.698276589595174 13.19893531366215 -3 0 -1
510 1 7.631977164897124 3.13552918472519 11.107176647484641 2 2 1
105 1 9.015987890402027 4.717319319991413 11.431700758010885 -4 -2 -1
775 1 7.081719620972986 5.089521851156494 12.645644638071023 0 1 1
946 1 2.9208481748223196 7.834182098789708 2.1421014003285475 -3 1 0
964 1 24.86616794546748 11.466559665363022 10.257439864858778 -2 0 0
1017 1 21.74167554653706 13.864101542778988 8.356436892902913 1 -1 2
1465 1 11.873341307827062 2.708799905956129 10.394560145763164 0 2 -2
474 1 10.029550094900658 1.9119861186644127 12.381626985615222 1 2 1
933 1 10.904408448713353 4.759029964033104 13.860841304888188 0 -1 0
1416 1 16.6169559023877 5.514041812893795 13.946239802939658 0 3 -1
1832 1 10.908349741951776 3.7959915170067284 12.255681151075729 2 1 2
1387 1 13.423361098179695 3.36353732451289 11.687324110793785 1 1 -1
23 1 12.063577806180284 1.8876701226149875 12.42339640258396 2 0 1
1174 1 12.993328116892906 4.725044050164725 9.995973768873455 1 -1 -2
223 1 12.594826432121607 5.387671615805438 12.14760381444447 -4 0 3
936 1 13.035115219214033 3.669587938431309 14.028399412808227 0 -2 4
1011 1 11.39061405280513 13.994811223075846 6.932575369134441 -1 -1 2
1372 1 14.998757727681113 3.9314698664143846 13.17525282540553 1 2 0
1164 1 14.834431113321896 1.6972319142726082 11.45302875795368 -3 0 3
728 1 14.04278056264356 1.9837704741760045 13.48258186635423 3 2 -1
1092 1 15.196317518776327 4.294913233083923 11.254226621707312 -3 -2 -1
1731 1 4.698254568308531 13.555332001755591 8.534119503164895 1 -1 0
590 1 18.64487322634409 3.4905988201448634 11.017499018660008 -1 0 2
1454 1 16.436661936258698 2.416724653350361 10.30890942328615 1 1 1
1412 1 16.652930484386545 2.5540476166590924 12.384780046598161 -3 1 -1
457 1 17.089902743901952 5.510021609139489 10.267307314541426 0 1 2
588 1 17.254068416457187 4.548328910027177 12.291627982402295 -2 0 -2
1723 1 15.491840381858234 4.710518920685886 9.229738567976066 2 -1 3
351 1 18.1932212318075 1.521910518713033 13.575899009361578 2 1 2
1925 1 7.633071573790763 13.508424748270741 11.13093227573167 1 -2 2
1055 1 19.87029251997774 1.5902033522536456 12.157601977917825 1 2 -2
1616 1 20.945497920788902 3.6296890562363235 10.95627929268335 -3 0 -1
1840 1 20.00254353534855 4.4590202217994515 12.755390641423707 0 -3 -1
733 1 22.001706214420494 2.669328558073304 12.874438941320706 -2 -1 3
1436 1 19.27750606578349 5.612774727227053 9.816878083728813 3 1 -2
1513 1 21.95271148930327 4.947093217388121 12.87583002550082 4 -1 1
384 1 13.255237450366051 13.716487836072954 12.39585754059608 0 0 -1
1466 1 25.743907119033132 13.821705737416256 12.376858051185772 -1 4 -1
340 1 26.89760280861379 3.9361892850832962 11.455469749349605 0 0 0
459 1 24.93759159291549 1.9788844379623334 12.770828094838663 0 -2 -2
1780 1 24.056156524450294 4.076656233460117 12.088308493998696 2 2 2
1912 1 23.066617373155516 2.8121742014370517 10.513740741342101 0 -1 1
282 1 9.084390217895697 14.028790174409531 12.727466761607415 -1 -1 -2
332 1 25.643322461336062 5.65739707088337 11.61162203482645 -4 1 -6
1151 1 7.685457999045583 9.161375891710028 1.0013407386069628 2 3 -2
153 1 25.598592913606808 4.416046386004004 9.69243324975655 0 2 -4
1222 1 19.023117071163966 8.42772254497029 13.071919411502192 -4 0 0
319 1 4.573508271674717 7.775409013224854 10.421551129744952 0 -1 -2
1256 1 1.7104098553666258 9.634966017398467 12.299905500048778 -1 -1 2
271 1 26.970743752978947 7.993966625200711 12.627740284856745 1 1 2
809 1 1.4328607135586835 6.1374280315264675 11.957676121563402 2 0 3
746 1 2.7047325328787957 7.687613571830174 11.795108088405344 2 2 -2
263 1 1.7897884952925425 9.099893545859828 10.196062310100038 0 1 -2
1489 1 3.6269324592027163 5.848812383770183 10.836126032843998 1 3 1
1601 1 3.0343629205854086 6.000591182076555 13.295795534787517 0 1 -1
352 1 20.674267256386813 10.172141798769154 12.088233083524129 1 0 -1
534 1 3.6395198457929334 9.878645273414074 11.214466546599335 0 -3 -2
1142 1 25.5190381056939 12.351183222966174 13.75484212025805 3 -1 -1
1023 1 4.382806409948511 4.552295788604303 1.617164908826335 -1 1 2
194 1 4.602589143557008 7.343409122537516 12.667003611037531 0 2 0
1741 1 9.12337176922993 6.01259969590048 13.490690779591658 -1 4 -1
1388 1 5.980053864648118 6.538694364617613 11.30226550064689 -3 3 0
1261 1 6.700985099219733 7.653299026564288 13.040723475910129 2 0 0
336 1 6.993588324379264 8.707238199469417 10.905478548688984 0 3 -1
838 1 8.450299339946977 6.959122997046594 11.641941585126771 5 -1 -1
435 1 9.142602199995281 9.902486027915547 11.061617741285401 -3 -1 0
1612 1 6.0760679928161805 13.77664589035905 5.372194424697986 -3 1 0
377 1 22.52557571205616 13.317246600889504 10.34719165235044 1 -2 1
893 1 9.074253539603951 8.300228947103845 13.218689358373451 -4 2 -1
347 1 10.74254277925608 6.142701711719581 11.297125240688004 0 2 -3
338 1 10.928895981605647 6.89879914424622 13.374241077734565 6 2 4
418 1 10.613814115683907 8.172862600618888 11.49926145802994 -2 -1 -1
1744 1 12.88744405466106 7.122999412317609 10.558091774022634 2 -2 -3
810 1 12.920643774970296 7.338496224742417 12.567752593209143 0 -3 3
844 1 13.05464850600181 9.267624131407812 11.227048349133696 2 1 0
309 1 26.787813776193474 1.354012736799906 5.2625767980247335 2 0 -1
1498 1 14.666914296715934 6.077655245324488 12.62030350864262 2 -1 2
1179 1 22.144085948418862 11.8860989473098 12.889251318938179 0 2 1
1532 1 14.891799566439873 6.447976459146901 10.468691198381231 1 3 1
475 1 14.937525339074808 8.307621888341078 11.911332864202485 -1 0 1
865 1 16.900422453117123 7.812053766934399 13.946614517940134 1 -1 -3
77 1 16.958838888800365 6.821947223587921 12.015786089543061 0 1 0