LAMMPS data file via write_data, version 29 Oct 2020, timestep = 300000

2048 atoms
1 atom types

0.9839593606034374 27.368040639392273 xlo xhi
0.9839593606034374 27.368040639392273 ylo yhi
0.9839593606034374 27.368040639392273 zlo zhi

Masses

1 58.933

Atoms # atomic

959 1 3.1644899547051524 3.6776829322149607 4.432529410528055 0 1 2
1371 1 4.029297729982594 2.5654812701065035 1.9641498361217544 -1 -2 1
87 1 1.292219993337688 2.7232639624335735 4.61345786443359 0 -2 0
702 1 16.44871268388402 13.887711984218674 12.38323465828217 -1 0 -1
715 1 2.460649793946423 1.7700360970316242 3.220240443353224 0 -4 4
1953 1 2.4215895752171828 4.070571793725591 2.1640861135260456 -1 0 1
1518 1 4.686868181609112 1.741167832064118 3.7871411657640643 3 1 0
967 1 2.985643927138679 6.501133775618049 2.804013625506541 0 1 1
1545 1 6.081129172087294 3.6795537267266876 2.6151626875499816 1 1 1
913 1 7.998897938307806 2.6538408658318113 3.0638327100151455 -1 -2 0
1229 1 9.184909233623083 1.9640591426652918 4.763463359518129 1 -2 0
537 1 6.824099222572434 1.621425728961756 4.905965085503451 1 -4 -1
908 1 6.082040878369308 1.3238929698220452 2.143514924493064 0 -2 3
1321 1 14.761989367031726 1.1849972720226258 12.957836131707344 -4 2 -3
499 1 7.864590900410132 4.952621531260149 2.296050971534479 1 0 3
1819 1 25.084735841904617 11.73120861258851 12.15204056370111 1 2 2
1379 1 9.234321104820955 5.3388936581139905 3.95205861795814 2 1 -1
1500 1 10.062873904950447 3.632149062897328 2.502942424607266 0 0 1
731 1 11.168440825502577 1.9609016377985835 3.4767405056762537 -2 -1 2
1346 1 12.600339676810366 4.371179628664834 2.9228299940838944 0 0 0
1439 1 12.01395399276218 2.7660520722514867 1.7045678334748868 3 2 -4
1768 1 13.3807603924035 2.4493174884758413 3.64323759562469 4 2 3
785 1 26.43936678847261 13.469921274170433 12.049566177595782 -3 0 0
703 1 10.296483877141675 0.9843995995007535 12.944689906433874 -3 -1 1
1618 1 14.22799072449355 3.309425518736763 1.6325551666086153 -1 0 -3
1915 1 14.534850028709466 4.101699304389884 3.5969761053005507 2 1 3
1503 1 15.63942604012721 2.2160191104355973 4.436854602062104 1 0 0
520 1 16.363522552060154 3.120292779026378 2.615486908272846 -2 -2 1
652 1 21.82434175545211 1.4479008666751654 5.247917194049299 -2 0 -1
1191 1 18.142816319694333 4.55986769147137 2.195230717523816 1 -1 -2
748 1 24.258667678875554 1.2243247888789277 14.079492814507685 1 1 -2
16 1 16.34902123235311 4.390116843584283 4.4601837806408895 0 0 -1
1973 1 20.990153722900608 5.825050063058899 0.9882429490750189 -2 3 1
1298 1 18.698615592468606 2.4005297459680373 2.6993506603709516 1 2 -1
1215 1 3.619607918716783 12.367691297925393 1.7837547642099385 1 -1 2
720 1 19.825492442864174 3.881459642843636 3.883388179838895 -2 -2 2
559 1 27.345165172456966 13.028554146144392 4.0041916599909655 -2 1 3
1601 1 22.480686792845233 3.1856828312278482 1.8520962665460914 -1 1 0
1449 1 20.36342415794676 3.8240710056858758 1.8368549833806136 0 0 -2
1232 1 19.707659858463657 6.116309968391807 2.760872395512079 1 1 -1
1880 1 26.930544921846355 1.0503296137148384 2.9086492605057135 -2 0 0
1722 1 21.62913813448658 5.3517536615202355 3.379075949798725 2 1 0
778 1 2.466057805830114 8.354030730502666 1.9265440072881344 0 -2 4
891 1 26.759138905084114 3.305210333539483 2.846508920244287 3 2 1
1962 1 25.558043794400213 10.28167050380738 1.5894878913644068 -3 -2 -2
1102 1 26.569902097353143 4.494874758004022 14.071483704082823 0 0 0
1950 1 25.92998452874913 5.404156135013645 3.472962343494535 -2 4 1
1250 1 24.722446945091143 2.042278113437815 2.3725503954270586 -2 0 1
416 1 23.81298320504237 2.6669919806644145 5.133533910131911 1 -2 1
1400 1 27.048511223672477 5.393861535625195 1.3143417554603343 0 2 3
1941 1 23.756540000596267 4.071558726674295 3.344410374766156 -1 -1 1
163 1 25.137845482722987 3.999107846065008 1.4974783574395183 2 1 -3
1939 1 23.583170840279486 1.2899301470436364 6.902872483554446 -2 0 1
571 1 7.9175172017024815 13.598826967589115 9.914191894531735 1 -2 2
888 1 4.568850148699477 7.159089992496213 1.5209632378784987 -2 0 0
1865 1 4.311504566307496 4.639318397550155 2.8692265511366237 3 -2 2
1703 1 2.9940667975533835 9.501123295704033 3.5957094674156322 0 -1 2
2031 1 1.8727763067723768 9.144658977087113 5.75949924814467 -2 1 2
639 1 4.528689943160565 7.729934091993572 3.9260875965289217 0 4 6
77 1 5.934280432551679 6.014250891399718 2.3736181395614686 0 0 0
885 1 5.954820043461372 5.7415651744071505 4.667876464481704 1 -1 1
985 1 1.6111447091191973 5.13675621611878 4.039457411635125 4 -2 2
2011 1 4.785580235887544 9.297483497676629 1.93764475362616 2 2 0
1062 1 6.645722187541767 7.822855212853626 5.07224654948007 -1 0 -1
1320 1 7.754363884174846 5.84150317708173 5.78967996389208 0 1 3
586 1 8.319523045847685 8.49591306736014 1.4690484555259486 -1 0 0
961 1 7.8187764571789735 6.6851558972244165 3.3256709147592627 -1 1 0
1164 1 9.44931837565822 7.23833668863475 4.843884179887587 -3 0 3
1864 1 8.156496464889287 8.934220202890515 3.7038161734419033 0 -2 2
123 1 12.792497948660598 13.88889780158152 2.9995404613701524 1 0 -2
1126 1 9.826001758266734 6.485187254659714 1.8080027669830725 1 0 -3
1316 1 5.8868762109363075 9.66725697853149 4.1927207527812325 0 -2 3
469 1 6.359065543614219 8.142122966348047 2.5037385011432676 1 0 2
463 1 24.365923420712683 14.151091797796868 2.5843865470666074 1 0 1
2007 1 10.375423096125393 8.105918214253972 2.9093689551425896 1 -1 1
270 1 11.208298427467044 4.965168469573378 1.2132631411338461 2 -1 1
1877 1 11.161524545405326 5.81231145954655 5.491587935281535 0 3 3
566 1 11.196442917576096 6.148294811043115 3.3609708018072535 -1 3 1
854 1 13.99707499327147 5.674331802163754 1.9182036908976086 3 -2 -1
1095 1 12.870508374203677 7.874244669104713 5.491677295438083 2 1 -2
979 1 12.206381392724426 8.738050436910285 3.1837323091509666 -1 0 1
183 1 13.236068503033033 6.921325584499793 3.633850243073988 3 -1 -3
532 1 10.795246388832672 8.932870847605468 4.863820300212163 -1 0 -3
1592 1 4.345885884873706 1.3747435205890548 10.141244165622686 1 2 3
1613 1 15.997089824148572 5.41687009396432 1.8728962245499323 0 5 -2
1240 1 14.790689159820602 7.7609623660929055 2.0339967003591664 1 -1 0
1196 1 17.490352276045613 7.527170069377661 1.663805391690115 -2 -1 -1
1292 1 14.172923290297298 9.132782550472564 4.052048213173798 -4 3 1
1541 1 17.43606642435082 6.21551003904913 3.5059303533133943 0 1 -1
280 1 16.190689050295127 8.00767634728167 3.3971360941915867 2 0 0
2019 1 15.17215447027103 6.208830528714661 4.01404766804137 0 1 0
1673 1 17.107359320708703 9.625600361950886 1.380956981128604 -2 1 -2
1436 1 21.071549837580278 7.564379395666863 3.9576338664677158 3 1 -1
498 1 21.474849093174342 7.930724854975606 1.851024784674737 -4 2 -1
1383 1 19.234511782228168 8.551183156710373 3.0546786871288485 4 -1 2
1157 1 23.12191423743252 8.941772856236843 3.483562090414964 -2 0 -2
470 1 19.73735998299491 9.275852025354741 4.89476388758622 -2 0 0
538 1 22.797866150504852 6.935621121551181 2.9187562370251907 -1 1 -2
1648 1 21.383792279459016 10.239506400503796 3.2001917321997095 0 1 2
966 1 13.98744977362684 9.29667490652709 13.543393829441904 0 2 0
1713 1 24.14920897040797 5.054224643681775 5.143728985265185 -1 1 0
1019 1 24.707401970455365 6.190191803974845 2.129486165850831 1 2 0
187 1 25.00057584760585 8.2570706228168 2.5867839935112107 1 -2 -3
1698 1 27.026089952495724 6.974998440330082 2.85592042143053 2 2 1
486 1 24.37824619600447 7.067763275355818 4.306174838956663 0 1 4
223 1 27.03551743238686 9.278574106307149 2.8128042046450656 -5 0 3
338 1 26.1823235061292 8.465909965802282 4.744802847278999 5 2 4
1470 1 26.52970484114902 6.033553722347986 5.317164649000583 1 3 3
239 1 24.864551668506543 10.250474280359091 3.496455830824494 -1 0 -1
1933 1 23.278089166000925 10.863688187708147 10.893387155126984 0 0 1
124 1 27.086882848382963 10.824782945312341 4.810313177493843 4 1 4
496 1 3.2331683720924 12.624001975566363 4.088441920182456 -2 -2 -2
1244 1 1.8501824535439746 11.229923593298723 2.7861934977434553 1 0 1
927 1 4.504920980524005 11.10309548920722 4.119379397144784 1 -1 1
1712 1 5.387270723905502 13.36040278679256 3.4728659758916645 2 -2 0
1530 1 2.3285230142867253 13.563870679524532 5.76770790985105 0 3 0
643 1 26.62312449621063 13.974766350500243 13.978687183624848 0 -1 1
534 1 20.477221620135353 1.7922557834100035 2.1550816449639214 -1 -3 -2
1485 1 4.11444688954661 9.368128995062891 5.329825044583044 -1 1 1
1965 1 25.061893191544115 9.941848606761988 13.449193663607808 0 1 0
515 1 1.8614808816059942 13.241494367512148 1.9368261496863663 3 1 2
1605 1 9.981226861405425 12.17557764846569 1.7874395827891871 -1 3 -3
238 1 8.167618553066717 10.71969572177738 2.9373482991715125 -2 0 1
790 1 5.822649802123034 11.079449709215247 2.559765053926749 1 -1 1
773 1 19.530069299383534 7.33388393990409 1.1636943177065846 0 0 0
1982 1 6.755429630265099 11.819393577122039 4.6760701131044256 1 0 1
220 1 7.459247111041214 12.414978879610258 1.307836321701889 3 0 1
877 1 8.273399630967244 13.001229843891666 3.063352914516905 2 1 3
1223 1 8.831405978064172 11.19729331590079 4.802315169982076 -1 -1 1
1461 1 13.914677933724478 1.3850114023138314 5.6547162086101705 2 2 0
1926 1 26.086926020931088 11.384458603686886 10.105311334414152 2 2 0
1398 1 12.10970997178496 11.652584399401409 2.458424855040959 -4 2 -2
1520 1 10.332754607784864 12.486886667244372 3.815557772922485 5 1 3
644 1 10.335341636718576 10.208610937737937 3.2560594115181773 1 -1 -2
11 1 19.92233658050239 1.5441898117963346 4.353009899419485 -3 1 1
400 1 12.44201391074984 10.128600543929487 4.6842478120838 1 0 1
311 1 10.771351389472525 11.02951053462917 5.428846861254637 -1 1 -1
352 1 12.195242838974835 12.649244609562853 4.639877574657403 1 0 -1
1472 1 13.702712218849587 10.227457690220554 2.19337672147284 1 0 -1
914 1 13.939771682691578 1.1378157601152035 1.5648670421891469 2 -2 3
898 1 4.805537699652445 6.564502400537485 13.737631062934277 1 2 -1
1954 1 16.534790716082156 11.635345749140697 4.6086529058960375 -4 -1 2
786 1 15.618152271016703 10.469131544440124 3.0537909777632986 -1 -1 4
987 1 14.0952832664853 12.137866797043907 3.490112659346874 -2 -2 0
368 1 17.214510773192693 11.804507816431258 2.428004606031483 2 -1 -5
1615 1 15.99155635523569 13.307701304471925 3.1214928815541185 1 4 -3
1311 1 24.62096707797825 12.817415477885772 10.435010768268702 0 2 2
845 1 2.544184062019739 13.376507173462215 13.060587395279235 -1 -2 -2
699 1 24.577370877623196 13.06101781769235 13.839252499228937 -1 1 2
539 1 19.397907676596283 12.937676865239537 13.54778824157748 -2 -3 0
1552 1 21.692563033419475 3.1898236266026516 3.869289616291288 -2 2 0
609 1 18.536496233805863 12.435592601952886 4.093889855757258 -2 1 1
425 1 23.063728327356728 13.402818578859678 4.491652704851713 -2 -3 -1
1145 1 19.424311745273805 11.165948470370141 2.072554279567742 -3 2 3
740 1 21.771128299138574 12.289314303724279 2.934017484840217 1 3 0
1280 1 10.38417832659217 14.12351780001999 2.4578167080114617 1 1 0
1481 1 17.924314676841433 10.287058185587082 3.441568811166454 3 1 0
1193 1 20.73829631146075 13.832163136045567 4.801034244839185 0 1 1
594 1 18.39005592207348 13.281897771218965 1.4659879065102586 -1 1 -1
627 1 20.161874819384913 9.495492002311984 1.016484885513257 2 -4 1
1704 1 15.743757371967273 1.0647093499626146 2.950438565316551 3 1 1
1736 1 13.514223982926232 11.392867437287258 14.045328356652961 2 1 2
50 1 11.716726659020287 1.0063613745680204 5.158334652129805 2 1 -1
847 1 21.500314448782277 5.4152863833600655 12.95553875134038 1 2 1
1427 1 22.99062890598603 9.959700094237387 1.8407251327069405 0 0 0
1753 1 23.160201486755874 11.14900779496684 4.338580422772008 1 1 -2
1633 1 24.08329566160048 11.940480082652012 2.404575674132237 -2 -2 0
1516 1 25.264228473603183 12.389178301468142 4.089013982580253 -1 0 -3
971 1 27.29959380615167 11.811535011800244 6.677265596439927 -4 -3 1
792 1 26.289488903153746 12.303086855632491 2.2225404022088653 -1 -3 1
1087 1 3.671462966078554 5.602824866273237 4.752079385817824 3 1 2
38 1 3.1219208989117644 2.01930509660808 5.641242370624535 -2 5 -1
1437 1 1.3723770970530824 4.486521104883135 6.225881660418132 1 1 2
175 1 5.23658689694795 5.087333817853637 8.319356222749862 -1 4 -3
116 1 2.687600012373262 4.104250669737706 8.120801082117483 -2 -2 0
1008 1 4.041280915421543 4.2863795006701455 6.44831500665289 -1 3 -1
1179 1 4.8962443985296735 3.179466013722344 8.821007431318911 1 2 1
1882 1 1.0598582812341393 2.1762036144307233 6.760563529031229 2 0 1
802 1 3.224796589405163 1.7999184950553688 8.15647751556019 1 0 1
1323 1 22.36923558566928 14.06678259633298 9.54842768532581 -2 3 -1
1454 1 16.228699800596168 12.246076974036733 13.595367067498348 1 1 1
1726 1 5.223131929558094 3.6782036394679674 4.816014784514868 1 1 3
1072 1 9.869677836587629 2.87349804515734 8.825462386351173 -3 1 0
752 1 8.09303702702707 2.4870068287141516 6.4952290417083045 0 0 0
867 1 7.039223241622974 2.890241880827921 8.370832816392316 -2 -1 1
1455 1 5.316253511945495 2.7166701735087804 6.842910579632196 2 -1 -1
841 1 6.402349526309224 4.341476510166608 6.463230920418152 -2 1 1
1209 1 7.356348084114728 3.8139599127396986 4.577728760331891 0 0 1
1385 1 8.253050835215479 4.520681418935132 7.809500998808144 -2 2 -1
1944 1 5.698398073863076 2.5969474813086038 13.57730205346866 -2 -1 0
1788 1 9.29531262999098 4.367775468920301 5.812820740993302 3 1 0
1287 1 9.189413955340699 1.3532124857388714 10.642971427807204 3 -2 0
339 1 10.900735703751078 4.085023647422894 4.25739836083403 -1 0 -4
1483 1 11.737171463796921 4.534477992139701 9.227012883262589 4 1 0
178 1 12.570392087492321 3.166771451859372 5.730678815489901 1 1 1
350 1 12.174372547243607 2.765152693302527 8.01500359200664 1 0 -1
1540 1 10.569214455523046 2.809378389886125 6.366196087481376 -2 0 0
241 1 12.787655997493445 1.8589863715172532 9.860681835430604 -1 2 -1
1009 1 13.243647514584355 5.132693308419401 5.05961082123474 0 -3 3
1205 1 13.124626981558333 6.273455127184309 8.806659857345117 2 -1 -2
82 1 13.867074324123724 3.9358888451046927 9.127852540328458 1 1 2
1989 1 13.17365586078748 4.284042758259218 7.237261384169052 -2 -3 1
1256 1 14.356223300230546 2.415964643738289 7.777288551309338 -2 -1 2
1066 1 17.72169009643043 2.7092967086872823 4.8714362880019975 -1 1 3
1281 1 14.648370808987309 3.529857892478994 5.820358700775733 -3 -2 0
965 1 17.82073346062596 4.014844073848055 6.6993660915995115 -1 1 2
1083 1 15.785909386380752 4.042770195285467 7.370974978323825 -2 -1 -2
929 1 16.533393039713953 2.0669099797478268 6.770754292251264 1 -1 -2
146 1 16.034642319396646 1.9910532670210956 8.9756022671698 -4 1 -3
640 1 15.122859889131279 5.831946517860376 8.888747822934706 2 1 0
1404 1 18.200104547411314 2.449139740505756 10.016095761456768 -1 0 1
1627 1 18.611429688643874 2.8534118411649816 7.86184287770852 0 -2 3
1190 1 19.770258815676918 3.161100436885521 6.016846964980668 -3 0 1
282 1 20.449255355142377 3.0201093550928464 9.181285464952095 -1 -1 -1
480 1 20.120727956303895 4.662190171614162 7.8249373948527134 -2 2 -1
1851 1 18.449930183257614 4.901013773588495 5.152263273479039 1 1 0
472 1 22.331275166934894 3.8688347050414835 5.801096822851951 -1 2 -2
1176 1 21.702014072605245 2.6731833342684106 7.397784116478203 0 2 1
1130 1 18.58835411218284 4.652151888068781 9.33628630143236 0 1 0
1317 1 22.16645374556373 4.508355651525872 8.987371940184854 -2 0 1
1720 1 26.043538334714988 3.6328786817874104 5.26638984685769 1 -1 -1
659 1 25.662823669920996 1.6173748776447936 6.38690941483693 -1 0 0
583 1 26.443448336051134 3.567388469084679 8.136024079517435 -4 1 0
83 1 23.404805764637693 2.330310895932892 8.888978034798706 -2 -2 -1
103 1 17.704474632035783 4.694010685552062 13.388592063580392 1 2 -1
900 1 25.333464278561195 1.744223947854291 8.416113050529553 2 0 -2
1175 1 24.365387988497197 3.2676239069440975 7.02920866920047 0 3 1
1966 1 24.478933954506623 4.827340346404737 8.98096496835405 0 2 -1
20 1 25.437625461055923 5.449483752220121 7.086618440812098 1 2 -1
1659 1 23.639405325294895 7.9631748473351305 13.829885802574113 0 -1 1
1912 1 26.40734068585703 3.3939050516059113 10.242432498169336 0 -1 0
1676 1 5.191858372919106 6.435865685611172 6.454963214072572 2 -2 0
1684 1 1.8293084965135022 7.338830404677023 4.4604905463853965 -2 1 1
1693 1 3.389548366178316 6.1179232955349185 7.742404787309363 1 0 0
1707 1 3.222799893486488 7.735626810910255 5.9837343713578655 -1 -2 1
1927 1 1.9466176671618163 7.956639901544146 8.202067625599454 0 3 -1
1026 1 4.3473732295781895 7.811872291481299 8.396128960868108 -2 -2 0
1297 1 3.333134964058343 9.50633583457505 7.703361551588452 -1 -1 -1
543 1 2.0609263715987773 10.027365235331501 9.382349309316963 -1 2 0
166 1 7.997010724393544 8.205415992692727 6.689600543901827 0 1 2
35 1 6.882461609369444 6.313721911945411 7.789217897356105 1 1 -1
2016 1 4.749465609597349 9.804735515635679 9.277294657493806 3 2 1
809 1 5.567616848384654 8.71345133389676 6.788914860639199 2 0 3
370 1 8.47339771610157 8.238526988607653 8.949006423897515 1 2 -3
330 1 5.382157252135024 6.642859911005646 10.091733291158018 -1 0 0
435 1 9.34845861583476 9.721613349460522 6.946155284041567 -3 -1 0
188 1 6.299470645104829 8.577006800647023 9.086013092201947 -1 0 -2
1277 1 9.00652508601661 10.597037333918673 8.951180917395078 1 1 1
320 1 7.309690223258724 10.194870188290166 5.706116128954637 -1 0 1
126 1 9.091708159470171 6.571400540181923 7.589772613793717 -2 0 -1
617 1 10.670172887005887 7.719114111809685 6.518552616300617 1 0 -1
1786 1 12.476725929492513 6.347240299151531 6.872473956251007 0 1 3
492 1 10.49163523121569 4.526038430833647 7.426419415921833 -2 -3 3
1996 1 12.603978942388936 8.040234726223662 8.005162891458191 -3 1 4
1337 1 10.461338560679653 8.954720776392286 8.5028612070395 0 2 0
40 1 9.756468654938232 5.4768482600256165 9.931455412092884 0 1 0
1697 1 10.933846158952424 6.581958311517 8.648122124312035 -2 -1 0
1691 1 14.625686881725747 5.8000459746376745 6.732960628682795 -1 -1 0
394 1 15.38191243934209 7.608976513617849 5.552623729820288 -4 -3 -1
1359 1 14.89319195595262 7.871533838555236 7.770288992748922 2 1 0
1894 1 16.21170081674704 9.461309897374033 5.254030823146383 1 1 0
1502 1 17.111420861353906 5.903321410925787 8.001055213110448 0 1 -2
596 1 16.66061450895645 5.580254031515038 5.942562952549094 0 4 3
1858 1 16.988977169241274 7.889128219387497 6.770661266388339 -2 -2 -1
1555 1 14.29968262752344 8.069844012833219 9.890546134255466 -1 0 3
1434 1 19.422296773848863 6.83473455469571 4.672623131808249 -1 0 -3
757 1 22.51306618702695 6.7984951542426595 5.294827069312476 -1 -1 3
1460 1 17.84652650684196 8.260808150146598 4.64581943783531 -1 -1 4
1451 1 18.536970841164326 6.359041935700759 6.674944699078059 -2 4 0
1029 1 20.292816252312115 7.761909257587235 6.272183303932985 -1 2 0
201 1 20.781462620857326 5.24763139413429 5.498922823999919 0 0 0
719 1 18.77318615826085 7.45438928942326 8.549212860128723 -1 0 0
1806 1 20.64852912564462 8.991631531806801 8.160567056714454 0 1 2
1142 1 23.177443840471952 5.4704240052339745 7.10181041834906 3 -1 -1
473 1 18.659474650295877 9.234364628571589 6.844623372900623 -2 2 -1
1441 1 21.511792810072855 6.707236708501318 7.916069742204749 0 -2 1
1891 1 24.084885893612785 8.936710447013745 5.293986100977406 0 1 2
835 1 0.9896148870795329 5.216622654542066 8.919453176213064 2 1 -1
1920 1 22.594114169120196 8.259588986517075 7.070181886928456 2 0 -1
31 1 26.146818398867104 6.818306850420086 8.753643178876622 0 0 1
664 1 1.7997245532430466 6.3699944456158315 6.618600393847676 2 2 3
1231 1 24.40417973895208 7.240164645136604 6.481181113231343 1 2 -3
668 1 23.87386945131496 6.851294874561431 8.550548658969824 0 -2 -1
9 1 26.47661894040875 7.882282102291208 6.842768002072911 -2 3 0
1480 1 24.806375763625084 9.011535157867646 7.968674821328639 -4 1 -1
1076 1 2.8294057922512303 11.011654284175764 5.441824390106172 3 3 -2
1153 1 25.90834369724208 11.107626465348249 8.174110429916123 1 -2 -3
513 1 21.533236801183286 7.440595908858671 13.776475030532303 0 -1 0
1342 1 4.443959492367416 12.722335829067779 5.898167613565018 3 -1 0
1163 1 1.5612801717284557 12.021901199068315 8.647834726350503 -2 -2 -3
1248 1 3.124678679536919 11.805624181134851 7.402863507731048 0 -2 0
1839 1 3.2288892384474885 13.75865575210945 9.248475280985842 -1 -2 1
705 1 3.6763088801751826 11.685328524698814 9.629384340168343 -1 -2 1
794 1 27.30953352173661 9.695866183387034 7.445566598411834 1 1 1
926 1 8.250261025274796 13.205921702075653 5.398443740041239 2 -2 5
1947 1 6.516098103249175 12.701634387203635 6.597071853821823 -4 3 1
1370 1 5.349655384564523 10.70065612260839 6.252045376939707 -1 2 0
764 1 8.63429288782008 13.768843683627281 7.806861515454349 3 -1 1
1012 1 7.115977726132873 10.44493613942438 10.11918051940642 -1 4 -4
51 1 5.379240422180253 11.40310383775997 8.088913497027344 1 -2 -3
151 1 7.204539255009241 9.933783941305215 7.900428423217546 0 -2 1
2021 1 7.320840354014405 12.143996271868586 8.743207410804043 -2 2 1
1194 1 14.796452771423283 13.951198110670589 10.421873971014756 1 -1 -3
620 1 8.565838914607173 11.862923922371724 6.974962565030942 0 1 1
240 1 12.048167181431833 9.713209298391122 7.0877569962507385 -3 -1 -2
931 1 12.362103749651737 10.42516305423238 9.073099117114516 1 2 -4
510 1 9.8384011717331 12.488569146673123 9.41741360751838 2 2 1
1940 1 12.429274240831209 11.999911109372865 6.496869329527281 1 2 -1
749 1 11.990500154435427 12.484330213925068 8.678368546315975 0 -1 1
374 1 10.596428464098164 11.422630535704517 7.628400976774121 1 -1 0
1183 1 10.224058061177741 12.9943179679196 6.245919796994097 1 0 0
595 1 10.614660444283732 10.57947943389705 10.102766325853208 1 -2 0
661 1 19.477780338492842 14.071290427530307 3.046643975615491 1 0 1
1249 1 14.51098493229236 9.722836548259437 6.421522742216972 0 2 3
1598 1 16.83717065828791 11.11353634312882 6.814092653155806 0 0 3
135 1 14.578121619751668 11.321137580677815 5.237369699235294 -3 -2 3
1490 1 14.201386333633348 11.64845163120968 7.263682430477803 0 2 0
1462 1 15.607672595899585 12.709992451061801 6.6948788151371765 1 1 -2
630 1 17.844707661180138 12.871459184832943 6.763012259855089 1 1 -1
729 1 18.388631767733784 10.707904501913603 5.598012679829628 1 0 1
1294 1 13.812076891999528 13.53093213532261 8.02835115875722 1 1 0
653 1 13.786147146649387 13.51853340248917 5.682684294992969 1 -3 -4
916 1 14.795760696072662 10.24184947069452 8.80057959835801 -3 0 1
1380 1 21.851318176404973 9.503605010132707 5.273961584788868 -2 -4 1
1495 1 18.816140798804994 11.029652764750235 7.9927544265232955 -2 2 2
1669 1 18.644375414428055 13.003011661905335 8.756761878423085 0 2 -2
1187 1 22.046300819712684 11.9843876403552 5.986295056451455 -2 1 2
799 1 20.38739366548284 11.558577326551132 4.62067406355034 4 0 -3
1486 1 20.157073854817625 12.72201269158555 6.547547703840728 2 -2 0
1293 1 20.703688559780097 10.54005052731083 6.675241579338559 0 2 0
806 1 20.980288061457202 12.291939544339204 8.471970755375263 2 0 -2
1597 1 11.46572567690884 9.631106016046436 1.4762035960103035 -1 3 0
613 1 3.474595844017434 1.9731099771575253 12.995766999889575 1 2 -1
604 1 26.535030644768128 9.158580988393966 9.402949497382144 -1 -4 -1
174 1 23.578039796154883 10.402573035048317 6.977289621934095 -1 -3 -2
1967 1 22.93589433363143 13.226688714343002 7.7354959380855055 0 -1 3
1760 1 24.84856590361523 12.029392591412506 6.191659539115051 0 -2 -2
1779 1 7.454998368729269 5.30534182859047 13.845929645305514 1 -2 -1
1429 1 23.79964576378083 11.608379866663014 8.562967997872953 -3 1 -1
430 1 25.623583512111153 10.20282674760547 6.377295951503723 0 0 -3
855 1 26.64175715298188 13.351538599776895 9.595071112320854 -2 -2 2
1759 1 24.424806256769024 9.76097451895991 9.786418045741074 -1 -1 0
56 1 23.324158509410346 13.728114119674238 11.884284760861389 1 0 1
1826 1 1.394448587258676 2.630792398855805 9.048848938632078 -2 2 1
426 1 5.423731952086672 4.623878391019442 13.231097416497827 -3 0 1
354 1 3.172614514546174 3.7074606223567383 10.11131908248388 -1 0 -3
807 1 2.544479878705833 5.4001364593351555 13.831337199829273 -3 2 2
1608 1 2.907490377032506 3.90424512397018 12.449246734900974 -1 -2 0
1283 1 16.346536660738234 8.016520696275606 13.659265873567515 1 3 0
1600 1 4.957242434117779 2.958426297356705 11.40234841834409 1 -1 0
1345 1 2.4191491603339816 1.825603216006063 11.081990072391937 0 1 -1
1524 1 1.3971723657484247 5.22685426160422 10.970834442227885 -2 -2 0
1496 1 20.271009065685973 10.660342332443548 9.885368926475799 -4 2 0
1286 1 26.121413202291208 14.052137438120738 6.292696640133737 -5 0 0
2030 1 6.0504840625858005 4.383874707326187 10.059331648412511 -1 -1 -2
1233 1 6.512441960095361 1.6978113762887568 10.12615127938003 2 4 -1
142 1 8.519595708168156 3.4041242604733806 10.39424078128706 -1 -2 -2
6 1 7.280339183036623 3.9499191479869378 12.134711272457238 0 0 0
1476 1 9.435602372662311 3.1890906814932234 12.327073093099237 -3 2 1
1267 1 8.622041599852995 5.332187386988804 11.884124576839453 2 1 -1
1985 1 6.918740947316491 1.724304935951663 11.919278932885048 -4 1 0
1170 1 12.710935447046475 4.008657844246382 11.100757842976527 -1 2 0
710 1 10.901560085645421 2.5152880419184367 10.62869974075185 0 2 3
356 1 11.712570169946988 3.4534426063889914 13.405683551416617 -1 2 2
727 1 12.563597132285034 1.7058214516741468 12.426279306229997 2 1 0
1945 1 14.126138067969265 3.68711899616401 12.907640725453918 3 2 3
1338 1 10.864019724423244 4.481332780821516 11.69270852267862 2 -2 1
1216 1 12.790247498061088 5.433572711329957 12.639241381847883 1 2 -1
18 1 8.526608688880732 1.342341573554062 8.712395153677246 -1 0 2
942 1 14.01308208964119 6.198550574381365 11.185551854021583 -3 1 3
706 1 14.484681554300439 2.2591888377868483 10.772363774077787 -4 1 2
484 1 15.157620566283411 4.076841965842065 10.964631927568744 -2 0 1
1341 1 16.120914599040287 2.696325527179853 13.217150395445843 2 2 -1
1150 1 17.463207693429823 4.437597236018792 11.307977340153952 3 0 -3
2034 1 16.56052230342447 4.092756746592937 9.26674540804346 -3 2 0
111 1 26.09232964378277 2.414358565957629 14.0038396305344 0 -1 1
99 1 15.856035791530056 4.892488532474395 12.776807632937746 -1 0 -2
1977 1 18.823426401857418 2.1209502544297836 12.409031943352334 0 2 0
1905 1 19.48719426896804 3.6142954108419083 11.10158020995551 -3 2 4
227 1 21.18877487131379 2.867012169601047 12.77685886773438 1 1 -5
1181 1 1.537973474012881 1.2490603435011978 13.112733382821881 -1 1 -1
247 1 19.541659694319485 4.12469090513959 13.302563960776615 1 -1 -4
1576 1 22.083186630314238 2.6414417621219495 10.409738932707587 -2 4 -1
765 1 20.371869055797234 5.838743099544872 9.797280069040658 1 0 1
812 1 18.626632457008085 8.46756669162786 13.951627159275416 -1 -1 -1
1213 1 23.095974862068765 2.1923927995106114 12.373090086410915 0 3 -2
656 1 1.8249684202022398 2.046712435334207 1.0617992053830905 1 1 0
1276 1 25.374238351375233 2.201479037656912 11.92093265721325 -2 0 1
58 1 25.605295330064763 5.603830382345032 10.591263889148888 2 2 -2
263 1 1.1020898477641634 3.0298034993233056 12.072126352104474 0 1 -1
1366 1 24.117530499513514 3.504673407052189 10.396860202473043 0 -1 0
1004 1 25.143646182266075 4.211413863506852 12.464131576377422 -4 -2 2
726 1 25.130579122116707 13.152659233275665 7.916402439002263 0 -2 -1
823 1 3.251124490088006 6.204269207397692 9.791244969823778 3 1 -1
1192 1 4.2237183908945 5.183256704941527 11.529655830642765 3 4 1
1735 1 27.059696293198925 7.262471133844555 10.641776692242525 -2 0 2
1785 1 2.4099839668160126 6.59592461100576 11.989502052517292 -1 3 -1
1773 1 1.4792086607619082 8.828267053571828 11.752623641503265 2 2 -1
347 1 3.1197044090295134 8.22217680289154 10.123727682844377 0 2 -4
700 1 2.9880437240429 8.443826963116727 13.337136758422561 -1 -3 -2
27 1 1.0924729745853612 7.2260264982404 13.811949663431939 1 0 0
1909 1 7.572816033106254 5.860255504709913 9.569720017751978 3 -1 3
1060 1 9.868958932859451 4.752066718408514 13.677816951920088 0 -3 -1
694 1 6.440939273700356 6.305321588434071 11.76029830951803 2 -3 -1
1101 1 5.6998280988015075 8.894600258238693 11.220609832887648 3 -4 -3
1195 1 8.747857180213778 7.064022792096183 13.232751499521912 1 0 2
1863 1 4.447515658699446 7.375092117296725 11.876544603083278 0 2 1
1638 1 5.281649160484527 8.780376788628374 13.79458876050614 2 0 -3
1144 1 8.357975651362363 7.3016248896012925 11.09441557326739 2 1 0
2033 1 7.014954772269933 8.29183443050939 12.613907888682343 -1 1 -5
1834 1 9.092031697090738 9.218273395516896 13.581827084501521 -1 0 0
941 1 21.180184584119083 13.792217747755984 12.046845040802518 -1 0 0
1246 1 10.251692795875217 7.96826832867516 10.528527568226789 0 -1 0
228 1 12.080698067869683 8.691906688465167 10.170686060383543 -1 -1 1
1469 1 16.486412514786714 2.275780486883632 11.198958771285229 0 -2 -2
1098 1 10.593423172299419 6.512659254497635 12.43914836924314 1 0 -2
139 1 10.961312329210873 8.706894776658899 12.349371624354694 0 -2 -2
93 1 18.842799557704097 14.145282612628352 11.920735876527196 4 -2 -3
2041 1 12.028580570022886 6.588157558600534 10.723473223335022 1 -1 2
736 1 13.292367861676146 8.064171037123621 11.887121271289411 -1 4 -1
125 1 12.46538678106127 7.6943849318376 13.607932896087515 2 0 -1
623 1 17.57688826581026 6.764692483779325 12.447699358232935 -3 2 -2
1630 1 18.03661346672976 6.36431586818838 10.252742402188481 0 -1 -1
233 1 14.489435246098912 6.781890820964524 13.277011104556031 -2 0 -2
1143 1 19.37967157569655 5.649112999006659 11.993670467123932 0 4 2
1104 1 16.083023618771968 6.345050228918359 11.093407846743519 -1 1 0
1017 1 17.952748152511745 8.262886864524685 11.255773843824388 1 0 2
796 1 16.45473604562076 7.811932560934744 9.474534499824207 -4 -2 -2
1416 1 15.411105623633684 8.387917251513592 11.741057408412853 0 3 -1
1077 1 14.099564169371012 9.974689932242635 10.58402665483248 3 1 -1
1948 1 25.701360584099717 1.7542892934726344 4.359793550855466 -1 3 1
766 1 20.342924152120254 9.258653648339033 13.354895824587787 -1 -2 3