LAMMPS data file via write_data, version 29 Oct 2020, timestep = 300000

2048 atoms
1 atom types

1.0201481921242674 27.3318518078707 xlo xhi
1.0201481921242674 27.3318518078707 ylo yhi
1.0201481921242674 27.3318518078707 zlo zhi

Masses

1 58.933

Atoms # atomic

1017 1 3.168395011937199 3.9879520329616205 3.3087129941613327 2 0 2
514 1 5.225043851023173 4.13082955698056 4.714267846484203 -3 -3 1
740 1 1.4434370995280779 1.1404894700198858 11.067208143483839 1 4 1
1445 1 26.977396509411054 3.732125812196929 3.055979537222873 -2 1 0
460 1 1.8682299027415747 2.974421304961103 1.263444929312929 0 1 0
143 1 1.3148373294459932 5.922329447135158 3.712864508348786 -1 1 1
1428 1 2.3922171315281973 5.531338794723819 1.8621341579079382 -3 1 1
408 1 24.184659471307388 1.5279590699993841 1.8421716546436862 0 -3 4
1304 1 7.903424774971954 1.5355888497032746 1.5099562998630869 -1 3 0
667 1 3.1429789283702396 5.0863374656767855 5.004767412294078 3 -1 0
205 1 4.531210117852909 2.129823739564247 4.482467865175035 2 2 2
1763 1 5.459815487896139 3.170288888020688 2.6397431316880517 1 2 1
1056 1 21.797281840094325 1.303605987117536 1.2751046919110325 2 2 2
1874 1 6.740130942296637 2.5494039002801383 4.1580085120929615 1 -4 1
1764 1 5.9415580508500865 7.031931718794744 1.9818483996441252 -3 1 0
216 1 9.160078325336157 3.5771028689731725 3.631305724971589 1 -3 0
1870 1 8.40577385340125 1.2836960924211722 3.896154569479163 2 0 1
1570 1 6.979502351261779 4.607662710899783 3.3722788784596376 0 0 1
1940 1 16.464588807778185 4.305900871342766 1.046399788202544 0 2 -1
32 1 9.89116794470783 4.218695258097266 1.693656546736472 0 -1 -2
336 1 11.51736766450733 3.5374868252221647 3.025538144344649 -1 3 0
998 1 11.634327065141594 1.267556493955927 3.8009443744478646 2 1 2
987 1 12.15102236936981 5.512655115744373 1.7789108709157844 -1 -1 1
541 1 13.31102261113273 4.718266388516721 3.5447567801372712 1 -2 -1
1178 1 13.509434553105251 2.6811346628791703 3.2824348934282823 3 -1 0
1003 1 13.954876921671733 1.501373183546977 5.087927017781296 0 0 -2
427 1 10.082345784266018 2.005902920357791 2.1782969526752534 1 -1 1
1581 1 12.20699038856994 2.8793674700948593 5.19810732556811 0 2 -2
1072 1 10.01152918437941 2.2601649834326123 5.119983001884509 -3 1 0
1073 1 14.373945360342956 4.905157814861715 1.8038766320295252 -1 0 0
630 1 15.47126224589006 3.6725492259862547 3.126768053774839 1 0 -2
1501 1 17.31906401244193 2.187576530932777 2.404234274516128 -3 2 1
1869 1 17.676892274423764 4.656677366472973 3.4241777672213694 0 1 0
22 1 19.27245403671583 3.1786826543772384 3.5295000061711184 2 0 -1
982 1 21.761166161359807 2.023167835794328 6.077842413172771 -1 3 -2
348 1 16.239250121482556 2.5307151713271514 5.044354736336918 2 0 2
104 1 15.552920543978264 5.230104906311882 4.329658692129998 3 2 1
1877 1 3.019918292228903 13.786990671504649 9.672783152358477 0 1 3
1657 1 18.670627198874257 3.9474900925480476 1.5624913802532694 2 0 -1
197 1 21.07845970346337 2.06828041719419 4.088282280754466 0 1 -1
1114 1 18.16456621508497 1.6874622959751542 4.649232597479042 -1 1 -2
799 1 21.40881587936246 4.076871588862217 5.212519194715514 3 2 -3
1169 1 20.533872820217457 4.842672639328175 3.130130760804817 -2 1 -3
1559 1 21.8547088140295 3.2612483653842546 2.139930355193677 2 -1 0
729 1 8.450386484372576 14.144339592474864 6.576707055921706 1 0 1
1400 1 22.54995010490985 5.303334389956455 1.6729269662909378 0 2 3
1443 1 19.55131746032627 2.044012182395111 1.2742071634201395 -2 1 2
1647 1 25.476251061499184 3.1333731282776704 1.689616879461359 1 0 5
844 1 25.907040421543726 3.179401287046851 5.5397237086405395 2 1 0
1555 1 24.74313654288631 2.2601864908864018 3.874021258335564 -1 0 4
559 1 22.89819962671951 3.247205946930912 4.106637567061991 -2 2 3
1513 1 23.959675088417253 4.110683410804013 2.5822439714918834 3 0 1
1703 1 24.6431107631571 4.610102764593121 4.699906103859412 -1 -1 2
1245 1 2.963019416051006 12.988325408136417 6.567592676458208 5 -1 1
1227 1 23.58621496879084 9.898801308301799 2.005457269741723 6 -1 -1
969 1 26.016985762840473 5.384805982545209 2.5443902544742834 1 0 0
503 1 1.1299596536648413 4.418465727017087 5.177744970894753 1 3 -1
322 1 25.368263448896872 1.3372868285655302 6.991973222506334 3 1 1
1224 1 3.138829942719978 1.9141306009787775 2.7999256640486463 2 3 -1
794 1 9.247926078846348 1.2596665486324825 11.40094178538334 2 1 1
1724 1 3.6378789561711673 7.205156393823913 1.9889344592334317 3 0 1
1152 1 5.353549149387563 8.088028339721724 3.638929703376872 1 2 3
351 1 3.5645481731548028 6.837905968117191 3.923524134426818 3 0 3
807 1 2.963885193100904 8.78737722705306 3.2400029345347665 -3 2 2
72 1 20.09160126537298 1.256253656431088 14.114394681481052 -1 1 0
707 1 4.848892851030254 5.271744520245417 2.899950272074497 -2 0 1
26 1 26.985159128885755 8.293807699291843 2.597334879828121 2 -1 4
137 1 2.3395841272530777 8.254951708346436 5.0602870570455 -2 -2 2
1095 1 5.498255371488579 6.190688478491178 4.665814617934478 3 0 -2
499 1 8.22765272491229 5.960028224149263 2.2075658363676567 1 -1 2
2005 1 7.090100344632641 9.168562678569023 2.7262275825996047 2 -1 2
397 1 9.11785107172107 8.010705641062092 2.2463390117716706 -1 0 3
2028 1 7.203706530660982 7.1122086471046595 3.5154510837747703 0 1 1
579 1 6.354191815505908 8.716747715445827 5.6686015796701055 1 1 1
1487 1 12.462419618142494 1.2912402826938856 8.00540010321889 2 -3 -2
236 1 5.809439864009643 1.0489614084621088 2.5675252059922 2 1 1
569 1 4.741944697632595 13.46371513536414 7.466603208257815 3 -4 4
2008 1 5.650031388911917 3.58188101847374 14.003397157146843 0 1 2
1103 1 10.551728409250863 9.630928667186188 1.4990395842023299 -1 -1 0
539 1 8.549776754005347 5.484329884352535 4.7276044633341066 -2 -3 1
962 1 9.726140325524629 7.4560483622463885 4.403110182932467 -1 1 0
912 1 10.31689889565917 5.410801207377929 3.5047554461202854 0 1 3
619 1 12.701625878140689 6.827156639891524 3.321796590700376 1 0 3
1684 1 12.138679316826583 8.164519843705605 1.8965652451751693 -3 1 2
1213 1 11.419011246432477 8.44090638385216 4.151385806148427 0 2 -2
1131 1 11.71226071809517 5.243352051535642 4.843194866210718 -3 2 -1
727 1 13.665949635499809 9.004577519566219 3.260710768543513 2 1 0
27 1 15.712005466802319 8.39763235586354 2.314825312740507 0 -1 1
769 1 17.349257045488585 7.4744378003897385 3.4008265580459054 -2 1 0
1115 1 17.936647892695476 6.304423206961096 1.2124438082754487 1 0 0
995 1 16.345371536260547 5.996422439361829 2.3924619168373225 0 0 1
154 1 14.705898629175357 7.0518027566282715 3.8546388872924386 1 0 3
1462 1 16.37043089859722 9.15494699957035 4.4491238554282955 1 1 -1
456 1 24.017230024103863 1.4849303264614027 12.436123239806546 -4 1 0
1061 1 14.16321701794523 6.959492658023808 1.7709734627046887 -1 1 3
906 1 13.73166922106581 14.110834433843511 3.752470688973181 3 0 0
967 1 26.918662622097372 1.655517773222611 3.350470627193936 0 2 1
1401 1 18.993506156253883 6.249843558365835 3.045217334099586 0 -2 -2
1151 1 19.34395733439263 8.143018738077776 2.6469212370710595 1 3 -2
1339 1 22.693524336384435 5.40498599725982 4.407473575447867 0 -1 -1
766 1 20.855872791426826 6.513177835627452 4.8056310839427825 -1 -3 4
1908 1 20.83323085532972 8.586248371703277 4.909809001129 1 -2 -3
767 1 21.184402136108087 6.7876799763941555 2.2488962956852414 -1 -4 -4
1809 1 18.86080166096818 7.700387405380789 4.919902354727586 2 -1 2
1654 1 24.285553587459034 6.293275146716785 3.134918839679376 0 2 2
1012 1 24.903351927706712 8.351227511516445 3.13562779257148 -1 5 -5
1788 1 22.928678241931454 7.8696989447227805 3.91612601554365 2 1 -1
1185 1 21.424534581364075 8.966768319089574 2.603696125407505 0 -1 -1
921 1 23.22327270527599 7.446478250185166 1.5635159127667908 -1 1 2
584 1 26.84121920536276 9.351590018039301 4.504037105573529 1 -3 -1
510 1 13.671367127901128 14.08787901370292 12.016371114548345 2 2 1
1354 1 25.92176308056889 7.092989973794979 4.463271142858282 -3 0 4
1901 1 1.4909016965091404 10.361447235996307 2.8747105856522595 1 1 1
1597 1 3.568895062031382 10.767493345346576 3.3342609207503098 -1 2 1
1433 1 2.6309481169957865 12.592675859218797 4.263869644575589 -1 1 4
1162 1 24.210139129152047 9.93548437773515 13.966363883869597 -1 3 0
993 1 2.2897009398129775 12.841800381205642 2.0176883434410495 -2 1 2
365 1 2.406983368274881 10.321020590390612 4.986649387395917 1 -2 2
1302 1 4.25199908698016 9.25260223663922 5.292829395291276 0 3 -3
566 1 4.433933329722018 12.723199458113289 2.8064258765812524 0 3 1
632 1 4.604589953730555 13.508841813062388 4.693453200282409 -1 3 2
139 1 6.297980638533192 12.43353696864904 3.7518235976035053 0 -3 -2
338 1 4.9331640200639875 9.365176286428522 2.043257976158367 7 2 5
1785 1 8.239685236907913 10.443048279622277 1.5935746508968038 -1 2 -1
1615 1 7.842728418936391 12.317531520356532 2.309204422994613 1 4 -3
883 1 5.678238848691703 10.471507206548857 3.9755061918303833 1 -2 1
688 1 7.7235105772893275 10.810684877581922 4.051226575392125 2 2 0
30 1 5.814992567049223 11.162735697188833 1.6382094831161211 -1 0 2
984 1 18.170675049719666 13.647202542284461 10.844956530000493 -1 -1 -1
284 1 8.174702784896116 13.859080215707465 3.7411344378149347 -3 -2 1
294 1 9.508169936389237 9.678711589711574 3.477090945029176 -2 -2 0
1317 1 11.364622317553016 10.409776926904167 3.2629937435441927 -2 1 1
784 1 9.57199988026023 11.689671829113495 3.3740639595702424 -2 -2 2
801 1 10.474113452974304 11.908239111828333 1.4323396810651048 -2 4 1
540 1 11.332621194120337 12.740430309820733 4.998912504080749 1 -3 2
758 1 12.575190846212195 10.351320243536755 5.197849178175748 0 -4 5
691 1 11.766145059250427 12.697763199913505 3.026443452553416 1 0 3
1128 1 15.112791077018892 12.161435438771566 1.818194457411077 0 -1 1
1028 1 4.7336081697665575 10.346895301246489 13.65733834442991 3 -4 -2
237 1 14.615933627064797 10.141976019792255 1.6269825330215548 1 -1 0
1556 1 15.273056520285763 10.972436297483325 3.8416908892231687 1 -3 4
933 1 18.388212343622275 9.464812025968426 4.0203726901236765 -1 -1 0
1155 1 15.515975636315561 13.088901601265992 3.846468638950005 -3 2 2
1637 1 17.321414539934967 12.927249963019603 1.9574332901322986 2 -1 5
262 1 13.499302681014697 11.303820804368412 2.888736666382755 3 -2 -1
1743 1 16.677062450627638 10.564061124362933 2.3192866908680396 -3 0 -1
956 1 18.145992621873734 13.508816619371116 4.229629309335094 1 0 1
1557 1 17.56568234446757 11.463991612352725 4.090727465591159 2 5 -4
1211 1 21.760429903805704 10.993605339668054 2.303047919569237 2 -3 -4
842 1 20.221325814405134 12.975711620272941 3.2415398157933097 2 -1 0
23 1 18.820386416784157 11.689539399669005 2.4028583182278065 2 -1 1
98 1 13.33423029956555 14.063155878557735 1.4602883843562957 -1 0 2
1268 1 20.13154966780223 10.314110078647607 3.6243546108447355 -3 5 1
696 1 21.76051571139572 12.00270116712141 4.015354623166823 1 2 3
1449 1 22.05657321918927 13.253982622044845 1.7718064047687343 -1 0 -2
1182 1 22.81498270924055 13.901548656974535 3.6560169381199508 1 -1 0
1079 1 22.79050679059317 10.007134667722784 4.035068773580165 -1 0 0
1409 1 25.832570506920614 10.19394896782398 2.1940820404226082 0 3 0
1279 1 26.96844331471054 11.793551219482216 4.535088705572276 2 0 -1
1680 1 24.00633357042282 12.22261690758738 2.8757103792942242 -1 1 0
1325 1 25.196443898764525 12.950121093179561 4.4150909908998734 2 0 -1
830 1 26.529344307921917 12.48258937656639 2.734392622254013 1 0 -2
1987 1 24.895163571796115 10.653606832469457 4.159233315829377 -3 -3 1
1122 1 25.78520257824127 10.162703715677129 12.582063920969642 -2 2 1
431 1 23.45362778419284 12.19251014976943 5.366089771424018 -2 0 2
1551 1 2.2971610127073916 2.566242612529077 4.526009993030966 0 -2 0
307 1 2.8798806408589384 4.72659953479562 7.229429451357991 1 2 1
2013 1 2.6811632259817815 2.2694909051471344 8.065254032467285 2 -1 1
2022 1 1.330990502703088 2.7489712538555384 6.621746406595439 -2 1 0
1194 1 2.883244961293487 4.218088671785329 9.217419983259923 3 -1 -3
1088 1 4.993532010348025 4.526737226615295 6.85576854157134 1 -1 2
1792 1 4.791145895385276 3.150683035580332 8.408345266745783 3 0 0
1010 1 3.7294472176990827 2.8670664314804744 6.254433482238176 0 2 0
1677 1 1.1055287034674826 3.1678138909464004 9.95681730389694 -2 1 -1
1580 1 5.983031279691357 2.5033872096688015 6.260563935408819 -1 2 2
614 1 7.011333620623667 1.5599778333671201 8.364717039229975 -1 3 1
1689 1 9.287885261610393 2.636432088543924 7.656118441347657 -2 -1 0
1980 1 8.067907023188026 4.460418462653498 9.347078603485778 -3 1 0
1707 1 15.703636732057523 9.534053067804788 13.826878949208156 -1 -2 1
209 1 6.684883707467485 3.599806236539736 7.865452622540169 0 2 0
224 1 8.17860418313926 1.0368423961945363 6.128794724006754 -1 3 -2
340 1 8.113877960892799 3.2167601420564162 5.746825869494013 1 0 0
731 1 6.876072160432534 4.927704229138714 5.740036857479543 -2 -1 2
1319 1 8.68072757153039 2.46062601680677 9.855977691753537 -1 3 -2
1933 1 24.973776724017355 12.056457833470732 11.559804208126579 0 0 2
472 1 10.085557598038644 4.358378283970085 5.600066549767261 -1 3 -3
1991 1 10.252610361418231 3.9589023391290037 8.802776298474475 -3 2 1
963 1 11.13904450772133 2.6665138799886345 6.981531945784319 0 -4 3
2041 1 12.974512782184952 4.311747141715291 6.80243624305441 2 1 3
916 1 14.084029331904253 2.3900585694445127 7.044760521203912 -3 1 1
319 1 14.165950441551713 1.6590926410377755 9.118207090954796 0 -1 -2
215 1 12.628020566151113 2.5012296717724074 10.309694254550717 2 -1 -1
1715 1 12.492922018410376 3.5448471963920047 8.65417549165643 -1 0 0
942 1 11.0955305442042 5.196746658545672 7.285166614786853 -3 1 3
1972 1 1.167618067665435 10.174599466821109 11.111639196641969 1 2 -2
1971 1 14.474384290598557 3.7006943042536338 5.424423645016402 -4 1 -1
200 1 16.293242793155564 3.7720674922842545 6.8805837749242 -3 -2 -1
96 1 16.903620522543832 4.6081231081108065 8.891801316265038 -2 -1 -2
952 1 17.69901797704406 3.8630375688689043 5.259082203022292 1 -1 2
119 1 17.694816312307566 2.2801940742778797 8.956451432048825 -1 0 -5
1423 1 14.815074060652982 4.0444212647102935 8.218867860367496 -1 -6 -2
1360 1 18.666822056826604 4.334957634281388 7.5406267642748706 0 1 1
1019 1 17.511058789438593 1.8373288780772894 6.703486449652511 3 3 0
1796 1 15.575810862059765 5.675362688675732 6.562630943184821 -1 3 0
194 1 7.796257073018448 3.455761732686152 1.7962726390619954 0 2 0
512 1 23.592586611789102 3.1256014121005027 5.999760881744352 -2 0 2
911 1 21.578470039562593 3.518599682005013 7.324760625210222 0 1 3
399 1 20.55941801875887 5.351538536683038 6.804526827032459 0 1 -1
1970 1 19.665521641548178 2.854148554116147 5.856421956719691 -1 1 2
1656 1 19.84938605006413 2.247925312617893 7.908994380070146 -2 1 -1
757 1 20.16141454719454 4.146178396742885 9.033746452153713 -1 0 2
1611 1 23.029242332055876 4.941466939801613 6.644140538119319 0 1 1
515 1 22.142570819373876 5.29886002737097 8.533493400912743 2 2 1
437 1 15.818829400031694 11.56241101879364 13.535521235939367 -1 -4 0
1961 1 21.84851858909054 1.8695840159318973 8.665232537082456 -1 -3 -2
1955 1 14.61738964904658 2.479548453338565 1.5754927216671484 -3 2 -1
1967 1 2.9640516524499567 13.83411716610281 13.881657292849747 1 0 5
678 1 27.244487661298812 4.277502333550132 7.979928045724465 -4 -2 1
1093 1 25.060346429933258 4.148664495604505 7.352808566404623 -2 -2 2
1669 1 25.894637960793588 2.357631074759122 8.806754212531859 0 3 -2
1939 1 25.079929365516588 4.452564694309048 9.652462447119493 -2 -1 1
1235 1 23.562227912491956 3.318925186691124 8.346514744534407 2 -1 -1
1038 1 26.183458530573233 6.194013181458747 8.439094775761504 1 1 -1
1359 1 21.95234786106316 3.9138716438635335 10.283884650034489 1 1 0
300 1 23.686984619963603 1.3814214013706942 9.588164852139458 -1 1 1
1361 1 25.91986921926622 5.4173022671976705 6.320626802601819 -1 0 -1
175 1 3.843888609405523 7.036387806711943 6.37169438941209 -1 5 -3
902 1 1.8753664121232598 6.352345881980919 5.908931495145661 3 -2 1
1357 1 4.196659414293599 5.868868915630078 8.282929517341028 -3 -3 -1
1053 1 1.6030385333405794 8.010958099528404 10.033706749811364 -2 1 2
1104 1 3.5345865719106824 7.925625922573059 8.549141220625602 -1 1 0
732 1 2.009594151246114 6.376086253756798 8.48148653903691 0 -2 0
278 1 1.7405944528131023 8.211218294850596 7.113288554467737 0 -1 1
558 1 4.938971495715219 8.819110051923886 7.214161345511967 0 -1 2
407 1 2.5196069207227705 9.777979597511223 9.298355976538359 0 -2 -1
228 1 7.610126912262922 6.994795598920933 5.785425399561787 -1 -1 1
1795 1 9.053606982731496 4.880885866340143 7.163076325613579 -3 0 -1
1834 1 5.919237642210251 6.669676589070535 6.781800865085377 -1 -1 1
1630 1 5.921334442084986 5.450320792159968 9.144953265334312 -1 0 -2
385 1 6.025199166593853 7.647606026434636 8.475770566064643 0 -4 1
777 1 7.936252544865654 8.438704914347909 7.240461579455565 1 -3 3
1748 1 9.603801648796791 6.259755952792245 9.006677993018709 -2 0 -2
1120 1 7.958021404685936 8.280224119220865 9.288143943349485 -2 0 0
1429 1 7.625379761577303 6.131243325650831 8.070469253387184 -2 2 -1
635 1 9.72259460804331 6.88721223375841 6.911981676999819 4 2 3
1929 1 13.657798001217614 5.928599868691558 5.565757727665063 -2 -2 0
790 1 12.965891608126796 5.770821736235809 8.278586112959113 1 0 1
266 1 13.16344090547732 8.204678681486117 5.214445616482042 -2 1 3
1744 1 12.567785900897695 8.66855211771568 7.1044455114477465 3 -3 -3
1473 1 12.00006328594381 6.845962616900209 6.3263555996117615 -1 0 -1
1789 1 11.481612058422543 7.333541456011987 8.43634436408571 4 0 1
716 1 10.377751279953406 8.716764886300204 6.228850745567919 -2 -1 0
95 1 9.770407585926787 9.017800473096294 8.4861959233989 -2 -3 0
1770 1 17.499481945375518 5.986513434533686 5.47463180370286 3 0 -4
1191 1 14.344884543043188 7.351492649040255 7.257309948611691 1 -1 -2
204 1 15.61894656495297 7.461353374294794 5.576366160700932 1 0 1
2023 1 14.314006267955866 9.433912715177291 8.346028285355061 -1 -1 -5
1250 1 17.432525630164633 8.262590625138255 6.382200564786898 -1 0 1
1108 1 16.2915305941653 8.019568438372032 8.437851107866088 -1 0 -1
1539 1 17.55301791544015 6.29965101994616 7.716404690436057 -2 0 2
1699 1 15.25647966509152 6.040267521846855 9.588286268714507 3 -3 0
1299 1 14.539854892960717 9.717063412767821 5.703517590565529 -2 -2 1
453 1 19.253338526989186 9.798657713722818 6.122302584516935 3 -1 3
1546 1 19.273464938786685 5.0031568785857345 4.919009982275176 0 2 -1
711 1 19.326577860579693 6.1371449793156785 8.761029090340944 -2 -1 1
217 1 22.30435580894126 7.068196270357156 7.156372987948 1 1 1
1048 1 19.83769927128836 7.394842158264671 6.8206427295341205 3 2 -1
1544 1 22.48748853402662 9.271088519921456 8.38692511784282 1 -2 1
778 1 20.12638238786481 10.115136263780077 8.825565736458078 -1 -1 3
1928 1 22.80451493911706 8.634920481896032 5.694645557746729 -3 -2 1
1448 1 21.123877900832078 9.098513186244134 7.003579039363835 -1 1 1
979 1 18.525850839581707 8.639511202970624 8.629456773329355 -1 0 1
1228 1 24.18449110431869 6.183655188443644 8.034933254201867 1 2 -1
1261 1 26.812362602210204 9.804826037467212 6.703024729978004 2 0 0
1307 1 26.073840165488146 7.788658307151957 6.663962644917593 0 -1 0
611 1 24.894966787594722 9.025915417534973 5.503843740318691 -3 -1 2
1690 1 24.34321900748706 8.358777471355612 7.591328795479587 -1 3 -1
134 1 24.077380412866706 6.795142288053503 5.796296833176321 0 -1 1
994 1 26.212327897810674 8.513027579872707 8.640488981970844 -2 1 -2
57 1 27.32790386412126 5.8456323217165735 10.308853369628071 -2 -1 1
1523 1 22.7043163532899 7.171172066416028 9.402049276683737 1 0 -2
1558 1 24.747003534927494 6.945045019395959 9.85900967631844 3 1 0
1673 1 4.646865536777491 9.854506049867476 9.46092383103685 -1 2 -1
526 1 4.539779742199608 11.651118557802029 5.54583005686134 1 2 6
91 1 1.4955420873897116 11.539942429849882 6.677895925569106 0 2 0
248 1 3.027009875196203 9.93824403775852 6.945544406345196 -1 2 4
1422 1 3.0277956422304078 11.948867455227937 8.324591667561954 -1 -2 -1
593 1 5.109279698964902 10.976256732537582 7.479660424663664 -2 1 4
106 1 6.413500946742639 12.605389704434414 8.37243969602654 -3 -2 1
1388 1 27.10000173933985 10.556992802644364 8.632143408229132 -4 3 1
821 1 15.789354032127399 1.8245958246122327 7.85301430720551 1 -2 1
568 1 8.337803269134767 8.774427547259833 4.940634697090928 -2 0 2
849 1 15.425811957542546 13.69237115367375 13.270965498689192 2 3 1
1670 1 6.485592428553962 9.802647422724379 8.195417984807273 -1 -2 1
1828 1 8.153957039331319 12.47040902996994 7.69586480619912 3 2 1
737 1 6.495440444500854 13.081642666955393 5.841678183767435 2 2 0
981 1 6.834573327225463 10.812171619051776 6.205729512261444 1 2 0
414 1 8.731363745476258 12.190084867645206 5.334635549812964 0 -2 -1
1844 1 8.796976306926087 10.385887061171887 6.9455974507423655 1 2 1
1320 1 6.090816664361114 4.950969847593304 1.276232280667092 0 1 3
1510 1 12.298386723759744 13.263927142239083 6.927134545229555 0 1 3
1777 1 10.157383785472355 12.748855892550768 6.791320696505285 0 1 0
1285 1 10.108824212121032 10.610984455017764 5.375468826042538 1 -4 2
136 1 10.325576693436648 11.97593326648556 8.639986418391814 -4 -4 0
128 1 11.200073719583283 10.777395881632412 7.184031322895886 0 0 1
2043 1 12.6039902153866 11.722406391075562 9.03359279856722 3 -1 0
1660 1 11.8025321746403 9.825116819275959 9.071623793769588 0 2 -1
723 1 13.855890475514743 11.46066233812324 7.357773377419521 -1 1 1
1826 1 14.347668766858797 13.285566341214533 8.063313910319643 -3 2 1
418 1 13.628752303423946 12.413599587321887 5.11233206218756 -2 -1 -1
1382 1 10.59433033449834 6.796880682456492 1.397677804184398 -1 -1 -2
1145 1 13.878544427657246 13.83663242714319 9.97154735919978 -3 3 2
1733 1 16.16235781189373 13.882712192481375 6.824694319166218 -1 0 0
1816 1 15.50147098137203 11.942562468490603 5.749079217253938 0 2 2
628 1 16.016443793125898 9.983217981225915 7.233464858509261 -3 0 -1
899 1 17.2586591720934 10.510889878658702 5.766838463295047 -1 2 3
1734 1 15.991740364939284 11.912910198442901 7.783274271538253 -1 1 2
943 1 18.1670725938433 12.934831025308808 8.504474588616773 -1 0 3
1729 1 17.967946085799156 12.693148231499888 6.407242267999358 1 -1 2
502 1 17.91564403581541 10.671971905844938 7.945826521534643 5 -2 -4
639 1 20.504971459807326 12.66382373896049 8.947076665150096 -1 3 6
1549 1 19.53148208780555 14.049297675148667 7.4318548817379915 -1 0 -1
1385 1 21.889629313869854 11.30491661652741 8.247576701594912 -3 1 0
1060 1 20.477149098700313 13.61588173211286 5.263688993434163 -2 -5 -1
421 1 19.500894481931415 11.847301187012235 4.726316722865698 -1 1 -1
838 1 19.78260092898286 11.63242631126011 7.20206394123268 4 -1 -1
401 1 23.57694020199514 11.233755602857373 9.600411612699995 -3 -3 1
636 1 21.62976735563708 13.226773513800753 6.99225609880769 -1 0 -1
2003 1 21.489395103048132 11.060820692854053 5.949309617185686 0 -1 1
1784 1 22.517983287816904 13.075888590037383 9.560135201554226 2 0 -2
31 1 23.47309577830483 10.447106330048488 6.390097510875046 0 0 1
500 1 26.810697189382456 12.601022020767918 9.889990887289512 0 0 -3
1562 1 24.8838651443864 13.054710487028604 9.479973939219404 -1 -2 1
907 1 25.408920855110274 11.412859105651311 5.865107969895973 -3 -2 5
637 1 25.975683584170845 12.59688531723749 7.769141428084723 0 -2 2
430 1 23.758060680097408 12.302729241380383 7.413165775279077 0 0 -3
1634 1 24.95592683110061 10.423726832467237 7.998096479650897 1 -3 -1
103 1 1.081664406864178 13.530502208202808 5.362762282054396 1 2 0
341 1 25.78164393334581 10.526132376752347 10.115930866239685 -4 2 2
715 1 25.03064920469886 13.820148590313337 6.482938672152297 0 -4 4
1632 1 10.667697759687979 1.880050634603318 9.385303212545285 1 6 -4
1138 1 16.10875614431619 7.209210390045172 14.133907774183411 0 0 -1
1897 1 3.78615779310077 11.571931121125191 1.034102956759603 4 -2 1
1507 1 3.3081149334342914 2.546873677194811 10.298089724681299 2 1 -3
601 1 1.6822922373082592 2.7777738507244965 12.395296540436078 -1 0 3
308 1 4.391748307761583 2.9370556271170716 12.18513731385751 -2 3 0
1541 1 25.951686563252427 4.412566077405196 14.020412122152214 -1 2 -1
358 1 5.056406006175658 1.3450593744153911 9.396865761224626 1 -2 -1
1607 1 2.8229251538774296 4.215118226977829 11.40218812110255 -2 1 -1
1567 1 4.789141354278482 4.295492457273589 10.33457687084807 3 0 0
362 1 17.933168175638905 8.975312248533672 1.5537094617847313 1 0 -4
1858 1 5.389827990861121 1.431986321358022 11.425110165936825 -2 -2 -1
1746 1 6.8644619647855585 2.339452295238188 12.3285931354467 -1 0 2
1118 1 6.48456071380812 3.1159146977762155 10.133392612599872 -4 3 1
16 1 8.581434345460856 3.714967644271395 11.745382494735638 0 1 -1
1062 1 8.449228170113752 1.8955145279670655 13.827597388887904 -1 1 -1
1444 1 10.253654064941161 4.264356155154028 13.132247501637474 0 0 -2
1446 1 9.826629131879123 5.3067469866613814 11.081860128999367 0 2 -2
604 1 5.127844274550683 1.439981798436021 13.587173062058328 -1 -4 -1
1695 1 4.889430323633655 5.372448651647239 12.521856044586952 2 -4 -1
1321 1 6.692747849416435 4.837085224411691 11.74611000339213 -4 0 -3
745 1 12.579990750265415 1.715978512559964 12.376864081788224 1 0 -1
1289 1 10.366003458365274 6.377326492885832 13.958292146668638 0 -2 0
1318 1 10.526318660937854 3.2326251102615995 11.025408318444518 1 4 0
1464 1 10.550156489236288 2.114784728530265 12.982769026708532 -1 3 1
1244 1 12.674598262014845 3.961436782993014 12.186052058414358 0 0 1
1077 1 12.101697112074659 3.7301594391816444 14.163530144488627 3 1 -2
218 1 11.661764758676675 5.404370469953553 9.823300384671542 2 -1 -1
644 1 14.757167654870385 4.68961774166619 12.06703697529129 2 0 -4
1425 1 15.94471216407895 2.902160368744145 9.748996001346944 0 2 0
1121 1 16.494329314387386 5.0801163097570665 13.43316742083464 0 1 -2
1383 1 14.339966269391534 2.1628600607995336 11.37216622460472 4 -1 2
1351 1 13.888019254970171 4.310420518994867 10.18324448361591 -1 1 -1
1988 1 16.722595056759083 2.0903787064918555 11.622451888365704 2 1 -1
432 1 16.4134663751144 2.9266752644945635 13.509329320322513 -2 1 1
1982 1 16.672982597141804 4.426154278073045 11.198295170027796 1 1 1
866 1 18.969357844428792 5.395852145654385 10.63207495051038 0 1 3
420 1 18.477818844103403 4.404378934345418 12.818836323877948 1 -2 1
1954 1 18.45871824880684 1.8324356180618881 12.786287269508147 -4 0 1
1365 1 27.243849979498616 12.08213530807178 12.23172535536302 1 0 1
1149 1 18.63314611085035 11.446901022976325 9.806693188152115 -1 1 -3
1667 1 22.285768801249354 4.185290188861741 12.369489868331367 0 3 0
546 1 20.330136582162552 2.107195868112605 10.279359713075968 1 -2 0
202 1 18.534489813651593 3.234777798241509 10.980927866792161 -2 0 -1
1966 1 20.935093205916377 2.592308719029285 12.453467369603931 0 2 -1
955 1 20.20093987277739 4.357441677459143 11.802059588918471 2 -2 3
1516 1 22.82488510561196 6.430758709143007 12.617709829703688 -2 1 -4
689 1 22.37316097374768 1.7980813751771856 11.08646791031101 1 0 3
206 1 23.943649315701666 14.025739576207602 11.103564676027037 -3 1 -2
835 1 25.89905376194449 2.3818895052715336 13.253289393680049 1 1 -2
1140 1 25.633181021159867 1.6104925433139212 10.98735191794293 -5 3 -4
1714 1 23.43975781723941 5.441113221381766 10.687536475543917 5 1 3
971 1 26.137141006530396 4.006913848078785 11.673306636901662 -5 -3 0
183 1 23.956045537916584 3.2738915318474517 10.861527161580247 2 -1 -4
1405 1 23.566404320391698 3.0753507534330127 13.73094647875555 0 3 1
1895 1 24.33537417566233 4.697489907169199 12.65015460455104 -4 0 -1
1590 1 1.0975648430050335 5.009196632626678 12.79561525768424 -2 -2 -1
1545 1 27.123628173548568 13.748272200578413 13.612983644115094 1 1 2
1698 1 5.585302461027866 6.682345877441154 10.77261842066732 2 1 1
2004 1 3.5994796024538847 8.208011293395892 10.553291972280173 -1 -2 -4
1203 1 6.2842031307143635 13.590416419511643 10.416795915363354 0 2 -2
626 1 3.4171034394101856 6.120839931047964 10.4100172440429 0 0 2
1092 1 1.0371521452465258 7.527785644991443 11.943237571696972 -3 -1 -1
287 1 2.7213511833684505 6.206968917982084 12.273403233759533 1 1 -3
387 1 5.030180580716649 8.446194728905272 12.384338224223075 -1 -3 -2
422 1 2.912333590794555 8.416248266894346 12.449068819772402 -2 0 1
313 1 1.9090543369725432 10.0028406985491 13.157543093002387 5 -2 1
1593 1 7.817126840295926 6.531826637665971 10.455476812577544 2 -3 1
1536 1 8.420862623946896 7.705269301332424 14.027555206233401 0 0 0
607 1 9.82912616016036 7.311399023893461 12.06881290654713 -2 0 -1
1650 1 7.021572989880983 7.127794579450697 12.442306496130938 -1 2 2
692 1 25.012407964976294 13.625762534497794 12.909409538490111 2 0 -3
1836 1 8.262968205807088 5.542643929258197 12.82496408702846 4 2 1
1697 1 8.015777671458576 8.598452345673973 11.43224434246998 -2 -2 -1
1170 1 6.065115830574065 8.66877223330904 10.517694901315313 0 2 0
1693 1 9.75779583406592 9.48627133192094 12.652994001832461 1 -1 -1
1926 1 13.479113528403118 6.495009428354975 11.127080194113368 2 2 0
926 1 11.684208018213127 5.9310448580611945 12.11296502746214 1 -2 4
1850 1 11.74131605822116 7.8169947462478655 13.09878146511866 -1 2 -3
872 1 11.431434279363616 7.506451079788945 10.598479789675954 0 0 0
2020 1 9.934239521933828 9.04788313540246 10.445020003598573 2 0 1
1047 1 14.049827369826215 6.80509987445953 13.155333997092177 1 2 -1
45 1 13.415170725225844 7.745584689033929 9.501838660514933 0 -2 -2
342 1 14.09013195040353 8.552271486758983 12.164751088150863 -2 1 1
1579 1 22.894059524838152 12.14048924949369 11.601828797470446 0 -2 -1
171 1 23.931495107098414 10.053290343230847 11.590574262150882 -2 -2 2
411 1 17.88629492873889 6.5077456442719495 12.130178560757246 -1 0 -1
930 1 12.019791389517374 1.2955765669891233 1.5478457464536186 -3 2 0
1952 1 11.333782049608375 13.82061335985721 1.2179576697365226 -1 0 0
1009 1 16.637244116654365 8.220651597337946 12.434017728352611 0 -3 3
1127 1 15.708043485030414 6.5587184309276365 11.711311419506849 -3 2 -2
1371 1 19.276387355435713 8.257883334196206 12.81224989547095 -1 -2 1