LAMMPS data file via write_data, version 29 Oct 2020, timestep = 300000

2048 atoms
1 atom types

1.0154563266179437 27.336543673377886 xlo xhi
1.0154563266179437 27.336543673377886 ylo yhi
1.0154563266179437 27.336543673377886 zlo zhi

Masses

1 58.933

Atoms # atomic

1463 1 1.5845579816833362 1.9447134156868309 3.8759680000107712 2 -4 2
1763 1 3.144320137138828 2.98967132858638 2.7955153806675774 1 2 1
1108 1 5.368289691542681 2.0730832921093856 3.770959147246336 -1 0 -1
1167 1 9.319019506812117 10.16745582309923 1.3909844495277348 0 3 -3
1137 1 4.904633668046591 2.489898802212074 1.3152561481392249 0 1 2
1124 1 20.610253425658996 1.3633148141889286 6.003670078612917 -3 0 1
1773 1 20.021040086212146 14.017871667457557 4.175952316164712 1 1 -1
1023 1 2.1699515871139985 4.8555203477963165 1.768774093222079 -1 1 2
1596 1 23.533902591929994 1.332846500314293 13.968016195586607 3 -1 -3
1222 1 5.033699735259104 4.158937596086097 3.1054774812874726 -4 0 1
264 1 1.285772258112699 4.277459664829031 4.343921609446087 1 0 2
1777 1 6.429795732477724 4.4732596742507 1.598288014678079 0 2 0
1196 1 8.214744614555611 3.807125043486177 4.5705894692733064 -2 -1 0
363 1 7.300959874663044 3.178776603330867 2.636291203971985 1 2 -1
1814 1 9.69429944723608 5.356552162461673 4.716898751690895 1 1 1
992 1 8.824634745616953 5.375199766247032 2.316565729469435 1 3 -1
1453 1 6.16435414612509 3.5122448576863987 5.252704156869728 2 2 2
1075 1 9.734997361678056 2.1113577873378917 1.1847758891434124 0 0 3
823 1 6.982550560715166 1.7216423771079188 5.095150052863516 2 1 -1
1948 1 21.142809279714836 1.839118948868035 2.6250788434312633 -1 3 1
2001 1 26.31475086408716 13.91435904859744 6.391103726024615 2 3 0
953 1 9.161372899815774 1.444939984756232 4.466041895792873 1 0 -1
321 1 11.622325869966131 1.7289753643810226 4.807117048567128 -1 1 -1
1237 1 13.618251609825238 1.9288750101420402 2.744337870073039 2 5 1
658 1 9.375738593648244 3.42939277336062 3.029899828155322 -1 -2 1
910 1 11.238892669348578 2.2114250100457573 2.748871845569543 -1 3 -1
866 1 12.697939713788776 3.703580069632866 1.8543023601687136 0 1 3
1 1 12.65929300805786 3.708494330922375 4.049153140745085 -4 0 -1
466 1 21.059411142313245 5.831212902173146 1.8321350756110089 -3 1 1
128 1 13.801483915649266 7.606516349623606 1.7337523866536346 0 0 1
196 1 14.705315009912056 4.217317047939477 3.5693178303445308 -1 0 2
1998 1 17.519370185370402 2.0865724194918203 4.509733754514289 0 1 1
1534 1 17.68081041207906 3.9208591146370764 3.4191808989667525 0 6 2
1688 1 18.826674988473496 5.97410366139899 1.7729306804324576 2 -2 1
1135 1 15.529052035329881 3.298604384463291 5.408848787025193 0 4 -3
1351 1 4.9386644081456375 10.88058582885628 13.547402133791463 0 1 -1
1492 1 15.73728683983042 1.8235536395816405 3.457548484016905 -1 -1 1
945 1 13.795752375394912 1.7790305949587586 5.1171487332476975 0 0 1
573 1 24.668475113116095 12.190244138736185 1.4809247057622297 1 -2 -4
1039 1 1.1771456556990774 13.77825340823709 12.975212534910524 -1 -1 -1
266 1 17.192919534853175 2.164283381974081 1.69215637676287 -2 1 3
450 1 22.08963662796556 2.0094252697249093 4.717961775335052 1 2 4
275 1 20.1232197508145 4.1230360254252805 2.803123666330575 -3 -2 3
1878 1 22.040508798350835 4.486275110929929 4.0267596238204 3 -1 0
1375 1 14.657150163339395 12.767490969202859 1.1050691189005366 4 -1 -1
2006 1 19.32736913016775 4.8848920149219115 4.659909167278528 0 2 4
281 1 22.346071462299165 3.5150160933010013 2.125387875389685 -3 4 3
1030 1 2.117276655619004 12.172189528469724 1.5130794577171554 -2 -2 0
120 1 19.668535337198694 2.495755965158537 4.256982093485739 -2 -1 2
1287 1 16.91094858807055 13.84622408378599 6.317807166766637 3 -3 0
1211 1 23.801613014686982 2.7820715643297813 3.789243149612733 2 -3 -4
1301 1 25.84249616527507 2.6790899459935 4.061140073650483 2 1 -1
505 1 26.413658256439128 4.696028095655615 2.7063520291536 3 -2 4
287 1 25.510325170530322 4.822107124694142 5.205646217709827 0 1 -2
364 1 27.194917068636617 2.459648238389923 2.0548163925191663 -1 2 1
379 1 1.0450562422461473 6.716522034709273 1.9355508175358151 -1 0 -1
1347 1 24.340078131941894 5.0088058928584624 3.4685944678059792 -6 2 -2
1281 1 3.2156961490248865 4.9333637914459985 3.934543522003205 -2 -1 0
799 1 5.02667867457031 5.812896881981268 5.151836934472065 4 1 -3
574 1 5.039242523525035 6.231613433427068 2.446637595132274 -1 0 -3
194 1 4.085722416497922 7.489709551730797 3.890944298993982 0 2 0
811 1 2.9808038336252416 6.477229263512658 2.367417220965662 1 1 1
1912 1 2.462450899166054 8.544639957683902 2.4826560639880952 1 -2 1
1952 1 4.505809812289075 7.962717665136165 1.4344635671863117 -1 0 0
991 1 2.035409957276314 8.444999273377826 4.502506534914042 -1 1 5
1512 1 4.841886329978501 9.320410386142397 3.160154366386087 -2 0 2
875 1 4.01547770892059 9.184020361238115 5.26239337543567 1 0 1
1818 1 6.830984350561192 5.276662731358771 3.54228994848726 2 -1 -4
962 1 8.427827460158829 6.89200942851765 4.453869415348067 -1 1 0
360 1 6.412534987572258 8.799541191106988 1.8669496314883225 2 1 0
75 1 10.305238360311753 6.776171904284533 2.75419615440764 -3 1 -1
605 1 8.296872204843334 8.03745896617881 2.624252159475447 2 2 0
1895 1 10.225394628097996 9.154217300342761 3.0203616851715767 -3 0 0
1657 1 7.795020790424062 9.077399144300292 4.737892945462741 2 0 -1
548 1 8.373221436607519 7.226615781798712 6.681474743120971 4 -1 1
319 1 6.3265112541406845 7.375238393923539 4.118501636315518 0 -1 -2
771 1 1.2156490366945822 14.031087598822467 10.482646877021386 -2 -1 1
559 1 14.14320893741396 6.254423415295503 5.077730061395961 -1 2 3
786 1 10.125364985457788 7.939448003700319 4.982657273610181 -1 -1 4
1416 1 13.337016455770206 5.756913616753356 3.061185039258262 0 3 0
419 1 12.079885785529761 7.858917827368709 2.7798151828494104 1 -1 1
1561 1 13.38367658764706 9.644090825159495 2.893600746587119 2 0 -3
1789 1 10.594800303369059 4.274820705142612 1.1225231100266726 4 0 2
1191 1 12.107011261289346 9.07202826821997 4.837047704908125 1 -1 -2
1791 1 11.129339388426013 4.7959099224756425 3.0287001566820253 -2 1 -3
274 1 11.942952957543234 6.898852148757459 4.632456706633288 -1 1 -1
234 1 11.286114654369927 13.208199968835817 13.587879668324003 -3 -3 0
420 1 11.582856333757405 11.0003317625195 3.201660954952442 1 -3 1
778 1 16.47569912654773 5.3748309743389635 4.342237527234062 -1 -1 3
1682 1 15.137334617647024 6.711096434293756 3.2691982008401346 -2 -2 -1
2019 1 15.5479189681009 8.769709844122694 2.472611372557645 0 1 1
900 1 17.412372332715517 7.296276197710374 2.401043257813803 2 0 -3
1384 1 17.832747731730315 9.409544873126782 2.1717533605111123 3 -3 -1
86 1 16.8574688907787 9.190876607912513 4.186267997189302 2 0 -2
1923 1 16.192960467150016 7.307937122002765 5.242313059916062 -3 -1 -1
359 1 14.173801487088342 8.611216580638414 4.714506882652687 -2 3 0
166 1 18.1886924717197 6.799465686723702 4.378477942636216 -1 1 2
1690 1 19.449066253773836 8.091330751801603 2.277521620132747 -1 3 -1
1858 1 19.094346670706006 8.912294200406176 4.142672716325263 -2 -2 -1
767 1 20.202151611896273 6.352572824861262 3.658392163470229 -1 -4 -4
457 1 20.0048533324001 10.155331522587915 2.6072678776117373 0 1 2
1163 1 14.160701987633786 13.53954740797746 9.467020191555777 -2 -2 -3
197 1 22.065708996540568 7.019133314294611 4.023445467249914 0 1 -1
49 1 21.1845309681246 8.602383348017385 3.5313590961272197 -1 -2 1
1367 1 21.39676118981701 7.928732467950803 1.2851086949644785 3 -1 2
1844 1 20.721271959743927 8.693664303925214 5.525338793902453 1 2 2
1924 1 25.33810080085526 6.529208799671517 2.461327762605788 -1 -3 0
1242 1 27.079416238896584 6.5991451231005405 4.09550798357646 1 2 1
1439 1 23.02808629287424 6.6564304145736575 2.12777671746135 3 2 -4
927 1 23.925059260879053 8.450260374963374 2.965693312264289 0 -1 1
874 1 26.44338990609803 8.478896489757991 5.315220444154077 -1 3 0
1961 1 24.908548835039987 7.257932263047017 4.236567866888311 -1 -3 -2
1010 1 14.049956918253525 1.3885645424692452 11.705809297358186 -1 2 0
1626 1 26.283537074740636 8.35669947929949 3.1155678424523017 0 0 4
356 1 12.103693259765695 6.051134034511116 1.2344553457713154 0 2 3
335 1 15.50808922315342 14.137795016950069 4.2670402111525245 -1 0 -1
149 1 21.51285385475246 12.404578488070035 13.048534714237064 -1 1 -1
1199 1 5.754372714421805 11.158452688582223 2.289339524653426 1 1 -3
190 1 3.344548814638625 10.634437119345241 2.3152511997572773 3 0 -1
1624 1 4.0627918765011755 12.765152948620658 2.3804014736598553 0 2 5
1178 1 4.356240011110393 11.31250189273884 4.222337456157574 3 -1 0
849 1 2.1174329522730266 11.326279429688762 4.007774220947525 2 3 1
846 1 23.195406690130405 1.255373440457489 8.85548101817406 -1 4 1
440 1 2.7248849958784693 13.367821929241204 3.8153927309660247 -4 2 -1
61 1 5.931452444233279 13.623853096306831 3.5112780069031775 0 -2 4
886 1 10.040176834732486 10.112238225279002 4.760553288851009 2 -2 3
1721 1 22.173547601626744 12.12426322960289 10.480578725646824 1 -2 -3
2023 1 8.026753438501867 10.358460823552015 3.1270567152017916 -1 -1 -5
558 1 6.542851067946662 11.743215781710745 4.359444427597747 0 -1 2
742 1 14.29026157701873 5.109653765119465 1.3804653874458224 -1 0 3
870 1 8.660507278051618 11.702515852429347 4.719245064263903 1 3 -1
1854 1 7.484790345807988 12.565786457210125 2.343339379965077 -2 0 0
827 1 5.886556455636188 9.596369920351936 5.105441152400321 1 1 2
1228 1 21.96630259274999 12.354014273667852 1.2905245343257552 1 2 -1
538 1 1.5620597171994182 1.3871558053660382 7.399329235433409 -2 2 -3
1490 1 9.736195536063756 11.916435623764434 2.890991668473756 0 1 0
789 1 10.853697632841707 12.04812601226572 5.244662392578032 7 1 3
1035 1 13.318717302006329 11.039985547019917 4.786596123348154 3 -1 0
156 1 12.412780888692465 12.858808539829377 4.09196149296225 -1 -2 1
1487 1 12.90321762030422 12.108377207312895 2.042482518945225 2 -3 -2
328 1 23.4302029547616 1.62049993904526 1.9249588806870066 0 -5 -1
2010 1 11.215260609862002 13.350370792598001 2.275773154809002 6 -1 4
1508 1 14.55355082646576 12.169765086180798 3.3617363439962786 1 -1 2
647 1 14.89638585355127 10.8123014209139 1.378484923433215 1 -2 -1
1128 1 15.220176049897818 10.594294847598523 4.896757738190212 0 -1 1
868 1 23.50247659521071 11.647268470905322 13.906113956656965 -4 -2 1
1594 1 16.40265855531768 11.194836193462047 2.901984314512524 2 1 2
1097 1 16.585265651170438 12.354409185615095 4.602304256113076 0 -1 1
1978 1 18.549656663082263 12.736136519745598 3.3671158970680364 -1 0 -1
1362 1 18.391205071185237 11.362433001340886 1.6216632656591885 1 2 -1
533 1 16.393178855813154 13.496323919137685 2.4628928220921606 0 -1 1
898 1 14.595604708059376 12.673689941906593 5.7253440671609015 1 1 0
92 1 15.723386779788527 7.319921758010602 1.0886704299174799 0 -1 -3
710 1 16.727707330448144 5.2416942212416355 2.0544364978320697 0 1 3
1933 1 20.923884757513722 12.410596493466327 5.1934395238351705 0 0 2
1815 1 1.6837237027232437 4.191201486811883 13.94776241625887 0 0 0
504 1 18.39654506145515 10.796973125882662 3.836166660326616 2 1 -2
1731 1 22.455415863156148 14.107508336900542 11.400068683600402 0 -1 0
207 1 19.996841920972145 12.903972084600438 1.236756327975802 2 2 -2
352 1 22.654731953826676 13.265561882891742 4.56978297806837 1 0 -1
921 1 21.018322853490737 12.014095786850634 3.1851326213388944 -1 1 2
850 1 11.291125978796572 8.443901785189404 13.811861077911303 -2 -1 -1
759 1 22.065341112438546 10.376288173943323 4.446550719220671 0 0 3
1943 1 23.32755571525933 11.655089821559965 2.9063095586008796 0 -3 2
42 1 25.05944895635847 10.37750661754839 2.5350366954928125 -1 0 0
1772 1 26.66020114282062 12.230805753130547 2.8293919372454006 -1 1 2
532 1 26.4873314698793 10.769874713394595 4.4826847878157015 -2 -1 -3
1256 1 22.346670326155362 9.782511711979868 2.1957608883985102 -2 -1 2
1380 1 24.830009978123947 12.489584706115728 4.330888575886553 -3 -3 2
1955 1 24.643326345218327 9.890132500546551 4.488501910992433 -3 2 -1
909 1 23.90464851801381 13.952104603440205 2.751321156121458 1 -2 0
430 1 23.44658052220138 10.93474875865343 11.698163265837561 0 0 -3
474 1 2.8658539167497326 14.029586600474705 6.6375278024238895 1 2 1
1810 1 3.954648372277674 3.1874926739716702 4.857738835062383 -3 0 1
486 1 3.631036512571128 2.139002299949577 6.61303576904552 1 1 5
35 1 4.422734735030026 2.8374206296839697 8.73853465046909 0 1 -1
208 1 2.0986472359137953 3.284948163503092 7.965832546116154 0 -1 0
1604 1 7.350527252723531 5.000265859982353 13.914868235500142 2 4 -2
1803 1 5.536867255607564 4.818330005701188 9.39261202380996 -1 -2 1
961 1 2.7649114671933646 3.100359268920083 10.505638202637078 -1 2 -1
397 1 3.1660334226132756 1.0796619120897115 8.929273333989748 -1 0 3
2017 1 3.413533015014422 4.755123747841056 8.614560342128676 1 2 0
1223 1 17.902601663439658 1.8127304124131627 14.103925163570132 -1 -1 0
1722 1 7.6968415026121955 1.0631681159641722 7.493114358727107 2 0 0
1355 1 5.919964743523749 2.5622749975771875 7.166085134382318 -1 2 -2
71 1 6.6731148587539275 2.8590235531069013 10.043542686922361 2 -3 1
899 1 8.731779897915429 2.4175494414561207 9.3631025297485 -1 2 3
721 1 8.0708502035005 2.884603019752835 6.536235750460366 -2 0 1
856 1 7.367310864089788 3.919732303080327 8.239782980196356 -2 1 1
560 1 7.163269236757013 5.128152447444981 6.164066691693106 0 0 4
351 1 5.365294187452665 4.591154585606631 7.127492812014319 2 0 3
1296 1 10.180237635365332 3.292792740947015 5.262231545029672 2 -2 0
60 1 8.985140682071421 4.87989346654334 6.909001852908632 -1 -2 1
386 1 11.945333435718192 3.1233241498820843 6.414473427856015 -3 2 -1
1115 1 9.851633345909981 1.3024752449495083 6.555508801990628 1 0 0
760 1 10.325737608305143 3.335603973680148 7.598211885202441 2 1 0
97 1 13.536065901187678 4.567352237677349 8.034312860009669 -4 -1 -1
2043 1 13.887636508158609 2.520567065773175 9.261292766298062 3 -1 0
1655 1 13.369072506338881 5.532195393797846 10.077274970646913 0 1 1
1340 1 11.688432873031779 4.971237719206574 5.729641055022945 3 3 2
1746 1 11.963558668571208 2.058344076836819 8.476474260172864 -1 0 2
1497 1 17.193174972279284 2.7082856822859958 7.3147982114671795 0 -2 -2
1743 1 13.692949849572013 2.2481242462614555 7.096477256841324 -3 0 -1
389 1 13.782231358110847 4.396637224043855 5.888266504874597 0 1 -1
1997 1 17.195959088364926 2.1662658403941712 9.442176094716713 1 2 1
308 1 15.30785088784413 3.389683394599989 8.166330850942808 -2 3 0
622 1 17.383528356772057 3.9190356874324834 5.7573283097749615 0 -3 -1
1906 1 15.2907466945243 4.286932274019302 10.203272942397332 1 1 3
1000 1 17.303010737349176 4.87708396550155 8.265445346491443 -2 1 -1
1726 1 20.01463831671428 11.494454754184945 10.70547796885142 1 1 3
188 1 25.694821832669252 10.507399940929337 11.612676499542541 -2 1 -2
1707 1 20.86892097885973 3.6661405781040237 5.983240390211466 -1 -2 1
679 1 10.120572261533878 13.898552884757704 4.480107515668617 -2 3 0
1627 1 22.45695103471274 4.742374803392568 6.8551294292649825 0 -2 3
1266 1 19.1666497688268 5.090500939944814 6.969782641674374 0 3 1
878 1 18.95143935959792 2.5721795996395302 6.448770306715857 0 1 -1
303 1 21.127236490060803 3.9254863545157024 8.343273531265657 0 1 3
1447 1 19.01284504834859 3.461605071581774 8.645361807355584 -2 1 2
1585 1 22.22069000944458 2.5270736405937066 6.936217688964557 4 1 0
691 1 23.08362358521092 3.853805950673401 10.009994776988396 1 0 3
1087 1 23.820921783228982 3.587310792754332 5.646698668177772 2 1 2
1440 1 19.082223053946244 2.2594981713160807 2.188623359328531 2 -1 1
485 1 1.7896785786704559 2.5978147178684323 5.67953489251197 -1 2 -2
1058 1 25.96128245878141 2.932583429174751 6.3368283959252585 2 2 1
693 1 23.913779888650097 3.2255147093143948 7.844285585777546 -2 1 0
460 1 24.65371739255191 5.135403775406785 7.136810251289205 -1 1 -1
1498 1 1.1695680557477308 4.395254778839595 6.687405111212929 2 -1 2
168 1 25.79216874671293 1.4523134681114667 8.007279816914792 -1 2 1
1069 1 26.231627178474728 3.6147552546038817 8.363789742130988 -2 1 -1
1121 1 3.2828844700606847 4.69089356662799 6.574183396419143 1 1 -2
1187 1 4.949317667361031 6.4610464421440215 7.984596944539118 -1 1 2
1869 1 3.799128730276933 7.1952083226494965 6.110407143008447 0 1 0
890 1 2.3081104178373 8.548314095964544 6.844034802900451 -1 0 0
1820 1 2.291785255927306 6.3338832413733 7.560911240726468 3 0 -3
1254 1 3.6797740172197364 8.09217612716628 8.631841216843416 1 -1 0
656 1 2.2218938946936566 6.1489849576113444 5.519234257733468 1 1 0
1502 1 1.8285770242339479 8.416552908007294 9.684782575518675 0 1 -2
587 1 10.136956278221874 4.272492940262728 9.37235047791462 3 -2 0
68 1 7.148486107407524 6.011681520133661 8.233623017474088 3 2 1
821 1 6.584867223849377 8.33600243360404 8.290436908494808 1 -2 1
1558 1 6.132788714174992 7.373314197003473 6.154279523812607 4 1 0
631 1 8.756484849786018 8.346292599824107 8.525663345167068 5 2 2
1156 1 9.225313532344819 6.103719932404493 8.620863983381248 0 -1 -2
968 1 7.6903962328386815 9.253321076683877 6.631258952588938 2 2 -1
178 1 5.135169441487825 8.980169532180618 7.227406027190252 2 2 1
155 1 10.711107268098825 6.825994180425307 6.685150789025893 0 2 -1
1068 1 9.803600255155835 8.95061424285548 6.7181238701630885 -1 2 -2
1313 1 11.469983998423375 5.291128621066223 7.838300575014849 -4 -1 -1
36 1 13.257624234190706 6.237477529815871 6.886481449053799 0 -3 -3
1175 1 11.990812821248765 8.273476941757536 7.091691741967293 1 4 2
913 1 10.802536388445885 7.562019649216605 8.893255275652159 -1 -2 0
1905 1 13.035710883883137 7.165101725585282 8.815650367300872 -2 1 4
1424 1 14.876555563653115 9.297013968876747 10.726283059375282 3 -3 0
1446 1 17.717077366118506 6.082538574326973 6.169703547676065 0 2 -2
1192 1 15.844173644976738 5.33478112727875 6.628231347888992 3 4 1
536 1 14.230756677459821 8.07827877638034 7.084382280622442 3 -1 -2
936 1 15.048929980493408 5.663997695677557 8.61053579400388 0 -2 4
83 1 16.4871936713075 7.334250007576349 7.341122590050348 -2 -3 0
525 1 18.000973464624757 8.496097182964526 5.914578863381822 2 -2 1
1305 1 19.273578340884487 9.680318971425327 6.942808169746407 2 -2 0
1977 1 15.928384900755082 9.053639577327782 6.161064386118842 1 2 1
943 1 16.732831671513612 6.383822675242006 9.552839832998274 -1 0 3
1345 1 20.07101630574259 10.478362430770646 5.166632378319959 0 0 0
394 1 20.89746012792204 5.8766465230847515 7.8187507820294435 -4 -3 -1
836 1 18.545738658403742 7.432384333838018 8.361495129693036 0 0 0
594 1 21.010508361461255 8.395773355182834 7.7849456348616455 -1 1 -1
1094 1 21.22951932455235 5.981105165900971 5.748136083865498 -2 -1 0
1744 1 19.574943990817165 7.303184596813405 6.319929627392004 2 -3 -3
433 1 22.494877606600614 7.217016007604642 6.917688422368141 0 -2 0
1302 1 20.67969341017681 6.992347057360676 9.549613725571826 0 3 -3
1047 1 19.26736159286869 5.410444394188463 9.733495341177347 1 2 -1
1992 1 21.949919084190526 9.529611884317315 9.756025051215683 0 0 1
72 1 23.466573170714796 6.040952386318151 5.211920898303342 -1 1 1
1449 1 26.591228316517267 6.492142419644847 6.211089536218219 -1 0 -2
628 1 26.86618743758313 7.958913329466164 7.699314781160721 -4 0 -1
41 1 23.161461210860715 9.207192499558372 7.127520689733204 -6 -1 1
2026 1 25.613340070043705 10.02800366065529 6.614303013395827 2 -2 -2
1871 1 22.893867133617118 5.553803514195646 8.72250207910239 0 -3 0
825 1 23.06153033599164 8.597286270464704 5.204723851783901 0 -1 1
1570 1 24.685438908740498 7.5867150336802975 6.470789541027399 -1 0 1
1072 1 24.869245257480536 8.768684483820731 8.376189413571158 -3 1 0
107 1 26.427971327159234 5.746851664509769 8.13520466239872 -2 -2 -1
955 1 24.632960779818188 6.754365199363394 8.451333369517428 2 -2 3
1761 1 27.18306171545409 12.654637595472153 5.080848318767654 -1 2 1
589 1 4.7903583264053395 13.336189944742674 5.201331198143168 1 -2 -1
891 1 4.313256318694336 12.696162172990757 8.133229841733137 4 1 1
444 1 3.604872716630559 11.948521890023823 6.123260972975004 -1 0 0
110 1 5.283825256622576 11.146565665691728 6.316936159069791 2 -1 -2
517 1 3.522447840267491 10.54703133078945 7.763646168313315 -1 1 -1
1155 1 2.2469036736193577 12.967255373833261 8.686446522504578 -2 2 2
1186 1 6.261856268827923 10.47962450625307 8.285746159651843 -4 0 0
1822 1 1.827087934201566 10.47357040674818 5.81059136839488 4 1 -3
1510 1 10.79614169871839 9.913834680491366 8.506109873571784 0 1 3
1982 1 8.376827594928574 10.774440256880856 8.314832611510905 1 0 1
291 1 6.569444253757622 12.898457917881688 7.619871491579589 0 -2 0
1210 1 7.3571314382660375 11.362853132523728 6.396072479971952 2 3 2
718 1 8.644947343663102 13.303662347448196 8.255084302760935 0 0 -2
95 1 9.177019694283805 13.065477447400449 6.156156164913219 -2 -3 0
2008 1 9.52935557620895 10.985205083585626 6.439282657648309 0 1 2
1972 1 9.369778860787514 12.064143198324874 10.120890082955604 1 2 -2
1298 1 24.435431308462697 4.189076111417119 1.5277073085755437 1 2 0
210 1 12.998298489488194 9.267660938911511 9.254630852652545 0 3 3
1538 1 10.437133018966222 12.544452495369075 7.993512362573025 0 -4 -1
808 1 18.127431820998318 5.930096745657264 14.112745592033475 -2 3 -1
1009 1 15.156482491490596 10.158076937692494 8.47537962875069 0 -3 3
848 1 11.727929669097131 10.479850406840772 6.56972338200048 -1 -1 -1
342 1 13.812093525874198 10.171567359444158 6.637743678183549 -2 1 1
511 1 26.650417993463567 2.1996719010067376 13.976746460868467 2 -1 0
714 1 12.539955481232546 12.493412132417818 6.662562755556794 1 -1 2
1081 1 12.548199061312655 14.100407251636481 8.011686993288617 -2 2 -2
354 1 7.278487026946521 11.508582307979351 13.771495554297388 -1 0 -3
1819 1 12.22673864213525 11.493049393716525 8.491580201603524 1 1 2
1169 1 17.295295912884654 9.58588510637739 7.793060166823911 -2 1 -3
432 1 14.523204297930969 12.075434627450894 7.870953166832941 -2 0 1
1448 1 18.512346138675596 13.015735372245741 5.548859784229701 -1 1 1
1011 1 17.867095988997274 12.245999458173705 7.628138444089628 -2 -1 2
667 1 17.712749774290234 10.64675873203842 5.760423694631837 2 -1 0
1993 1 16.19482847527651 11.351218889590605 6.899076523569901 3 -1 1
1862 1 21.671566271532125 2.0487358789189076 13.446286847806801 -2 4 2
1989 1 15.170083954835818 3.0635894835375286 1.7018086683371296 -3 -3 1
370 1 16.133165464637905 13.427934272936563 8.263106265752313 1 2 -3
1877 1 19.57456054374455 9.148427973903521 9.541238042143448 -1 2 3
1064 1 20.120406332368496 13.293925681301689 8.952735535343102 -1 0 2
296 1 20.006682042654145 12.142394779602585 7.003230342630766 2 -3 0
1311 1 22.56929239633498 12.74565405766975 6.668658041896722 0 1 3
636 1 21.27168607960144 11.594869994176234 8.544252854501249 -1 0 -1
1151 1 21.526971849474428 10.522996517016296 6.6513979126767735 1 3 -2
1821 1 23.318872952457227 11.000984385354913 8.035588447944399 -2 -2 2
498 1 25.545918775760935 1.0412038631553797 2.7081961945547643 -4 2 -1
28 1 22.1910506018672 13.621796335601164 9.00197313663229 -1 -1 0
1172 1 1.2902958335892407 10.075670881379327 2.4036575706292655 2 -2 1
1107 1 1.0421974740429114 12.241716500110886 7.261561553990209 3 0 0
58 1 1.188897627616196 10.106472053655997 7.931950565179129 2 1 -2
541 1 25.09406450157344 12.408415216952136 6.629511856358333 0 -2 -1
824 1 24.086875723972074 13.967708575837028 5.851704257196883 -3 2 3
1198 1 25.95166258513785 13.516937994267149 8.921185611535478 -4 -1 2
26 1 23.52318120304224 11.198748613808476 5.707683469381344 2 -1 4
1412 1 25.707239322977347 10.948643098499103 8.520993905550103 -3 1 -1
1581 1 23.991460224439127 13.512635905613788 8.07064321668172 0 2 -2
1610 1 1.1819063854067566 11.392929561469922 13.09014199339318 -1 -1 -1
443 1 11.6787979554375 9.459995196225817 1.4862156813836347 0 -3 1
37 1 5.096637589469287 1.3708854330153466 10.492564046955934 1 2 3
1716 1 3.6569455271000426 2.0765055659415705 12.257941605939239 2 1 1
569 1 27.184432798019973 2.094899301263716 9.418935966276988 2 -3 4
798 1 3.179161088057695 4.485963984584707 12.888957692780105 3 0 -2
987 1 4.698316719205973 3.5674705305074053 10.89394436445334 -1 -1 0
947 1 8.973622054538588 7.81644967764957 13.764044372112679 1 1 2
1683 1 1.672052483566223 2.655768143058594 12.344468876342525 -1 0 -1
572 1 3.354327747082249 5.102193335159672 11.019235769447139 1 -2 0
1647 1 1.3478707925149027 4.914239445287861 9.629847901139577 2 0 4
240 1 7.8323336477328915 1.7561864712642237 11.42171839244861 -2 0 -2
1609 1 5.041463243591543 4.07814593434653 12.997835001750875 1 2 0
133 1 8.333142671271581 2.665630891082021 13.298127399553364 -3 2 -3
283 1 7.693978048892381 4.985254497464267 10.159497095043596 -2 -4 1
1903 1 6.974324147576561 3.994590055400619 11.93430449618346 0 0 0
1706 1 9.007351777980286 3.5781774585821404 11.323367458725764 -2 2 -2
492 1 9.585441229993277 5.478335709869744 11.192938490489947 -2 -3 3
614 1 6.115812841094672 2.2007679634038038 12.29055362459336 -1 2 1
1667 1 22.02735703879469 10.003751201948575 13.634221287776645 0 3 0
1669 1 21.328194087403446 10.355809985329419 11.453126378081244 0 3 -2
911 1 10.915745220978264 2.509557376896426 10.574717403923144 1 1 3
1063 1 12.154580260629272 3.8792091655349523 9.549573862753483 0 -1 1
1593 1 11.199162451375408 6.105727244238088 13.593187245002925 2 -3 1
1002 1 9.692555699271248 4.449350470317171 13.076020215859785 -1 -3 1
280 1 12.192876750552333 2.3526181788496388 12.61814869844808 2 0 -1
13 1 11.792092827723053 4.26294854472804 13.582887081396414 3 0 -2
1729 1 11.435598636125516 4.348016183156882 11.42645938606993 1 -1 2
1811 1 13.0948003220219 5.446096398734829 12.227931582475804 3 5 -1
177 1 19.892177540198734 10.495274642388258 12.717423551558621 -1 0 4
315 1 9.16339975823424 13.965438825102343 2.2177506269097664 2 -1 1
1084 1 17.477391371991246 4.187837961019547 10.37075908061417 2 1 0
747 1 24.108120680968128 1.6168366664727447 6.581873761501262 2 1 3
300 1 13.690118460045923 3.4863279250574846 11.283040417206976 0 1 1
543 1 13.952106123611632 3.5139146097440244 13.480614535954851 -1 2 1
986 1 15.888464904766446 2.720592641612914 13.301127908506299 -3 -2 1
1049 1 15.816680176780748 2.4135675996757917 10.931022214323566 0 1 1
1985 1 15.524960175178641 4.683633071848641 12.329769872448239 -4 1 1
1555 1 17.72025800648618 2.0414460503830334 11.567859402869013 -1 0 3
2024 1 17.851340150682475 3.998751468296986 12.466221224149098 2 -1 0
711 1 23.85878303798674 12.96757431749235 12.144350824402444 -2 -1 1
167 1 6.530885989820972 7.086762991300507 13.625964683458136 -1 -3 -2
512 1 21.468052607704454 2.2936248303376106 9.804297203884193 -2 0 2
263 1 23.06307827660104 3.752546056925749 13.65194648193441 -1 1 -2
970 1 19.855029281342198 3.3756331030267797 10.784052975022458 1 0 0
1652 1 22.586371870045976 5.412316643360477 12.529220046624141 1 3 1
298 1 21.696203000954156 3.448895154713973 12.060627553377515 1 0 -5
1180 1 19.804674965670483 2.6043889876448207 12.612964393499265 2 -2 -1
776 1 20.685722279253607 4.153680192794803 13.741134043850266 0 1 -3
867 1 21.50511928677702 4.946299726922537 10.416921874825345 -3 -1 1
217 1 17.950016155984205 12.925941022467452 9.667865680231072 1 1 1
965 1 10.581852596375496 13.99546077170477 11.498091331391537 -1 0 2
566 1 5.10137694270719 13.053756984463533 14.09459471047316 0 3 1
307 1 25.9568085114245 1.7572968481667335 11.01072537071626 0 2 1
1516 1 24.76214157622607 2.796679044980515 9.630035526925559 -2 0 -3
62 1 23.455016864990835 2.2202345240122243 11.583673233479724 -2 -2 1
1922 1 1.299495856481344 5.094725228649273 12.010475286881904 2 1 2
1809 1 25.069205929982505 2.8771173196014854 12.805002844308733 2 0 1
320 1 24.224429738884144 4.296063732117625 11.64430927937645 -1 0 1
333 1 3.5245550681863556 13.438072572653716 10.37572373519562 1 2 -1
1458 1 25.029898427416217 5.17428546574556 9.719953887651432 0 1 1
150 1 26.422756764295144 3.7256449756405536 10.779728416281829 3 -3 0
933 1 19.378681941569056 1.2820457570987462 10.138874723321035 -1 -1 0
459 1 4.977979779410406 6.952439366105198 9.923873468173644 1 -2 -2
260 1 2.790788670118968 6.498275884730193 9.481179861247151 1 -3 3
422 1 7.094076590564506 13.843211861303505 10.065477400100685 -2 0 1
171 1 4.086344084560369 6.837823443550731 12.274145064132787 -1 -2 2
1054 1 2.4523190974215585 8.605214201466485 12.916818125356313 2 -1 0
822 1 1.982220258209657 6.960887660889188 11.473712085704236 0 0 1
45 1 4.493237646412627 8.691297971980102 13.39758522403927 0 -2 -2
1750 1 3.6658515500082163 8.598861915575998 10.974846613471419 0 3 3
350 1 4.910021238576601 9.628360888678776 9.417675508609202 1 0 -1
1245 1 25.411832832921142 11.797608585176745 13.311331827940549 4 -1 1
1824 1 9.307154745901721 7.511671016402796 10.725056254900052 1 -1 4
175 1 5.811013850018413 5.6764009041451695 11.615945243504038 -1 5 -3
1845 1 7.109521792885073 7.24403985678408 10.423970703140327 1 -1 2
57 1 5.583760699356558 8.33297001470251 11.41576618849281 -1 -1 1
1745 1 7.3301875250009845 9.593154492538018 10.08634606676431 0 0 1
1070 1 7.9958350953790465 6.225148218714204 12.271984381657614 0 3 1
1335 1 7.98541638366119 8.52562882598853 11.880683511283943 2 1 -1
1483 1 6.735605218461208 9.243243501215206 13.462807391063894 5 1 -1
344 1 9.52623287589591 9.924861293214073 10.247108927257276 0 -1 1
1546 1 11.058289536910594 7.488482768541916 12.087341514765015 0 2 -1
1365 1 12.757650250875338 9.48091337027994 11.932289213361816 2 0 1
347 1 11.43789435673234 6.115975928085238 10.201093565646993 0 2 -3
1278 1 11.440467407615412 8.702992605556897 10.570413714073549 0 -1 2
1475 1 13.197615109342003 7.455609981493638 11.445665982609842 1 3 -1
154 1 25.998996603505685 12.926475958020044 11.316556653523554 0 0 3
735 1 16.377977313831817 10.275772698133656 11.38940427693611 1 -2 -3
7 1 14.810115840615305 8.170850283349658 12.704335148990598 -2 -2 -1
1145 1 10.237704874473438 9.395117494774945 11.98345820878922 -3 3 2
843 1 13.309202320958745 7.131205859327993 13.874751042800183 0 1 0
497 1 17.17352063698979 8.617680564048275 9.971246666420328 1 0 -1