LAMMPS data file via write_data, version 29 Oct 2020, timestep = 300000

2048 atoms
1 atom types

0.9582070027860432 27.39379299720929 xlo xhi
0.9582070027860432 27.39379299720929 ylo yhi
0.9582070027860432 27.39379299720929 zlo zhi

Masses

1 58.933

Atoms # atomic

591 1 4.539500527649979 1.3524464723392882 1.315399359136993 -1 -1 -1
1216 1 3.432404413729778 1.8737689123681665 3.377307718864049 2 2 0
1809 1 2.400461423051345 3.169638940830485 4.823688854423821 0 0 1
813 1 1.8185191124278886 3.70769254760708 2.8246081491804995 2 0 1
1081 1 4.5682115666705485 3.923853880614414 4.7716899768454795 0 3 -2
1561 1 26.686424932581428 3.8915627869257907 3.803934475997825 2 0 -1
1825 1 4.147520318174112 3.771326470139301 2.6807212036569434 -2 -3 1
1928 1 5.242651652565505 13.55217881971368 1.6919360518078697 -2 -2 1
53 1 8.210735569469925 2.5389556808713403 1.1550627444614365 0 3 -1
471 1 5.988438947475116 2.5520671193684397 2.34126546372764 -1 0 0
536 1 7.124788210250294 4.2780130444502715 1.7381374186325451 2 -1 0
1939 1 4.603771049132897 3.7055134393128375 13.479978309770733 -2 -1 1
1398 1 2.069667803848989 13.512715816678945 9.658870545697768 -3 1 -2
203 1 6.835353048647415 4.26332356977481 3.8219999144127272 -1 2 -1
209 1 25.930099355369787 10.239908225273835 13.444030764289986 0 1 1
1241 1 8.114375262378413 2.1377941742833135 3.190817424564155 2 0 -1
1854 1 9.756244253544091 1.4129155616580509 12.879497800271976 -2 -1 -1
320 1 9.106048507974595 4.6981050314765795 2.4804499289729067 1 -1 1
1611 1 9.683620696727385 4.6341360523389135 4.497175980284835 0 0 1
1186 1 10.241177006502603 2.7815504444777126 3.5382749223831755 -3 1 0
607 1 12.155280975523794 3.939695591867632 3.8315248744082284 -2 1 0
1281 1 13.53464349306957 5.948040509520678 2.6388424771157526 -2 -1 1
1661 1 13.467525685044581 3.2315895675601083 2.2234855239371853 -2 1 0
905 1 14.357366686809875 4.149910424194803 3.741697794083804 1 0 -1
1339 1 13.345702329929555 13.422325331989102 2.204468890677041 0 -3 1
1608 1 11.513159910913647 4.253469120458231 1.8736922094166326 -1 -1 0
1869 1 12.225306087235717 2.236982687084132 5.62048136257842 0 1 0
1782 1 10.130125942055699 2.827937402900477 5.520148594008392 1 0 1
895 1 11.606242628855567 1.6374901228664491 2.7585064880309367 2 -2 2
45 1 4.178458266224192 1.395254482041833 9.715781555313654 0 -1 -3
1400 1 13.831008139241819 2.0307806225449854 3.796870023456253 1 1 1
1773 1 16.48658056629541 4.061950750366885 4.749097386102273 1 3 -1
81 1 15.59032110486611 2.8270531602589997 2.7082795345900355 -1 1 0
1219 1 26.02369213540262 14.05782441190691 2.11856328050854 0 1 -1
2018 1 18.20723307096698 3.368268409127156 3.1639186048788397 -1 3 2
2027 1 18.31494711091895 2.0026720626543173 5.062376311229502 1 3 -1
1385 1 17.794747008823222 5.518947918135431 3.236181958781957 -2 2 -1
605 1 15.917717769838058 2.024911212918929 4.740869590651981 2 3 0
312 1 12.020821001694733 1.088702030545988 13.091570439996206 2 2 -1
829 1 14.60496668720505 3.2643792144218353 5.9140545724680385 -2 -1 4
980 1 12.945376812907462 9.541199450315348 13.645243276074417 -2 2 1
1331 1 20.088885014052746 2.3722619159649545 4.061959041858543 0 1 -1
477 1 20.467535888909524 2.9289889863708476 6.08868869940821 0 -1 1
295 1 18.6564353607493 3.5002392900748522 7.067689313285305 1 0 1
1794 1 21.830838372935187 3.522674246045921 3.909311604693299 0 0 2
1242 1 23.56062128185761 11.338190144274908 10.191461137183868 1 0 1
221 1 22.976818806813995 2.0144714967214927 4.395712733728113 2 2 0
571 1 1.807417433583846 2.4576645972956426 10.178379128798374 1 -2 2
1366 1 18.86618769825944 4.1108978189581915 5.016487627162719 0 -1 0
719 1 20.28887892960543 2.3245301566857206 2.128331226159962 0 0 0
413 1 22.78501832834087 1.378044932107235 2.4828150781737577 -2 0 2
1443 1 26.536983579836715 2.0094802827801965 2.631459056465724 -1 1 2
1994 1 23.939974167310275 3.720698341989398 2.9683834939271545 -1 -1 -2
1724 1 24.309213023955113 1.3783939439033017 5.885133949890364 -1 1 0
1747 1 24.872734077323432 1.7680217153592555 3.503339874809498 0 1 3
59 1 26.22745185096326 2.337242370265317 4.962041315528944 1 1 -2
579 1 1.331842773871697 1.2704581269428317 3.9924045445424863 0 2 1
1932 1 24.531155681091604 3.6815597465242034 5.32283043376642 0 1 2
686 1 11.932161370176456 4.779601422284827 14.078761284008689 -4 1 -2
1320 1 6.3253633683861175 1.0303455382724 10.73706389267026 -1 2 3
561 1 3.4184107569188003 9.311243872501247 3.531710254796432 2 0 1
1868 1 2.576779802844688 7.554015729917192 4.1973439271095625 1 0 2
47 1 4.819211780079618 7.136433090643217 4.1911197737324155 -1 0 -1
998 1 3.447751171344051 5.529717667313797 3.4588129811000266 2 2 2
1334 1 1.5903318659318355 7.773906821916305 2.22692705339975 -1 1 1
1543 1 4.067056525428052 7.409875034529588 1.9888542971448315 -3 1 1
356 1 2.282594900635779 9.58284029986991 5.372309402893921 0 1 2
1817 1 5.7723216785784 5.250159081252513 5.3769299705570575 1 0 0
233 1 5.520301500862072 9.280693128987195 4.55539835459634 -1 1 -1
1639 1 27.24614628620677 9.122214292313306 4.102322629421991 -3 -2 0
782 1 5.268797467910438 9.078911880444137 2.2021424551543385 0 0 0
314 1 7.800244259949159 6.4759796021093265 2.003947758443549 1 1 -1
266 1 5.600492377220797 5.541080988303012 2.7039009464486727 -1 1 0
1803 1 7.82671245445474 6.0507236117861165 4.1241531390754895 -1 -2 0
1483 1 8.521175968622138 9.300210226817562 2.5754759689151037 3 1 0
803 1 9.316814704822853 7.666810340451685 3.6591070571909348 2 0 3
1628 1 7.727322156834379 9.16321096797745 4.272231290035347 0 2 -1
1221 1 10.113672742804244 9.422776395105057 4.267059150330308 0 -2 -1
721 1 6.720418799849701 7.849272862657885 3.0883739132426333 -2 0 0
884 1 12.953069887844315 5.692697921979068 4.67463073554314 1 -1 0
469 1 5.597272096406486 1.9060783680155498 4.542284066740557 1 1 2
857 1 12.283818001010971 7.564714992236532 3.50458580848871 -1 -2 1
1938 1 11.834990498907162 6.606139148103048 1.4735900462608569 -1 -1 -2
575 1 10.79290607676954 5.999620185595263 3.3409330690275856 -1 -1 1
510 1 14.075412297052223 7.141732668300273 4.566283526060344 3 2 1
383 1 14.96157822003424 6.837008925207718 1.56351721565499 -1 -1 0
1118 1 14.719345559788277 9.19511398154913 3.9033688356504936 -2 2 0
397 1 13.299574202508824 8.324481178987316 1.9278748858598722 -1 -1 4
1733 1 10.821129574986161 8.360876252872814 2.0682520156437705 1 0 0
349 1 18.477815227539054 7.43719358869873 3.2363828124539147 -1 -1 4
647 1 15.6337026528232 5.866501700602843 3.8539210173495495 1 -2 0
1911 1 16.782355470545603 10.937739300972696 2.3704885915057927 -1 2 2
1012 1 17.193850936538347 6.759992022265695 1.55988570199775 -1 3 -2
1177 1 19.837164654055474 6.412379957186976 1.9552750913220156 0 2 2
1541 1 19.699897293490288 4.369523996157221 1.5666350431088691 0 1 0
1784 1 18.855627910780882 10.011245019209563 3.2441529570473953 1 1 0
310 1 16.25171329320928 8.022713620839571 3.1087792527125373 -1 1 -1
1351 1 21.21928709148032 4.97479134650135 5.74250877576998 0 1 -2
1166 1 19.457684681680192 6.459161152003587 4.93574023913488 -3 2 1
614 1 22.56604887395418 7.809671530892283 5.0147980426795415 -2 0 0
488 1 20.152215653473405 4.930420750927628 3.4688896527377646 0 1 0
932 1 21.756896669730352 3.670353455166098 1.5804173467697327 -3 0 -1
379 1 20.26799462654162 8.301212724347579 4.5924732737770135 -1 0 0
1350 1 21.660415536286333 10.18429738404725 5.3016633835032 2 1 -2
1765 1 19.943787688318142 8.622498416905572 2.4611162147846644 1 2 0
757 1 21.5373944033031 6.76364018456971 3.6936166216999857 0 -1 2
1258 1 27.351167288344524 5.906391920037569 3.1515019920572027 0 0 -3
814 1 22.709963548882534 5.484730616910672 2.7699828632489654 2 -2 -1
287 1 21.54544370886745 9.48427563000632 3.220729293842788 1 2 -1
249 1 25.29755214014488 8.984146400813403 5.354046712758707 1 3 2
1866 1 24.930608175866098 5.456975056178718 2.8975500906190526 0 4 0
138 1 24.613410085605608 7.1331422331274785 3.9763387287951963 -1 -4 1
270 1 26.865933504515695 7.336788639938799 4.793561098601159 0 0 2
986 1 25.268330345634926 9.131691063190493 3.13296971840248 -3 -1 0
1006 1 23.167165753044905 8.029516122538764 2.6339026963841023 1 0 3
1083 1 25.73862447711777 5.52344055412498 4.893084567915122 -2 -1 -1
1813 1 4.346431185358616 11.396423191376464 3.8428382861316366 3 2 -1
1087 1 3.297905413704467 13.076092099883594 2.6197629061535004 2 0 1
1456 1 3.4710615211311993 10.941434659716046 2.0269109855933323 -1 2 1
32 1 6.408723830866474 12.989680734259663 4.130242245841831 0 0 0
1623 1 2.1410983796132577 11.230032214058124 4.022792293185159 -1 -2 1
762 1 2.745923470311455 12.756044693116557 5.576634437467363 2 0 -1
1493 1 14.930000622554545 12.055084261332588 1.0982160203336704 -1 3 -1
190 1 1.8007427542768706 12.186503358706453 1.4930754968933737 4 1 0
1274 1 6.5563905559776 10.559427055019757 2.9096185453203507 3 2 1
1208 1 6.64872206003005 11.253872140246791 4.920415222707117 3 2 -1
1134 1 12.828728263621164 10.981673569128578 1.2265408034675476 1 1 3
229 1 8.554829934855428 11.302816553352704 3.7161745197058136 -2 1 2
1649 1 9.315790525743964 13.047221471789962 2.8694920078667754 0 4 3
1494 1 10.357847573007877 12.462526485795395 4.378525311223419 1 2 -1
273 1 10.223375413415505 11.01637196365615 2.798143676506112 0 2 3
1184 1 11.001573934572223 12.980569564531981 1.4755941446382461 -1 2 2
313 1 8.37552059570622 12.86286794959081 4.867635674022445 3 -2 1
1020 1 11.89302790775247 1.4429375959552124 8.992268588265556 3 -2 0
58 1 12.257848526363366 12.176195415191636 3.2327541880859356 2 1 -1
1802 1 12.108091277967283 9.885440096760696 3.1617963090952044 1 1 -2
1501 1 14.259698033424684 10.929538388293418 2.7900780257724698 -2 2 -1
756 1 12.136783513642229 12.862525558425837 5.668548252547446 0 -2 2
683 1 25.74608435398169 3.8408247770472217 1.7401804137485422 0 -1 -1
1922 1 14.259168410510258 12.842500646510555 4.450304306841669 0 1 3
1193 1 13.449849107811417 10.725837263783136 4.901763409560432 0 1 1
114 1 3.16156873593879 8.947082254742345 1.355357710577509 -2 2 -1
1551 1 15.329440225724193 9.084574396221882 1.6113365825166084 0 -2 0
767 1 15.788696915605586 11.082075199274243 4.524224847825623 -1 -3 -3
486 1 16.061127467737116 12.614367500559792 3.3117655814458473 0 1 4
134 1 18.76681259605083 12.686407110532619 6.165551908813049 -1 0 1
1886 1 18.446764657835203 11.301141798108402 1.3102055670132753 0 -1 3
1082 1 2.5327536079385453 1.2802630040466823 5.898200194676518 1 2 0
1424 1 17.851458465504514 12.095874843280109 4.080997670697803 2 -2 0
1058 1 4.329170384940668 13.63888075962364 4.289932565247049 3 1 0
503 1 8.066872508379202 13.605182617781855 6.721799657882107 1 2 -2
509 1 22.18121342559482 13.210805262785419 3.0651387368070955 2 2 1
129 1 17.024852488173615 2.831536791576527 1.234978527816819 -3 0 0
1665 1 22.354902523645837 8.909273541851563 13.167984032373337 -2 -1 -2
549 1 19.64045094291085 10.250763758581657 5.1185849834629655 1 -2 0
213 1 18.565729244695863 13.131158174018685 2.2096060861591527 -1 1 4
823 1 20.153562541316855 11.707877593941047 3.4539214167608736 0 1 0
323 1 1.3674212268826715 8.908623599375886 13.39750452705316 2 -4 0
564 1 22.042063407085983 11.272773002116132 2.5824032967240353 0 0 2
633 1 14.540462193089798 13.946846416276367 12.946987128008253 3 -1 -3
183 1 25.5656297129075 13.882125382915934 12.247569178750929 2 -2 -3
988 1 27.230033536715954 12.685266538177482 3.419098972958616 -2 1 3
1641 1 23.022928532082865 11.932867826251483 4.610692133003964 1 1 0
1534 1 23.541778582204874 9.797127805433226 4.161398283829755 0 5 2
1336 1 23.68893818786442 9.820871533540053 1.9897321769847076 0 1 0
61 1 1.1008761856542684 9.778696828952741 2.1921455421654987 -1 -2 2
1999 1 25.560146210334825 11.011749474410273 3.598560956336277 -2 -2 4
981 1 24.139389477918094 12.778022112350083 2.3233320470075602 0 -1 0
776 1 25.297527496452254 12.903803935252363 4.720756183336302 -1 1 -1
1135 1 25.982418455777847 11.488595930189382 1.7628818982309968 0 1 -2
1498 1 6.388875195186117 13.230713257097774 10.389766114302182 1 -2 1
144 1 10.558128946162231 6.473553684776784 13.847300222264591 -2 1 -2
162 1 2.5444532216636917 3.833492203646856 6.916534318115475 0 1 0
1442 1 3.8169769593275173 3.2730321025658906 8.721534713180473 1 0 -1
1249 1 2.2053905051906866 1.9819650091855958 8.042801986234627 0 2 3
145 1 2.11516062114959 4.1264607258438915 9.227882272085767 -3 2 0
1879 1 4.297923901673139 5.403441434507339 9.781507281013187 -1 1 -1
702 1 7.948668068786837 2.955120513105802 4.868095484564345 1 1 0
1885 1 4.573060779192597 2.278595694007177 6.7299424405265516 -4 5 0
1695 1 4.886200883102386 4.716787693426133 7.51412313234118 1 -2 0
860 1 6.883226700645451 2.893833163492225 8.026390471296551 -1 -1 2
120 1 6.613571447008458 3.6790971801507104 6.219757871204979 0 1 1
672 1 8.504082644514726 4.710981091701806 8.219032595613815 1 0 2
479 1 8.70770164963412 2.6112125834754925 7.051006376015127 0 0 2
738 1 7.697911015189794 1.342959977338076 8.867712501214573 0 -1 0
542 1 8.772631962925168 1.0983483004653438 5.250942254437748 0 -1 0
872 1 27.17466502669453 13.969527772982001 5.51744539740254 -1 -1 0
163 1 8.449779116707505 14.091418215269185 10.567767763076105 2 0 -3
793 1 10.68715462498573 1.3876974179143904 7.253556091359421 4 1 1
37 1 9.961611102325572 2.5150109831583745 9.222033705812335 0 2 3
1881 1 10.558825368440118 3.7576742787880932 7.691335389994034 1 3 2
946 1 10.103736935860264 13.697683738532659 6.066436510995361 -3 0 0
275 1 12.641177859163692 3.1975212626842984 7.459113079313829 -1 -2 2
1247 1 12.070205147492496 3.4568593796211604 9.716900421879906 2 0 -1
1862 1 17.623568166587884 9.261873935577349 13.106537253972412 -1 3 2
527 1 10.133010572670111 4.797414316873882 10.012952472882967 1 -1 1
159 1 15.245363242106546 5.688142605514675 5.869413229300766 0 0 0
576 1 16.447371930632997 4.162063343216367 7.101819154186938 0 1 0
529 1 13.374552372686981 5.167342625585388 6.753184805718081 0 1 0
594 1 17.33199009640618 3.0649256981040276 8.79053809692985 0 2 0
1198 1 14.744829250565143 2.9748041382509234 8.106104237431582 -3 -1 2
1699 1 16.08277720352397 1.8608637496976959 10.23116798488519 1 0 1
801 1 16.630082084836836 2.0737765225697364 6.8423237341549905 -1 2 1
1413 1 13.592108641822579 4.6176563375054025 9.355109858716034 0 0 2
1418 1 26.463671275368743 12.122988162428703 13.406305267899834 0 -2 -1
2007 1 21.918057471985954 1.4433054944882613 13.789253886013695 1 0 0
1552 1 5.3195291879058 13.778730501875032 12.656171078280929 0 1 0
257 1 19.6192540130725 5.494959413074113 7.061256570917453 1 3 1
1892 1 19.198663542121782 2.5824404429627257 9.641185282272144 1 0 0
1185 1 20.429765912672845 3.387701862260816 8.201864651574606 -1 -1 -1
856 1 21.863719359061356 2.0508132061005395 7.436087959939173 -2 0 1
1046 1 22.76124017748001 3.4816167288290654 6.273916154504069 2 1 0
1052 1 18.554739463907758 1.2741790628348033 7.412392467415712 0 0 -1
1735 1 21.08207595122978 3.2205594851076063 10.132224475274727 -1 0 1
82 1 25.234541776515513 2.571449874542637 7.10478819245216 -1 1 2
1744 1 22.729472908359874 3.701925523646905 8.470668931346486 0 -1 -2
389 1 27.08931143222744 3.71773113973379 5.987530140298461 0 0 -1
494 1 26.869716652525028 3.5567343673589127 8.257305465802919 1 1 1
809 1 27.01924132985094 1.5703062769116252 6.927564991473516 0 0 3
1449 1 25.605153857022582 4.965194277234732 7.002176487016914 0 0 -2
784 1 23.784222368170525 1.6287361340463695 8.411857001673429 -2 -2 2
1291 1 24.68677395591557 4.546018899603819 8.997462179038088 0 -1 4
198 1 1.0127246099375367 5.6941633649161485 6.831921395699951 3 0 2
169 1 25.57573829498169 2.2972754037689938 9.348063805967273 -3 2 0
438 1 3.705674292572282 5.939428982977929 5.697196404352704 2 1 2
322 1 2.9445457736890264 5.601674096416242 7.730104524880445 2 0 1
1129 1 4.21952386155166 8.567207840415318 5.9244819928974195 4 4 -2
1651 1 5.104235634047879 6.925130358115081 7.146399909204623 3 -1 1
867 1 2.242040662199293 7.281740513071609 6.502013963535691 -1 -1 2
1472 1 3.279775336637895 7.551582690333603 8.634380935909999 1 0 -1
1865 1 1.236203644196726 7.48711406569899 8.369795280562148 3 -1 1
961 1 27.37591367419557 9.416550893536156 8.87837106034843 -1 1 -1
1951 1 6.512754290575323 7.509662149489074 5.65301403490608 3 -2 1
408 1 7.174092711607044 5.8493387181709595 6.708405421000273 -1 -2 2
220 1 8.748631017795848 4.682493585803853 6.25068974764641 3 1 0
1473 1 4.929151806301497 8.987306553443903 7.916385708955984 -1 -1 -1
1554 1 10.09069898102615 5.841736878244863 7.328344088242787 -1 0 2
865 1 8.839363111198773 7.120155629972872 6.065643766617022 2 0 -1
1849 1 9.233799237546977 8.792789930847018 8.559337068112665 1 0 2
146 1 7.238458132225906 7.949902463075807 7.578571422862113 -3 0 -3
1793 1 8.685459825847424 6.673361214912661 8.61008990413892 1 -1 0
1302 1 10.887926096789048 6.803391849109427 5.247368929278804 0 2 -2
791 1 11.410651864401167 4.507974267635001 5.84646361408049 -1 2 1
64 1 10.702909347277078 8.45475041591552 6.7197965354898646 -1 -2 3
293 1 11.6558618734203 9.450118918322902 8.671533672914194 -2 -1 -1
2000 1 10.853092557652857 7.437737931525759 8.515354404918359 2 -1 1
124 1 12.023549299196192 5.654432449097176 8.233724955882701 4 1 2
286 1 14.480877040620259 7.2055979503514225 6.913618327978162 3 -1 3
747 1 13.446769414875092 7.208627283418876 8.921983699791673 2 1 2
562 1 12.584369658625373 7.0668723416868255 6.514491969294792 2 3 0
679 1 17.59454145898721 5.497164348563493 5.9932453412447915 -2 4 0
1642 1 16.96570953476831 7.092515029476652 4.970691192908357 0 3 -3
1148 1 16.543114434227004 6.758823853204989 7.334512909029987 3 0 -2
1924 1 15.094390200051519 5.587960432790718 8.29608815294873 -1 -2 0
280 1 16.82421028466172 9.281619811796489 7.440469543438545 2 -1 0
1587 1 18.027677322197547 5.289534860466679 8.604622777341017 2 0 1
1218 1 13.684832142709702 9.153446216757677 7.7139622668629455 1 1 0
649 1 15.497121639280477 7.918770326020732 8.567046156556717 -1 0 1
417 1 15.520347155771493 10.434990564107302 8.51684166184658 -3 -3 -5
1036 1 20.50561802762933 8.648571909976283 6.824236604984124 -2 -1 1
1863 1 21.41981803579531 7.240514062997587 9.731057882225322 -2 1 0
785 1 19.620454778756308 4.920517063726872 9.582648121430582 -2 1 0
622 1 21.51247701720685 5.486452526132439 8.52253459236138 0 -2 0
577 1 18.889954284286464 9.5064264864923 7.563419933517164 0 0 3
985 1 21.900566637734194 6.696952069428747 6.850839126923137 2 -2 2
485 1 18.451923753165463 7.408507132385842 6.567865318579737 -1 1 -2
1454 1 21.40604013174931 9.205705826470433 8.994771549628863 1 0 0
1451 1 19.899941513051015 7.005151797713546 8.343701971606787 -3 3 1
554 1 17.727001748268922 9.010497290213731 4.7810338976087445 -5 -1 0
1356 1 17.832501875657574 7.496898753488831 8.897864708419236 -3 -2 0
31 1 23.304887475097697 5.46800168838045 4.848465472532251 1 0 1
457 1 1.7030769380428028 5.205075316712919 4.983922277338235 0 0 2
960 1 26.184431268362637 7.193874920076924 6.800707569561562 -1 2 3
125 1 23.589613552009506 5.640433895988798 6.955922240313441 0 -1 1
354 1 24.057752509446193 7.340223726305064 6.241594318849573 -2 0 -3
1276 1 25.297243361874195 8.653679691899612 8.139918945442169 -2 0 1
806 1 24.730633712272024 6.465802866803191 8.31669363759822 1 0 -2
355 1 22.99030730587278 7.926178702077753 8.400447708229418 -1 -2 -1
1277 1 26.91914501586695 9.272197172824276 6.241048621943363 0 1 1
1054 1 23.08353954504365 6.066093839706837 9.644216612561037 0 0 0
1347 1 25.567907973092044 10.246951258249569 9.585552481002459 -5 1 -3
515 1 2.7477625493974362 9.222822217204635 7.486406843040344 3 0 1
211 1 5.213253459938607 12.648218033650641 5.998343363963778 2 2 -1
1827 1 4.405509814323752 10.873687321842855 6.305706780270674 0 1 0
1492 1 3.7098449058972025 12.983108665206887 7.723719440427615 0 1 2
483 1 3.0592784072563397 10.918403377346111 8.517330197340183 0 -1 -1
156 1 1.9257959753106704 11.12658441611703 6.789751229536865 -1 -1 0
376 1 1.342441821111311 11.21345013338295 9.240452878969737 0 -1 2
1069 1 1.6461437338824167 12.855677086819423 7.616170621632303 1 -2 -1
847 1 14.067377340737648 1.1838373753066407 1.625647384945517 0 2 1
533 1 6.409594226706704 9.69348851761279 6.646324855278604 1 -1 1
611 1 8.690628652715578 9.161365410116616 6.331667629179125 -1 -1 1
680 1 4.3222638699978155 12.442538662848289 10.053436726226975 -2 1 2
606 1 5.2243292262177485 10.911450813720968 8.36948522859456 2 -3 -2
1550 1 7.155738242888346 11.4810111169236 7.044022727757445 -1 0 0
753 1 11.366736818212337 10.902468847299481 5.521131168957322 3 -1 0
1141 1 7.92526305694695 10.190710855106309 8.271801227536422 1 -1 -1
1143 1 9.156480456559837 11.041140457930753 5.848987725356899 0 4 2
201 1 9.42225247981017 12.222666606355945 7.787156199259035 1 1 -1
1181 1 25.88775622409818 7.582094689653084 1.779916997035303 -1 1 -1
1092 1 14.28174999777805 12.489037846802228 6.492818360564438 -3 -1 -1
1988 1 11.700234014320046 13.543811250802147 9.416707932597431 2 -2 -1
459 1 12.932209323001139 10.731456658835842 6.802553957156751 1 -2 -1
795 1 11.44939382014746 12.493196979195742 7.606159398529239 1 1 3
1678 1 12.547709758776191 8.912041353679056 5.238923489204372 -1 3 -1
215 1 10.302001782467508 10.480449670668685 7.685473383585609 2 -2 -1
1209 1 11.72245222125655 11.230633936390033 9.83838891627443 -1 -1 1
940 1 9.904764914696317 12.626909399440988 9.760707060400785 3 2 0
1770 1 13.716096472616048 9.338385585141657 9.86372738048938 2 1 -4
1647 1 16.673419473461188 12.663138470578474 5.871824412779448 0 0 4
1033 1 15.563858411727114 8.581007481446573 5.7131557008405185 -3 3 1
1615 1 17.503428216116177 11.323712887519319 7.778652244872314 1 2 -2
1880 1 15.129498021523256 10.544754460337678 6.552045608561902 -1 -1 0
189 1 13.50859862308238 11.970016155023732 8.503131363250937 0 3 0
598 1 17.382877674919353 10.659985179252107 5.72849105467343 0 1 3
1039 1 15.007228229690773 11.19493440931346 10.299565257993976 -2 -1 0
278 1 15.624870066894378 12.561057400293564 8.053367754094287 -1 0 1
1898 1 24.636586008098973 13.630842051476725 10.070616438438709 -2 1 0
1729 1 20.76044115766984 12.482648315468355 9.858017508705172 0 -1 2
261 1 21.054080737227448 12.50741861551942 5.068161379636262 3 1 1
436 1 23.670151411278678 9.933559050474395 8.723687132735993 0 0 0
1531 1 19.15731184779483 13.587162393205366 8.744049430410069 1 4 0
1920 1 22.71166795776069 11.443931893322123 6.6974115279526245 0 0 -1
1713 1 20.983528155383883 13.058544059720374 7.40475569770715 -1 1 0
566 1 20.17881922300946 11.138387074222376 7.05472577334591 0 2 1
1916 1 19.41384709204857 11.087267037324018 9.251782281843992 2 0 -2
1300 1 21.737240609742603 11.053169160094882 8.520593425788205 -2 0 -1
228 1 24.923658218110557 11.028156506680846 6.047240634566729 -2 0 2
1101 1 22.76223414482677 9.13252041502733 6.636423934856063 2 -4 -3
1000 1 25.651306309765797 11.922871037817437 11.27145874224636 -4 2 -1
188 1 23.865063853347117 13.263648654702248 6.191500250924833 -1 0 -2
238 1 26.338702098845346 10.657244205730144 7.7238399713562975 -3 -2 1
1730 1 24.35371707367832 11.865922807003264 8.041643199213667 2 0 1
831 1 26.988727109771315 11.211102685855757 5.208387674940485 0 -1 1
1246 1 26.066897430612865 12.70746232276191 6.811785861534827 -1 -2 0
243 1 26.565932241021173 8.145243436929949 11.596136801750962 0 -2 0
1605 1 26.278858445874736 12.787279987783542 9.20027301014844 -3 3 -3
1476 1 22.811812326808212 13.013306403986254 9.194055257814004 -3 1 0
1668 1 21.653831988185203 5.78221707644823 1.0291290206646855 1 -1 3
1752 1 4.1729206825475185 1.9675776148537112 12.172393499623176 -2 1 4
456 1 5.794873353920001 1.874424845455731 13.654687678164525 -2 0 0
296 1 1.6951791955266484 4.39021901249912 11.297282635600903 3 -3 0
1921 1 3.645461839267583 3.483169245373753 10.801379840923067 -4 -1 2
371 1 2.0006180624166903 2.3927040917609106 12.686472178901646 -1 -1 0
945 1 3.839656746506453 5.3963408519403915 11.923499387349926 -1 -1 1
1072 1 2.2233370237842167 6.23316384744486 10.323729145703474 -3 1 0
2036 1 2.3180958287490343 4.42408021236499 13.553580665114406 -2 0 0
1528 1 13.93815723853995 1.015608976889673 7.8576187610003885 -1 0 0
1203 1 6.927783737648758 3.5786705939147327 14.110668056271921 -1 2 -1
83 1 6.616058352142963 5.189116768051347 8.918098339851781 -2 -2 0
152 1 8.83427358280723 1.5952787111103803 10.98173208269713 1 3 -2
889 1 5.533878170959901 3.295080650619501 9.578358970352664 0 -1 0
74 1 7.811662797375095 3.3082381789356914 10.028174437769238 1 0 1
1978 1 6.271264717015451 2.9269522564103134 11.617204819856187 0 1 -2
1984 1 5.725118654305487 4.856004205600333 11.112345706885618 3 0 0
625 1 8.137666841661723 3.676606920534389 12.28705954204862 -2 1 1
2021 1 8.074152337774658 5.383329023972108 10.846611290764328 -3 1 1
1796 1 3.6182354328136723 5.998871991317475 13.936395514720239 1 1 0
724 1 12.487358936054934 1.9600380118613892 11.172230320376986 2 0 0
197 1 10.253908568599876 2.983078063299347 11.208201806413237 0 1 0
909 1 14.001255538117142 2.384644329318286 9.98045660373561 1 -1 1
951 1 11.135252406168823 3.2657292369974282 13.009759748115771 1 -2 0
1905 1 14.56402139024245 1.312058767644609 11.909660033512743 -3 2 3
1234 1 12.608858497246844 4.210101715674497 11.6847194066229 2 0 -1
1067 1 10.44585575534121 5.141596447127454 12.083459855935233 0 0 1
300 1 13.621524746434572 2.8527912391015136 13.200616014270327 0 1 0
816 1 1.9909978823865422 1.812469492824478 1.52862114878205 0 -2 1
1945 1 16.164714144853015 4.49641360109695 9.62588982717177 3 1 2
1831 1 5.890434044765569 13.1654722026185 8.023532647080799 2 0 0
1427 1 14.860177348964637 3.6666451322457267 11.3115846355447 1 0 0
52 1 17.760933223383173 4.376581665443803 12.987697958505418 0 1 -1
1381 1 16.920267627441625 13.918981562823852 13.048317366878624 -1 1 -1
2030 1 17.60086641152617 3.5679311037963086 10.91081472190524 -1 0 -1
1882 1 16.46233606270184 2.8737690855283153 12.27644240839887 1 0 1
551 1 14.205741154257115 4.991986203325157 13.535917692887946 3 2 3
399 1 9.514326991205667 4.490329812294744 14.022033581334407 1 1 0
1588 1 17.520485486515096 1.4265646207094587 2.897407090536631 1 1 0
902 1 18.35613347139037 1.9911871916361927 11.64573128481684 2 -1 1
665 1 19.843721061930978 1.9133171497215327 13.14733756498819 0 0 1
1419 1 19.53266920538386 5.596273624768075 12.679805706193333 0 -1 -1
1893 1 20.328642363735515 1.1829922014533951 11.149501895120144 0 -1 3
1115 1 19.550352616749155 3.7641390797311747 11.522368693916855 -1 1 0
584 1 21.386816331756783 5.600876897120025 10.966707141645601 0 -1 0
165 1 20.772517298339405 3.7291165486392375 13.20241200923387 -4 2 0
1830 1 15.707406870374928 4.921264204763231 1.8061133768776076 -2 0 1
1270 1 23.743456737302267 2.188757088530833 10.67652735569482 0 0 1
463 1 21.983678126320168 2.714402124534429 11.80444679610548 0 1 0
1394 1 22.50632481007 5.005023790718668 12.511368015822965 -4 -4 1
849 1 9.6003632586397 6.254437626083514 1.400230159959781 2 2 2
4 1 26.47334722647315 3.134045078647498 11.04829408967266 -6 1 1
309 1 26.583847206547908 4.511229051692103 12.955487666822341 1 1 -1
1013 1 26.829726870514957 5.39766958571744 9.136338006761752 1 0 0
347 1 24.621618653444308 4.152135034203713 12.00275329572465 0 1 -3
1410 1 22.828510687660806 4.178928040891487 10.657633976550295 0 1 0
772 1 26.242403441251582 1.9250450178911618 13.03351742559656 0 1 0
615 1 22.393853260120334 13.298515233342778 11.105778840500241 0 -2 -1
1969 1 23.88576932135726 2.0502359750881967 13.271800757135683 2 2 4
492 1 17.825536753128535 8.777968016573045 1.3940152662110834 -2 -3 3
1895 1 8.41906634950795 11.318364524843608 1.5991051393531408 -2 -1 0
1180 1 2.4101327102501595 7.397649177343657 12.321810992703902 2 -1 -1
664 1 4.128692145269808 9.391187668820743 10.12000698687404 2 0 3
1779 1 2.1275421443454627 8.916932767258313 10.490179008857881 1 -2 0
1906 1 26.873675062971202 6.136786393901867 11.48084304090096 0 1 2
583 1 27.163002949515494 10.185472163851605 11.69748883558842 -4 1 0
1305 1 4.247623432301583 7.535900566548124 10.932960427785499 2 -2 1
292 1 23.885193258809597 10.112991538908414 13.864909816115835 -1 0 0
1005 1 3.3845137991435355 9.353767701001438 12.358083939655577 2 -1 2
1395 1 4.869136510518036 7.547120032790836 13.069793299590039 -1 0 0
953 1 7.242721931194201 8.178857398106317 12.941744090062752 1 0 0
870 1 5.525230922080667 7.418155971845722 9.135184146062226 0 2 1
2023 1 5.908022578218461 8.918963195358801 11.36932615838803 -1 0 -5
1573 1 6.364230528893912 9.306447657370779 9.584868683620138 3 1 -1
2043 1 9.052028827940306 6.973978656374794 12.13444423358972 3 -1 1
55 1 7.7585499795265305 7.855628347946749 10.231236135958246 1 0 0
792 1 6.309356978877283 6.859991469277195 11.2792640611997 -1 -3 -1
1963 1 2.9464947419359824 5.243952142795027 1.3461226350745001 4 0 0
1864 1 7.538968457207705 5.778856873599365 13.45305937679635 0 -2 2
969 1 16.954908753923 11.6727080278476 13.29654166644838 -1 0 -1
894 1 14.297739988929925 7.905084946365725 13.585900653113683 0 -1 2
1682 1 11.124545068307263 7.728209027405401 12.371763760679135 -2 -1 -1
1690 1 12.341452587198932 5.780200768519029 10.609373300178943 1 1 0
678 1 12.867445489559424 6.572081499917451 12.57105356954682 -2 -2 1
1568 1 10.252767176071123 6.937183677790146 10.55875859323598 2 -1 -2
1315 1 12.147046567530367 8.099350873410339 10.537195072698218 -2 1 -2
290 1 11.430848016534492 9.929299890489435 11.566565576912318 0 1 0
1533 1 9.304794773542419 8.977214463508092 12.822698381620688 -1 0 -1
1462 1 9.729935145376373 9.014581437139443 10.482935957933288 1 0 -1
1576 1 16.081678501832585 7.1932774435814135 12.575333872771331 -2 3 -1
200 1 17.951073382815412 5.410967947390203 11.143600397876178 -3 -2 0
185 1 16.348120306192506 6.667828652744828 10.02582647453949 0 -1 1
1228 1 14.184205014614653 8.197530720859536 11.462055213112714 1 2 -1
1595 1 15.80360701134134 9.117834295534157 10.418024768717494 -1 3 0
1223 1 16.205588875550127 5.327918497981089 12.096975410467225 -1 0 1