LAMMPS data file via write_data, version 29 Oct 2020, timestep = 300000

2048 atoms
1 atom types

1.0289152157770474 27.32308478421745 xlo xhi
1.0289152157770474 27.32308478421745 ylo yhi
1.0289152157770474 27.32308478421745 zlo zhi

Masses

1 58.933

Atoms # atomic

979 1 1.1676877466731737 2.5361379258055377 2.911162589983684 0 0 1
238 1 2.384195491660268 4.043889453120523 2.6308925471283278 -1 0 1
22 1 9.536691241623128 1.102569251108573 6.757071001425236 2 0 -1
1690 1 2.645083344746088 3.96361222954858 4.5589990600634 0 3 -1
301 1 26.587938383483735 4.761931940238473 2.8145718749631397 0 1 -2
993 1 5.08990633024205 4.413669860978731 3.238000375179711 -2 1 2
5 1 3.116421170789837 1.876993415670345 3.4426794937583467 1 4 0
328 1 4.821453322862958 2.393832649959978 2.682119091672715 1 -5 -1
970 1 26.704095411396693 3.828650181749261 4.6121905652177855 1 0 0
1938 1 1.8511085769249416 2.0268528134134662 5.310311983073987 -1 -2 -2
1077 1 6.367245205564328 1.9924306861550667 4.282357752484726 3 1 -2
1370 1 9.160406464862968 2.671399005750837 3.061778466614516 -1 2 0
360 1 6.677976481041486 3.7713619716936377 1.5975198842860037 2 2 0
1904 1 8.663888961745773 1.3334672679632833 4.7998034969949686 -1 3 2
635 1 8.51383184382958 4.81069344501737 1.7743725191114175 4 2 3
185 1 8.830099538640145 3.456016672595205 5.242840155026208 3 0 2
879 1 4.737910793610543 3.0883977469356623 5.040514217504454 0 0 -1
1129 1 6.997141105604178 1.7166515341688613 2.5109594766644197 5 2 -2
1656 1 11.26442920407423 2.7991845232800263 3.300033116241062 -2 1 -1
1539 1 10.745633005815215 4.717614528987735 3.061576192016109 -2 0 2
1182 1 13.95844810945903 5.191524265879566 1.168635125164176 1 -1 0
1897 1 12.57249961206556 3.6901095408761524 1.9339654047192925 4 -2 1
140 1 19.181937633949563 8.929479288758639 1.5257726828207105 1 1 1
1523 1 10.465471114781137 2.4091432608579257 5.599059857702207 1 0 -2
1652 1 13.364164127815213 1.8961628090117504 3.0066407599274947 2 3 1
600 1 12.618568271661651 4.049682656455827 4.024773182877345 1 4 0
411 1 16.331617139345305 14.093556150952104 11.977757573546665 -1 0 -1
1898 1 20.614982153154095 2.7259512757107585 6.826265851612815 -3 0 1
1852 1 7.859851948548909 6.75262990766125 1.521211054088595 0 3 2
618 1 9.150560047396368 13.391227770741493 5.0729677804287805 -1 2 -1
1993 1 16.93068922801211 3.6816706396798065 2.5493732907728646 3 -1 1
1366 1 18.51742698104184 2.4944565302103543 3.6750472860101313 0 -1 0
1630 1 14.730656121136224 3.8881266605389535 2.8736156382430904 -2 0 -2
1476 1 17.95415038155021 5.375381675772277 5.6400777196106695 -4 1 1
1049 1 15.745678102963861 1.9287028632521577 2.5454614889253255 0 1 1
920 1 5.565348753523616 7.404060643400284 1.2404969948659916 -1 -2 1
1931 1 17.802851619130834 1.505148613276556 1.8149395779510678 -2 1 0
1535 1 21.506627262120567 2.256354124514088 2.7271342190613543 2 0 0
1637 1 22.660317044163474 2.48706319976574 5.581070001804214 2 -1 5
1188 1 18.703072764970813 4.607831642851366 3.772730889766392 -1 1 1
1322 1 18.457617074035493 5.064311246832898 1.9022328783051368 -2 2 -1
1025 1 20.194351372136005 4.789649014291047 5.632596354855166 -4 2 -1
840 1 20.53247435882423 2.7753813764759014 4.629645111108578 1 1 -1
1230 1 9.909049006456224 1.2196501983039296 1.5856050626487774 0 -1 1
1447 1 19.40688109309368 3.1142311214053797 1.9033829335451147 -2 1 1
107 1 24.69262497894828 1.2193867112630703 5.992767519842473 -1 -2 -1
1582 1 22.560843040908036 4.041899995618783 2.066655713925072 -2 1 -2
246 1 25.757174068709766 2.217887530767663 4.101584000631991 3 -1 -1
630 1 23.57219120912008 2.165800688000166 3.506862315077747 1 0 -2
1557 1 24.389152044253727 3.7062408205535573 4.964074485009638 2 5 -4
317 1 22.17832652444746 4.222378031048034 4.0604627623469565 -1 0 -3
1337 1 23.59696435182256 2.1872324667104146 1.242433986870493 0 2 0
1443 1 24.783023084326476 3.7750565557358255 2.512526497475592 -2 1 2
427 1 4.695013177401615 8.10027956084371 14.147457210747907 1 -1 1
1764 1 2.099735262118881 6.204854498915454 3.051115327130922 -3 1 0
177 1 3.8680695234320983 5.896569117582347 4.3303575165457575 0 0 4
1019 1 3.156378435791984 7.887853828799375 4.6220231903824445 3 3 0
1122 1 3.7007348650179934 7.385264219513393 2.5521885282460186 -1 2 1
268 1 5.467493094178031 7.658052116911318 4.050581107028594 -1 2 -1
1917 1 6.087263093173192 6.000228785985912 2.609470558379238 0 4 -5
1837 1 1.3124340786784854 8.4672831778654 3.1556060663867402 3 5 -2
1321 1 3.3550048869432842 9.436904155201153 3.1218203349870186 -4 0 -3
467 1 5.099107350713374 9.451742956297918 1.7520427719460783 -2 2 0
886 1 7.381853930979525 3.940212572526813 3.5095531296877587 2 -1 3
458 1 6.422512848759329 5.524069964910522 4.8281389734434 -2 1 1
984 1 7.252242996601621 8.249258752989924 2.7027589491656294 -1 -1 -1
375 1 9.144682985620465 8.372353632487066 1.1366460495470754 -1 -3 -2
1191 1 8.937920744359843 7.8298204558456375 4.0941374635716805 1 -1 -2
1268 1 7.882456935644243 9.880780531447208 4.190659894524725 -3 5 1
441 1 7.972960315777994 6.030990071263962 3.8147072338355352 0 -2 -1
313 1 9.8135605791845 6.551016138929064 2.3957670331117615 5 -1 2
789 1 7.357614011676437 7.442560693819833 5.527479204107825 8 1 3
423 1 16.488391123941234 2.221609876718671 4.860667627007418 3 0 -2
613 1 12.773564291052008 5.730837901695473 2.8530356911383783 1 1 -1
1488 1 12.275760782802706 9.925132912189877 1.699222385442841 1 -2 1
1015 1 24.501976346534796 14.12620707205308 2.0162856470740635 1 -1 0
293 1 11.060791509336635 7.839411546197123 3.837088802781547 -1 -2 -2
1391 1 13.269517425185427 7.429944058577497 3.9704073914917672 0 -1 1
1385 1 9.662611879333875 5.382642140082421 4.534260625058319 -2 1 0
923 1 11.613018485271887 8.69024559511233 5.655838843592901 -1 -1 2
1056 1 13.514490791806956 9.341503008016566 5.151009406304776 2 2 2
1803 1 6.1393628151156125 13.11859819251658 1.8129816206888338 -1 -2 2
928 1 16.028945569856752 5.792183233689677 1.8365960108515846 0 1 2
40 1 14.5940398136992 5.9254515137735515 3.4024386912672657 0 0 0
1703 1 14.018622946053135 9.061875625742502 2.960022289328308 -1 -2 2
830 1 15.43114569467004 7.987528704870586 4.43750081415001 2 0 -2
1997 1 15.928095830059 7.853085381532342 2.390112559551927 1 2 1
773 1 17.124548110931496 6.072703052508763 3.553053153158454 -1 0 0
99 1 16.90647852959591 9.539536281591943 1.4346990787156428 -1 0 -2
716 1 16.399159733269904 9.530149599839596 3.6618909247482314 -2 -1 0
207 1 13.743574727262448 7.368908920104278 1.691493049134066 2 2 -3
754 1 18.135170711729767 7.818815337655677 3.0400937846795952 3 0 4
1048 1 17.440012284401966 7.569212610745662 5.202185805283862 3 2 -1
671 1 17.670616494688563 7.111106495472107 1.1502679929114756 2 -1 4
1829 1 10.317742367595955 3.6500444602316504 1.2566637577658466 3 0 1
1187 1 20.537073702907737 4.6453310306887765 2.955503210747125 -1 1 2
98 1 19.79938047703664 6.751772656538524 4.515363815971422 -1 0 2
1600 1 22.06710298523009 13.99103043265909 4.611190880979645 0 -2 0
1301 1 21.655679707919738 8.06354227241916 4.121217545412928 2 1 -1
1480 1 19.465076071528046 8.756396243320118 4.972956258218352 -6 0 -2
43 1 22.096581172185964 6.246631369814884 2.881630835391328 1 2 0
53 1 20.4266925096168 9.479765046754517 2.9504984362612574 1 3 -3
300 1 21.989553756197406 10.093698994077851 4.81812602290994 -1 1 1
1012 1 19.99922031230566 6.913989874759886 2.2522563035301912 -1 5 -5
2012 1 23.508427122942322 9.065184126284766 3.5527280068363316 3 0 1
421 1 21.98666294357422 8.512643862470537 1.730896697922681 -1 1 -1
670 1 26.35560810311969 6.726179282640753 2.4197951022865403 3 2 3
1471 1 23.5239951275033 7.203942600742641 4.1221923218620065 -2 1 -2
1211 1 25.478994083047606 8.504669868707769 3.3224423892248827 2 -3 -4
492 1 23.982206114224628 5.679102790875007 5.5549236652609215 -3 -3 4
1706 1 26.14199378153824 9.91868445696183 5.496489216745859 -3 3 -1
503 1 25.98704262798173 6.240535509506763 4.618341684790501 0 3 -1
468 1 24.188177970399316 5.500211561328899 3.2599747791867077 1 -1 5
2019 1 24.161695364800973 9.872847546756178 1.780791126666847 -1 2 1
539 1 27.297395419944095 7.906390235184961 5.591871879917365 -3 -3 1
1634 1 4.6773433154568815 13.413468607885992 3.2580813683096874 2 -4 -1
1748 1 4.11205836476351 9.64225168385677 5.5953181748751675 -2 0 -2
350 1 4.628227672581486 11.339692745044566 2.5606028230323226 1 0 -1
196 1 3.328096729787001 14.091497425883837 4.523250668634069 0 -1 2
688 1 5.105952243845024 11.739666859930884 4.9959088451599065 2 2 0
389 1 25.068398774420224 1.3247841530270312 2.2490389265097726 -1 1 -1
456 1 2.7604530576063153 12.795529348265267 2.035841548815738 -3 1 0
442 1 1.8534242313934153 10.636006389992755 2.655553973828311 -1 0 0
1360 1 3.2176659543962702 11.78028791734426 4.134444348167518 1 1 1
678 1 1.250515211483312 13.31806075558245 3.3425749311564 -3 -3 1
516 1 2.1708570094274844 9.77180611772536 5.085624522396994 4 -2 1
677 1 14.136745324755761 1.6386970467381015 6.685409957095141 -3 1 2
199 1 20.094121713540453 5.849404394071279 13.816781963008685 -4 0 0
1527 1 8.234924817759376 10.283209332075039 1.9095614019841625 -1 3 0
898 1 5.268689935483513 9.95274378038868 3.8151469351277765 1 1 0
739 1 6.656113307752839 11.772493289935388 3.4717661484024833 -5 -1 2
1431 1 5.696903942953171 13.274286568160587 9.934836777824678 0 -2 1
1357 1 8.809510848735862 11.971646661432297 3.724440995885726 -3 -3 0
1246 1 7.056518582802804 12.758402949858821 5.124773233260517 -1 -2 1
1970 1 10.016478911773923 9.549053922041223 2.9114706394907044 -1 1 2
845 1 20.25849967219951 13.301081751465889 1.188593101156122 -2 -1 -1
147 1 8.150716160496733 11.158077330541488 5.707216397015053 1 -3 -1
734 1 12.828939671297748 12.367712057416213 2.4615004060570325 -2 0 4
311 1 13.49992857167475 11.575938761321916 4.064410797974869 -1 2 -2
876 1 24.444242640187692 12.197464999325156 10.021760141925506 1 -1 1
985 1 11.97650832159944 10.241300978727445 3.6894092348669827 4 -3 2
936 1 10.577212350077511 11.451516199948307 2.3399664027723963 1 -2 5
33 1 10.09841798526869 10.027078365656585 4.974601941834033 0 1 2
1945 1 11.061303613809057 12.256633827976852 4.341551653300022 2 2 3
827 1 14.916659732609453 11.048032826684349 2.6101742193394677 1 0 2
782 1 8.944735799295216 14.022775396361142 3.012399140239044 1 -1 0
1038 1 12.59742896156191 13.928553291043242 4.156944934694427 1 0 -1
1266 1 16.710871973716586 10.306886376100172 12.17689088068893 0 3 1
1497 1 15.544738506871306 10.815089066410794 5.134321818852979 1 -2 -1
67 1 15.228039066906469 13.26812223948229 2.095020537021685 0 -2 -1
197 1 17.466884645278572 12.979880971167193 1.4452539592183111 0 0 -1
321 1 14.843254680820516 13.137956967008586 4.360038030677487 0 1 -1
84 1 16.730741953242926 11.50892440728485 2.7868871364813987 0 0 -2
1848 1 17.380216486430065 11.873686012054502 4.768782204027987 -1 -5 3
1340 1 18.5474494724737 10.14150545616227 3.14290770822326 3 3 2
1007 1 25.62417006401229 10.838770422615712 11.347298914484828 0 1 -1
213 1 19.672372672831823 13.262164135850192 5.321477207451908 -1 2 2
588 1 18.88670265850347 12.644644856574693 3.1139036935487656 -2 0 -2
1233 1 22.15090562309409 13.193686410771257 2.2480486327453955 2 2 -1
735 1 20.061141414200065 11.281706912967904 2.1757718279122336 2 -2 -2
1755 1 21.00594184083891 12.395983196965142 3.824225276068752 3 2 2
1662 1 22.283891505521222 10.998059107604973 2.6121496098773926 -2 1 3
294 1 24.217525560684695 7.515045074828378 1.7875498899471673 -2 -2 0
239 1 22.24691768451055 13.63687080041952 12.90842939760717 -1 1 0
1517 1 26.294753495334035 11.860504540265733 1.8326187756769 2 0 1
1460 1 2.1292276762181044 9.17370973981162 1.318618481276463 0 -2 4
1232 1 25.313228067235034 10.714223466405823 3.5783614149375222 1 2 -1
1214 1 24.155003127531174 10.168986416670403 5.568325766991661 -3 -1 0
232 1 24.113349718524585 11.966766408041522 1.5077159031718899 -1 1 -1
1185 1 25.580016451566262 12.850730719380481 3.435978355217502 0 -1 -1
572 1 23.661189075122365 12.348608809173088 3.63090940979092 0 -2 0
1865 1 27.07570057052677 11.694019134621653 4.6340069992557 2 -2 1
1342 1 9.941660704365324 14.04183363294332 8.236790246350473 4 0 0
420 1 4.343017788550107 5.073427768010441 6.1317945821361555 1 -2 1
1061 1 1.9621814753148996 6.105877678317504 5.41199725092784 -1 1 3
1740 1 3.54057230738248 2.368876803140077 6.692884464126652 -1 1 -2
2013 1 3.096010056441671 4.508581475633084 7.984932316173062 2 -1 1
75 1 1.5277240899142372 2.162942820433412 7.801403400966023 -2 1 -1
1824 1 3.7495740682280907 1.8496017882357212 8.787989008221077 1 -1 3
591 1 1.6278735767018242 3.4207876711072753 9.780763534633868 -1 -1 -3
1980 1 5.159429636829358 3.4692206938028236 7.54103158600223 -3 1 0
1770 1 3.8339871491229705 3.703650867865586 9.881051355027191 3 0 -4
1411 1 14.550777307924289 8.875263009658266 13.442562847662558 -1 0 -1
2027 1 6.666549018652843 3.4562638786705135 5.801855762081045 1 2 0
569 1 8.450725657676141 5.130130948817477 6.2894891977914344 3 -4 4
253 1 7.7006679686887995 2.2178070830234677 7.0593889489227015 1 -4 0
1842 1 8.490817620738362 2.1969290621343465 9.018851952837931 0 -3 1
1943 1 7.455559217947043 3.966566743549414 8.189459890096028 0 -3 2
609 1 6.148069098232329 1.6152706602038607 8.425026131074954 0 3 2
74 1 11.113485127106111 4.286965548495565 5.996626140730554 3 1 3
9 1 11.76590303704972 1.4714797214511433 7.1783192100256175 -2 3 1
1361 1 9.545281022629714 3.420497532853028 7.56465631350822 -1 0 -1
1705 1 12.803936577969882 3.141077135777138 6.080777886501829 0 1 0
1390 1 11.685377918988822 3.6396770366306175 7.919982781821915 1 1 -2
260 1 12.90046040741226 5.240497754628635 7.05231378292098 1 -4 4
1172 1 12.681786553618721 1.9075139403718189 9.10261099604651 1 -1 1
100 1 13.911146725332133 3.5490259938229736 8.198922697785083 -1 0 0
561 1 18.126830374687064 1.0999483266721384 5.904233820451654 -1 1 1
1733 1 14.520061923926818 2.5599001585183303 4.763509865642508 -1 1 0
695 1 16.966479062136756 1.8960313661103698 8.003719316806752 -2 2 4
1119 1 16.366032765081112 4.2847494820070064 4.64423364398181 1 0 -2
1879 1 15.647090755195332 2.8481281624874595 6.6349025326543245 0 2 0
1950 1 18.7010607680435 11.289806601735998 10.905515966935562 -3 3 1
1292 1 17.214026653175445 4.275361696082438 7.702420883092945 -3 3 1
221 1 14.25419651713124 4.87967956583201 5.240164694450187 2 3 -2
847 1 15.958171128552042 3.646790992113447 9.120702579967205 1 2 2
1576 1 18.685259533736037 3.0042353557564563 8.862160077165543 -2 4 -2
1990 1 14.902695292890824 1.5810492537478162 9.243848680845554 -1 2 -2
525 1 18.504155100249857 3.0938593390899807 5.870529427818894 2 -2 0
1513 1 18.660391113523836 1.4523039507191546 10.444585768227485 3 0 0
1979 1 23.96354214440714 13.62951739508434 11.301895238780265 0 2 1
209 1 25.781693926024555 1.743811560038294 8.43648458757588 -1 3 0
1548 1 22.74097282231469 3.8763402406344065 9.044903496555738 -5 3 3
1035 1 22.57382799045197 4.751688142271724 11.253859285488222 2 0 0
760 1 22.486570283789373 1.655889485683753 9.447713303741612 2 2 0
1239 1 20.434969926146966 4.540291703154719 9.945190824628444 3 2 2
332 1 20.676083689117174 2.5849120998705546 8.928097469846414 -4 1 -6
59 1 19.51241759818312 4.246381025577003 7.479119540109503 3 1 -2
1828 1 22.59705882894546 4.302925928175723 6.685101129200051 2 3 1
1955 1 22.68283147307297 1.8394279841433778 7.433181905027038 -3 2 -1
1542 1 25.68197240462392 10.11607147689594 13.215155300276775 -3 1 0
1549 1 24.645730515177323 3.35609757380132 7.267225158576666 -1 1 -1
1013 1 24.388116859263892 5.21035872188673 8.455579207623787 0 -1 -1
13 1 1.8201577253315948 3.8569785845786972 6.642382715200533 3 0 -2
270 1 26.39628400320184 4.063431613001643 8.289417598069358 1 -1 1
149 1 10.886224149059332 11.29522227554409 13.80970621503818 -1 1 -2
1939 1 26.204854513255842 3.583370737879446 10.663465515845115 -2 -1 1
1921 1 26.277641368515482 2.6173074081898777 6.250515669632977 -5 -1 4
93 1 4.948488056115888 5.240784690447581 8.934042091719313 5 -1 -3
2033 1 2.4106462789611083 5.4663878247005595 9.57183625771923 -1 2 -5
1665 1 3.7543098859603257 6.551929931327229 7.267300514511472 0 1 -2
241 1 3.632027254869164 9.06115498451317 8.919550692431828 -1 3 -2
499 1 5.149151390075541 7.700327095509042 6.128527404976301 1 -1 2
340 1 2.827633660683142 8.48804092603213 6.866362146406239 1 0 0
173 1 5.274587832395755 9.404204166235996 7.600029597163192 -2 -3 0
2005 1 3.6511663036080075 7.152415147751948 9.773257336645266 2 -1 2
1808 1 1.8597300282510323 7.497441176216226 8.89513302682381 1 -1 0
1262 1 7.189616559351021 6.300352163688363 8.955772147066309 -2 -1 2
1156 1 9.262828686767211 5.015877880604572 9.219068975912844 0 -1 -2
523 1 5.437067685971637 7.266497655199672 8.352340350340501 -3 2 -1
2037 1 6.151630850169906 5.558719026149471 7.0633516881580825 1 1 1
1555 1 8.675805779154235 6.970620324301517 7.731307083565592 0 0 4
1449 1 7.268504313012518 8.560956189760283 7.638503023230822 0 0 -2
1554 1 10.197888366835157 7.209899452497662 5.758061056522257 0 2 2
1010 1 9.547514539888848 9.098212338600279 8.936496895184394 0 2 0
1910 1 7.754558975232769 8.143097279819312 9.852359743838846 -3 0 0
603 1 9.020259444158476 8.899028119536341 6.410453127520084 1 0 1
205 1 10.647337599932847 5.939349577705471 7.318957998003441 2 2 2
1501 1 11.47410751380017 5.254630024173783 9.76127255172481 -3 2 1
902 1 13.965941191568845 5.13526685714204 9.498491520468704 3 -2 1
1742 1 10.031895711000752 6.960741801205532 9.317301148721828 0 -1 -2
1418 1 11.915309376530585 6.046688029900294 5.249530880945068 1 -1 0
1002 1 11.241292409126098 7.844780791347311 7.600136126450879 -1 -3 2
644 1 12.824400312774163 6.710641014679647 8.781836117883495 2 0 -3
435 1 13.215910298372318 8.64384887005778 7.293994256099523 -2 -1 1
971 1 13.634880486235762 8.716575061615941 9.823896981683832 -5 -3 0
1178 1 11.831321218022184 9.262540172012004 9.114895933387759 3 -1 0
486 1 13.640447532847965 7.092940042201994 6.106344929468782 1 1 6
167 1 16.32879056183387 6.182621747261113 9.20254091579668 -1 -3 -1
1684 1 15.6347385389479 6.427707901590836 5.8078914216439115 -3 1 2
1971 1 15.27645013707476 4.916844317599278 7.100303899355577 -4 1 -1
1669 1 17.204063965682757 6.743836314159537 7.278976703079345 0 3 -2
837 1 14.9073362358343 7.130912734564977 8.129334266101665 -2 -1 2
617 1 15.412914678717833 8.610808772166449 6.520604544411745 1 -1 -1
365 1 16.331496172210187 8.230415806372823 9.39212312586395 0 -2 2
1416 1 18.943687855163642 5.660848810486232 8.893779326131963 0 3 1
105 1 18.192105094085292 7.581588514892586 9.157629091144393 -4 -2 -1
1325 1 19.378777529582255 6.347377077545375 6.780722883008379 2 0 -1
1726 1 21.914840562710438 5.779798900715359 5.248576292896232 1 2 3
982 1 21.154626243524778 5.689879434329819 7.853275621914403 -1 3 -2
267 1 21.227485964939937 7.510531156875146 6.241724564668254 1 -2 0
933 1 20.476027021365297 7.633103315824316 8.969070372160807 -1 -1 0
1896 1 19.339047013707315 8.17684881831056 7.250067602542572 -3 -1 0
1543 1 23.13824971640229 6.528980097855293 7.126373152192945 -4 2 0
287 1 22.419270006644712 8.246677329028273 8.346942409742656 0 1 -3
1099 1 22.34583728660175 6.038811150787469 9.486335577090108 -1 1 -1
1375 1 26.017255779064357 4.769098181009534 6.231522367037291 3 -1 -1
1953 1 26.30720070042963 5.622462084909992 9.496388053078457 -3 2 -1
696 1 23.98615292181806 7.17470309199726 9.414680907399307 1 2 3
524 1 22.96964202178152 8.301445641954281 5.909072975027559 1 0 -1
1892 1 25.128604403164942 8.133258861369514 5.583390544151535 0 0 1
1935 1 1.1990892819631855 5.951518420260785 7.414526258970568 -3 3 -1
1710 1 25.42809208682747 6.585253044422185 7.476316925040383 -3 1 0
1033 1 26.750744402261017 8.759449281329232 7.58903542848829 -5 4 0
511 1 24.24235255390768 8.750839071464181 7.635579339270229 2 -1 0
1244 1 26.128854908719628 7.846567470215289 9.315527619052917 -1 0 1
1529 1 4.30263188403447 12.968335650959517 6.51786650060536 -2 -2 2
1545 1 1.417127596347001 9.56501446660825 9.437337557054622 2 1 2
349 1 3.710834266647814 10.981056242352274 7.118995188747631 0 -1 5
1779 1 1.8521863822546147 13.2620508277386 7.81220894757424 2 -3 -1
248 1 2.5089305687044208 11.133688260129464 8.621381231664746 -1 2 4
1518 1 3.6093847880578 13.461571928056477 8.762414917307673 3 1 0
129 1 4.9965441571976195 11.567605361048685 8.857730874182815 -3 -1 0
2028 1 2.344282571984083 12.147477110504944 5.966545813986941 0 1 1
155 1 20.428602546708586 12.071946661526033 12.584063836037805 0 1 -1
502 1 17.50908985840259 10.903983241308634 14.082396564277603 5 -2 -4
265 1 6.4300502882554635 11.327378832922907 7.058657216589977 0 -2 2
950 1 6.907228676219502 10.16828909895785 9.078125946379897 4 -1 -3
1588 1 6.369940065194774 9.611723483524251 5.591127999743312 1 -1 -2
273 1 8.446544322743406 10.499421387039499 7.696900562824571 1 3 2
1483 1 9.506482232229908 11.854113551029073 8.568748689533164 5 1 -1
1406 1 8.397437548431892 12.882373199866121 7.022376527908054 0 -1 0
500 1 6.219091673494757 11.291381599777528 10.942318466775044 1 0 -4
1604 1 7.275763469361231 12.372301898944992 8.819506794080464 2 3 -1
406 1 9.010151257507715 10.691228984959029 10.202769796345581 0 -1 1
667 1 3.9687967195961162 5.2582218398407194 1.5605701473556666 3 -1 0
1493 1 13.064498372881092 12.83702454539105 5.974613867698698 -2 3 -1
1715 1 11.894500302642646 10.927769302968695 5.758079230179554 -1 0 0
1833 1 15.21085486914625 12.768152511198243 6.138391030475406 2 -1 2
12 1 10.038781915854633 11.671503887180707 6.211137537157614 -2 -1 -1
2030 1 13.412918534189345 11.175391422776553 9.014971129691293 0 -2 -2
61 1 11.726576988194868 12.35890699966898 7.88723299243319 0 -2 4
1296 1 10.761383119150532 9.939140839982759 7.360599931108274 2 -2 0
1074 1 13.84976683268891 12.678029292318364 7.742222911525439 3 0 0
1791 1 13.990447235374948 10.865844906913516 6.706323681410772 -2 0 -2
171 1 18.16102819922635 12.282849230982801 6.528819497943365 -2 -2 2
26 1 17.096192654068197 9.111558550625368 7.539502075029786 2 -1 4
206 1 15.6885879933715 12.124194163185077 9.229232703952762 -3 1 -2
316 1 16.14229619515794 11.16235477611304 7.31488778570826 2 -4 4
1528 1 14.998789332261278 9.784052474740367 8.524511728255586 0 0 1
1613 1 18.870954451378775 10.265381744186524 7.230679638713486 1 4 -3
981 1 17.975509868262396 12.264531136060013 8.900297222079079 1 2 0
1260 1 17.538020068613612 9.68993164232228 5.314713441131706 -3 0 1
2000 1 16.74974153448232 13.509436949188256 7.5576786312675726 3 -2 1
1267 1 19.66535585649818 10.988877142269612 4.917443626307246 2 1 0
275 1 21.165302048793468 9.96560988283916 8.940572450860483 -4 -2 2
1324 1 8.102185063813854 12.34761712858971 1.5268288029866264 -2 1 2
2042 1 19.296782568594704 13.659675255683787 8.497679375217725 0 0 3
169 1 19.811038684633512 11.45391964421206 8.942310231169706 -3 -1 0
2043 1 20.72693306005416 12.038068408650005 6.9675326230319365 3 -1 0
1766 1 21.134031374515825 9.638958503618486 6.606451234154135 -2 -2 -1
568 1 22.303838084178285 12.278699546792868 10.946789256682676 -3 0 2
1058 1 22.26411992762388 11.89107497856305 5.380537667725614 2 2 0
631 1 22.920361268164307 10.803186764116122 7.108206357657721 4 2 2
1160 1 18.868851158715454 9.5217443444976 9.40375704304846 -6 -2 -2
543 1 22.152455571596857 11.899935462803935 8.713771416177178 -1 2 2
504 1 26.01667966273445 13.76829719966756 8.91404547545023 2 1 -2
541 1 25.169468381065464 10.527570312711212 7.491907242249868 0 -2 -1
1832 1 24.117949922483714 12.29988057385243 8.078924335695401 2 1 1
601 1 26.46790714805154 12.363777025133576 7.022084813179842 -2 0 3
1911 1 24.60512006591793 12.269979256119772 5.810650230744818 2 2 1
864 1 1.476880089052915 10.538154328120925 6.698258600045879 3 2 2
1198 1 26.763965115753102 11.588612586649639 9.418615882462172 -3 -2 2
1095 1 25.37733081072121 9.90403985221196 9.278328353859342 2 0 -2
1546 1 26.50266589319552 1.557086328912694 10.53586436067444 0 2 -1
1610 1 23.235090097504205 10.044721577540487 9.354462929798038 -2 -1 -1
1723 1 22.8416409205796 13.251368158244617 6.888918597885889 1 0 3
878 1 26.393460243155058 13.911014915406497 5.302741954402115 0 0 -1
1289 1 2.7380083507863358 1.7197268442789888 10.680583424259002 0 -1 0
930 1 4.545836236276271 2.1601946022700727 13.17173067699601 -3 2 0
1202 1 2.7469454104264344 1.2901883663292602 13.008134356766327 -1 0 -3
497 1 3.193271819591712 3.2691769966738495 11.921740317363676 2 0 -2
482 1 2.047065048510685 4.50490898125592 13.11942014151164 3 1 2
1607 1 3.9484620160710744 4.388108354515824 14.071270795278288 -2 1 -1
915 1 1.4243151141341797 5.223341723455519 11.258424455148594 -1 -2 0
1999 1 4.94084801307702 2.106370240703388 10.976100336089823 -2 -2 2
1797 1 1.1360406834060224 2.8702552531824663 12.184801663950408 -3 0 1
1638 1 17.01435249932863 10.402957576392405 9.425000973532853 1 0 -2
201 1 8.225201022095705 2.855220246615243 13.872996432350263 -1 0 -1
90 1 20.1890789411898 12.79390967346645 10.565407275228628 1 0 -2
219 1 6.857156801716767 2.6842491037116156 12.130503528469808 2 2 -4
66 1 6.227711007552463 3.355831899404579 9.57027383835585 1 0 1
188 1 7.828637296617781 4.061548623396414 10.584070734923257 -2 1 -2
1678 1 7.206263024289816 1.306120562160587 10.561085386699153 -1 4 -1
430 1 8.998580834805407 4.312947132628345 12.233854719380197 1 0 -3
1775 1 9.111797006582787 2.171767919618994 11.523991071484053 -1 1 0
1452 1 5.120951704408144 4.219539632932731 11.765149095306638 -1 -2 0
1216 1 5.607934017157867 13.683156046886278 7.861847890033115 3 2 0
1860 1 10.722819080881298 1.7558375407542302 9.014557160764905 1 -1 2
791 1 11.345182154207622 1.4657427746577747 11.128081347127166 0 1 0
371 1 9.97607015365129 3.4152717488249356 10.118121599215158 1 -2 1
927 1 12.44518206097109 3.424621489025512 10.28521733360404 0 -1 0
1236 1 11.331181830368463 4.271949629103679 11.947751312551082 2 1 1
178 1 12.656673346976552 2.4880302847491205 12.445882950420122 2 1 1
192 1 10.591576616753713 2.4400677185434585 13.190277948756892 2 2 -1
413 1 24.959461732251466 13.919641279588411 13.037964528093278 -3 -3 1
397 1 12.022180430604175 13.649479267637346 13.480113344730839 -1 0 3
1646 1 14.409841345851019 3.066222062190504 10.74505549543176 3 1 -1
1958 1 13.659450178932932 1.1309626341349708 11.134224926545322 5 1 -1
1533 1 17.7941332209562 2.000283293952748 12.424323522667796 -1 -1 -2
462 1 16.871094470939788 2.38770079219452 10.455465421462543 -1 1 -1
758 1 14.880281695970082 4.344730593720918 12.817320075741376 0 -4 5
384 1 17.121875471539823 3.7950635070784875 12.885554703361189 0 1 -1
493 1 15.486748497320791 2.3307585863849476 12.497830312068825 0 2 -1
807 1 17.772523509099837 4.730015296741385 10.377449052228927 -4 2 2
71 1 15.763071689584509 4.890594524439969 11.154813684968317 2 -3 2
1682 1 9.892872602879741 13.561617920726144 14.151117863448288 -2 -2 0
1623 1 19.23093676745092 3.268930292388372 11.382097513842645 -3 -3 1
897 1 21.90933046115444 2.3900236638937296 13.015062175225625 -2 0 -1
972 1 20.787166948983103 4.741435289238422 12.140145423437593 0 -2 0
1162 1 19.339906691266712 3.4413232434496686 13.729463880114903 -1 3 0
1135 1 20.111602936001876 1.0788444423292096 12.278354175926943 -1 4 -3
540 1 21.317543686218503 2.886048445078818 10.988251544019468 1 -3 2
431 1 18.491178757293856 5.375474538595157 12.449838687851786 -2 0 1
501 1 23.346060272044664 10.578891884525685 11.504780988581933 2 -1 2
819 1 18.149902184925665 12.479506624257962 12.614002014985857 -1 1 0
1101 1 11.594953348490629 7.750990150937772 1.4361679527887663 3 -5 -3
1799 1 24.573236246251795 2.893530707815727 9.574717740073842 3 2 3
1810 1 24.294114976601968 3.376825786370196 13.754040258716222 -4 0 1
604 1 26.09586011847245 13.1631155153906 11.223584544719627 -2 -5 -1
1317 1 6.889209030344883 14.046452254284413 3.622578681213375 -2 1 1
586 1 23.556951521492856 2.86787402031024 11.497761802432596 -1 0 0
752 1 22.337428436730328 4.5713443936991 13.527804852382824 -1 -1 0
1183 1 25.339762038015678 1.8438313305946206 12.414385645889537 1 0 -1
851 1 25.665624594611447 4.420032249035055 12.413889493829837 0 0 -3
1153 1 2.8936039547829475 9.499970247336657 10.831152096027761 1 -2 -4
1783 1 17.03662691986901 13.764995915321931 3.686395665976099 -1 1 1
322 1 2.970072904363481 6.597775775319935 13.26669232318663 4 1 0
1028 1 3.586262726335625 5.347559736707659 11.422024246356928 3 -4 -2
537 1 4.311815757581668 7.3903613970850355 11.954575754119714 1 -3 -1
1397 1 5.7344997048037545 8.148335871048774 10.285960512813357 1 2 -3
1249 1 27.316385532847296 8.401242112599306 13.146134206997436 -2 2 2
626 1 1.7567773499309578 7.231307001833027 11.047289083182049 0 0 2
1142 1 5.527247670581999 9.2123271209163 12.577879523353763 4 0 -1
548 1 5.388010001591058 6.051002306813382 13.153155487639737 4 -1 0
1373 1 26.764207808850777 8.8905969964427 11.305913959846782 1 2 0
1932 1 9.22142282981675 8.5334827506975 11.528712721203915 2 0 3
1510 1 5.992372643007903 5.828500482585493 10.901643891334851 0 1 3
941 1 8.802432323143684 6.904047088082981 12.8753204082239 -1 0 0
790 1 7.278853262727139 5.1967391421862255 12.654037550180718 1 0 1
1774 1 8.480157859432996 6.372567101146332 10.766671035779666 1 1 -3
1210 1 6.7762422863125 7.553517476749514 12.149424739820635 2 3 2
1666 1 7.4092833286946576 9.30731121702486 13.282022388938207 0 -2 -1
1073 1 22.291449997955496 10.946135014848938 13.306592979658323 -1 0 -1
1697 1 12.233053911657542 1.2478320374859793 4.8779673557731975 -2 -2 -1
37 1 22.257982679488734 6.734528503836032 13.341119985084827 0 1 3
337 1 10.93275777694377 8.194111668106222 13.02605489119953 0 2 1
1695 1 10.548534941546624 6.223049397643368 11.460285559497622 2 -4 -1
505 1 16.567857367289612 12.088110802060239 11.160473937016489 4 -2 4
1599 1 5.343008845063641 1.3199815410300928 6.100048551222335 3 1 3
1827 1 10.145746896303605 5.255999754028598 13.566099898930274 -2 1 0
1889 1 12.7534000232191 6.642117044971641 10.844914166618604 2 2 0