LAMMPS (29 Oct 2020)
OMP_NUM_THREADS environment is not set. Defaulting to 1 thread. (src/comm.cpp:94)
  using 1 OpenMP thread(s) per MPI task
package omp 0
using multi-threaded neighbor list subroutines
package omp 2
set 2 OpenMP thread(s) per MPI task
using multi-threaded neighbor list subroutines
# units metal  #<----->
# dimension 3
# boundary p p p

# lattice fcc 3.5440
# region box block 0 8 0 8 0 8 units lattice
# create_box 1 box
# create_atoms 1 box

read_restart after_heating_press_1000000_5300.lmp  #<----->
Reading restart file ...
  restart file = 29 Oct 2020, LAMMPS = 29 Oct 2020
  restoring atom style atomic from restart
  orthogonal box = (0.85045689 0.85045689 0.85045689) to (27.501543 27.501543 27.501543)
  1 by 2 by 2 MPI processor grid
  pair style eam/alloy/omp stores no restart info
  2048 atoms
  read_restart CPU = 0.002 seconds
# read_restart after_cooling_press_800000_2700.lmp

variable P equal 1000000     #<----->
variable dt equal 0.001
variable loopVar loop 6
variable sys_press equal "press/10000"

# variable sim string "heating"  #<----->
variable sim string "cooling"



pair_style eam/alloy
pair_coeff * * Co_Zhou04.eam.alloy Co
Reading eam/alloy potential file Co_Zhou04.eam.alloy with DATE: 2018-03-30




neighbor 2 bin
neigh_modify every 10 check yes

thermo 1000
thermo_style custom step temp vol press ke pe density

timestep $(dt)
timestep 0.0010000000000000000208



# velocity all create 4700 123123 #<----->

print """
yo aagadi
"""

yo aagadi

label ensemble

print """
Label pachadi solti, hos garam.
"""

Label pachadi solti, hos garam.

variable T equal 3700-${loopVar}*100  #<----->
variable T equal 3700-1*100  
# variable T equal 4950


reset_timestep 0
fix 1 all npt temp $T $T $(dt*100) iso $P $P $(dt*1000)
fix 1 all npt temp 3600 $T $(dt*100) iso $P $P $(dt*1000)
fix 1 all npt temp 3600 3600 $(dt*100) iso $P $P $(dt*1000)
fix 1 all npt temp 3600 3600 0.10000000000000000555 iso $P $P $(dt*1000)
fix 1 all npt temp 3600 3600 0.10000000000000000555 iso 1000000 $P $(dt*1000)
fix 1 all npt temp 3600 3600 0.10000000000000000555 iso 1000000 1000000 $(dt*1000)
fix 1 all npt temp 3600 3600 0.10000000000000000555 iso 1000000 1000000 1
Resetting global fix info from restart file:
  fix style: npt/omp, fix ID: 1
print """
<--------------------------------------------------------------------->
<------------------ Equilibrating at temperature $T ----------------->
<--------------------------------------------------------------------->
"""

<--------------------------------------------------------------------->
<------------------ Equilibrating at temperature 3600 ----------------->
<--------------------------------------------------------------------->

fix temp all print 1000 "$(step) $(temp) $(press) ${sys_press} $(vol) $(ke) $(pe) $(density)" file temp_${sim}.txt screen no title  "step temp press pressGiga vol ke pe density"
fix temp all print 1000 "$(step) $(temp) $(press) ${sys_press} $(vol) $(ke) $(pe) $(density)" file temp_cooling.txt screen no title  "step temp press pressGiga vol ke pe density"
run 250000
All restart file global fix info was re-assigned
Last active /omp style is pair_style eam/alloy/omp
Neighbor list info ...
  update every 10 steps, delay 10 steps, check yes
  max neighbors/atom: 2000, page size: 100000
  master list distance cutoff = 7.6035394
  ghost atom cutoff = 7.6035394
  binsize = 3.8017697, bins = 8 8 8
  1 neighbor lists, perpetual/occasional/extra = 1 0 0
  (1) pair eam/alloy/omp, perpetual
      attributes: half, newton on, omp
      pair build: half/bin/atomonly/newton/omp
      stencil: half/bin/3d/newton
      bin: standard
Per MPI rank memory allocation (min/avg/max) = 4.341 | 4.341 | 4.341 Mbytes
Step Temp Volume Press KinEng PotEng Density 
       0    5289.8327    18929.744    1003799.3     1399.666    -6494.625    10.587485 
    1000    3657.7671    18431.628    1010043.1    967.82879   -6765.2295    10.873613 
    2000    3580.5664    18446.864    995784.55    947.40182   -6816.3379    10.864632 
    3000    3654.8498    18495.381    985777.12    967.05687   -6829.1998    10.836132 
    4000    3471.8455    18431.531    1002510.1    918.63476   -6792.5961     10.87367 
    5000    3612.4675    18422.062    1010368.5     955.8427   -6771.9511    10.879259 
    6000    3510.6234      18445.3    997391.86    928.89521   -6803.3917    10.865553 
    7000    3656.8684     18495.97    985414.55    967.59099    -6836.776    10.835787 
    8000    3605.0986    18400.659    1012154.8    953.89293    -6781.657    10.891913 
    9000    3645.6708    18403.764    1011370.3    964.62816   -6785.4003    10.890076 
   10000    3587.1128    18454.242    996584.78    949.13398   -6812.2836    10.860288 
   11000     3562.449    18439.958    994237.93    942.60804   -6829.3839    10.868701 
   12000    3518.9686    18433.515    1003287.9    931.10332   -6788.5811      10.8725 
   13000     3604.508    18365.327    1022591.8    953.73667   -6757.7126    10.912868 
   14000    3580.6611    18434.224    1003855.1    947.42688   -6788.7521    10.872081 
   15000    3454.5995    18503.021    980830.91    914.07155    -6836.364    10.831657 
   16000     3608.536    18453.927    1001602.1    954.80246   -6789.2239    10.860473 
   17000     3691.704    18482.811    996552.45    976.80833   -6792.3037    10.843501 
   18000    3526.8271    18446.178    1002914.7    933.18264   -6784.8829    10.865036 
   19000     3554.918    18441.771    997636.54    940.61537   -6809.8835    10.867632 
   20000    3736.7559    18428.816    1005636.9    988.72886   -6794.1722    10.875272 
   21000    3551.0247    18473.147    985921.72    939.58522   -6843.2068    10.849174 
   22000    3579.5665     18509.55    990534.71    947.13726   -6797.5088    10.827837 
   23000    3563.9305    18379.024    1012447.2    943.00003   -6791.6598    10.904735 
   24000    3591.5328    18455.565    999035.25    950.30347   -6796.6967    10.859509 
   25000    3599.4381    18459.294    997383.41     952.3952   -6800.7592    10.857316 
   26000    3616.8275    18407.407    1005664.1    956.99633   -6809.7664     10.88792 
   27000    3575.9443    18432.933    1006030.9    946.17882   -6780.5983    10.872843 
   28000    3479.0159    18517.021    976645.64    920.53201    -6847.277    10.823468 
   29000     3543.767    18449.678    999599.59    937.66487   -6801.7813    10.862975 
   30000     3598.482    18398.747    1012869.3    952.14222   -6777.3612    10.893046 
   31000    3610.5927    18414.254    1007514.4    955.34665   -6791.7244    10.883872 
   32000    3662.0128    18558.453    967508.68    968.95216   -6868.9345    10.799305 
   33000    3652.6087    18490.572    991790.51    966.46388   -6809.0254     10.83895 
   34000     3584.382    18370.337    1009682.9    948.41142   -6817.3935    10.909892 
   35000    3629.9133    18454.808    995357.28     960.4588    -6822.842    10.859955 
   36000    3568.1332    18462.144    995670.52    944.11204   -6808.3569     10.85564 
   37000    3597.3211    18412.122    1005738.1    951.83502   -6801.2689    10.885133 
   38000    3670.9489    18359.029    1018321.1    971.31662   -6791.2578    10.916611 
   39000     3578.066    18431.126    1001982.2    946.74023   -6806.9702    10.873909 
   40000    3559.1564     18451.71    994110.44    941.73683     -6825.38    10.861778 
   41000    3596.6605    18410.884    1014377.2    951.66025   -6760.7239    10.885865 
   42000    3594.7627    18443.753    1006778.9    951.15809   -6771.3547    10.866465 
   43000     3446.163    18471.415    988678.68    911.83928   -6827.7947    10.850191 
   44000     3587.116    18434.004    1000554.4    949.13482   -6805.1232    10.872212 
   45000    3618.7285    18426.767    1010274.7    957.49934   -6770.7277    10.876481 
   46000    3533.0032    18463.873    996518.54    934.81681   -6798.9744    10.854623 
   47000     3718.792    18534.912    983863.71    983.97569   -6811.7657    10.813021 
   48000    3586.8307    18338.531    1026274.8    949.05933   -6762.7222    10.928814 
   49000    3683.8367    18413.191    1005972.7    974.72667   -6807.0477    10.884501 
   50000    3652.6297    18451.835     996751.6    966.46945   -6816.4581    10.861705 
   51000    3534.3516    18434.188    999558.67    935.17359   -6807.3816    10.872103 
   52000    3569.4921     18461.33    991298.69     944.4716   -6830.1854    10.856118 
   53000    3600.1702    18436.087    1007631.2     952.5889   -6775.5513    10.870983 
   54000    3558.7766    18401.104    1016483.1    941.63635   -6760.3186     10.89165 
   55000    3473.2884    18485.288    986480.57    919.01655   -6828.2064    10.842048 
   56000    3612.3272     18479.02     991271.4    955.80558   -6821.0567    10.845726 
   57000    3677.5128    18422.414    1007755.5     973.0534   -6784.2184    10.879051 
   58000    3679.7415    18417.742      1001646    973.64309   -6828.5333    10.881811 
   59000    3515.1582    18423.039    999307.02    930.09509   -6821.3029    10.878682 
   60000    3540.6104    18520.772    982209.92    936.82963   -6821.6088    10.821276 
   61000    3568.1673     18400.59      1013099    944.12107   -6777.7898    10.891954 
   62000    3748.8747    18450.047    1003696.9    991.93545    -6795.179    10.862757 
   63000    3523.3719    18478.231    990809.94     932.2684   -6817.2158    10.846189 
   64000    3585.8878    18450.957    1004641.1    948.80985   -6776.8304    10.862222 
   65000    3595.9587    18468.674     995082.3    951.47455   -6809.1813    10.851802 
   66000    3563.5299    18435.397    997750.12    942.89402   -6816.4411     10.87139 
   67000    3596.9549    18400.439    1015609.6    951.73814   -6764.7439    10.892044 
   68000    3656.1971    18419.139    1013753.5    967.41335   -6765.2385    10.880985 
   69000     3663.439    18467.241    989794.39    969.32953   -6837.5722    10.852644 
   70000    3515.8234    18480.443    985079.47    930.27111   -6843.4977    10.844891 
   71000    3651.1683    18421.759    1009990.7    966.08275   -6777.9398    10.879438 
   72000    3527.5535    18362.118    1019002.4    933.37483   -6773.0453    10.914775 
   73000    3723.2396    18499.882    989055.84     985.1525    -6817.998    10.833496 
   74000     3550.164    18458.158    992957.76    939.35748   -6820.3506    10.857984 
   75000    3677.3243     18449.87     997227.5    973.00354   -6823.4251    10.862862 
   76000      3550.53    18448.171    995033.32    939.45433   -6816.6362    10.863862 
   77000    3604.2154    18422.963    1006377.2    953.65925   -6788.9789    10.878727 
   78000    3459.3966    18328.979    1025639.9    915.34082   -6767.7321    10.934509 
   79000    3625.3677     18497.66    982084.89    959.25605   -6849.8027    10.834797 
   80000     3494.759    18452.209    994481.45    924.69756   -6812.4121    10.861485 
   81000    3564.1697    18443.434    1006533.6    943.06334   -6767.6771    10.866652 
   82000    3486.3656      18390.8    1003357.9     922.4767   -6823.4211    10.897752 
   83000    3734.2491      18540.2    972750.73    988.06557   -6869.4857    10.809937 
   84000    3656.6604    18380.254    1008565.1    967.53595   -6817.8007    10.904005 
   85000    3636.3756    18438.283    1003842.7    962.16869   -6791.3332    10.869688 
   86000    3539.0893    18507.687    982398.53    936.42715   -6829.4481    10.828927 
   87000    3614.2526      18519.9    984239.49    956.31503   -6817.2841    10.821785 
   88000    3667.5071     18390.81    1012108.4    970.40593     -6795.59    10.897746 
   89000    3629.4311    18376.149      1009650    960.33119    -6815.952    10.906441 
   90000    3643.6707    18491.164    996672.74    964.09894   -6782.6846    10.838603 
   91000    3541.7856      18429.7    1001731.9    937.14059   -6802.3607     10.87475 
   92000    3671.8415    18464.952    1002972.5    971.55279   -6772.4593    10.853989 
   93000    3411.0096    18385.246      1015479    902.53785   -6761.8483    10.901044 
   94000    3642.7188    18522.086     978934.2    963.84707   -6843.5096    10.820508 
   95000    3631.6318    18471.443    988577.59    960.91349   -6836.1292    10.850175 
   96000    3587.9853    18426.672    1005782.5    949.36483   -6799.2355    10.876537 
   97000    3683.6333    18378.087    1010095.8    974.67287   -6819.3417    10.905291 
   98000    3485.0076    18391.192    1013610.1     922.1174    -6773.909     10.89752 
   99000    3590.1799      18505.1    981204.28    949.94551   -6841.1343    10.830441 
  100000    3585.8735     18479.97    986058.33    948.80606   -6843.1738    10.845168 
  101000    3659.8323    18391.203    1018343.4    968.37521   -6763.7384    10.897514 
  102000    3607.1884    18431.675    1004742.1    954.44588   -6790.7372    10.873585 
  103000    3537.0969    18479.664    988058.94    935.89999   -6827.7448    10.845348 
  104000    3750.7543    18431.163    1001296.6    992.43277   -6816.3627    10.873887 
  105000    3691.2157    18479.654    998445.34    976.67912   -6783.0726    10.845354 
  106000    3580.0054    18426.539    1004517.5    947.25337   -6793.5894    10.876616 
  107000    3693.6519    18452.541    999964.22    977.32373   -6805.8978    10.861289 
  108000    3488.5852    18432.626    997549.91      923.064   -6815.6663    10.873024 
  109000     3589.152    18464.726    993797.37    949.67352   -6816.4266    10.854122 
  110000      3652.57    18416.862      1012377    966.45365   -6771.5088    10.882331 
  111000    3485.3309    18414.061    1004016.4    922.20293   -6800.4422    10.883986 
  112000     3528.085     18486.77    982243.66    933.51547   -6850.5687    10.841179 
  113000     3624.283    18401.667    1007624.4    958.96904    -6798.983    10.891317 
  114000    3619.0989    18358.153    1026638.1    957.59734   -6747.3714    10.917132 
  115000    3621.1029    18433.795    999934.04     958.1276   -6816.7711    10.872335 
  116000    3580.5391    18457.244    997085.75    947.39459   -6808.1524    10.858522 
  117000    3670.0314    18440.852    1007276.3    971.07386   -6778.6974    10.868174 
  118000    3475.9693    18407.871    1009127.3    919.72588   -6781.5255    10.887646 
  119000    3562.4822    18461.129    996070.64    942.61683   -6807.1876    10.856237 
  120000    3589.4565    18412.305    1011292.7     949.7541   -6769.3528    10.885024 
  121000    3635.2802    18434.635    1000945.6    961.87884   -6808.6628    10.871839 
  122000    3589.6364    18501.767    981714.14    949.80169   -6842.4073    10.832392 
  123000    3606.1361    18488.163    987015.21    954.16743   -6825.1725    10.840362 
  124000    3598.5347    18376.971    1021994.8    952.15616   -6751.6833    10.905953 
  125000    3588.2103    18392.937    1004617.1    949.42437   -6825.6015    10.896486 
  126000    3519.5556    18503.286    986781.55    931.25862   -6813.8361    10.831503 
  127000    3659.9995    18444.412    994536.25    968.41947   -6834.8847    10.866076 
  128000    3579.7927    18413.682    1006575.9    947.19709   -6795.5652     10.88421 
  129000     3509.069    18444.461    1000620.1    928.48391    -6798.785    10.866047 
  130000    3583.6036    18383.699    1015117.6    948.20545   -6780.4606    10.901962 
  131000    3585.2086    18448.838    1010155.4    948.63013   -6751.7214    10.863469 
  132000    3505.9077     18495.11    990645.67    927.64746    -6803.408    10.836291 
  133000    3564.3928     18432.53    1003112.9    943.12236   -6794.4986    10.873081 
  134000    3556.7421    18446.282    1001422.8    941.09801   -6795.6263    10.864975 
  135000     3600.533    18479.949    987485.15     952.6849   -6833.5115    10.845181 
  136000    3529.5654    18454.136    996265.64    933.90717   -6809.8731     10.86035 
  137000    3617.9369    18359.218    1023365.4    957.28988   -6755.7143    10.916499 
  138000    3702.5834    18460.542    996457.11    979.68698   -6809.0017    10.856582 
  139000    3626.8318    18487.411    985605.34    959.64344    -6843.116    10.840803 
  140000     3480.395    18396.911    1009401.4    920.89691   -6787.0465    10.894133 
  141000    3648.2403    18396.831    1014761.8    965.30801   -6773.6244     10.89418 
  142000    3462.4363    18473.781    985071.61    916.14511   -6837.4415    10.848802 
  143000    3624.6921    18490.098    985718.21    959.07728   -6837.9217    10.839228 
  144000     3704.813    18448.683      1007368    980.27691   -6772.3478     10.86356 
  145000    3566.5089    18411.789    1006234.3    943.68227   -6794.0062     10.88533 
  146000    3593.6535    18422.555    998142.92    950.86461   -6827.2352    10.878968 
  147000    3577.4628    18494.717     992414.4    946.58063   -6799.9834    10.836521 
  148000     3729.025    18509.172     977572.1     986.6833   -6866.1106    10.828058 
  149000    3700.4778    18423.156    1017977.3    979.12983   -6740.7385    10.878613 
  150000    3547.7425    18420.628    1011142.5    938.71675   -6770.6789    10.880106 
  151000    3608.7692    18497.426    992207.39    954.86415   -6800.1749    10.834934 
  152000     3745.752    18477.359    994346.99    991.10918   -6818.2524    10.846701 
  153000    3639.0612    18369.258    1021335.6    962.87929   -6765.3579    10.910532 
  154000    3639.2432    18425.567    1000089.7    962.92743   -6826.3956     10.87719 
  155000    3644.0799    18468.197    990590.59    964.20719   -6834.9058    10.852082 
  156000    3580.8728    18406.098    1003318.3    947.48289   -6821.0368    10.888695 
  157000     3645.512    18418.145    1003244.2    964.58613   -6807.5238    10.881573 
  158000      3638.32    18514.642    979268.94    962.68317   -6850.9737    10.824859 
  159000    3571.5864    18459.943    992894.34    945.02574   -6824.0166    10.856934 
  160000    3649.4963    18392.681    1012743.7    965.64035   -6789.1147    10.896638 
  161000    3666.0475    18481.253    995159.09    970.01973   -6809.3243    10.844416 
  162000    3675.5439    18458.247    994141.18    972.53243   -6829.8898    10.857932 
  163000    3593.6096    18425.429    999997.07    950.85298   -6818.6211    10.877271 
  164000    3629.8134    18373.842      1020527    960.43235    -6765.304    10.907811 
  165000    3533.5818    18416.555    1010648.3     934.9699   -6769.9708    10.882512 
  166000    3609.8206    18500.919    975799.56    955.14234   -6874.5693    10.832888 
  167000    3552.7199    18448.668    998122.41    940.03376   -6806.4591    10.863569 
  168000    3616.5838    18422.091    1006083.7    956.93187   -6790.6005    10.879242 
  169000    3569.9116    18449.413    996370.19     944.5826     -6816.41    10.863131 
  170000    3562.2732    18567.836    966478.02    942.56153   -6864.3539    10.793847 
  171000    3542.4749     18441.97    998432.04    937.32299   -6806.8913    10.867515 
  172000    3665.5463    18410.452    1011044.9    969.88711   -6786.4226     10.88612 
  173000     3672.213    18497.375    991766.34    971.65109   -6802.1299    10.834964 
  174000    3564.6771    18400.481    1005761.9    943.19759   -6802.9051    10.892019 
  175000     3631.758    18345.769    1026392.6    960.94687   -6762.2012    10.924502 
  176000    3557.9179    18422.363    1003056.8    941.40912   -6807.1454    10.879081 
  177000     3506.631    18486.727    994464.48    927.83884   -6786.2422    10.841205 
  178000    3572.9674    18425.091    1001887.3    945.39116   -6802.5375    10.877471 
  179000    3551.3764    18455.474    998928.39    939.67827    -6793.245    10.859563 
  180000    3619.6134    18379.593    1013421.6    957.73348   -6796.0267    10.904398 
  181000    3530.9612    18443.019    996800.24    934.27651    -6814.301    10.866897 
  182000    3462.1174    18418.472    1002980.1    916.06074   -6799.8327    10.881379 
  183000    3559.6462    18448.789    1001163.8    941.86641   -6788.4718    10.863498 
  184000      3657.01    18381.851    1020604.3    967.62846   -6759.0828    10.903058 
  185000    3525.2933    18445.596     997614.1     932.7768   -6808.3977    10.865379 
  186000    3672.4805    18488.465    984746.15    971.72187   -6847.8372    10.840185 
  187000    3712.4207    18443.892    1003027.4    982.28986    -6795.828    10.866383 
  188000    3488.0699    18442.703    1004215.7    922.92767   -6775.2298    10.867083 
  189000    3552.1571     18486.72    986832.16    939.88485   -6828.2144    10.841209 
  190000    3631.6929    18449.642    996249.33    960.92967   -6814.8079    10.862996 
  191000    3637.9918     18395.98    1016275.9    962.59631   -6772.1756    10.894684 
  192000    3563.1507      18399.3    1006668.7     942.7937   -6798.3187    10.892718 
  193000    3624.7058    18524.001    977090.47    959.08092   -6851.8396     10.81939 
  194000    3650.4333    18446.978    996330.86    965.88829   -6828.7301    10.864565 
  195000    3584.9313    18418.624    1003075.3    948.55676   -6804.8287     10.88129 
  196000     3657.549    18466.519    993792.71    967.77108   -6821.1684    10.853068 
  197000    3581.5731    18462.934    989686.71    947.66819   -6834.1595    10.855175 
  198000    3590.3064    18374.842    1017341.5    949.97899   -6779.7162    10.907217 
  199000    3674.7357    18413.071    1009375.6    972.31858   -6788.2525    10.884571 
  200000     3492.676    18433.284    992827.09    924.14641   -6845.8857    10.872636 
  201000    3670.9317    18516.651    978476.22    971.31206   -6853.8081    10.823685 
  202000    3713.4034    18443.611    1003249.7    982.54988   -6795.4682    10.866548 
  203000    3618.1885     18432.54    1002388.1    957.35645    -6799.851    10.873075 
  204000    3479.6839    18462.752    993544.47    920.70876   -6813.0785    10.855282 
  205000    3567.9934    18450.526    992059.53    944.07507   -6833.2326    10.862475 
  206000    3663.3339    18420.208      1001625    969.30172   -6816.2406    10.880354 
  207000    3530.6859    18383.925    1014548.2    934.20367   -6777.0623    10.901828 
  208000    3590.4109    18436.754    1005121.5    950.00663   -6787.0539     10.87059 
  209000    3559.3957    18502.577     985930.7    941.80014   -6821.6791    10.831918 
  210000    3567.1507    18441.885    995577.82    943.85207   -6827.1501    10.867565 
  211000    3544.7511    18414.127    1006007.4    937.92525   -6797.6169    10.883947 
  212000    3653.7314    18370.862    1021897.1    966.76096    -6759.535     10.90958 
  213000    3597.4307     18474.95    989403.57    951.86403   -6828.3402    10.848115 
  214000    3618.7247    18505.362    980411.22    957.49832   -6849.5996    10.830288 
  215000    3609.7412    18456.276    1002053.2    955.12135   -6782.5892    10.859091 
  216000     3694.341    18397.945    1006666.8    977.50606   -6810.6015     10.89352 
  217000    3561.0867    18420.217      1008966    942.24757   -6772.4916    10.880349 
  218000    3561.4545    18464.965    990307.95     942.3449   -6832.4605    10.853981 
  219000    3544.1049    18491.219    983688.25    937.75427   -6840.3029    10.838571 
  220000    3623.6666    18360.198      1018049    958.80593    -6790.889    10.915916 
  221000    3681.6648     18447.13    1006567.7    974.15201   -6777.3361    10.864475 
  222000    3654.9944    18437.002    1000010.8    967.09512   -6811.6812    10.870443 
  223000    3477.0836    18496.439    988297.67    920.02072   -6809.7591    10.835512 
  224000    3593.8455     18437.41    1005410.4    950.91541   -6784.2123    10.870203 
  225000    3376.6295    18371.443    1011622.8    893.44103   -6788.5463    10.909235 
  226000    3620.5269    18467.461    993258.34     957.9752   -6817.9859    10.852515 
  227000    3518.2722    18452.414    995393.81    930.91904   -6809.0816    10.861364 
  228000     3747.945    18481.255    990687.91    991.68945   -6829.2893    10.844414 
  229000    3641.0916     18320.98    1031320.5    963.41653   -6760.2456    10.939283 
  230000    3641.8797    18481.256    987650.15    963.62505   -6832.9561    10.844414 
  231000    3594.5004    18454.462    992499.17    951.08868   -6825.6582    10.860159 
  232000    3650.0641    18422.277      1011349     965.7906   -6770.5454    10.879132 
  233000     3628.396    18403.854    1001204.2     960.0573   -6830.6294    10.890022 
  234000    3602.8362    18508.127    985552.99    953.29431    -6819.928     10.82867 
  235000    3682.9516    18479.335    995932.32    974.49249   -6796.7342    10.845541 
  236000    3685.1144    18444.642    996063.95    975.06475   -6831.0897    10.865941 
  237000    3660.1194    18417.412    1009098.1    968.45118   -6786.3367    10.882006 
  238000     3557.585    18471.954    988944.42    941.32105   -6826.8962    10.849875 
  239000    3761.3616    18467.678    996380.08    995.23941   -6815.1486    10.852387 
  240000    3581.3533    18368.553    1022316.6    947.61002   -6753.8977    10.910951 
  241000    3560.8649    18492.649    989612.19     942.1889   -6810.8371    10.837733 
  242000    3645.6183     18482.92    991510.47    964.61426   -6815.1237    10.843438 
  243000    3485.7407    18412.577    1007801.9    922.31137    -6780.668    10.884863 
  244000    3620.5003     18467.54    994189.56    957.96815   -6810.2115    10.852468 
  245000    3613.5222      18476.1    988391.92    956.12177   -6829.7597     10.84744 
  246000    3431.8749    18365.141    1013489.7    908.05871   -6786.8331    10.912978 
  247000     3551.893    18371.491    1020050.3    939.81496   -6759.9051    10.909206 
  248000     3613.999    18470.328    994300.89    956.24795   -6806.1943     10.85083 
  249000    3564.0548    18471.497    990900.14    943.03293   -6819.2224    10.850143 
  250000    3525.5659     18420.04    1006019.2    932.84892   -6789.8985    10.880453 
Loop time of 611.224 on 8 procs for 250000 steps with 2048 atoms

Performance: 35.339 ns/day, 0.679 hours/ns, 409.016 timesteps/s
121.4% CPU use with 4 MPI tasks x 2 OpenMP threads

MPI task timing breakdown:
Section |  min time  |  avg time  |  max time  |%varavg| %total
---------------------------------------------------------------
Pair    | 382.96     | 383.46     | 384.03     |   2.4 | 62.74
Neigh   | 6.6865     | 6.7368     | 6.8164     |   1.9 |  1.10
Comm    | 44.327     | 45.066     | 45.906     |   9.8 |  7.37
Output  | 0.0067915  | 0.012193   | 0.013999   |   2.8 |  0.00
Modify  | 174.51     | 174.87     | 175.14     |   1.9 | 28.61
Other   |            | 1.08       |            |       |  0.18

Nlocal:        512.000 ave         521 max         504 min
Histogram: 1 0 1 0 0 0 1 0 0 1
Nghost:        3231.25 ave        3237 max        3223 min
Histogram: 1 0 0 0 0 1 0 1 0 1
Neighs:        51744.0 ave       52741 max       50977 min
Histogram: 2 0 0 0 0 0 0 1 0 1

Total # of neighbors = 206976
Ave neighs/atom = 101.06250
Neighbor list builds = 5509
Dangerous builds = 0


# fix 132 all momentum 100 linear 1 1 1 angular
fix out_file_1 all print 1000 "$(step) $(temp) $(press) ${sys_press} $(vol) $(ke) $(pe) $(density)" file one_phase_${sim}_press_$P_$T_.txt screen no title  "step temp press pressGiga vol ke pe density"
fix out_file_1 all print 1000 "$(step) $(temp) $(press) ${sys_press} $(vol) $(ke) $(pe) $(density)" file one_phase_cooling_press_$P_$T_.txt screen no title  "step temp press pressGiga vol ke pe density"
fix out_file_1 all print 1000 "$(step) $(temp) $(press) ${sys_press} $(vol) $(ke) $(pe) $(density)" file one_phase_cooling_press_1000000_$T_.txt screen no title  "step temp press pressGiga vol ke pe density"
fix out_file_1 all print 1000 "$(step) $(temp) $(press) ${sys_press} $(vol) $(ke) $(pe) $(density)" file one_phase_cooling_press_1000000_3600_.txt screen no title  "step temp press pressGiga vol ke pe density"

# dump 3 all custom 1000 traj_npt_new.lammpstrj id type x y z
run 50000
Last active /omp style is pair_style eam/alloy/omp
Per MPI rank memory allocation (min/avg/max) = 4.346 | 4.346 | 4.346 Mbytes
Step Temp Volume Press KinEng PotEng Density 
  250000    3525.5659     18420.04    1006019.2    932.84892   -6789.8985    10.880453 
  251000    3684.2799    18430.383    1002688.4    974.84396     -6807.24    10.874347 
  252000    3599.7586    18430.684    1004381.3    952.47999   -6796.7853     10.87417 
  253000    3512.3715    18502.677    985376.64    929.35775   -6822.9367    10.831859 
  254000     3522.988    18446.855    1002068.5    932.16683   -6782.0468    10.864637 
  255000    3571.7538    18338.829    1017627.3    945.07003   -6808.2461    10.928636 
  256000    3571.8093    18479.466    993703.02    945.08473   -6805.8167    10.845464 
  257000    3499.1017    18499.495    987473.19    925.84661   -6815.4886    10.833722 
  258000     3484.157    18365.516    1016739.5    921.89231    -6782.519    10.912756 
  259000    3673.9211    18461.542    999658.96    972.10304   -6797.7248    10.855994 
  260000    3641.1014    18461.315    995091.77     963.4191   -6813.3085    10.856127 
  261000    3535.5303    18410.962    1004698.2    935.48548   -6806.3725    10.885818 
  262000    3650.6995    18446.945       997789    965.95872   -6814.6169    10.864584 
  263000    3653.3485    18433.068    997805.34    966.65963   -6827.6135    10.872763 
  264000    3593.3703     18393.54    1014413.1    950.78966   -6776.7614    10.896129 
  265000    3699.3974    18481.472    991656.56    978.84397   -6820.6744    10.844287 
  266000    3487.9142    18417.537    1007098.9    922.88646   -6782.4692    10.881932 
  267000     3702.954    18424.359    1012874.4    979.78503   -6767.6027    10.877903 
  268000    3643.0459    18410.192    1006982.8     963.9336   -6797.4088    10.886274 
  269000    3660.5797    18521.246    979097.15    968.57297   -6846.5245    10.820999 
  270000    3718.1328    18481.899    994802.44    983.80126   -6808.7879    10.844036 
  271000    3603.5425     18344.64    1024358.9    953.48118   -6766.5075    10.925174 
  272000    3521.3161    18478.869    989872.56    931.72446   -6816.8715    10.845814 
  273000    3622.3461    18436.135    1002356.2    958.45654   -6802.2481    10.870954 
  274000    3643.5721    18473.664    992542.73    964.07285   -6819.6826     10.84887 
  275000    3552.0244    18498.605    981236.01    939.84974   -6851.9581    10.834243 
  276000     3613.622     18418.06    1008165.9    956.14817    -6781.843    10.881623 
  277000     3595.192     18417.46    1009085.9    951.27169   -6779.0833    10.881978 
  278000    3559.4793    18489.945    997227.36    941.82228   -6774.8114    10.839317 
  279000    3476.5965    18448.923    997302.17    919.89185     -6798.42    10.863419 
  280000    3725.6316    18500.422    988128.89    985.78541   -6822.2095    10.833179 
  281000    3598.7283    18400.366    1015181.1    952.20737   -6764.0733    10.892087 
  282000    3676.2781    18489.893    988123.37    972.72671   -6830.3059    10.839348 
  283000    3497.4214    18491.437    984266.93    925.40202   -6832.3194    10.838443 
  284000    3620.5098    18472.712    992045.89    957.97066   -6818.7333    10.849429 
  285000    3603.5083    18416.736    1008614.5    953.47213   -6784.8792    10.882406 
  286000    3663.8949     18458.17    1000191.2    969.45016   -6795.2949    10.857977 
  287000    3511.5585     18450.79    1000236.8    929.14263   -6792.0825     10.86232 
  288000    3582.0461    18433.534    1008194.2    947.79334   -6770.0121    10.872489 
  289000    3601.0105    18419.993      1001995    952.81125   -6810.3978    10.880481 
  290000    3595.2862    18411.817    1007995.8    951.29662   -6798.5109    10.885313 
  291000    3607.6264     18481.98    990552.67    954.56178   -6815.9587    10.843989 
  292000    3442.5599    18426.088    997701.28    910.88592   -6821.2364    10.876882 
  293000    3636.5731    18471.826    994032.16    962.22094   -6811.9264     10.84995 
  294000     3524.997    18408.946    1005424.4    932.69841     -6805.89     10.88701 
  295000    3584.1879    18387.727    1011645.3    948.36005   -6795.4484    10.899574 
  296000    3576.5209    18481.415    996534.23    946.33139   -6783.2836     10.84432 
  297000    3600.9079     18482.06    987302.85    952.78409   -6837.3729    10.843942 
  298000     3674.153    18471.689    989593.37    972.16442   -6837.2849     10.85003 
  299000    3529.9853    18395.456    1007944.3    934.01829   -6803.9259    10.894994 
  300000    3666.9833     18474.25    992227.83    970.26733   -6825.9287    10.848526 
Loop time of 151.041 on 8 procs for 50000 steps with 2048 atoms

Performance: 28.602 ns/day, 0.839 hours/ns, 331.037 timesteps/s
112.7% CPU use with 4 MPI tasks x 2 OpenMP threads

MPI task timing breakdown:
Section |  min time  |  avg time  |  max time  |%varavg| %total
---------------------------------------------------------------
Pair    | 95.111     | 95.459     | 95.74      |   2.6 | 63.20
Neigh   | 1.5855     | 1.6102     | 1.6668     |   2.6 |  1.07
Comm    | 15.87      | 16.249     | 16.574     |   7.5 | 10.76
Output  | 0.0015186  | 0.0020305  | 0.0022389  |   0.7 |  0.00
Modify  | 37.324     | 37.449     | 37.572     |   1.5 | 24.79
Other   |            | 0.2717     |            |       |  0.18

Nlocal:        512.000 ave         514 max         509 min
Histogram: 1 0 0 0 0 0 1 0 1 1
Nghost:        3209.75 ave        3224 max        3197 min
Histogram: 1 1 0 0 0 0 0 1 0 1
Neighs:        51490.2 ave       51607 max       51326 min
Histogram: 1 0 0 1 0 0 0 0 0 2

Total # of neighbors = 205961
Ave neighs/atom = 100.56689
Neighbor list builds = 1094
Dangerous builds = 0

unfix temp
unfix out_file_1


write_data after_${sim}_press_$P_$T.in
write_data after_cooling_press_$P_$T.in
write_data after_cooling_press_1000000_$T.in
write_data after_cooling_press_1000000_3600.in
System init for write_data ...
Last active /omp style is pair_style eam/alloy/omp
write_restart after_${sim}_press_$P_$T.lmp
write_restart after_cooling_press_$P_$T.lmp
write_restart after_cooling_press_1000000_$T.lmp
write_restart after_cooling_press_1000000_3600.lmp
System init for write_restart ...
Last active /omp style is pair_style eam/alloy/omp

next loopVar  #<----->
jump in.lmp ensemble

print """
Label pachadi solti, hos garam.
"""

Label pachadi solti, hos garam.

variable T equal 3700-${loopVar}*100  #<----->
variable T equal 3700-2*100  
# variable T equal 4950


reset_timestep 0
fix 1 all npt temp $T $T $(dt*100) iso $P $P $(dt*1000)
fix 1 all npt temp 3500 $T $(dt*100) iso $P $P $(dt*1000)
fix 1 all npt temp 3500 3500 $(dt*100) iso $P $P $(dt*1000)
fix 1 all npt temp 3500 3500 0.10000000000000000555 iso $P $P $(dt*1000)
fix 1 all npt temp 3500 3500 0.10000000000000000555 iso 1000000 $P $(dt*1000)
fix 1 all npt temp 3500 3500 0.10000000000000000555 iso 1000000 1000000 $(dt*1000)
fix 1 all npt temp 3500 3500 0.10000000000000000555 iso 1000000 1000000 1
print """
<--------------------------------------------------------------------->
<------------------ Equilibrating at temperature $T ----------------->
<--------------------------------------------------------------------->
"""

<--------------------------------------------------------------------->
<------------------ Equilibrating at temperature 3500 ----------------->
<--------------------------------------------------------------------->

fix temp all print 1000 "$(step) $(temp) $(press) ${sys_press} $(vol) $(ke) $(pe) $(density)" file temp_${sim}.txt screen no title  "step temp press pressGiga vol ke pe density"
fix temp all print 1000 "$(step) $(temp) $(press) ${sys_press} $(vol) $(ke) $(pe) $(density)" file temp_cooling.txt screen no title  "step temp press pressGiga vol ke pe density"
run 250000
Last active /omp style is pair_style eam/alloy/omp
Per MPI rank memory allocation (min/avg/max) = 4.346 | 4.346 | 4.346 Mbytes
Step Temp Volume Press KinEng PotEng Density 
       0    3666.9833     18474.25    992227.83    970.26733   -6825.9287    10.848526 
    1000    3366.8128    18411.171    1001058.4    890.84358   -6812.5265    10.885694 
    2000    3447.8982    18329.044    1025694.1     912.2984     -6764.41     10.93447 
    3000    3626.2598    18363.384    1016423.9    959.49207   -6793.3812    10.914022 
    4000    3469.5303    18428.042    996121.95    918.02217   -6827.5832    10.875729 
    5000    3401.6261    18431.783    990878.52    900.05502   -6837.5581    10.873522 
    6000    3470.5563     18471.72    987714.06    918.29364   -6835.9711    10.850012 
    7000    3543.8697     18382.78    1006389.2    937.69203   -6819.6357    10.902507 
    8000    3498.6592    18362.795    1017651.3    925.72953   -6779.0262    10.914373 
    9000     3487.068     18363.43    1008960.6    922.66257   -6819.1843    10.913995 
   10000    3531.1801    18434.492    993875.73    934.33443    -6843.003    10.871924 
   11000    3487.6781    18435.817     989702.6      922.824   -6853.9267    10.871142 
   12000    3509.7844    18428.964    1001030.8    928.67322   -6802.6228    10.875185 
   13000    3447.5465    18372.078    1004327.9    912.20535   -6831.8976    10.908858 
   14000    3472.3986    18391.297    1004055.7     918.7811   -6822.7391    10.897458 
   15000    3321.3795     18414.27     998259.8    878.82214   -6817.1163    10.883862 
   16000     3569.038    18425.609    996748.02    944.35146   -6838.0227    10.877165 
   17000    3413.7588    18420.796    1005109.6    903.26529   -6787.2196    10.880007 
   18000    3365.1709    18410.075    997142.45    890.40913   -6826.6689    10.886343 
   19000    3527.2872    18478.023    978782.11    933.30438    -6872.912    10.846311 
   20000    3433.2795     18396.37     996629.5    908.43036   -6847.9721    10.894453 
   21000    3557.5074    18375.745    1013099.4    941.30052   -6791.8847    10.906681 
   22000    3385.3854    18392.408    1007578.3    895.75781   -6796.1066    10.896799 
   23000    3578.9412    18469.247    989666.37     946.9718   -6829.6013    10.851465 
   24000    3629.4168     18445.12     994470.6    960.32741   -6836.4812    10.865659 
   25000    3475.6907     18360.31    1010877.9    919.65217   -6812.1262     10.91585 
   26000    3514.1945    18410.953    994981.32    929.84011   -6847.9581    10.885823 
   27000    3500.1235    18478.284    984131.46    926.11699   -6846.8584    10.846158 
   28000    3592.5546    18397.993    997406.66    950.57385   -6858.3207    10.893492 
   29000    3516.3773    18326.974    1025230.4    930.41767     -6778.52    10.935705 
   30000    3548.4405    18394.154    1007567.8    938.90144    -6804.384    10.895765 
   31000    3411.1114    18444.201    990461.13    902.56479   -6828.9204      10.8662 
   32000    3301.9935     18439.08    993674.42    873.69268   -6818.4442    10.869218 
   33000    3440.4572    18373.765    1011330.7    910.32955   -6797.1747    10.907856 
   34000    3517.9539    18392.852    1007786.3    930.83482   -6809.5734    10.896537 
   35000    3449.0433    18415.596    998121.54    912.60141   -6825.9637    10.883079 
   36000    3543.5971    18407.622    998879.93    937.61992   -6834.6919    10.887794 
   37000    3552.1026    18409.061      1005219    939.87042   -6805.4454    10.886943 
   38000    3473.1394    18442.369    991414.51    918.97711   -6838.7485     10.86728 
   39000    3503.9009    18402.607    995898.59    927.11646   -6851.8863    10.890761 
   40000    3485.1716    18396.493    1007491.8    922.16077   -6793.0167     10.89438 
   41000    3552.7645    18401.659    997484.74    940.04555   -6849.2395    10.891321 
   42000    3518.7956    18386.624    1002649.3    931.05754   -6835.2594    10.900228 
   43000    3513.6308    18398.924      1001114    929.69096   -6829.1991    10.892941 
   44000    3466.1087     18437.89     998144.9    917.11683   -6808.3769     10.86992 
   45000    3489.7941    18460.761    986225.98    923.38387   -6853.3764    10.856453 
   46000     3439.358    18329.596    1020022.6     910.0387   -6800.4124    10.934141 
   47000    3513.6749    18364.366    1006500.6    929.70262   -6836.3919    10.913439 
   48000    3474.6915    18435.379    991216.47    919.38778   -6849.1148    10.871401 
   49000    3415.6634    18420.132     995118.1    903.76922   -6833.8467    10.880399 
   50000    3492.3359    18387.388    1006210.9    924.05642   -6810.2807    10.899775 
   51000    3608.3216    18358.628    1016542.6    954.74571   -6790.7796     10.91685 
   52000    3522.9485    18446.948    988864.48    932.15637   -6858.3822    10.864582 
   53000    3592.2958    18471.119    983467.56    950.50538   -6857.7275    10.850365 
   54000    3496.8934    18383.783    1002249.5    925.26232   -6839.1449    10.901912 
   55000    3470.3647    18435.735    995592.86    918.24295   -6821.9177     10.87119 
   56000    3512.5123    18423.425    991319.59      929.395   -6860.6034    10.878454 
   57000    3601.7235    18437.121    993985.38    952.99989   -6835.9928    10.870373 
   58000    3667.8516    18368.532    1019536.4     970.4971   -6777.8869    10.910964 
   59000    3408.0621    18401.271    1003477.1    901.75795   -6811.1738    10.891551 
   60000    3462.1744    18446.839    992487.07    916.07583    -6826.501    10.864647 
   61000    3433.8686     18465.53    991695.14    908.58624   -6810.7416    10.853649 
   62000    3531.7533    18397.947    1002675.2    934.48609   -6823.8927    10.893519 
   63000    3443.4901    18377.217    1011831.9    911.13205   -6792.8541    10.905807 
   64000    3502.9218    18422.466    1001804.3    926.85741   -6804.5763    10.879021 
   65000    3469.5834    18475.199    976618.53     918.0362   -6884.8463    10.847969 
   66000    3497.1962    18422.216    994147.57    925.34244   -6842.1986    10.879168 
   67000    3509.9306    18356.577    1011418.1    928.71191   -6816.8887     10.91807 
   68000    3543.0398    18404.864    1005571.3    937.47244    -6805.216    10.889425 
   69000    3435.5842    18448.012    992009.07    909.04017   -6831.7318    10.863956 
   70000    3516.4267     18413.77    1001161.3    930.43075   -6819.8538    10.884159 
   71000    3511.5378    18347.882    1016344.9    929.13715   -6800.8251    10.923244 
   72000    3482.5897    18338.477    1011728.8    921.47762   -6828.1184    10.928846 
   73000    3479.9342    18457.129    987173.67    920.77499   -6847.5845    10.858589 
   74000     3447.013    18436.143    988886.11    912.06419   -6858.4561     10.87095 
   75000     3495.104    18381.369    1005185.9    924.78885   -6823.4897    10.903344 
   76000    3414.1962     18403.54    1003709.6      903.381   -6810.8829    10.890209 
   77000    3557.6708      18423.2    1000074.7    941.34374   -6816.9479    10.878587 
   78000    3595.6476    18458.657    989392.81    951.39223   -6841.8007    10.857691 
   79000    3481.4005    18406.584    1002527.3    921.16295   -6815.6403    10.888407 
   80000    3544.0351    18368.021    1014098.8     937.7358   -6795.3035    10.911267 
   81000    3486.9911    18387.742    1002550.8     922.6422   -6833.0194    10.899565 
   82000    3378.4798    18461.775    982644.34    893.93062   -6861.0599    10.855857 
   83000    3339.8061    18447.397    989250.68    883.69773   -6836.6545    10.864318 
   84000    3589.8711    18420.064    998155.87    949.86381   -6832.5226    10.880439 
   85000    3448.0759    18376.023    1008551.2    912.34543     -6807.64    10.906516 
   86000    3387.3595    18384.717     999239.2    896.28014   -6842.9951    10.901358 
   87000    3509.2969    18524.258    967940.15    928.54422   -6888.3671     10.81924 
   88000    3549.0044    18432.741    993994.16    939.05066   -6837.3075    10.872957 
   89000    3360.5494    18379.004    1008223.6    889.18631   -6798.0924    10.904747 
   90000    3505.6915    18419.231    999931.23    927.59025   -6819.2411    10.880932 
   91000    3512.2474     18403.86    998907.29    929.32491   -6835.4309    10.890019 
   92000    3521.2615     18349.35    1013672.8       931.71   -6810.4604     10.92237 
   93000    3533.5639    18432.243    993114.92    934.96518   -6839.8744     10.87325 
   94000    3514.8733    18479.087    980033.08    930.01973   -6869.1407    10.845687 
   95000    3434.2159    18399.176    1004361.5    908.67814   -6804.9916    10.892792 
   96000    3591.5128    18335.579    1018993.6    950.29819   -6803.3145    10.930573 
   97000     3450.119    18365.765    1011825.6    912.88602   -6800.6303    10.912608 
   98000    3486.5111    18425.499    1000090.9    922.51521   -6808.0803     10.87723 
   99000    3468.9501    18443.294    987614.19    917.86864   -6856.7564    10.866735 
  100000    3496.1635    18354.348    1015282.8    925.06919    -6802.309    10.919395 
  101000    3508.1716    18359.775      1018702    928.24648   -6773.5026    10.916168 
  102000    3439.7939    18440.234     986545.2    910.15405   -6860.9531    10.868538 
  103000    3467.9893    18425.412    993714.64    917.61441   -6844.0737    10.877281 
  104000    3591.4979    18415.713    1005218.7    950.29424   -6798.8492     10.88301 
  105000    3544.1758    18345.167      1015585    937.77303   -6809.8454     10.92486 
  106000      3477.74    18408.316    999608.16     920.1944   -6827.2083    10.887383 
  107000    3409.6859    18518.289    970689.19    902.18762   -6876.7225    10.822727 
  108000    3556.1604     18467.37    987822.36     940.9441   -6838.2072    10.852568 
  109000    3568.2905    18385.906    1006335.5    944.15368   -6816.5508    10.900653 
  110000    3386.4408    18397.105    1003604.6    896.03706    -6812.334    10.894018 
  111000    3463.9301    18495.942    976326.67    916.54036    -6866.612    10.835803 
  112000    3630.2825    18405.468    998841.51    960.55647   -6846.0489    10.889068 
  113000    3344.2357    18325.268      1017253    884.86978    -6803.314    10.936724 
  114000    3468.7104    18410.014    999376.07    917.80523   -6826.4243    10.886379 
  115000    3434.0955    18461.305    983913.56    908.64628   -6851.5469    10.856133 
  116000    3505.0551    18421.128    996262.25    927.42185   -6835.9911    10.879811 
  117000     3557.156    18362.588    1015653.2    941.20752   -6791.3968    10.914496 
  118000     3415.244    18372.397    1008913.9    903.65826   -6810.8135    10.908668 
  119000    3354.3129    18481.645    987541.66    887.53615   -6814.8527    10.844185 
  120000    3604.8578    18472.719    988423.94    953.82922   -6833.7992    10.849426 
  121000    3539.3825    18305.463    1024786.1    936.50474    -6796.564    10.948556 
  122000    3481.9784    18315.337    1033605.2    921.31588   -6743.3634    10.942654 
  123000    3359.1966    18405.087     997637.8    888.82836   -6832.4297    10.889293 
  124000    3502.1072    18491.396    982279.77    926.64185   -6841.0371    10.838467 
  125000    3484.7404    18409.237    1000481.2    922.04668   -6819.0421    10.886839 
  126000    3508.3835    18398.461    1009018.2    928.30254   -6792.5237    10.893215 
  127000    3524.7403    18450.715    983983.68    932.63048   -6872.2868    10.862364 
  128000    3564.0309    18495.975    978371.95    943.02659   -6863.0392    10.835784 
  129000    3329.3969    18366.793      1008943    880.94349   -6801.1142    10.911997 
  130000    3549.9293    18398.997    1002185.7    939.29537   -6826.5541    10.892897 
  131000    3546.5375    18400.623      1001189    938.39791   -6828.3355    10.891935 
  132000    3401.7554    18460.742    982645.71    900.08923   -6863.7009    10.856464 
  133000    3645.6185    18483.699    978644.11     964.6143   -6880.5469    10.842981 
  134000    3496.6662    18404.622    1004785.4    925.20221    -6803.535    10.889568 
  135000     3455.584    18356.809    1014757.3    914.33203   -6797.7241    10.917932 
  136000    3547.5407    18406.537    1000635.2    938.66337   -6830.5578    10.888436 
  137000    3539.6511    18420.726    995191.31     936.5758   -6841.7683    10.880048 
  138000    3535.2755    18430.444    1000161.1    935.41804   -6810.4332    10.874311 
  139000    3548.0364    18446.164     993985.3    938.79453   -6831.3214    10.865044 
  140000    3337.5447    18452.746    983550.66    883.09937   -6862.7485    10.861169 
  141000     3467.778    18457.866    989116.73    917.55851   -6835.5194    10.858156 
  142000    3489.9245    18368.889    1017051.2    923.41838    -6778.081    10.910752 
  143000    3466.8977    18385.702    1007849.6    917.32558   -6804.8496    10.900774 
  144000    3509.4999    18444.579    992788.52    928.59795   -6833.6558    10.865978 
  145000    3445.1773    18406.747    999430.62    911.57846   -6830.0657    10.888311 
  146000    3475.0214    18504.104    974116.27    919.47507   -6872.2019    10.831024 
  147000    3465.3591    18438.245    990509.27    916.91849   -6847.9543     10.86971 
  148000    3516.3316    18369.966    1017132.1    930.40558   -6773.6699    10.910112 
  149000    3483.4423    18399.166    1000387.8    921.70323   -6832.0662    10.892797 
  150000    3577.6573    18454.456    985093.59    946.63208   -6870.1756    10.860162 
  151000    3608.5847    18453.747    989721.71    954.81533   -6845.5776     10.86058 
  152000    3445.6013     18360.46    1013274.2    911.69066    -6800.308    10.915761 
  153000    3474.9317    18393.648    1010401.6    919.45134   -6781.8407    10.896065 
  154000    3415.2127    18424.575    992706.83    903.64996   -6839.7901    10.877775 
  155000    3415.9841      18451.3    993354.93    903.85407   -6814.3618     10.86202 
  156000    3567.5642     18430.41    991274.29     943.9615   -6858.6034    10.874332 
  157000    3586.8992    18405.543    1003991.8    949.07744   -6814.2968    10.889024 
  158000    3568.5885    18438.194    998747.71    944.23253   -6811.3216    10.869741 
  159000    3393.7398    18424.215    990595.69    897.96833   -6852.6082    10.877988 
  160000    3511.2678    18386.189    1007020.7    929.06571   -6810.6043    10.900485 
  161000    3531.4669    18333.475    1023876.8    934.41031   -6770.6687    10.931827 
  162000    3433.4567    18406.649    998435.18    908.47725   -6832.0738    10.888369 
  163000     3568.238    18419.577    994128.27    944.13979   -6851.2477    10.880727 
  164000     3588.641    18402.553    1006154.2    949.53832   -6802.9639    10.890793 
  165000    3415.0886     18324.21    1017309.7    903.61713   -6805.4903    10.937355 
  166000    3433.3918    18427.768    986791.03    908.46007   -6870.8188    10.875891 
  167000    3568.2928    18493.688    982331.43    944.15428   -6846.9136    10.837124 
  168000    3471.0948    18326.034    1020656.6    918.43613   -6795.0293    10.936266 
  169000    3499.2803    18396.919      1008226    925.89388   -6791.9277    10.894128 
  170000    3422.7264    18441.796    993587.69    905.63806    -6826.344    10.867618 
  171000    3506.4049    18430.913    994908.47    927.77901   -6834.5313    10.874035 
  172000    3560.9904    18430.493    996987.18    942.22209   -6825.4913    10.874283 
  173000     3493.609    18419.394    996419.72    924.39327   -6835.0319    10.880835 
  174000    3499.7836    18457.564    983045.27    926.02706   -6873.5858    10.858333 
  175000     3515.051    18394.882    1009584.9    930.06675   -6791.4419    10.895334 
  176000    3492.8452    18378.548    1009389.1    924.19117   -6801.1676    10.905018 
  177000    3473.8755    18418.154    995787.75    919.17187   -6831.3905    10.881568 
  178000    3509.8231    18416.869    1001470.2    928.68345   -6816.1824    10.882327 
  179000    3516.3318    18405.424    996740.95    930.40563   -6849.9167    10.889094 
  180000    3513.8987    18404.475    1002428.1    929.76185   -6824.2522    10.889655 
  181000    3588.5299    18365.985      1020492    949.50892   -6767.7271    10.912477 
  182000     3487.593    18391.754    1005750.2    922.80147    -6815.049    10.897187 
  183000    3443.9006    18439.882     990616.8    911.24067   -6846.9892    10.868745 
  184000    3450.6366    18421.561    1000092.1    913.02297   -6806.4815    10.879555 
  185000    3586.1381    18337.829      1021251    948.87606   -6794.5494    10.929232 
  186000    3388.0833    18386.283      1004050    896.47166   -6816.9998     10.90043 
  187000    3454.7191    18453.234    988122.16    914.10318   -6847.2996    10.860881 
  188000    3604.7036    18459.251    987855.89    953.78842     -6851.58    10.857341 
  189000    3521.2572    18381.714    1007537.1    931.70886   -6814.3082    10.903139 
  190000    3461.4253    18417.226    1004104.2    915.87763   -6801.6151    10.882116 
  191000    3432.7146    18407.595    996793.19     908.2809   -6833.5364    10.887809 
  192000    3437.9032     18422.89    993870.77    909.65376   -6835.0458     10.87877 
  193000    3553.4291    18448.801    991088.89    940.22142   -6842.4545    10.863491 
  194000    3501.3257    18346.873    1017187.6     926.4351   -6797.9371    10.923844 
  195000    3506.3477     18360.87    1010537.8    927.76387   -6822.4382    10.915517 
  196000    3389.2912    18435.069    991400.73    896.79125   -6837.7489    10.871583 
  197000    3577.2944    18541.991    967724.27    946.53606   -6880.7321    10.808892 
  198000     3709.992    18421.795    999970.29    981.64724   -6829.9037    10.879417 
  199000    3526.2828    18373.785      1011384    933.03862   -6803.3486    10.907844 
  200000    3502.6943     18371.35    1012284.9    926.79721   -6797.7519     10.90929 
  201000    3528.9249    18435.384    992450.05    933.73772    -6843.908    10.871397 
  202000    3425.8157    18424.659    994428.59    906.45548   -6831.8821    10.877726 
  203000    3475.9057    18438.507    998473.13    919.70906   -6805.7945    10.869556 
  204000     3532.148    18382.678    1006970.1    934.59052   -6817.6234    10.902568 
  205000     3556.828      18433.3    997688.63    941.12073   -6821.2495    10.872626 
  206000    3440.6407      18496.1    973814.13     910.3781    -6880.155    10.835711 
  207000    3398.8978     18428.75    989635.67    899.33311    -6853.073    10.875311 
  208000    3436.8518     18373.86    1011618.8    909.37557   -6792.1807      10.9078 
  209000    3477.7947     18352.79    1010471.1     920.2089   -6818.8349    10.920322 
  210000    3454.3914    18428.293    994848.24    914.01648   -6834.1397    10.875581 
  211000    3511.6771    18402.756    999432.32    929.17401   -6833.9173    10.890672 
  212000    3676.1785    18377.215    1017243.1    972.70035   -6783.0329    10.905809 
  213000    3577.1467    18350.866      1019386    946.49699   -6788.1586    10.921468 
  214000    3371.4635    18410.806    1006789.3    892.07413   -6782.7963    10.885911 
  215000    3630.1074    18423.736    994222.99    960.51015   -6857.8888    10.878271 
  216000    3376.8176    18389.125    996572.77     893.4908   -6847.8521    10.898745 
  217000    3489.9296     18426.49    996707.74    923.41971   -6826.2997    10.876645 
  218000    3526.0979    18418.947    999518.51    932.98968   -6823.1028    10.881099 
  219000    3560.5845    18404.234    1003526.5    942.11469   -6818.6302    10.889798 
  220000    3537.0239    18442.989    987358.86    935.88066   -6862.9677    10.866914 
  221000    3456.9168    18454.867    984129.78    914.68469   -6866.8245    10.859921 
  222000    3514.2567    18428.199    1000318.4    929.85657   -6811.2792    10.875636 
  223000    3481.1214    18333.668    1017661.8    921.08913   -6796.9451    10.931713 
  224000    3685.4918    18491.445    987400.81     975.1646   -6831.4465    10.838438 
  225000    3506.1423    18503.749    971644.36    927.70954   -6886.6761    10.831231 
  226000    3577.1907    18397.624    1009064.9    946.50861   -6800.2032    10.893711 
  227000    3503.1764    18361.445    1015430.8    926.92476    -6784.751    10.915175 
  228000    3542.1201    18405.162    1002948.1    937.22909   -6816.6152    10.889249 
  229000    3564.5038    18472.219     979716.4    943.15173   -6878.0748    10.849719 
  230000    3577.0335    18436.927    993562.76    946.46702   -6842.9429    10.870488 
  231000    3450.9713    18374.482    1011297.7    913.11154   -6799.4397    10.907431 
  232000    3494.7621     18336.57      1017434    924.69837    -6799.917    10.929982 
  233000    3369.1742    18428.997    995645.95    891.46838   -6825.0544    10.875165 
  234000    3421.3542    18433.651    989197.34    905.27499    -6858.475    10.872419 
  235000     3535.904    18412.533    997842.99    935.58436   -6838.4461     10.88489 
  236000    3496.0245    18404.142    1003584.6    925.03242   -6813.9109    10.889852 
  237000    3640.3267    18389.909    1013331.9    963.21414    -6788.883     10.89828 
  238000    3571.4253    18408.339    1004977.4    944.98312   -6806.9916    10.887369 
  239000    3502.4411     18473.78    985216.94    926.73022   -6845.0117    10.848802 
  240000    3461.0764    18542.542    964884.47     915.7853   -6879.8793    10.808571 
  241000    3525.0768    18374.027    1010185.6    932.71953   -6806.9914    10.907701 
  242000    3566.2601    18375.903    1010076.8    943.61644   -6806.1747    10.906587 
  243000    3360.9623    18410.823    999051.75    889.29555   -6820.9308      10.8859 
  244000    3489.9247    18472.492    986069.88    923.41842   -6841.7528    10.849559 
  245000    3484.5799    18389.334    1009535.3    922.00422   -6792.9662    10.898621 
  246000    3528.3275    18393.453    1010434.4    933.57963   -6790.0478    10.896181 
  247000    3415.4828    18440.127    991723.34    903.72145   -6839.8995    10.868601 
  248000    3454.7677    18445.369    987512.12    914.11605   -6843.6208    10.865512 
  249000    3521.2225    18424.585    995276.19    931.69969   -6836.2637     10.87777 
  250000    3476.1194    18429.157    999060.11     919.7656   -6809.0498    10.875071 
Loop time of 601.884 on 8 procs for 250000 steps with 2048 atoms

Performance: 35.887 ns/day, 0.669 hours/ns, 415.362 timesteps/s
124.4% CPU use with 4 MPI tasks x 2 OpenMP threads

MPI task timing breakdown:
Section |  min time  |  avg time  |  max time  |%varavg| %total
---------------------------------------------------------------
Pair    | 375.63     | 376.5      | 377.21     |   3.1 | 62.55
Neigh   | 6.5581     | 6.6057     | 6.6354     |   1.2 |  1.10
Comm    | 34.212     | 35.055     | 35.967     |  10.5 |  5.82
Output  | 0.0065266  | 0.011633   | 0.013363   |   2.7 |  0.00
Modify  | 182.28     | 182.67     | 182.97     |   1.9 | 30.35
Other   |            | 1.047      |            |       |  0.17

Nlocal:        512.000 ave         519 max         506 min
Histogram: 2 0 0 0 0 0 0 1 0 1
Nghost:        3223.00 ave        3241 max        3208 min
Histogram: 1 0 0 1 1 0 0 0 0 1
Neighs:        51654.2 ave       52412 max       50959 min
Histogram: 1 0 1 0 0 0 1 0 0 1

Total # of neighbors = 206617
Ave neighs/atom = 100.88721
Neighbor list builds = 5384
Dangerous builds = 0


# fix 132 all momentum 100 linear 1 1 1 angular
fix out_file_1 all print 1000 "$(step) $(temp) $(press) ${sys_press} $(vol) $(ke) $(pe) $(density)" file one_phase_${sim}_press_$P_$T_.txt screen no title  "step temp press pressGiga vol ke pe density"
fix out_file_1 all print 1000 "$(step) $(temp) $(press) ${sys_press} $(vol) $(ke) $(pe) $(density)" file one_phase_cooling_press_$P_$T_.txt screen no title  "step temp press pressGiga vol ke pe density"
fix out_file_1 all print 1000 "$(step) $(temp) $(press) ${sys_press} $(vol) $(ke) $(pe) $(density)" file one_phase_cooling_press_1000000_$T_.txt screen no title  "step temp press pressGiga vol ke pe density"
fix out_file_1 all print 1000 "$(step) $(temp) $(press) ${sys_press} $(vol) $(ke) $(pe) $(density)" file one_phase_cooling_press_1000000_3500_.txt screen no title  "step temp press pressGiga vol ke pe density"

# dump 3 all custom 1000 traj_npt_new.lammpstrj id type x y z
run 50000
Last active /omp style is pair_style eam/alloy/omp
Per MPI rank memory allocation (min/avg/max) = 4.346 | 4.346 | 4.346 Mbytes
Step Temp Volume Press KinEng PotEng Density 
  250000    3476.1194    18429.157    999060.11     919.7656   -6809.0498    10.875071 
  251000    3451.8605    18455.136       988886     913.3468   -6838.9112    10.859762 
  252000    3501.8094    18427.528     994997.9    926.56306   -6837.3652    10.876032 
  253000    3589.3924    18360.769    1017693.6    949.73713   -6785.2496    10.915577 
  254000    3522.1495    18428.825    1000788.9    931.94498   -6806.3115    10.875267 
  255000    3576.4544    18430.766    992569.21    946.31379   -6856.0812    10.874121 
  256000    3443.7605    18436.439    999976.59    911.20358   -6797.5285    10.870775 
  257000    3549.6799    18414.846    1001521.1    939.22938   -6813.8305    10.883522 
  258000    3464.4208    18412.153    1002227.7     916.6702   -6806.3803    10.885114 
  259000    3443.1105    18423.729    993558.79    911.03159   -6843.6668    10.878275 
  260000    3521.0448    18439.651    994132.84    931.65266    -6833.093    10.868882 
  261000     3536.989    18350.857    1014259.6    935.87144   -6807.8303    10.921473 
  262000    3431.8342    18369.732    1008668.3    908.04795   -6817.4043    10.910251 
  263000      3420.61    18435.709    995318.36    905.07807   -6827.5384    10.871206 
  264000    3542.4641    18373.316    1007761.6    937.32011   -6815.4612    10.908123 
  265000    3526.8655    18313.877    1027390.1     933.1928   -6775.1831    10.943526 
  266000    3407.3451    18419.519    992606.44    901.56823   -6844.4587    10.880761 
  267000    3498.0098     18435.85    994733.93    925.55771   -6832.4794    10.871123 
  268000     3472.481      18362.5    1009263.9    918.80289    -6815.062    10.914548 
  269000    3606.8489    18343.265    1017686.3    954.35604   -6811.4604    10.925993 
  270000    3487.0566    18405.955    1002936.8    922.65955   -6813.1432    10.888779 
  271000    3452.1279    18441.202    981508.28    913.41756   -6890.8308    10.867968 
  272000    3565.7586    18465.834    984061.35    943.48375   -6864.2858    10.853471 
  273000    3550.2017    18393.062    1005739.9    939.36745   -6815.3913    10.896412 
  274000    3567.3698    18391.013    1009323.3    943.91006   -6806.0884    10.897626 
  275000    3582.6605    18420.466    998574.95    947.95591   -6825.8811    10.880202 
  276000    3468.9192    18465.897    992303.26    917.86046   -6810.1102    10.853433 
  277000     3509.679    18438.386    991019.76    928.64534   -6845.5381    10.869627 
  278000    3533.0532    18350.568    1017179.7    934.83005   -6789.8556    10.921645 
  279000    3634.9009    18371.529    1008618.1    961.77847   -6826.1115    10.909184 
  280000    3440.6157    18439.616    990451.15    910.37148   -6839.3418    10.868902 
  281000    3444.3601    18440.776    991624.97    911.36223   -6829.2781    10.868218 
  282000    3428.9427     18374.07      1009335    907.28287   -6811.7785    10.907675 
  283000    3541.8523    18308.124    1024312.5    937.15824   -6797.0811    10.946965 
  284000    3496.5967    18420.664    995699.59    925.18382   -6840.6581    10.880085 
  285000    3506.7971    18496.326    979168.51    927.88278   -6853.2644    10.835578 
  286000    3459.7594    18391.084    1009391.7    915.43682   -6793.5418    10.897584 
  287000    3517.2629    18413.361      1007570      930.652   -6787.5548      10.8844 
  288000    3421.9939     18434.79    993089.24    905.44425   -6838.8726    10.871748 
  289000    3438.0391    18458.439    980274.08    909.68972   -6878.4416    10.857819 
  290000    3463.1695    18411.895    996196.38    916.33911   -6836.6457    10.885266 
  291000    3446.5346    18323.988    1025692.7     911.9376   -6770.7211    10.937487 
  292000    3456.7898    18382.643      1008555    914.65109   -6801.4083    10.902588 
  293000    3467.7978    18410.578    999044.56    917.56376   -6830.1874    10.886045 
  294000    3580.5231    18439.444    991374.96    947.39036    -6848.217    10.869004 
  295000    3459.4394    18390.694    999563.57    915.35215   -6836.7254    10.897816 
  296000    3501.4315    18385.586    1010191.1    926.46309   -6792.0634    10.900843 
  297000     3453.363    18444.109    988765.49    913.74437   -6846.2261    10.866255 
  298000     3393.327    18456.354    989790.89     897.8591   -6828.2988    10.859046 
  299000    3410.1419    18361.042    1017722.2    902.30827   -6771.7411    10.915415 
  300000    3612.0963     18409.05    1007390.5    955.74449   -6796.1538    10.886949 
Loop time of 117.287 on 8 procs for 50000 steps with 2048 atoms

Performance: 36.833 ns/day, 0.652 hours/ns, 426.306 timesteps/s
125.3% CPU use with 4 MPI tasks x 2 OpenMP threads

MPI task timing breakdown:
Section |  min time  |  avg time  |  max time  |%varavg| %total
---------------------------------------------------------------
Pair    | 73.069     | 73.279     | 73.474     |   1.9 | 62.48
Neigh   | 1.3017     | 1.3092     | 1.324      |   0.8 |  1.12
Comm    | 5.8347     | 6.0797     | 6.318      |   8.1 |  5.18
Output  | 0.0011489  | 0.0018461  | 0.0020792  |   0.9 |  0.00
Modify  | 36.343     | 36.412     | 36.477     |   0.8 | 31.05
Other   |            | 0.2052     |            |       |  0.17

Nlocal:        512.000 ave         519 max         505 min
Histogram: 1 0 1 0 0 0 0 1 0 1
Nghost:        3218.75 ave        3225 max        3210 min
Histogram: 1 0 0 0 0 0 1 1 0 1
Neighs:        51809.8 ave       52765 max       50684 min
Histogram: 1 0 0 1 0 0 0 0 1 1

Total # of neighbors = 207239
Ave neighs/atom = 101.19092
Neighbor list builds = 1086
Dangerous builds = 0

unfix temp
unfix out_file_1


write_data after_${sim}_press_$P_$T.in
write_data after_cooling_press_$P_$T.in
write_data after_cooling_press_1000000_$T.in
write_data after_cooling_press_1000000_3500.in
System init for write_data ...
Last active /omp style is pair_style eam/alloy/omp
write_restart after_${sim}_press_$P_$T.lmp
write_restart after_cooling_press_$P_$T.lmp
write_restart after_cooling_press_1000000_$T.lmp
write_restart after_cooling_press_1000000_3500.lmp
System init for write_restart ...
Last active /omp style is pair_style eam/alloy/omp

next loopVar  #<----->
jump in.lmp ensemble

print """
Label pachadi solti, hos garam.
"""

Label pachadi solti, hos garam.

variable T equal 3700-${loopVar}*100  #<----->
variable T equal 3700-3*100  
# variable T equal 4950


reset_timestep 0
fix 1 all npt temp $T $T $(dt*100) iso $P $P $(dt*1000)
fix 1 all npt temp 3400 $T $(dt*100) iso $P $P $(dt*1000)
fix 1 all npt temp 3400 3400 $(dt*100) iso $P $P $(dt*1000)
fix 1 all npt temp 3400 3400 0.10000000000000000555 iso $P $P $(dt*1000)
fix 1 all npt temp 3400 3400 0.10000000000000000555 iso 1000000 $P $(dt*1000)
fix 1 all npt temp 3400 3400 0.10000000000000000555 iso 1000000 1000000 $(dt*1000)
fix 1 all npt temp 3400 3400 0.10000000000000000555 iso 1000000 1000000 1
print """
<--------------------------------------------------------------------->
<------------------ Equilibrating at temperature $T ----------------->
<--------------------------------------------------------------------->
"""

<--------------------------------------------------------------------->
<------------------ Equilibrating at temperature 3400 ----------------->
<--------------------------------------------------------------------->

fix temp all print 1000 "$(step) $(temp) $(press) ${sys_press} $(vol) $(ke) $(pe) $(density)" file temp_${sim}.txt screen no title  "step temp press pressGiga vol ke pe density"
fix temp all print 1000 "$(step) $(temp) $(press) ${sys_press} $(vol) $(ke) $(pe) $(density)" file temp_cooling.txt screen no title  "step temp press pressGiga vol ke pe density"
run 250000
Last active /omp style is pair_style eam/alloy/omp
Per MPI rank memory allocation (min/avg/max) = 4.346 | 4.346 | 4.346 Mbytes
Step Temp Volume Press KinEng PotEng Density 
       0    3612.0963     18409.05    1007390.5    955.74449   -6796.1538    10.886949 
    1000    3412.9009     18376.46    1005699.6    903.03828   -6821.0438    10.906256 
    2000    3352.6122    18419.857    986936.31    887.08615   -6872.4299    10.880562 
    3000    3383.4363    18446.943     981808.9    895.24208   -6875.4264    10.864585 
    4000    3279.2375    18363.909    1004760.8    867.67155   -6825.1154    10.913711 
    5000    3469.5235    18330.834    1012835.1    918.02037    -6827.896    10.933402 
    6000    3476.1963    18395.228    999555.78    919.78595   -6836.6187    10.895129 
    7000    3305.9253    18411.334    988389.64      874.733   -6870.4809    10.885598 
    8000    3282.3189    18368.125    991936.94    868.48688   -6879.8033    10.911205 
    9000    3375.9127    18403.032    999505.37    893.25137   -6827.5586    10.890509 
   10000    3451.1926    18381.505    998001.62    913.17009   -6858.5991    10.903263 
   11000    3441.5576    18342.498    1009685.3    910.62072   -6831.6955     10.92645 
   12000    3405.3875    18306.331    1020667.3    901.05027   -6806.4639    10.948037 
   13000    3421.7207    18314.224    1012193.1    905.37195   -6845.8037    10.943318 
   14000    3389.7683    18421.458    988473.25     896.9175   -6863.3603    10.879616 
   15000    3353.5208    18433.542    985232.45    887.32656   -6867.6384    10.872484 
   16000    3478.8123    18406.761     992549.5    920.47813   -6866.7934    10.888303 
   17000    3344.1268    18351.672    1007290.3    884.84097   -6831.4546    10.920988 
   18000    3300.7343    18332.588    1011414.5    873.35951   -6822.6794    10.932357 
   19000    3522.5112    18388.379    1001931.7    932.04066   -6840.5987    10.899188 
   20000    3405.3132    18453.468    976326.25    901.03061   -6900.4322    10.860744 
   21000    3474.6717    18429.495    984766.41    919.38256   -6880.9009    10.874871 
   22000    3342.5974    18357.145      1005432    884.43629   -6832.9911    10.917732 
   23000    3532.7017    18396.663    1002146.9    934.73702   -6830.6027    10.894279 
   24000    3417.6971    18345.201    1011176.3    904.30733   -6822.0276     10.92484 
   25000    3336.3961    18351.662    1002801.4    882.79544   -6856.1869    10.920994 
   26000    3418.5182    18463.564    978884.41    904.52459   -6881.9716    10.854805 
   27000    3362.5003    18412.204    979564.48    889.70251   -6909.1138    10.885084 
   28000    3372.0595    18394.144    1000240.5    892.23182   -6825.5253    10.895771 
   29000    3377.6418    18403.152    995542.44    893.70889   -6843.1047    10.890438 
   30000    3510.6135    18404.823    992252.78    928.89259    -6868.544    10.889449 
   31000    3387.9713    18415.772    991239.07      896.442   -6857.4432    10.882975 
   32000    3449.6894    18378.366    1003814.5    912.77234   -6829.2183    10.905125 
   33000    3430.0343    18317.711      1018473    907.57169   -6806.3912    10.941235 
   34000    3445.3125    18344.296    1011906.2    911.61425   -6819.4269    10.925379 
   35000    3510.3226    18417.626    991431.84    928.81563   -6862.5024    10.881879 
   36000    3494.4135    18415.825    993600.97    924.60614   -6851.3753    10.882944 
   37000    3337.3968    18354.154    1006398.1    883.06022   -6832.0697    10.919511 
   38000    3584.8584    18417.544    990026.99    948.53745   -6874.5075    10.881928 
   39000    3306.3193    18429.242    983519.24    874.83727   -6880.8542    10.875021 
   40000    3423.4464    18359.786    1002545.2    905.82857   -6850.9598    10.916161 
   41000     3453.214    18341.341    1018868.7    913.70494   -6786.7929    10.927139 
   42000    3462.8528    18386.641    1003659.5    916.25532   -6827.5521    10.900218 
   43000    3416.2537      18344.3    1011949.1    903.92542   -6822.7423    10.925377 
   44000    3465.5357    18414.306    997994.03    916.96521   -6830.9487    10.883841 
   45000     3411.008     18426.32    988317.33    902.53743   -6862.7813    10.876745 
   46000    3320.6076    18374.631    999345.92     878.6179   -6845.3586    10.907342 
   47000     3469.558    18322.467    1018394.9     918.0295   -6810.5589    10.938395 
   48000    3314.2607     18317.11    1016027.6    876.93852   -6818.0036    10.941594 
   49000    3351.9765    18404.694    991726.27    886.91796   -6866.3973    10.889526 
   50000    3362.8008    18397.341    994352.64    889.78203   -6854.5965    10.893878 
   51000      3398.79    18336.553    1008944.5    899.30459   -6837.8718    10.929992 
   52000    3501.6417    18384.644    1003912.9    926.51869   -6834.8534    10.901401 
   53000    3437.9915    18367.515    1004069.7    909.67714   -6846.9106    10.911568 
   54000    3480.0997    18380.748    998540.56    920.81879   -6857.0962    10.903712 
   55000    3402.2592    18386.891    995263.81    900.22254   -6864.5896    10.900069 
   56000    3341.0562    18331.529    1009854.8    884.02849   -6838.8754    10.932988 
   57000    3440.7414    18352.527    1008527.1    910.40474   -6829.9824    10.920479 
   58000    3375.5059    18356.906    1004843.4    893.14372   -6839.0525    10.917874 
   59000    3405.6951    18423.094    985679.32    901.13164   -6888.0148     10.87865 
   60000    3361.9197    18429.059    984241.17    889.54888   -6881.0687    10.875129 
   61000    3375.3311    18393.634    999327.37    893.09748   -6833.8317    10.896073 
   62000    3309.3738    18339.558    1005176.5    875.64548   -6849.0029    10.928202 
   63000    3400.9366    18392.864    997700.99    899.87257   -6845.3157    10.896529 
   64000    3334.8938    18376.023    999258.29    882.39795   -6851.7095    10.906516 
   65000    3466.4444    18363.721    1004998.8    917.20566   -6840.5756    10.913822 
   66000    3491.8364    18320.428    1011859.6    923.92426   -6840.8805    10.939613 
   67000    3388.7755    18390.488    1003108.8    896.65479   -6819.0424    10.897937 
   68000    3327.7952     18461.81    981692.22    880.51969   -6855.7181    10.855836 
   69000    3334.1189    18394.941     992144.6     882.1929   -6868.4135    10.895299 
   70000    3436.8026    18362.001    1006711.5    909.36257   -6834.4622    10.914845 
   71000     3447.312    18325.682    1013713.2     912.1433   -6825.5454    10.936476 
   72000    3348.2081    18360.273    1002833.4    885.92086   -6849.9402    10.915872 
   73000    3282.5703    18491.686    970642.88    868.55339    -6887.342    10.838297 
   74000     3409.877    18421.772    986123.97    902.23818   -6882.0393     10.87943 
   75000    3474.8594    18371.489      1010635    919.43221   -6803.0337    10.909208 
   76000     3402.654    18333.593    1010258.4      900.327   -6836.6606    10.931757 
   77000    3356.8312    18401.385    988510.76    888.20248   -6878.8807    10.891484 
   78000    3360.1104    18377.735    1000570.9    889.07015   -6838.4206      10.9055 
   79000    3386.4627    18388.002     994883.4    896.04286    -6868.408     10.89941 
   80000     3412.762    18372.478    1000990.5    903.00154   -6842.0845     10.90862 
   81000    3429.7317    18331.914      1011512    907.49162   -6833.7315    10.932758 
   82000    3414.4573    18331.811    1011145.7    903.45009   -6831.5972     10.93282 
   83000    3484.4264    18404.876    997814.66    921.96361   -6835.6621    10.889418 
   84000    3384.4968    18372.556    1003637.2    895.52268   -6830.5619    10.908574 
   85000    3440.7092     18398.63    994140.95    910.39623    -6861.421    10.893115 
   86000    3463.8582    18391.738    998985.34    916.52136   -6842.9355    10.897197 
   87000    3394.8011    18442.147    987501.08    898.24916   -6852.1946    10.867411 
   88000    3419.6206    18406.038    996122.31    904.81627   -6840.9143     10.88873 
   89000    3353.4933    18347.204    1011355.6    887.31929   -6811.2556    10.923647 
   90000    3427.7182    18353.224    1010470.8    906.95887   -6815.3355    10.920065 
   91000    3463.2255    18438.471    986595.57    916.35394   -6863.5354    10.869577 
   92000    3390.3204     18420.41    991481.24    897.06359   -6853.8495    10.880235 
   93000    3444.0376    18428.336    990102.87     911.2769   -6848.0258    10.875555 
   94000    3395.9773    18355.158    1004941.5    898.56036   -6843.7258    10.918914 
   95000    3425.7169     18336.14    1011091.5    906.42934   -6832.3226    10.930239 
   96000    3355.6592    18372.255    998092.31    887.89238   -6857.4773    10.908753 
   97000    3403.2964    18491.929     972880.2    900.49696    -6888.246    10.838155 
   98000    3298.3672    18405.423    990549.35    872.73318   -6865.1257    10.889094 
   99000    3367.6522    18397.061    999534.62    891.06566   -6830.8105    10.894044 
  100000    3278.2038    18317.255    1009856.2    867.39804   -6842.0377    10.941508 
  101000    3414.5654    18408.564    996392.21     903.4787   -6843.0648    10.887236 
  102000    3332.5924    18457.814       975665      881.789   -6894.7505    10.858186 
  103000    3292.0165    18352.528    1005628.1    871.05282   -6825.6302    10.920478 
  104000    3399.5644    18342.349    1012327.1     899.5095   -6812.7945    10.926539 
  105000    3393.8744    18338.703    1011332.2    898.00396   -6820.7108    10.928711 
  106000    3351.8618    18412.863    989558.91    886.88761   -6868.1577    10.884695 
  107000    3445.7499    18424.397    986692.64    911.72998    -6874.052     10.87788 
  108000    3449.9743    18356.676    1006745.5    912.84772   -6836.2939    10.918011 
  109000    3333.5511    18344.625    1008405.4    882.04266   -6826.1562    10.925183 
  110000    3448.0025    18361.884    1007667.4    912.32601   -6823.6014    10.914914 
  111000    3357.6026    18391.581    997813.54    888.40659   -6842.2585    10.897289 
  112000    3439.4932    18419.443    991267.57    910.07448   -6855.4319    10.880806 
  113000    3427.1819    18373.035    1004882.6    906.81697   -6828.0238     10.90829 
  114000    3427.4013    18337.314    1015558.3    906.87502   -6807.7549    10.929539 
  115000    3436.5393    18404.179    1000381.9     909.2929   -6827.9986     10.88983 
  116000    3411.8703    18438.547    982212.15    902.76559   -6886.3712    10.869532 
  117000    3421.8941    18441.898    982592.33    905.41784    -6882.594    10.867558 
  118000    3335.1137    18378.519    1000930.7    882.45612    -6835.799    10.905035 
  119000    3536.5541    18354.556    1003781.3    935.75636   -6861.4187    10.919272 
  120000    3507.6508    18385.817    998779.83    928.10867   -6853.0819    10.900706 
  121000    3312.6597     18345.26    1009199.4     876.5149    -6819.445    10.924805 
  122000    3485.7601    18456.127    983848.63    922.31648   -6866.8667    10.859179 
  123000    3345.0189    18472.387     975766.4      885.077   -6881.1831    10.849621 
  124000    3376.4982    18351.405    1003792.9    893.40628    -6845.742    10.921147 
  125000    3312.2301    18340.402    1015269.4    876.40123   -6795.9213    10.927699 
  126000    3401.1895    18338.483    1004743.8    899.93949   -6857.2485    10.928842 
  127000    3364.2195    18410.122    999142.03     890.1574    -6821.005    10.886315 
  128000    3410.9339    18500.116    965053.96    902.51782   -6920.7253    10.833358 
  129000    3405.3365    18396.444    992234.63    901.03678   -6868.3688    10.894409 
  130000    3458.3492     18366.85    1009386.4    915.06369   -6811.7126    10.911963 
  131000    3479.3297    18345.342    1004337.1    920.61503   -6854.4873    10.924756 
  132000    3315.0754     18347.15    1002619.3    877.15408   -6856.7184    10.923679 
  133000    3458.1761     18505.98    967251.35     915.0179   -6901.3753    10.829926 
  134000    3235.8886    18399.887    993922.02    856.20162   -6841.9129    10.892371 
[...]
  120000    3041.0677    18224.556    1013250.1    804.65289    -6890.648    10.997162 
  121000    3088.4168    18284.709    1007546.4    817.18125   -6868.8787    10.960983 
  122000    3054.3123    18279.717    1001203.6    808.15733   -6901.5883    10.963976 
  123000    3149.0273    18309.058    996299.68     833.2185   -6910.0818    10.946407 
  124000    3082.0591    18299.429     993453.9    815.49901   -6924.7118    10.952166 
  125000    3042.3551    18313.351    997525.82    804.99352   -6888.8087     10.94384 
  126000    3154.7202    18328.713    989367.88    834.72483   -6923.7192    10.934668 
  127000    3026.4033    18281.039    991118.62    800.77273   -6947.1592    10.963184 
  128000    3091.2619    18339.107    985372.55    817.93404     -6928.71     10.92847 
  129000    3147.4727    18334.421    986849.98    832.80717   -6929.5207    10.931264 
  130000    3161.1396    18313.874    991261.44    836.42336    -6933.649    10.943528 
  131000    3102.9373    18285.699    1003497.4    821.02329   -6894.3022    10.960389 
  132000    3169.4827    18261.214    1010142.6     838.6309   -6880.9429    10.975086 
  133000    3110.4109    18233.333    1020476.3    823.00078   -6853.2598    10.991868 
  134000    3132.2646    18243.783    1012068.2    828.78316   -6889.8242    10.985572 
  135000    3024.1012      18250.1      1007556    800.16361   -6892.5981    10.981769 
  136000    3164.3271    18253.081    1008773.2    837.26676    -6894.799    10.979976 
  137000    3037.2234    18246.924      1011493     803.6357   -6875.5637     10.98368 
  138000    3028.9723    18281.136    994470.89    801.45248   -6927.6099    10.963126 
  139000    3000.3308    18325.051    991553.58    793.87408    -6905.087    10.936853 
  140000    3129.0915     18326.93    991232.25    827.94358   -6917.6296    10.935731 
  141000    3242.5961    18318.082    990775.45    857.97639   -6936.2029    10.941014 
  142000     3084.175    18306.086    993620.29    816.05888   -6915.5647    10.948183 
  143000    3199.6505    18345.447     985335.2    846.61319   -6932.9749    10.924694 
  144000    3039.4356    18335.825    988369.86    804.22102    -6913.033    10.930427 
  145000    3074.9655    18301.625    987919.18    813.62209   -6947.7209    10.950852 
  146000    3108.8289    18312.927    991850.61    822.58219   -6921.7211    10.944093 
  147000    3056.3973    18303.962    994451.22    808.70903   -6914.6602    10.949454 
  148000    3037.1113    18295.368    999398.37    803.60602   -6896.2063    10.954597 
  149000    3230.6667    18303.263    995954.67    854.81992   -6920.7434    10.949872 
  150000    3162.0794    18279.309    1006892.5    836.67205   -6883.6488    10.964221 
  151000     3035.915    18252.297    1006347.4    803.28949   -6895.1882    10.980448 
  152000    3020.3511        18283    1003997.9    799.17136   -6881.7757    10.962008 
  153000    3130.7344     18289.35    1001372.8    828.37829   -6896.2696    10.958202 
  154000    2998.4717    18233.878    1010970.7    793.38218   -6888.6156    10.991539 
  155000    3081.9911    18250.752    1009820.7    815.48102   -6889.9596    10.981377 
  156000    3205.9754    18242.113      1012612    848.28671   -6893.9083    10.986577 
  157000    3130.4164    18241.373    1009959.9    828.29414   -6895.7887    10.987023 
  158000    3169.4385    18227.403    1016746.4    838.61921   -6875.0569    10.995444 
  159000    3021.7309    18188.108    1027223.9    799.53644   -6852.0915    11.019199 
  160000    3119.8356    18253.982    1011581.6    825.49451   -6878.9196    10.979434 
  161000    3048.0572    18267.834    1007594.3    806.50228   -6885.3547    10.971108 
  162000     3157.644     18295.11    997652.32    835.49844   -6909.2521    10.954752 
  163000    3093.6128    18276.543    997681.99    818.55609    -6928.734     10.96588 
  164000    3127.5684    18364.121       980624    827.54057   -6935.4784    10.913584 
  165000     2927.882    18326.524    986530.35    774.70444   -6920.7169    10.935974 
  166000    3122.8553    18328.874    988563.75    826.29352   -6925.6991    10.934572 
  167000    3075.7441    18248.227    1003413.5    813.82809   -6927.3142    10.982897 
  168000    3161.1056    18288.596    997449.48    836.41436   -6920.2897    10.958653 
  169000    2977.0105    18272.213    1000568.5    787.70363   -6905.5416    10.968479 
  170000    3089.7442    18306.942    995639.76    817.53247   -6910.9173    10.947671 
  171000    3200.7452    18365.539    981126.82    846.90284   -6939.0746    10.912742 
  172000    3012.8315    18339.171    982777.83     797.1817   -6939.3461    10.928432 
  173000    3072.9949    18307.011    987131.19    813.10068   -6950.1374     10.94763 
  174000    3075.2364    18330.223    984491.91    813.69377   -6946.1379    10.933767 
  175000    3040.0789    18275.841    994706.95    804.39126   -6936.9461    10.966302 
  176000    3056.8922    18302.732     997708.4    808.83997   -6898.8644    10.950189 
  177000    3098.4784    18298.592    993515.64    819.84348    -6933.002    10.952667 
  178000    2994.7718    18312.913     994389.6    792.40318   -6902.9727    10.944102 
  179000    3128.8505    18312.596    989630.95    827.87982   -6934.1833    10.944291 
  180000    3015.6202    18309.444    988339.45    797.91958   -6937.2879    10.946175 
  181000     3061.143    18344.459    985473.72    809.96471   -6929.6838    10.925282 
  182000    3078.1134    18277.358    998103.82      814.455    -6925.999    10.965391 
  183000      3029.95    18255.741    1007719.6    801.71119     -6885.42    10.978376 
  184000    3114.3002    18281.991    997856.67    824.02986   -6920.1095    10.962613 
  185000    3152.5871    18335.498    993291.02    834.16041   -6902.5826    10.930622 
  186000    3076.1841    18374.631    979578.43    813.94453   -6929.6473    10.907342 
  187000     3047.213    18345.999    981968.97    806.27889   -6936.8762    10.924365 
  188000    3118.8783    18314.556    990403.17    825.24123   -6926.3261     10.94312 
  189000    3041.6913    18303.772    989266.18    804.81788   -6942.2535    10.949568 
  190000    3102.2173    18334.843    987812.25    820.83279   -6920.0488    10.931012 
  191000    3002.6428    18277.654    993554.28    794.48583   -6939.9333    10.965214 
  192000    3091.4964    18307.353    987289.85    817.99609   -6947.6756    10.947426 
  193000    3032.5404    18339.999    978245.98    802.39661   -6965.0586    10.927939 
  194000     3112.644    18320.785    981102.96    823.59165   -6971.8166    10.939399 
  195000    3045.8883    18308.443    992520.09    805.92839     -6916.84    10.946774 
  196000    3132.6996    18284.092    1000614.8    828.89827   -6909.5605    10.961353 
  197000    3165.2874     18275.53    1000893.1    837.52084   -6915.8691    10.966489 
  198000    2973.1969    18240.317      1011319    786.69458   -6875.8973    10.987659 
  199000    3126.5439    18266.644      1004719     827.2695   -6903.9638    10.971823 
  200000    3049.2154    18308.486    996211.82    806.80872   -6897.6817    10.946748 
  201000    3088.6971    18295.299    995463.12    817.25541   -6918.1654    10.954638 
  202000    3076.4736    18323.582    984624.61    814.02112   -6947.7296     10.93773 
  203000    3206.1606     18361.48    979119.96    848.33571    -6953.775    10.915154 
  204000    3203.4265    18301.552    990162.36    847.61229   -6952.9152    10.950896 
  205000    3133.7048    18301.099    997440.82    829.16424   -6905.5948    10.951167 
  206000    3044.5332     18305.43    992915.05    805.56985   -6922.1643    10.948576 
  207000    3073.1719    18317.226    985367.81    813.14751   -6947.4351    10.941525 
  208000    3028.2783    18373.438    980199.44    801.26886   -6925.6819     10.90805 
  209000    3138.0633    18357.232     978745.7    830.31747   -6949.8151     10.91768 
  210000    3000.8707    18306.194    990124.43    794.01694   -6926.7759    10.948119 
  211000     3123.738    18303.051    994892.19    826.52706    -6917.588    10.949999 
  212000    3021.1539    18284.991    997654.72    799.38379   -6914.2051    10.960814 
  213000    3065.2711     18332.27    989284.68    811.05699   -6917.2377    10.932546 
  214000     3035.678    18280.722       992219    803.22679   -6944.6423    10.963373 
  215000    3071.7034    18299.325    995632.62    812.75895   -6918.2632    10.952228 
  216000    3041.0451    18297.128    992905.86    804.64689   -6928.8088    10.953543 
  217000    3139.0292    18289.008     997875.8    830.57304   -6921.7462    10.958407 
  218000    3070.8245     18227.93      1017585    812.52639   -6869.5151    10.995126 
  219000    3077.1776    18193.493      1019991    814.20739   -6884.1713    11.015938 
  220000    3220.7984    18302.208      1000509    852.20882   -6893.7447    10.950503 
  221000    3030.5513    18284.392      1000266    801.87028   -6905.2906    10.961173 
  222000    3191.3563    18297.225    996668.21    844.41856    -6916.582    10.953485 
  223000    3103.7041    18283.097    998068.01     821.2262   -6915.8136     10.96195 
  224000    2983.8127    18277.281    1000375.7    789.50347    -6905.463    10.965437 
  225000    3086.9662     18275.92    1002496.2    816.79741   -6907.6744    10.966254 
  226000    3107.2045    18291.585    1006912.5    822.15239   -6871.0772    10.956863 
  227000    2936.7158    18243.299    1012528.7    777.04185   -6868.5875    10.985863 
  228000    3125.0941    18284.264    999090.74    826.88588   -6915.2011     10.96125 
  229000    3105.6018    18325.266    994438.21    821.72832    -6898.928    10.936725 
  230000    3082.3715    18334.496    985476.99    815.58169   -6937.3024    10.931219 
  231000    3035.3831    18363.871    974910.59    803.14876   -6960.5366    10.913733 
  232000    3063.5141    18331.851     987310.3    810.59209   -6927.0744    10.932796 
  233000    3183.9095     18303.68    994889.49    842.44817   -6924.0693    10.949623 
  234000    3099.6458    18309.375    993002.59    820.15238   -6917.4517    10.946217 
  235000    3016.6762     18281.83    995389.23      798.199   -6925.4526    10.962709 
  236000     3099.195    18314.031    996579.21    820.03311   -6898.4733    10.943434 
  237000    3108.5596    18318.549    992092.72    822.51094   -6915.9882    10.940734 
  238000    3096.6787     18352.48    981656.84    819.36731   -6940.2802    10.920507 
  239000    3111.9141    18338.196    984723.25    823.39851   -6936.9636    10.929013 
  240000    3055.3048    18324.809    989294.19    808.41995   -6920.5447    10.936997 
  241000    3145.8696    18339.351    987497.37      832.383    -6921.776    10.928325 
  242000    3070.2745    18273.706    993760.29    812.38088   -6949.5659    10.967583 
  243000    3087.9953    18271.899    1001308.2     817.0697   -6912.3479    10.968667 
  244000    3136.0706    18281.526    1005275.4    829.79023   -6887.0123    10.962892 
  245000    3085.6699      18250.4      1008099    816.45443    -6899.248    10.981589 
  246000    3094.0833    18246.062    1007401.6    818.68057    -6907.997    10.984199 
  247000    3106.9298    18263.811    1004474.4     822.0797   -6900.3294    10.973525 
  248000    3132.1882    18266.622    999954.37    828.76296   -6929.4539    10.971837 
  249000    3063.7696    18302.402    999084.11     810.6597   -6895.0291    10.950387 
  250000    3120.8057    18263.016    1008715.8    825.75121    -6885.653    10.974003 
Loop time of 581.997 on 8 procs for 250000 steps with 2048 atoms

Performance: 37.114 ns/day, 0.647 hours/ns, 429.556 timesteps/s
125.5% CPU use with 4 MPI tasks x 2 OpenMP threads

MPI task timing breakdown:
Section |  min time  |  avg time  |  max time  |%varavg| %total
---------------------------------------------------------------
Pair    | 362.73     | 363.98     | 365.1      |   4.4 | 62.54
Neigh   | 5.8299     | 5.8585     | 5.8952     |   1.0 |  1.01
Comm    | 29.825     | 31.077     | 32.385     |  16.8 |  5.34
Output  | 0.0062129  | 0.011477   | 0.013266   |   2.8 |  0.00
Modify  | 179.76     | 180.09     | 180.38     |   1.7 | 30.94
Other   |            | 0.9789     |            |       |  0.17

Nlocal:        512.000 ave         519 max         507 min
Histogram: 2 0 0 0 0 1 0 0 0 1
Nghost:        3238.75 ave        3255 max        3223 min
Histogram: 1 0 1 0 0 0 0 1 0 1
Neighs:        52138.0 ave       53016 max       51486 min
Histogram: 2 0 0 0 0 0 1 0 0 1

Total # of neighbors = 208552
Ave neighs/atom = 101.83203
Neighbor list builds = 4864
Dangerous builds = 0


# fix 132 all momentum 100 linear 1 1 1 angular
fix out_file_1 all print 1000 "$(step) $(temp) $(press) ${sys_press} $(vol) $(ke) $(pe) $(density)" file one_phase_${sim}_press_$P_$T_.txt screen no title  "step temp press pressGiga vol ke pe density"
fix out_file_1 all print 1000 "$(step) $(temp) $(press) ${sys_press} $(vol) $(ke) $(pe) $(density)" file one_phase_cooling_press_$P_$T_.txt screen no title  "step temp press pressGiga vol ke pe density"
fix out_file_1 all print 1000 "$(step) $(temp) $(press) ${sys_press} $(vol) $(ke) $(pe) $(density)" file one_phase_cooling_press_1000000_$T_.txt screen no title  "step temp press pressGiga vol ke pe density"
fix out_file_1 all print 1000 "$(step) $(temp) $(press) ${sys_press} $(vol) $(ke) $(pe) $(density)" file one_phase_cooling_press_1000000_3100_.txt screen no title  "step temp press pressGiga vol ke pe density"

# dump 3 all custom 1000 traj_npt_new.lammpstrj id type x y z
run 50000
Last active /omp style is pair_style eam/alloy/omp
Per MPI rank memory allocation (min/avg/max) = 4.346 | 4.346 | 4.346 Mbytes
Step Temp Volume Press KinEng PotEng Density 
  250000    3120.8057    18263.016    1008715.8    825.75121    -6885.653    10.974003 
  251000    3150.1422    18268.381    1004563.1     833.5135   -6898.0289     10.97078 
  252000    3176.8358    18277.322    1005417.7     840.5765   -6894.7877    10.965413 
  253000    3082.8604    18225.349    1012570.7    815.71105   -6896.6174    10.996683 
  254000    3201.0145    18277.694    1002259.9    846.97409   -6910.5729     10.96519 
  255000    3085.9609     18279.91    1003786.3    816.53143   -6894.1089    10.963861 
  256000    3160.9525    18273.583    1001100.4    836.37385   -6919.4622    10.967657 
  257000    3053.2968    18266.031    1003855.2    807.88864     -6903.25    10.972191 
  258000    3135.6037    18324.904    988269.14    829.66668   -6935.2992     10.93694 
  259000    3101.6548    18326.591    991505.52    820.68395   -6915.5418    10.935934 
  260000    3063.6927     18301.04    992255.71    810.63937   -6931.2143    10.951202 
  261000    3055.6759      18330.1    988844.65    808.51815   -6922.8213     10.93384 
  262000    3066.7071     18368.92    977482.18    811.43696   -6939.3952    10.910733 
  263000    3073.6676    18353.869    977651.27    813.27866   -6954.4595     10.91968 
  264000    3094.1186    18322.394    993945.04     818.6899   -6902.5124    10.938439 
  265000    3038.4465    18279.733     994934.9    803.95932   -6935.2668    10.963967 
  266000    3156.0769    18306.271    994435.95    835.08379   -6919.9622    10.948073 
  267000    3193.1585    18295.855    996384.37    844.89541   -6923.0487    10.954306 
  268000    3084.6323    18252.656    1005174.8    816.17987    -6904.689    10.980231 
  269000      3142.67    18228.981    1015189.5     831.5364    -6886.603    10.994492 
  270000    3169.7572    18210.733    1025403.3    838.70355   -6853.5056    11.005509 
  271000    3004.0622    18240.906    1009410.9     794.8614   -6891.3778    10.987305 
  272000    3133.8607    18272.011      1003835     829.2055   -6905.7742      10.9686 
  273000    3086.9224    18249.077    1005781.7    816.78582   -6909.9068    10.982385 
  274000    3088.8474    18240.253    1011325.9    817.29518   -6885.9212    10.987697 
  275000    3096.6475    18248.997    1008371.5    819.35905   -6896.1495    10.982433 
  276000    3139.5533     18223.64    1013474.8    830.71173   -6898.5233    10.997714 
  277000    3055.0216    18208.028    1020156.2    808.34501   -6869.3204    11.007144 
  278000    3142.4158    18234.569    1011592.2    831.46914   -6897.9633    10.991123 
  279000     3088.298    18278.527    1003173.5    817.14981   -6902.0827     10.96469 
  280000    3093.7802    18276.839    1003522.1    818.60038    -6898.659    10.965703 
  281000    3175.3527    18275.268    1003327.2     840.1841   -6900.7173    10.966646 
  282000    3103.8796    18229.396    1013957.5    821.27263   -6888.4596    10.994242 
  283000    2984.1922    18230.379    1015764.6    789.60388   -6864.5704    10.993649 
  284000    3124.2042    18291.275    1000141.4    826.65042   -6905.1341    10.957049 
  285000    3018.3604     18290.47    993595.61    798.64464   -6925.2095    10.957531 
  286000    3146.8905    18303.447    994814.36    832.65311   -6922.0893    10.949762 
  287000    3054.3135    18361.063    986025.29    808.15765   -6904.8102    10.915402 
  288000    3026.9038    18301.317    993493.66    800.90518     -6920.37    10.951036 
  289000    3070.5555    18285.621    994200.77    812.45523   -6935.0937    10.960436 
  290000    3049.6189    18313.969    996102.27    806.91549   -6895.9325    10.943471 
  291000      3062.24    18312.897     990544.4    810.25498   -6925.8405    10.944112 
  292000    3063.1236    18324.273    993361.16    810.48876    -6902.316    10.937317 
  293000    3110.7379    18300.946    991783.31     823.0873   -6931.8347    10.951258 
  294000    3141.6602    18352.701    982563.26    831.26921   -6940.1911    10.920375 
  295000    3074.8448    18332.372    986845.74    813.59014   -6928.7871    10.932485 
  296000     2988.122    18263.267    1004253.3    790.64367    -6898.267    10.973852 
  297000    3205.8984    18293.785    998745.19    848.26633   -6919.8716    10.955545 
  298000    3119.2776    18249.179    1005389.3    825.34686   -6916.8444    10.982324 
  299000    3028.9659    18254.154    1010124.8    801.45081   -6878.1064     10.97933 
  300000    3120.0229     18235.24    1017785.7    825.54407   -6868.2883    10.990718 
Loop time of 120.709 on 8 procs for 50000 steps with 2048 atoms

Performance: 35.789 ns/day, 0.671 hours/ns, 414.219 timesteps/s
122.4% CPU use with 4 MPI tasks x 2 OpenMP threads

MPI task timing breakdown:
Section |  min time  |  avg time  |  max time  |%varavg| %total
---------------------------------------------------------------
Pair    | 75.266     | 75.536     | 75.839     |   2.4 | 62.58
Neigh   | 1.195      | 1.2041     | 1.217      |   0.7 |  1.00
Comm    | 7.6054     | 7.9492     | 8.2421     |   8.5 |  6.59
Output  | 0.0012099  | 0.0019523  | 0.0022009  |   1.0 |  0.00
Modify  | 35.742     | 35.817     | 35.872     |   0.8 | 29.67
Other   |            | 0.2003     |            |       |  0.17

Nlocal:        512.000 ave         520 max         508 min
Histogram: 2 0 1 0 0 0 0 0 0 1
Nghost:        3245.25 ave        3262 max        3226 min
Histogram: 1 0 1 0 0 0 0 0 0 2
Neighs:        52125.5 ave       53043 max       51316 min
Histogram: 1 0 0 0 2 0 0 0 0 1

Total # of neighbors = 208502
Ave neighs/atom = 101.80762
Neighbor list builds = 974
Dangerous builds = 0

unfix temp
unfix out_file_1


write_data after_${sim}_press_$P_$T.in
write_data after_cooling_press_$P_$T.in
write_data after_cooling_press_1000000_$T.in
write_data after_cooling_press_1000000_3100.in
System init for write_data ...
Last active /omp style is pair_style eam/alloy/omp
write_restart after_${sim}_press_$P_$T.lmp
write_restart after_cooling_press_$P_$T.lmp
write_restart after_cooling_press_1000000_$T.lmp
write_restart after_cooling_press_1000000_3100.lmp
System init for write_restart ...
Last active /omp style is pair_style eam/alloy/omp

next loopVar  #<----->
jump in.lmp ensemble
























Total wall time: 1:11:33
