LAMMPS data file via write_data, version 29 Oct 2020, timestep = 250000

2744 atoms
1 atom types

0.14428002283548658 24.663719977165275 xlo xhi
0.14428002283548658 24.663719977165275 ylo yhi
4.188141503941985 55.47775544879514 zlo zhi

Masses

1 58.933

Atoms # atomic

321 1 0.9848882541766429 2.198196106815464 6.434784348994209 1 1 0
1084 1 3.516533831815423 2.3368471383263945 7.8748814290352005 0 1 0
190 1 3.235148657148898 2.69520441268109 4.904711338773833 0 0 0
852 1 2.584642072197577 4.20012016715145 6.967011920810469 2 1 0
1504 1 10.156342969635924 9.146563559174679 5.303523247390711 -1 -1 -1
142 1 1.4944552912616529 2.9805791888991937 8.604720766285723 0 0 0
127 1 1.7551608108651795 0.8764676906490543 8.135180665169901 0 0 0
2162 1 5.022192830146764 3.722754463446937 5.9193958002823015 1 -1 2
372 1 5.151394290939803 1.3581546423660078 6.643111041775233 0 1 0
96 1 6.879794626478685 0.5402059076247301 5.029693677844588 0 0 0
2307 1 6.896450180561451 2.6591438829569722 5.854283236523448 -2 3 0
2312 1 3.100704120795403 0.8085352360545532 6.146900381415484 1 1 1
1797 1 24.553400119452718 22.9186578470677 4.401304145585028 1 0 1
2686 1 9.802769277082433 0.280934424496188 7.0041006378419315 0 1 0
708 1 11.610335961477604 0.8679791932918637 6.137772590493068 -1 1 0
2067 1 8.825668534666425 1.7622535220166515 5.578740656318587 1 0 -1
929 1 11.960231021207308 3.4029998541689612 7.0397821845893755 0 1 0
2692 1 9.319061622302158 2.6914299523292073 7.3662741700641625 -2 -1 1
250 1 10.870336118500482 14.079754339409213 4.229836937606689 0 0 0
244 1 14.006054493699379 4.367730968601867 7.569978250951046 -1 0 0
575 1 13.456786367811015 2.4287434803041283 5.997726200341528 -1 0 0
2263 1 13.088956065090743 15.206922334865661 4.5609704171880825 -1 0 0
132 1 15.70107611790506 1.1184959248299036 6.798945336584591 0 0 0
106 1 13.55116650234838 24.566510594881905 6.97855810229639 0 -1 0
2626 1 15.680518187586987 0.4054984791067756 4.313028408408522 2 1 1
1050 1 15.857780506811697 3.4240070652925314 6.2794344818302275 0 0 0
286 1 17.49039777494761 2.4173358111474745 7.453455973976428 0 0 0
1597 1 19.850033030407232 3.427192023404603 5.33716091757517 -2 2 2
42 1 18.060857563616942 1.445680848555773 5.297962044805461 -1 1 0
446 1 24.06159206817083 1.4887555297988726 8.027250186018343 1 0 0
946 1 20.20837894016961 1.5372294509198206 6.6492212503062245 0 1 0
2501 1 21.333831586350982 3.8979366501043606 7.46174086579212 -1 2 1
317 1 21.713712904083252 24.349421241878872 7.1006571215023495 0 0 0
802 1 22.38312588313726 2.1900812275266013 6.240092790439473 0 1 0
647 1 20.858002761527757 18.717620588166426 5.185782093331011 -1 0 1
1016 1 0.18803883928399756 4.819130927251321 6.429981801153952 0 1 0
2308 1 0.32431607781764915 4.888283716598575 8.647418729199156 2 1 0
78 1 2.0913185433556 6.2880718395546875 6.269997948329196 1 0 0
2523 1 4.11140101113833 5.965489962307024 7.245935929035483 0 2 1
2323 1 22.592832125596303 5.138193030537834 9.06397956017691 2 0 1
1695 1 0.29049483290472855 7.284383256791661 5.16957104332324 -2 0 1
2287 1 23.701136971139043 1.270122014229996 4.625686792748011 0 2 2
974 1 4.842305494057759 3.8078611147847448 8.173495010049512 1 2 0
122 1 3.9118623593419417 5.495274562290246 5.154597652131224 1 -1 0
868 1 6.126783464920628 6.618227437734418 7.951644661648228 0 1 0
1953 1 6.966239731941464 4.893624386047811 6.48646380516405 2 1 1
993 1 8.458339276738304 6.532202318343401 5.6706856341287795 0 1 0
2553 1 9.00882683827175 4.148300676538498 5.48617811871387 1 -2 2
2300 1 5.817985160147578 6.5805988890497344 5.624771203525126 0 -2 2
572 1 12.336142378032214 5.616188440150902 5.945938453032082 0 0 0
97 1 10.606208280384239 5.572102836250091 4.397735475429742 0 0 0
1756 1 12.208119931882276 6.797455650759929 7.876633464525424 0 1 0
2577 1 10.495926209644773 6.984765601572503 6.426997067852884 1 1 4
1230 1 10.207139428556548 4.836787690182707 7.5112570684562305 0 1 0
397 1 8.735991208722503 6.867155756543514 7.7797101971702896 0 0 0
1128 1 13.890830300309608 4.2809341694804575 5.101200792001222 0 1 0
1742 1 12.001191062957256 23.103024680451448 5.274575871575976 -1 1 1
1004 1 15.10114325604886 19.92336985480013 4.6158975895431436 -1 0 0
1014 1 14.305303441218587 6.579360521488457 8.952601841635513 0 1 0
787 1 16.678516040809825 6.653691873965446 5.8174422932423 -1 0 0
2709 1 14.78428964670519 6.432657738928413 6.306291993156943 0 0 2
936 1 16.255848770360153 5.188552501841705 7.664294200365727 0 0 0
148 1 17.017806634540143 9.52848534610248 5.622026213218014 0 0 0
1075 1 18.374717988778947 6.815434590214519 9.420322246400099 0 0 0
326 1 19.81423787226671 5.773793729919873 5.58210463404837 -1 0 0
1760 1 18.551461357407156 6.563506407301432 7.462478938495673 0 -1 1
1001 1 18.73152052445714 4.250918070390901 7.136318250546936 0 0 0
2153 1 23.498405309153448 3.6171274578000414 7.814768617908942 -2 -2 -1
2058 1 22.88043754765971 6.088322537326469 6.852752434902637 1 1 2
2089 1 22.361456603066806 4.536512199977295 5.347425475847329 1 0 1
1870 1 20.504739075644643 8.119330828477358 9.129635454519047 2 0 2
32 1 20.75952587709623 5.976725975428205 7.806757542514987 -1 1 0
1777 1 5.04765288170508 11.9983584201263 4.561532446114358 0 1 2
769 1 23.789844771429046 10.730017845882962 4.547593417593399 -1 0 0
2737 1 3.6831899900288136 10.308641962947998 6.790303774713902 1 0 1
1164 1 1.129708280394036 9.00705142897149 7.156172667753676 0 1 0
770 1 1.1917055390543803 10.349002341507932 5.136650582804743 1 1 0
1169 1 0.5709737549699979 6.995172642027076 7.750100297854819 1 1 0
1145 1 1.2643919704862672 7.264700005570314 16.30445414524396 0 1 0
2542 1 3.8229993579658395 7.9244187006460525 5.915634327414523 2 1 0
1641 1 5.577374330754681 9.897246717933465 5.122505877720793 -1 1 2
20 1 5.643198700670482 9.009215055484564 7.275134400120011 1 0 0
791 1 8.156373831950832 10.237216579478405 5.533531823419141 0 0 0
119 1 5.3678531122033375 12.30960213239112 6.991701585464738 0 0 0
917 1 8.923854532205011 8.798850491620824 7.194673626317425 1 1 0
2363 1 9.129300942443507 13.849415401406795 5.995251261569019 -1 2 1
214 1 7.217902192543166 10.682389961574415 7.586500851032296 0 0 0
2506 1 13.117382480587592 9.576529626200166 8.095393171860916 0 0 3
2616 1 10.734079220885484 9.934956427272613 7.598606741409128 1 2 3
1543 1 12.780821653216591 11.118210525049754 6.544743544152592 0 0 0
2721 1 9.021378598227448 11.7450185668646 7.1971499755169335 0 2 2
382 1 10.1916055846833 11.497833780717706 5.1674733814876515 0 0 0
1065 1 10.967286593273146 11.616071806107634 9.087892730125166 0 1 0
856 1 12.530121491198475 8.83786443504956 6.187290288920338 -1 0 0
1721 1 14.815924582312258 10.582219122154841 4.733042522784443 -1 -2 -1
968 1 14.986692456243581 8.978783476897213 6.206763204754391 0 1 0
1922 1 12.184648969849183 10.617471173591676 4.4233886546214976 1 1 1
765 1 15.014283623868856 11.828621624223976 6.772222442325697 0 1 0
406 1 16.53174183308675 7.846280965032964 7.938225908966231 0 0 0
1091 1 19.25424519861003 10.459631425843675 5.353819246443824 0 1 0
1588 1 18.780455365458614 9.046740572578063 7.538352294781678 -2 2 1
1038 1 16.827584345500746 11.829808053945387 5.205768830049914 0 1 0
417 1 21.658678976720033 10.991078516750623 4.7174661570208745 0 0 0
2170 1 16.350398521901944 10.567083843679015 7.757240237750218 -1 0 1
1754 1 17.433221249314492 3.768959111422966 4.789823149631278 1 0 2
2677 1 23.145576295073475 8.698076899523867 6.2735544516224415 0 -1 2
94 1 18.969672477115516 7.976381643059659 5.183353435227337 0 -1 0
86 1 20.915625534303963 7.786911350854261 6.931665251492142 -1 1 0
834 1 24.271119598486358 10.918791617573929 6.65842300728714 -1 1 0
158 1 20.99580292868376 10.151945416587086 7.065889482610153 -1 1 0
1450 1 22.61219217504994 12.879230213343355 5.79384320966309 1 2 0
210 1 2.1565615919635293 12.354418489067204 6.642800476422679 0 0 0
958 1 1.6398231441707196 14.433336352560469 5.931297030896418 -1 1 0
1655 1 3.460259003065414 16.09488210481461 5.624788099101239 -1 -1 1
2519 1 3.9940947162263445 13.914309827012945 5.965836813667724 2 -1 -1
1553 1 5.460756927344707 14.39764538432576 8.368673497598603 1 -1 -1
2314 1 3.067340796460617 14.666582706595221 7.754785289321584 -1 -1 -1
976 1 21.778830255084586 12.41734956440071 16.1127828422125 0 0 0
2532 1 3.914785870396127 12.887564515035134 8.693478785381163 0 -1 -1
76 1 6.220819422389381 14.823420534037297 6.122721086489912 0 -1 0
434 1 2.9718132823343058 11.95947091980208 4.411531416937099 1 0 1
2203 1 7.568042394304061 13.903739111895273 7.745788583044668 1 1 1
518 1 7.282501780594305 16.927182195289582 5.606710756272699 1 0 0
369 1 6.692077684661275 16.788080961715472 7.909885448800679 0 -1 0
980 1 7.290311197913157 12.47303788842158 5.925218962411376 1 0 0
1524 1 12.21441598270496 17.504260938672907 4.605706871813725 0 -2 0
961 1 8.647194248031173 15.858348798123467 7.004271339974057 0 0 0
865 1 9.906663220945616 14.053198865922704 8.105884132288601 -1 0 0
266 1 11.456418303022536 15.682030802323844 8.352101959185624 0 0 0
726 1 11.792298388333002 14.97672941321228 6.106425558020735 1 1 0
746 1 11.274926107613046 12.8440318166614 6.777786090327217 0 0 0
1658 1 15.193537601038127 13.92295578289893 5.219496193722247 3 1 0
2509 1 13.08765772969381 13.022969256344139 4.866158045795392 2 -1 2
339 1 13.907487902965089 13.995542301670374 7.534383835192163 -1 -1 0
1153 1 15.869072022586622 16.42288387282231 5.309490594065066 -1 1 0
1671 1 15.82086275834014 15.304802447568656 7.346125418979211 -1 -1 0
333 1 18.47990080837208 11.269815693569413 7.4239379515096005 0 0 0
2221 1 17.317633003919262 14.468954550055576 4.362884650533259 1 0 0
511 1 16.822865860924637 13.079277266172982 6.988683173683387 0 0 0
1786 1 18.812788974295778 13.271737130611005 5.715631203901253 -2 -1 1
739 1 18.329852237173696 15.67957121797318 6.166512435770489 -1 1 0
803 1 20.71946453787988 14.93746892405443 6.438870990950617 -1 0 0
254 1 19.378112012927488 11.981632528489806 16.531098111484003 0 0 0
1378 1 20.696281122870893 15.178856618906634 8.855526529826932 -1 0 1
1138 1 0.39833582374615695 12.525394334635818 4.855795850897113 1 0 0
39 1 24.53055557233148 12.808478063579999 7.382764890086598 -1 0 0
25 1 17.002098393322072 9.107236678672832 16.329750471637986 0 0 -1
1577 1 23.955358813043617 14.799178658626843 5.338202359220031 -1 0 2
1909 1 22.535404632274236 15.99862955253033 6.667712898767381 -2 0 0
1501 1 22.395972468571998 13.862969007664287 7.770285683284106 0 -1 1
1920 1 4.277502532521446 19.399277417683592 5.677850660768609 0 2 2
338 1 0.5617179078000409 17.130667413783762 5.828176897372433 1 0 0
1102 1 2.368848033031025 18.411863198608778 6.0456822828905885 0 0 0
2705 1 0.31342348195902076 18.6389299021071 7.448651581073097 1 1 -1
1564 1 6.910548517095215 1.075722128287195 16.856905066130096 3 1 1
171 1 6.7294514790041 19.012951944408982 6.804268541600051 0 0 0
460 1 2.6540108919110272 20.660673891609576 6.31177625429948 1 0 0
610 1 5.472687451643359 18.946438902430238 8.524083151199896 1 0 0
1401 1 9.037175237552868 18.39582127781631 6.541163242969514 1 -2 0
1552 1 8.433766267471308 20.300660106431863 5.679235637306418 2 0 -1
798 1 9.213373981530923 15.984662140862909 9.24887778879937 1 0 0
1551 1 7.880065472417798 18.645491072805953 8.714909506508304 1 0 0
1491 1 14.458694995716636 7.906848465191548 4.379390782666713 -1 0 1
889 1 6.624749806238355 19.136581142346657 4.573734130088435 0 0 0
1650 1 13.076464442449247 19.242667418120185 5.675472573064335 2 -1 1
513 1 9.872455122748867 16.424967923175856 5.34295334171151 1 -1 1
2031 1 11.563397062514605 17.34573317420842 6.392566854097919 2 2 3
241 1 10.70289656800334 19.540175277949515 5.088281332776038 1 0 0
600 1 11.73885396636961 19.7076929913952 7.552457781477875 1 -2 0
454 1 15.366233647426206 17.453158719225307 8.161679693996426 0 0 0
962 1 14.265323588446336 18.459995086100093 10.070258089824854 0 0 0
577 1 10.542922220211281 12.6280147496802 16.402387501406217 0 0 0
1720 1 15.583667772576538 18.50033736263171 6.210620113945983 -1 -1 1
386 1 13.752937935107516 16.480265930822917 6.5117861346217065 -1 0 0
263 1 13.063935275248914 21.346035737566737 7.179247414314164 0 -1 0
11 1 14.045331515336876 19.209569484932672 7.863307605750643 0 0 0
2538 1 17.376126179528548 19.794082505470428 6.621837219090735 1 0 -2
928 1 17.553132054786253 17.527207854612953 6.758697718881603 -1 1 0
2701 1 12.600111893319056 23.806828560868325 15.619401971118453 0 0 2
294 1 18.652585728883594 17.36226393092597 4.811190985207082 0 -1 0
1103 1 20.277178021018315 17.04301589660446 6.882313820318222 0 0 0
215 1 21.04931750316272 20.612340549387902 8.681699775390879 0 0 0
842 1 19.774920831871903 19.12285664087215 7.27336797285668 0 0 0
1100 1 3.064692418154236 16.08105556667429 16.703223378773817 0 0 0
1200 1 21.775006316854572 6.77155152895625 4.921311834587103 -1 1 0
2244 1 20.554929400217432 16.582559283565814 4.693314148791281 1 1 1
2246 1 24.200778395825843 16.963907327898127 9.116063564915894 0 1 2
1025 1 23.178272690390905 20.040302154652515 8.157725966135471 0 1 0
308 1 23.380303644046542 18.617069608882673 5.886401537758804 0 0 0
2558 1 21.679254515300677 20.71206689220577 5.839394880370863 1 -1 0
364 1 1.3033992248482889 20.68786619308522 8.00710753190803 0 0 0
924 1 11.853342093469577 7.421359768686436 4.53933378011512 0 1 0
2028 1 24.33322468786978 21.817646066535943 6.289451454588765 1 1 1
1681 1 3.8994898817934733 22.66656267803048 6.049219196078216 -2 -1 2
2657 1 0.6964403630143929 19.86023485720007 5.488642572714918 4 0 -1
1328 1 24.04775935278205 24.323573157359938 6.2789871350748125 -1 0 0
1804 1 1.7625613086424166 23.160583963553442 6.5102227109730055 1 0 2
303 1 7.436936478942039 0.5930620627276876 7.370557821292479 1 0 0
1730 1 6.48679073477115 21.46266507642678 4.931975168316916 -1 -2 1
2428 1 5.185913821018876 21.107892765038585 7.145941797707472 0 1 1
992 1 4.00200133411033 24.073672702271217 8.06132273294682 0 0 0
312 1 8.09635650912134 23.218110656238593 5.731000677382123 0 -1 0
1255 1 5.952847842579832 23.313421236114912 7.0073344886541085 0 1 0
2617 1 7.567697732784558 21.22200004548113 7.156703018403198 1 2 2
1096 1 5.057317981190491 24.20079213816996 4.703230912309472 0 0 0
1474 1 10.078628004014542 23.927782582603392 4.856833543975849 0 -1 0
805 1 8.855884570259061 22.830674745744517 8.104694319336868 0 0 0
1639 1 9.966069314776528 21.876842997912547 6.1165162134995725 -1 -2 0
660 1 9.632998453187998 20.31790534452678 7.762278919500547 1 -1 1
2562 1 10.24825002639834 14.999476475925457 16.607360709483345 3 0 0
1131 1 19.206417441621724 22.45991552060609 16.533459298158633 0 1 0
797 1 13.244696842118211 21.457847902020077 4.755166068735349 1 0 0
2537 1 15.625591633027282 21.37471895041761 6.264192839724961 0 -2 5
2615 1 14.678297182400959 23.302144493316497 5.802336666783427 1 0 0
2164 1 11.451779189669004 23.368994195867693 7.45957951080111 0 -1 0
1562 1 15.410245417238501 23.172013443692713 7.934554244760101 1 -1 1
472 1 17.981472721368725 21.906397000380238 5.298616698050746 0 0 0
2531 1 17.172728986404998 22.06673220905659 7.79313772456762 1 -1 1
1238 1 16.848826244050052 23.871308273562427 5.965345482366059 0 0 0
260 1 19.082991090811127 23.947133997333218 5.797936177734573 0 0 0
1840 1 18.924770585901946 21.022500992932976 8.57975272565329 0 0 0
1299 1 18.66831600448876 0.1748342159874298 8.031336071900467 -1 0 0
1047 1 22.125719938972424 22.747335028516545 4.916639099798861 1 -1 0
2740 1 19.739339651860078 21.187597982703508 6.3539917992748 1 -1 2
2483 1 21.446082364544694 0.475848051221649 4.986461173096084 1 2 0
2130 1 20.025410830029188 23.212247514055186 7.7652762788144525 -1 2 -1
93 1 20.90605819364491 8.948044656774503 4.804346867419116 -1 0 0
1867 1 22.450913508898886 22.1904904163245 7.6001876373729385 2 0 1
995 1 1.2439253581291796 4.322169003187944 10.644149099358078 0 1 0
2579 1 0.6207637512457912 5.7145026266056425 12.384001752576232 0 1 0
1762 1 3.4971311051292644 3.660591816650283 9.870530707485951 -1 0 2
2442 1 3.42239198747702 0.8314763398431477 9.72074039240422 1 1 2
927 1 2.519239859608528 2.30539641400795 11.250232092016446 0 1 0
63 1 5.930786951124237 23.87335951641485 9.183060476995035 0 -1 0
1659 1 5.052321007184264 2.1442020545769775 10.3863995917625 0 1 0
2152 1 6.075235708966132 4.17989132428136 10.144000478090156 -1 0 0
144 1 6.795578492986795 2.3659182645687724 8.546101719517011 0 0 0
146 1 6.4621931846217615 0.6177022688973293 11.133550089960366 1 0 0
740 1 7.853032768084031 2.7902692440985324 10.739397151623924 0 1 0
1448 1 8.054296775480934 4.480621344246278 8.245174666487923 2 0 2
178 1 5.701376729592929 3.91182496498823 12.31784143979897 1 0 0
124 1 4.240920109075029 0.44273172520134707 11.702591384049418 0 1 0
1026 1 10.305206096928769 3.4393186665149074 11.91633058720616 1 0 0
1974 1 8.231755982982026 0.5243971763325694 9.414719914900907 2 0 0
536 1 10.21795625004848 2.895788571050181 9.32749334831557 1 0 0
957 1 9.773038194055232 1.464666439210843 10.893919690076267 0 1 0
2267 1 11.611350894634297 1.2945278445619075 8.29637934824256 -1 1 -1
2156 1 8.344723785884874 0.9128861949846501 12.159111837672247 1 2 1
375 1 12.311471830807045 2.0954786982999414 12.240296271446665 -1 0 0
366 1 12.59636988367943 3.1058604487294943 10.070217781593982 0 0 0
977 1 13.547587646526415 1.9165155959666413 8.235906629917908 0 1 0
991 1 16.346707841179978 2.6152932580299533 11.075305360193745 0 0 0
918 1 16.447503094948217 0.21838330977967033 11.642854106027638 0 1 0
1666 1 12.493544474343366 4.754435746997226 11.528082404960054 -2 2 0
420 1 12.41986288307793 0.5797078648540188 10.501847206065802 1 0 0
1449 1 14.721134532575144 0.6128787588660496 9.573640342762614 1 1 -1
2414 1 14.195257972430026 1.2885554626933062 11.760552623806571 1 3 2
487 1 16.071520444544653 3.348673059423352 8.891512064572513 0 1 0
121 1 19.636331431603722 4.469458656168301 9.290026591313817 1 1 0
1642 1 17.240800869479145 3.7453720198476637 12.778009665440992 4 0 2
841 1 18.61922938942908 3.226288700009267 10.767198060218988 0 0 0
24 1 20.376079636639936 3.913645752544787 11.786371407632643 0 0 0
2088 1 20.21351249864511 1.8549800747868015 11.741382954160411 -4 -1 2
594 1 16.678117103812227 0.2957027983429883 9.052182741673647 0 1 0
334 1 19.526348097725908 2.095184147607122 9.030779647094349 0 0 0
428 1 0.39636729693139994 2.645070618780878 12.069946530448696 -1 0 0
788 1 22.09496065851514 1.4012966867590138 8.620006011065001 -1 1 0
411 1 22.606592629206318 1.1446148564952592 10.922183924251332 -1 0 0
1132 1 22.665287584486634 3.1544626948865337 12.074486929364028 0 1 0
1676 1 2.189252629001225 5.922893152381316 8.836267737195936 -1 1 -1
64 1 3.572349064845075 4.683390574929886 11.820333096241963 0 1 0
2294 1 2.3254296299588724 6.482670534894556 11.007237107987748 0 0 1
870 1 1.90122649342061 8.348012020343637 9.618176121305499 0 1 0
931 1 24.56719708682585 7.794959944481426 12.516045373962404 -1 1 0
1913 1 24.34047008916746 6.638141354978458 10.300531233386163 0 0 1
1966 1 4.576862201666402 5.989251916049771 9.578216454600463 -1 -1 -2
435 1 7.029394770688458 8.344399147779999 11.383922454748706 -1 0 0
299 1 5.733351822511514 6.254942325057878 11.727420953484796 1 -1 0
1052 1 8.059008867125298 5.048494535289023 11.703994945573573 -1 1 0
441 1 7.298306581991424 6.021966363680397 9.921777096447684 1 0 0
2309 1 8.419994135503297 7.217668789240371 12.833111499199726 2 1 -1
2198 1 11.48726378307078 6.39967333680049 10.398760447552384 1 -1 1
1905 1 9.709733434808115 5.011164693781153 10.02867252012863 -1 1 1
2469 1 11.148087304073247 8.242087424863662 8.950276246670317 0 2 3
994 1 10.386135416018867 5.653377441839262 12.60960331278919 0 0 0
348 1 10.857375726178226 8.17117344022345 12.24010241842953 0 0 0
2038 1 13.155857251957555 9.084140375235462 12.769842786545153 0 1 1
688 1 14.571341892216324 4.296813681846355 10.21153597740232 -1 0 0
237 1 11.873504282657807 4.77952654291587 8.828494431080006 0 0 0
2561 1 16.197451084777455 6.977687574176468 10.373554145428809 -1 0 3
509 1 14.046383100765125 6.313065869724573 11.280107806766129 0 0 0
2222 1 14.358021799301234 3.5016906170530486 12.291144113490093 0 -1 1
2527 1 15.352411654182204 9.230329335746298 11.33629958824605 -1 1 0
900 1 17.166373928974387 7.8937269501164256 12.16531479995463 -1 1 0
825 1 20.696464528085805 6.203482458844912 10.323700773818643 0 1 0
2549 1 17.27358570916592 4.736557758608539 9.960621392928019 -2 0 3
1334 1 18.718186096136144 5.834587819757672 11.486451232154202 0 1 0
2189 1 19.12991563489868 7.739071260760985 13.844424784181774 1 1 0
1737 1 15.85565266843885 5.25183944047112 11.987072973930008 1 2 0
1150 1 23.83013307372712 3.1285336036690294 10.29629677714636 -1 1 0
2365 1 22.511531039245163 7.2050065943153125 8.487891537509746 -1 1 2
996 1 21.506001437610628 3.215082918518294 9.958972495803788 0 1 0
1107 1 22.58597509116919 5.506511541246538 11.484198451348309 0 1 0
3 1 20.86523914248221 6.3441191671725985 13.046976786414755 -1 0 0
2344 1 21.80456937123339 9.347393269146757 13.152996590811386 -2 0 0
55 1 19.502300176624047 8.117822098732784 11.591344811579747 0 1 0
908 1 22.256354695117146 7.8341008247537465 10.882808044810801 0 0 0
1780 1 3.5321571767079876 7.977575019447237 8.135753015910264 1 -2 0
2685 1 3.6483522583671366 8.180338297776968 11.81251626026128 1 1 1
2525 1 2.5611703652956033 11.878019359188244 10.66152022845946 2 0 2
1157 1 3.203062276842078 9.912748925566826 10.23245570061249 1 0 0
2018 1 24.61816065626426 11.439872351041938 9.495996800261905 -2 -1 2
90 1 2.0819526238942845 11.067369424873176 8.340712426447304 1 -1 0
1246 1 24.270702134090428 9.085097612111637 9.253152298596039 0 1 0
231 1 4.6905278222318305 10.639151403752766 8.866381424231097 1 -1 0
2560 1 1.0642448714568915 9.768223986497489 11.540106609016277 0 0 1
684 1 5.118226456290243 8.162030885832142 9.628165150696045 1 1 0
8 1 5.18707198965244 9.88338995586663 11.297356173779622 0 0 0
2552 1 7.31354252357006 8.37032724234932 8.835238697426032 1 2 2
1810 1 6.916729955190675 10.739788409856084 12.827924895867238 -1 -2 1
301 1 7.039962167482041 10.438521667786038 10.139339642853031 1 -1 0
1631 1 9.109332943204397 7.984719183778581 10.533971342783005 0 0 2
1376 1 9.180848448435802 9.984486092411649 9.152135313876862 0 0 0
1228 1 11.390630041623186 9.822387158499033 10.51626165021789 0 1 0
2311 1 9.801001897472736 11.137133582060217 10.964393508517382 2 3 0
951 1 11.482861720483115 10.556023636534114 13.213210258737188 0 1 0
848 1 9.190533296611198 10.185915714232443 13.014545079656296 1 0 0
147 1 15.79189542042798 11.17146189577098 10.607113431593 0 0 0
1717 1 13.400711816463621 8.258184761399901 10.380870532814775 1 0 1
737 1 13.651081670171118 11.678722169387937 9.105408597948031 0 1 0
79 1 15.182794042920596 9.377217733250847 9.170509456749585 -1 0 0
2487 1 12.152941959787062 12.15178320187507 11.387797259444408 0 0 0
287 1 13.602498699078046 10.513751359089138 10.813591360219156 1 0 0
2682 1 16.93685335880729 10.354193234401912 12.733888692684742 0 -1 2
1586 1 17.8953711031726 8.98370909524592 9.989267034837276 0 -1 2
1348 1 18.668794902956023 10.687585940120863 11.377729088983477 -1 1 0
247 1 21.008620037208573 10.00432905492002 10.946025468109763 1 0 0
43 1 19.944305478348035 10.543641165035124 9.154595576333776 0 0 0
2188 1 16.04188003909274 12.565850045989782 13.837740864773892 0 0 0
2572 1 17.639793360075814 12.178202646194835 9.668850479750297 -1 2 2
154 1 19.78374367818752 10.098893503374658 13.153872518251472 -1 0 0
998 1 20.653422459291647 12.25005379283738 6.815221031294042 0 0 0
804 1 22.28685336008796 9.628359966996769 8.690088255586641 -1 0 0
1060 1 23.412698846681955 10.01579986945663 11.065722313757991 -1 1 0
157 1 23.195271766722115 13.364307987003464 11.78146495606977 -1 0 0
1377 1 1.165536725806759 13.751459805758731 8.961300869848834 1 0 0
1691 1 3.660631182773425 16.738269226357076 11.248513542468388 0 0 -1
1975 1 24.119362652753416 15.64125215711112 11.725705625895124 -1 -1 2
393 1 3.481450202921173 14.27006010836209 10.19443585967009 0 1 0
520 1 1.5663418304671377 16.07579343107294 9.935871676005906 0 0 0
1208 1 5.036087021637535 17.452175587670276 6.2216982647511205 0 1 0
2704 1 6.171502243658325 12.418303886068669 9.18280093372093 -1 0 2
853 1 7.29232836475322 14.499007608631151 9.792445968816297 0 1 0
336 1 5.153232379962713 15.772543361728031 10.25283015639092 1 0 0
967 1 5.882090986702846 16.503126173726635 12.467661096583663 0 0 0
291 1 4.89936183445205 12.245033889093458 11.246943657817408 1 0 0
373 1 7.942489644485118 12.412043135218061 11.354106822867346 0 0 0
66 1 7.350352762630803 16.69888683149385 10.081401810865607 -1 -1 0
1122 1 6.176629825302802 13.967389686531364 12.10227517475839 0 1 0
1775 1 8.38548150422419 12.421465175095618 9.311999099634662 -2 1 1
988 1 10.030142245703788 13.360814713881542 10.620460886009916 -1 0 0
271 1 9.76058130319527 17.618032640261205 10.650488411621385 -1 0 0
436 1 11.444697847208971 15.370959666696013 10.680965684059931 0 0 0
458 1 15.492487935076646 13.150080258387952 8.959264057259382 0 0 0
535 1 15.939818305167604 13.36845029317033 11.247333251415103 -1 0 0
1755 1 11.899444042260924 13.614330606899737 9.063720628525868 -1 1 1
1547 1 13.803439104830831 13.735730598825509 10.4209381105449 -1 -3 0
1394 1 13.78801993411276 15.893561807424433 9.258613988508046 0 1 2
1077 1 16.976896337155715 14.946441175714954 9.294492472437039 0 0 0
1126 1 13.667829840533926 12.068071234800763 13.016706561985055 0 1 0
2096 1 13.353597910516694 16.26930902262037 11.996075125204799 0 -2 0
23 1 18.224370339834323 14.111588459368182 10.912568562704148 0 0 0
2211 1 17.793271127509712 16.656359436153338 8.764452364244256 -1 -1 0
1688 1 18.70548175960883 14.288626932698271 7.804392486318703 -2 0 0
2725 1 20.1607508579429 12.878641286493572 8.756546072776299 -1 2 1
166 1 17.985702895952805 12.336916742294328 12.623208495756938 -1 0 0
775 1 0.23817120989787838 15.160260207311472 7.512772804062397 1 1 0
2288 1 22.45545734625496 11.83567972401492 10.264856161678551 -2 1 1
1094 1 22.560690112314987 11.714299684645113 7.8789368793185925 -1 1 0
126 1 20.43672369313515 17.611981168084057 9.72014263345434 0 0 0
2073 1 23.679691803404943 14.632488413131803 9.518677422454973 -3 -1 0
1790 1 21.326266993838964 13.867991044844953 10.506652798449583 0 -1 2
98 1 1.8741212961489742 16.648991166074993 7.592805165831582 0 -1 0
1232 1 22.171793399597057 16.147916775100967 10.258844249223007 0 0 0
777 1 3.1180464129544885 19.41126912818391 8.047771016932487 1 1 0
1098 1 2.799868197055421 21.87594124428926 12.193577577817006 1 1 0
409 1 0.3780422549029012 19.595059677077998 9.719748586787635 0 -1 0
68 1 4.241183338706087 16.978694164914565 8.364457178565566 0 0 0
480 1 5.813993366129806 18.8098003253293 12.250411811179811 0 0 0
359 1 6.16309738153836 20.399418504812772 10.39751874836579 -1 0 0
1286 1 5.78998570040926 17.886899216267544 10.30035167208034 0 1 0
123 1 4.51655846157499 20.832171419688216 12.255909583539427 1 0 0
2743 1 7.987737955365228 19.23281186198745 10.986426918037107 0 0 2
675 1 2.083585305417153 18.317635700441677 9.724525827552238 0 0 0
1896 1 8.1875296347819 19.11878905945641 13.413130895202563 1 -2 1
1018 1 12.480825111287661 17.754554633367498 8.333721854414812 -1 0 0
1002 1 10.405746932711473 19.63359434454805 9.851194730849485 -1 0 0
296 1 10.199032458205487 17.79433669850458 8.378686203144035 -1 -1 0
2551 1 12.929799444974476 20.55282511812463 9.94043433597822 0 -1 1
1160 1 12.310430513488358 17.62582716914322 10.641837191848392 0 0 0
193 1 15.414967785088662 15.545865752734638 10.747449786296787 0 -1 0
2180 1 15.358819578130685 19.13434566622152 11.853685823515487 -1 -1 -2
130 1 16.49013553909075 18.164151095912068 9.967287884104557 0 0 0
1342 1 17.219742422682636 18.187710400635225 13.52016879858764 0 0 0
1258 1 12.467618937119322 20.008855675698776 12.36466496001519 0 0 0
2128 1 17.49266646847643 16.20901036836134 11.485649899422178 1 1 0
246 1 16.3562901901861 19.730642903114763 8.562978468357365 0 0 0
427 1 18.71074198484518 18.59530909907611 9.075794443043765 0 -1 0
103 1 19.783425981990774 15.939219983111343 11.055955221127526 0 0 0
2273 1 18.635544368880936 18.11150751295328 11.406682402039994 0 -1 0
362 1 19.82710983690984 19.924656894303112 10.419983564156503 0 -1 0
227 1 17.412808042022824 20.38692682392037 10.921032533247551 0 0 0
2030 1 21.236767016086553 19.411294346130298 12.075254054714154 -1 2 2
1166 1 22.40948022543236 18.904620205524687 10.056381560589038 0 0 0
2002 1 23.4466560529633 19.4398176783737 12.617707588434818 -1 0 2
1512 1 22.02296237653548 18.013128839257213 7.855924278403583 -2 -1 1
1078 1 22.31298036936957 17.278594228489105 12.151863760659598 0 1 0
1807 1 21.580312733551906 15.138559512082823 12.397186128619786 -2 0 1
1233 1 2.202422965572267 20.878024526234114 10.273805489449728 1 1 0
1260 1 0.7737013147195771 23.483554317568732 8.414701484273934 0 0 0
933 1 0.39997332852417156 0.9529131543314107 10.195263595409159 0 1 0
1023 1 4.366719283268661 20.92647368001345 9.258956892187918 0 1 0
855 1 1.604041896733361 23.627697113302688 10.808335638308607 -1 0 0
531 1 2.7973088340358547 22.36797017800061 8.69861752501076 0 0 0
285 1 3.8706208077896322 22.983898446661783 10.662207853741283 0 0 0
292 1 24.486499560301176 21.97696640182526 9.725445881577535 0 0 0
1099 1 8.157990351972572 23.34734433449644 10.736241554631038 0 0 0
1698 1 7.403399214797929 21.472336265643825 12.15145176299276 1 -2 -1
283 1 5.814864543193769 22.411108769629877 11.043410926250225 0 0 0
101 1 4.2801652622471 23.758063812510578 13.441154768999896 -1 -1 0
5 1 6.309531297737186 23.600583337803826 13.029955650747782 0 -1 0
135 1 6.640993556189419 22.042830084228683 8.958297464875564 0 -1 0
2191 1 8.55621921900113 20.838174561609613 9.931718581477245 -1 0 1
874 1 11.059116228701434 21.796058042313042 9.123164850795423 -1 0 0
320 1 10.361337113939655 24.388517263261967 9.665025304202043 0 -1 0