LAMMPS data file via write_data, version 29 Oct 2020, timestep = 300000

2048 atoms
1 atom types

-0.4892985082681953 28.841298508268608 xlo xhi
-0.4892985082681953 28.841298508268608 ylo yhi
-0.4892985082681953 28.841298508268608 zlo zhi

Masses

1 58.933

Atoms # atomic

1071 1 11.478896838776143 -0.21208594414476356 4.021912651294192 1 0 2
1802 1 1.6819325064707407 1.0429275913352671 3.998458451522265 0 1 2
2002 1 3.1948858320181177 1.7707624145205196 1.6520678827059645 2 2 -1
1201 1 -0.4479073300058176 5.024765800973268 1.247309699366221 1 1 -1
523 1 1.8395277795834253 4.0035368078070945 0.9097990340293101 -1 -2 2
1353 1 1.28474835352862 1.2969890138653786 0.2578177349732007 0 0 1
906 1 26.998127946820134 6.899706674805065 0.8876928168153015 0 -1 -1
132 1 27.552854131134673 13.556305971850328 13.665839029854894 0 -2 -1
712 1 5.167757407867172 -0.16877649409019935 5.572786963122966 1 0 0
449 1 3.981455118740845 1.9702748649328914 4.357005561778934 -2 2 0
1680 1 21.356746117981697 13.7326394449325 2.4898740127622574 0 1 0
989 1 7.533455345994996 2.2990833005412212 2.357956544365499 2 -1 3
240 1 7.2576517812744115 0.39745186577268077 0.28421600569944017 -1 1 1
946 1 19.30770394994333 0.925573442101506 -0.2526859247256167 -1 2 1
513 1 5.405940681447354 1.8020539975296854 1.0013453816966555 0 0 2
34 1 7.065296106163062 2.732850467495543 7.6034902731855105 2 1 0
1365 1 22.582675782630414 5.4725669656692135 0.3734358570517916 -2 3 0
1196 1 26.711040773008044 -0.15853237716213608 10.86538592722386 -2 0 1
1228 1 14.229081519725684 7.823986467061209 0.037210715620992985 -1 2 0
1656 1 9.051175100862503 0.4979450026305423 1.7991361086978541 1 1 0
1162 1 6.29649327368448 3.746142333960722 12.731483747685 0 2 0
443 1 16.714196836603502 6.7411174107240495 13.612404682727856 2 -1 -1
1748 1 11.884323406884885 0.8294076881200221 1.9692721699675229 -1 1 2
434 1 10.561621819626433 3.629643181512618 1.2527596394646152 0 2 -1
617 1 8.755180565587409 2.3410766333802835 0.13796339497680365 1 -1 -1
1619 1 18.60003963527305 8.058806608244454 -0.05059608036652441 1 0 1
1849 1 15.211765901049409 3.760295602959843 0.5112834968333679 1 0 -2
256 1 15.235215993340578 0.06917291409160775 2.291116148043513 1 1 0
1650 1 15.335363963869654 1.5110527608145792 4.7264052590947685 -2 1 0
566 1 20.010007767762144 13.90136895949951 0.5403722442605081 -1 0 -2
1290 1 11.28499335429575 2.3216763702910126 3.7014862312108994 -1 -1 2
334 1 14.198160958949897 1.8263431313572567 2.677931516477266 2 -2 2
1357 1 12.930428274046065 4.114784047444077 2.048254048661807 -1 0 -1
425 1 8.5849181202592 11.5273611419023 1.4311784553229454 1 1 2
436 1 -0.17811488166354345 0.08594964263904936 4.546896808416356 -1 -1 -1
1947 1 16.384869112995954 2.198529944659554 2.6569895573650717 0 0 1
2026 1 19.60478232336515 13.2618932040105 9.005408102051117 0 0 0
1101 1 17.639295394680865 2.98487676903456 4.949017689314215 -1 -2 -2
970 1 20.866889081903434 1.7383422911533075 3.3683274806251826 -2 -1 1
144 1 20.164131673800778 3.5203925723114393 5.0335125161758665 0 -1 4
1535 1 27.20554473613456 0.18903509161796084 3.370193460450867 -2 1 0
752 1 19.387779001835604 0.2315504139250082 2.3803953053521694 0 1 1
1926 1 22.480414995664884 10.260119453590846 0.038926159265885274 0 0 1
751 1 0.6759969187098387 11.636743914694492 12.729421485596317 3 -2 2
1867 1 22.487854953437147 0.7433252963520631 1.890821548826553 -3 3 0
1330 1 22.325285875533286 3.5598080450938934 3.8795827378194403 -2 -1 -1
486 1 21.779109232597417 1.3610743560701501 5.800885161927218 -1 1 2
1483 1 22.86001286018993 3.0155083563864635 0.6314942931404695 2 -1 -1
1056 1 21.41671586707034 4.2117764027279705 2.13189707993476 0 0 -2
1654 1 23.351083564078998 1.64371616572525 4.334850609559997 -1 2 -1
1417 1 25.706991324484793 3.768598367654249 13.793073073590408 -1 1 -1
32 1 27.362768653855778 1.0976232826849357 5.5154703618103404 0 -2 0
402 1 3.0959379337906148 0.15470884087376136 5.726137487218591 0 -2 1
1292 1 24.250607955631338 8.895591023597497 0.9369087902302935 -1 1 2
2024 1 24.56846757056838 4.281012620972253 1.7162657696001102 -2 1 1
187 1 26.440557038397603 2.154880804516013 1.9605087126374836 1 -3 1
215 1 28.649397537556577 0.8974296980807359 1.956569159093573 0 -2 -1
2040 1 25.787677001151096 2.315166115884298 4.0976917806133875 0 0 0
259 1 21.720979626414955 0.9158200147002298 -0.4301695176809254 -1 -1 -2
1889 1 24.41285133239166 1.8494763559194318 2.3164790564524687 -1 0 0
1470 1 1.766291880340852 3.0703872064140634 3.3266866129471024 1 -1 1
923 1 1.8841572361654406 6.115079205701542 2.939116667962395 0 1 2
996 1 1.4525561504214022 6.506888312913092 0.5697297805676458 0 0 0
1355 1 3.7327940704530818 7.288512807297803 0.7163692965280755 2 -1 1
1822 1 4.019944925141085 7.525263541379282 3.133081718619718 2 0 0
1267 1 5.2396932670090255 8.802856480783328 -0.1377882350663286 1 0 1
788 1 0.10023158498885265 7.344145553204492 4.842229478653928 1 1 1
276 1 5.230322046749072 3.5020810224779964 2.7381613375897507 3 0 1
428 1 8.563605874557098 6.771190361888303 0.37812405594697174 -1 0 0
362 1 5.414751293359923 5.824261112734242 1.9713179426788532 1 -1 -1
378 1 13.629454765302043 -0.09962316877557054 4.045824136995662 0 1 1
427 1 7.720042452475598 5.239458842038355 2.090637443446771 1 -1 0
1472 1 10.112322470069094 6.143964770286173 1.951851419437916 -1 -1 1
347 1 6.429099155712137 3.775884317506917 0.4757975613873382 0 1 -1
1824 1 3.747585521513372 4.855616865124967 3.0735659200311036 0 0 0
1246 1 4.182662585230702 4.246392554214109 0.6293562851104717 1 1 1
1211 1 10.692802788771125 8.331779673195538 2.1588548118632174 -1 0 0
39 1 8.748307903823472 7.204083643381741 3.4142993504380112 0 0 0
817 1 24.321513367860963 1.6350698870816123 0.04816833481553828 -1 0 2
1700 1 11.448598259585623 4.637589240766267 4.008924929468936 0 1 -1
777 1 11.164546575936154 6.93050949157379 4.011842170153082 0 -3 1
880 1 13.093152725362303 7.987193336843802 4.263320666567917 0 1 0
504 1 13.984061588651276 5.9545987207516555 3.6071002158188445 0 1 1
1907 1 5.891031265675235 13.15662650250102 9.834201628272787 -1 -1 -1
909 1 13.430095623227489 8.881910198015273 1.8621462847885621 1 0 -1
598 1 13.898835247172578 3.570353607313317 4.230715820175997 0 0 0
322 1 16.485901081117376 10.04744314109188 3.2452599213132656 0 1 -1
412 1 15.266977184891438 5.855463414053633 1.4259733334499742 -1 3 -1
833 1 15.727986808872373 5.73497321288574 7.33489769314819 0 -1 1
1348 1 15.616512523759084 4.629662497984596 3.4071604555538824 1 -1 0
377 1 16.03440329795087 8.198713849457597 0.8514671402269949 2 -1 0
1002 1 18.469916506653387 2.918725657534653 2.8992534222820825 0 1 0
1861 1 16.956240121841375 4.599302819562473 1.556537981053487 0 2 2
1854 1 15.651736369595735 7.809941680008782 3.1942328445771495 0 1 1
1235 1 18.074864009690963 5.070316731511626 3.398930268730473 3 2 0
524 1 18.18715764536087 7.197070324429771 4.397046904220688 1 0 0
1277 1 14.345643097827326 10.94539962765698 2.5874079915244645 0 0 1
1174 1 17.4386953163681 9.23025980728223 5.134764105452438 1 -1 0
1956 1 18.326767267256084 6.728097557539912 1.6051394973834827 -1 2 0
1343 1 24.645842808586877 6.066461535372275 0.002509852722448358 0 1 1
783 1 19.36980205290089 9.934849515857668 3.8891470709528795 -1 0 0
235 1 21.02542307685983 8.270166391536218 3.537068509291287 -1 -3 1
1764 1 20.29622487217178 9.199390793820182 0.8971230582194234 0 -1 0
57 1 20.469331172856965 6.559988144230712 1.7243288409045192 0 -1 2
1832 1 26.863700881583483 5.120954973172338 3.1085740012129524 -3 1 0
1903 1 22.614648839355382 6.47469864061538 2.7631603462177234 -2 1 2
1350 1 24.898300117176355 6.728052213196522 2.007651569490059 -1 1 -3
278 1 22.04978752164926 7.766302290710396 0.7790177179081887 0 0 1
1749 1 23.373336025022073 8.4123560093694 3.1676707343264012 3 1 1
578 1 28.793679026616175 6.714463213841598 2.477930472131802 -1 1 1
1868 1 20.266198570160803 2.1258312875851875 1.32164731305638 -1 0 -2
1660 1 13.373754831181099 2.485981419002045 0.4406832611264254 1 1 1
600 1 1.4480431546699506 8.344943595739117 2.490139238377993 1 1 -1
1583 1 -0.3127476228655123 8.899424840989425 1.176166450207832 1 1 0
448 1 27.133254864321874 10.223089468482653 4.485213865273506 -2 -1 4
757 1 26.859610183349492 4.561131033358394 0.107673914536213 0 -1 1
1326 1 12.699040470145585 12.413308573668997 6.576138797442884 0 0 2
413 1 8.503512935785567 4.496050672779673 0.055422841087725994 0 1 -1
484 1 1.2126768627260256 13.040265703213121 2.8341585322944556 1 1 0
1756 1 0.3161451633159179 13.251420266717952 0.7499505407781191 -1 -1 -1
175 1 10.911818545737843 1.7170218959178132 0.20188501682961524 0 -3 1
624 1 3.043662156341525 9.318473351014386 1.6269529150489577 -1 0 1
1783 1 12.1833841273008 14.12603339884327 4.505143023344756 0 0 0
1632 1 3.7488416929639845 -0.026744254329449657 3.384644039817253 1 1 -1
370 1 0.2790249433753371 9.492608789017794 14.010871607980754 3 1 0
682 1 6.703570382348208 12.840754076906608 0.10672133747596069 0 0 0
198 1 4.815134583028905 9.96764766323423 2.871611649463543 0 1 0
1538 1 3.9153050554042927 0.31818920868285117 11.430470041745433 -2 0 2
225 1 7.807972079965641 9.487635708056525 3.285624837459956 2 1 -1
1689 1 9.76929856959694 12.98585706155411 2.5326089933731013 2 2 1
948 1 10.659128851715618 13.93924482415905 9.087378795145352 -1 0 2
318 1 6.215381426938591 11.840284600345534 2.6540847539836805 1 -2 0
637 1 3.6843494635820546 11.996770031779047 2.190425355793666 0 -2 1
1399 1 6.652311329561306 10.341095292100427 1.224725998740057 -1 3 1
1875 1 10.89429222832006 8.52742092755077 0.048906938925476706 -1 -1 1
1448 1 11.822148454624218 13.479844736025088 1.615369514587516 1 1 1
1416 1 8.833029864320535 9.26335228054571 0.6590842384361464 -1 -2 2
1816 1 12.252439156243112 11.995558552985107 3.4558104103830005 -1 2 2
1781 1 9.948547895484433 10.480880731085284 2.5791692946437017 -2 0 -1
1368 1 10.592477748230504 11.805231789251609 0.3523864342573503 -2 0 2
659 1 11.744557805257383 9.5487987057236 3.617187353895299 1 -1 1
899 1 11.997051168825424 10.479231520626985 1.440248834320406 1 0 1
1744 1 2.3621900152977267 12.483952314219295 0.7883599700837212 -1 3 0
491 1 25.04708557030136 -0.3243353681383403 7.986668488249704 -1 -1 -2
23 1 16.211892359380787 13.034292074849274 0.5321159803837063 -1 -1 -1
536 1 26.2122803707611 2.3228686307183204 -0.1413224771411385 -1 0 2
1722 1 16.086139218423988 10.405479041446434 0.8055138719066992 1 0 1
1548 1 16.646007671265103 13.78622080230222 12.017262291397657 0 1 0
236 1 16.264919555251847 12.245298134442598 2.566349737226379 0 1 0
115 1 14.777143498903653 13.666765753154115 13.11728210471869 1 -2 0
1131 1 13.597577250919104 12.249668589669751 0.553271049107406 0 0 -3
703 1 24.59654981359054 3.9071810940099967 -0.42062626044600027 0 -2 0
803 1 1.9988954156722993 -0.4448167702979653 8.681307969402969 -1 0 0
956 1 18.11399047081361 8.725576875081957 2.3373756645519745 -1 -2 1
1405 1 21.828688613457455 -0.32361094595853146 11.078468467224347 4 4 1
393 1 18.386961711405032 10.97131396267459 2.0861267372371444 0 1 1
680 1 20.758299642296247 11.601066026812388 2.08473724105559 -1 0 2
1381 1 20.30364292963642 11.518868900546709 -0.15728037637775283 0 -1 0
562 1 20.003964970988743 11.429640647001538 5.76629090378401 -3 -1 0
560 1 18.728066382688393 13.92448203392479 2.5902380228299777 -1 0 2
537 1 23.403397766664412 11.54492103226667 1.6019920345186462 2 -2 1
137 1 23.801879709948278 13.49284986249689 2.889629191287064 -4 -1 1
42 1 1.0875513890447006 -0.17153429499941636 12.651631559712287 1 0 -1
942 1 22.456293132299752 12.744979764495751 0.03836328779318077 0 -1 1
686 1 14.278624500996372 11.97246343056809 4.739275572110188 -1 1 1
237 1 27.96917921400646 11.414670567090164 11.288215943810206 0 -1 -1
765 1 21.892476160085398 6.485354166488028 11.864233124935945 1 2 1
1786 1 22.05084924260006 10.46521538520501 3.1195655780544995 0 0 0
1227 1 25.201860661673845 10.25372850118642 2.3149079308819998 -2 1 -2
1533 1 27.576928553833834 8.413031464941396 3.0755297131296113 0 2 2
1373 1 26.773639878074288 9.366476492602287 0.9351899815269014 -1 -3 1
1662 1 25.408522108439247 11.685517193345145 9.072990630065732 2 1 -1
1111 1 0.7428926539950731 10.92771731437247 2.130287895383287 0 -1 -2
1595 1 25.272567872897255 13.257273541410768 1.0409890737536553 1 -2 -1
675 1 27.903634314386693 11.3079046209897 1.5853941756244678 0 2 2
1773 1 25.57647586223941 6.716535091410235 13.379483493153888 1 2 -2
356 1 28.488906355524183 2.574452257073345 4.034961478596655 -2 2 -3
849 1 1.4016335045415529 1.7311537926874925 6.373618202160624 1 1 0
1780 1 1.0824516516612122 2.2477447812949616 9.004817077670094 1 0 2
846 1 0.41254482346634413 3.5725487718946205 5.675682878010736 0 0 -1
312 1 4.052075993165914 -0.2978707747094153 7.469818607531139 0 1 0
627 1 0.015392303321956846 4.014676501300574 8.02843819554694 2 1 2
1687 1 27.655341549842355 3.2449021730860386 9.255902630589752 0 1 1
790 1 -0.17427887671914483 0.39483372004840434 8.850686062642392 1 0 0
1001 1 8.487362675495854 10.024079940388592 13.376975670938526 -1 -1 -1
189 1 2.8874424790407875 3.1047054719812515 7.549392215623653 0 -1 -1
823 1 6.332361037407657 1.7214042828011729 4.773984297404644 2 -2 0
54 1 4.69746277255937 1.8037075124728288 6.454649494713388 0 1 1
72 1 5.289495464765066 1.9203635502526155 8.901756332685924 1 1 0
694 1 5.700955348795873 3.927028103370162 5.914134425364503 1 2 0
464 1 19.503231839981353 6.478807079479373 12.438298367438296 1 -1 1
1800 1 27.56536375011536 11.247695815468507 13.920827839082209 0 -3 1
1703 1 12.959404683585307 1.6135480734634773 5.436814083139542 -1 2 -1
676 1 7.759199503034587 4.462033346169376 9.13770364916453 1 1 1
1580 1 9.456664639068613 3.8829607036809426 3.4157438043518478 2 -1 1
1906 1 8.749300740223754 3.157290710444808 5.464559680344373 1 -1 -2
1592 1 9.201674666242248 1.8810495764067006 8.062395927570877 1 0 0
1547 1 7.435844975498068 0.8196184840848746 8.858479915689372 -1 0 0
548 1 7.214771529522354 4.717839201248437 4.396938526768229 -1 -3 0
1561 1 10.388709661068397 3.8530670506585443 7.7685841233998705 -1 1 0
1396 1 9.698831542860097 0.03428109351173536 9.648720983904862 1 1 1
1068 1 11.31588991964577 2.8099597556409277 6.1517978692167725 -1 1 -1
149 1 14.587309494558562 0.13902997029217912 6.924425985010671 1 -1 -1
66 1 20.689726668087477 12.3654091233665 10.798598846746648 -1 0 0
1033 1 11.574778530093296 0.5739526942325002 7.963783813572599 -1 -1 1
567 1 15.93160145573965 1.2490630222663635 8.511455929074028 1 0 -3
1188 1 14.296966004692854 2.1735670281653623 7.006781905471971 -1 1 2
1250 1 12.344841373254525 2.5284695593448427 8.464386017632012 -1 1 -1
893 1 14.68668116746262 3.7238622229759217 9.086716075564324 2 2 0
1107 1 17.360753607077328 -0.09609139063603883 4.6655218898293525 3 0 0
394 1 17.60405878444334 4.930599006668968 6.017382363662121 -1 -2 -1
164 1 21.866959744460004 3.4222849053438233 6.226585284846768 -2 1 1
804 1 18.79589051375232 1.6076201829426653 8.848315709584629 1 -1 0
1779 1 17.5283107886544 1.2037707764934107 6.377453793053213 0 -1 0
1469 1 19.55970537466569 1.52377569149938 5.367991076443628 1 2 1
275 1 18.3226506625056 0.403556434640886 10.825201983084831 -2 1 2
1154 1 17.537196897135683 -0.17914403827256636 8.246717848996843 -2 0 -1
1333 1 9.662775406338769 12.958255224387095 7.290533673402131 1 0 0
1476 1 11.912739059573344 -0.1415893659879875 10.204980621298349 -1 0 1
1439 1 23.594390390133228 2.0568406456946002 8.099630224986559 0 1 2
1048 1 21.280215445441527 2.8057872224826363 8.466689024779017 0 1 -1
1635 1 25.131304681169073 1.3674666993884224 5.9544344710471915 1 -1 1
316 1 25.026312207751495 2.7577803814772013 10.618717308167623 1 2 -1
1043 1 20.955702733625625 0.865775595264445 9.286167051708995 -1 1 3
508 1 20.181288727152765 0.6756314019705392 7.362870210930425 0 0 2
1923 1 10.948187972802437 10.445824004528285 13.999632323024672 0 0 0
1896 1 24.318695627909896 4.379782399464853 4.047962246418282 -3 0 1
250 1 25.59048247784129 2.752844614122911 8.000725550930062 0 0 -2
1278 1 27.08826398183934 4.522437666259274 7.363396946740081 0 2 -1
1774 1 28.32479539438306 2.185572323446279 7.073031442898217 0 2 2
194 1 26.497574613033734 1.0242029137149782 8.881362045648464 -1 0 2
327 1 26.370831342341404 4.072532230902117 5.315076897659168 2 0 -1
1821 1 3.1156601756964073 1.3618196574602641 13.042349040227995 0 -1 -2
1098 1 13.547723180335502 5.1108120042870775 0.13861052340329283 -2 -1 1
1141 1 3.135724494368673 3.9655463296457425 5.4053466567609245 -1 0 -1
589 1 0.22794454644072182 9.506657525377506 3.883145603119724 1 1 -2
1082 1 2.562459201737932 6.309793880092447 5.516967662041047 2 1 0
1019 1 2.712212319054483 9.341511071016864 4.308803780578227 2 -1 0
1414 1 -0.11317421687075979 6.433156465314836 6.993988483178423 -1 2 0
1949 1 3.1809591841039273 7.556975169883696 7.436447409949864 1 1 1
1942 1 3.9960404969372956 10.55443866362119 5.932704492124249 2 2 -1
1579 1 4.316035991490737 4.959138754125955 7.404990855081537 0 1 2
1446 1 4.907524379410701 6.044910818593596 5.328887439211893 -2 -2 0
1037 1 6.791405546044925 7.901625790852757 1.8896371610469722 1 -1 -2
1490 1 7.074563439857762 9.408969127451101 8.543924179704556 0 -1 0
1273 1 5.302691291248683 7.913709052145039 6.946047237035816 0 2 1
1380 1 6.742558762792438 6.86569964660698 4.265463414802698 3 0 2
1266 1 4.702882543844975 8.050781260555455 9.258988954163538 -1 0 -2
2016 1 7.042704983199937 6.877444632865042 7.999933591425666 1 1 2
1337 1 9.375422569128807 10.028365166592545 5.1196076616780966 0 1 0
1675 1 11.310768935924312 5.462531889107301 6.0824228660727675 -1 1 0
661 1 7.998918155633287 4.959196537914441 6.9655572954748095 -1 1 3
232 1 9.383838690898392 5.61303979779618 5.042997385253632 0 -1 -1
532 1 10.614219716666971 7.832275253476423 6.030331832981239 0 0 0
2004 1 11.488281693716853 5.0356516837984175 9.316638864888509 2 2 0
280 1 8.05075312715481 7.731829849168156 5.89822022105617 -1 -1 -1
499 1 7.563061618464982 11.59788645762249 9.368574299605493 -1 1 0
1991 1 9.973950984185333 6.490409597000854 8.372386589967103 -1 1 0
206 1 9.028806599074768 8.908814358209748 7.609910750277496 0 0 0
1293 1 13.349902445379414 6.204227611402729 5.619008568510607 -1 1 0
185 1 13.19482897959256 4.444961966907071 7.5056482646116045 -2 0 -2
1841 1 12.104739340054243 7.10218050022782 7.543931580783635 0 -1 0
1038 1 15.574546406021277 3.58801368838491 5.785350377986832 2 2 -2
579 1 13.873743416735655 6.190293321969702 8.830140575379106 0 0 0
304 1 16.024674588754902 8.307493895907577 6.670112092561465 1 1 2
1612 1 16.40456323723955 9.136889927653662 10.088381937034766 -1 0 0
474 1 20.26741448864561 5.337657781744875 6.682648611872076 0 1 0
299 1 16.168679925557097 6.157889716740001 4.830210294585238 -1 1 1
622 1 17.248990353764498 3.033911866725111 7.700045367961943 1 -1 -1
693 1 18.60215307237506 5.038986675927303 8.032796317867676 2 2 0
951 1 19.445667645068326 8.412692507028945 5.832893717213219 1 1 -2
1909 1 17.991320271686785 7.182258349574381 6.848127278077039 0 0 0
1847 1 14.174744665267792 8.795030377849708 8.863571389615398 0 1 3
1607 1 22.801780144785386 6.1170542336643825 7.822642275381728 -2 2 -2
1609 1 21.133067885877757 8.037513629517784 6.916893391895245 -1 0 0
1944 1 20.40087087887746 5.789837383457265 3.96825703948023 0 3 -1
614 1 22.081205885810633 5.760373412922544 5.284058338646009 -2 2 0
2032 1 25.20515285512467 6.588459367252729 4.50475257822744 -2 -2 1
1566 1 22.740584276096186 8.399950754274894 8.413510204950036 -1 1 1
847 1 27.485936668781612 6.220931350276292 5.418645073068219 -4 0 1
105 1 24.940108366428873 5.399826959506391 7.0534039137371405 -1 -1 2
1833 1 24.742398310534835 6.773297077894734 8.774060321513408 -1 1 0
1737 1 26.59851829354619 9.315091936134927 8.01262489664474 -1 1 2
1887 1 27.700521587321624 8.360894000964667 5.880289661630485 0 1 2
828 1 27.423892079400364 7.038521699792825 8.146187573143987 -1 2 1
943 1 -0.4449561867549905 5.0048905257279195 4.204003071958687 1 2 1
1674 1 25.015795085601937 8.188501600009126 6.723297549534498 -1 2 0
1588 1 -0.45402464708734763 12.05870924922984 4.115709122193434 1 1 2
1398 1 1.4299362311392845 11.962708319838043 6.503230440359592 -2 1 0
552 1 -0.258026552046458 13.353102419182044 6.569811826025767 -1 0 2
223 1 28.186908678631607 10.808507422895998 6.797240266783362 0 0 2
307 1 5.472497804660045 -0.383546730726291 9.396418014035437 2 -1 0
733 1 1.0064036243517214 10.611449716315873 8.149999620214563 0 0 1
217 1 0.8439401831447071 9.713516297250736 6.231049079063871 0 2 1
1268 1 25.21162490728176 0.12185267271000466 1.1062353022013731 2 2 0
368 1 3.236295377013225 12.510016156340164 8.360141739030107 0 -1 1
1686 1 2.628039243249779 11.603179210131204 4.295881354358873 0 -1 0
1317 1 6.396551109263934 12.563977953758801 5.669900884679761 -1 0 -1
424 1 4.021654184226331 12.975872638462981 6.445398229429626 -1 -1 1
1876 1 3.733076415848384 10.151149923967523 8.086125394079792 1 1 1
252 1 4.707821990459499 12.507977251507644 4.364491635167194 0 -1 0
1924 1 5.581917322522261 11.403337026817072 7.877152358519966 0 1 1
800 1 5.686184452303024 8.955513288022996 4.483687743546977 0 1 0
739 1 6.600842182351253 10.134410752852057 6.310763243073995 -2 1 1
1834 1 8.087005749879095 11.81251772875437 4.183219088424836 -1 1 1
869 1 13.646618696560214 8.44165456674501 6.577649324242491 -2 0 2
949 1 10.465696896826644 11.955734910425413 4.826322762830787 -1 -1 2
701 1 10.549283255353362 11.056567055656199 7.368806138875645 -1 1 -1
133 1 8.286817179138636 11.205177876261414 7.190339390003994 0 0 0
1810 1 11.792461615879564 9.941636825755761 5.840014955677534 2 2 1
205 1 12.452951965329044 9.856299826183623 7.865431030621645 -2 1 0
522 1 14.08115705891235 13.431588144564763 7.902410969941457 -1 1 -1
755 1 18.365205276104057 12.110240902774237 4.302977797662254 -2 2 0
60 1 8.44889091125668 0.513211955811774 12.293830314671746 0 0 0
1846 1 14.410068359416355 10.612139303539767 7.0202586355559475 0 2 1
928 1 18.188324938525103 11.957458421861292 7.71059653091017 0 1 0
663 1 15.829657336500425 12.972019841049987 6.471096047489841 0 0 1
171 1 16.03108181646183 13.028502781703674 8.967920047886885 0 -1 2
1261 1 21.391741268199393 9.862774186096903 5.354492243721101 -1 0 1
1096 1 16.407772796167368 10.929217903390095 6.292392840348882 -1 -1 1
1775 1 18.61715573381328 13.485884306666753 5.937899656931588 0 1 -1
338 1 21.015118828057123 11.289280228818454 7.890006950647123 0 1 1
1453 1 16.1108422632894 10.550056422570185 8.651651235890514 -2 -2 -2
874 1 1.5111084380954423 -0.24448777415329018 1.999241931037894 3 0 3
1151 1 14.557482279848621 9.649975272500567 4.622067613461969 0 1 0
429 1 23.345369455667637 10.030732863337054 6.851739189698166 -1 -1 1
1473 1 21.483758387379236 12.37749922468428 4.327503225307779 -3 0 -1
1090 1 21.553115087250053 -0.18236497009612201 4.227400160126001 -1 1 -1
1253 1 23.765781225430096 12.413290717162365 7.208454947147143 -1 0 1
1057 1 10.090835811289335 0.5154819897545133 5.654908745964346 -1 1 -1
1315 1 23.522456423110405 11.12095329567045 4.668578046298682 -2 -1 0
363 1 23.064208955046656 7.954060606304022 5.734261472529889 0 1 3
2001 1 24.348589366925975 13.77605301562436 9.070100459472721 0 1 -1
336 1 8.989917882001047 1.5245017704341848 4.06895237750714 1 0 1
760 1 27.10643846892746 12.844350174003326 7.445407783043682 0 0 2
1238 1 27.97434523589883 13.644705415654569 2.4691848508282512 0 2 0
437 1 26.030819473438022 12.436420533878442 3.0623297791631527 -1 0 -2
1630 1 27.075247421960515 13.220737110315978 5.075404941769061 -1 1 0
297 1 25.157497974904235 8.908383835675293 4.263242255382962 1 1 1
1801 1 25.937374766035443 11.085216344605847 6.254097872579181 1 -1 0
33 1 4.345746142011549 2.6348980611010226 11.382423659907484 -1 1 1
335 1 28.526602432599066 1.4644046217641837 11.048457565230406 2 -1 -1
1028 1 1.3905096530054868 1.4775056434233342 11.077898255346668 2 1 -1
1951 1 -0.060345473475893086 3.4202476851664176 12.757704872515212 1 0 1
293 1 17.846456818213838 8.682499426650057 13.87190251902648 0 -2 0
47 1 24.646959151757965 9.420708109980284 14.091021137345562 -3 2 0
1212 1 6.9360034625831615 1.1892151235401518 10.981411914937826 -1 1 -1
269 1 8.446905215552492 3.8647051934067536 12.09692091347708 -1 -1 -1
990 1 7.506865433935279 2.0359377178843987 13.45773403311852 1 0 1
263 1 6.295096927160217 3.6743603482245755 10.529610161331693 1 0 -1
1360 1 2.9368822019494742 4.219135595449149 9.623446289768777 0 -1 1
209 1 2.3428064184094013 13.583824895751262 12.455279784103897 1 0 1
1529 1 1.942413828071445 5.383220572426371 7.691466922238771 -2 -1 2
683 1 6.010506553266546 0.2096348519620128 12.56769624650716 1 0 1
1895 1 7.996827697221205 0.8757297702042108 6.248619817943733 1 1 -2
346 1 11.086999170418082 1.421116080495582 12.24775450699155 0 -1 1
623 1 8.613960810188429 2.5110332220358704 10.298002837775664 -1 -1 -1
1081 1 10.87683952136597 2.0773646871034903 9.865523024363158 -1 1 2
1693 1 10.685362140656524 3.553850416105039 11.447992884386725 1 2 -1
1753 1 4.871007002448174 10.937900190702335 12.928821444904651 -2 2 0
848 1 20.801101324513994 14.073523572408158 6.69722094254892 0 -2 0
569 1 13.184203572435525 0.3097170447295271 12.817333244184367 2 1 0
28 1 15.802292579964046 0.2869529692131083 13.41758506761699 1 1 1
2000 1 12.577253786585075 6.595104120372914 1.53787499057221 1 1 1
1707 1 13.572927952347603 9.717942566658296 13.966919990762367 -1 0 2
1988 1 13.874892857657624 0.891084895006804 9.092127820990438 0 0 2
892 1 19.21570861944985 4.600663466081536 1.3790366386960808 0 0 2
1307 1 15.40676923342489 2.929521475551962 11.734580185406857 1 1 1
1032 1 16.24842967578363 4.097856013323626 13.597702385977442 0 0 0
1986 1 15.948472309638074 0.2375067522111154 11.067310275839947 1 1 1
1167 1 14.517214116867427 7.111095382462913 12.737544226954258 -1 -1 1
61 1 17.987555562850147 2.333021341022802 12.221256058703707 1 1 1
1915 1 17.161261489642616 2.5360441856058507 9.984725918952726 1 0 2
563 1 19.03406179513747 0.5103528543989172 13.477064188958417 0 0 0
878 1 19.62685385145935 3.1305825118010446 13.620313333142706 0 -2 0
534 1 21.54109448039055 2.0377092085843875 12.978468574285394 0 1 2
1421 1 5.267826001918204 6.44206728308497 13.170835275510182 -1 -2 0
1169 1 21.58587391551316 4.1636956919812445 11.957690312261976 -1 -2 1
903 1 22.64383329057416 2.2723967847711077 10.750594851627401 -1 2 1
1364 1 23.786628720677783 5.448193018174509 10.85287329202199 2 -1 1
1085 1 23.41577197184324 3.9427788313676384 9.034844047441139 -1 2 -2
117 1 23.702747089314474 0.09654735823037619 12.700962660016515 -1 -1 -1
1793 1 10.964092909602613 5.709508764616086 -0.22484817635606696 1 1 0
1496 1 27.283725380300748 3.1139396295813455 11.375758248728154 -2 0 -2
268 1 28.256824264018228 0.7710602049718371 13.223362837763055 -2 0 1
1377 1 28.67657489165819 13.12857097637795 9.136090010415343 -1 2 0
1890 1 28.838471922585196 2.8158326759603884 0.8197551966136467 -2 0 1
418 1 23.653460279845795 3.0020215234800336 12.49919338424816 -1 -1 0
1312 1 26.274052442980093 4.926696642829419 9.370154384143651 0 1 0
1233 1 19.254115910923783 13.72825869483865 14.041098660634175 1 -2 0
1531 1 24.262094155491674 0.015758775566450223 10.70768189548733 1 -1 -1
430 1 25.720899570517417 1.3205189567606566 12.24301504404347 1 1 -2
1145 1 15.935896834343971 1.4070194076647693 0.20057750311670408 -2 2 2
714 1 0.48220717529114654 10.276172610301272 10.342608014364336 -1 1 2
732 1 -0.3336319127549475 8.702548662688908 8.234302496850914 1 0 2
407 1 0.2530392642766255 3.8560838052441726 10.287921733313832 1 0 0
1897 1 23.56922244382265 12.731335292689621 11.857610653933156 -1 3 1
1258 1 5.174167087327591 5.578057650247538 9.598629448088333 -1 1 2
1442 1 9.62949994730101 13.900344203285597 0.1895151061467738 0 -1 -1
1631 1 27.777171627566336 5.171686493097433 12.024653994817143 -1 0 -1
1835 1 0.868975729566666 5.961077753946931 12.415963671238629 -1 2 1
1920 1 2.031754919345518 7.977239186338554 11.634129543981933 1 1 1
1303 1 18.44967615685862 8.505219876946477 8.552851617264817 0 -1 1
630 1 8.131143449851715 8.487275279766829 10.018020811167911 -1 1 2
438 1 6.546199333997911 6.105816495502762 11.244678780715375 1 -1 1
1404 1 7.763906077767508 5.893414895674978 13.074686373960063 1 2 1
1763 1 3.4548478987068774 5.738884092883177 11.744245667851295 0 0 0
1608 1 1.515984410591447 6.401963468569182 10.097386389041045 -1 0 1
767 1 2.050154632041285 4.210420722637915 11.7597459978495 0 -1 0
1053 1 10.663644146296045 6.144650620157784 11.579539365744749 -1 0 0
1461 1 8.672100118274722 7.388070440151543 12.235910026381054 -1 -1 -3
1651 1 4.273614218981981 8.043661976297509 11.614876340156195 0 0 0
1121 1 5.721697745610211 10.331660518038332 10.31814370754421 -1 1 0
1062 1 9.481472906370605 5.029853309930143 10.213484380984271 1 1 -1
2009 1 12.718846054796176 5.55210945291156 11.17842249084686 -1 0 2
609 1 10.68021086673026 8.852449382070168 11.897856213506946 0 -1 0
1007 1 24.711222545867727 10.36434458594223 11.015048787260584 0 0 0
742 1 12.29000964824309 7.814092152220061 10.272121931487739 0 -2 2
1065 1 12.132486445184988 10.431219664700475 10.491284764281742 -1 1 1
1430 1 10.552180036579287 8.833825191724296 9.220917583215881 2 0 1
1041 1 13.94952588706576 4.114325764768856 12.784157521770707 0 0 -2
13 1 12.54959604617472 2.452417196129857 14.072171752701284 0 -1 0
855 1 11.86835510458731 4.898593369434636 13.132911999651602 1 1 1
349 1 11.969104070427191 7.245268962722974 12.992092015401388 3 -1 -1
711 1 14.468506454099774 10.489632961230656 10.225025511089425 0 3 0
687 1 15.004713617131339 7.596024848793363 10.63060703681629 1 -1 1
1127 1 12.819177329048829 2.7559518000319434 11.394036906234685 -2 1 1
1724 1 15.99708553058106 9.036138040821017 12.382056812705498 2 1 0
510 1 16.525365323643314 7.323757207242886 8.758272139587486 -1 -2 0
1771 1 7.478825091166177 14.143733658813028 3.8635788193500193 -1 0 3