LAMMPS data file via write_data, version 29 Oct 2020, timestep = 300000

2048 atoms
1 atom types

-0.21581461434496418 28.567814614345423 xlo xhi
-0.21581461434496418 28.567814614345423 ylo yhi
-0.21581461434496418 28.567814614345423 zlo zhi

Masses

1 58.933

Atoms # atomic

35 1 1.253138537496068 3.4767327943356903 1.1875267704937864 0 0 0
130 1 1.4933949810995322 1.972532348216951 3.1377394805716947 0 0 0
165 1 3.308434219657359 3.3357422706935047 3.4014086621816495 0 0 0
7 1 3.087782753725409 1.7037768780297513 1.4660924455825213 0 0 0
133 1 3.449535719217208 -0.12910380219907558 3.331675196707244 0 0 0
4 1 -0.12391033025706832 1.5048310966598673 1.3995613994125788 0 0 0
162 1 -0.11217687083385787 3.6326012081312324 3.0141831533088386 0 0 0
8 1 4.8883697986925565 3.783122206671444 1.8358600685626838 0 0 0
134 1 6.525127020179412 1.949714093019208 1.6301097948184715 0 0 0
170 1 6.2893550989225036 3.3433169772685334 3.7297683606943073 0 0 0
9 1 4.820257043293602 1.6892240285507465 3.4717564597774393 0 0 0
5 1 6.868461847004874 0.1510931758255788 -0.11940057561757092 0 0 0
39 1 4.967264988163537 1.4968798776591477 -0.05008038523503089 0 0 0
908 1 8.495425235688113 1.8941241410210683 3.3691328196818553 0 0 1
43 1 8.648214515924963 3.4924149559620035 1.0898555818181657 0 0 0
16 1 9.896731913069459 1.3193678985594461 1.613039925525346 0 0 0
173 1 10.521281565863902 3.435765934754471 3.211161612895668 0 0 0
142 1 11.871045205921247 1.7208774856802582 3.05426528807377 0 0 0
906 1 11.05531244742049 3.3969467858952846 0.1637547087020354 0 0 1
46 1 14.30953058694121 3.1518310280964945 -0.08532673270636457 0 0 0
47 1 12.622398620659386 3.4794493473875914 2.0293768149979 0 0 0
177 1 14.142843112652185 3.318664523719903 3.6287938724515745 0 0 0
20 1 14.431445056713821 1.778006103789652 1.8697033332900563 0 0 0
146 1 15.9603391424302 1.9035932623111078 3.5005627820599408 0 0 0
51 1 16.03091630001022 -0.009738841633869122 1.831661676427967 0 0 0
17 1 14.201333121135672 0.1536541793338288 0.01348540963454603 0 0 0
912 1 12.282277780051011 1.5524818521755075 0.18082216855260924 0 0 1
21 1 17.97315508053858 -0.09654628169097823 -0.09401101192482902 0 0 0
178 1 16.4735811495834 3.4947454523298003 1.9663219691907496 0 0 0
24 1 18.325290022665072 1.7038626459373771 1.3789542343732208 0 0 0
181 1 18.121403025187778 3.6701051525000845 3.406869160607652 0 0 0
55 1 19.77718964813143 3.2496168714136187 1.4907219916402668 0 0 0
156 1 19.621522015291745 1.5269364393315965 3.2775299758886822 0 0 0
53 1 17.477563147098675 3.389697706133328 -0.14384046328686945 0 0 0
150 1 21.484547890037263 1.5325092951535615 1.154135538132295 0 0 0
28 1 23.36884428394251 1.1574584789163567 3.0581028240595804 0 0 0
59 1 22.948513367377156 3.5539095179473437 1.0085688674829139 0 0 0
185 1 21.662897625729784 2.9986174134680974 3.07726915541509 0 0 0
189 1 24.30263489177271 3.2733519990109405 2.847287758081944 0 0 0
155 1 25.667458452202965 0.5341934272703771 3.235307456857587 0 0 0
158 1 25.306815057511162 1.6228091775580529 1.372723517113596 0 0 0
161 1 27.27048550529475 1.8149770875962554 2.931681313429456 -1 0 0
63 1 26.74669278766276 3.362796718421536 1.6481406524117705 0 0 0
349 1 26.209152536286688 3.9392081480198877 3.670380097107852 0 0 0
61 1 25.21795266414844 3.4677901630533414 -0.18051776939487948 0 0 0
129 1 28.51182627239056 -0.10016243338132114 3.198778022418857 -1 0 0
163 1 1.8949835019628471 5.527097906458541 3.0945040521649574 0 0 0
67 1 1.9630583017677323 7.292956449837267 1.0181440743511814 0 0 0
40 1 3.194422997272607 5.074491950495073 0.9103320802469761 0 0 0
72 1 3.1379668992042187 9.104173686478886 1.2322892743121219 0 0 0
194 1 1.6241100530169499 9.208846628282224 3.3514770785922687 0 0 0
71 1 3.249594485813223 7.258647777627171 3.1190227467472944 0 0 0
193 1 -0.028527894215195387 7.111983276676625 3.1285614096142367 0 0 0
225 1 0.3537782570886808 9.093787973883407 1.375308892075555 0 0 0
44 1 6.9130845829509155 4.965914054562871 1.1058981073247818 0 0 0
169 1 4.794319607079309 5.353272741972865 3.519164713969909 0 0 0
201 1 4.676967194783452 6.749259047966506 1.424483351812404 0 0 0
329 1 6.492042534795035 6.628697259662103 2.8199809842467682 0 0 0
236 1 5.0861824994506355 8.485139258772863 2.7046952173060643 0 0 0
233 1 7.261263677514385 8.62954139103154 1.641279134780534 0 0 0
70 1 4.938619840593834 8.990353298626603 -0.21394606503741523 0 0 0
73 1 6.920534085780386 6.914254720375226 0.03843923530461629 0 0 0
971 1 10.849655664267727 7.107396287233884 -0.02752830226681871 0 0 1
171 1 8.349908886953015 4.660833042929109 3.086840582622354 0 0 0
75 1 8.64349888934585 6.6651229175168325 1.7421216207383041 0 0 0
48 1 10.976369919394218 5.365406793362007 1.6169835039864124 0 0 0
203 1 10.755101630853993 6.926862094201125 3.292937259654397 0 0 0
107 1 10.807564855822449 8.845609075311964 1.7656043057301944 0 0 0
202 1 8.684773090543896 8.407385263330992 3.28746944116793 0 0 0
108 1 8.766977162755836 8.460813198653813 -0.11592487121854944 0 0 0
174 1 12.571068508551265 5.391309517116509 3.4807425662425455 0 0 0
81 1 15.791449337712695 8.52904448988044 -0.1146772457430663 0 0 0
80 1 12.744911098504339 8.539538738678358 3.5613155777999914 0 0 0
79 1 12.814082553142901 6.962862456441482 1.8596130240536692 0 0 0
109 1 14.540517207130113 5.177504506052195 1.8075013685690609 0 0 0
83 1 14.471117782757817 7.134153771564848 3.5618919533408246 0 0 0
116 1 14.391720320124975 8.827052273180488 1.762450785839208 0 0 0
213 1 15.9688645489159 5.176950818866765 3.723484869165966 0 0 0
117 1 16.161913148955904 6.915480719805403 1.6581899782976968 0 0 0
84 1 15.938376582465175 9.138784915273286 3.7508245107787324 0 0 0
14 1 12.550166176133173 8.762478229741781 -0.08194440065622613 0 0 0
52 1 14.295368105144584 7.055164033712517 -0.14202266459402427 0 0 0
948 1 16.165966994767196 5.397273805015012 -0.16335785995655883 0 0 1
50 1 17.711773893669335 5.272417598512868 1.7498975558332361 0 0 0
182 1 17.824692782272944 6.638860443879261 3.6096903165456946 0 0 0
87 1 19.54476749644543 7.057509521128096 1.6241341246730066 0 0 0
214 1 19.761147055745745 8.90468954043055 3.1989452268548715 0 0 0
88 1 17.852665882327383 8.41262264271745 2.022330773087204 0 0 0
56 1 20.240698391159835 5.057190913161206 3.2907923161743424 0 0 0
86 1 19.432844370202314 8.830381997312314 -0.08900964190259586 0 0 0
60 1 21.098340874437024 5.516042372749494 1.165617993903734 0 0 0
186 1 22.953696630210285 4.890044702448397 3.0458601713781475 0 0 0
91 1 22.94025395867462 7.1178206131877735 1.2529611342301397 0 0 0
217 1 21.908212089575752 7.0735280609570195 3.5646310031162196 0 0 0
92 1 21.23176214179497 8.885109709346818 1.5023145072069648 0 0 0
218 1 23.133550432985153 9.173175195713016 3.2194942401890927 0 0 0
90 1 23.282094154932896 8.979770129736297 0.05455626240679001 0 0 0
58 1 23.606372932761612 5.411004170893879 -0.1003193774567066 0 0 0
64 1 25.02199053883285 5.359106627900451 1.5611632358376215 0 0 0
36 1 28.557054601638995 5.363467055061304 1.387547061097431 -1 0 0
190 1 26.917681284929042 5.863784349143605 3.122814559977455 0 0 0
221 1 24.507345887784833 7.121165457989292 3.022350418076725 0 0 0
95 1 26.55748443279215 7.124960336494532 1.4016727729481855 0 0 0
68 1 27.0580409765602 8.629998610644012 3.4157224051693253 -1 0 0
96 1 24.89525595794364 9.122407035580942 1.5183030702954075 0 0 0
62 1 26.854010836371796 5.254925961535402 0.02084224050848249 0 0 0
93 1 25.055231465761732 7.23426169652549 -0.09227913405841193 0 0 0
94 1 26.833300501468063 9.308302143918887 -0.19950831993887164 0 0 0
104 1 1.8513134941283247 13.988162710530316 1.4769787836602442 0 0 0
99 1 1.315846347737054 11.264876221895136 1.1231628784423862 0 0 0
357 1 1.140093534432444 12.721033434390359 3.236452445945767 0 0 0
229 1 3.4950345913507723 10.750379159623355 3.3584252445935605 0 0 0
103 1 3.1403165446793224 12.356310401923887 1.8685538201471767 0 0 0
196 1 -0.11153744043061664 10.679688983057881 3.5910717772599137 0 0 0
1031 1 4.789821470415592 10.979041514350106 1.4271482029242237 0 0 0
231 1 6.60735134543176 10.375460955324044 3.1158821651388777 0 0 0
1163 1 7.084098957415737 12.354314449867521 1.8478055975831276 0 0 0
102 1 5.143226173536792 12.209114503848543 3.909495703467213 0 0 0
1161 1 5.184954557477757 14.127643898463917 1.99426293963093 0 0 0
1030 1 7.054605103010132 14.072232706157212 -0.055092968878188625 0 0 0
999 1 5.135787554200726 12.41696950428377 -0.21148935706619268 0 0 1
1033 1 8.85161727590548 12.324105407259394 -0.005028616777936368 0 0 0
362 1 8.522301206385622 12.362099594673655 3.576540549716494 0 0 0
230 1 8.66601968598765 10.718947423459575 1.628414179887268 0 0 0
237 1 10.545740675821175 10.666408571147706 3.4136572382246553 0 0 0
82 1 10.647877383887524 12.330603072993545 1.6672753685984505 0 0 0
106 1 12.165739036547896 12.545076055755661 3.490346127932059 0 0 0
207 1 12.623487605856996 10.143883384780356 2.0416118676873936 0 0 0
78 1 13.850347239776466 12.534263174932226 1.6500363210924327 0 0 0
1199 1 14.46649119722301 11.061052403227587 3.7883468349204428 0 0 0
115 1 15.779929789826731 10.499012504766144 2.0791793172823083 0 0 0
1008 1 12.16008123150526 12.064513963439293 0.07806739229989768 0 0 1
114 1 16.194214620684548 12.180793128747746 0.24128773306323048 0 0 0
1169 1 14.141664576714374 13.871532082062501 3.625459321068024 0 0 0
113 1 14.49724921446684 10.579851328756876 0.0642915536499451 0 0 0
1043 1 15.854268834827575 13.9922285960808 1.9508932803317762 0 0 0
1047 1 19.58776048926012 14.172819127920093 1.2912991556082367 0 0 0
1170 1 16.578873084899573 12.838311998090598 3.64482108930172 0 0 0
120 1 18.01599091742733 12.34214710225994 1.5078737796036643 0 0 0
212 1 18.026228067695115 10.511539490074433 3.704472027103482 0 0 0
242 1 19.930963698781902 10.76192883655799 1.2729228216991977 0 0 0
249 1 19.57815928601797 12.34474806088305 3.077126241434209 0 0 0
1045 1 17.37173485679603 14.141757255476364 -0.13478836477071565 0 0 0
118 1 17.753627418912618 10.281207213634596 0.19032421493319518 0 0 0
1177 1 21.45111603056913 14.051553027833567 3.4251203302263344 0 0 0
220 1 20.94384863853222 10.73264321618674 3.7282276009220885 0 0 0
124 1 21.353993123437746 12.292501429897007 1.7224072823865766 0 0 0
123 1 23.180239163153065 10.897013974545601 1.341428081409953 0 0 0
250 1 23.581910583369723 12.837335610928397 2.980466332809273 0 0 0
100 1 28.331153445777147 12.876862519001092 1.393922402229375 -1 0 0
122 1 25.17109195194219 12.34728735686966 1.4165515747897068 0 0 0
254 1 24.69469790048059 10.754949003584056 3.3482918380689792 0 0 0
128 1 26.59820194621054 12.24422299580313 3.2723175030383116 0 0 0
127 1 27.17703654401593 11.068633918985837 1.6526673115663801 0 0 0
125 1 25.0869417813576 10.651727330762107 -0.16071007085582423 0 0 0
290 1 1.1369406558960609 3.349270357955445 5.295123767708914 0 0 0
258 1 1.3954547308673342 1.4222405692815252 6.977912360152782 0 0 0
293 1 3.03572142149701 3.6279894140235682 6.805069652403856 0 0 0
167 1 2.8428956859294052 1.7001214420427937 5.240713174780385 0 0 0
291 1 1.750290856204441 3.579971215014229 8.98203048001974 0 0 0
264 1 2.9837815976938837 1.6473936327935153 8.922812786250324 0 0 0
289 1 -0.18574018137249665 3.189537595582017 7.511542082511778 0 0 0
191 1 -0.037124864076341774 1.688424294586681 4.686940654968474 1 0 0
261 1 5.156257783885553 -0.03909012389133018 5.238982530769019 0 0 0
135 1 6.952328035732319 1.6176099944621838 5.463700566186592 0 0 0
297 1 4.786481307790795 3.022338279526151 5.452148573041901 0 0 0
262 1 4.890820941810367 1.4961033420174719 7.242033247535189 0 0 0
268 1 7.016816989286413 3.46781819319137 7.119857443723378 0 0 0
267 1 6.8161585948485115 1.9902249471460993 8.888865795452517 0 0 0
295 1 5.306729201379864 3.468533297724398 8.482714605157442 0 0 0
140 1 8.185470783513031 0.00963120660161465 4.969757847750987 0 0 0
139 1 8.888008545985691 3.2179028425173843 5.140576972892215 0 0 0
301 1 10.203646414214356 1.2158779075228654 5.111855619930556 0 0 0
266 1 8.438083628120442 1.5037355888622024 7.223249468008003 0 0 0
304 1 10.305073343233369 2.9364487057745854 7.192308049336787 0 0 0
272 1 10.23994110114154 1.5746584249765447 9.079859505940368 0 0 0
332 1 8.421567708183195 3.3348723501115285 9.239433329088843 0 0 0
269 1 8.67704714320065 -0.10261357227657569 9.331723689467422 0 0 0
271 1 10.739908417497725 -0.19091661870191476 6.979565666224498 0 0 0
143 1 12.412173412992262 0.4521912156589778 4.810977494042562 0 0 0
273 1 14.185841138823914 0.2724496032971053 6.917031663431198 0 0 0
270 1 12.224494774000483 1.510096972657851 6.829832845623029 0 0 0
303 1 12.487355553184344 3.1767377869745093 8.685317800126677 0 0 0
175 1 12.187975166174258 3.465595346790172 4.821091992650464 0 0 0
148 1 14.181204714695093 1.8491305496108938 5.074575471914514 0 0 0
179 1 14.399857193044896 3.0996061633970315 7.051556489341741 0 0 0
276 1 14.07328773451993 1.3088559811674059 8.874679686942319 0 0 0
308 1 16.12424589172516 3.2995565802529434 9.090534101735326 0 0 0
279 1 19.817273264759354 -0.16521870347353484 8.673423972817337 0 0 0
209 1 16.273101341463786 3.363651945030017 5.225386467136546 0 0 0
274 1 16.344607204456786 1.8375703224988453 6.878863092721096 0 0 0
152 1 18.55172674085467 1.563054232458069 4.763578015493451 0 0 0
183 1 20.33756748423192 3.277446965361854 4.8771231477959756 0 0 0
309 1 17.96118402393542 3.5060734006657412 6.82935972197643 0 0 0
278 1 20.27419682980386 1.4626082351079095 6.838156505641671 0 0 0
284 1 19.710578074285078 3.434036661439559 8.894775473376159 0 0 0
280 1 18.023674033464406 1.883494523991704 8.544084489994315 0 0 0
145 1 16.260446269820093 0.25566411141573453 5.104183856774579 0 0 0
1272 1 17.7657188952037 0.10052545489760334 6.837319804363221 0 1 0
275 1 16.399423861134228 -0.1155495734083866 8.668985303228368 0 0 0
313 1 21.789371229475606 3.332701957847116 7.062243743806476 0 0 0
282 1 21.653772757041995 0.7907881050569423 5.004181337483548 0 0 0
187 1 22.961358066326945 2.7546055281819912 4.983830953063535 0 0 0
154 1 23.70145241891902 1.9264171172571056 7.044329445071267 0 0 0
315 1 23.32299011408545 3.7136444996847264 9.009983330543406 0 0 0
281 1 21.772795414815924 1.264666321960928 8.749670512950146 0 0 0
153 1 23.559622534939745 0.059841087586451236 5.162671337669487 0 0 0
285 1 25.05457639343507 -0.03033639277558245 6.60295907012096 0 0 0
132 1 28.28990540563253 -0.05861432496427271 7.000508215696689 -1 0 0
151 1 25.23004494184986 2.174884276223397 4.974903520196365 0 0 0
260 1 28.565090503795346 1.975785542064735 9.203453103176843 -1 0 0
317 1 25.311079768340125 3.919169173532878 7.014628597605733 0 0 0
288 1 24.62362824350738 1.7358999866259435 9.195828038957726 0 0 0
160 1 27.25795842897561 3.1594340616092507 5.51926181449484 0 0 0
286 1 26.70273934272403 1.9282226642472269 7.3200957960415165 0 0 0
319 1 26.767210400644196 3.6553999163554014 9.212815660067296 0 0 0
287 1 26.47495529198665 0.07364931439522232 8.885714072841987 0 0 0
159 1 26.817462397996835 0.3160182907565763 5.31713895276374 0 0 0
199 1 1.491856773638354 7.178719565183053 4.620698203051408 0 0 0
195 1 1.56022016157404 5.484791600465715 6.842198732782278 0 0 0
323 1 3.0380244759377084 7.817523622999644 7.124785870256768 0 0 0
321 1 1.7534887289554992 7.089041547075942 8.88339121952337 0 0 0
322 1 1.4542090714228835 9.201842533106856 6.706935388795943 0 0 0
168 1 3.0167158422305356 5.935082034189955 5.264650161511636 0 0 0
296 1 3.35412642335556 5.50537458377851 8.550121545197609 0 0 0
138 1 3.3399692202354907 8.98845799052286 8.707049606223194 0 0 0
355 1 -0.03876173863396204 8.765146664181904 8.702351930826877 0 0 0
292 1 0.30580859573085384 5.300282014138982 9.21383392377131 0 0 0
200 1 3.384353131058847 9.03838439863228 4.90945692723491 0 0 0
76 1 4.8234356284090145 7.255254999828057 5.051447922942385 0 0 0
300 1 6.950756633746522 5.081338138477505 5.174651548894726 0 0 0
294 1 4.935144334814805 5.065599605856729 6.445806295570532 0 0 0
197 1 6.948510433161326 6.866910352105783 6.962803217347849 0 0 0
166 1 6.637634067061478 8.819423586888604 4.94938613128916 0 0 0
327 1 5.367671939623589 7.037549285153793 8.978793779911355 0 0 0
361 1 5.074474361789676 8.354547661827809 7.2406259569182145 0 0 0
489 1 6.841037038283002 8.783803816237894 8.640530672757235 0 0 0
426 1 7.203589317878249 5.085745656207342 8.71677905193558 0 0 0
176 1 10.35351559216353 5.101052696503457 4.672632821059311 0 0 0
430 1 10.346877485296169 4.972750854343107 8.519945459312282 0 0 0
208 1 10.408671581360304 8.655592769771948 5.046167602278567 0 0 0
330 1 8.508278663418588 8.687110579529298 6.463643180597212 0 0 0
298 1 8.70992957213723 5.155861891471475 6.630499453770302 0 0 0
172 1 8.463392623845648 6.810838259258551 4.746105736760155 0 0 0
459 1 8.79410928663993 6.785008399299134 9.169570524806721 0 0 0
305 1 10.494752270185849 6.865206506309046 7.1388182429780525 0 0 0
307 1 11.742768291218686 4.779231674222127 6.8087701264851646 0 0 0
333 1 12.040534246570134 6.745986311846582 5.3449608211496855 0 0 0
302 1 11.931421610394672 8.904953587928345 6.8909304395171285 0 0 0
336 1 9.757187084649399 8.729582003162179 8.34137215214279 0 0 0
335 1 12.142397439282364 6.905342167290339 8.583851985184811 0 0 0
180 1 14.292886975118714 5.079784351158538 5.259421902781972 0 0 0
337 1 14.31225209603629 7.136066498246511 6.482430305775167 0 0 0
562 1 13.952426232460631 5.112003519518274 8.242361369887256 0 0 0
334 1 14.149378919223864 8.510780771677421 8.533322122453196 0 0 0
306 1 15.978613768053371 4.911839075874268 7.309668363396013 0 0 0
340 1 16.11957328454451 6.76863062441562 8.499804850090193 0 0 0
216 1 16.49468225765138 8.765094511009396 6.821282300174084 0 0 0
211 1 16.264969230423777 6.502837999216276 5.534413217288548 0 0 0
310 1 19.91590769242425 4.756504719843907 6.69659928820925 0 0 0
184 1 18.33229725873974 5.003371443422187 5.273022673649382 0 0 0
341 1 18.059884320238474 6.786887572072374 7.2799378776362165 0 0 0
210 1 17.99612466472439 8.807350522807127 5.198796470678086 0 0 0
343 1 19.869313075232306 6.459243453052465 8.621962812118129 0 0 0
312 1 17.66207323518762 5.0282292800425665 8.84362094655051 0 0 0
215 1 19.71302468105837 6.948341080280985 4.768713795107342 0 0 0
344 1 17.56015657763914 8.849335813041513 8.912284205640983 0 0 0
373 1 19.818121343866643 8.594123597533269 6.8540609247600655 0 0 0
219 1 23.460531877461385 7.009415220053049 5.263400623686222 0 0 0
188 1 21.820610952734764 5.05528305041146 4.952611428115425 0 0 0
314 1 23.312835813535866 5.023172525878992 6.906063822994664 0 0 0
345 1 21.263024594821868 6.536209682773478 6.64023901425148 0 0 0
346 1 23.263658822718018 6.681833079616922 8.597467557648574 0 0 0
245 1 21.561210963376247 8.86294607949887 5.07475215059386 0 0 0
224 1 22.959424171483338 8.380521183077908 6.817910973470707 0 0 0
348 1 21.2384786815086 8.464223527316546 8.686700652028437 0 0 0
316 1 21.585329260409257 5.05775256402964 8.865834002712853 0 0 0
325 1 28.455572160414373 8.704617230034238 5.160668462159415 -1 0 0
324 1 28.344326403844082 7.123887588367712 6.941092881845237 -1 0 0
164 1 28.21784154556397 5.164697577858914 4.875172138503767 -1 0 0
222 1 25.318852452797866 6.842820900624275 7.243890623254531 0 0 0
192 1 24.512959522671334 4.925120939917442 4.904757193944508 0 0 0
223 1 26.381697693317125 6.709405810595933 5.1525734670354115 0 0 0
318 1 27.25215444730707 5.231691756529092 7.213528785389079 0 0 0
378 1 26.3584358540678 9.128633219594347 6.873446590442337 0 0 0
351 1 27.031383238314532 7.025961456285832 8.686076328738391 0 0 0
253 1 24.94526243755906 8.620982509828291 4.867809229927814 0 0 0
320 1 25.252259425691793 5.01231876155796 9.001078956709273 0 0 0
352 1 24.592206235940743 8.559222297553536 8.876082264439068 0 0 0
1283 1 1.5425149738572448 14.05698556510957 8.851575900815883 0 0 0
358 1 1.5901525436893778 11.219614478912398 4.98425410839984 0 0 0
227 1 1.49372806278921 12.567052393392327 7.178050373599276 0 0 0
1287 1 3.233276422561354 10.399731728105797 6.989459089975263 0 0 0
232 1 3.645304360334434 12.499908489482875 5.671312847181227 0 0 0
360 1 3.6085543537706997 12.532011977306418 8.536409423137862 0 0 0
485 1 1.6829636337840617 10.719283775111453 8.481687798156393 0 0 0
226 1 1.9085874830942653 14.060535105284606 5.230989390891818 0 0 0
326 1 5.303863649223833 10.423975746532722 5.506368986085311 0 0 0
1291 1 7.183567398078517 12.291329568865851 5.3862134935618995 0 0 0
204 1 7.071276294800531 10.76085619954731 6.930829048958591 0 0 0
363 1 5.207202056161241 12.162126617879402 7.198128968334065 0 0 0
359 1 5.147838683949211 10.605295051322008 8.699342980721704 0 0 0
206 1 7.097741746620347 12.515185575091728 9.225304134086516 0 0 0
486 1 5.672075443069465 14.152441917839056 8.82122274179371 0 0 0
1167 1 10.388943265359597 12.413839335062333 4.879550604930779 0 0 0
198 1 8.52837988884735 10.352866844315177 5.010126110029224 0 0 0
1419 1 8.553946948947788 10.533371799327107 9.032155133003096 0 0 0
239 1 8.62406564509817 12.512121520432421 7.276856883499557 0 0 0
240 1 10.14435929290012 10.67965881774432 6.777832706100398 0 0 0
368 1 10.44694722473193 12.461991669827725 8.946233690391104 0 0 0
1298 1 15.91046822502236 14.164136180051583 5.162669569400509 0 0 0
205 1 14.360562414811524 9.419765309250925 5.645933698045189 0 0 0
111 1 12.239372199037064 10.599450898887477 4.811791103560171 0 0 0
366 1 12.142458365066334 10.550473919325567 8.618632811071777 0 0 0
1297 1 12.162982068721059 12.520743848918647 7.266812102105136 0 0 0
244 1 13.743185534927287 12.279920036289138 5.407762014200083 0 0 0
369 1 14.021213413437136 10.875587997225233 7.239194141204068 0 0 0
372 1 14.417302320574796 12.693832766027468 9.27565666973125 0 0 0
370 1 15.693993534524667 12.728804634615758 6.917870286167581 0 0 0
371 1 15.973505133687574 10.66455793368728 8.548397057965225 0 0 0
338 1 16.158212877440267 10.707402219645807 5.5648140593610185 0 0 0
248 1 18.35926981643187 12.674083291365399 5.077492287558158 0 0 0
247 1 19.490837916356107 10.158774140743423 5.567062723698522 0 0 0
243 1 17.709841428108163 10.608473294070699 7.30216001709407 0 0 0
376 1 17.817622312799717 12.597689472625543 8.78568585320402 0 0 0
374 1 19.52855995843167 12.59794205073628 7.327817272931434 0 0 0
375 1 19.62189564296629 10.553748774302864 8.936548906737634 0 0 0
1179 1 23.257299833562072 14.157607879853256 5.034709922654449 0 0 0
379 1 23.190422703827323 10.490227178023458 8.01857282431895 0 0 0
380 1 21.449810002612402 12.257927735074366 9.088136207754934 0 0 0
251 1 23.41663377857651 10.758344985456452 5.259608093757455 0 0 0
252 1 21.006379132040866 12.332545993571962 5.327832731339264 0 0 0
342 1 21.16099590430979 10.69175434506036 6.683752159647697 0 0 0
1305 1 23.02341751296732 12.399320072699563 6.671172899286523 0 0 0
511 1 24.280207827705937 12.165592032539644 9.29345209149082 0 0 0
1281 1 28.4560837427323 14.125728385268962 6.780018021789288 -1 0 0
126 1 28.249883318828914 12.30304416292547 5.312440793505263 0 0 0
356 1 28.50847548356319 12.309539656138895 8.67987154334835 -1 0 0
353 1 28.284822575594205 10.572288409488436 7.104898708252006 -1 0 0
256 1 25.26441567829795 12.522140622551039 4.937611691260174 0 0 0
381 1 25.124678269082604 10.98439175410408 6.86870342586689 0 0 0
383 1 26.641790779791986 10.762804655442611 8.580089284917154 0 0 0
255 1 26.677770700103242 10.366885967599673 5.18974727077721 0 0 0
382 1 26.802271564159714 12.450221643978644 6.892786457247601 0 0 0
1309 1 25.027723177792833 13.776708896772751 7.0478515296284066 0 0 0
1311 1 26.619681691157197 14.15743819353112 8.869254912720212 0 0 0
386 1 1.7032229700727815 1.7272048741877835 10.889114126398484 0 0 0
419 1 2.2388111802319743 3.5414761193884545 12.786947506974874 0 0 0
421 1 3.6280086935474616 3.1711195588868377 10.658936512027982 0 0 0
392 1 3.153295703798676 1.4078652608030893 12.564864788957761 0 0 0
388 1 0.06912386342555404 1.706771351360097 12.506289875652252 0 0 0
417 1 -0.06225938728693489 3.7268580224331602 11.29633919293211 0 0 0
390 1 4.964909100322156 1.560632444455359 10.968788131139643 0 0 0
423 1 4.706743130567574 3.255002534301669 12.823649230947856 0 0 0
425 1 6.700470311222589 3.463474952071342 10.91633827514296 0 0 0
391 1 7.061403196558077 1.7060867666596533 12.404378361007822 0 0 0
553 1 6.620333548384042 3.6465306980861367 14.108817489696397 0 0 0
395 1 8.903409775054344 0.024098985780467208 12.20909489238576 0 0 0
394 1 8.926983442065731 1.7193137455026914 10.866896968524813 0 0 0
427 1 8.64680682303309 3.5392295652407153 12.598526483491279 0 0 0
398 1 10.737552166925113 3.564997806848348 10.4036679186904 0 0 0
526 1 10.83665061211535 1.6643422414827926 12.210791879684603 0 0 0
1513 1 10.897088376068671 -0.13327120069394388 10.986983058953173 0 1 0
558 1 10.228312434918024 3.2744031856993208 13.88122299568706 0 0 0
404 1 15.831405171402302 -0.14201107394351098 12.533283892994024 0 0 0
563 1 15.966415286984923 1.9566456509541625 13.957486685960157 0 0 0
399 1 12.319932843050912 0.2043612442506788 12.75168245085139 0 0 0
429 1 12.130150065136537 1.6656767815957858 10.408426521089124 0 0 0
400 1 12.45885281654812 3.3939934276575303 12.070793320625762 0 0 0
433 1 14.079241272847199 3.173729010800176 10.600863338716643 0 0 0
525 1 14.228387919537942 1.7515786810804215 12.458337481618972 0 0 0
402 1 15.978589392911754 1.1918648469171496 10.396229466694464 0 0 0
435 1 15.909848300246537 3.434400714431922 11.63860893921916 0 0 0
565 1 17.776273625019453 0.08806339689835874 13.94149828979362 0 0 0
407 1 20.161235876835757 -0.08361760960141634 12.306736280765637 0 0 0
403 1 17.76640095322415 -0.19809092865984113 10.53552249696522 0 0 0
437 1 17.940278045913765 3.518870944776111 13.834812243590013 0 0 0
311 1 17.914535206369063 3.0437823621836886 10.61382329040703 0 0 0
408 1 18.215282722273603 1.3885057851287765 12.270541985014669 0 0 0
406 1 19.907195914068463 1.2080330069826195 10.530938635090157 0 0 0
443 1 19.890539941852758 3.5569883550904677 12.554640647814711 0 0 0
439 1 19.60261654698697 1.7165680919089283 14.128037930232084 0 0 0
534 1 23.21426859190404 -0.15864504279098313 12.348987951113235 0 0 0
441 1 21.062750511446698 3.3154241217904126 10.55809245356718 0 0 0
410 1 22.793044437207158 1.5697123862274278 10.69098114885246 0 0 0
412 1 21.51780699226337 1.752833890757914 12.361936234270518 0 0 0
573 1 22.776009276766676 3.579648574971895 12.326653790008057 0 0 0
411 1 21.542599040242667 -0.06701280591502379 14.024417258196719 0 0 0
416 1 24.892402091626362 1.5422228586812294 12.77395857717753 0 0 0
442 1 24.85674644155806 3.3788345581752965 11.092727966713348 0 0 0
445 1 26.767075109220855 3.245938914730627 12.959772991182689 0 0 0
414 1 26.965376483462627 2.0604897362690884 11.075666157181338 0 0 0
413 1 25.363228557019248 -0.04336211439436735 10.822218842480952 0 0 0
581 1 3.175819573997883 7.1210041191735725 13.927789783223544 0 0 0
450 1 1.387878837022905 8.932589520017066 10.524827229441765 0 0 0
424 1 3.759102935076892 5.635172172213478 12.307292516448168 0 0 0
418 1 1.9768184494560574 5.467920723765118 10.949535624386547 0 0 0
451 1 1.3615826629184906 7.129107477558586 12.397336827332587 0 0 0
453 1 3.325957935573926 7.0423156290692255 10.733011047638064 0 0 0
456 1 3.177261973111114 8.673475996232394 12.318949437115988 0 0 0
449 1 -0.20419875168905577 7.028864736811808 10.604920283646944 0 0 0
479 1 -0.16319364880030918 9.352543556047975 12.336868109056217 1 0 0
585 1 6.687378099129641 7.097478649892155 14.138504994083261 0 0 0
428 1 6.372397868759671 5.473636309062639 11.8793349367783 0 0 0
422 1 5.496478971852293 4.898736894755579 10.06415497759767 0 0 0
455 1 5.237624202110178 7.56714985768339 12.351620461643599 0 0 0
457 1 7.1488085678858475 7.684812329113716 10.780698605329958 0 0 0
488 1 6.617563913416154 9.028999566240483 12.643886784479697 0 0 0
454 1 4.832832978385634 9.041369947875985 10.29227480901138 0 0 0
460 1 8.501198611899765 8.87654992347861 14.010675132513056 0 0 0
554 1 8.662595304334845 5.10475649946963 14.074779550968021 0 0 0
432 1 10.454265423045605 4.999652203743187 12.28325583947364 0 0 0
461 1 8.598579209195027 7.061147657063109 12.498816114014602 0 0 0
299 1 8.715772645165865 5.1025724414836295 10.84786898251017 0 0 0
331 1 10.843539686108208 6.788070447196847 10.453808435837102 0 0 0
458 1 9.04997199809801 8.873967722230828 10.740192711916906 0 0 0
464 1 10.854832641616264 8.740721457381852 12.246616460437723 0 0 0
589 1 10.637916163858018 7.204255768068372 13.772951474771785 0 0 0
596 1 15.397773691786783 8.882772688964497 13.431479956116378 0 0 0
431 1 12.525083738758722 5.06582432034928 13.890358566281002 0 0 0
465 1 12.336102776766232 5.16025239241552 10.03736942285442 0 0 0
466 1 15.541836155039492 8.691618613300909 10.389877654210851 0 0 0
463 1 12.665212669716741 6.930447060520997 12.41017046654252 0 0 0
462 1 12.335074483740602 8.55721824580937 10.237393231791136 0 0 0
436 1 14.188980405821939 4.781062246611842 12.348972461829801 0 0 0
468 1 13.746915308412781 8.854570467367354 11.97388687963327 0 0 0
367 1 13.610978178409875 6.894277979639417 10.55269037990819 0 0 0
434 1 15.687865212899043 5.006067073333762 10.312500843796231 0 0 0
467 1 15.670773414219337 6.705901770196398 11.941777450179366 0 0 0
594 1 14.304420087862253 6.64820611988831 13.72573487421538 0 0 0
470 1 19.695767675221017 8.874567835976976 10.444628195355174 0 0 0
440 1 17.381035697733246 5.160407540535776 12.269693462729936 0 0 0
339 1 17.567270946615483 6.86683447496527 10.41032762103458 0 0 0
469 1 19.2984707269768 6.888764199765831 12.02974577272893 0 0 0
472 1 17.375477252087094 8.682392890833562 11.758686885063305 0 0 0
438 1 19.470473158408794 5.334814483711674 10.533163098790224 0 0 0
597 1 17.346593903055254 7.18880994328594 14.13090692391101 0 0 0
598 1 19.224653082164803 8.827520921312134 13.91356741165544 0 0 0
570 1 23.5680176629004 5.31248819807432 14.099531054117584 0 0 0
476 1 21.031931230177488 9.056465970824652 12.114401124294835 0 0 0