LAMMPS data file via write_data, version 29 Oct 2020, timestep = 300000

2048 atoms
1 atom types

-0.2362449125643149 28.588244912564875 xlo xhi
-0.2362449125643149 28.588244912564875 ylo yhi
-0.2362449125643149 28.588244912564875 zlo zhi

Masses

1 58.933

Atoms # atomic

35 1 1.631657077834289 3.301232352515965 1.5424189715705796 0 0 0
130 1 1.4442468114781548 1.349925756617841 2.8716139933270086 0 0 0
165 1 3.8110987109156103 3.6108951793440425 3.4508005718583843 0 0 0
7 1 3.581846015760135 1.9032378391140683 1.3539239293281762 0 0 0
1417 1 7.40567952889854 14.010186274756748 10.781779440424982 0 0 0
637 1 24.522937503278136 10.728085092687845 13.867955742318756 0 0 0
605 1 24.793996571530137 6.976012678180811 13.928511719237806 0 0 0
9 1 5.131100070653348 0.11293495207465898 1.8325303941807323 0 0 0
8 1 5.359998774431314 3.6015774909101403 1.8125671444843312 0 0 0
12 1 5.127003781704882 1.8012415798493673 3.756224024583529 0 0 0
134 1 6.697589570633277 1.5203728550319668 1.7746378590410128 0 0 0
170 1 6.724510583333464 3.522491309591232 3.6742230832763525 0 0 0
517 1 3.2621795590546587 0.16770274506038052 14.105749436969479 0 0 0
73 1 7.391797238523211 7.12896791831633 0.0933186386851701 0 0 0
570 1 22.95209304368658 4.984848626527235 13.940249412345523 0 0 0
908 1 8.542650561164331 1.6605321842345184 3.349274651872648 0 0 1
43 1 8.844433720122659 3.54226622143006 1.5025931409286857 0 0 0
16 1 10.511924459911175 1.3383507308584153 1.844326538966432 0 0 0
173 1 10.378361998408122 3.2402842917318235 3.4146262219159973 0 0 0
273 1 14.28518955764391 -0.21247298744288404 7.230456531892234 0 0 0
47 1 12.68461373803741 3.877399902962604 1.664762112191136 0 0 0
622 1 12.494320909214135 12.645248567940234 14.127488160941923 0 0 0
142 1 12.17220969752136 2.021574170861174 3.0845531644317177 0 0 0
20 1 14.238152842937698 1.754830842481674 1.4563551177008887 0 0 0
177 1 14.314236275660603 3.6783544850257934 3.679600529929729 0 0 0
51 1 15.984355614803215 3.659846868094991 1.9539313468830755 0 0 0
553 1 6.939635122513182 2.9984346318712 14.066351904283014 0 0 0
41 1 6.904464166545801 3.3629032413513844 0.1711225944254574 0 0 0
136 1 1.5577640834341366 0.14118849358811236 4.817927407312975 0 0 0
1169 1 14.047603423821156 14.017912582536914 3.523076201057734 0 0 0
146 1 16.0886352387965 1.5918147262208278 3.0708766863192047 0 0 0
24 1 17.872076676721782 1.8285555304408705 1.2672934415661359 0 0 0
181 1 18.147043280436982 3.2303537947298575 3.17201581841965 0 0 0
55 1 19.42926010414552 3.197697321707892 1.0678170095927704 0 0 0
156 1 19.506975161203343 1.4056166369826792 3.2415068558508087 0 0 0
150 1 21.646126041294856 1.159626129869313 1.6927907400289004 0 0 0
28 1 22.81649850299545 1.4000001876588588 3.674549184707651 0 0 0
59 1 22.869798232768815 3.2096888303692057 1.9022356184690294 0 0 0
185 1 21.138947137704584 3.239940254446154 3.3318045852281313 0 0 0
158 1 25.079146376912206 2.009596842943946 1.6977643380802598 0 0 0
481 1 28.28860126960332 11.529679275718824 10.562586636607156 -1 0 0
4 1 28.42255704325983 1.5216619281618908 1.2881224282802737 -1 0 0
1047 1 19.443330886084333 14.157914517476305 1.9088713949821896 0 0 0
162 1 -0.1683106668560157 3.039630188894652 3.2772760108943224 0 0 0
161 1 26.41171164835442 1.8730460113254441 3.2914894426575585 -1 0 0
189 1 24.681539657554687 3.504737457827015 3.649684699354197 0 0 0
63 1 26.93015078266096 3.442993867083764 1.8305409374187986 0 0 0
544 1 22.77335145247612 1.5067165142865035 13.940802972695048 0 0 0
601 1 21.267718994412625 6.9520103153200274 13.311551558641085 0 0 0
49 1 14.044514955578617 3.9689204693204445 -0.07729221953932369 0 0 0
163 1 1.4830051972161244 5.043754235846405 2.9167575815397955 0 0 0
40 1 3.7279121411877547 5.353290556023467 1.6540357141070043 0 0 0
67 1 1.4923561968505634 6.909645261668626 1.4277844270596185 0 0 0
71 1 2.9500912761877744 6.956101668547629 3.262167646350881 0 0 0
72 1 3.2417992615049003 8.9657305189339 1.6065419603174778 0 0 0
194 1 1.5499494795275734 8.545833593886423 3.5738541748826096 0 0 0
193 1 28.505243233468875 7.294657486960932 3.0616263082022996 -1 0 0
97 1 0.09802691105973599 9.004376943002544 1.4083833070449705 0 0 0
263 1 4.425207008634737 -0.1758710817208231 8.485938829991754 0 0 0
169 1 5.463827935512335 5.578450501378186 3.392059118476202 0 0 0
44 1 6.882246390005977 5.077578740075566 1.7089822350364 0 0 0
201 1 5.298771614002468 7.302355372930142 1.4580519572943065 0 0 0
76 1 5.262507579035975 8.654527285966035 3.5692055236021343 0 0 0
329 1 7.513418671749428 6.8650773036165305 3.2827878583176036 0 0 0
233 1 6.6388239234747255 9.40224625428067 1.3070205690866845 0 0 0
198 1 7.241506270157989 8.755487506886288 5.334555526112069 0 0 0
45 1 12.491899036090938 0.1152456929022403 1.504380699222551 0 0 0
48 1 10.612624791588326 5.332562001983943 1.6575437859179283 0 0 0
75 1 9.080011879859578 7.03600990758181 1.5802350565384762 0 0 0
203 1 10.543794714215615 6.956264696171158 3.1770097523799685 0 0 0
202 1 8.690852722199537 8.835582384933986 3.2489219025563902 0 0 0
171 1 8.717555822609759 4.988722194388391 3.3280937932516856 0 0 0
107 1 10.71312559557905 8.898001122142801 1.5326687676413275 0 0 0
1289 1 7.495343451151157 13.725146373153926 6.934875687350984 0 0 0
279 1 19.92851621603129 -0.008740230898662993 8.856530347768528 0 0 0
80 1 11.882658281828116 8.945500398147384 3.755526960388863 0 0 0
174 1 12.373053709861756 5.21554271959169 3.4076047480311917 0 0 0
79 1 12.262285731368722 6.8414471556760805 1.6830859767521118 0 0 0
52 1 14.555506799096845 5.453432720568279 1.9987681252807121 0 0 0
209 1 13.730170285454692 7.374849314058298 3.2587731693391153 0 0 0
83 1 16.148963260397124 7.153589087791869 1.357590812968655 0 0 0
178 1 15.885327629384049 6.091113904362816 3.6365749592860253 0 0 0
82 1 14.023433600895133 8.938115170711022 1.1772512787392206 0 0 0
84 1 15.81141858244145 8.830504493815761 3.415867692969237 0 0 0
56 1 17.867478472133563 5.495396942463908 1.7895927515714818 0 0 0
182 1 19.65630977879568 5.08362458628247 3.234758347419212 0 0 0
213 1 17.764992145057477 7.32824720252193 3.564588632712702 0 0 0
87 1 19.755446777317466 6.949396431847562 1.5178854354671611 0 0 0
214 1 19.437451468729122 8.829125661395581 3.475664742612302 0 0 0
88 1 17.446489356497196 8.961438802173488 1.6435985201199472 0 0 0
60 1 21.268302658308464 5.0465951456436455 1.4315692506889317 0 0 0
186 1 22.955628100444947 5.344408783139669 3.549436850790004 0 0 0
91 1 23.21662179783278 7.383175515847051 1.5378226148275593 0 0 0
217 1 21.022115199765885 6.798228983140336 3.3678706058587498 0 0 0
218 1 23.270198545380758 8.863683824654233 3.3712969426687436 0 0 0
92 1 21.100856760063657 8.74677990941517 1.8765116640067339 0 0 0
64 1 25.033716534866606 4.870103899312365 1.6185886958447657 0 0 0
36 1 28.45413285253807 5.07109548039774 1.2165078056407916 -1 0 0
221 1 25.359936548842228 7.54001421135905 3.5018213363043063 0 0 0
190 1 27.14352993907211 5.386710847417211 3.0871880670246874 0 0 0
95 1 26.874548463706653 7.533171500606318 1.592590196962113 0 0 0
68 1 26.586965276102745 9.564272614973046 3.0634129242582064 -1 0 0
96 1 24.70993666855695 9.113276567722345 1.4543694496246926 0 0 0
253 1 24.780540652497642 9.014964819357834 5.444394947571914 0 0 0
93 1 25.21428332876861 6.910154614843131 0.08637426434109124 0 0 0
557 1 10.623412915949803 3.2790685670807407 13.979537051484478 0 0 0
99 1 1.4191551851648723 10.902317950687275 1.496484774768023 0 0 0
226 1 1.8757146285830304 12.195300006063087 3.3597143479847786 0 0 0
229 1 3.3340191336617893 10.271031622315597 3.405967194617329 0 0 0
104 1 3.517453537713489 12.634451075454724 1.3554116802215994 0 0 0
1181 1 24.51873540101529 13.6010097871387 3.5943455057150686 0 0 0
14 1 12.354260579408079 2.034711283597995 0.08464781503760238 0 0 0
103 1 5.085675411723484 10.823100799653652 1.2180080828397386 0 0 0
230 1 4.921045607218075 12.491833979287687 3.2102883431640334 0 0 0
236 1 6.777921441440452 10.794051740051254 3.2040690256612274 0 0 0
1035 1 6.970136351881507 12.409875879753987 1.8419778899496992 0 0 0
129 1 28.259580653894766 0.1411531473707185 2.8968576299442073 -1 0 0
235 1 7.09468145018179 12.221913948240543 5.052632468871726 0 0 0
234 1 8.750152624588718 12.287234927546104 3.2017378722197125 0 0 0
108 1 8.986107930613978 10.772638226128603 1.6149449804995162 0 0 0
106 1 11.201566816818186 12.409246545231907 1.025099667941877 0 0 0
237 1 10.363860364209156 10.698667074638704 3.442077436208155 0 0 0
1311 1 26.800393238076936 13.840963971328502 8.506037292458178 0 0 0
31 1 26.368820923559696 0.01790424309688221 1.532427390712896 0 0 0
1285 1 3.760963484040124 14.129065786351767 7.035201091837854 0 0 0
111 1 12.501941466453147 10.375283435052534 1.7404340796120525 0 0 0
238 1 12.098133537609042 12.601959376859607 3.462277370997495 0 0 0
206 1 14.182968663374764 10.461696213055465 3.818527048617473 0 0 0
241 1 13.85874467307668 12.272676657685995 1.489630238895167 0 0 0
1272 1 19.629706408074874 -0.13272007496366517 5.280682209139453 0 1 0
116 1 15.730226941001934 12.334200711252045 3.446292801656665 0 0 0
115 1 15.938875271452746 10.59055143211018 1.458524220382624 0 0 0
120 1 17.585033676459645 12.704917082608269 1.9796854583129586 0 0 0
249 1 19.714630484832874 12.401078482088367 3.511625757125459 0 0 0
212 1 17.83062497194689 10.232658981041656 3.6579194049969805 0 0 0
242 1 19.306032685956694 10.854345755447852 1.8257660867622518 0 0 0
447 1 28.17195416129539 3.6049936605748125 13.776640290940934 0 0 0
220 1 21.509995565209074 10.80404032579995 4.011372693197325 0 0 0
124 1 21.20797970849423 12.609023139257092 1.6339474672387317 0 0 0
123 1 23.129471213484706 10.722182446172415 1.4441114358609597 0 0 0
250 1 22.610176013698904 12.354750865727285 3.335095261892298 0 0 0
141 1 13.5947790414385 0.3222252006023447 3.627039717131666 0 0 0
5 1 6.980007624201401 -0.2086468075270498 0.1751674907949038 0 0 0
1943 1 21.40336593115714 13.900063644140564 -0.007962807704726932 0 0 1
225 1 0.27635039310636944 10.447822641330497 3.535256496422394 0 0 0
100 1 -0.06525927117011321 12.821453140964591 1.5530911027117502 0 0 0
128 1 24.910860135056787 12.688908602230859 1.470222929042634 0 0 0
254 1 24.652995928367964 10.93863461568139 3.3185643011787884 0 0 0
127 1 26.864510429930597 10.969197805004551 1.360583074968111 0 0 0
126 1 26.641042590642456 12.543108614558527 3.0094286824126546 0 0 0
277 1 17.482344267294565 -0.1550714722999034 7.156493607393955 0 0 0
258 1 1.333350452634498 1.8481473731316158 6.3097029040520605 0 0 0
291 1 1.4683001938209386 3.6804705177068953 8.643199946542294 0 0 0
290 1 1.8095981823780614 3.34917642475904 4.391748567202044 0 0 0
261 1 3.4477498424845763 1.9717871053381608 5.131396689045409 0 0 0
264 1 3.43092360323005 1.752524180669404 8.241091624940793 0 0 0
293 1 3.1399808744893973 3.9610914708716454 6.9213123210731435 0 0 0
405 1 17.735320193395943 0.052592426548992544 10.635957061081179 0 0 0
167 1 5.317991283638494 3.9398476080136042 5.373675063573745 0 0 0
135 1 6.897800498637014 1.6811657042612538 5.3031528919340465 0 0 0
262 1 5.410376720146994 1.2414827012269847 6.861807699714013 0 0 0
297 1 7.025979074097957 3.2555840864935077 7.21622563941789 0 0 0
268 1 6.88995765041909 1.4594737055886675 8.736040150645879 0 0 0
295 1 5.092930437989952 3.2848253044455813 8.554480493047313 0 0 0
81 1 13.867935309579655 6.974313260012423 -0.006976972837816647 0 0 0
144 1 10.458283257142408 1.454580669044408 5.398231477370605 0 0 0
138 1 8.648512849060989 3.4467165408639295 5.1661453795038605 0 0 0
266 1 8.549715835687405 1.7347300674664028 6.945205149246476 0 0 0
301 1 10.787892140408859 3.248595859425039 7.126765669490277 0 0 0
272 1 10.354972920668121 1.2180933203852276 8.66665081593803 0 0 0
299 1 8.769329692464161 3.2551777511672495 8.956459372392382 0 0 0
270 1 12.387029666163524 1.5435705037471792 7.174768320888124 0 0 0
145 1 15.735820603708794 0.08985060233206721 4.803799835394879 0 0 0
478 1 24.707719829448095 10.840615390371296 10.778164612094793 0 0 0
512 1 24.471578871143834 12.518763251609696 12.459074951685759 0 0 0
389 1 3.3326043125634746 -0.19880382480816872 10.477386682923516 0 0 0
175 1 12.238385666272668 2.998338225977063 5.365856197423207 0 0 0
303 1 12.300487946402901 3.238827115728238 8.836326346353285 0 0 0
148 1 14.118472166639709 2.001719768240589 5.138243827241323 0 0 0
305 1 14.024787391006063 4.122357779218021 7.0935758010323875 0 0 0
276 1 14.467228930901241 1.5157889702784166 8.586375851390725 0 0 0
307 1 16.08104553897372 3.9395046645224596 8.7251291665929 0 0 0
274 1 16.090759791602217 1.782177425207729 6.660161780985678 0 0 0
179 1 16.17305800951936 3.3599511214989777 5.062980203394259 0 0 0
575 1 24.93660838289209 3.2885074055339016 14.110932719130021 0 0 0
510 1 26.541369694742485 12.919813699795714 10.78811787343562 0 0 0
183 1 19.38794827295662 3.748486642845978 5.1280818050052295 0 0 0
152 1 17.91760084844214 1.6321587258470078 4.948192054389368 0 0 0
309 1 17.73056417373511 3.478270149932466 6.916064560887011 0 0 0
284 1 19.51062375256833 3.3697551868281947 8.719135350217153 0 0 0
280 1 17.69289573200669 1.6561347740776564 8.958976052442235 0 0 0
278 1 19.579051774113097 1.5722773914775088 7.192999051001051 0 0 0
525 1 10.692072866329333 -0.1209347984698599 14.146603856342102 0 0 0
154 1 23.183377548854793 1.2386043362507866 6.774812712897476 0 0 0
187 1 23.11521942852005 3.011513936005871 5.194439752206875 0 0 0
282 1 21.02578468164819 1.6264472364767306 5.38105412055182 0 0 0
313 1 21.09794329496132 3.4984536060415934 6.912464062595347 0 0 0
281 1 21.89494258727045 1.629130299383665 8.422009604488593 0 0 0
315 1 23.47719310249547 3.2199767156405583 8.5162608605754 0 0 0
439 1 19.48952345760887 1.5691033913648622 14.110766635365083 0 0 0
320 1 25.2782441407075 4.924657149982869 8.351733238678019 0 0 0
1159 1 5.278062610657622 14.1569921373426 4.993227735290017 0 0 0
617 1 5.00428558106689 12.422832530290773 13.241331149585923 0 0 0
609 1 26.72127405250481 10.781697615507733 12.438334714443856 -1 0 0
1437 1 24.626984405749745 14.029104779323394 10.52194393446214 0 0 0
260 1 0.05636317137818003 1.7002309143056045 8.709422769632909 0 0 0
289 1 -0.2271285292262619 3.5377019390909488 7.065592232141574 0 0 0
191 1 27.87223503598947 1.1896751178344158 4.755398082953036 0 0 0
317 1 24.934310388522825 3.4944169203127107 6.544668958768296 0 0 0
160 1 25.0628859417646 1.5022845380170846 5.175173222842957 0 0 0
286 1 26.236795385117652 1.473660532769346 7.058231427034275 0 0 0
319 1 26.954722867251512 3.1033983846437643 8.765812547056278 0 0 0
349 1 26.669735991071136 3.4068134533034984 4.9864979147321495 0 0 0
259 1 1.5715865269408538 -0.1457750381544045 8.5525258310526 0 0 0
200 1 0.6338347616107626 7.057587199878589 5.085513716000253 0 0 0
195 1 1.366715026749172 5.387371661828459 6.8875656271504795 0 0 0
323 1 1.56171805258815 6.8852204766144665 8.789761054927187 0 0 0
325 1 3.240927760141948 6.73903496517479 7.151284071183373 0 0 0
326 1 3.3403867715285074 8.28866957368089 5.031680024133718 0 0 0
328 1 3.203830031406188 8.724210329192381 8.694435765620492 0 0 0
322 1 1.6106872829980574 8.569830427410722 6.831474234795657 0 0 0
168 1 3.1699160631666743 5.746222856512217 5.107507935434147 0 0 0
324 1 28.29166755734817 8.669606362284851 9.03463015925188 -1 0 0
296 1 3.370686949988083 5.094951489831668 9.018625862310957 0 0 0
426 1 7.1986415521274205 4.868437406250182 8.746838070201324 0 0 0
294 1 7.043129424255642 5.365700039014871 5.0321980596197315 0 0 0
166 1 5.4640005481882765 7.110736836956799 5.14845567117541 0 0 0
197 1 6.6876409768550396 7.231896350506828 6.965222944375432 0 0 0
300 1 5.141562172955525 5.504955957319732 7.131195726447088 0 0 0
199 1 4.959720597043368 8.542892509995795 6.923629137322934 0 0 0
489 1 6.997994965731715 8.745669455969526 8.833529407766024 0 0 0
327 1 5.129937868310075 6.799930840311344 8.898373247656249 0 0 0
330 1 8.544937401574458 8.340531141764636 7.044550047744146 0 0 0
172 1 9.219587355754456 6.879403720038202 5.119892628305861 0 0 0
298 1 8.852384383402818 5.037906896028945 6.795495179491006 0 0 0
332 1 8.634657412970792 6.760173481873038 8.660064173747289 0 0 0
176 1 10.449756984295846 4.94710841776775 4.86274829016009 0 0 0
208 1 10.394808817392073 8.75702478953706 5.17788004359734 0 0 0
333 1 10.413190453406193 7.043822253222154 7.473205566220111 0 0 0
336 1 10.751124586550734 8.831826308037273 8.826549656951164 0 0 0
302 1 11.85858893828719 5.385444336879345 6.858872928907508 0 0 0
304 1 10.24834212797643 4.97787406483047 8.823689873899196 0 0 0
335 1 12.14128383153717 6.749193499001986 8.966143465949072 0 0 0
207 1 11.918794704305219 6.898886054852863 4.935361667442612 0 0 0
180 1 14.107286031977852 5.316200045190371 4.9440594109697935 0 0 0
334 1 11.98096728502715 8.93490962272804 6.8551359065482 0 0 0
205 1 13.832445408111123 8.885487849303267 5.427315555892896 0 0 0
337 1 14.296277231039161 7.293342741708322 7.072346838000643 0 0 0
308 1 14.270271952169713 5.595685305190552 9.183992606422082 0 0 0
216 1 15.817753008968696 9.093765610753634 7.3821660974315595 0 0 0
367 1 13.876169272375288 8.414331111663067 9.18881433087315 0 0 0
211 1 15.939149111459384 7.26243749121268 5.6714960653040585 0 0 0
306 1 16.283800115347482 5.401603177907624 6.9928886345511865 0 0 0
340 1 16.166973293523625 7.052112046753155 9.148730822021706 0 0 0
215 1 19.520054123866352 6.703400794608854 5.223794674381053 0 0 0
310 1 19.70494620644581 5.316738880524836 6.818579580022525 0 0 0
184 1 17.79741206698072 5.078856367016615 4.392558351534091 0 0 0
341 1 17.659704471299356 7.272994533697088 7.270263297124374 0 0 0
373 1 19.46190231619714 9.003695929856894 7.223154982597897 0 0 0
312 1 17.874580063404558 5.056039945685988 8.767822201248778 0 0 0
210 1 17.72679929250056 8.716470137381021 5.268103478372508 0 0 0
344 1 17.767751872254344 8.935566371566317 8.911740027877181 0 0 0
343 1 19.573300512240515 7.000629781314431 9.152265998392648 0 0 0
219 1 22.991597243393045 7.275171771955383 5.140868118487551 0 0 0
245 1 21.276098844027594 8.503772691476469 5.197021241231101 0 0 0
188 1 21.456661109378253 5.158468442939926 4.942808962153515 0 0 0
316 1 21.792385885758712 5.28219631877504 8.436106588522815 0 0 0
314 1 23.403792326361334 5.457453966842225 6.430226511853709 0 0 0
345 1 21.465322568167124 6.93408959873843 7.041136306878955 0 0 0
346 1 22.815895830833234 7.020902727614451 9.19574090316519 0 0 0
224 1 23.1286869080908 8.64889739654648 7.449205452421025 0 0 0
352 1 24.937501755528857 8.733222089011393 8.649424294300701 0 0 0
348 1 21.086736775335616 9.12173844934248 9.217689960645801 0 0 0
164 1 -0.18617279403730436 4.893935523812999 4.8035273906055895 0 0 0
292 1 -0.23480572126286603 5.419688146393448 8.716784519840658 0 0 0
192 1 25.126671897027926 5.527560905533416 4.483416400613563 0 0 0
196 1 -0.1994193471422066 9.255892783449703 5.1418811068127805 0 0 0
321 1 28.44962873061767 7.187175009576292 7.000219812734109 -1 0 0
222 1 25.02160061653114 7.324105734026761 6.792111870770333 0 0 0
223 1 26.91538255357476 7.176542775577676 5.4108243577925625 0 0 0
318 1 26.96394530330423 5.422964242599982 6.65276020440055 0 0 0
351 1 26.88571970147227 7.043202219593225 8.7513927315838 0 0 0
378 1 26.824693407649775 9.123294662824218 6.9741394290094325 0 0 0
62 1 26.548670085454958 4.822572190427616 0.09140088253729828 0 0 0
1309 1 24.8698479900983 14.054627143424188 6.957911221831686 0 0 0
18 1 15.754771972131328 1.6867513404991876 -0.1450848669651108 0 0 0
232 1 3.470559881330194 12.628306040863263 5.2351648732272755 0 0 0
357 1 1.9680105744324545 10.419552432132761 5.532616136283655 0 0 0
354 1 1.7892585195068653 12.588476574690697 7.162446229963976 0 0 0
355 1 1.7206647270599196 10.692028496950497 8.625536482072222 0 0 0
485 1 3.380432913962106 12.748048162567962 9.056553636853756 0 0 0
356 1 0.23451908595117826 12.753201404696467 8.576120744280859 0 0 0
353 1 -0.09708062888946706 10.92779038850593 6.584410835499654 0 0 0
17 1 14.387274653548783 -0.12413654695799531 -0.20616271902523056 0 0 0
358 1 3.6207576102824226 10.983681433750654 7.274987777332106 0 0 0
231 1 5.072482712072476 10.85613532097106 5.077901968072262 0 0 0
486 1 7.378579884297724 12.266661283987297 8.884122592426623 0 0 0
360 1 5.552731950961008 12.424179017606175 7.090116877968696 0 0 0
361 1 7.1674033541096005 10.53878302214228 6.93292367229009 0 0 0
359 1 5.631542194645886 10.49616180583213 8.699651637737162 0 0 0
1431 1 19.196353421210972 14.040060234991916 12.386679568097554 0 0 0
633 1 21.23166824379573 10.670288480029829 14.018003816413806 0 0 0
204 1 8.691723292690563 10.394446750975977 5.000004241013633 0 0 0
240 1 10.613684287853907 12.364803724174752 5.349856812669516 0 0 0
362 1 9.271901322705316 12.437586358945325 7.201034843379517 0 0 0
365 1 10.281546415494931 10.328949216788004 6.768292940969482 0 0 0
363 1 8.955404786240893 10.536919393758234 8.781781967863843 0 0 0
368 1 10.95548516667578 12.130428451869232 8.754524517501375 0 0 0
602 1 23.030557082636598 8.822805657286489 14.088851493451392 0 0 0
484 1 28.406130569409353 13.089884078305655 12.548482029523266 -1 0 0
287 1 26.72403152660894 -0.21450630775462542 8.892931881198166 0 0 0
1167 1 12.300461524611496 12.386164642423909 7.138991509135273 0 0 0
239 1 12.412854053988676 10.63828123538259 5.212349855616509 0 0 0
244 1 13.839089753570407 12.431509656732011 5.244101215770351 0 0 0
369 1 14.081667643072883 10.877527463459748 6.9091011439834045 0 0 0
372 1 14.338456440907747 12.845256508226433 9.120126623306035 0 0 0
338 1 16.018606437597867 10.243989606747615 5.399841756025171 0 0 0
371 1 15.634643191639029 10.566802955794742 8.987332085863455 0 0 0
370 1 15.499533125223495 12.396004064356703 7.170229911451452 0 0 0
143 1 12.284919836698274 0.0016423959664501886 5.5815567313207906 0 0 0
581 1 3.1645798644077066 7.116614087406831 13.852317062281271 0 0 0
42 1 8.973253527702141 5.375900045075083 -0.15316932673367745 0 0 0
37 1 3.902242373046522 3.690186501754204 -0.14540552807427817 0 0 0
248 1 17.82705766895193 12.136084118430748 4.932369712143398 0 0 0
375 1 19.488421865951544 10.714499531639216 8.993611725964609 0 0 0
243 1 17.798904381313683 10.681424731291457 7.112664723122239 0 0 0
376 1 17.545983297047435 12.293851189566467 8.573728720724365 0 0 0
374 1 19.655787740352956 12.294250793602668 7.425234107046341 0 0 0
247 1 19.669125076560398 10.557131373741282 5.652770864677813 0 0 0
252 1 21.231013530997004 12.800703788273447 5.688203536574763 0 0 0
251 1 22.976254944593805 10.16839888130349 5.667857162619977 0 0 0
379 1 23.224866367520427 10.774771728920262 8.999825423956441 0 0 0
380 1 21.327937302946246 12.452523697278869 9.154620127448252 0 0 0
342 1 21.33935970994574 10.661697035231695 7.219904859039115 0 0 0
1305 1 23.03293730560106 12.438733860552176 7.064072658111559 0 0 0
511 1 25.21282911558057 12.33878384425137 8.898662803404797 0 0 0
256 1 24.98275589136493 12.27274990337949 5.19129393267644 0 0 0
1043 1 15.702688048830902 13.781024369756935 1.4240592338100926 0 0 0
133 1 3.225504905508961 -0.17291366356809446 2.9736434477759355 0 0 0
1658 1 24.848857491634085 0.03766635711569433 13.967723672109567 0 1 0
227 1 -0.19018052095631788 12.571682986720784 4.625560920304342 0 0 0
381 1 24.63388266295633 10.990531387543644 7.2721215284575775 0 0 0
255 1 26.58200453208628 10.692779397275038 5.178907998042209 0 0 0
383 1 27.572329634043818 10.807484360527727 8.316343667159536 0 0 0
382 1 26.542589515399875 12.366401029446765 6.842990314534049 0 0 0
86 1 19.350166666631353 9.010923042338929 0.26608402526433583 0 0 0
494 1 12.51176323034671 12.575917944719924 10.7994244902557 0 0 0
1027 1 1.9311500202536611 14.099209705221078 1.0970100714353321 0 0 0
995 1 -0.23025016080970817 10.879459632594987 -0.1742621764546862 0 0 1
386 1 1.4320442713014716 1.6767628679431086 10.782628413653503 0 0 0
419 1 1.4038965516560586 3.6475643054234728 12.838241471590596 0 0 0
392 1 3.548346447332235 1.5622453290791378 12.20323696095987 0 0 0
421 1 2.9876687000884514 3.4977516383467626 10.77901935268084 0 0 0
388 1 28.5254684245606 1.545263546230395 12.615519274088888 -1 0 0
401 1 14.196725864933505 -0.22369489207472512 10.162893778758074 0 0 0
390 1 4.814633612603147 1.8238876031652267 10.396156115256268 0 0 0
396 1 6.89036148176179 1.424470004849267 12.236242775438216 0 0 0
423 1 5.103866318527248 3.695275232355711 12.386516738035724 0 0 0
425 1 6.852188975077323 3.0810690495919717 10.351383750866592 0 0 0
507 1 22.858438314176354 10.60890431846494 12.154518947641195 0 0 0
427 1 8.65045821742175 3.082932184714169 12.185925816248849 0 0 0
394 1 8.608266151727674 1.032379730187476 10.22786307658302 0 0 0
429 1 10.538445530109824 1.2562847841566667 11.954043208045714 0 0 0
398 1 10.506707176480974 2.965963496964214 10.300739618976241 0 0 0
526 1 12.480893917034086 1.479566397287586 14.024647735035975 0 0 0
630 1 21.49364572697845 12.913083761569991 12.574370929552565 0 0 0
1541 1 3.5026045151397858 14.164180845479608 13.711047666602823 0 0 0
400 1 12.620226320926738 1.340345923546098 10.255361673185046 0 0 0
431 1 12.363347038496142 2.9795632302893464 12.092219002037249 0 0 0
404 1 14.238055662144703 1.4146645305273058 12.1865472114201 0 0 0
433 1 14.057234436488352 3.3669335576121884 10.405370821808917 0 0 0
435 1 16.02290661099751 3.5344565082819925 12.238045593452473 0 0 0
638 1 26.642142822877993 12.608907945237755 13.746552349769225 0 0 0
458 1 8.544838450399933 9.788228386314088 12.759425939497884 0 0 0
19 1 16.068078028692028 -0.11453173603402726 1.563019982938876 0 0 0
561 1 14.319361113667618 3.1009510262362396 14.047414242194652 0 0 0
402 1 15.771859707623067 1.9325579777254278 10.358597244905907 0 0 0
311 1 17.676926676953272 3.3700717169191186 10.556820562140892 0 0 0
408 1 17.38806555551473 1.6145513587821263 12.134404486987544 0 0 0
406 1 19.700363899893738 1.6763545176932009 10.351381278638096 0 0 0
443 1 19.40682029386499 3.337981638483529 12.480771580427326 0 0 0
625 1 12.509796166131604 10.690143921439171 12.684809166175521 0 0 0
610 1 1.5220590754963073 12.548069794480542 14.140364948676462 0 0 0
441 1 21.357476282384077 3.176007088904881 10.313791761902271 0 0 0
410 1 23.186609289835303 1.4141566149536426 10.658620574236851 0 0 0
412 1 21.336132358397343 1.4426017763213281 12.22052971001712 0 0 0
573 1 23.28472002432514 3.3030186561309542 12.404848912380698 0 0 0
505 1 21.127775238256675 10.812010093648711 10.827089044347652 0 0 0
387 1 1.6700601203401562 -0.02018016845352108 12.49792435037788 0 0 0
257 1 28.517933184795254 -0.22906000639618507 6.668235575190441 -1 0 0
1179 1 23.11050185981638 13.956853574561784 5.183954549385231 0 0 0
288 1 25.103386844880326 1.4970820176650288 8.930731955358961 0 0 0
417 1 -0.0987577390245491 3.547561304820442 10.491197068422522 0 0 0
416 1 25.04721906642449 1.6690288023217086 12.146839574122634 0 0 0
442 1 24.725485843091107 3.3576506862063464 10.522003990354799 0 0 0
445 1 26.70422990399399 3.0797783854160867 12.018342951946547 0 0 0
414 1 27.073490789470327 1.5326500558607836 10.518796170078103 0 0 0
500 1 14.620964390755626 12.510952347469658 12.508117477817786 0 0 0
456 1 3.432032631018073 8.776961122688054 11.747394667197296 0 0 0
418 1 1.2638264404612733 5.077112934603144 10.397846196185993 0 0 0
451 1 1.2741988312909363 7.0832729399814545 12.132482924135756 0 0 0
450 1 1.4337205233231034 9.157586317911845 10.285787205568148 0 0 0
453 1 3.1215705563016853 6.834209160853144 10.504802140321704 0 0 0
424 1 2.9088614030599813 5.244206097037822 12.299225193634042 0 0 0
499 1 15.606192562867038 10.672360285657856 12.172370752779658 0 0 0
422 1 5.007942405311082 5.130166856686661 10.570387379166874 0 0 0
428 1 7.170573724934983 4.846474990119515 12.406744151854758 0 0 0
455 1 4.899350675358727 6.774671792362357 12.00841552037386 0 0 0
457 1 7.055092989816106 6.590562880557703 10.367353181059794 0 0 0
454 1 4.885833370930518 8.538832990131793 10.153315862774646 0 0 0
460 1 6.710563538939074 8.331153037263505 11.931861737851694 0 0 0
498 1 15.921789676554594 12.785298903697852 10.876651761098834 0 0 0
430 1 8.600226401322248 4.836854545769416 10.667534908631051 0 0 0
331 1 10.454773827408426 6.716600634652122 10.35044369834107 0 0 0
432 1 10.483043359701549 5.026700626501385 12.242956175353955 0 0 0
459 1 8.952527468641179 8.564060565236328 10.467992105867111 0 0 0
461 1 8.802287102696594 6.726115797533613 12.545838150341762 0 0 0
464 1 10.445611585217348 8.871627327320759 12.445582868118896 0 0 0
497 1 13.858943965758568 10.827757137187726 10.37160306841359 0 0 0
1291 1 9.312040800563368 13.857619505335766 8.959997922131732 0 0 0
462 1 12.148943766389 8.690147898047735 11.061904156680242 0 0 0
463 1 12.125588091945744 6.921301696296454 12.420558923915864 0 0 0
465 1 12.531241612919171 5.227386029978117 10.913346076763498 0 0 0
436 1 14.190593231715864 5.09078990443503 12.679590091542675 0 0 0
562 1 14.274640716555085 6.967221110001398 11.13594512291177 0 0 0
468 1 14.195874491102915 9.033366364111808 12.790010443647622 0 0 0
434 1 15.816340289953258 5.199941718660236 10.733654957755993 0 0 0
466 1 15.971670210376582 8.538613245147074 10.884757953637617 0 0 0
467 1 16.063234780750733 7.277800889567127 12.825235578993682 0 0 0
502 1 19.007526534514298 12.508415979955524 10.34015880893126 0 0 0
470 1 19.197206898140507 9.10508574093501 10.730785408307337 0 0 0
472 1 17.61218133249377 9.144105543851675 12.61424164304494 0 0 0
440 1 17.719110302922154 5.163926637026536 12.46471165016522 0 0 0
438 1 19.362136038643918 4.81748416585811 10.624069784986668 0 0 0
339 1 17.757224612219474 7.385445543205632 10.658338173380024 0 0 0
469 1 18.73720597763468 7.201100474756809 12.565741578755606 0 0 0
493 1 10.38195799447069 10.434823582365269 10.834120913028356 0 0 0
366 1 12.545067313621475 10.141248827219997 8.605231721741946 0 0 0
496 1 10.26515520774454 12.425447806267028 12.48722648844671 0 0 0
476 1 21.066274001844732 8.788963714964913 12.231284378627501 0 0 0