LAMMPS data file via write_data, version 29 Oct 2020, timestep = 300000

2048 atoms
1 atom types

-0.21434339989919415 28.566343399900518 xlo xhi
-0.21434339989919415 28.566343399900518 ylo yhi
-0.21434339989919415 28.566343399900518 zlo zhi

Masses

1 58.933

Atoms # atomic

35 1 1.650727554366134 3.309971582448116 1.4061451270764425 0 0 0
130 1 1.7674523085061546 1.1695794544916862 3.0455586148583285 0 0 0
165 1 3.3411702819055344 3.200286598039118 3.3336056380057397 0 0 0
8 1 3.6078549236351014 1.6881273413526958 1.2854418467548276 0 0 0
65 1 0.13196172259121774 7.118842364367702 -0.16420692351380764 0 0 0
113 1 14.227300565996362 11.048923495142803 0.0560753013584645 0 0 0
384 1 23.328308316326115 13.999879426986535 8.460000193972911 0 0 0
12 1 6.988514744908365 1.584788545423012 1.409023219724846 0 0 0
39 1 5.322409797453712 3.39310253320362 1.6042794003863678 0 0 0
134 1 5.2835693978949285 1.6620960162656129 3.2177499200256294 0 0 0
169 1 6.884056218624478 3.184749476857972 3.2573553324794964 0 0 0
114 1 16.146729802927865 12.500501625042862 0.09405727128681468 0 0 0
155 1 22.954031235540214 -0.1127361929643419 5.495165530548357 0 0 0
145 1 13.876105669596537 -0.1441007967057928 3.2359193659850263 0 0 0
138 1 8.88035051732329 1.7449770490934824 3.1587743085439723 0 0 0
43 1 8.763292670474193 3.7478223284267993 1.3082901443980812 0 0 0
16 1 10.479431063502927 1.7870797299834509 1.5728173669528174 0 0 0
173 1 10.684860851014998 3.6499920673544395 3.116817506161484 0 0 0
90 1 23.370677351434622 8.578796869495568 0.4372918052739261 0 0 0
1433 1 21.635287317796504 14.141995834463902 10.083482102174795 0 0 0
142 1 12.141537766435018 1.5961006433624072 3.129456887294037 0 0 0
47 1 12.118926155970506 3.4472811093876197 1.4488238932278164 0 0 0
20 1 13.80274168599182 1.5075490427295448 1.257653379347533 0 0 0
177 1 13.916047805356378 3.6221286706483236 3.2989651404448197 0 0 0
51 1 15.235526068715233 3.525115678689871 1.1799607289782341 0 0 0
146 1 15.656052236823095 1.6786782955194373 3.6286753459821686 0 0 0
350 1 26.767752746963673 8.672205086077847 10.6661130405199 0 0 0
411 1 23.176170773171442 -0.0907600383003286 12.30597795746568 0 0 0
179 1 15.72150975123097 3.2706841124556223 5.261296680199925 0 0 0
93 1 25.195388436765292 7.043101058350213 -0.0002055395134260285 0 0 0
24 1 17.23750108449903 2.054059949518569 1.5441486095093349 0 0 0
181 1 17.608332687771515 3.321908962101782 3.6320600428862186 0 0 0
150 1 19.112734148532226 1.692289255988629 3.308997286173518 0 0 0
55 1 19.43443497649178 3.4650363953096015 1.7185309267120983 0 0 0
101 1 3.6569365173114368 11.15019465071162 0.4410663638264085 0 0 0
512 1 25.225528161736563 12.335757976435787 12.77775353409503 0 0 0
28 1 21.226423991745833 1.532165996625938 1.5239365640177447 0 0 0
59 1 23.224933539911284 3.199016561002729 1.3956992418879666 0 0 0
154 1 22.99218574149559 1.614396767732836 3.7589495907787565 0 0 0
185 1 21.169182989080305 3.531794597197395 3.2538432979833725 0 0 0
553 1 7.019751337831809 3.5761708079050027 14.112767239505605 0 0 0
4 1 -0.173510421646133 1.7240788080312837 1.654947376104527 0 0 0
161 1 -0.1867452788327972 3.319900733798083 3.5450753878741734 0 0 0
18 1 15.567881398041042 1.5167260738536164 -0.18881620563417084 0 0 0
617 1 5.24284545827541 12.481852953382484 13.744508267136194 0 0 0
189 1 25.057000026134105 2.9642537063067476 3.266091363289454 0 0 0
32 1 24.994405646186173 1.0998143639654343 1.465614586282946 0 0 0
63 1 26.82969386522229 3.1132150559155543 1.5145542216818095 0 0 0
158 1 26.706557303537437 1.2836922738407088 3.2580567019982647 0 0 0
510 1 26.579134965140774 12.286304073134675 10.833184672015129 0 0 0
1309 1 24.87526781075497 13.881692465555274 6.904951108788802 0 0 0
279 1 19.567622989156703 -0.19669037063749784 8.798550391326794 0 0 0
40 1 3.566728573085863 5.201765437456816 1.643495635093385 0 0 0
162 1 1.5697545590176882 4.9993620182884735 3.2268178233318805 0 0 0
67 1 1.8817818680884995 6.802070799858987 1.6687772135211427 0 0 0
194 1 1.6701462119992012 8.638570788968218 3.302978648225291 0 0 0
197 1 3.414698533506212 7.1341490526858955 3.2801421368794115 0 0 0
72 1 3.3964793712932555 9.039475614197292 1.927194942579566 0 0 0
44 1 6.82687718270622 5.039501260433871 1.4922083789107956 0 0 0
166 1 5.454247616978864 5.10856194681456 3.5143660690780596 0 0 0
71 1 5.000517158141087 7.086868198219938 1.848038973064777 0 0 0
201 1 7.002451883420484 7.218267982586191 3.2510575941661184 0 0 0
76 1 6.858602922125815 8.896920565591097 1.907686092159457 0 0 0
198 1 5.152257927569454 8.745278286751581 3.633423925390321 0 0 0
48 1 10.376951035864113 5.3985209637137155 1.2602598424896099 0 0 0
170 1 8.664108550178069 5.275164961209407 3.3003714423951083 0 0 0
75 1 8.70664698315472 7.248174615160976 1.2849279105451576 0 0 0
205 1 10.40246429010976 6.9567796245801885 3.0292143642257097 0 0 0
202 1 8.790534167744832 8.634728851315858 3.723032944735636 0 0 0
80 1 10.303375697048375 8.98296387113331 1.4236789998460386 0 0 0
79 1 12.220550996335447 7.549405119825147 1.1545802632037472 0 0 0
206 1 12.276314158872971 8.594650812898879 3.252054071047457 0 0 0
174 1 12.441910135690845 5.7953939246930855 3.1338471417134546 0 0 0
52 1 13.674977618964114 5.045300388198242 1.250501657106532 0 0 0
209 1 14.316797046838419 7.339065605957414 3.5658078918445146 0 0 0
84 1 13.982292814283527 8.832682085715435 1.6845864966218516 0 0 0
178 1 15.15925942170042 5.325576018256948 3.116679715241432 0 0 0
210 1 16.292799514912545 8.694035308985677 3.4650559062324096 0 0 0
180 1 14.249852293249308 5.073458151860681 5.110093129971244 0 0 0
83 1 15.420409146479008 7.132667800108281 1.502972873350599 0 0 0
182 1 19.524381527294125 4.940997657147278 3.264329266520745 0 0 0
56 1 17.36497262498679 4.8837647354540925 1.564797205220115 0 0 0
213 1 17.695443199820296 6.555082360685154 3.523769741603751 0 0 0
87 1 19.433530017916794 6.822627087589267 1.6592135278830866 0 0 0
88 1 17.57219473247973 8.751045704904243 1.7400182864320832 0 0 0
214 1 19.53994640360071 8.352327241636369 3.4045124587792244 0 0 0
60 1 21.10702370573108 4.8617617621951545 1.3480758033773557 0 0 0
186 1 23.13257643817144 4.929429935210264 3.2999587203864063 0 0 0
91 1 23.047265446765913 6.80872505257501 1.794586136027132 0 0 0
217 1 21.431720831080234 6.586429340260251 3.562816089214633 0 0 0
218 1 23.269898547860763 8.821762150467206 3.191640054843689 0 0 0
92 1 21.14174143988715 8.516229221558651 1.844674385582311 0 0 0
22 1 19.29906313488145 1.6463719856554664 0.1492576851880783 0 0 0
623 1 14.276382835795225 10.83146558187702 14.112100937106192 0 0 0
526 1 12.215989906198658 1.34926998552521 14.055920255757641 0 0 0
68 1 -0.04898221005168624 8.670273605747427 1.8724129530230296 0 0 0
193 1 28.502935565728272 6.8814404659021 3.079557684986774 -1 0 0
36 1 -0.16025337711627555 5.4770321836083244 1.5371412697329296 0 0 0
1027 1 1.3656607794017033 14.004972016236875 1.9122023282982568 0 0 0
221 1 24.780388891501282 6.85546008809139 3.389280901719356 0 0 0
64 1 25.1523670199189 4.953901746326264 1.4777669748229165 0 0 0
190 1 26.538701806065205 4.989714592467175 3.3036258371257143 0 0 0
95 1 27.102588238480152 6.869183973614967 1.4181131515153313 0 0 0
222 1 27.012125059086692 9.077507290191058 3.587696664480147 0 0 0
96 1 25.489398586114703 8.668950902765989 1.8692123931343123 0 0 0
1165 1 11.083446353418294 14.149218632069394 3.4841513525659122 0 0 0
86 1 19.382903424391387 8.94052824542027 -0.16962000550258474 0 0 0
287 1 26.710796376250528 -0.017287353153794094 9.279491746860131 0 0 0
99 1 1.5704451242628121 11.039869144077874 2.426192304163608 0 0 0
226 1 0.7312869338329383 12.927480003442916 3.9902032861096632 0 0 0
104 1 3.478132848741438 12.76632517220922 1.938759236983849 0 0 0
229 1 3.4975267669813337 11.253983021154925 3.556817732969063 0 0 0
1411 1 1.351807868076644 13.799551508822312 12.501998952379287 0 0 0
1037 1 10.36160332845073 13.674820199260022 0.0018254347292823714 0 0 0
1175 1 19.70697228699656 14.164149483514695 5.246269788413303 0 0 0
103 1 5.274272411727416 10.522363362806583 2.0949186009901504 0 0 0
108 1 7.158911396776574 12.641436108495082 1.8932805077267187 0 0 0
230 1 5.524331366467583 12.47949281614791 3.438139583364446 0 0 0
233 1 7.154095868769518 10.6229385651204 3.5820340089711586 0 0 0
1173 1 17.869605581945194 14.047057827886121 3.4237533567133625 0 0 0
597 1 17.36972739700461 7.019455000169611 14.146988094274231 0 0 0
581 1 3.7024626542817436 6.923393776186118 13.957779355288189 0 0 0
107 1 8.917700376452844 10.81341639307421 1.6034086037791238 0 0 0
234 1 9.082433014969851 12.372885612147748 3.2156017524090528 0 0 0
106 1 11.05776417940097 12.182600685583065 1.6418238921715207 0 0 0
237 1 10.34407489842017 10.460975143460386 3.307505035505498 0 0 0
111 1 12.543126356658163 10.595079381544508 1.5489892347178154 0 0 0
495 1 10.876123881002245 10.678573890892281 14.067899969732311 0 0 0
153 1 21.091602034378525 0.034062970748202304 3.705187148999805 0 0 0
609 1 26.19660501774439 10.313007548699385 12.374730082027785 -1 0 0
238 1 12.448406866989318 11.498065485568816 3.629233708816512 0 0 0
241 1 14.553491868597982 12.400880501922135 1.6483458540218525 0 0 0
212 1 14.363319398681357 9.715029197822357 3.632915977275366 0 0 0
115 1 15.800627424508198 10.218724900617607 1.9505850719470241 0 0 0
116 1 16.141474182650853 12.175387508921258 3.5908146539607055 0 0 0
122 1 23.132427936990695 12.228740702357385 0.04163682917840761 0 0 0
385 1 -0.1694566843315286 0.49360100998514955 10.777254826157206 0 0 0
105 1 6.944252051463794 10.91744944855977 -0.17354959555751817 0 0 0
1297 1 13.91556385098911 14.172586450163935 6.661225300786843 0 0 0
242 1 17.906331118902962 10.330651286092653 3.557496854911051 0 0 0
119 1 19.26907992201236 10.645566023023369 1.8503690055208324 0 0 0
120 1 18.2323668052831 12.598552255319717 1.5035804850370655 0 0 0
246 1 19.425654333462724 12.563765233556076 3.627249385492196 0 0 0
613 1 3.4035840805808877 11.096952869119974 14.10490377660414 0 0 0
85 1 17.371044553826515 7.038160944069921 0.3105370226098353 0 0 0
123 1 23.74291725913851 10.766608729797602 1.810379224829573 0 0 0
124 1 21.42480411822971 12.339845299232117 1.77496281514011 0 0 0
249 1 21.01949364129316 10.409780143281205 3.4791965281424737 0 0 0
250 1 23.255940775467288 12.392823903744912 3.298928274575162 0 0 0
143 1 12.06651196761698 -0.10730248526706987 4.844343280643565 0 0 0
225 1 28.394280971970225 10.815963887804314 3.834247787308967 -1 0 0
100 1 28.285016306637438 12.522838267870496 1.8630369848911972 -1 0 0
128 1 25.074410731515457 12.638066020400604 1.8841150723107134 0 0 0
253 1 25.123857464679716 10.897223889957814 3.544345684214511 0 0 0
127 1 26.876311720784024 10.848840007786604 1.7728807819517527 0 0 0
254 1 26.759141528807532 12.562317532506734 3.576676546635741 0 0 0
163 1 1.7627899168583774 3.1274164229174595 5.140475233118458 0 0 0
258 1 1.3990811475898854 1.3899535899211752 7.123893224808674 0 0 0
291 1 1.4487298821513674 3.3401091147968027 8.68297223361924 0 0 0
264 1 3.427220244274136 1.51740541290705 8.604451164391088 0 0 0
293 1 3.5350167018273715 3.2565067062411766 6.757146280921156 0 0 0
136 1 3.233949061783858 1.3236352779087133 4.871884204791086 0 0 0
132 1 0.039615772409247074 1.419651628741199 4.607979501408567 0 0 0
289 1 28.11744997393982 3.180227109528879 6.689838488357274 -1 0 0
478 1 24.6148510301091 10.327401673597496 10.770354855337683 0 0 0
167 1 5.2171145402800345 3.141353969917669 4.967709038097016 0 0 0
140 1 6.973736834078954 1.2161795525247836 5.302651624311132 0 0 0
262 1 5.107394277698639 1.7311098425152607 7.102099970505227 0 0 0
297 1 6.852866573713668 3.428836847352489 6.662576927078109 0 0 0
268 1 6.978937076773963 1.7169168019306866 8.884270037429763 0 0 0
295 1 5.4566605402127975 3.471090393755269 8.630150312390768 0 0 0
257 1 28.33655618987991 0.30819904807694043 6.880720730458738 -1 0 0
484 1 28.30727208747848 12.262016670477115 12.573278277485176 -1 0 0
97 1 -0.14324137608726925 10.666833673364051 0.3250152688327891 0 0 0
171 1 8.946514478728822 3.5679105083278673 4.901448521548717 0 0 0
144 1 10.670757817097323 1.5552290850878838 4.948059569449789 0 0 0
266 1 8.860481483552219 1.5722301007515151 7.093631110682972 0 0 0
301 1 10.854355101714486 2.976153264107989 6.947029720016529 0 0 0
299 1 8.904162395959215 3.486509522960646 9.013183984975463 0 0 0
397 1 10.619799667504278 -0.206195767502507 11.035716559675638 0 0 0
272 1 10.741703113779916 1.2734810899733136 8.652421554123041 0 0 0
1549 1 10.425148728008876 13.973828345350766 13.856073472627743 0 0 0
508 1 21.575314761621932 12.688140026406115 12.58189908701883 0 0 0
270 1 12.502248920826855 1.545999316637025 7.079945468553212 0 0 0
175 1 12.529506774908814 3.2982504348452752 5.267020540496934 0 0 0
303 1 12.494483111011244 3.076098851893279 8.77829786508619 0 0 0
148 1 14.124363528363167 1.6846693835636546 5.318393896945929 0 0 0
305 1 14.489234260166606 3.5281421059436577 7.147286347805738 0 0 0
274 1 15.856690906056093 1.4377209815481544 6.969063913943663 0 0 0
276 1 14.11616174880227 1.463829298088587 9.044467593124136 0 0 0
307 1 15.874875177915383 3.2268355090737963 8.874027546341825 0 0 0
70 1 5.127813736265196 9.44243518670979 0.0831606231731582 0 0 0
33 1 -0.0893721710428935 3.304368454069929 -0.1098490459411521 0 0 0
183 1 19.22855239178297 3.5043589290180934 5.431855219398926 0 0 0
152 1 17.74439069183027 1.7268355838763931 5.467904656488016 0 0 0
309 1 17.422503691702417 3.4711004167609114 7.130892481578565 0 0 0
278 1 19.2762986655693 1.4194809636263048 7.052183324879689 0 0 0
280 1 17.354391422709362 1.7806381449944386 8.651855602219037 0 0 0
311 1 19.314950660470622 3.623790470643084 8.714603099788956 0 0 0
621 1 7.221676969286945 10.759886250587487 14.083225546939097 0 0 0
1541 1 3.045465049960438 13.830403827963268 13.770359140102519 0 0 0
156 1 21.17853613959626 1.9302553611379993 5.089502114471114 0 0 0
187 1 23.14941844921026 3.5785796660548357 5.1930542111506535 0 0 0
282 1 22.6737090100301 1.4489231801960565 7.110705923723344 0 0 0
313 1 21.258121668655846 3.333387723287749 6.826403769987406 0 0 0
284 1 21.27534860012925 1.9974332473877685 8.795198455259717 0 0 0
315 1 22.961082685037177 3.472958334679768 8.994635407890081 0 0 0
285 1 24.647708053476855 0.3330951540013851 6.6443127894656815 0 0 0
1419 1 8.849349066913264 14.030952483259288 11.787187071589326 0 0 0
505 1 21.917075757415915 10.391377743571814 10.745513915053458 0 0 0
160 1 24.765930408642788 1.7684265483509516 5.118059776140212 0 0 0
260 1 28.407629759834073 1.935674327037444 8.970431494706702 -1 0 0
317 1 25.108053534390727 3.4429038473012517 7.081585369694158 0 0 0
191 1 26.736490863975376 3.0926194749909572 4.833251376166739 0 0 0
286 1 26.51732819632241 1.6933643255470399 7.288383790103136 0 0 0
319 1 26.67143592821239 3.39648218967839 9.10298354314257 0 0 0
288 1 24.599626546917314 1.662519541274785 8.679209866959951 0 0 0
296 1 3.4297074674508745 4.6684141953055445 8.76013187640006 0 0 0
200 1 3.2277175348537113 8.707601607243028 5.248677206294971 0 0 0
168 1 3.5642883521013182 5.47174740620119 4.9077989821625 0 0 0
290 1 1.5852626032314856 4.429867770085373 7.078586150802369 0 0 0
195 1 1.3357082726537886 7.1391999901563885 4.969153730248897 0 0 0
322 1 1.6303626613897697 8.269012624628322 7.212469738597849 0 0 0
325 1 3.5278048590086417 6.908511713059436 7.197343392473629 0 0 0
328 1 3.4506209946657123 8.908621516490205 8.676702658617067 0 0 0
323 1 1.3851168963979152 6.435660815364464 8.569480773892641 0 0 0
172 1 7.263805786401592 5.103662763420823 5.334442252941858 0 0 0
294 1 5.244610073748834 4.945021805439453 6.684721014751964 0 0 0
300 1 7.287350619646154 5.257515589283773 8.602357035870769 0 0 0
204 1 7.029860142506908 9.003293205893984 5.463207980157526 0 0 0
199 1 5.473578960754929 7.198070520960261 5.42907470120807 0 0 0
329 1 7.61675399954264 7.12491640678072 6.791219758162635 0 0 0
327 1 5.555951131634479 6.789541085027833 8.17643502578148 0 0 0
326 1 4.943354718555604 9.100800897621932 6.632178944619349 0 0 0
332 1 7.137495836642199 8.715106480858832 8.880878062532112 0 0 0
203 1 9.289068390234377 6.710540159428786 5.125751219655439 0 0 0
298 1 9.284146613060665 4.72599414200183 6.724711105259915 0 0 0
304 1 11.059920462448222 4.986069887650985 8.677219317088937 0 0 0
176 1 11.037271811018314 5.0800673352520525 4.96974342289221 0 0 0
333 1 11.142038612389305 6.5170452997548765 6.825915212016507 0 0 0
331 1 8.959145552116935 6.497663698820504 8.485003875929902 0 0 0
330 1 9.094751099692909 8.693494172433107 6.237217429897142 0 0 0
208 1 10.93583019990645 8.366368947516486 5.190349456350139 0 0 0
336 1 10.568862813958706 8.74394230855136 8.792427508139411 0 0 0
335 1 12.483007804426702 6.841813742947719 8.927315421082504 0 0 0
302 1 13.073898327226338 5.19962527243142 7.263824706419962 0 0 0
207 1 12.716403206171947 7.05718214784765 5.306055646351338 0 0 0
334 1 12.632686767313896 8.422638524359979 7.111209271128513 0 0 0
337 1 14.416859321868037 7.191494508376412 7.127709277628087 0 0 0
340 1 14.38134329567287 8.973093313204213 8.931648108581209 0 0 0
338 1 14.406554307358292 8.697358335096096 5.855810600524291 0 0 0
308 1 14.370338058515824 5.324295418922238 9.118707565834342 0 0 0
216 1 16.263808984047174 8.779128006515995 7.182457388849766 0 0 0
306 1 15.843941349181732 5.62115835974244 7.166929426045198 0 0 0
339 1 16.01299070700999 7.226230852932062 9.059668513245411 0 0 0
211 1 15.802529554081916 6.762091145094922 5.195699565644691 0 0 0
245 1 17.70700048493321 8.560541897530577 5.256929484915439 0 0 0
310 1 19.44751630181944 4.90464793806006 6.962440225711094 0 0 0
184 1 17.309783397244203 4.928813731398938 5.2070422304769854 0 0 0
215 1 19.435662039065896 6.809010785211964 5.193457490531866 0 0 0
341 1 17.89717153162082 6.738790188865675 6.920219013882037 0 0 0
342 1 19.235939579829534 8.785129196331399 6.924398040778038 0 0 0
344 1 18.055727937780873 9.064409168348982 8.944727388948067 0 0 0
343 1 19.77161296039214 7.206478731762256 8.707343330068174 0 0 0
312 1 17.627338541402878 5.160224525945719 8.723003414014997 0 0 0
219 1 23.349852188921943 6.639140791463685 5.118154761259069 0 0 0
314 1 23.482843061904497 5.085882295669292 6.9806825797011705 0 0 0
188 1 21.40595521769884 5.066894680803116 5.357971423212929 0 0 0
345 1 21.196518360552105 6.84346232076844 7.058490611439928 0 0 0
347 1 23.084417300615314 7.032527676325932 8.760414105435206 0 0 0
346 1 23.18569740478344 8.559342919060013 6.731936476801193 0 0 0
220 1 20.89975395559037 8.846993051427196 5.162757726048007 0 0 0
348 1 21.423752973889542 9.07728362941921 8.912330022185847 0 0 0
316 1 21.051099183658565 5.1628973318632765 8.77980955583805 0 0 0
164 1 -0.12958933947845083 5.15469258974692 5.1904920726797 0 0 0
321 1 -0.13218201150939352 6.8723862720376285 6.887569289316233 0 0 0
292 1 28.516422930106827 4.699083311001316 8.76743163797704 -1 0 0
324 1 -0.12666929036129204 8.358646577884281 8.641378888463114 0 0 0
196 1 -0.11122904722559745 8.62260156646067 5.110483170699822 0 0 0
352 1 24.88262558797568 8.522210739470038 8.856942440879083 0 0 0
349 1 25.13589441066214 6.853186391242407 6.657852557348809 0 0 0
320 1 25.164928838853946 5.424013086971966 8.80502918372306 0 0 0
318 1 26.7724384561311 5.224018903365153 6.853658299857311 0 0 0
192 1 24.74300847797214 4.76132867314036 4.813443221090527 0 0 0
223 1 26.885100642986252 6.968273046704661 4.89986043900742 0 0 0
378 1 26.850842448372383 8.39442938446077 6.665877117333599 0 0 0
224 1 24.77312351954781 8.751036459483045 4.830531552510559 0 0 0
351 1 27.09414376743146 6.540083834176607 9.122095024260643 0 0 0
593 1 13.876577527292172 6.7865496629765 13.967680712021261 0 0 0
227 1 1.6172253654260405 10.30210240638251 5.30843792759656 0 0 0
354 1 1.2391228166338875 12.148340742111445 6.971857441394467 0 0 0
355 1 1.1512701163011465 10.49385124506947 8.828351399282699 0 0 0
360 1 3.0721556626460877 11.940362620893426 9.191042532298189 0 0 0
357 1 3.2622184967267094 10.720673441892657 6.991177580061287 0 0 0
356 1 28.22780067143328 12.282371368313527 8.964094920011494 -1 0 0
147 1 15.638427317026762 -0.16824151332737936 4.99910958310902 0 0 0
1024 1 26.664545037921073 12.251221155829752 -0.10014662048559123 0 0 1
232 1 3.4198697955761297 12.680914050797643 5.31660156231732 0 0 0
231 1 5.232357267608952 10.809523133021782 5.024243606053868 0 0 0
236 1 7.198477703118979 12.614634371998436 5.17507301987329 0 0 0
358 1 4.887825305957578 12.604291512339453 7.28209580037062 0 0 0
361 1 6.354614233674021 10.574405912241659 7.130484138863558 0 0 0
359 1 4.904421452001333 10.76915141358695 9.058274801271235 0 0 0
486 1 6.971596246169638 12.311551609479084 8.67243725486946 0 0 0
1409 1 28.381935271504474 13.87654666777375 10.878597769065696 -1 0 0
273 1 14.146422286064894 -0.09297881783231787 6.829274375900662 0 0 0
2 1 1.6364581984037572 1.4775926853132075 0.009346179691520795 0 0 0
1169 1 14.233511019394697 13.798278212216255 3.1531692171377546 0 0 0
362 1 8.73652858289045 12.128553778182306 6.973593296134819 0 0 0
235 1 8.753790699722183 10.583160491978996 5.135719167629247 0 0 0
240 1 10.497781606244386 12.383784143630194 5.245741252446674 0 0 0
365 1 10.5625140741198 10.276902831414072 7.078620079067336 0 0 0
363 1 8.865573234637866 10.301261506428219 8.45339135704375 0 0 0
368 1 10.75490842078215 12.370539860107405 8.143959487796488 0 0 0
239 1 12.595386316639289 10.165351067750906 5.491847929449355 0 0 0
492 1 9.194350241472272 12.105719944529172 14.110807299018397 0 0 0
159 1 26.991045177326228 0.12709350660627838 5.389151813450832 0 0 0
244 1 14.31252633132295 12.312202631450944 5.136514322821978 0 0 0
367 1 12.775251262235676 10.59116412475092 8.52842823664794 0 0 0
366 1 12.573224330289507 11.906091524653277 6.7867921212623825 0 0 0
369 1 14.613869035269074 10.656923509444344 7.319968936713015 0 0 0
372 1 14.643627157770252 12.612545132821706 8.873068196872834 0 0 0
243 1 16.169519124442047 10.467155773895936 5.352648195367632 0 0 0
370 1 15.932075870277911 12.573758264628482 6.634038634201407 0 0 0
371 1 16.14387625533685 10.726699908813657 9.235951298107942 0 0 0
267 1 8.501802395332668 0.03700247071772628 9.13646458715485 0 0 0
247 1 19.455273413580485 10.901488177037411 5.294772745641222 0 0 0
248 1 17.78003097386155 12.796014202355487 5.450693701094726 0 0 0
373 1 17.905885378427342 11.057548799319536 7.487705588647759 0 0 0
374 1 19.929173608973855 12.763389737764484 7.172433620756541 0 0 0
376 1 17.876005501005054 12.774287542149281 8.948730765864772 0 0 0
375 1 19.786491455717062 10.972918153287415 9.015176715774729 0 0 0
379 1 23.273189182955633 10.196052084715735 8.700804193732536 0 0 0
380 1 21.818046362435012 12.074386419305911 8.800171057182837 0 0 0
377 1 21.25302995351948 10.473547398033427 6.754331520688469 0 0 0
251 1 22.760775243828867 10.807504113753604 5.184141397935898 0 0 0
252 1 21.338472755614127 12.518264437902147 5.294034240346531 0 0 0
1305 1 22.95005335997874 12.239192468978066 6.949942141349289 0 0 0
589 1 10.709572454546604 6.922542269015532 13.976678975412716 0 0 0
353 1 -0.18250326192979566 10.140099646409103 6.913834720214275 0 0 0
383 1 26.490995206969792 10.068701771607248 8.737745214757497 0 0 0
228 1 27.82801804468469 12.23538923407571 5.736719762762574 -1 0 0
255 1 26.613854448572646 10.22525682477237 5.294150574484103 0 0 0
256 1 24.850253068113084 12.431718804070677 5.443395643266104 0 0 0
511 1 24.621167581470317 12.061729842320759 9.005342414399303 0 0 0
381 1 25.02094098827557 10.450333408331362 6.935472550313519 0 0 0
382 1 26.42452734847788 12.321410593593964 7.5841566399672855 0 0 0
506 1 23.228394011694867 12.206863718818603 11.149972596263195 0 0 0
1047 1 19.949547181452402 14.020867480799948 2.0130812062395975 0 0 0
386 1 2.092694804635481 1.6914086110486188 10.768695252450398 0 0 0
419 1 1.7683922842946271 3.5217066793157024 12.452319265928164 0 0 0
392 1 3.5105512512552632 1.6904565084582557 12.256404289225324 0 0 0
421 1 3.662569133836851 3.1573078695934793 10.242157623294252 0 0 0
417 1 0.04483989727710769 3.2990214784902046 10.837485683153076 0 0 0
388 1 0.02335457719360598 1.6401182737298399 12.722573977646121 0 0 0
66 1 1.9949469366614694 8.98331385537242 0.0734777760458194 0 0 0
507 1 22.958946395187233 10.743169396414686 12.871430777167324 0 0 0
390 1 5.4289555705754555 1.5124804209105602 10.356532490293317 0 0 0
396 1 6.998872385253183 1.9500413458868229 12.159653078648619 0 0 0
423 1 5.112922947848839 3.495578840290123 12.082052013464123 0 0 0
425 1 7.427239520957457 3.5204929469147768 10.577416184103965 0 0 0
1281 1 28.28582399860256 14.127719841224097 7.543638224100476 -1 0 0
550 1 4.802833691274465 5.076636332625735 14.080019084652278 0 0 0
427 1 8.818830936986297 3.536764864810783 12.478696220347963 0 0 0
394 1 9.1264759417856 1.6527845299646002 10.657060558372267 0 0 0
400 1 10.048456124917145 1.4814287279139966 12.690944031279516 0 0 0
429 1 10.698816560617992 3.107701270137006 11.09360453172098 0 0 0
398 1 12.46545623719765 1.1447228846651547 10.447867962763123 0 0 0
431 1 12.377168886155358 3.1724430403464106 12.417684817711743 0 0 0
11 1 9.07336993600988 0.011017393325938818 1.4057346628490532 0 0 0
1179 1 23.349804522434845 13.899349067509796 4.992152808594361 0 0 0
404 1 14.142704432177128 1.8338998792664296 12.831478207231186 0 0 0
433 1 13.933652703199183 3.0991993137823357 10.5915780750151 0 0 0
435 1 16.00099140265874 3.4426665172641564 12.71357805650156 0 0 0
402 1 16.020696731593915 2.043921466978469 10.92127880562375 0 0 0
499 1 16.133157127346827 10.741406805024425 12.662020349744825 0 0 0
586 1 8.8480053234703 8.814104330027444 13.829515245385696 0 0 0
391 1 5.162122774520048 -0.06069794355273217 12.825790737016241 0 0 0
406 1 19.368329407363262 1.5453009693531223 10.503982250752387 0 0 0
408 1 17.737626291267176 1.5165182837581839 12.442455394010507 0 0 0
437 1 18.06095983914836 3.430297913374151 10.4770838701365 0 0 0
439 1 19.34556682429003 3.356918296894991 12.614423359621345 0 0 0
497 1 14.182210425566314 10.605445479847056 10.820368015252624 0 0 0
1163 1 9.034286203828167 14.052351659183136 5.213267890009965 0 0 0
441 1 21.082168523178566 3.3391770361106 10.508317583094337 0 0 0
410 1 22.95560074056793 1.4144436447852202 10.242029292289796 0 0 0
412 1 21.22363311410249 1.5659144616299188 12.250612272199357 0 0 0
443 1 22.824341959759195 3.4595563733888057 11.93829715443531 0 0 0
442 1 24.791247391074684 3.387692365280234 10.395941009586886 0 0 0
1421 1 10.758128968549181 14.014266179753784 10.368387505493493 0 0 0
416 1 24.9540570946534 1.904744588738335 12.477630294427298 0 0 0
445 1 26.79078276801716 3.607583721753085 12.78215951673665 0 0 0
414 1 26.528941875203564 2.008762613204861 10.728639879939113 0 0 0
494 1 12.500952363195053 12.17702226471463 10.265463949947927 0 0 0
418 1 1.5683493670261948 5.084228790900088 10.711335781278176 0 0 0
451 1 1.3593855399289385 6.803084519491879 12.271248341755818 0 0 0
453 1 3.7992771732343353 7.185850143014057 9.813817465584517 0 0 0
424 1 3.4641688072483685 4.960265566194725 12.134235556975622 0 0 0
450 1 1.3172133809972708 8.188845001554176 10.601529284354017 0 0 0
456 1 3.2610526450506807 8.279806334606148 12.218738573344023 0 0 0
577 1 -0.05963530337992751 7.29584805789365 14.031359867706955 0 0 0
121 1 21.770842963060176 10.266582209315349 0.24477768594124533 0 0 0
422 1 5.246313163957559 4.9847867043923175 10.388583172960962 0 0 0
428 1 6.946304302186427 5.24804485020472 12.222198041630405 0 0 0
455 1 5.430003619129114 6.968845614530829 12.022715199684423 0 0 0
457 1 7.088288699051494 6.937871836246348 10.57518602967501 0 0 0
460 1 6.965795284858012 8.973625544172188 12.121111576049305 0 0 0
454 1 5.175900324362157 8.903952415784863 10.668723794830543 0 0 0
464 1 10.543410968987668 8.98205256945713 12.19995577200871 0 0 0
426 1 8.987402740853803 5.321832065492815 10.856625340222022 0 0 0
459 1 8.579778340793906 6.698865565717221 12.84206844771088 0 0 0
432 1 10.731122640665111 4.862840082839455 12.499100716548543 0 0 0
461 1 10.405492146557949 6.991931016492494 10.422505851414428 0 0 0
458 1 8.911180146312372 8.858161252136922 10.360857515154501 0 0 0
259 1 1.6185999306476913 0.052030924458457195 8.837777416268372 0 0 0
462 1 12.722173027029099 8.630299883262285 10.123377260521782 0 0 0
463 1 12.190195915758919 6.9538820324487345 12.343215427068275 0 0 0
430 1 12.514820253705738 5.050626811381622 10.45447702369996 0 0 0
436 1 14.3507881611326 4.650200311721668 12.323275387475164 0 0 0
465 1 14.062498857311635 6.64786976936957 11.41279115310111 0 0 0
468 1 14.273775599521127 8.799952830944886 12.263296675561143 0 0 0
467 1 16.01879867773124 6.935304906367449 12.472578556281146 0 0 0
434 1 16.21504948669925 4.794002061234445 10.757823905638647 0 0 0
466 1 16.135541999249114 9.054160876152476 10.844694750111524 0 0 0
438 1 19.456442450124605 5.701509238300498 10.49781029549619 0 0 0
440 1 17.676574101483133 5.28003908758099 12.628391996354338 0 0 0
470 1 19.83792125452095 9.07790852029273 10.761675479741166 0 0 0
472 1 18.026065352507082 9.178557285001956 12.475466755688627 0 0 0
471 1 19.36115049384449 7.161924662942161 12.55334046677083 0 0 0
469 1 17.697542026147296 7.2763650034835194 10.524125371669555 0 0 0
117 1 17.337131365019857 10.457462626504972 0.3484430906959972 0 0 0
509 1 23.155627543151923 8.567070785849676 10.909443040746911 0 0 0
444 1 21.07534832684535 5.263541948157544 12.532089238243797 0 0 0
476 1 21.255700348371654 8.896629905529585 12.716131981911692 0 0 0
475 1 22.77996028696252 6.875425071683093 12.619659788761659 0 0 0
474 1 21.46915809741494 7.08385961669024 10.67442346248371 0 0 0
473 1 23.256120490667143 5.5356016105149655 10.729118760493407 0 0 0
479 1 26.699934331164542 7.418481876915094 12.553476394254542 0 0 0
452 1 28.117180896067666 9.306132243009746 12.849445259357253 -1 0 0
449 1 28.302605078899383 6.375509371959394 10.843249187513315 -1 0 0