LAMMPS data file via write_data, version 29 Oct 2020, timestep = 300000

2048 atoms
1 atom types

-0.424014043690363 28.776014043689553 xlo xhi
-0.424014043690363 28.776014043689553 ylo yhi
-0.424014043690363 28.776014043689553 zlo zhi

Masses

1 58.933

Atoms # atomic

984 1 3.2746638212842214 2.272188572853393 1.316302682353696 2 0 1
967 1 -0.258136403087188 3.0600088261835148 1.3391750604520938 0 -1 0
1320 1 1.9000336200148649 0.7961919690693284 3.8436313265893194 0 -1 1
988 1 27.30549767376373 7.883807470843669 13.89717301224225 0 -1 2
346 1 1.224625218153192 -0.28948537376626454 5.977206857107739 1 0 1
217 1 2.1106248713339397 2.554094204583871 5.623167913418814 1 1 0
1262 1 25.722137372830467 14.160716800609675 11.697374013660433 -1 1 -1
974 1 3.0216448352521508 10.995879690698974 0.08378881234326863 0 -1 1
1319 1 7.847308071191936 3.0421588627494156 0.575655186311468 0 1 -1
390 1 6.650261178973772 3.57923324545549 2.356327646181922 0 -1 -1
494 1 18.56878275398794 13.456306402833414 10.359691577769732 0 0 0
1443 1 28.294737115542738 13.45419590355897 4.70846215891845 -2 1 2
1750 1 4.275178499821522 13.378481767593517 9.359868142994129 2 1 0
1245 1 6.7526434634292105 1.663771549534756 9.1975606889488 1 0 1
591 1 5.331224953329251 5.024983933296283 3.724379903463851 1 1 1
608 1 5.124045994030544 1.6383062810230462 1.9963406438499187 0 0 -1
67 1 8.779153892276325 13.567276192668746 9.960694787305608 0 0 -1
462 1 9.075904659981397 3.3210818952382413 3.1257004748156927 0 0 1
1303 1 21.302322616621097 -0.35282994204447177 2.2480527427913155 0 0 0
30 1 15.24533939765836 1.6735788769716389 -0.11435184565612361 -1 1 0
473 1 12.524263027837849 1.9753771545207628 0.5425652042395649 1 2 1
1143 1 11.788116876305237 4.148878254279355 2.6017759880617675 1 1 -1
148 1 10.00710018206658 1.567250263617217 1.3478631904468996 0 -1 1
1976 1 8.44711068815108 1.3649369683312482 3.5218771661410346 1 1 1
1055 1 17.814103329254092 0.677627287023352 0.029469602783667337 0 1 0
542 1 11.00550887975577 -0.17324460439577377 3.2744660011041296 1 2 0
292 1 13.915114578962651 4.053398691350042 0.37266066802864206 -1 -2 -1
1839 1 14.630530583585596 1.7782258655532974 4.86579517425212 1 0 1
1864 1 14.337964510717146 3.059429452456386 2.831965515736089 2 2 1
1065 1 15.176293352135216 5.857109984150473 -0.06778625040544634 -1 2 1
144 1 12.538936830980735 2.9912457641673793 4.574775191514591 0 -1 2
894 1 14.571796774737795 0.7420984625600504 2.213138392867889 1 0 1
211 1 13.871565154793036 -0.2074763400862179 -0.2203782307359285 -1 0 -1
1362 1 14.917630276885472 4.199053872627945 4.455471430120518 0 0 -1
1552 1 12.70487571487416 1.2887209149971761 6.453540255891174 0 -1 -1
426 1 4.3707840042268 2.1843961014611115 13.33747403760389 0 -1 0
1642 1 17.78739056444524 5.001569910738987 0.3784529143864226 -1 2 -1
351 1 16.890550542949818 1.7372666254196658 2.558065758160376 0 1 0
1808 1 20.34373000857407 3.552526864773254 3.6829812435810148 0 2 1
2028 1 16.81229945335944 3.735028724682013 3.3464818720665224 0 1 1
1858 1 18.77547973208468 2.9848793624610015 1.1811133534800384 0 1 1
1419 1 18.511614599866768 2.404150788648719 3.693588858533192 -1 0 0
1780 1 16.022473357421465 3.5918682136201134 0.8574906914875051 0 1 2
171 1 0.12094413074431709 5.939499522055459 0.7805129307397374 0 0 2
1996 1 11.959741361774679 -0.17100490795544343 1.272811587628232 -1 0 1
1094 1 19.16656913447781 0.1038678378633513 13.675056262431346 -1 2 -1
1068 1 21.09394105319324 1.2437223252274303 4.061618282025278 -1 2 -1
1276 1 8.203150555290105 -0.4117191117952995 5.581049836133054 2 0 -1
1095 1 28.75141339581736 10.660100746054608 12.438194512056537 0 0 0
872 1 23.377632718342777 1.2664912116922535 0.2198727550850582 -1 1 0
477 1 20.965005968049983 1.9447557159010236 1.8424716993652348 0 0 1
49 1 24.67104472687934 3.165851519473162 2.034552995137508 0 -1 1
1187 1 24.134608636424975 1.6867920854118506 4.956657645859823 2 -1 0
34 1 9.722919035495895 13.706896827786498 1.2305280785444124 1 1 0
133 1 25.57380535267261 1.1235311736667501 2.8255918077180167 -1 0 1
1482 1 26.041421523338023 2.5308972945659276 0.5255152930817082 -1 -1 0
874 1 1.6607189801036206 8.44776116380107 0.10448844389911982 2 0 2
648 1 27.128117100356985 3.2457183998731747 2.6592992164986335 -1 -1 0
479 1 28.400868753167554 1.006926357878469 2.735332962114419 1 0 1
38 1 1.5780716439592446 1.8332952581915332 -0.0019859094536027744 0 -1 -1
848 1 27.55082303001128 0.19904847122218305 0.821199974100081 -1 -1 1
594 1 0.15173504147440708 4.905763822116783 2.605612558201825 0 1 0
1810 1 2.7132067154101116 5.847258373730033 1.1087709854455399 2 2 2
1734 1 15.89582413149147 13.515908721157551 5.093741194874472 0 1 0
890 1 5.350516261758036 6.531765143902406 1.1240719900959022 1 1 0
44 1 2.263924826641435 7.37244465823785 2.5438655219553485 0 -1 1
198 1 1.8061162373840798 6.639909144344495 5.5667991169843845 0 2 0
1411 1 0.3403621177700058 7.113869703319782 3.062420537068599 0 0 1
642 1 11.469343406336796 12.92440087503839 5.876690717450825 -1 0 -2
946 1 1.105169674551319 2.910177209178164 3.389758576577662 0 1 1
186 1 19.929308009535962 5.371871823362194 0.8376660810671408 -1 1 -1
1445 1 3.7643608968982676 8.252550078285763 0.7049751691161981 -1 0 0
1961 1 2.8923816836567515 5.150050085678846 3.436838812221996 1 0 0
1023 1 7.299548948003589 7.300761196282209 0.320478545505846 -1 1 1
429 1 4.591292687116573 -0.0611185263728804 7.686224337684793 0 -1 1
1148 1 7.437418137737537 5.6771475808458005 2.013593727565712 0 1 -1
661 1 7.875114978735551 8.383763306478029 2.506460061560452 0 1 2
1394 1 24.262598810412065 3.8449178286195105 -0.23512988570577456 0 4 -1
1602 1 9.492806057407268 5.801659534916969 2.8038804506476454 -2 0 0
878 1 10.589593159752791 9.460118756313834 4.005740812186936 0 -2 1
350 1 12.286422138479981 5.815819569907868 1.0038093234977663 0 1 1
1472 1 11.890292283668362 7.627833870632276 4.878681667450161 1 -1 0
1838 1 9.930450836057222 3.9859415716620257 1.0647277784135745 0 1 1
728 1 12.517988743477595 9.559055599256185 2.9990276856899896 0 0 0
897 1 9.940523717258495 8.031515931412786 1.7612188797175663 -1 0 1
1469 1 9.948368768669377 6.158496218761103 0.1732169655465916 1 1 1
1222 1 14.062300458675205 5.861625180437253 2.3514322458862162 -1 1 -1
256 1 12.422452617867222 7.400569286535708 2.5984060404092233 1 0 0
1011 1 12.668794150091475 5.512496577212154 4.296753643449779 -2 1 0
298 1 13.70180190094845 8.512581337335234 0.43855202692712625 0 1 0
319 1 14.53604692518782 6.465028299375563 4.839116358453406 1 0 1
1050 1 16.145578608571675 9.270355165347354 0.24493900708153615 1 -1 0
352 1 21.04755024298913 7.680689880765199 -0.07622090463002007 0 2 1
406 1 15.214376796571786 7.559427800113376 1.648174105276241 -1 0 0
1084 1 18.055331287134468 7.2745741605266785 1.90264697071787 0 0 -1
943 1 20.88238040328268 10.169412609148507 1.2105359772700657 1 1 1
1632 1 16.343802801178384 5.785521206827962 2.276802047016652 0 1 -1
1119 1 16.418691811989742 8.463652554484037 3.2422526200215804 1 2 -1
485 1 18.760522934087508 9.490947585612329 -0.13488286361307406 -1 -1 3
938 1 -0.1394124243120078 13.235772286428052 6.7793331767204785 0 -2 2
190 1 22.303660834143614 8.214583853218764 2.4795595275696436 1 0 1
1475 1 19.584165297580505 8.818785958556745 2.325746082341751 0 1 -1
922 1 22.30231603498 3.9506043536667406 2.168183508953451 0 -1 0
784 1 10.564941182585844 0.32117619304453027 12.994328619745055 -2 -1 0
1823 1 20.510312413672626 6.8814016389966115 2.2771717249535914 1 0 -1
1316 1 23.315239405789598 8.596346839738203 4.8396303153159215 0 1 -1
1163 1 23.03769559312209 1.2519416618537609 2.5102161431532433 0 1 0
1764 1 9.024472460865285 0.47663093765745246 8.230675855005341 2 0 0
1712 1 2.00690342953397 12.564431016294977 7.55381408820086 -1 -1 0
2 1 24.611787247376938 7.475317185842175 2.4960449470216957 1 -2 0
588 1 24.579265760588278 10.312062521237525 4.381082179023946 -1 1 0
1219 1 24.57399247917946 5.307876199783877 1.8407996372364361 0 1 -1
754 1 27.536295114503364 7.080477453285889 1.9796196229011618 -1 0 1
132 1 26.20660445765673 8.881172137088743 1.3796127126254387 -1 -1 -1
1943 1 25.857646155884364 8.014180327916463 4.157059817462838 0 0 1
1036 1 20.750994561611627 13.115363975314775 7.516405616127668 -1 -2 -1
291 1 -0.3701355715481541 8.642516737064494 1.2233982465050657 0 -1 2
1255 1 2.379282899154728 11.316596999907242 3.0776156023619086 0 0 -1
1849 1 3.9823709544205608 9.612788920627906 2.8942571630454417 1 -1 -1
1724 1 5.241031117366151 11.386583046770086 1.495076040035605 2 1 1
453 1 4.192964608116839 6.9217669274977265 3.61193576100501 0 -2 -1
274 1 28.72601070764155 12.162896807357576 2.8697081242158475 0 -2 0
431 1 1.2923667464864537 9.48510844410909 3.5295865106321798 2 0 0
1746 1 0.760355142528609 11.016392783613139 1.4318882437924456 1 1 1
832 1 7.161335372817758 13.101096771609644 4.4667190378476045 1 0 2
278 1 3.688170556514022 13.4972642655281 5.5543767364502665 0 0 0
1135 1 6.825745115124345 11.876068110401471 -0.07876028718871836 1 -1 0
1789 1 23.11470747389879 -0.36675065742612417 6.172989091236489 -1 1 1
1522 1 5.7587194273457385 9.09390759739103 4.9349521106571315 2 0 0
1929 1 6.413573055842923 10.825649207722254 3.3735484335290873 -1 1 1
982 1 5.756202156284089 8.802785476775727 1.5231600958862346 2 1 0
360 1 20.476672004767952 -0.34304979930025326 5.8612093152629345 0 0 0
717 1 5.6132228180598895 13.36538102283332 2.1536028234558464 -1 0 1
895 1 13.535108638702201 2.3355143557423284 14.0645973956479 0 0 -1
1866 1 8.506625578284261 10.48624921406349 2.355193110267683 0 1 -1
917 1 13.3704408280323 12.994360852022972 7.834912323745153 1 0 1
1797 1 9.670351140026698 11.318240004093461 0.3856915487672222 1 1 -1
827 1 12.113169709892228 13.179348598420525 2.828713861457564 0 -1 0
660 1 9.155951744967055 11.639846929547177 4.226585996998739 2 0 2
216 1 13.877268277160203 12.087160853994359 1.9088383237606403 0 -1 0
1559 1 10.560187623582209 11.301080574141698 2.4781165984114093 -1 0 1
902 1 12.517704570892645 11.370521981215948 4.51525373847844 -1 0 2
1507 1 16.88376610987669 0.7761597242823386 5.225252737522263 1 2 1
1456 1 11.421142848285239 9.590147464675951 0.8597626571613972 -1 -2 0
244 1 14.861221061870094 10.02027404509465 2.346376022037926 0 0 1
157 1 3.8706175867607095 -0.10652586552571791 2.3994627721712036 0 -1 0
918 1 17.867070029375938 9.999358668165232 1.7510553381197154 1 -1 2
645 1 16.154584890780942 11.518191377191942 1.076661394219787 0 -1 0
929 1 7.72460081600377 9.705741355694053 0.4357307123456359 -1 -3 1
197 1 16.444152202244666 14.074110330179836 2.8236788217324227 0 0 0
945 1 18.758887593066195 13.98702728717461 1.8508578927610229 0 1 2
1126 1 22.228011071749737 12.067780559422928 0.8980255693710626 -1 -1 0
885 1 13.600448259258263 8.077839318845104 12.646674548309477 1 0 1
954 1 18.022795005033498 12.200173775371132 5.254195041209152 0 0 0
1085 1 17.69398053430867 12.013119282521334 3.189666912147411 0 2 -1
236 1 19.488239193852205 11.843920986926951 0.6888958128465021 0 1 0
1965 1 21.069651939605585 13.988597320895229 2.6664466012515646 0 0 0
953 1 20.13001997544014 11.682304825805955 3.122691689992056 0 0 0
460 1 16.584005867366677 14.04317411780697 0.637058886581694 1 1 1
1543 1 15.510369253553003 5.97832485500481 13.239614926729844 0 0 0
1136 1 22.04109517427731 5.159190653549459 13.915680738353478 -2 1 0
786 1 14.166207754009246 10.732459303622335 -0.09771465016594072 0 -1 1
1096 1 24.553133125109532 11.678605009899249 0.7992908968308212 -1 0 1
204 1 3.6017973884551777 13.39185070703333 2.279346323783931 0 -1 -1
1566 1 23.827523405259466 9.742238751847596 1.7613988667245932 0 0 2
1681 1 23.502373152152455 12.720082050090163 2.7694515277701 -1 0 1
693 1 22.156611421107655 10.528097717772685 3.1243356437699386 2 2 0
1807 1 0.11213839479812748 8.984330661120831 13.76902747299036 0 1 -1
252 1 26.609036741105655 13.271674428529415 2.286748118547147 -1 -1 -1
101 1 27.57618096273262 9.683316012335036 2.9595782182216146 -1 0 0
1534 1 25.421316965654018 13.728452613035046 4.50474898720433 2 1 1
65 1 25.594045876033427 11.021321245210322 2.7642670287023163 0 0 -1
1153 1 27.040696693676406 10.907166308581045 1.009750181381321 -1 0 0
1295 1 1.4991466335107468 2.8602080516003032 9.699067171134905 0 1 1
60 1 2.183036765997312 1.5103796228671023 7.521853266649846 1 1 -1
207 1 -0.14657360264636776 1.6174721853446026 5.246814770983901 0 -1 0
338 1 4.952582258109859 12.95894082812606 -0.09744183104012016 1 0 2
1191 1 4.0428198916044185 0.8164242904458894 5.660281483812549 1 1 -1
58 1 6.447595485086801 5.000899114414128 -0.3231024007079031 0 0 0
1280 1 3.7473426734354396 2.5037217061475485 3.8270027252490584 2 -1 -1
1318 1 3.708083575797377 2.1631872928959925 9.141890879732435 0 1 0
1047 1 6.446251100666765 0.674682532616641 6.749647088513739 0 0 0
459 1 4.394630553103084 2.376114146499111 6.992327974708621 0 -1 -1
21 1 15.481102639094873 13.681343784305517 8.649401752288913 0 -1 -1
1053 1 6.144128749359531 2.5550952547700874 5.054431396909575 -1 0 0
543 1 6.524355557892702 3.25526524825367 7.580431591278373 1 -1 0
324 1 10.368938211486642 0.9159677761936316 6.560559551717495 1 0 -1
1154 1 7.670376421600944 4.964892490813938 4.226503675259021 -1 1 0
423 1 10.191195946601525 4.594532124740772 4.435137155770766 1 1 -1
188 1 8.354295054932273 1.8264893411029126 5.945692225832096 2 1 0
402 1 11.637247839405145 0.646854213694847 8.841562290374451 0 -1 1
1424 1 10.589910666331006 2.1057206081338253 4.448756730403386 -2 1 1
1311 1 12.377065330122841 2.8369406063769596 8.174882010894612 1 0 0
1910 1 8.417611261806266 2.767356910196774 8.33931272156836 -1 1 1
1674 1 16.518190789786136 1.2935533660991598 7.475045147194662 0 2 0
1596 1 14.854911058722864 -0.24939038474962286 6.170578660040342 1 1 1
963 1 16.728597519945822 3.2370276863983634 6.715241237744003 -1 1 1
1855 1 14.056151031741233 3.503051834736495 6.390112689332156 1 2 0
1233 1 14.295002211391322 1.3838509882142216 7.830627261083469 1 0 0
1086 1 15.068645107516101 5.246616818432736 7.30900865037 0 0 -1
436 1 15.520010566581206 3.2452401748878956 8.579521763310526 -1 -1 -1
1803 1 27.833349185638955 12.815105988815272 10.829483267009337 1 0 3
1252 1 22.39861201577725 3.1582686359477496 13.372323601512797 -1 0 1
1495 1 18.723025808475985 1.850218603887166 6.154915252644479 0 -1 -1
552 1 18.56723369416869 4.807933985508389 2.5823025823747567 -1 0 1
979 1 18.321258205078607 4.246397409680135 5.363362323336694 1 0 0
576 1 18.376069439816245 4.469587023632724 9.346101975937058 2 1 0
528 1 20.038663064844215 13.437096759959372 13.84172565537568 -1 0 0
548 1 18.544537033648396 1.2129860934952625 9.545046514234777 -1 -3 0
574 1 19.31669812911623 3.2384381975829997 7.92543560451225 1 2 0
512 1 21.08751092125662 3.8343286874660487 6.164779239122459 1 0 -1
1192 1 22.048015592262402 1.7215769249679962 6.110639200501 -1 -1 1
1250 1 22.73258438681232 3.9507365842218967 4.536613448790516 -1 1 -1
771 1 20.41752031156021 1.3503256403926163 7.650728516922337 1 1 0
1869 1 21.83550473877792 2.7562608556214636 8.987419007556058 0 -1 0
1890 1 23.30268821397988 1.1102467714576194 7.892013044738089 -1 0 1
301 1 24.459513094181908 3.4687544701076556 6.544744121236399 0 0 2
221 1 25.454013777823352 0.6444355956653609 6.949049709877997 -2 0 0
430 1 27.081742653849908 2.3784163661857103 4.705153444420223 1 1 -1
685 1 22.561971446562666 4.905799411645993 7.872775389003888 -1 -1 2
361 1 27.708079557365565 1.1692008679414347 9.82217239754529 -1 1 1
52 1 26.546656058094655 0.1821880386169914 4.9746111448581 0 0 0
266 1 25.585364529511338 3.031007490422631 9.170547644442367 2 0 1
815 1 27.827835269773534 0.901710558575302 7.580543109732087 -1 2 0
679 1 -0.30828097042585645 3.9438172234655147 4.995099914286339 0 -1 -2
1627 1 26.61495090002765 12.063281384563846 9.039494850916842 0 0 0
1599 1 27.129502364814982 2.8663452479895044 7.203761443484883 -2 0 1
856 1 0.17912842843419818 2.6450678103582956 7.193031542415793 0 0 0
531 1 20.867704708964048 10.305888922204508 11.99001393127166 -1 -1 1
1754 1 3.6323959358791154 6.207615844458067 7.934386861203826 2 0 1
1313 1 3.359781807832927 4.74457763479196 5.972387692807652 1 -1 1
1796 1 2.6321280380713272 4.139745272647653 8.139499781546771 1 1 2
899 1 0.9972549544449314 4.653924747640956 6.627097005189854 1 1 0
1621 1 2.97903471664295 8.622657287065987 4.59358113954048 -1 0 1
1544 1 1.0830188343909213 8.569219693021967 8.914239397732144 0 1 0
1900 1 0.980334977112699 6.885954670891203 7.569651650393629 0 0 1
2025 1 2.546770318563067 7.374616199384503 10.124608073647508 1 0 0
1360 1 27.974223507822597 6.573120312296728 5.25690908100345 -1 -1 1
1666 1 26.39843734160089 5.081787228118956 5.924205101288773 0 0 2
931 1 8.01077365082318 9.320177749735384 4.589200327002687 1 -2 0
1450 1 5.746494846836625 4.6574692244467695 5.913152561643633 1 0 1
105 1 6.26901297241958 6.632684750995819 8.144802698402051 0 0 1
1167 1 8.60566252120779 4.088166085147665 6.431622895060884 0 -1 1
1386 1 6.501998654254951 6.99722881660283 3.926135506996431 0 1 1
855 1 4.885091061838636 4.38233454190306 8.408261730761291 1 0 1
807 1 7.790714809697736 4.760264821600111 9.001010726217823 1 -1 2
1978 1 4.6356314437655515 6.057310155129947 9.860078107250228 1 0 1
1790 1 7.168617547081525 6.606642149732119 10.245380620461964 1 0 -1
140 1 12.444246386600469 5.631825870029474 6.632568889968903 2 0 0
1739 1 7.2709738671315085 6.144414422452176 6.385217519906423 1 -1 2
1487 1 10.61547714307845 7.609247393487323 10.240488974133967 0 0 0
861 1 9.978784176671432 6.05110695068232 7.06785052659503 2 1 -1
110 1 9.115697654761734 7.084114268560282 4.867645312741444 1 1 1
1334 1 10.769648785576331 3.240900215946935 6.248824626669114 2 1 0
174 1 9.650826390804339 10.555910576299741 6.3837946079266334 1 -1 0
803 1 14.02681789175482 7.367845665350103 6.696028989586296 -1 -2 0
1888 1 13.499183224932468 5.5581998902432295 9.1796080876906 1 2 1
424 1 15.156806083062877 6.959137906298127 11.093564290470086 -1 0 0
1736 1 15.583875022518761 7.292766800853988 8.568079459292585 -1 1 1
442 1 13.208488300167115 9.871341535029877 8.57329870149673 1 0 0
1874 1 15.096468890927381 9.843847482801236 6.954210344458057 1 2 1
534 1 14.42729862196302 8.732303868844161 4.18548819012326 1 0 1
181 1 18.35293539134738 7.535408510368918 4.213935219764339 1 1 1
1179 1 17.02347389720816 5.556033893014833 7.001507803882945 -1 0 0
871 1 16.31912264470883 7.848132402829311 5.740420936665803 0 0 0
1811 1 20.343560105344558 5.807387015646492 4.546721544361912 0 1 0
1259 1 16.901977584713322 5.982559846843307 4.327537701199548 0 0 -1
1454 1 22.136427495240312 6.166955697157865 5.512584535509855 -1 0 1
854 1 19.205297398395167 5.444602023266033 7.236661808931299 0 0 0
695 1 17.835691959983965 9.262044809634853 6.036053835453803 1 0 1
757 1 20.031747246795973 7.575780480582456 6.169032069744985 0 -1 1
1514 1 22.162426909010925 5.751708779198283 3.1310413960178716 0 1 1
1269 1 23.617520546748874 6.871707645329678 7.223341513607618 0 1 -1
1947 1 24.61633041646495 6.358825491411383 4.671051734313022 -2 -2 0
806 1 20.939582058240955 8.227940119710013 4.338351302135661 1 2 -1
546 1 22.12116029665627 8.567231552584362 6.935115303557058 0 2 2
839 1 24.04361702286888 11.054246349292796 8.63252265048078 -1 -1 2
1827 1 23.05058603328609 6.744279232384258 9.574256565428064 -1 1 1
230 1 20.349762612284493 6.524148250844959 9.008186430185306 1 0 0
1918 1 25.138407390417647 3.9295399124908705 4.350758238921309 0 0 1
759 1 26.316851268314892 7.291636249118395 6.971602096376186 -1 -1 1
680 1 24.77226383353137 9.16974930089975 6.329394009319117 -1 0 1
161 1 26.85126626743181 9.21822482077711 8.233221087062846 -1 0 -2
699 1 26.715467351841863 5.585083106369841 3.4856082555691326 0 -1 0
833 1 27.694242071978103 5.644130632106705 8.100749148156376 -1 0 1
623 1 25.100189574437962 5.084359141886636 7.942282098945677 0 -2 0
2003 1 27.14757195456994 9.424698498953568 5.067489705714479 0 1 0
1396 1 28.31155715512007 7.8776445124963566 7.289341934116199 1 1 2
1271 1 22.86661103179366 5.986714772064103 0.4988540119383543 -2 -1 0
1876 1 0.24976206906524734 8.799598505327431 5.213993098327287 1 1 0
484 1 0.5225002635705595 10.42767540542029 7.141429261754615 2 1 0
1423 1 2.7588499685357726 8.451401649851544 7.319881329807083 0 1 1
420 1 3.5419827081338986 11.186294110242113 8.091992537341087 1 -1 1
782 1 1.6340693394854142 13.206471898012147 4.9810589218350065 1 0 1
716 1 4.552836658863713 7.983145205433024 8.681585538286493 -1 0 1
1935 1 1.7373280735345658 10.810282547809955 9.225155381795425 2 1 1
474 1 2.444891512700323 10.513217968248336 5.720602940434411 1 0 1
1368 1 4.431773630143497 10.039468231752323 6.393232780758006 -1 -1 1
898 1 6.686976930826514 8.948048094041697 9.312322146594411 0 1 0
990 1 8.557084559251095 10.840973432399071 9.945543348960053 0 0 2
775 1 4.361258537773306 7.040332609015015 6.067778765648766 2 0 2
1898 1 6.214050721391046 8.5843969289096 7.073078039964515 0 1 1
1920 1 6.940420096561386 11.262096615208899 5.966007062673647 1 1 1
1249 1 3.559415031076476 11.528690436568171 10.805560915134688 -1 0 0
357 1 18.66640036828194 13.35898239147143 7.101585301726117 -3 0 -3
1197 1 5.6264630647396645 10.251402989578553 11.153234103456793 -1 1 1
1207 1 10.030968282733145 13.404495709412727 4.084816142920285 2 -1 0
478 1 8.821235885493476 8.446934806813324 6.953195664136374 1 0 -1
1196 1 6.146413454942354 11.300317381467455 8.99202620063539 0 0 2
1733 1 8.869518689153495 6.698919355121039 8.552634069009983 0 1 0
1346 1 8.140091081723785 10.3697373658947 7.825620766557945 -1 0 0
1583 1 17.566885508659617 12.46418640790682 12.855068781661158 0 0 1
793 1 11.082305146979145 8.649413039907747 6.730327876158004 2 1 0
1072 1 12.187418398167885 11.053284271552807 6.873596268855982 0 -1 0
1385 1 10.549432470239651 9.521761521354108 8.930752093283912 0 -1 0
986 1 14.330155326035161 11.706805615488811 6.171172986230557 0 0 1
889 1 16.623130235489462 10.276049256670285 4.467433324005833 1 1 2
711 1 14.9949971610921 11.933394218059824 3.9242425225849624 -1 2 0
169 1 12.946172884398683 12.029915859402013 9.83980301566065 0 0 -1
1275 1 15.034784461397887 11.438301699962269 9.229758915494232 0 1 2
1835 1 13.11590336449826 9.313928776197393 5.80530619616384 -2 1 1
1107 1 16.045833431329964 9.135584312079407 10.497309372060807 1 1 0
1749 1 6.11213502754326 0.3622192852516747 3.6899043069769952 2 1 0
739 1 19.83141751386254 9.200334331202725 8.284170854473537 -1 2 2
1227 1 19.140368434510457 10.125470712187495 4.275724234851035 -1 1 -2
1697 1 20.531909654752347 12.163990860363107 5.394347302850304 0 1 1
1343 1 16.33887532939182 11.952822047479035 7.017436777938608 1 1 1
1820 1 17.323355454836488 12.183702954320093 8.828369125390983 1 0 2
517 1 20.288625059408997 9.755991710941943 6.235858836969186 0 -1 -1
1449 1 18.7942786644593 10.920980550708073 7.208373403148067 0 -1 0
465 1 26.48873283443931 11.552081953000652 12.515697732486197 -1 0 0
1856 1 21.779792345780102 13.781748720970205 5.089733055990986 1 0 1
7 1 21.62192724678094 10.883626134099442 9.678020757160343 -2 1 -1
1180 1 22.536102923860934 10.663094796182811 5.65943190885728 -1 0 -1
2019 1 23.66754637859063 12.577954283633872 5.060310908058873 -2 0 0
789 1 22.01694853384497 10.880970209160246 7.643251953411859 -1 1 -1
901 1 24.077188878452073 13.409081374562517 7.681811553380387 1 0 0
1744 1 24.559033777266727 9.00461905436784 8.776174170060123 -1 2 1
1725 1 21.45456703489676 13.257007044252644 9.936704642011549 1 -1 0
128 1 26.767174363154965 13.505269978867311 6.507352624186383 1 1 0
1281 1 19.469647343321544 4.55821605672762 12.682263559150632 -1 0 2
1258 1 25.97048062603452 10.12158109796587 10.847712086717802 -2 0 1
1014 1 28.366288401795657 10.023861512373294 9.246425674614496 0 -1 0
151 1 0.08427816031208435 11.17563004197755 5.061119451161027 1 -1 1
68 1 27.37674464300244 11.130231802420356 6.826370793900568 0 0 0
767 1 25.09592341167146 11.493227588574516 6.605089264385383 0 -1 0
313 1 26.79741650087685 11.609435530771222 4.45200052842213 -1 -1 0
1007 1 19.158336416892542 0.6450878956328716 2.4745618577795594 0 1 1
1237 1 12.912323214298608 -0.08784690294469577 13.437663562421992 -1 -1 0
719 1 27.112624541115817 6.713783851442201 -0.337009659961541 0 -1 0
1588 1 25.659104681098526 9.70947978681241 13.473177023751417 -1 0 1
1365 1 1.5606558037134834 1.6497462357036192 13.329633381067104 0 2 0
487 1 19.632466870487047 11.3154690586157 9.36880476962511 -1 0 0
611 1 5.254519001187968 12.710191436926975 7.0358497711941625 0 0 -1
139 1 3.071430654820483 1.3486912327597578 11.309664433470731 0 0 -1
92 1 0.3265011326769375 4.927591436446827 13.00270942997108 1 0 -1
1579 1 21.036225021076532 14.084629853458313 0.19587093336546324 0 0 1
600 1 7.480664458040275 0.01996644002795983 10.508613541161898 1 0 -1
519 1 4.98805856230545 -0.11746699556786344 12.753727598435427 1 -1 0
540 1 8.77011862065756 13.036433955021792 6.63283047170254 0 1 0
1646 1 4.08955903657793 3.772010777122463 10.635620409584034 0 0 -1
825 1 7.917770860893601 2.4993853195519007 10.872830259809481 -1 0 1
666 1 4.378838615708699 4.378214570270025 1.7358529236307376 1 0 0
823 1 5.924965733397246 1.982978867197445 11.500663892484688 2 -2 -1
104 1 25.985939869474343 13.077665713805885 -0.09930618279887521 0 -1 0
762 1 7.811880398702142 0.07027916834808134 12.716537600934968 0 1 -1
343 1 9.509296087306693 0.4408375059117926 10.804966676464733 1 0 1
673 1 10.19498115075451 4.9815018421618005 9.17720615397355 0 1 0
308 1 10.813989597029853 2.4466194407578685 13.09641131054114 1 -1 0
1037 1 11.590621026489025 1.5053284992373106 11.094565923165643 1 0 -1
2004 1 9.555696633847328 4.000664539522498 11.658254002725485 2 1 1
582 1 10.38073297563425 2.5205845414283714 9.395441818765045 -1 0 0
999 1 12.588365281778861 1.5045672026189028 2.8628801940706885 -1 0 1
1186 1 12.581739323582566 3.651687818160533 12.380520284535786 0 1 1
1667 1 15.682936090019705 0.8000103745122085 9.69781525305441 0 0 0
377 1 17.055888107373825 9.514415829154117 8.364658934304847 2 -1 -1
1066 1 11.96979182191427 3.928791086555651 10.132733828445176 -2 -1 0
720 1 15.169176974237445 3.4196542591385493 12.693320136298246 0 0 1
1881 1 13.550077594739156 2.091218721817316 10.324175934252823 -1 2 1
1963 1 1.9153713196965327 13.047589257567541 -0.24778763748067956 -1 1 0
1832 1 17.63804238943917 0.5160344907283438 11.46572210806909 -3 1 0
1983 1 20.524895267418295 1.065812115975108 10.252774816290382 0 0 1
1892 1 15.086273711156513 1.2651417148161457 12.215632455517278 -1 2 0
1344 1 7.451370418644157 8.076340666739434 13.979381824413025 -1 1 1
237 1 18.21447868247614 2.8281949008094087 13.287980280863454 1 0 0
794 1 16.593014068401313 2.586702250601814 11.026969373643773 0 1 1
1992 1 19.167436128650216 3.1504181231717876 11.015640753768576 -1 1 0
625 1 20.48272257207338 4.2023978911382045 9.258078107858504 0 -1 0
1406 1 18.939661307525462 -0.19214955903820508 4.574473379963613 1 1 -1
1828 1 27.193299122198567 3.4102919974417123 13.286805391071534 1 0 2
776 1 20.364039948374913 1.8836172373110913 12.77471002574042 0 0 -1
421 1 23.429074277206166 2.4299751127154647 11.265090494812746 -1 1 -1
523 1 7.409019851627672 13.194211754396385 8.297609791590556 -1 -2 1
707 1 21.938776041358587 0.3326732967054503 12.153867237409521 0 0 0
1765 1 28.067508600974172 1.387396162095604 11.987618152119895 0 0 0
1168 1 23.653321300652028 1.2479261598433715 13.500418798023869 -1 0 0
2032 1 25.361033212427134 1.2304732533876255 12.309490946827289 -2 -1 1
1172 1 26.284284610154423 3.2601042282583346 11.29819910113606 -1 2 0
1078 1 27.063718070426923 1.3612510628829027 14.138325373292066 -1 1 -1
1034 1 -0.29292846455918564 3.5871138940984526 11.294249247607853 0 0 -2
1927 1 0.8663086998882086 0.9084373244432664 10.828276300580294 1 1 1
119 1 24.600815493149256 3.5853132791061517 12.666183315822899 -1 -2 0
307 1 27.818818203829743 3.155534406380275 9.352729363907063 1 0 0
1041 1 0.33309127349769263 4.685444552969773 8.980374460924128 0 1 -2
1650 1 20.132349057329435 1.377391729259607 -0.36590222078708656 -1 1 0
1706 1 10.052440600784713 12.170616649075193 8.453766240271383 -2 1 2
2044 1 23.62374737864442 10.495184307917201 10.977773630973333 0 0 0
1990 1 2.298368922160508 9.559032372969533 13.542390492278951 0 1 1
703 1 18.674771926790292 8.939743958792317 10.154953130502047 0 -2 -1
12 1 2.285324443674961 5.827834419951706 13.834455379653784 -1 -2 -2
1387 1 1.13290467765225 7.993907930511671 12.081379955835509 0 0 0
1247 1 2.3189066012040165 3.301105446000534 12.102555901309433 2 0 0
1446 1 1.481527371367237 5.273139855963916 10.789291759591299 0 -1 0
653 1 28.007506945017848 6.5421571359016815 12.03237811269391 -1 -1 -1
1100 1 25.310973129846 0.9691796763675815 9.461939638114673 -1 1 0
1270 1 4.475022387185165 4.792375911699702 12.679276293262582 2 1 0
952 1 6.787680517583188 4.4859299372423855 11.496499858893289 1 0 0
1974 1 5.784258917652714 8.237428378459143 11.810589599095003 0 0 1
1558 1 6.20311755024062 6.3143729618014826 12.67049760115488 1 1 0
1242 1 3.8897694434941172 6.810649128537639 11.948341962361871 1 1 1
550 1 7.143828224962541 10.215718645107772 14.144333011652627 1 0 0
1885 1 11.643598982319025 6.927475652624923 8.487376746745108 0 0 2
1891 1 16.292314357706694 5.270737381509657 9.802377818948361 0 1 1
1326 1 11.112940165921227 5.451363087963334 11.349137895971605 -1 1 1
995 1 10.749213731415873 7.966034097664927 12.251075997572464 1 -1 0
89 1 12.196949518142329 6.130350710651186 13.763583118664243 0 -1 -1
273 1 8.75064743977475 6.376154119670077 12.072505357481198 0 -1 -1
704 1 8.218604185978991 8.672427564004671 11.609354427161051 0 0 0
463 1 6.572388207878887 13.229876585700044 13.052134143776575 1 -1 0
656 1 14.458270936466185 10.047269571106243 11.493088820372176 0 0 1
1867 1 12.156484765948488 10.004178958866133 12.973113674619276 -2 1 0
502 1 4.897030810295465 12.391256235193115 4.039102855089017 0 1 -1