LAMMPS data file via write_data, version 29 Oct 2020, timestep = 300000

2048 atoms
1 atom types

-0.20992618769892246 28.561926187698887 xlo xhi
-0.20992618769892246 28.561926187698887 ylo yhi
-0.20992618769892246 28.561926187698887 zlo zhi

Masses

1 58.933

Atoms # atomic

35 1 1.6782322115280217 3.2996301782632145 1.5374882729792239 0 0 0
130 1 1.940366296449001 1.9068162405244746 3.2401642037277503 0 0 0
165 1 3.908054157449815 3.3319478486826224 3.2549081856560687 0 0 0
7 1 3.5728113168469067 1.2432926415552081 1.676741975732476 0 0 0
161 1 28.512478225952893 3.3744047393261325 3.584778142362221 -1 0 0
4 1 -0.17250224348882884 1.6478821570107405 1.9021051446942567 0 0 0
12 1 7.041735783734564 1.4447143806069571 1.9576041069725942 0 0 0
39 1 5.261653674760086 2.9879075643674344 1.6298064844348494 0 0 0
134 1 5.215350656396849 1.3398943904035976 3.616781873970757 0 0 0
169 1 6.892210859179747 2.9083120027506832 3.314325286672508 0 0 0
1169 1 13.764667725443985 13.98849794950764 3.3707794630605044 0 0 0
1161 1 6.887721900182853 14.010997719958597 3.0642033679672265 0 0 0
403 1 15.880061882110837 -0.08173560997671511 12.145145855753 0 0 0
43 1 8.907436991270766 3.284817894916518 2.0429867705464213 0 0 0
173 1 10.356139498435455 3.128893138868255 3.659932950106948 0 0 0
140 1 8.91623963623726 1.1917221521357695 3.3071683455602816 0 0 0
16 1 10.736936909251545 1.4152269399418211 1.7936280218919873 0 0 0
33 1 -0.027685434544835158 3.3372648163972953 -0.04555650842805234 0 0 0
50 1 15.27503154715368 5.537592892464269 0.025772360454129672 0 0 0
142 1 12.289002897959788 1.4700481180924285 3.6102873051551345 0 0 0
47 1 12.446433462038783 3.1299974555194368 1.5488463970580912 0 0 0
20 1 14.362548545894088 1.6043339463443271 1.7173500428456852 0 0 0
177 1 14.332984596988009 3.2235582090454242 3.453361605580922 0 0 0
51 1 16.141207251034395 3.682195130996125 1.1189627130840112 0 0 0
285 1 24.58360254464242 -0.026531121863317658 6.953900133403693 0 0 0
1128 1 1.5295999364132475 1.6411951644749956 0.09959159019667829 0 1 0
57 1 21.195403030185474 3.409804440467243 0.16050861425734564 0 0 0
1425 1 14.280341195459217 14.16308048632153 10.544314243422216 0 0 0
1439 1 24.94404660394902 12.274254037668658 11.999998835968347 0 0 0
146 1 16.3936687764653 1.4253882669652713 3.3224238285562087 0 0 0
24 1 17.93663715364939 1.6161281402518508 1.5172128597535224 0 0 0
181 1 17.854307714558125 3.2363671737424524 3.3457571060558027 0 0 0
150 1 19.74359393568334 1.2981609511243006 3.1062171817299427 0 0 0
55 1 19.781914592223618 3.109789950956274 1.8246843378273425 0 0 0
385 1 28.389948461710226 0.05940119323496407 10.506533847395186 -1 0 0
561 1 14.15625899572736 2.9731410248177177 14.03647729798793 0 0 0
28 1 21.873288937311088 1.5856267121572751 1.6013367989881788 0 0 0
59 1 23.049346832041635 3.3225834937425804 1.3763384625091248 0 0 0
154 1 23.160070026323062 1.2742929161131187 3.8681733287774547 0 0 0
185 1 21.553198350672385 3.0974700524259973 3.4056721362861904 0 0 0
189 1 24.521543494589142 3.496815656792321 3.1527708664158216 0 0 0
261 1 3.242999694941051 -0.20086563836715854 7.3480831521156045 0 0 0
529 1 14.14224137037827 -0.08772356501165317 14.093815999749864 0 0 0
32 1 24.535217049403318 1.4323054215599842 1.6839976638770668 0 0 0
63 1 26.383990300286314 2.81460366850731 1.7490342074962986 0 0 0
155 1 26.51618938969059 1.596981490086658 3.75652246148676 0 0 0
526 1 12.426336514922369 1.71316645823901 13.925404026104003 0 0 0
1537 1 28.299527040340234 14.037877980342614 13.818095171785291 -1 0 0
273 1 14.507482012621086 -0.20560427796979752 6.847758796049405 0 0 0
510 1 26.648588779909797 12.392073797834668 10.571025164098932 0 0 0
162 1 1.7065059133527762 5.1058069330666935 3.373377055608854 0 0 0
67 1 1.5027378530015698 6.984063552349931 1.2030729513670622 0 0 0
72 1 3.449481248995677 8.979501103824386 1.5394867544786188 0 0 0
197 1 3.2522246999971185 6.6123838928092615 3.4382481981619812 0 0 0
40 1 3.5152692399392067 5.336091542881664 1.446159596491779 0 0 0
194 1 1.828573142611564 8.736017030479578 3.623924397611383 0 0 0
68 1 -0.1524016469473075 8.790346651207923 1.578943297189392 0 0 0
638 1 26.667071855014527 12.41899734166668 13.682063118193607 0 0 0
166 1 5.349263764547376 5.160032935670507 3.2446143853602107 0 0 0
44 1 6.992401883131375 5.142185183397422 1.3016996512867058 0 0 0
71 1 5.200592756928443 7.138690051741113 1.625671051002803 0 0 0
201 1 6.845230087849495 6.947412858215647 3.5012655581700827 0 0 0
76 1 6.683254774538047 8.85878794240753 1.9323634873586206 0 0 0
198 1 5.3153851440374 8.622028721150544 3.5896426000036934 0 0 0
90 1 23.191267488784156 8.812295029387125 -0.16620121752225625 0 0 0
114 1 15.846280032324948 11.900343546576144 0.12969357422277356 0 0 0
170 1 8.63385111210696 5.13093300512095 3.2397100648166797 0 0 0
75 1 10.876401270729314 5.21881148616828 1.4664062492795154 0 0 0
205 1 10.166670414110058 6.6778365699479005 3.4949580871290538 0 0 0
80 1 10.520288511984019 8.962667730936136 0.8919097390469446 0 0 0
77 1 8.432950288356027 6.758801387981366 1.862866519015101 0 0 0
202 1 8.622331750356155 8.841534963243019 3.217694238950634 0 0 0
1311 1 26.987467959007393 13.973022913415557 8.699111105158066 0 0 0
1435 1 23.402860837224264 13.889225526464585 12.187088910396518 0 0 0
206 1 12.022506181605271 8.831067704939056 3.6680387385168887 0 0 0
48 1 12.279152379320546 7.107777622138868 1.859451424132375 0 0 0
174 1 12.084669014301282 4.612133739978758 3.5716352768685784 0 0 0
52 1 13.774257335199522 4.793097857582445 1.7236722244830358 0 0 0
209 1 14.575699701514736 7.257409706264587 3.288924239479388 0 0 0
84 1 13.989347743438358 8.691851129204098 1.5386997259870125 0 0 0
178 1 16.03826797896665 4.805878886678403 3.3248069624321666 0 0 0
210 1 16.052234150062848 9.084601245396836 3.5248547551358222 0 0 0
1566 1 25.968352556974384 14.001597792908928 12.517840312600141 0 0 0
37 1 3.592514802796753 3.5952950050620323 -0.034020075543951867 0 0 0
83 1 16.13442621285512 7.29999235476538 1.818763595576537 0 0 0
182 1 19.612008624018735 5.120402664765982 3.570673451838379 0 0 0
56 1 18.413882262517088 5.55337680232411 1.9216211382784256 0 0 0
213 1 18.129876776912194 7.574716023677632 3.558030020349674 0 0 0
87 1 19.500711919312884 7.511763058103213 1.4661800228942363 0 0 0
88 1 17.695688493614025 8.934196971046967 1.4858770695136374 0 0 0
214 1 19.784348372999855 9.272724410840093 3.6869461727457025 0 0 0
549 1 3.6451909938366707 3.7809680678381277 13.956903561525442 0 0 0
1289 1 6.493623236936966 14.130804032870111 7.21089927217188 0 0 0
60 1 20.816720311041866 5.729598067550458 1.4922941697138137 0 0 0
186 1 22.677720962239576 4.9944277178173335 3.209777304590363 0 0 0
91 1 23.15929538295915 6.7334322953082895 1.5141860902487647 0 0 0
217 1 21.168424617387817 7.2813936441930505 3.610380952350422 0 0 0
251 1 23.290923783209596 9.016964632525706 3.4148726897209056 0 0 0
218 1 21.559971299831126 8.814283237184664 1.6515049029096083 0 0 0
36 1 -0.0688615276744606 5.265323714413365 1.7263833833338582 0 0 0
164 1 -0.052120653677250106 6.998029110870769 3.345369197999898 0 0 0
64 1 24.83896144035449 5.323818909200339 1.6013541122915043 0 0 0
221 1 25.251399536461193 6.69907848785066 3.367861836187394 0 0 0
190 1 26.738404414899342 4.860509190140479 2.94220206024802 0 0 0
95 1 26.944042234278918 6.848033068081127 1.4433282795167153 0 0 0
96 1 26.926262990316108 8.58716584390888 2.9719086898776848 0 0 0
127 1 24.887614376066647 8.625674329081845 1.8067718118561715 0 0 0
513 1 28.321260910984382 0.03861585874978968 13.961788987638972 -1 0 0
10 1 8.715283096787516 1.638598057144093 0.04663414561839857 0 0 0
1163 1 8.217464768180497 13.88075627583188 5.107438842491405 0 0 0
609 1 26.86556156839885 10.389902606821968 12.522987399327429 -1 0 0
99 1 1.5532377269860729 10.494797133395396 1.7421460714321826 0 0 0
226 1 1.8956898091572896 11.989684213367633 3.3864099801703076 0 0 0
104 1 3.3736700362282486 11.950164385593396 1.4699483748339062 0 0 0
229 1 3.486352426499602 10.381491476223829 3.3711884125012643 0 0 0
121 1 21.456811433238705 10.902682815447754 -0.03998965827211701 0 0 0
507 1 22.953198127879094 9.051764764083932 14.073720224170238 0 0 0
103 1 5.022221903283 10.418133464317272 1.8420003939243221 0 0 0
108 1 6.91348966989084 12.38579126817144 1.3570206666700828 0 0 0
230 1 5.445768025779185 12.193543616341579 3.3786184913500232 0 0 0
233 1 7.048816828989727 10.783148583276674 2.9959092265051095 0 0 0
621 1 6.871430312579757 10.739318100852714 14.108368172412867 0 0 0
1301 1 17.69466443060391 13.949293570151788 6.839600692383521 0 0 0
118 1 19.506854990893093 12.233654104245812 0.35209399144362163 0 0 0
1043 1 15.649126812278697 13.98808545914593 1.5226813214762425 0 0 0
234 1 8.93221099531812 12.603760757652083 3.318300412992189 0 0 0
107 1 8.518992888154616 10.608415172944019 1.4366258468532918 0 0 0
106 1 10.388765696619698 12.533136979616788 1.4149478576125323 0 0 0
237 1 10.601431666592731 10.66343382972471 3.4788560004781703 0 0 0
401 1 13.564715303187931 -0.1673267128674965 10.104668662270084 0 0 0
1419 1 8.68862232142866 14.11918561286452 12.48726493232894 0 0 0
553 1 7.142998670685253 3.19322888651104 14.136614337967572 0 0 0
1027 1 1.721978927035151 13.974548669833066 1.945743045939218 0 0 0
238 1 12.409701984136376 12.289947913325005 3.6459531377053196 0 0 0
78 1 11.953574892450044 10.641156474849142 1.6442179510760893 0 0 0
241 1 13.74263336806969 12.248030596112953 1.5671948070052932 0 0 0
212 1 14.144342679908547 10.317915988141165 3.3083117305997085 0 0 0
115 1 15.875027170480443 10.194482784089864 1.5139694253187514 0 0 0
116 1 15.262106906299028 12.375098985809394 3.5581290320873062 0 0 0
399 1 12.517069102152217 -0.025411949077045692 12.230783555252916 0 0 0
42 1 9.283424116070256 4.962992482971442 -0.016603817572545393 0 0 0
73 1 6.792019688037347 6.997438282567833 -0.18234300118039296 0 0 0
105 1 6.563455691394587 10.532629044249294 0.010670670162815366 0 0 0
242 1 17.880414338344696 10.71979259461276 3.5791523387602013 0 0 0
119 1 19.691035313626145 10.572646989642037 1.9165802601068496 0 0 0
120 1 17.383155312633672 12.450787895997857 2.1626298664579133 0 0 0
246 1 19.783172637640213 12.368224867073042 3.5357516168129384 0 0 0
1949 1 26.886838367950805 12.429088821986984 0.13910444947222028 0 0 1
81 1 13.572342878361734 6.92182086916688 -0.07682318761227863 0 0 0
123 1 23.04633119732151 10.648092483437493 1.7464912012695466 0 0 0
124 1 21.484889749910398 12.513974776010304 1.739640886652027 0 0 0
249 1 21.62511350843598 10.825866590581132 3.632231694430877 0 0 0
250 1 23.217583700716148 12.530313349937659 3.3800960324542144 0 0 0
128 1 25.17066420174368 12.311851188759935 1.6444051708980771 0 0 0
478 1 24.969689836494524 10.591331785019527 10.433702552369132 0 0 0
281 1 21.328501908550873 -0.13822048754133176 7.2849212322561145 0 0 0
1287 1 5.105959368587949 13.85036319246018 9.141368768292185 0 0 0
100 1 -0.10490902631496625 12.454829706147503 2.078705291275561 0 0 0
122 1 23.21105226069913 12.225451053404722 -0.017908404377373816 0 0 0
225 1 28.452336662365557 10.386809967100989 3.562950532519652 -1 0 0
253 1 25.05364903876726 10.562377166930712 3.3509813718021846 0 0 0
254 1 26.625372964353566 12.278485874711908 3.435872354575294 0 0 0
1024 1 26.96169739553417 10.467540451594104 1.7079864992016422 0 0 1
1002 1 8.612952771611772 12.417191230305058 -0.03303058095017747 0 0 1
136 1 3.3821179068828564 1.7956669630733084 5.1157659823421575 0 0 0
163 1 1.60970841825367 3.4173670077673526 5.205834183572735 0 0 0
258 1 1.4071560402395515 1.2240645585429606 6.785339699889151 0 0 0
291 1 1.558418406401904 3.12565137052696 8.725023388753087 0 0 0
293 1 3.1292227201165774 3.047330452712491 7.109958780915455 0 0 0
264 1 2.985440741366369 1.3293310840849288 8.956439709968123 0 0 0
260 1 -0.1478521563733322 1.5682635749530054 8.50163017025591 0 0 0
290 1 0.26396363040608606 3.205193457158748 6.928310965411485 0 0 0
1144 1 20.254404089825787 -0.12420443486900991 1.3981922155624353 0 1 0
265 1 7.211704104682193 1.4046915687422625 5.387038622917417 0 0 0
167 1 5.259588969614743 2.8235842624921905 5.29928435305262 0 0 0
262 1 4.840256957818088 1.3131074987833433 7.0800205891323635 0 0 0
297 1 6.667266159355565 3.377615008281084 7.4276750157274325 0 0 0
295 1 5.081897619890994 2.7724165318046303 9.05988711297376 0 0 0
268 1 6.944174497911715 1.3788453644528325 8.466503229621095 0 0 0
62 1 26.480601340051276 4.86592023339322 -0.14189038806030613 0 0 0
171 1 8.573604605376152 3.404061075422002 4.836071383050691 0 0 0
144 1 10.433743431134532 1.2227184912171736 5.535833400551759 0 0 0
266 1 8.95815078683436 1.2847913871606795 7.505761932783505 0 0 0
301 1 10.811134261105172 3.4019488984523667 6.875829753669861 0 0 0
299 1 8.779021722007519 3.5752192253653123 8.781671055317572 0 0 0
272 1 10.981691844219569 1.6928467936348675 8.565479333111762 0 0 0
270 1 12.539226065483508 1.769065836562573 6.951101525337806 0 0 0
1291 1 8.67802062837313 14.065735921650866 8.92792113451645 0 0 0
54 1 19.722256635178894 5.336614206420947 -0.1611788988311722 0 0 0
1281 1 0.16577054777209288 14.043841847837868 7.10552855859301 0 0 0
1417 1 6.890146031464324 14.051484166190567 10.805767048916241 0 0 0
175 1 12.586578388791342 3.4571585943097887 5.496890706010519 0 0 0
303 1 12.454301978062437 3.929008807376812 8.619830545963305 0 0 0
148 1 14.128323873342508 1.3075346679723376 4.735488502209703 0 0 0
305 1 14.355441128009772 3.814705649404103 6.790816993482454 0 0 0
276 1 13.993776787006853 2.204677257405848 8.865421267870984 0 0 0
274 1 15.838780825185417 2.0843637054212714 6.968591057640516 0 0 0
307 1 16.254174856647087 4.066347090632314 8.866317509624652 0 0 0
582 1 4.989246656951794 8.246904444642734 13.787369181709538 0 0 0
481 1 -0.078204758723496 10.721812542030086 10.653345159314446 0 0 0
38 1 5.192101994943315 4.994414530184225 -0.06120022283633447 0 0 0
179 1 15.788452899989455 3.3055666945085513 4.930106048905628 0 0 0
152 1 17.240387461713915 1.5040311608698391 5.3122495976111725 0 0 0
183 1 19.27081203860126 2.921708797699843 5.228469777879685 0 0 0
309 1 17.86333018425733 3.458950835770337 7.185008599705367 0 0 0
278 1 19.538941916172035 1.5890345773919596 7.065784473335761 0 0 0
280 1 17.729258919192947 1.496895871598465 8.633260257173697 0 0 0
311 1 19.83039923672043 3.234229045406364 8.738536349015025 0 0 0
310 1 19.38330923375481 5.256059502504233 6.980680584098721 0 0 0
508 1 21.373034209834604 12.81836988203806 12.243310101689682 0 0 0
1157 1 3.4366609007264883 13.95911124579788 3.550774063472172 0 0 0
156 1 21.12719756783205 1.326722778942704 5.109800149018691 0 0 0
187 1 23.379748145005305 3.455814416836225 5.377197858820844 0 0 0
282 1 22.93846318844926 1.494353771382362 6.765269357400647 0 0 0
313 1 21.296849398928796 3.33442367045868 6.817317395802748 0 0 0
315 1 23.271016290096338 3.487077301179588 8.751323021266032 0 0 0
284 1 21.561620002591077 1.3840747427053728 8.875626877059819 0 0 0
1165 1 10.977539730951705 13.894173597733253 3.263144099080026 0 0 0
581 1 3.1540471283151863 6.626766061771117 13.944479355947307 0 0 0
317 1 24.772467596666758 3.2607714241584334 7.250449677801725 0 0 0
132 1 0.09913517252194354 1.3857352448124516 4.623894827081142 0 0 0
288 1 24.479703669319456 1.2786829980263248 8.721232819864948 0 0 0
191 1 27.14847297786231 3.381889446825726 5.265508859392348 0 0 0
160 1 24.988897231367535 1.7003061106087565 5.424800533461081 0 0 0
289 1 26.764980839413543 3.386376011772315 8.530031610407717 -1 0 0
286 1 26.846904329065623 1.7560342646685572 6.898406209333744 0 0 0
195 1 1.8087157275244894 4.997908753358482 7.050739081857736 0 0 0
193 1 1.8055949627881036 6.819002208448974 5.418046943610489 0 0 0
322 1 1.6783548736644414 8.73700362752975 6.637723438245688 0 0 0
323 1 1.2274416054198272 7.101089473117877 8.572368445538888 0 0 0
168 1 3.61401853909857 4.996326480208127 5.29048362278666 0 0 0
200 1 3.521853071766025 8.447599266411212 5.01210665406904 0 0 0
325 1 3.7630947359174765 6.752549595294243 6.825456006705874 0 0 0
328 1 3.052384240311815 8.585271409568767 9.205123881754258 0 0 0
296 1 3.266300767447306 5.019662429779178 8.89210045758243 0 0 0
321 1 28.309085939431185 7.434749316674493 7.019418792423854 -1 0 0
292 1 28.529943366829013 4.979473906899191 8.725681556923865 -1 0 0
324 1 0.11515381372602668 8.88970925693726 8.813636311680394 0 0 0
223 1 -0.10459332645933557 5.2309258272366606 5.729577015789194 1 0 0
300 1 7.222550894631265 5.210893986444258 9.095767113546662 0 0 0
204 1 7.111000619664375 9.140261307355257 5.173930547559758 0 0 0
199 1 5.571146759648749 6.933955552784032 5.516699063126914 0 0 0
294 1 5.224911377820593 4.995503649120136 7.569064595009953 0 0 0
172 1 6.611363502149592 4.839628869047136 5.016819144421398 0 0 0
329 1 7.149377634668241 7.044881966762665 7.143137779665555 0 0 0
327 1 5.166189897798527 7.1191590339500666 8.58166961806646 0 0 0
326 1 5.289345950450285 9.191533676470478 6.903420806147296 0 0 0
332 1 6.9238756038391625 8.560450457003942 9.029681684588423 0 0 0
298 1 8.60343757695704 5.252273702215265 7.088847264065291 0 0 0
203 1 8.332459659449416 7.1437039922716465 5.3160034936867735 0 0 0
208 1 10.390319240313076 8.885880496863013 5.210301040437238 0 0 0
176 1 10.230146076256672 5.422128680831227 5.2893720980667 0 0 0
333 1 10.564492045121131 7.263485642470398 6.706316798301701 0 0 0
304 1 10.643184168116637 5.32175795979841 8.726563319533765 0 0 0
331 1 9.158239576088741 7.166229058242499 8.566857124745466 0 0 0
336 1 10.639339078980708 8.652437122162091 8.709519054436079 0 0 0
330 1 8.479122815738705 9.210025605449708 6.86042206715276 0 0 0
334 1 12.421071359923289 8.970788683213675 7.326838251646318 0 0 0
335 1 12.543791093841621 6.813736832737835 8.734658359629814 0 0 0
302 1 12.290485125011333 5.329475492449685 7.004056226065106 0 0 0
207 1 12.276977395240934 7.185008726274102 5.16225911555375 0 0 0
180 1 14.452335931864983 5.520071446944825 4.769933725128622 0 0 0
337 1 13.950299060215107 7.090986531341391 6.470647737712418 0 0 0
338 1 13.981991639224956 8.870793965909682 4.879175441640806 0 0 0
340 1 14.119887127250475 8.784850641670932 8.971128704196397 0 0 0
308 1 14.34419903661388 5.741782721865782 8.677384562502334 0 0 0
211 1 16.09871524083335 7.231226343622263 5.139776286601467 0 0 0
216 1 15.966467602802528 8.758082802090842 6.717098880808533 0 0 0
339 1 16.349773202817143 7.269436980561565 9.069418971189734 0 0 0
306 1 15.855434310708237 5.807714999634778 7.179871100307953 0 0 0
215 1 19.508638916382505 6.815524328131875 5.219043264940875 0 0 0
184 1 17.3113718254798 5.057048569017437 5.27953107283275 0 0 0
341 1 17.946857325619224 7.034400326691461 6.691210461278208 0 0 0
343 1 19.698118424297455 7.294658419765015 8.635450591162181 0 0 0
344 1 18.075362905646283 8.800366378619767 8.863007653522525 0 0 0
342 1 19.78930527656317 8.766458016474687 6.777268456149057 0 0 0
245 1 17.973185005033017 8.974375746511635 5.170805035028023 0 0 0
312 1 17.910236934021516 5.523377961414361 9.041245657205149 0 0 0
314 1 23.807525169219844 5.231292079750276 7.166404836756526 0 0 0
188 1 21.408423098550465 4.854226963110449 5.162430968772085 0 0 0
219 1 23.390054370029326 6.254502487703458 5.041001935242928 0 0 0
316 1 21.23250658058353 5.018609564964733 8.594814557897376 0 0 0
345 1 21.752326143487927 6.657553574871083 6.802270068662121 0 0 0
346 1 23.294794873035478 8.269658542620741 6.471164352701146 0 0 0
347 1 23.32749586948082 7.116724866048423 9.104626056282987 0 0 0
509 1 21.715568023762543 9.007747120719882 8.875793665522533 0 0 0
220 1 21.528125251853112 8.963900913980066 5.345338244840799 0 0 0
196 1 28.515771785738206 8.979152271347548 5.109250206415499 -1 0 0
349 1 25.236305533986066 7.109628479523734 6.900400376082735 0 0 0
192 1 25.083717933778082 4.77452268729169 5.279507887522337 0 0 0
352 1 24.517225724949704 8.951504590634798 8.644548280386655 0 0 0
320 1 25.04083125137683 5.2304622211152205 8.989079627447673 0 0 0
224 1 25.33622799647921 8.676060099865948 5.348504817588084 0 0 0
222 1 26.90310084337992 6.677401700684264 5.015027545635961 0 0 0
318 1 26.76862723472373 5.187519297256171 6.987940717754533 0 0 0
351 1 26.768481461007948 6.955033101517412 9.101164562486488 0 0 0
378 1 26.807485426913555 8.697060456716823 7.632134884303877 0 0 0
546 1 1.45988203068328 4.952610774886414 14.121642468429958 0 0 0
232 1 3.1127929065311744 12.433898948792049 5.379777970239136 0 0 0
227 1 1.7200465485012073 10.608678623112702 5.373322803382404 0 0 0
354 1 1.7086523893345267 12.182137516926366 7.272741604202117 0 0 0
355 1 1.7134366778807366 10.390827578914058 8.800574425777198 0 0 0
357 1 3.4176109456563437 10.17649147940244 7.245178755265707 0 0 0
360 1 3.207346153779602 12.129526169014849 9.136578014399262 0 0 0
356 1 0.22103957907423089 12.571422590677614 8.96456764271325 0 0 0
228 1 -0.00302185393950552 12.224754970639129 4.87236520821723 0 0 0
236 1 6.74527655404677 12.31762932001425 5.333564128344764 0 0 0
231 1 4.729746683803471 10.749249288512562 5.151725651701379 0 0 0
361 1 6.727278548396499 10.907877431949961 6.94328892745895 0 0 0
358 1 4.418227430854684 12.215245423467122 7.275126598362576 0 0 0
359 1 5.125221204197703 10.348004494160937 8.923333883938653 0 0 0
486 1 6.670786850024092 11.998946245229675 8.806693547450932 0 0 0
53 1 17.993486916808646 3.6298507646832876 0.04157287739562637 0 0 0
362 1 8.460484208913886 12.54937898224393 7.197400665011324 0 0 0
235 1 8.774766032562706 11.047523324222334 5.102002898801205 0 0 0
240 1 10.695732183055327 12.433409504424533 5.332508654753804 0 0 0
365 1 10.552014349531884 10.725323774911937 7.000273315069672 0 0 0
368 1 10.587172308194537 12.351592960097555 8.792493448097659 0 0 0
363 1 9.041073029032757 10.602282220875855 8.890858986331871 0 0 0
239 1 12.207387518674356 10.58865543934077 5.474907617785506 0 0 0
550 1 5.490038611687205 5.016089000846246 14.115948058834453 0 0 0
593 1 14.31622329394655 7.3245040391873655 13.628666285036374 0 0 0
629 1 17.96732266938554 10.503871519249605 14.09902322637592 0 0 0
397 1 10.688372772867375 -0.1861280302404244 10.302607818067171 0 0 0
367 1 12.23293763120812 10.726085534752041 8.848796270603433 0 0 0
366 1 12.555048393323352 12.441667851371546 7.099243338384299 0 0 0
244 1 13.996923712960212 12.347643915691064 5.366205068023649 0 0 0
369 1 14.237574606173649 10.765231259863967 7.328469152933331 0 0 0
371 1 15.787692078662117 10.356169161473035 8.602554337986508 0 0 0
370 1 15.841083750115505 12.171442671565593 6.895346387787475 0 0 0
243 1 16.044795306034842 10.645149596032208 5.094996543848438 0 0 0
94 1 26.585992329528366 8.694668837348045 0.3003193369210768 0 0 0
376 1 17.912642257149194 12.334233357959548 8.618564981778569 0 0 0
248 1 17.997529082037488 12.213314274781826 5.26907444795342 0 0 0
373 1 17.677020025353688 10.45578064527866 7.173177331045227 0 0 0
374 1 19.764385917307102 12.85309921874563 6.836035419837278 0 0 0
247 1 19.818818900534907 10.718271619008291 5.280605998021711 0 0 0
375 1 19.621319332203633 10.665806195624237 8.470093605029627 0 0 0
512 1 22.86726621770804 11.10538810917164 12.63457995424015 0 0 0
501 1 15.844725549351296 10.686365476158496 12.452020272879768 0 0 0
381 1 23.194319622896128 10.535581379344752 5.25245131612279 0 0 0
348 1 23.139953457854556 10.930410255742679 8.582538752076305 0 0 0
380 1 21.702644371627233 12.633961077641688 8.245036048490418 0 0 0
252 1 21.65459511041237 12.938985083688927 5.597369271812711 0 0 0
377 1 21.39920812248598 10.78535601543801 7.182653376098421 0 0 0
1305 1 23.649213481960203 12.858017323365642 6.795213545139628 0 0 0
506 1 23.358723066979195 12.674930349987456 10.247829655841617 0 0 0
1159 1 4.946277961563907 13.721237263551899 5.248686493763377 0 0 0
505 1 21.857963947319888 10.8055908430587 10.76975445705165 0 0 0
511 1 25.020073727196294 12.307248187479917 8.367762564745966 0 0 0
353 1 -0.051437038564400545 10.56182554543889 6.722738359329716 0 0 0
256 1 24.98989454012165 12.419062142298046 5.187319923726718 0 0 0
379 1 25.071558976443885 10.473245269721854 6.985501904352813 0 0 0
255 1 26.771730896609235 10.161672693561767 5.198615382067145 0 0 0
383 1 27.244538018185402 10.558706221825437 9.033499012038114 0 0 0
382 1 27.052932303101983 11.970287407554856 7.029079852658883 0 0 0
491 1 8.751458326844185 10.770534311057189 12.531369127422574 0 0 0
386 1 2.0018431982389955 1.475187406824653 10.96495710771409 0 0 0
419 1 1.6642537540211035 3.4342418541987283 12.395198982508864 0 0 0
421 1 3.282953081656182 3.4427489828174576 10.705573224170847 0 0 0
392 1 3.632448280249688 1.5995460177487129 12.352103263411449 0 0 0
388 1 28.528543756708114 1.7526399962038883 12.245020746296555 -1 0 0
417 1 28.511081248146493 3.1438481234915754 10.282628696956225 -1 0 0
537 1 21.00741933729431 -0.039362188849263596 13.802249770619895 0 0 0
1293 1 10.295918219481207 14.044916237910765 7.128603784156684 0 0 0
390 1 5.139843058565257 1.4974691527957134 10.619294739826861 0 0 0
396 1 7.261039292028931 1.7719173161523454 12.264610213691425 0 0 0
423 1 5.262963899743006 3.2495070219339737 12.008549617587184 0 0 0
425 1 7.367675409523962 3.3392940597882204 10.466607460000143 0 0 0
504 1 17.70247782551949 12.37028824289556 12.255697553681772 0 0 0
13 1 10.249050779285591 -0.04408221875233331 0.17834287622294076 0 0 0
1429 1 18.0855269234807 13.884976059537356 10.468739028578167 0 0 0
394 1 8.92309509360554 1.1611194410024217 10.60527551689561 0 0 0
427 1 9.17683414320394 3.5074849060242075 12.282991335505372 0 0 0
400 1 10.22928655048639 1.34920932569692 12.430294477784773 0 0 0
429 1 10.603974506561212 3.2398878974794205 10.477875307250992 0 0 0
637 1 24.840154707166032 10.58704334267182 13.544634496438317 0 0 0
3 1 0.07686172995202534 -0.15229258909344684 -0.021190912629486386 0 0 0
431 1 12.265224165818726 3.1556758357780597 12.14759321608754 0 0 0
398 1 12.276898756725913 1.8071254258675244 10.139133716458502 0 0 0
404 1 14.167024461696913 1.5459541154819545 11.75434889043035 0 0 0
433 1 14.11906785400807 3.6027694984440597 10.688192124897128 0 0 0
435 1 16.014740196447914 3.4086559163897965 12.141463424232708 0 0 0
92 1 20.035921173084375 9.162436692983546 -0.03887307293123535 0 0 0
1031 1 4.773458193098538 13.92016391380775 1.1599541962920197 0 0 0
402 1 15.997273639077243 1.8016359428513082 10.446669003811472 0 0 0
408 1 17.614490523078803 1.7898130906706557 12.396922379608583 0 0 0
437 1 17.73866587067457 3.640682450421986 10.480111928147993 0 0 0
439 1 19.574064019866565 3.577602997794966 12.308919548243532 0 0 0
406 1 19.481806797441955 1.3281264805264557 10.70443281725231 0 0 0
613 1 3.600623560502015 10.21383107101332 14.055666061954206 0 0 0
617 1 5.214746065164032 12.429199014250658 13.868155307603056 0 0 0
441 1 21.236669489715005 3.3376985468687645 10.674694021938134 0 0 0
410 1 22.861037244499606 1.4054403192224534 10.849730089851747 0 0 0
412 1 21.16013334709165 1.8954899225749515 12.911508513305048 0 0 0
443 1 23.014161196918383 3.120596115001978 12.506899259029312 0 0 0
502 1 19.94261545213474 12.014890906244544 10.511693454201927 0 0 0
135 1 5.204726248823782 -0.031204719961250488 5.227135182889875 0 0 0
494 1 12.338153470004336 12.378654843246814 10.87573560406514 0 0 0
372 1 14.092322237744186 12.688658548923067 8.823135162406826 0 0 0
442 1 24.760696443372527 3.199381912205752 10.5406620260543 0 0 0
416 1 25.07726588957428 1.2453222976894125 12.213609304493467 0 0 0
319 1 26.83878935171543 1.5171176966018831 10.439011641068344 0 0 0
445 1 27.081567130292527 3.323803212417352 12.215374291133033 0 0 0
500 1 14.181393631196485 12.608202028960216 12.749391323745275 0 0 0
424 1 2.7386228015636407 5.471645470269257 12.266006973463101 0 0 0
418 1 1.392160709148036 5.312307158520732 10.30352561684838 0 0 0
451 1 1.1497795848405215 6.968016739012945 12.460022538185294 0 0 0
450 1 1.5155376767250888 8.838685136276187 11.159883745784198 0 0 0
456 1 3.2985066804106267 8.126358724144787 11.863821888856581 0 0 0
453 1 3.573838381304172 6.653130389290175 10.377571070833447 0 0 0
452 1 28.440367514387514 8.950299607287775 12.72156093449224 -1 0 0
514 1 1.4159922008732597 1.584896827499236 13.90716442932423 0 0 0
499 1 17.690982670472824 10.666626274211449 10.354254003223886 0 0 0
275 1 15.896397921494934 -0.0475643939399594 9.165542802288636 0 0 0
460 1 7.263869501382991 9.05169942142396 12.432737639469336 0 0 0
454 1 5.348634507404156 8.521424093709802 11.067177780628603 0 0 0
428 1 6.893646617139567 5.052128931793752 12.074615696545836 0 0 0
422 1 5.153831954118296 5.00707685655286 10.24075647146293 0 0 0
455 1 5.033555459947207 6.30844988047442 12.308851961298705 0 0 0
457 1 6.90394491072298 7.102509018459207 11.193812247334694 0 0 0
489 1 7.125020671097527 10.50656827073289 10.608052453129691 0 0 0
432 1 10.882580658395158 5.121289641411333 12.442530449379777 0 0 0
426 1 9.28221462260418 5.402983302329237 10.647266222972183 0 0 0
464 1 10.710975185347658 9.007530073533438 12.389927197289936 0 0 0
459 1 8.93776950966364 6.988543777519015 12.44922626784226 0 0 0
461 1 10.470099496458507 7.252327705549009 10.611394235920793 0 0 0
458 1 8.712298838434329 8.904207535855894 10.38742212523379 0 0 0
436 1 14.184906826990687 4.931899266960087 12.869552980206173 0 0 0
82 1 15.608202577623425 8.496831425061709 0.08998838530066566 0 0 0
462 1 12.231301753700137 8.864050209158833 10.523802921561701 0 0 0
430 1 12.488267346005387 5.338416540765385 10.5260742317809 0 0 0
463 1 11.939960766746704 7.43228448372723 12.200608765466843 0 0 0
468 1 13.933695424418431 9.180112211029375 12.050266033098712 0 0 0
465 1 14.501104274572237 7.17423047686533 10.426977430306762 0 0 0
467 1 16.321920114365543 6.920572677559206 12.361522359554208 0 0 0
466 1 16.14375118695414 9.179089411888455 10.71320660701512 0 0 0
487 1 5.371525773886365 10.46271945199046 12.255441947461794 0 0 0
597 1 17.645835065745747 7.146452073164617 14.163593878831303 0 0 0