LAMMPS data file via write_data, version 29 Oct 2020, timestep = 300000

2048 atoms
1 atom types

-0.1638539058760049 28.51585390587709 xlo xhi
-0.1638539058760049 28.51585390587709 ylo yhi
-0.1638539058760049 28.51585390587709 zlo zhi

Masses

1 58.933

Atoms # atomic

35 1 1.6935797469497578 3.353782459624649 1.5645984490994342 0 0 0
130 1 1.5866811112204156 1.463708757313315 2.7631275933048163 0 0 0
165 1 3.764074895266517 3.428634524341189 3.5242744003879642 0 0 0
8 1 3.7215870488279883 1.7648468453814639 1.4409810862343313 0 0 0
4 1 28.106890184956654 1.6323683357989849 1.1611523336318124 -1 0 0
161 1 -0.09893705283846584 2.82108131921081 2.92210568716247 0 0 0
14 1 12.307298554534999 1.7497517922072179 -0.06986369682849367 0 0 0
97 1 -0.08549560537000907 10.606007248312615 0.11042154254099457 0 0 0
542 1 27.27544478873076 2.0261714210305155 13.954287908480675 0 0 0
27 1 22.980578442144484 -0.07889246245915658 1.3537065261677133 0 0 0
12 1 6.693994584641997 1.6187306778063673 1.5837311550498936 0 0 0
39 1 5.087955939768882 3.9081892535015204 1.6115899320568183 0 0 0
134 1 5.368650518322641 1.6196863576541527 3.5288757703219864 0 0 0
169 1 6.963868833902103 3.814343496193552 3.4526663269078073 0 0 0
1423 1 12.259584712058446 13.805123050776865 12.375523513068071 0 0 0
102 1 5.177601956855095 12.56128609334985 -0.03079076066818051 0 0 0
265 1 7.112142941680731 0.11491573539446015 6.904715923942701 0 0 0
43 1 8.625401343021105 3.695751821792166 1.531549091369715 0 0 0
16 1 10.625886951210601 1.5256107805085284 1.7402734258760768 0 0 0
138 1 8.66884653111007 1.6802923443028182 2.9650706895464203 0 0 0
173 1 10.287618189960703 3.292262827146683 3.2023026250303612 0 0 0
621 1 10.277998389618915 10.188424813735184 14.032377848103463 0 0 0
47 1 12.476331388945157 3.31559574923316 1.5374577126457587 0 0 0
142 1 12.521862968368396 2.037588445958276 3.517404499515717 0 0 0
20 1 14.196981672057115 1.588580880373947 1.8908158978844574 0 0 0
177 1 14.414818732587639 3.2481826243334653 3.655470275261722 0 0 0
51 1 15.63388582512608 3.557120516094207 1.5144070929074682 0 0 0
146 1 15.81667619834063 1.576391123099812 3.580088795592046 0 0 0
1549 1 10.375052801352835 13.788737924285293 14.04971159056669 0 0 0
481 1 28.130460397087752 10.447887559192912 10.43698029264834 -1 0 0
24 1 17.74417134891153 1.812428395198646 1.9025517795814464 0 0 0
181 1 17.3797555151561 3.5029795366757317 3.586191447578643 0 0 0
150 1 19.35771566512927 1.7018544950574837 3.650745877510156 0 0 0
55 1 19.706205362638727 3.1907727506785766 1.5765326008591822 0 0 0
1283 1 1.383216993790165 14.008940967630803 9.057374827197464 0 0 0
28 1 21.194039994294577 1.4470058450309495 1.2220158193785813 0 0 0
59 1 23.14613488649305 3.1028144214623556 1.622517809151842 0 0 0
154 1 23.289011707817096 1.4254081494924116 3.316043706631296 0 0 0
185 1 21.31947041614174 2.9752581064714745 3.2253114578133766 0 0 0
10 1 8.682001104695589 1.5143216663920238 0.5097235090667193 0 0 0
511 1 26.612828130486875 10.839377547482927 12.52320326714998 0 0 0
1043 1 16.07654214673701 13.779437234216866 1.4697305079174547 0 0 0
189 1 25.260956589514855 3.488143102291119 3.1488009604312985 0 0 0
32 1 25.157105458071378 1.4702166386992657 1.4812932106920496 0 0 0
63 1 26.77892259562701 3.6748866816532093 1.6021363371549502 0 0 0
158 1 26.587492318122102 1.430375450375309 3.0615591624959593 0 0 0
1301 1 17.77201575726368 13.901627539415783 7.278250641286443 0 0 0
510 1 26.763987546692242 12.411925604420155 10.412472213926309 0 0 0
509 1 24.896341170061795 10.643745531899558 10.379309055659297 0 0 0
34 1 1.496280673496254 5.383811054406333 0.0912291040749556 0 0 0
1553 1 14.069661520215751 14.04708435551772 14.042134825511525 0 0 0
162 1 1.897628334417349 5.463591000972324 3.611516216565468 0 0 0
40 1 3.191667397103067 5.10503147985124 1.6536516952367166 0 0 0
67 1 1.9194369773371491 7.078029334460906 1.7687431453032207 0 0 0
194 1 1.5319322376384432 8.828743967691151 3.566340993833623 0 0 0
72 1 3.620082804471895 8.770136845449173 1.7072312435321633 0 0 0
197 1 3.381765690879081 7.052220677615886 3.626779850499725 0 0 0
401 1 14.354739644803306 0.2704444673266631 10.508718344912237 0 0 0
1175 1 19.32532612949492 13.911316688161076 5.23049112237244 0 0 0
139 1 8.884285745976795 0.0009243806167050228 5.282229677619174 0 0 0
166 1 5.372133149032199 5.3275933840577485 3.3216678178549026 0 0 0
44 1 6.881446922001183 5.420619970660713 1.3726392026919616 0 0 0
71 1 4.8064459839677545 6.671590872384897 1.5685187603754855 0 0 0
201 1 7.049194842662094 7.3250824156487875 3.6547119587894152 0 0 0
198 1 5.349607179362305 8.638182184275298 3.2518721818722796 0 0 0
76 1 6.894792200656586 8.774740507139548 1.4550976895313836 0 0 0
261 1 3.5736300981575413 -0.08045750998140022 6.809803806454121 0 0 0
48 1 10.6899123262049 5.146315733648789 1.4289460447944213 0 0 0
170 1 8.871384931822137 5.69475865932928 3.3856452339771272 0 0 0
75 1 8.975828607586058 7.098644120693939 1.7162049220130473 0 0 0
205 1 10.692025101253513 7.496591114286418 3.2143004958077217 0 0 0
80 1 10.727112237659023 8.834419416709082 1.2514284408555476 0 0 0
202 1 8.841324456279173 8.759391129952144 3.565798077808874 0 0 0
174 1 11.998997565448152 5.467770497187478 3.304386317092207 0 0 0
79 1 12.37909723603943 6.7832685627231895 1.2736683214909352 0 0 0
206 1 12.802473390626917 9.086366716297132 2.892213794407625 0 0 0
52 1 14.19171847179487 5.258904385894772 1.4835006299016575 0 0 0
209 1 14.031954545588961 6.840457567988992 3.235364199596397 0 0 0
84 1 14.143590172453896 8.821397623783314 1.2853416651368534 0 0 0
210 1 15.939052561817926 8.916779082594397 3.162815860642683 0 0 0
178 1 15.936397188317011 5.458475417229015 3.5704434925422435 0 0 0
83 1 16.109742240330064 6.652959659211752 1.8175587921292864 0 0 0
1299 1 15.816001228997518 14.155856756080352 9.120935105159937 0 0 0
153 1 21.543833204416373 0.2187191332816023 3.4575667407528368 0 0 0
1419 1 8.561087090294562 14.142420479225109 12.394351434166778 0 0 0
56 1 17.782088360099465 4.803937343308766 1.7626813775806205 0 0 0
87 1 19.391097992787152 6.655883565988482 1.7765968047863239 0 0 0
213 1 17.677322374188705 6.949164017097679 3.3583454207669603 0 0 0
182 1 19.45676554434535 4.716786184208947 3.4176813636987275 0 0 0
88 1 17.6374638564277 8.743409070542082 1.593916424014441 0 0 0
214 1 19.424658164556618 8.61984847885858 3.05191159599772 0 0 0
407 1 19.893359625386047 -0.02962798164492811 12.458987960305452 0 0 0
33 1 -0.16119709447375624 3.450497706745661 -0.15495478198147722 0 0 0
45 1 10.401897578041543 3.413142868115195 0.2063609514094606 0 0 0
186 1 22.966670369742673 4.76752197806986 3.075700480730876 0 0 0
60 1 20.921752581055664 5.092316753676566 1.3070011939691373 0 0 0
91 1 22.89708803451046 6.525047870233456 1.7029167781958525 0 0 0
217 1 21.299848102738217 6.7647779247788185 3.707843304890281 0 0 0
218 1 22.88329357325309 8.343822162627735 3.2123162066964466 0 0 0
92 1 21.230214839775506 9.02182119251462 1.4624966482145125 0 0 0
393 1 7.056404631706128 -0.11419176187697479 10.966353272762031 0 0 0
65 1 28.15973805015193 7.017315825732881 -0.033762831478143795 -1 0 0
36 1 0.0994593676955744 5.330351341948136 1.862091645389969 0 0 0
143 1 12.471227819425414 0.18269176777843094 5.143365323263921 0 0 0
193 1 -0.07644739609835502 7.153165597656715 3.3788428542906 0 0 0
68 1 0.15110671085118005 8.745457877197996 1.5122356938475696 0 0 0
64 1 24.597778992212334 4.964331726044937 1.3929216222151635 0 0 0
221 1 24.841875743382268 6.751665699304193 3.1789912762883774 0 0 0
96 1 24.648023574552397 8.940466271208685 1.6520890064769072 0 0 0
190 1 26.882847055614135 5.252094894861213 3.3665103501906173 0 0 0
95 1 26.33700799043647 7.084440368548296 1.6786239853630776 0 0 0
222 1 26.657696736919576 8.401348288880735 3.6169955337286965 0 0 0
562 1 15.69459142313354 5.1038025760332735 14.030383015868287 0 0 0
1287 1 5.154640666851737 14.145678565451247 8.787844053792007 0 0 0
99 1 2.1029522978124655 10.446344804734006 1.6423709713990968 0 0 0
226 1 1.315686805266273 12.410991860363941 3.7546692290087105 0 0 0
104 1 3.5408953551296163 12.649062341524088 1.6225504192721136 0 0 0
229 1 3.708476075442818 10.757032187264933 3.39675221649836 0 0 0
225 1 -0.08793589018393111 10.567809155533839 3.4115102990919763 0 0 0
538 1 23.01537527289156 2.2818660743682666 14.09603520058242 0 0 0
110 1 12.376332511927801 12.653194067084055 -0.15161803646430122 0 0 0
9 1 6.8414764637123815 -0.14500197200908038 -0.03233712550730114 0 0 0
103 1 5.163178899082517 10.537582976017271 1.6113463697358734 0 0 0
108 1 6.684240181768921 12.645149007085212 1.6149544029052396 0 0 0
230 1 5.6456616011299605 12.2516174275032 3.592803310128124 0 0 0
233 1 7.033511441203696 10.431221272136652 3.461577024375973 0 0 0
155 1 23.422700170688323 0.21926580065414336 5.1988579322649455 0 0 0
107 1 8.893583303308036 10.328557767544574 1.4915173244449405 0 0 0
234 1 8.442083999436607 12.067695090744255 3.022540815817938 0 0 0
112 1 10.381372805964196 12.607097868065198 1.601333219112762 0 0 0
237 1 10.43289296041749 10.540990095218532 3.185328608631123 0 0 0
597 1 17.730065424090967 6.930898458560297 13.781638309965114 0 0 0
1435 1 23.03371531447638 14.094158031951967 12.545025000258748 0 0 0
606 1 26.583439731244148 8.867594088534581 13.982948339374955 0 0 0
85 1 18.118999474925147 7.205360184823197 -0.024019024145118972 0 0 0
111 1 12.210939450576845 10.561079943732414 1.0393365831640295 0 0 0
238 1 11.953401199656058 12.32781864687686 3.165033744786064 0 0 0
116 1 13.89013818453075 12.367555236259047 1.482503278303855 0 0 0
241 1 14.45545602717819 10.4794221114231 3.0045723026112814 0 0 0
115 1 16.04605941588388 10.738497891072864 1.2751981122134346 0 0 0
242 1 16.01750438526431 12.134891512135493 3.296742044151744 0 0 0
58 1 22.86222790852662 5.2950905585346515 -0.08448106045601797 0 0 0
1159 1 5.330682716731278 13.869160280626055 5.196324925539526 0 0 0
119 1 19.373900091340552 10.607224962168049 1.4617760972401725 0 0 0
120 1 17.711801602081728 12.296414404949463 1.4636003456485476 0 0 0
245 1 17.832403773645225 10.293695647048585 3.2520301978304826 0 0 0
246 1 19.396598421031598 12.246501061196112 3.314630212586646 0 0 0
403 1 16.19835714857149 0.036949137932102416 12.41959743485468 0 0 0
512 1 24.832364727143656 12.44026177452209 12.342236146344788 0 0 0
1157 1 3.594337222007413 14.143574712483836 3.6814360809201343 0 0 0
1165 1 10.508996471115353 14.149276002871627 3.5340576607033483 0 0 0
123 1 22.925091214157064 10.692925695564348 1.6647961261329414 0 0 0
124 1 21.162385742389354 12.471868645428037 1.4878544408139833 0 0 0
249 1 21.205230802840404 10.625388932941759 3.3112076270878537 0 0 0
250 1 22.897088902967297 12.414553582284404 3.34538405519999 0 0 0
1047 1 19.61775637865626 13.971950550722205 1.849547643056106 0 0 0
100 1 28.41672436688888 12.510836685317237 1.859843550178156 -1 0 0
253 1 24.706697387559913 10.874959169757872 3.70226330597475 0 0 0
128 1 24.954499804470657 12.834284333902128 1.734606719273436 0 0 0
127 1 26.994325047275773 9.896839927430126 2.018042724514108 0 0 0
254 1 26.555029510356583 11.931142909653756 3.2912595676143144 0 0 0
263 1 5.375217816923008 -0.13698200267493194 8.549632269754786 0 0 0
561 1 13.926999630162275 3.314403037479406 14.141446886632357 0 0 0
98 1 1.7321641860671633 12.266308371508122 0.008472384957712936 0 0 0
163 1 1.7863636403272507 3.2143674283044192 5.056589562212753 0 0 0
258 1 1.4813068584277138 1.4804364291844008 7.05483654406244 0 0 0
291 1 1.2968678016903505 3.1982449504281028 8.66085180067729 0 0 0
264 1 3.2036862910770103 1.467341693436627 8.450214301063054 0 0 0
136 1 3.430899006448254 1.5767918506041776 4.930502388455274 0 0 0
293 1 3.302951437474797 3.558953840271366 7.201492176375905 0 0 0
260 1 28.283686756039224 1.5050694585155848 8.918274816590362 -1 0 0
1421 1 10.318361815120111 14.055806806940748 10.728515932979835 0 0 0
140 1 7.561946809733097 1.9965170160575783 5.091221792910785 0 0 0
167 1 5.17190992902657 3.5147721829425183 5.359552163302334 0 0 0
262 1 5.37795456925353 1.789369826396939 7.0999901124621285 0 0 0
295 1 5.207024596441155 3.4602727980744694 8.593356585556453 0 0 0
297 1 7.0939706133930995 3.9488957576866683 7.022970951782778 0 0 0
268 1 6.952255575403389 1.8756716673731546 9.139967617767196 0 0 0
62 1 26.647090428445765 5.284806838468436 -0.10801407388246285 0 0 0
171 1 8.67258951488524 3.968876714355752 5.1238159272037445 0 0 0
144 1 10.378023415066254 1.9959887255916158 5.307395500323633 0 0 0
266 1 8.472076218022817 2.16282368506029 7.015025030599031 0 0 0
301 1 10.678852657774149 3.7175532761794803 6.834328555336495 0 0 0
299 1 8.93476987211951 3.286731644743189 8.915484665510357 0 0 0
272 1 10.470747850604761 1.4047902422228875 8.8866477099689 0 0 0
285 1 24.988341805107183 0.06461694516353272 6.874964534322363 0 0 0
1155 1 1.4297965347038628 14.066156636330478 5.2836110426729785 0 0 0
303 1 12.418709885550982 3.27746967324832 8.76230319992465 0 0 0
175 1 12.12722558968118 3.56582646552451 5.055218304476185 0 0 0
270 1 12.2761743480187 1.7974127295616322 7.064772580956298 0 0 0
148 1 14.033686079930858 1.9601736628851514 5.562488714816812 0 0 0
305 1 14.35825701392454 3.418450942681323 7.1064795734232185 0 0 0
276 1 14.385278324363005 1.4861630804790869 8.900332800622165 0 0 0
179 1 16.01884952482626 3.3908036901145713 5.375539371983651 0 0 0
274 1 15.847315365162538 1.4559654204187176 7.165619008513173 0 0 0
307 1 16.160181261875493 3.4371624556827576 8.655963683172015 0 0 0
507 1 23.197453752789087 10.520907212709742 12.237887827808406 0 0 0
505 1 21.656521127911148 10.444007895010454 10.62244934477883 0 0 0
152 1 17.57909196228953 1.4969310472781536 5.356296548633613 0 0 0
309 1 17.736199035335673 3.549828166270618 6.887340534578567 0 0 0
278 1 19.656489804860875 1.5564143194034947 6.709039304968075 0 0 0
183 1 19.416083286022406 3.4608363558395205 5.219128541183865 0 0 0
280 1 17.92052358079379 1.6975651601936679 8.52801527298868 0 0 0
311 1 19.723952735987247 3.6626075305370653 8.770405675499951 0 0 0
506 1 23.08358771558877 12.478321082100118 10.517506210575771 0 0 0
508 1 21.19292235610559 12.05009837232894 12.175614515475308 0 0 0
187 1 23.282311765691418 3.2407783878602237 5.033787418854657 0 0 0
156 1 21.304439953831555 1.6595072572215435 5.207306733318774 0 0 0
282 1 22.98989983231968 1.4151209159502656 7.560380480501472 0 0 0
313 1 21.228735325884024 3.291612060657993 7.0083508823042076 0 0 0
315 1 23.149352842722315 3.228546090735139 8.663438367923229 0 0 0
284 1 21.2993245053175 1.492662235897399 8.641724998396816 0 0 0
1173 1 17.564617205192164 14.141929613253312 3.337235103378635 0 0 0
1439 1 26.8752563751487 14.117913614169499 12.145124500288043 0 0 0
1293 1 11.074443876295824 13.937395734869016 7.139604328950727 0 0 0
289 1 28.487813925496987 3.353244581500682 6.542064363354618 -1 0 0
132 1 0.06026893735440203 1.5287416553789799 5.059666482891576 0 0 0
317 1 25.130540747342053 3.0361403653880084 7.055729048860903 0 0 0
160 1 25.14181966810959 1.7224167428599495 4.993034768233629 0 0 0
191 1 26.774554753076096 3.3599580085604055 4.727483496407261 0 0 0
288 1 24.972113220021598 1.2676812364333907 9.060177028796824 0 0 0
286 1 26.964811397599497 1.845002679618935 6.933239372690116 0 0 0
319 1 27.039061554881613 3.702800134517541 8.604952249832795 0 0 0
296 1 3.444651170317959 5.161676762524674 9.135979410531094 0 0 0
290 1 1.8734469034089667 5.614707434925121 7.099192409962971 0 0 0
195 1 1.1730051649618563 7.154132397376728 5.1303810252875905 0 0 0
168 1 3.1209473773004275 5.1193167184326835 5.562971235049415 0 0 0
325 1 3.457651299630314 7.135294759214252 7.0529475921651485 0 0 0
323 1 1.7049158914713287 7.140749929178369 9.132308458113 0 0 0
322 1 1.4936928587099867 8.651351686187741 6.913033460992788 0 0 0
328 1 3.549890963810921 8.620127023443462 8.64499095715867 0 0 0
200 1 3.419442244812977 8.898756724170498 5.304448270717674 0 0 0
292 1 0.2294003506771753 5.3975630302861 9.192884559987943 0 0 0
321 1 28.403330743613715 6.938189304454816 6.958066466821193 -1 0 0
172 1 6.875785213728821 5.348143813496444 5.0181941411579425 0 0 0
204 1 7.0200491893598524 8.967862847191192 5.568397813810176 0 0 0
294 1 5.060799237141265 5.561887146368091 7.166116773475971 0 0 0
199 1 5.087233502825096 7.193162585993617 5.114595065588149 0 0 0
329 1 6.644644660888375 6.7339112813918 7.342196844637808 0 0 0
326 1 5.2344658114542 8.810333060802439 7.041563785582722 0 0 0
332 1 6.8868976487874525 8.782177786669575 9.0205360499285 0 0 0
327 1 5.219644388444635 6.605202171950683 9.424810880402811 0 0 0
300 1 7.178367882505833 5.135284795227278 8.931061343496769 0 0 0
331 1 8.742840616499738 6.9149580890466416 9.125192439774478 0 0 0
298 1 8.844694968108248 5.581335589205045 7.011675165702099 0 0 0
176 1 10.712209583464988 5.694885421078018 5.012344414980961 0 0 0
304 1 10.42990425779459 5.1797165717765195 9.198873499725304 0 0 0
203 1 8.870997918493345 7.150391963977356 5.213391995233451 0 0 0
333 1 10.720467264908168 6.766543495830724 7.166683628236112 0 0 0
336 1 10.817503298697897 8.460595142751485 8.579440591786804 0 0 0
330 1 8.225611662623646 8.017830465383728 7.400755093565009 0 0 0
208 1 10.632281659639657 8.708617794178357 5.095804797705095 0 0 0
207 1 12.483299748411026 6.998070221192089 5.110660166201615 0 0 0
334 1 12.518620802219099 8.780528476689948 6.633569195483432 0 0 0
306 1 16.344941665254503 5.629657129604978 6.976956781177408 0 0 0
302 1 12.436425760048174 5.087930208064947 6.895991219515554 0 0 0
308 1 14.257805200891651 5.138953364112954 8.990444321834683 0 0 0
212 1 14.189836080483486 8.645193908505295 4.8543681686795255 0 0 0
180 1 14.095831429994842 4.772654976743743 5.3033105881906035 0 0 0
337 1 14.304771403942269 6.612326664264582 6.920735351176378 0 0 0
340 1 13.733194793247453 8.583418718489758 8.97016854305962 0 0 0
338 1 15.845148568016695 8.373285226411141 6.934065354010471 0 0 0
335 1 12.468805413961066 6.62814497531411 8.748201226581454 0 0 0
211 1 16.150734552417738 7.3916270841034315 5.008807432810109 0 0 0
339 1 15.847747678356543 7.009357522310265 8.800570008732388 0 0 0
216 1 18.057747590496113 8.660527275676959 5.132665830920713 0 0 0
215 1 19.536416042095354 6.8093354203635315 4.95710208547264 0 0 0
184 1 17.721527929408737 5.602392280290349 5.243499486731458 0 0 0
310 1 19.47651250512091 5.239109795332418 6.87193838816395 0 0 0
341 1 18.11148263509616 7.291220355975786 7.232815286397799 0 0 0
342 1 19.915832323353868 8.731893818199094 6.597424190116189 0 0 0
312 1 17.82833860350391 5.474875840976533 9.033689377781032 0 0 0
343 1 19.84534000173778 7.3400820561865885 9.079407256008208 0 0 0
344 1 17.597192933335442 8.678247812832224 8.865143427596914 0 0 0
188 1 21.18875166771894 4.96392264627529 5.045707799180678 0 0 0
314 1 23.228304425166222 4.711594272885465 6.859832489190634 0 0 0
219 1 22.890034504940857 6.418866773773203 5.2440631994815075 0 0 0
345 1 21.225401903117614 6.528337814060975 6.891350913897344 0 0 0
346 1 23.124964913299998 8.665241322869917 6.735455314819912 0 0 0
220 1 21.134538597767296 8.80487981190024 4.831786037967691 0 0 0
348 1 21.784519895111444 8.92565208096821 8.719938481358477 0 0 0
316 1 21.576440269957473 5.546089501874389 8.925980769526706 0 0 0
347 1 23.345203758759993 7.057702516440145 8.311204253773509 0 0 0
164 1 0.31030781110916766 5.222825673689911 5.463849710573998 0 0 0
324 1 28.109024222099606 8.54244748313739 8.7281763418516 -1 0 0
196 1 28.415696465715826 9.156852354055891 5.175610924790771 -1 0 0
352 1 25.008404628810823 8.81999200670996 8.768465397042167 0 0 0
320 1 25.057320936898606 5.167300121982986 8.662773127174566 0 0 0
349 1 24.938857965561375 6.633230457292811 6.499109266984284 0 0 0
192 1 25.01328804100502 4.464325591431738 5.0919291853466 0 0 0
223 1 26.73922978838941 6.679784144435688 5.095668545826201 0 0 0
318 1 26.610368615610504 5.101532060395254 6.690916583504323 0 0 0
224 1 24.760848261558323 8.474706910604086 5.06268613034216 0 0 0
350 1 26.49944868983816 8.614196743317347 6.872200475841686 0 0 0
351 1 26.66543529502342 6.777888779509052 8.623621105707194 0 0 0
271 1 12.427912199609851 -0.03418993537639936 8.770807452171308 0 0 0
227 1 1.6220055543153535 10.620631186483525 5.169207288535954 0 0 0
354 1 1.3567562975257186 12.42205039485753 6.848735892936705 0 0 0
357 1 3.1182845664441072 10.372089310621908 7.015238070988818 0 0 0
355 1 1.5865048555650605 10.313335657218053 8.619383578190016 0 0 0
360 1 3.3414452972716995 12.088042028725042 8.72039854921147 0 0 0
232 1 3.3008303891969852 12.08061438911061 5.416187793304519 0 0 0
353 1 28.144249406172 10.259909449759926 7.238948036221669 -1 0 0
518 1 5.205085405647562 1.8779371349017797 13.955236003327478 0 0 0
15 1 12.582187770251691 -0.03754292504760415 1.6308902949026658 0 0 0
1171 1 15.728562468385167 13.642230111672475 5.099618783277695 0 0 0
236 1 7.053223468221083 12.14805622730438 5.747893335475211 0 0 0
231 1 5.2075969919370975 10.716788726583788 5.171131560490835 0 0 0
358 1 5.202901133139058 12.332422375365258 7.093176116797695 0 0 0
361 1 6.907519134470088 10.384781177708692 7.398212633454055 0 0 0
359 1 4.8774628298743625 10.433641719031339 8.726373315595632 0 0 0
364 1 6.869751944592911 12.10644382943307 8.61724620562512 0 0 0
499 1 16.038100612192302 10.661658068784362 12.41448230876997 0 0 0
501 1 17.7638120553384 10.607070969238872 10.517811509956234 0 0 0
235 1 8.901851576368749 10.170228566289646 6.213005678700085 0 0 0
240 1 10.307534224992361 11.983610212639359 5.307872415640188 0 0 0
362 1 8.95274287127769 12.332598924125461 7.366442392326659 0 0 0
365 1 11.095645994266054 10.48129441223782 7.1084585800538695 0 0 0
368 1 10.578667115407484 12.333393228482997 9.051442121600333 0 0 0
363 1 9.126811207534777 9.996789775261512 8.646353934935949 0 0 0
122 1 22.94952478523254 12.668699632132858 0.15055423403823626 0 0 0
367 1 12.607774380236034 10.783342730418255 8.831756120205545 0 0 0
244 1 14.26206078757877 11.881319649773797 5.224335694398808 0 0 0
366 1 12.540944025437858 12.08995001086193 6.779545451662612 0 0 0
239 1 12.46861733294218 10.512200572219792 4.80415411688203 0 0 0
369 1 14.514562545541574 10.074269245832086 7.146584693791926 0 0 0
243 1 15.922449631777132 10.139989353467739 5.030331601581941 0 0 0
371 1 16.008594061912284 10.192199837294302 8.919795772922367 0 0 0
370 1 16.015695550541892 12.1170809474687 7.457519008278308 0 0 0
503 1 19.420419393005105 10.788245983298097 12.577110083602603 0 0 0
504 1 17.629558300627316 12.587525268796313 12.350503318546943 0 0 0
582 1 4.959539161498829 8.929802890193443 14.008127747248558 0 0 0
247 1 19.461149371530425 10.566786444077536 5.0289884972960355 0 0 0
248 1 17.73173591151906 11.957915517160465 4.960258528111511 0 0 0
373 1 17.94201431945585 10.209114242431886 6.811685010541093 0 0 0
374 1 19.130765062807114 12.113318754913633 7.180227503580824 0 0 0
375 1 19.840018626773407 10.296751226602256 9.249311157269403 0 0 0
376 1 17.84945992680604 12.209740103065727 9.013521002095562 0 0 0
634 1 23.174545167042794 12.235449973147595 14.02130806260325 0 0 0
379 1 23.20649411980881 10.83800210816688 8.77692833500212 0 0 0
252 1 21.026109832116084 12.23294121660738 5.4625190191899975 0 0 0
380 1 21.198056290832362 12.535450077641288 8.488369459343485 0 0 0
251 1 22.892754522884772 10.690480728567271 4.977921776939358 0 0 0
377 1 21.515343835058232 10.23832677613085 6.979034424020462 0 0 0
378 1 23.165332359444534 12.31256057496939 6.6739056116579665 0 0 0
502 1 19.7733494798494 12.52865094272222 10.480802095357415 0 0 0
1291 1 9.19819726375202 13.929875748988481 8.604275222099284 0 0 0
1295 1 12.283827469790943 14.099714124839416 9.127153955925387 0 0 0
228 1 28.080269145666684 12.069760582272844 5.4211021562107895 -1 0 0
356 1 0.06264585657544247 12.03821237682581 8.559362144755417 0 0 0
381 1 24.642614101387295 10.484798822428491 6.793506051783479 0 0 0
256 1 24.962220450478547 12.618516091294909 5.005468183478729 0 0 0
384 1 24.809060145269868 12.75291274170694 8.73530272998028 0 0 0
255 1 26.652766991798075 10.41525565237489 5.0941789677617795 0 0 0
383 1 26.340078704063494 10.725907656678277 8.697692508448618 0 0 0
382 1 26.575180483446125 12.118921951831453 6.984047507059543 0 0 0
1425 1 14.17955234960169 14.022448587683556 10.74777216711274 0 0 0
125 1 25.00913930805875 10.877501021910241 0.48910824439113665 0 0 0
397 1 10.584468876665447 -0.062253767970785884 10.658420488057496 0 0 0
386 1 1.5420005678323303 1.4704050790180148 10.41184402675828 0 0 0
419 1 1.7734706996680039 3.5300798277068535 12.761631380846 0 0 0
421 1 3.3520649068648067 3.0442107479973206 9.971363593363266 0 0 0
392 1 3.2051750592384445 1.852672868971803 12.353229650936957 0 0 0
388 1 0.05552527138561192 1.4793702687197043 12.362528473234 0 0 0
417 1 28.495180147808963 3.244954107035719 10.568067593651493 -1 0 0
498 1 15.822652623459833 12.45419148871448 10.506295572791132 0 0 0
70 1 4.963955611634206 8.810216246609695 -0.10213924658344006 0 0 0
390 1 5.122369132300646 2.0853650024540915 10.69146983586803 0 0 0
396 1 7.105215154664678 1.8552776502425994 12.594519550483417 0 0 0
423 1 5.0655152629118705 3.460001964925739 12.485656764155014 0 0 0
425 1 7.132057132106555 3.784383693303699 10.659071223533592 0 0 0
1311 1 26.77731495135174 14.101662397631177 8.651239637228766 0 0 0
490 1 8.372151420424021 12.188397283541727 10.56957895701322 0 0 0
486 1 4.429995459149481 12.386809105552931 10.520265450630598 0 0 0
493 1 10.383699433376023 10.5241662204768 10.674109976018194 0 0 0
427 1 8.590590624466467 3.645474477706805 12.561101892546507 0 0 0
394 1 8.695126604000832 1.3306256642363468 10.572160639063737 0 0 0
400 1 10.253273071920724 1.4987165805883416 12.603207557247071 0 0 0
429 1 10.563849429102197 3.2894520446871787 10.722373256083227 0 0 0
1297 1 14.330253917205063 14.015999364784804 6.935246514391 0 0 0
489 1 6.763510835699338 10.784092837235434 10.582004323164096 0 0 0
496 1 10.060345756303914 12.164144217624052 12.375144340754927 0 0 0
398 1 12.240807290193024 1.5943512837773592 10.656378675986865 0 0 0
431 1 12.204602091184443 3.0616469273020512 12.558537024594358 0 0 0
404 1 14.26651222582411 1.5291498978821534 12.461745726249216 0 0 0
433 1 13.968064522431021 3.634588749558676 10.579949553602951 0 0 0
402 1 16.34285144150727 1.682979109538219 10.501076961223657 0 0 0
435 1 16.140639377529517 3.5899726905339002 12.09370756938646 0 0 0
491 1 8.35896603351416 10.379412465414621 12.375497227330253 0 0 0
406 1 19.802301063880385 1.5773500355889847 10.239527388807089 0 0 0
408 1 17.624023079222823 1.7222691177369265 12.239399864452825 0 0 0
437 1 18.00321316538752 3.1702213407410036 10.55135250291025 0 0 0
439 1 19.54150499097856 3.230053146210128 12.034012270499852 0 0 0
159 1 26.868513105744363 0.06266839351390036 5.200751151953567 0 0 0
410 1 23.112279615396083 1.398704311731893 10.663619830420329 0 0 0
412 1 21.428350471565437 1.5456703308515045 12.239710378147574 0 0 0
441 1 21.452515402427466 3.5047782308666418 10.362126544706493 0 0 0
443 1 22.958683777055597 3.142568080475563 12.073708646440016 0 0 0
495 1 12.086059723226766 10.343977882459448 12.318373525729971 0 0 0
500 1 13.968891079438034 11.967861178671361 12.538621251066742 0 0 0
416 1 25.218414265165173 1.6475412329101977 12.445557323355283 0 0 0
445 1 24.86223149654696 3.235946611042527 10.616824311368678 0 0 0
414 1 26.705181176216428 1.5385222167932064 10.625960630267889 0 0 0
447 1 26.756929833036374 3.427292367414332 12.065185208772887 0 0 0
494 1 12.226083283622495 12.377084808017933 10.615408550129947 0 0 0
418 1 1.6775220005912768 4.6309607042466245 10.679133305760821 0 0 0
451 1 1.3852530025497671 6.741438767078337 12.435807259532298 0 0 0
450 1 1.5400134152932 8.705692160571715 10.823298020331073 0 0 0
424 1 3.4693556682838564 5.237876987770246 12.263956350836843 0 0 0
456 1 3.3376525746607277 8.83436440807121 12.346154926012375 0 0 0
453 1 3.6354858127068304 7.225631674469009 10.875563774864407 0 0 0
449 1 28.009554968740446 7.071345930890244 10.566163544242155 -1 0 0
452 1 28.449598552992924 9.087637910486134 12.517717156096081 -1 0 0
420 1 -0.06819114087992877 5.020636306553174 12.401161995627294 0 0 0
428 1 6.904065786590289 5.535370177391689 12.332076638225432 0 0 0
422 1 4.907488461166572 4.887393387080943 10.695970138731138 0 0 0
454 1 5.426902169952276 8.882563158829125 10.70328712547887 0 0 0
455 1 5.113750316102146 6.905660593258555 12.533654158579058 0 0 0
457 1 6.953063981274313 7.1582680153052225 10.902920463608211 0 0 0
460 1 6.930622009284258 8.756556068945557 12.678702999182748 0 0 0
1163 1 8.818702301806233 13.78807919999834 5.091890103243929 0 0 0
135 1 5.3340308931014615 -0.10657976631219254 5.234405270414269 0 0 0
497 1 14.043148866501985 10.624354659742714 10.726557414927287 0 0 0
1161 1 7.073589059897974 13.745434576577054 3.573221582949331 0 0 0
426 1 8.816966851237312 5.325064406654436 11.023791913127765 0 0 0
432 1 10.748468433402874 5.1783406418387905 12.299228614468909 0 0 0
459 1 8.884047537780988 6.957228194206916 12.66405229410206 0 0 0
461 1 10.494554094490429 7.17437474750956 10.546455861874472 0 0 0
458 1 8.453867702337547 8.973814377806855 10.508147464560828 0 0 0
464 1 10.185383588265896 8.707536368158022 12.109087811854037 0 0 0
430 1 12.370840649763826 5.172530790793738 10.747234285146943 0 0 0
372 1 14.041848548578987 12.57424653968034 8.742680666613984 0 0 0
463 1 12.314512619393124 7.192294463515421 12.266910207642265 0 0 0
462 1 12.3224911949291 8.503438932820652 10.532131767757317 0 0 0
468 1 14.087590643484186 9.109350498783257 12.320150278001407 0 0 0
436 1 14.022525991906063 5.022213234837647 12.388114498104347 0 0 0
465 1 14.28111361463302 7.006025355516359 10.758396429871839 0 0 0
466 1 15.895445099187723 8.736533772265982 10.932532735598526 0 0 0
467 1 15.553606888090824 7.196562800159548 12.488035096916677 0 0 0
1177 1 21.085236807685163 13.897872585066308 3.6261252387238434 0 0 0