LAMMPS data file via write_data, version 29 Oct 2020, timestep = 300000

2048 atoms
1 atom types

-0.3927407155553819 28.744740715555768 xlo xhi
-0.3927407155553819 28.744740715555768 ylo yhi
-0.3927407155553819 28.744740715555768 zlo zhi

Masses

1 58.933

Atoms # atomic

1538 1 28.489008817103674 2.6266569588099613 3.5391862192196113 0 1 1
1869 1 1.4633770298336422 4.027301793852238 3.2514638418325665 0 0 2
786 1 1.3664346926549058 1.8826974200218998 2.4393218858182206 0 0 0
471 1 3.679031186257016 2.3096135061619534 1.6995768680337684 1 0 1
1885 1 1.9220883286386004 2.010568416163574 -0.2366852562769261 0 0 0
1420 1 1.53169308289262 4.348458996875884 0.7678612602759418 1 0 1
39 1 9.529856043632018 0.682705023274603 -0.13572983054369714 -1 0 0
1666 1 23.007191320669513 1.0769213682374044 11.073800241936503 -1 1 0
1036 1 28.119740248435257 0.9311286093349538 1.9988538795338857 0 1 1
1396 1 4.3540741064151955 12.169098327395744 -0.2940853641033605 0 1 2
518 1 7.454898993528275 0.19296076106366522 1.507075334261584 1 -1 1
2013 1 5.719423864756085 3.9958798613228845 1.6900747912772918 1 0 1
705 1 6.781004416646666 4.532537876873665 3.385602453662143 0 1 0
754 1 27.17464405239234 12.967952649312688 11.693725022067936 0 -1 -1
1655 1 5.5900905635855995 1.6433483299900402 0.446372301785007 1 0 2
1102 1 0.37828085846003234 13.74296884225395 1.2473691627132146 1 0 0
1071 1 5.827970342328264 1.8139773305046498 2.816507312055913 0 0 0
1916 1 7.572736278212997 2.797077135349408 1.366376722964439 1 0 1
1185 1 11.383182050042642 3.4377290955449977 4.34636732953175 0 0 -1
629 1 10.395361424870778 2.6090698961030228 1.5237058235911143 0 0 1
59 1 9.589438930054767 4.814888839705788 2.4318933851955937 0 -1 0
2010 1 12.351301124677846 2.7410358646583988 2.3650702751661363 1 1 1
193 1 4.698268340873734 0.7593869490376179 12.044399281852119 0 1 0
1833 1 21.09940663741864 14.02610580728698 10.288806497965032 0 0 0
1042 1 9.934158121297786 0.18385619771605777 2.2531403443352422 0 1 0
480 1 14.809955979415658 1.5214626851195745 0.5386626005302962 -1 1 0
1893 1 12.899961594147927 0.8971908981055967 3.7793952099717156 -1 1 1
1993 1 14.72576729332143 3.569708051449203 1.7450107490549414 -1 1 0
522 1 15.296986843756374 1.6353972599498272 3.093954522754225 0 1 0
1509 1 17.262312270956677 0.58896328859179 4.095581095582308 -1 0 0
1681 1 14.057626607043987 -0.14947264932224197 1.7311502646607373 1 1 1
1019 1 26.87488016941797 4.218631172839875 0.2875235274409347 0 0 0
1083 1 19.119011787481483 2.6177695127081018 3.5334559027206183 0 1 0
1121 1 16.338831681183713 6.082025290266112 1.5648817360700298 -1 1 1
31 1 16.141892631974166 3.2934697968106126 -0.21807914387362604 0 -1 -1
793 1 20.045002171381505 2.6986242074285465 0.9223202986885206 0 0 1
1217 1 17.277372195437984 1.1623120165125551 0.09246337213935768 -1 -1 1
22 1 17.136904366816132 3.253067835601055 1.8616892451796696 0 0 0
533 1 0.03762945421667213 5.462004608311857 -0.3836594684773981 1 -1 1
1403 1 26.373537864761566 1.569495613590781 5.0606042093946675 1 1 0
1750 1 21.545562423592877 -0.15409167659078085 12.406235107560779 0 2 1
1549 1 19.7965715353646 0.6331217512781551 1.4136206089542875 0 0 0
1238 1 21.348644580374803 3.5598975336575505 4.330389558149792 0 1 1
591 1 24.30576636025063 0.7242684303755447 2.222103124593593 1 1 0
397 1 22.22724452406304 2.108843812804103 1.9634022786752485 -1 0 1
1340 1 28.316838540992123 -0.1546069390660522 6.212764163987571 1 1 0
552 1 21.17165735177972 1.3713277025259054 3.906909343547386 -1 1 0
1948 1 24.295668518425543 3.4414036861616735 1.7292973296424132 0 1 0
110 1 26.183874318359244 1.8917005445383643 1.2038222440651065 1 -1 0
213 1 28.549650673379176 3.974095974730048 1.996985668835936 0 0 0
1713 1 25.610343935480273 3.5611261745006724 5.574911168441019 0 0 0
1068 1 26.551069641207008 4.6611251737652 3.0788049284611287 -1 1 -1
289 1 4.113604533079319 13.291823880611235 13.439027396510935 0 0 -1
2017 1 3.5361912733510077 4.5917897735623185 2.182115050666014 1 1 1
564 1 -0.37003741062779016 5.625549100056067 3.7947402321720887 0 0 1
1839 1 1.477579086337139 6.447805734855648 1.494224659935986 1 -1 0
132 1 0.6866786637789886 7.850929675740494 4.073890847487113 0 0 -1
1632 1 1.918014271902662 8.30233929418432 -0.3733266849724405 1 1 0
1965 1 1.1682990526165729 9.91033148858079 5.171609713736988 1 0 1
400 1 4.780551155501495 9.101356099976682 1.372565731055488 0 -1 0
525 1 2.747597018413008 8.38185226311725 2.374534214702226 1 -1 1
636 1 6.78513506203122 8.434291886618118 2.280467542631085 1 0 2
1571 1 8.190625768557954 6.650408948143243 3.6528958568189793 1 0 0
1371 1 6.311000016321327 6.181513531961005 0.8929035497731939 1 1 0
12 1 5.891367699090735 13.87519593880999 -0.11122880978076705 0 -1 0
538 1 11.754193888305716 4.671773885843561 0.8968721167582567 1 0 1
19 1 8.374475171030413 7.161625864315277 1.4243908905939076 0 -1 1
338 1 8.515320840697688 9.506576850959243 2.736514768776635 1 0 0
575 1 10.174807578051135 8.864357449013344 0.9563842040853694 1 -1 0
1350 1 12.836426593869355 5.02281821597236 2.9239145932204114 0 0 0
1427 1 26.379579840159245 14.133438986253411 13.482371459058859 0 -1 1
864 1 10.233326138944358 13.833545131708332 -0.1288304624657019 1 0 1
1742 1 7.7573259311920335 9.401792541423262 0.23817998242516947 0 1 1
202 1 4.1026242949703615 0.47031347441058424 3.9697146346076533 1 0 0
1541 1 3.421748667353433 13.932168975316337 0.882448855226897 1 0 0
1557 1 10.900331451088512 6.710388903537392 1.8830031726619296 0 0 1
859 1 12.54639933606682 6.6351605500119 -0.05029512161106653 0 0 1
375 1 14.150465229600847 2.8966719053416603 4.487055227265916 0 0 0
1616 1 13.952024899691102 6.051072443867205 1.540515741773123 0 1 1
1633 1 15.070908715688827 8.10600340188153 2.6339555201489437 0 1 0
219 1 12.437501009435183 8.274861174064124 2.2077126388451944 1 0 0
788 1 14.339394397925691 6.48209170129456 6.468506943777537 0 1 1
1311 1 1.1019450313367725 4.455350346447451 13.619822905722266 0 0 0
1786 1 17.76492192665672 4.869380245958196 3.0837732520867704 1 1 1
423 1 16.96632686708781 8.367722247904853 0.9632322890912817 0 0 -1
720 1 19.63498558319897 7.723542527442206 0.24979609397519997 0 0 1
795 1 18.52958397424647 7.238153539310862 2.5706987582236094 0 -1 1
342 1 18.63674415831199 9.609509637674483 0.9457517334595569 0 0 0
914 1 16.556919166119364 7.024821371974505 3.971933251729258 0 1 0
1154 1 18.586817218412662 5.721638276474362 0.8453967943664011 0 0 1
417 1 1.700013402337103 -0.3009960222384933 10.097588954823879 0 1 1
663 1 20.00090448401579 4.357704968490475 2.5278144963446496 1 0 1
1211 1 21.674855534198144 4.335141547438104 0.8194413194580332 1 1 -1
625 1 22.386612876499562 7.761648841905675 3.081659181679168 0 0 1
827 1 20.66409645491951 6.7907990857526235 1.9524197769780383 1 0 0
666 1 22.68717299935964 5.573949147767591 2.68928546445643 0 0 1
1929 1 23.230416374928247 6.105993213688306 -0.06037595823297309 0 0 0
1253 1 20.475871887318114 8.043575983725384 4.734006189357592 -1 1 0
948 1 24.481673784634836 7.156604617540837 4.186537415838695 0 1 1
656 1 26.33456069547904 13.804204101459383 4.053448331337109 0 -1 1
118 1 20.75139237605356 10.32393309392306 0.1361382898130673 0 0 0
217 1 0.4449826898858821 8.542150293377954 1.2086594146253213 1 0 0
729 1 26.865032687673732 6.394275342006671 4.931051086776894 -1 1 0
1814 1 25.086895605895634 5.748029298571543 1.488006108505446 0 0 0
1001 1 28.227694103197003 6.444563445294847 1.4001629725482432 -1 0 1
1937 1 27.455434887902683 7.827200118479546 3.0847222367261646 0 1 1
109 1 27.11107714207401 8.663847786609416 0.9498310509436838 0 0 0
159 1 24.84738229342554 7.694046331804941 1.9893797022446602 1 0 -1
1570 1 24.435479428343193 4.643761588202531 3.83798689839505 -1 0 0
214 1 19.73243879705516 0.08778270398973992 14.132393774914888 -1 0 0
344 1 1.618064438931369 9.906158934760224 2.284770288252951 2 0 0
377 1 0.4469425691861547 11.539419463817357 1.4256131794417501 1 -1 1
162 1 0.3734446537945356 12.10758476785811 3.737543742331024 0 -1 0
234 1 27.014326965302942 13.755177962900888 1.35410082347828 0 -1 1
1652 1 6.127127823773362 1.2838529923587625 10.210417306708164 0 0 0
1866 1 4.7739434087021415 9.204057733691313 3.7229783025493894 1 0 0
1000 1 4.290901772924188 11.39415695704831 2.253159563586666 0 -1 1
752 1 2.48257119120431 12.87254575530397 2.72164320871321 0 0 1
1608 1 6.808854080834691 9.721700126754081 4.294697872097994 0 0 0
1094 1 5.459198965956592 13.30410117258693 2.16054888596477 -1 0 -1
979 1 5.6477681029050055 11.749526675732579 4.271282808085147 1 -1 1
146 1 0.2361948690919914 13.190277786175029 11.10107361665115 0 0 0
1081 1 3.5987613076413387 6.840614377121885 0.7776599710103933 0 1 0
426 1 7.638794799405423 13.595843393137118 1.3507694920000408 1 0 -1
300 1 7.220194308901768 11.619571044988371 2.675401473183771 0 -1 0
204 1 9.091076594356021 11.1384760762546 0.7209443881583997 1 0 0
1861 1 13.859316077503308 0.07946335653394837 12.823010299763121 0 1 0
760 1 10.527468008362375 12.680296966701993 1.8111352222473194 0 0 0
1484 1 12.300602307875776 9.106321119417638 4.310686755985381 0 1 0
1214 1 9.325709281396755 13.207085317373956 3.98056475955119 1 0 0
1744 1 10.308858732786467 10.76683938480323 3.04540855518125 1 1 1
482 1 14.3218942758048 10.298129166718361 0.8871552600681569 0 0 0
1602 1 13.041315576441068 -0.27697353631596944 7.525338988437475 -1 1 0
1970 1 14.382149596227524 10.167794309285016 3.673964642996535 -1 0 1
588 1 13.084384717184603 12.684062151988256 0.7541744863246009 0 0 1
450 1 12.197588188743024 12.44154062386877 3.0345819980757898 -1 0 1
1831 1 17.590076395404473 12.859785736597697 1.8423816993681834 -1 0 1
1451 1 11.637057045104616 10.546656867027666 1.3182955491783734 -1 0 0
1529 1 16.13839406543368 10.261158382800648 2.101064807988305 0 1 0
589 1 14.915224402217586 13.293244634325973 2.338711555797046 0 0 1
1299 1 17.707565756726574 0.8604715292788887 6.16982974664338 0 1 0
1101 1 16.154575995519934 12.765962849196878 0.08784370788351142 -1 0 -1
1692 1 17.02362813229874 9.163634006235393 4.076205432592455 0 0 0
1126 1 20.519642930823345 9.347467384655925 2.436100975403715 0 0 0
638 1 10.617251067430447 1.083154251137072 4.434949000772683 0 1 -1
1772 1 10.86732232173169 11.836215702019558 13.705758415866017 0 2 1
1605 1 19.068619017118074 0.5528130193988102 11.54422003028332 -1 1 -1
1067 1 18.451711978500263 10.730574755231077 2.5692294313387287 -1 0 1
1763 1 23.126364077900497 12.518049399171876 0.6436183545431546 0 1 1
896 1 22.407801501052525 10.244758666476043 2.044217235017526 0 1 0
869 1 14.8125512454501 -0.33518018391007587 4.315306077967496 -1 0 0
1994 1 21.74780577976204 8.192783720553532 0.6140780150441807 0 0 1
1064 1 8.341823609328886 0.21212007187889514 4.74964943575611 1 1 0
715 1 24.679010553394804 10.747073250674653 6.354724929440087 -1 0 0
80 1 23.960317585676023 9.217731721386755 3.7800010462774303 0 -1 -1
537 1 24.963560331699462 9.879927083637725 0.9007461450383667 0 -1 1
913 1 26.150070833122207 9.935741621944945 3.0572345673491963 0 -1 0
1298 1 24.745136913413468 14.042344093986785 0.533215398525798 0 0 0
88 1 27.056812702414618 11.341109725973103 0.7493097382125209 0 0 0
1512 1 27.625446582933385 12.116341484577568 2.795221217437521 0 1 -1
2032 1 8.631916209844306 13.621202865107485 10.310724605515773 0 0 0
409 1 28.551814640256794 10.391215404090358 -0.24988700243127193 0 -1 0
353 1 8.693244538787615 4.507636061661322 0.30259562296334186 0 0 1
1647 1 28.40439079766029 9.90117101452381 2.701009353022598 1 0 0
1228 1 28.11504119959939 10.996602351047859 5.4339373218581954 -1 0 0
1197 1 3.0607857548558313 2.715015443821188 3.878983257535622 0 0 0
647 1 2.558667314213985 0.9712377340830523 8.550142495055573 1 0 0
1045 1 2.5974619326378723 4.567020368730323 5.435849899032168 0 0 0
738 1 28.396531174115218 3.2176649968133115 8.617887852246147 -1 0 0
483 1 4.677257680313759 4.081012253576885 4.485214672298306 -1 1 0
1502 1 0.5886102396925592 5.906498259286323 5.765489422117735 1 0 0
1611 1 3.5273008808416244 4.926936182009241 7.446645630496845 -1 2 1
953 1 28.05445190405591 10.899581185559093 12.128582840976412 -1 -1 1
175 1 1.6308142725080312 2.750251533346111 7.168176442058673 0 0 0
799 1 5.0397139526127495 2.056227723129873 5.883220308162578 1 0 1
1641 1 5.728628062773132 4.126122242664091 7.130335323800687 0 1 0
491 1 4.762221116322713 1.614792057800094 8.304259739318248 0 0 1
2007 1 6.791202358960249 2.7633105244397727 8.638403334628444 0 1 1
678 1 6.705307524766489 0.622636518057365 6.593705588633483 0 0 1
1565 1 15.431665128349838 0.09097874784554283 8.29835714268609 0 0 0
1080 1 15.848509890527337 3.887595870431695 13.956486793415733 0 1 -1
755 1 10.67477579100009 0.6635704938871436 7.697074167861118 0 1 1
691 1 8.596594248767923 2.085987938299487 3.2018828430332045 0 -1 0
394 1 6.847957449480673 2.586314513439805 4.600477494110781 1 0 1
1391 1 10.332640003829319 2.6494295979353573 6.484446936100236 0 1 0
1074 1 8.095255580918993 2.1797279856617378 6.726897341561717 0 1 0
1548 1 10.801051365617058 5.464992640026696 6.573578421230145 -1 0 1
27 1 10.593959181410423 0.2834332290360716 10.130532568857722 0 -1 0
1405 1 12.488185470078609 1.3957229049970603 5.99585704438243 0 1 -1
1284 1 11.861534244855797 1.9650794855904428 8.744002605190529 -1 0 0
1881 1 7.3526851773450534 3.070814989419914 11.15617387233844 1 0 1
113 1 22.454020545314656 13.547418463521524 7.839775949462911 0 0 0
496 1 11.276518765960082 3.7922156193222376 8.566316560252988 1 0 0
167 1 15.173689866087766 5.142219452957208 3.786903370161144 0 0 1
279 1 12.009445865560492 1.0656667626959326 0.8745246668345215 0 -1 1
1720 1 15.17669244113141 1.2855870585985738 5.915801999388307 0 1 1
366 1 14.40533974379448 2.040881381716815 8.964893448505833 -2 0 0
875 1 16.091791778486275 2.726134578922947 7.773552900747166 0 2 1
1701 1 13.435416714725026 2.971767907289903 7.413498010951278 0 1 1
1208 1 1.6758013547684145 12.783817440470685 13.061298097321718 1 0 1
86 1 16.6554237783822 2.9747279570597773 4.5346192471322295 1 1 0
820 1 18.05742321319257 2.996388551222537 6.877074513766302 0 0 0
1584 1 19.173895281098254 1.4153107101974327 8.183062281628137 0 0 0
1543 1 19.003231897955082 4.211924673383758 5.082575414212867 -1 1 0
473 1 21.905509258744267 -0.25492527255403297 5.341624390473952 0 1 0
1689 1 15.259972167569565 4.009951159583991 6.127721912641599 0 1 1
252 1 20.070445977356293 2.0897671747711213 6.0291618618293885 0 0 0
573 1 20.34270092354641 3.4143945484732408 8.462652640634007 0 0 0
210 1 21.974657867146668 4.740387985653283 9.102172784534126 -1 0 0
1537 1 21.6139437631606 0.20747399876110306 8.140326930102036 -1 1 1
1180 1 24.03566779861731 5.628017276348163 8.289248951290558 0 0 -1
955 1 21.112020652045224 4.360474825475692 6.564241862315604 0 0 1
1182 1 24.061208734648474 3.2890812407414978 7.532820589418295 -1 0 0
121 1 22.56075956560415 2.0358441888219363 6.327401195051327 1 1 0
1337 1 16.168932702673757 -0.34508473635540327 2.393126482140266 0 0 1
407 1 28.422312954616245 2.411994329234215 5.980804444475195 0 0 0
1377 1 24.654932964641212 0.8911539351762419 6.452219568633092 -1 1 0
878 1 26.55729477929536 1.1501104879039754 9.317648173065914 0 0 1
1606 1 24.365060599045 1.2988047870183257 8.884537446275573 -1 0 1
1932 1 26.507678518232325 2.503132897642017 7.644076935261566 -1 0 1
973 1 23.494222608101722 2.3223436517828566 3.860339163875878 -1 1 1
2005 1 27.730470853959332 4.811214594836317 6.65299798002739 0 1 1
499 1 25.577388290237764 3.393798552822247 9.637638623323385 -1 0 0
1558 1 2.810103820906324 8.102679289382694 4.7899294537967885 1 0 0
264 1 1.0415627475179268 5.098176680252852 8.20848593604225 0 0 0
1363 1 2.1644159357524155 6.189002049503968 3.794756449540583 1 0 0
179 1 28.030139980636697 8.944332548438775 5.479042728878773 0 -2 0
1414 1 2.633488570788313 6.7583916784917974 7.075846816702585 0 0 0
24 1 4.355415247002754 6.107018408878102 5.628640720158711 0 0 -1
622 1 27.269170556273004 7.141798605208305 6.914194501326608 -1 1 0
1149 1 6.614674910707581 7.728491960372487 4.87602408499289 1 1 0
952 1 28.60950601962262 8.841921586768951 9.059769172647275 -1 -1 0
1086 1 6.986105978214687 5.19129275571141 5.425042844768148 1 0 0
1203 1 6.854970754017348 7.018219300375204 6.894544668877699 -1 1 0
2036 1 4.560091849483448 6.50308414248787 3.216283951258373 0 0 1
1788 1 9.37766226821872 6.536648337115718 7.755801893944275 1 0 0
1580 1 7.571545331515489 9.757858556584063 6.48810379414979 -1 1 0
444 1 5.188750190948275 5.979808078503171 8.193671479887799 0 0 -1
91 1 10.136366192443099 7.775948483639837 3.73966450905053 1 1 0
188 1 10.334799438906462 5.613554848309696 4.470863987366064 0 1 0
106 1 8.368129437792494 4.21101864150341 7.111994334198947 0 0 0
1465 1 9.019481291773992 3.696225485161161 4.822033233751187 0 1 1
364 1 9.073681341384209 6.9326908800643885 5.589751245385811 0 -1 0
1336 1 10.105027877922588 9.358785253816867 5.250158072454005 -1 1 0
145 1 9.105276907037009 2.489884308000334 8.628992398194258 -1 1 0
935 1 11.442486069830911 7.79147904295079 7.115026201977886 -1 -1 1
116 1 11.579839739723003 9.722283808819704 6.7630144437304835 0 0 -1
1485 1 10.49170550270492 8.361243609563742 9.867566570113908 -1 0 0
1688 1 15.919820559927297 5.221966957901709 8.18983391458317 0 0 0
280 1 13.023200006370574 7.634817222551927 8.739610118017179 0 0 0
1242 1 13.721091064678227 8.705432559924486 6.562061665687754 0 0 1
2048 1 13.023581495998789 4.630443938238099 5.806155858404447 0 1 0
1695 1 14.51772592044795 5.285420038087284 9.890288600331894 1 0 0
1105 1 12.228621148091026 6.766168509215974 5.142992640254563 0 0 0
1971 1 12.736169267646632 5.344292738529476 7.969683598305853 0 0 0
1522 1 14.419034720359607 7.425843072113749 4.567684450021229 0 0 0
1987 1 15.309834631296848 7.582253834597233 9.009320819635958 -1 1 0
1586 1 18.647823539148526 6.940927303133933 5.091949067101759 0 0 1
218 1 16.052325220152476 7.977186296976329 6.163989703194697 1 0 0
534 1 18.834385885828993 5.180363986916667 7.59692622473387 0 0 0
579 1 16.82421985136773 5.455687108658642 5.906696895232019 0 0 0
1935 1 17.876305900669898 7.474499888471327 7.926288455180682 -1 1 1
885 1 20.857651024154414 9.050848153273085 7.115397033495315 0 1 1
994 1 17.470353361094 6.277075312383966 9.862560470943327 -1 0 1
398 1 19.991376989734327 6.537492423598754 6.631306702926624 1 0 1
299 1 15.266943944116486 10.44991418685947 5.634224260711982 0 0 0
1480 1 18.583587895344962 9.365666991585295 6.323655374435579 -1 0 1
650 1 22.008964474185653 9.865941120241706 4.558257129497054 0 0 0
1419 1 21.01004214701809 5.960189479250217 4.054891464404254 -1 1 0
1729 1 22.320877103997304 6.636695138481184 7.030433360327673 -1 1 1
855 1 22.925898101843757 5.081197750339671 5.459910291639033 0 -1 0
2016 1 26.595256121949006 7.2914254963298495 9.07881718570428 0 0 1
1338 1 22.979670901909337 8.209138227870406 5.642717955796477 0 0 1
1146 1 20.32367973870541 7.432320783450714 9.13937892603074 0 1 0
1231 1 28.59918019164588 6.512201490137513 9.15431131173511 0 0 0
1736 1 26.330895063052466 5.156320685792559 8.386117947256741 0 1 0
620 1 25.075956087735875 6.067675391537304 6.347829180038746 -1 1 0
1953 1 25.742492116107705 7.475121371104997 11.180407235713167 -1 0 0
1603 1 24.673022690383966 8.001676236840197 7.243216562059412 0 1 1
821 1 26.799400851886766 9.385207696712383 7.526135639235981 0 0 1
791 1 2.1524589109046217 13.197155538917658 4.844030163624015 0 -1 1
1489 1 3.4030512732080753 10.970050041174439 4.342153056320418 1 0 -1
431 1 4.30413952226691 10.450785452971628 7.9888277180694605 0 0 0
441 1 1.5740325935371304 10.093915799502604 9.076580134031612 1 0 0
742 1 1.787569469113885 12.825581810844463 9.140567543290045 0 0 1
71 1 1.6981098470273728 11.183881551105097 6.973342112880162 1 0 -1
674 1 4.687897627312048 9.693553934434346 5.90156881725577 0 1 0
93 1 3.682417823675328 12.260559274093998 6.668083576514447 2 0 -1
1872 1 5.937727409952531 11.908076814893992 6.760904723100845 1 0 1
1115 1 5.085077972400271 12.854431769853841 8.56823507628 0 0 0
436 1 2.693550638819797 9.142869889593786 7.561787724584968 0 0 -1
991 1 6.163463451787872 8.828032398861065 8.447179630429146 1 -1 1
34 1 17.82067939355116 13.864125278442177 5.249012456457762 0 -1 -1
103 1 8.824359250432812 11.132007227520361 4.649459603574703 0 0 -1
697 1 7.673480788901749 13.01928007007087 6.095720818838221 1 -1 0
1698 1 8.84925261993918 8.954707072146059 8.4645593172413 1 1 0
893 1 2.3515176565606204 -0.3217132416282665 2.956058708118151 1 0 1
1289 1 9.387878537337704 11.0217339200895 6.894980109845485 -1 0 0
865 1 11.343379359004526 11.430523401594268 4.957635295617047 0 0 0
612 1 12.2489679653464 10.320957848607488 9.00002369077139 -1 1 0
413 1 11.587841882851537 12.158041674116042 9.84824173271994 0 0 0
560 1 10.078007423017771 13.31153232515996 6.213636316570162 0 -1 1
197 1 9.541838553510175 10.863670871036277 9.283251552405199 -1 0 -1
1259 1 14.016029436162896 12.7565907879129 4.411258197060478 0 1 0
8 1 11.73322765857842 12.264062300175333 7.444116614412825 0 -1 0
261 1 13.577125986906616 11.103355222768057 6.759245363012563 -1 0 0
428 1 13.85450691867618 12.32793263930607 8.691774662940661 0 0 0
1803 1 16.209843489840985 11.793841402144162 3.8703438490606086 1 1 0
127 1 15.517240107109489 12.973353131202863 6.605278762372144 0 -1 0
404 1 24.888222681756872 13.119036075654193 11.931537161024314 0 -1 1
315 1 4.421588873670439 13.97092743810762 4.216908330012274 1 -1 0
1144 1 21.993810417502758 12.02799984011849 3.5087060025026724 0 1 0
472 1 26.872588348208616 9.210287718000998 10.557666619797795 0 0 0
1717 1 16.574050863323677 9.417817939234757 7.862357317804603 -1 0 0
1037 1 17.84675085153134 11.4144951498867 5.924351150047307 -1 0 0
1539 1 19.349179557971468 10.391073197891844 4.393874798034689 1 0 0
1392 1 20.25212190974937 11.259408573265395 6.282536469685794 -1 -1 0
780 1 18.823016998760785 9.839960353826822 8.286983899020498 -1 0 0
1193 1 19.786782205242275 13.751395543753087 6.666465019226481 0 1 0
1246 1 26.49440760984514 11.659465923105083 7.4838787821024955 -1 0 0
1312 1 2.7088746095203255 10.531562980364429 0.23193592888558967 1 -1 1
241 1 22.898404546502512 9.608818327049784 7.604714355083868 -1 -1 -1
1879 1 22.479229316645082 12.174827665674579 6.161847458534596 0 0 0
1889 1 24.321383483514616 12.494533895260577 8.687154260946492 -1 0 0
1398 1 23.909975063864096 11.5398210629577 4.242439092610797 0 1 0
702 1 25.00806750104791 8.82111456090511 9.144962744622564 -1 0 -1
1975 1 21.12087617445026 10.470854527291939 8.867927311495237 -1 0 1
467 1 6.7256639327966905 11.655186053150873 0.1698311996182602 1 0 0
231 1 -0.37811793052803466 11.378049822883504 7.891246454615551 1 -1 0
846 1 25.933686634471805 11.60959738852973 4.779599765127997 -1 0 1
1458 1 1.176978074460748 14.025273163797705 6.757012316521978 1 0 0
1801 1 25.909275161793893 8.96540276549678 5.134188749675581 -1 0 0
943 1 5.879148888516536 5.799343741653791 13.199443066977585 0 0 0
351 1 0.745277779821198 8.101325043594363 6.852437948056191 1 -1 0
1939 1 28.39655147714938 11.046364530131699 9.987768413785064 0 -1 1
1923 1 25.749290551017964 11.383331335304309 9.936506775723618 -1 -1 0
790 1 9.771448899552677 12.858107130609152 8.657533282321227 0 -1 0
1461 1 1.991620807669931 0.7026589081712238 12.496769044246378 0 0 0
1456 1 0.23966339966385308 2.4618977935187707 12.916729967757195 0 0 -1
968 1 2.595427333790837 3.481146938896083 9.295383596398896 0 0 1
309 1 -0.34649885978080436 1.0112397179777877 8.559702756999215 0 0 1
1447 1 2.733307291860669 3.735136382149575 11.803549266990581 0 1 -1
427 1 1.3161985874385413 2.0722282254513225 10.667912773127707 1 0 1
125 1 14.703126002438529 7.689052441752414 -0.08229271688752815 0 0 0
1842 1 0.5501060015414233 4.610686316565005 10.789664298241147 0 1 0
323 1 -0.22240913793351286 12.611852356700217 13.513159925242933 0 0 0
1614 1 3.515977244544868 1.941521636154921 10.695165688629652 0 1 1
1747 1 4.308959776029096 1.5026024300289584 13.990313512402887 1 1 0
1270 1 4.995732820851984 3.271377729733696 11.856380426711675 0 1 1
1769 1 27.77335887427708 13.240717703221508 6.254068139235016 0 0 1
4 1 3.922378355775658 -0.18531665157000576 9.565220703494049 0 -1 0
1612 1 6.5945674474556055 5.107202285721247 10.918930090378336 0 1 1
1959 1 25.153150751348278 12.493868420838972 2.321816521389227 0 1 1
478 1 8.813991044427997 0.19347250150805329 13.171086648582754 0 0 0
406 1 9.280168811960383 2.69150182128993 13.062609188621824 0 1 -1
1609 1 6.871006413853763 1.496704380815482 13.021913300773853 1 1 0
1826 1 25.6717310538639 11.841606305977722 13.988579989944164 -1 0 0
2015 1 11.230434588412539 1.3705578566064855 11.883059080056142 1 1 1
1402 1 8.479506724930943 1.1526466360255225 10.999816720003714 1 0 0
1120 1 8.223018917231236 0.28940242677414274 8.56947731132037 1 0 -1
58 1 17.41783290299073 13.328245915075566 8.02540176105031 0 0 0
964 1 12.68890442821189 3.6472418619858606 10.520643995156371 0 1 0
1835 1 13.507467244785438 2.2127697818150334 12.31988555377665 0 0 -1
1301 1 16.744163262315496 1.3702358135824206 9.730438709232258 0 1 0
1820 1 11.412379869463733 3.5499827143711795 13.534937486390255 0 1 1
1389 1 13.083308681988349 0.3799270434358464 10.3562630755025 0 1 0
1779 1 23.238793432821332 13.185611022809338 10.192284629121309 -1 0 0
60 1 24.63969028213406 7.999525254059128 -0.2805929637662042 0 0 -1
744 1 25.63527052871079 2.34822652518446 3.2759118067340074 -1 0 0
485 1 19.620558663501413 5.352753170098746 9.956676454130728 -1 1 0
1746 1 17.687190226763263 4.013340465598432 9.042689222979117 1 1 1
176 1 18.973227543055607 3.1023756281030748 11.116470096479768 -1 -1 0
615 1 17.50004535266575 5.708466046755859 13.113457839383988 -1 0 1
690 1 16.46805034951712 1.7554474854795252 12.089333110821633 0 1 0
100 1 17.12972282915957 4.772204178151755 11.349193740162823 0 1 0
468 1 22.120817199474203 2.751560733983073 12.745587702854326 -1 0 0
1542 1 20.63564987501953 1.5479829853958298 10.06399418065752 -1 0 0
367 1 21.26415031538899 3.473591109898507 10.70483847256723 1 1 0
457 1 21.774256251147648 5.6345177442081225 13.465782301535905 0 0 0
2022 1 20.21669886155147 2.160553764031029 12.85033250886915 0 1 2
341 1 22.41975051561804 2.299164977093746 8.746593069004788 0 0 -1
1124 1 25.228735183346444 1.013330175047819 11.354535103893554 -1 1 0
1569 1 2.938249572981914 0.9776432400785651 6.4712064757292165 -1 1 0
609 1 6.243124170475941 0.0021282930341604556 3.9728905243832067 -1 0 0
1464 1 -0.31683286317394604 0.021059600429104763 13.387788774314373 1 1 0
55 1 28.131809136292496 2.0943344253068963 11.05875605903019 -1 0 0
1876 1 23.632228495472233 3.286430852931218 10.936047742355019 0 1 1
1382 1 25.742992940480327 2.7707567276147334 12.106868336652973 0 2 0
1972 1 26.80559140649426 4.873307738894846 10.621008701657935 -1 0 0
938 1 26.51767758206973 -0.20428271135369977 13.453319401163823 -1 1 1
1888 1 3.087966356123995 6.274114490921639 13.270599816145431 1 0 0
2037 1 4.719807334396385 7.836176849691444 6.902498442767956 0 1 1
75 1 1.5038442931341152 7.721546063069345 9.291519721236206 1 0 0
385 1 3.01534393333001 5.784074744041117 9.415922987603357 1 0 1
2006 1 0.5262435541190706 8.526144878787274 11.45763432801858 0 -1 1
1812 1 2.141944508077892 6.901488255542174 11.285504675361555 -1 0 0
418 1 3.6916277377239037 8.161717249601914 10.067405091674505 0 0 1
1161 1 4.945566551478947 4.179143864901864 9.56984770288507 1 -1 -1
1725 1 7.201949284724841 5.455258967482683 8.978810082896686 0 0 1
1675 1 8.309676563793145 9.358089236067286 10.757677547689886 0 1 0
1438 1 3.938801686512802 4.1795900191963 13.858520924425827 1 -1 1
184 1 4.875091002015345 7.981965346881578 12.379169148876715 0 0 0
866 1 4.268580191017033 5.523995278567682 11.495672554570179 -1 1 0
1003 1 6.06799009208969 7.491254072493132 10.444854346373459 -1 1 0
967 1 8.34993840522489 9.85796222057203 13.300132851379418 0 1 1
966 1 8.397495729706465 7.103986224544348 10.33594677898587 0 0 0
1941 1 9.423714337987017 4.706899111587029 9.118799061281845 1 0 1
111 1 26.505161570458228 6.659582973571945 -0.09455756624286465 0 1 -1
1721 1 9.318205301501331 5.231442690031962 11.318579012184067 0 1 1
18 1 8.092604863898725 4.6842428521475235 13.105666497458673 0 2 0
189 1 10.270926354985377 8.046125924946065 11.987388044286847 0 0 0
1572 1 10.550347046546683 6.013432674684568 13.291851115788306 0 1 1
1593 1 7.712926219011312 7.235550649915675 12.503803750441541 0 1 -1
1327 1 10.221499406049846 3.1350353696649655 10.62931140288722 0 1 -1
1578 1 10.994850780314607 6.399488614680397 9.22337511542586 0 1 1
1862 1 10.217591368561692 10.409067299587045 11.708359571375434 0 1 0
516 1 15.208696770104872 6.978414138954066 13.714458018364981 0 0 0
554 1 12.6287375726685 7.799499213134908 11.191035684599905 0 -1 1
150 1 15.265581889524002 3.3474945436374974 10.920206578594154 0 0 0
1662 1 11.753017820675225 9.563463105922867 13.384183041050239 0 0 0
1191 1 14.70508979404881 9.422318842099518 11.678696899219256 1 0 -1
733 1 11.597045454985142 5.827402378692891 11.344664643941414 0 0 1
706 1 12.664423735543911 7.181896763288941 13.63837535318969 0 1 0
1690 1 1.04885004973116 1.3127931169739067 4.871243201226031 1 1 1
730 1 15.990947482047732 6.877216345873299 11.45373240361593 0 0 0
1258 1 18.49831376104052 6.848792347956747 11.571526789561277 0 1 0
419 1 17.46629376973317 0.3589157512741378 13.536151921750207 -1 1 -1
689 1 14.287368758142804 5.406327640736288 12.306741813746726 0 0 0
998 1 16.281614811298134 10.637422011015554 13.152594912003401 0 0 0
379 1 20.052577193546426 8.865662509175216 12.935920284834383 0 1 0
16 1 17.19944944480136 8.018351826375799 13.101569550411154 -1 0 -2
1278 1 19.9652885504293 9.111826177150624 10.370604573541844 0 0 0
1111 1 22.3037000951794 5.216858310932798 11.393066185706934 0 1 0
475 1 20.891050763060058 7.0359604934244615 11.393083834799809 -1 0 -1
1914 1 21.75189473293927 9.49609212231092 11.647761277117066 0 1 0