LAMMPS data file via write_data, version 29 Oct 2020, timestep = 300000

2048 atoms
1 atom types

-0.4471693687427454 28.799169368742206 xlo xhi
-0.4471693687427454 28.799169368742206 ylo yhi
-0.4471693687427454 28.799169368742206 zlo zhi

Masses

1 58.933

Atoms # atomic

1844 1 1.9182696719414225 3.9926183382226332 1.8213489887683254 0 0 1
933 1 1.3319037532545404 1.6799084257336356 2.13882623906243 -1 0 1
579 1 8.765128793859379 13.470959038831447 9.617366182720549 0 0 -1
907 1 -0.25573133638255274 -0.08063558711597285 2.7210150076114097 1 0 0
359 1 14.138003724444054 13.528984339006001 12.956132596838243 0 1 0
775 1 3.80005437242788 2.697846638325681 2.019696049586758 1 1 0
318 1 4.295878799823039 0.37523115954173347 0.37665648658733086 2 -1 1
1022 1 6.246638369562867 2.2104579424542896 1.4126792140733995 -1 -1 2
53 1 7.815640306537542 2.7614972012549033 3.0659869582171346 0 -1 1
20 1 5.48806372577301 4.873775240693214 1.7562943372198143 0 -1 0
1514 1 8.498371401119709 1.5939678334011909 0.9878674781440209 0 1 1
538 1 8.829150898439424 4.09972600490475 1.0610743255001733 1 -1 1
2018 1 5.895568795532654 1.1843179431452897 3.6558956137498226 0 1 1
1818 1 11.617202366845225 6.079261772343555 -0.00382781107040997 1 0 1
38 1 24.76338621305995 13.041075366515788 3.3027516296893444 -1 -1 0
868 1 23.275343553357025 0.16630328714503007 10.85795331948319 -1 1 0
1198 1 9.822863627952179 1.9380418707898932 3.4512355871061122 2 1 0
21 1 9.54108230517812 4.485543516098416 3.434008869696278 0 -1 -1
1349 1 12.137782770901229 0.7617508267308528 3.8884505364367854 -1 0 -2
971 1 19.852635863207265 1.5102230349712424 -0.18183491816734 -1 0 1
1682 1 12.960091356780266 3.7415798603656505 0.4714233396116334 0 1 0
1884 1 10.805227717706623 4.3149009025231555 1.8947012924385391 0 1 1
1552 1 11.716405420787154 2.2795555259100904 1.3053162589012544 0 -1 0
455 1 10.625665526483637 0.29273819086001984 1.6659256610877273 0 2 0
1084 1 13.270285668255143 0.6536183791673256 1.8123268102609238 1 1 -1
1213 1 15.00766912002655 3.065119683086695 1.8894251167038894 1 1 0
589 1 16.46755678619016 5.695247729618475 2.7224038072907675 0 0 0
411 1 16.53315532918168 1.4550659383568885 0.6671709720704047 -1 0 1
1045 1 19.488854036035026 9.697552223584408 0.1658040918836352 0 0 0
1011 1 17.892474035310105 -0.41953552007035466 3.0375785408060043 -1 0 1
697 1 20.002826315837385 0.4659721509502718 14.039513313233261 0 0 1
1032 1 15.363969076192982 0.7940258707115293 2.756107156475739 0 0 0
1466 1 19.806437481525187 3.0098977995482117 4.222827519938233 0 1 0
2004 1 20.120929529647597 14.007527070927654 7.557658188504163 0 0 1
1517 1 23.129699733402948 12.932762175338476 1.489106710563794 0 1 1
1241 1 19.903673332866536 3.82690366044187 1.0075329517121625 1 0 0
561 1 18.017958622266256 2.7356451555514107 1.8830733899183363 0 0 0
757 1 15.248483985025686 12.882445354202412 5.799726635773462 0 -1 0
1958 1 0.17850923518151007 13.278209937453218 0.1932413902873089 0 -1 0
406 1 19.817813117650946 0.8903936234863519 2.936903818754991 0 0 0
1298 1 1.8146411940169975 -0.026262904715066204 10.683964695959707 0 1 0
574 1 21.525331723719365 2.407341718290798 2.1388588289094397 1 1 0
290 1 23.400851384479772 1.543614730008686 2.948097357117936 -2 -1 0
762 1 23.637823156664723 3.751081981251173 1.7767462623399979 0 0 0
1321 1 21.770717708216267 1.8073449415988638 4.840912510698336 1 0 0
1451 1 3.0143077207753093 0.08325539618740563 6.884105209939839 0 0 0
1178 1 21.966801049810282 0.5788751074085856 0.9885098360801234 -1 0 -1
1303 1 8.556962811612125 12.868777138154304 6.564898258661994 0 0 0
1328 1 25.105498876700096 2.665684777922214 4.091513911415864 -1 1 0
75 1 27.537867990875174 2.521034687427012 2.2073658599022137 0 1 0
1702 1 25.713689438593054 4.029647790308252 2.2500300421760953 0 1 0
1793 1 24.71547669407786 -0.35179815492285105 14.087037566196994 -1 1 -1
1023 1 3.905170317839622 4.534259280422754 0.3036907763438039 -1 0 1
1754 1 26.466678857582373 6.350595916894906 2.656393308721084 1 0 1
1509 1 24.32337728486697 4.894301025850502 3.9586097674227245 0 1 0
1073 1 26.70950230884439 0.9240499484133307 3.8542204978900623 0 0 1
1709 1 2.589654479388963 1.6116469931902677 0.21082968778588684 0 1 1
1373 1 14.623336565866266 1.5930200886572479 -0.18338507564046785 0 0 1
48 1 2.68535294536714 7.84418214858229 3.520631423941738 0 1 0
410 1 0.9565367625182744 6.587970248133812 1.997820153646106 0 1 -1
575 1 28.47488075169349 9.226341111001636 0.7909758808764518 0 0 0
1461 1 3.11053433649389 6.275615611154497 1.980014287404178 0 0 -1
955 1 18.311814680170244 0.278630721926846 1.218004682427398 0 0 1
1035 1 25.295600977281893 13.00374495665794 0.39165749697438323 -1 0 0
683 1 28.47118693716869 4.614208891108804 2.546402834683281 -1 0 1
1422 1 7.387970646942167 5.07354854842558 2.6529711744137736 0 1 0
824 1 4.782933028187046 6.61643283974824 0.5290512514661454 0 1 0
1016 1 6.39362911891591 8.523207344162962 0.979528804484395 2 0 1
451 1 7.352322495468259 6.406829432394586 0.7027119772264092 -1 1 1
9 1 3.5563237288130143 8.7252764276945 1.492909365726617 -1 -1 0
752 1 9.988758645839411 6.687435406215166 1.9815649009416534 1 1 2
420 1 5.317954558435175 7.477461516694959 2.885496920857512 1 -1 1
1848 1 8.768348735599005 8.4787852552211 1.2911805292008514 1 0 2
1502 1 11.016954250455285 9.21229685479737 2.4104602528081105 -1 1 0
446 1 9.284717499310199 9.19943558010562 3.8311734559904256 2 0 0
1893 1 12.98266202259813 9.180504909134516 3.5636275294765802 -1 0 1
1586 1 13.106645642970216 6.831237846517145 2.6997372464968623 0 1 1
1737 1 11.080008659395281 8.154726920583297 0.12475210381594681 0 1 2
773 1 11.591505214248299 5.839766172494746 3.99635386423304 0 -1 2
1758 1 11.378424117271795 13.391713874141 10.628216883003931 2 1 0
1812 1 15.988009477978174 7.369013043786666 1.3696575245038856 -1 0 1
1771 1 15.257922286680051 7.695829707159989 3.8179330993944607 0 0 2
699 1 12.956764971287685 7.437365796401537 5.099404138768794 0 0 1
731 1 13.417120879760573 8.099941506318466 0.9626903395052158 1 1 1
622 1 16.495441205474002 4.233205466319213 0.3941613418633755 0 1 0
1898 1 17.10507584762446 6.621965536073113 4.540026225625548 0 1 0
1465 1 13.346660780123623 4.594445600058972 2.935369710752691 1 1 0
529 1 17.970031568277303 4.433548076640738 3.930888427351248 0 -1 1
1941 1 15.112610435898308 5.619170191652819 4.810582908370727 1 0 0
1443 1 18.208924664608112 5.293257732392649 1.0172577914177345 -1 1 2
1239 1 19.03635284774223 7.622506763083628 1.3148700558402937 1 1 0
1326 1 19.63367187874674 9.898892101894127 2.587808204894404 0 0 1
426 1 19.22308211727322 8.275486641740208 3.899728934546143 -1 -1 0
1547 1 7.082262676510902 -0.29105341738371227 1.149441468557711 0 1 1
1165 1 16.157513443490593 9.691850614869253 1.0532531087463473 0 0 -2
1992 1 17.21385330246933 8.389700859892862 2.7026114898802436 0 0 0
320 1 21.84891199587314 4.494149078954805 3.053489418039733 0 0 0
681 1 23.49423992256032 6.013219725825743 1.6783098038556261 0 0 1
1311 1 21.33277402434965 6.843657804224614 1.1358149357460774 0 0 0
1664 1 26.489438399813803 3.4007649247606633 0.23689669818613557 1 0 1
211 1 25.271579045718685 7.540996947576097 1.462738563966358 -1 0 0
1352 1 21.220064867187002 8.153793523872336 2.595326261795841 -1 0 1
191 1 22.574619547103175 6.535941716391414 3.6365873678973326 0 1 0
1423 1 19.60858572579238 5.7812549866864344 2.9111686853542302 0 1 1
1802 1 22.92406157453761 9.196080662456168 3.8585196487791915 -1 1 1
3 1 26.761585568095317 -0.15998948971373173 6.3525258959981326 -1 0 -1
830 1 28.004563216816464 7.037018949100664 0.7665779513098518 1 0 1
11 1 24.739001918314468 7.676250076995492 3.7564304133960125 0 1 0
1300 1 28.212655644509464 8.321485806386487 3.002351068774709 -1 1 1
780 1 28.497083235316033 6.23152516527228 4.3299802601194335 -1 -1 1
1444 1 26.110247447984605 9.51408941903426 2.6957421469072664 -2 1 0
468 1 26.17191055239898 5.8496613874424535 -0.24096486383993973 0 1 1
1667 1 5.706966428416749 11.941791840747328 6.76238024178157 0 0 0
540 1 15.11203548049507 11.966256175676756 0.5529286726591136 1 0 0
1896 1 1.175295973685939 12.217323963492468 3.989531740112927 -1 1 0
921 1 2.8450243291141724 12.249992963975567 2.4184800656916856 0 -1 1
1271 1 1.0602359029009447 9.168171381019206 2.4191707317409135 0 0 0
380 1 3.207821502755656 10.997227326586351 -0.06270116313532359 0 1 1
1731 1 1.0884334113992113 11.263023024664612 1.3720327791548075 1 0 1
998 1 2.7532337681625583 10.028181261423072 3.632256255262864 -1 1 1
1009 1 28.719928937011876 13.669932681042615 4.370559506400256 -1 -1 0
922 1 4.628151995670548 11.951346413380548 3.8072506726776982 1 -1 1
1282 1 10.716020907671039 5.730200789453964 14.129803606448245 -1 0 0
1714 1 6.465646564623803 13.951662353498945 8.708345126690531 0 0 0
371 1 5.055148657524979 9.378237497825396 3.360538066893985 0 -1 0
1082 1 7.133778848777111 9.731659665774917 3.125871632773469 1 1 0
6 1 6.17265749973501 12.478484892792764 2.3737027414856486 0 -1 0
1640 1 5.604308873494799 10.611855252592628 1.2874579138941356 0 0 1
157 1 8.494163366779828 12.731670559255532 2.6326158744477284 1 -2 1
188 1 4.331629074268833 13.01365578845135 0.7563601167651395 1 0 0
1523 1 12.879776316347014 13.278688656874776 6.022048162970521 1 0 -1
91 1 21.943033488518605 4.348066682623501 0.20016132065869208 0 0 1
1105 1 14.560666142379981 6.30520240411422 13.719586531675667 0 0 -2
216 1 8.411300548492514 10.569684511081247 1.6956780416175143 0 -1 0
1938 1 10.251243353321701 10.641239911951555 0.5197073078727746 0 0 0
379 1 10.002705492631106 12.856582272957493 4.798711984956454 0 -1 0
601 1 10.586994672611235 11.370546885406645 2.9288971671107022 -1 -1 1
981 1 11.747189386718974 13.281423598311472 2.968211246937547 0 0 2
1815 1 10.475143357655812 13.171520014523775 0.8241601437702211 0 0 0
1210 1 8.451910485141926 4.064355707573105 13.40685701570973 1 1 1
1671 1 2.044094559722439 13.464753956000598 6.936651747136874 1 0 0
1125 1 12.938983133891114 10.842677536677824 2.0379968005156943 0 1 -1
1598 1 15.305007355161054 10.316574224734728 3.4056182902405583 1 0 0
240 1 14.241909147409137 13.464664327798442 1.9818175550288077 -1 0 0
940 1 16.299770494723923 12.79599231165556 3.2544957367946994 -1 -1 1
1729 1 -0.09769348551143925 13.152824860703474 10.357123121100544 0 0 0
1507 1 26.59968628321984 13.560426009617759 13.007542861090673 0 1 0
1720 1 12.839673314739462 12.598517302113965 0.19329911530560406 0 1 2
1162 1 17.32571005953234 11.37247040837921 1.7215385586938523 0 0 -1
1879 1 17.216525734590334 9.440546900594883 4.706408996596382 0 0 1
477 1 21.211788082436648 13.650211155311508 -0.08117816766062758 0 0 1
1929 1 19.504066256101044 11.856091782665722 0.5945609888156844 -1 0 1
233 1 18.93870212865317 11.801222531397377 3.199449980382461 -1 0 0
977 1 21.60936172189921 10.647367071362654 1.952810764976237 -1 0 2
554 1 20.24868719150847 10.126982929467443 4.872444079424594 1 0 0
1302 1 16.751829260414016 13.502869255522258 1.0243821522268093 1 0 -1
471 1 22.79918467445253 8.76368771829783 1.1410665285245922 0 0 1
634 1 18.715988753609395 13.940136210851632 4.885965320034564 0 0 1
1736 1 19.464779772203226 -0.2244883313100328 11.27656194123735 -1 1 1
1636 1 24.284811051910843 10.88159202877619 1.599563189696711 -2 0 1
1710 1 21.0931233105273 7.8278912518248 5.3437687815735195 -1 0 1
834 1 24.756194036560252 12.260507506597552 5.292414416077279 -1 0 1
1338 1 21.616107539316346 11.24202325978949 -0.3211580066402965 1 1 1
789 1 20.62495715911857 12.629889949175517 2.1623302422703006 0 0 -1
1900 1 28.615371018944142 10.774374073572444 3.028816405019957 0 0 1
1989 1 25.613597327323617 9.453210999329286 0.2910729106858724 0 2 1
1174 1 26.92353923205885 11.099284321844989 1.4301995461944024 -1 -1 0
1376 1 4.08272594731849 9.153979564279808 13.100485439444174 1 -1 -1
836 1 26.808246261880853 12.05272603059895 3.7612283172268963 0 -1 1
1344 1 -0.3886687532574662 5.160058939711668 0.01238157806370993 1 0 1
881 1 0.02969856292472306 2.3930287098336533 3.914282892627507 0 0 1
1699 1 3.807863789968355 4.524835772876444 3.1259558625266606 -1 1 1
1963 1 -0.151418567090362 0.20847470249930478 6.255845923224757 0 1 0
227 1 26.999883506901217 2.097489834619403 5.789702809533852 -1 0 0
155 1 2.7304653948417617 2.8915422045606674 6.632487785802147 1 0 0
838 1 1.8362153400830117 5.206899884889163 3.6158968970172483 1 1 -1
186 1 2.8530445206731057 2.4306699537091547 4.3533676482593116 1 1 -1
1351 1 4.175361593974854 2.2827061693326605 8.036911618661168 -1 0 0
1335 1 10.945479893693303 0.6340451676571195 7.713600264719743 1 1 1
382 1 5.885965165522847 3.539301185947833 3.6226608085552536 0 1 -1
444 1 4.906416404239782 1.7301511385453856 5.668429661465984 -1 -1 0
648 1 25.57507965827876 1.7173612833295353 1.3718823607347057 -1 0 0
691 1 18.957615461794386 1.6138486329129846 5.727632158606694 0 1 0
292 1 6.3863289665663645 3.044547620757722 6.643770100960545 -1 -1 -1
1765 1 5.921205745957693 4.68607035987909 8.265116137298175 0 0 0
723 1 7.167253414310781 0.6009446022371225 6.127424898908623 1 0 -1
1253 1 4.392945619171484 4.0126796941283525 5.496513651969765 0 1 1
506 1 3.765840195307817 0.12284021904442499 9.02662000338306 0 0 0
1467 1 10.323875828735755 14.108597515318417 12.784342611484389 1 0 -1
1653 1 10.695259422323925 3.2822461908089524 7.998907566231313 1 1 2
847 1 10.449867016692062 1.3835414604381147 5.5073624721995165 -1 1 1
59 1 8.474875838020996 1.0507818457863358 8.120408073283603 1 -1 0
811 1 8.374589753925328 2.575913673580407 5.4402291991189715 0 -1 0
416 1 13.498929889389427 2.5586379914494746 5.873589102926226 1 0 1
751 1 24.733966389697358 -0.05088751907892186 2.203182461799671 0 -1 0
264 1 14.185492407421192 2.4556721672151083 11.648083810106568 -1 -1 0
992 1 13.806585697237338 2.3537861703863077 3.853476257636202 -1 0 0
795 1 15.97629848433981 3.810011985005981 3.805725230162891 0 0 0
2045 1 28.369214079731186 7.992645673457975 13.384480711242324 -1 1 0
1304 1 14.933048491899491 1.1611965666119743 6.101113933270504 0 1 0
753 1 12.582855659749573 0.3442932943496356 6.137986934094465 0 1 0
1052 1 14.712036197059437 3.3399891715331713 8.394457718946137 0 0 0
1927 1 8.42856164135588 12.197492051423911 -0.26877301745649174 1 0 1
708 1 14.21860357090768 -0.019485203944489937 8.315483060302462 -2 0 0
542 1 12.589012081428967 2.072782325450695 8.275461201201713 1 1 0
170 1 16.9162910136189 1.9348398222205772 7.526325089327255 0 0 0
1081 1 19.05654680522236 6.284813121899169 5.179938866184261 0 1 0
1584 1 17.000729368487484 4.008626390290143 8.376120647641793 -1 0 0
41 1 20.550983163905766 3.417168229785149 6.252934979415373 0 1 -1
166 1 17.977910092292397 2.045350359404984 9.628061512275126 0 0 0
1589 1 16.553225960368206 0.026023758699854904 8.734337040404831 0 0 1
1690 1 19.226086009230432 0.9492816792658938 7.675668628503066 0 1 0
43 1 23.94179806188604 0.14451440468585808 -0.11208178343557157 0 1 -1
1038 1 18.84228017467248 6.009643294685765 8.004951655696273 0 1 -2
781 1 24.009401334068226 0.8958014809149892 5.436795170595129 0 0 1
1693 1 24.899245369434844 1.911113243802736 7.010380944611804 0 1 0
1276 1 22.065649144409115 2.047661643215072 8.119082107466117 1 0 0
1 1 24.294936743723078 1.6786913685060671 9.08287183496421 -1 1 0
1878 1 23.170822354498682 3.5282679078167343 5.181923250209868 0 1 0
476 1 21.065470617025753 0.3877058737907255 6.308158017101036 1 1 0
1358 1 19.300581159914543 3.5327984210891055 8.203429596140362 -1 1 -1
1998 1 25.415492841990865 0.07836499855654055 8.257819579858367 -1 1 1
1565 1 26.775097308411983 4.444216522365622 4.101775560580802 0 0 0
1356 1 24.655069135976724 4.307523083904593 8.652883993264531 -1 1 0
817 1 0.767601096083314 13.877824994906296 2.439400183114056 0 -1 1
42 1 25.270441744310308 3.701260426653656 6.150079284725722 -1 0 -1
1323 1 16.908272750430182 -0.1388926113100954 6.083034751207828 -1 0 0
312 1 28.289619213496653 0.45923567734015036 8.486975516213027 0 1 -1
1777 1 27.117747375910103 2.6711144054843423 8.555932294251969 -1 1 0
1678 1 2.304825627600313 13.581233828790186 -0.11809684224394495 1 0 1
880 1 0.9927158191207401 7.543488734175111 5.141727576909775 0 0 1
1832 1 1.9417739219246033 5.206642167489846 7.441920953276959 -1 1 0
1528 1 -0.2825280943583272 4.550234435752744 8.72050743827211 0 1 0
816 1 3.247159560000315 6.164569012413147 5.235462958035046 -1 1 0
39 1 2.351416204803087 7.5330344731023215 7.296334130995796 -1 0 0
1003 1 4.886468590296225 6.095312537367829 7.145634345868244 1 0 2
315 1 -0.12419923736221611 6.1328081343493235 6.710962372157253 1 0 1
1348 1 1.0536970667083405 4.556241162571647 5.56379210383389 1 0 0
650 1 4.9081999947718264 7.909726000570865 5.3966823749025234 1 0 0
453 1 5.554818958557019 5.993683296893312 4.404067446378713 -1 -1 0
508 1 3.472878819446547 4.192756840479678 9.067550889154564 0 0 0
422 1 9.545544063653981 5.907713759662662 7.4103905344771235 0 -1 1
265 1 7.5610417244018215 7.773219229121338 5.579982320635244 0 -1 1
869 1 7.3022005745025576 6.160036144837788 7.315410329346713 0 0 0
1689 1 8.084582827745162 5.301940477310044 5.281063364708488 0 1 0
1742 1 5.129752674089674 8.138241645279436 8.637198973108152 -1 0 -1
1738 1 11.811436802204485 3.461055865098918 4.403084777158121 0 2 1
112 1 10.214151511730137 4.449193663123147 5.981093850673042 0 0 -1
934 1 9.320167827594625 6.86676583478276 4.537529542802082 -1 0 2
1986 1 11.07828894923763 8.126557080736202 4.6543911107724325 0 0 1
804 1 7.456639940808642 7.328882643236528 3.1456034738204037 1 -1 1
306 1 11.233511114408941 5.253172957286068 9.211892022204664 0 0 -1
234 1 8.389399830088582 4.027081486182948 7.844665058314671 -1 0 0
1270 1 9.315776816684663 3.834135761062625 10.265523226829295 1 0 -1
1577 1 11.549785391866763 6.42385148594446 6.235089993253996 -1 0 0
1949 1 15.61977791526861 3.6976256081506467 6.294720444649604 0 0 1
270 1 16.80856901619417 5.809289775226157 6.737045031864851 -1 -1 0
449 1 13.100242026348509 4.709047557606941 5.402940665042002 -1 0 0
820 1 12.88447588580482 4.569626069355508 7.480917476787826 0 0 0
1149 1 14.258654619708427 6.68307899025217 7.028565120246375 0 0 0
2010 1 17.667919505125326 8.39780111901436 8.573751127847732 -1 1 1
214 1 16.174616880464285 8.168125685357584 6.906728897161906 0 0 0
251 1 15.057705129623905 5.54376778295403 8.89803509934437 0 -1 1
1155 1 20.614652672386757 8.058378473423948 8.412286167082057 -1 0 0
205 1 17.978559669626502 3.5870790861562885 6.390018013698781 -1 1 0
1511 1 18.818988925202074 7.759942142846821 6.686331685881624 -1 0 0
123 1 18.348844119373442 10.036495711834736 6.60929620558521 0 1 -1
1339 1 21.871319990283695 10.05878676161116 10.024991578818616 0 0 1
1655 1 18.942909439989528 7.47135046064556 10.164665629541735 -1 1 0
1670 1 20.33714373962682 5.120794960041401 9.769001005925263 -1 0 0
29 1 21.207706281556682 5.396387291493242 5.3494225749421025 0 -1 0
975 1 21.920900821853536 6.6609073299908514 7.366293472366991 -1 0 0
341 1 22.860818265600173 8.942861956147906 7.834610852248447 -1 0 1
1306 1 21.570211402107493 7.27561942159477 10.291875634503743 0 1 1
140 1 24.539492022895526 8.881206394518562 9.376101834214941 0 0 0
1150 1 21.922473407969065 4.49429335095594 7.640403385267671 0 1 0
268 1 27.690113120603417 4.322528876537202 6.433750610709959 -1 0 1
493 1 23.719152562709777 8.155642725421954 5.612068500223174 1 0 1
1390 1 25.909816534064678 6.0954840887579875 5.387746701698885 0 1 0
1732 1 23.673055732726812 5.596489372693346 6.282702185536279 1 0 1
356 1 26.226318289832943 7.1347769082564705 7.671276495673599 -1 1 0
1005 1 23.465063587461053 6.560466621031265 9.08232995741816 -1 -1 2
1280 1 25.794209349389888 6.692810705193634 9.772049595472849 1 0 0
658 1 3.256155157419375 11.294819877562984 5.613596060487076 0 0 0
1757 1 2.6428668552321573 9.269804391845266 5.84993889985562 0 2 1
30 1 0.5987568598817434 12.408350439402371 6.194084941244362 0 0 0
520 1 0.43390170727232813 9.826735770569908 5.121512652046642 0 -1 1
1147 1 1.4872771646903633 10.431844225005408 7.434131181015939 1 1 -1
345 1 -0.4179909645977802 8.536540959621389 7.095730145026276 0 0 0
1874 1 3.5906057598378656 11.776692527279454 8.003194203736538 0 1 1
161 1 2.5929770673152603 8.462581527758726 9.19156749629149 0 0 -1
255 1 7.1590724732494175 13.54756435421603 4.2389509772411085 1 -1 0
281 1 7.823441509612207 11.418581370139439 4.747368435914307 0 0 0
113 1 6.343968885050403 9.84604130977275 5.308581745606566 0 0 0
326 1 4.4499217536299485 9.769774805232169 6.957658434965137 -1 0 1
388 1 27.533463569469557 13.505096407357883 1.7386376897382116 -2 -1 0
15 1 8.153305709982646 10.493627704214871 6.653300028634499 0 -1 0
1122 1 5.7620883704638715 10.44751831691449 11.959515924528647 -1 0 0
69 1 9.335081073137601 8.012820963172114 6.9203922509303855 0 -1 -1
1906 1 10.133095774665142 9.730531508572147 8.305053693707436 0 -1 -1
722 1 7.257163396057247 8.789229922145287 8.281716011784589 0 0 0
1978 1 10.142946169316348 9.89860716596229 5.709288748574298 1 0 1
761 1 12.024123714627013 9.064346230818993 6.912702909895562 -1 0 1
2014 1 11.229849629117165 7.68438207702421 8.390514976155838 1 0 1
483 1 10.738905213399784 11.693325759281041 6.761125658896753 0 0 0
1438 1 7.811345406362639 11.851931888447627 8.56943096465758 1 0 1
16 1 2.9160768986528716 13.964998736110307 4.046668066606476 1 0 -1
859 1 15.96298999029149 10.897144217437312 6.998011612575366 -1 -1 1
118 1 14.066852113959794 11.728090259900961 4.249284342319667 0 1 0
1060 1 24.303256123750685 2.7807853811426266 -0.37908392430774773 0 1 0
1803 1 11.91496049876163 11.408758021851805 4.790718247009496 0 -1 2
1479 1 14.842278777062575 9.639117084814856 5.270397585875528 0 0 0
1604 1 13.584936978984256 11.095250171674412 6.472698861037136 -1 1 0
27 1 13.962669973675347 8.91546020383454 7.770846495546261 0 0 0
96 1 14.296637837995222 12.888157863972978 7.830743339282183 0 -1 -1
649 1 17.335330482091553 10.65705402162875 8.697170695123818 -1 0 1
1643 1 20.651734003329597 12.864056746265293 4.493538242183256 -1 0 0
1845 1 17.86128140212515 11.581764500357528 5.287347684153549 0 1 1
1098 1 8.513283584387338 0.24704267994452933 3.265966955868174 -1 1 1
1307 1 20.091093578003665 12.007395596109495 6.3718588968261995 0 1 0
1961 1 21.667808311116097 12.451512368271157 8.434808356000861 0 0 0
776 1 1.4618065153415645 8.522903394396135 0.39938649601112397 0 0 1
523 1 20.01743415195339 10.874560558392211 8.52681337896866 0 -1 0
854 1 22.59333070155411 11.597033671923102 3.65964642448197 0 0 0
1261 1 23.903715724887558 11.122702888755011 9.403716871729982 -1 0 0
217 1 23.403069721831912 13.142558167485559 10.208569284835324 0 1 -1
806 1 21.14186781713516 9.951959542875086 6.920738220849055 0 1 -1
545 1 22.653360900295965 12.932340714000393 6.156411508152127 0 0 0
1955 1 23.950102189483058 13.52118963055793 8.109066659830882 -2 0 1
1607 1 16.744445798348842 6.453731608134096 14.007174906199872 1 1 0
1858 1 23.660551971876362 10.971735633440632 7.1001318080158065 0 1 0
674 1 26.254435676589807 10.207515579972666 10.290613160044282 -1 0 2
1590 1 26.441859413134388 13.136011674365246 8.933131131631981 0 0 1
964 1 27.515259758234546 7.673482938639781 5.716158556379132 0 -1 0
1614 1 25.057555828647143 10.124576975157972 4.402665885859366 1 0 1
1229 1 27.283257311763812 9.946578677984416 5.124884978174738 0 0 0
1426 1 26.77856152744347 12.070979600268053 6.154782086670568 -1 0 1
763 1 25.48771871075479 9.34387892489362 6.6452280514853195 0 0 1
1230 1 27.069365705081516 9.04534949803286 8.584034060001251 0 0 0
689 1 25.716574050900633 11.121650301926511 7.999046866122072 -1 0 1
1130 1 28.455879941972167 10.898190628994088 7.178627322844967 0 0 1
152 1 1.3026180893884187 1.728744254651001 8.645426977874036 0 1 0
603 1 11.475235297556535 0.3660795770313735 13.452938001450606 -1 1 0
724 1 1.0882070524134588 3.3830126917348418 10.34878359370494 1 -1 -1
1886 1 28.405893994771912 1.3517856710361964 11.038331079644289 0 0 1
237 1 1.524245916681033 0.989108076066952 12.889730869658107 1 1 0
513 1 0.5062313726064741 3.0828357134270385 12.43718818362426 0 -1 1
512 1 3.845725875279477 0.5711850034455428 11.73624995980692 2 0 -1
656 1 28.302083956402942 1.669873510663375 14.042854561418126 0 0 1
1051 1 22.10688746465866 14.023830701507409 13.123721393646534 1 0 0
653 1 27.336018798216593 11.64547290761387 11.840580109459019 -1 0 0
141 1 2.842705993531399 2.378110476666788 10.408797541737052 0 -1 0
501 1 3.888628282124107 3.147292952082018 12.355448411311354 0 0 0
1481 1 5.795605874251373 0.6165630620801039 12.946471283460921 1 0 -1
71 1 6.613302989646523 2.637146195299296 12.045214158146408 -1 0 0
991 1 5.0857387469355375 1.6453457107758154 10.48017776855327 1 0 0
1429 1 5.414319995375251 4.142767692948025 10.651822869151125 1 0 1
745 1 0.40956119991078077 0.12217932812939436 0.7237278189002427 1 1 1
429 1 7.323674685220891 2.6963441014929166 9.402234038941689 0 0 0
1176 1 8.228407132021266 0.07640860426404361 12.555139219904696 2 1 0
774 1 22.509852536751293 13.684655765958782 3.5419382798185177 -1 -1 1
858 1 9.228956341443483 2.397545090267404 12.24553984015288 1 1 1
803 1 7.552205192002005 0.3531495599417144 10.42143886908787 -1 -1 0
797 1 9.863153150131117 1.6616432608839844 9.75966014874762 1 0 0
54 1 9.577523486778766 5.927787803294282 11.553881555178458 0 0 0
130 1 11.879959676226015 3.3272022722325927 10.343119268649954 0 -1 0
2039 1 10.673471243471576 4.127475872092113 12.391881744561339 1 1 0
280 1 12.137214612660241 0.32155094221792535 9.72415880129527 -1 0 0
1936 1 25.255750674263908 12.651442245341338 11.115370499464833 0 0 1
582 1 13.670215115819277 4.722626097215688 10.57982540882117 -1 0 0
949 1 11.846618081051824 1.7780285891961891 11.88220776217964 -1 0 1
1173 1 28.686657853825356 10.125712969841963 12.031119112794402 0 0 1
738 1 14.961614466984283 4.374315626738899 12.90116229675656 -1 0 1
705 1 15.986637055794386 1.544997226166235 12.57556354102963 0 0 0
487 1 14.497252323213385 0.07885437962367547 4.481753572971903 -1 0 1
844 1 21.3833764986789 0.4435902327203578 12.042804809373386 -1 0 -1
55 1 16.48136405160225 -0.0605427471288274 10.921110417503181 -1 2 -1
304 1 16.54715822951041 3.973234005887716 11.098600179252186 0 0 1
1200 1 15.754433933084506 1.9165167055004995 9.847485744868505 0 1 0
338 1 17.729241502892982 3.6940069731620904 13.576558156392847 0 0 0
1985 1 20.271022261462594 2.527524034891413 10.1423229455583 0 0 1
368 1 18.769249296767455 3.9072305158609533 11.11200107690505 0 -1 0
920 1 21.33313235609101 2.6563747105150064 12.512602546529092 0 1 -1
986 1 18.747353580803736 1.5430372862874686 12.031959083322922 0 0 0
497 1 22.70990680032697 2.713914211144387 10.552651082049122 0 0 -1
1872 1 21.427241766080748 0.5221094622007268 9.660236112380943 0 0 0
1567 1 25.767782543956834 4.6986175409493365 10.962079646023547 0 0 0
323 1 22.84176614329203 4.616694626615477 12.752905430037744 -2 -1 1
1037 1 23.646278724114527 1.2434393676799183 13.048696293135063 0 0 0
1618 1 15.901231144084608 13.271480482700978 11.436331798282222 1 -1 0
14 1 5.96292833605639 0.5443694889449444 8.25424610565826 0 1 1
2011 1 25.783976196741598 1.39286659538291 10.704113527864672 -1 1 2
286 1 26.542690770182265 2.996287690456695 13.011680361602254 -1 0 0
842 1 24.317161732944776 3.242961027381634 12.100981161298545 -1 0 1
200 1 4.301653937029364 4.35866603717576 13.898815108694635 0 0 0
1632 1 25.356347735795264 5.171323654395635 13.723677506077284 0 1 -1
1472 1 0.24685337437352362 2.774176835607101 7.110194631450103 1 -1 0
1140 1 27.98782402228093 4.025882577459842 10.91029764633727 0 0 0
1788 1 14.697042665216541 5.441445327308233 1.2007179712819778 1 0 0
1188 1 1.2323476316495188 6.93180057038093 9.644775042516304 0 0 0
1500 1 1.8526648393048673 4.682587941299348 13.018186291365625 0 0 0
1747 1 28.00148904352427 6.759732213970453 9.176891697221967 0 -1 -1
595 1 3.5928280819933924 6.423449813680413 9.121848860768125 1 0 0
1427 1 2.4915189788115564 7.319766756616511 12.15792141793473 1 1 1
514 1 0.18784340262795196 8.128525941159568 11.402979559950879 0 -1 0
277 1 2.9938455671559003 5.426315189333339 11.07415108031469 1 0 0
1785 1 6.802027698981268 13.584361218548706 11.468913475704772 0 0 0
1042 1 7.059316094060558 8.956715150960322 10.893007459835053 1 0 0
1184 1 6.185780724178637 4.598068821490425 12.835329238531777 0 0 0
1828 1 4.377913218215012 8.383231662876907 10.880402178184912 1 0 2
427 1 4.9103584462430145 6.491253603833635 12.521447364548461 0 0 -1
84 1 6.868446123080462 8.214584582632082 12.951224792547293 2 -1 0
1018 1 5.309392780192107 6.527852501301606 10.263515928399096 0 0 -1
1433 1 7.729895569552136 5.451599500245055 9.459301451151987 0 1 1
883 1 8.952874843580567 7.574330282801347 9.118903434675397 1 -1 0
835 1 8.88513623564533 9.863922121181297 10.19212970124801 0 -1 1
1157 1 11.297044116052074 8.33896540654151 13.723717304099925 0 1 -1
1745 1 11.773776263421489 6.562963495444711 10.754078326248939 0 0 2
120 1 7.591042168550523 6.871872825544063 11.264588544285694 0 0 -1
78 1 10.203909803275732 10.13955598426767 12.435985169527344 -1 1 -1
1973 1 10.973912749340508 8.819307417988636 10.952938608430657 0 0 2
333 1 9.319415126563216 7.946678921628262 12.46136965302557 0 1 0
394 1 13.54886910859666 6.923370131580083 9.570838937087181 0 -1 0
324 1 13.157736946617058 7.690078535866446 11.690690665561675 0 -1 0
1325 1 15.111545511458322 6.575145400782018 11.431529618520113 1 1 0
1146 1 17.61157787456472 5.796224477825287 12.220328789474657 0 1 -1
821 1 15.667802989780288 7.994696884406212 8.989036717694557 1 0 0
668 1 12.941463941011328 9.337116968538098 9.97360501792 1 1 0
1211 1 12.791738348043838 5.054065213216981 12.823943258182732 0 0 0
299 1 15.80230178558886 8.350856257321007 13.155257862404097 0 0 1
1222 1 17.252770612920973 1.5624043342241736 3.884644320812207 0 1 0
1656 1 0.6889660784220129 6.401133143006663 13.919974768622927 1 1 0
125 1 8.257300028455198 6.492561812538633 14.036065669860825 1 0 0