LAMMPS (29 Oct 2020)
OMP_NUM_THREADS environment is not set. Defaulting to 1 thread. (src/comm.cpp:94)
  using 1 OpenMP thread(s) per MPI task
package omp 0
using multi-threaded neighbor list subroutines
package omp 2
set 2 OpenMP thread(s) per MPI task
using multi-threaded neighbor list subroutines
units metal
dimension 3
boundary p p p


lattice fcc 3.5440
Lattice spacing in x,y,z = 3.5440000 3.5440000 3.5440000
region box block 0 8 0 8 0 8 units lattice
create_box 1 box
Created orthogonal box = (0.0000000 0.0000000 0.0000000) to (28.352000 28.352000 28.352000)
  1 by 2 by 2 MPI processor grid
create_atoms 1 box
Created 2048 atoms
  create_atoms CPU = 0.001 seconds

# read_restart after_heating_press_100000_2300.lmp

variable P equal 100000
variable dt equal 0.001
variable loopVar loop 5
variable sys_press equal "press/10000"
variable sim string "heating"
#variable temp_word equal "heating"

# print "step temp vol pe" file heating.txt screen no

pair_style eam/alloy
pair_coeff * * Co_Zhou04.eam.alloy Co
Reading eam/alloy potential file Co_Zhou04.eam.alloy with DATE: 2018-03-30




neighbor 2 bin
neigh_modify every 10 check yes

thermo 1000
thermo_style custom step temp vol press ke pe density

timestep $(dt)
timestep 0.0010000000000000000208

# fix 2 all npt temp 300 300 $(dt*100) iso 0 0 $(dt*1000)
# run 30000
# unfix 2





# dump_modify 1 append yes
# dump 3 all custom 10000 traj_npt_new.lammpstrj id type x y z

velocity all create 2200 123123

print """
yo aagadi
"""

yo aagadi

label ensemble

print """
Label pachadi solti, hos garam.
"""

Label pachadi solti, hos garam.

variable T equal 2100+${loopVar}*100
variable T equal 2100+1*100
# variable T equal 2350
# velocity all create 1200 123123
reset_timestep 0
fix 1 all npt temp $T $T $(dt*100) iso $P $P $(dt*1000)
fix 1 all npt temp 2200 $T $(dt*100) iso $P $P $(dt*1000)
fix 1 all npt temp 2200 2200 $(dt*100) iso $P $P $(dt*1000)
fix 1 all npt temp 2200 2200 0.10000000000000000555 iso $P $P $(dt*1000)
fix 1 all npt temp 2200 2200 0.10000000000000000555 iso 100000 $P $(dt*1000)
fix 1 all npt temp 2200 2200 0.10000000000000000555 iso 100000 100000 $(dt*1000)
fix 1 all npt temp 2200 2200 0.10000000000000000555 iso 100000 100000 1
print """
<--------------------------------------------------------------------->
<------------------ Equilibrating at temperature $T ----------------->
<--------------------------------------------------------------------->
"""

<--------------------------------------------------------------------->
<------------------ Equilibrating at temperature 2200 ----------------->
<--------------------------------------------------------------------->

fix temp all print 1000 "$(step) $(temp) $(press) ${sys_press} $(vol) $(ke) $(pe) $(density)" file temp_${sim}.txt screen no title  "step temp press pressGiga vol ke pe density"
fix temp all print 1000 "$(step) $(temp) $(press) ${sys_press} $(vol) $(ke) $(pe) $(density)" file temp_heating.txt screen no title  "step temp press pressGiga vol ke pe density"
run 250000
Last active /omp style is pair_style eam/alloy/omp
Neighbor list info ...
  update every 10 steps, delay 10 steps, check yes
  max neighbors/atom: 2000, page size: 100000
  master list distance cutoff = 7.6035394
  ghost atom cutoff = 7.6035394
  binsize = 3.8017697, bins = 8 8 8
  1 neighbor lists, perpetual/occasional/extra = 1 0 0
  (1) pair eam/alloy/omp, perpetual
      attributes: half, newton on, omp
      pair build: half/bin/atomonly/newton/omp
      stencil: half/bin/3d/newton
      bin: standard
Per MPI rank memory allocation (min/avg/max) = 4.354 | 4.354 | 4.354 Mbytes
Step Temp Volume Press KinEng PotEng Density 
       0         2200    22790.356    34962.016    582.11014    -9015.757        8.794 
    1000    2285.8566      23652.4    101695.09    604.82742   -8375.8956    8.4734905 
    2000    2155.3349    23522.532    100561.77    570.29196    -8420.157    8.5202726 
    3000    2150.2668    23525.466    102730.02    568.95096   -8409.1199    8.5192101 
    4000    2245.6243    23581.751     97634.66    594.18213   -8416.6014    8.4988765 
    5000    2120.9695    23567.556    99583.727    561.19903   -8406.6131    8.5039953 
    6000    2187.4397    23498.299    106507.91    578.78673   -8398.4753    8.5290594 
    7000    2211.4642     23607.66    93971.739    585.14351   -8424.1916    8.4895489 
    8000    2290.4625    23558.097    101776.85    606.04611    -8411.913      8.50741 
    9000    2222.2818    23521.606    102270.38     588.0058   -8417.9651    8.5206082 
   10000    2196.8759    23635.519     95010.53    581.28353   -8408.0005    8.4795426 
   11000    2203.2697    23543.658    104082.72    582.97529   -8395.5945    8.5126273 
   12000    2219.0088    23609.135    91373.331    587.13978   -8437.9784    8.4890185 
   13000    2273.1587    23431.407     108049.7    601.46761   -8423.2722     8.553408 
   14000    2211.2603    23504.888    100190.65    585.08957   -8430.4635    8.5266685 
   15000    2216.1028    23589.005    98388.137    586.37088   -8410.7533    8.4962629 
   16000    2190.2723    23482.514    103591.21    579.53624   -8423.7104    8.5347927 
   17000    2275.1001    23655.058    94774.942    601.98129    -8409.296    8.4725384 
   18000    2244.3472     23391.63    112292.68     593.8442   -8415.1939    8.5679531 
   19000    2208.5959    23691.572    89241.254    584.38458    -8417.015    8.4594804 
   20000    2205.7714     23536.48    100917.87    583.63721   -8414.8488    8.5152234 
   21000    2270.8599    23555.981    100923.19    600.85934   -8410.9697    8.5081742 
   22000    2221.3038     23683.91    91457.351    587.74702   -8409.3479    8.4622171 
   23000    2228.7757    23488.914    105343.21    589.72406   -8411.8365    8.5324672 
   24000    2178.4092     23742.67     86625.42    576.39732   -8412.5246    8.4412742 
   25000    2228.3628    23516.664    103043.06    589.61481    -8414.972    8.5223986 
   26000    2163.7179    23581.941    95793.196    572.51005   -8423.8962    8.4988081 
   27000    2215.9402     23657.12    93822.187    586.32785   -8409.3472       8.4718 
   28000    2195.9571    23474.529    104789.46    581.04041   -8417.8371    8.5376959 
   29000    2213.4558    23623.965    94703.352    585.67048   -8415.0349    8.4836898 
   30000    2303.1708     23465.81    106227.99    609.40867   -8421.6281    8.5408682 
   31000    2137.1983    23588.214    92365.754     565.4931   -8434.0085    8.4965478 
   32000    2217.9198    23441.567    109168.68    586.85163   -8409.0066     8.549701 
   33000     2150.766    23614.343    93170.052    569.08305   -8424.2269    8.4871466 
   34000     2219.225    23494.644    107748.45    587.19698   -8399.6795    8.5303863 
   35000    2229.1855    23588.859    98542.076     589.8325   -8413.6496    8.4963153 
   36000    2226.5401    23513.542    98928.019    589.13252   -8435.8372    8.5235303 
   37000    2300.0058    23588.074    97564.695    608.57123   -8421.1611    8.4965982 
   38000    2204.3251    23558.445    99871.211    583.25454   -8412.4197     8.507284 
   39000    2161.1702    23622.589    95460.088    571.83595    -8409.665    8.4841837 
   40000    2201.6571    23537.354    101454.52    582.54859   -8415.6634    8.5149071 
   41000    2159.1046    23555.724    99421.336    571.28939   -8411.6073    8.5082669 
   42000    2149.0802    23618.166    95066.023    568.63699   -8411.4961    8.4857726 
   43000    2271.7044    23439.809     105695.1    601.08281   -8434.9635    8.5503421 
   44000    2130.7939    23668.668    90654.077    563.79852   -8412.8581    8.4676663 
   45000    2233.2342    23511.396    105123.81    590.90376   -8407.2308    8.5243084 
   46000    2245.4841    23645.122    92435.206    594.14504   -8422.3765    8.4760987 
   47000     2204.251    23488.079    105043.76    583.23494   -8414.4705    8.5327705 
   48000    2276.7217    23616.845    94247.846    602.41036   -8421.8544    8.4862471 
   49000    2257.9481    23611.973    95677.432    597.44294   -8414.0687    8.4879983 
   50000    2233.0102    23528.676    97916.173    590.84448   -8436.1202    8.5180479 
   51000    2216.9629    23617.555    96791.966    586.59844    -8405.937    8.4859921 
   52000    2260.9891    23590.025    100667.51    598.24759   -8400.7367    8.4958956 
   53000    2211.2859    23594.839    92542.053    585.09632   -8436.5531     8.494162 
   54000    2204.3038    23503.527    104274.58    583.24891   -8409.5031    8.5271623 
   55000      2175.84     23562.03    102371.07    575.71751   -8397.4721    8.5059899 
   56000    2225.9141    23522.835    104223.08     588.9669   -8403.5551     8.520163 
   57000    2207.6071    23589.142    93707.017    584.12294   -8432.8122    8.4962136 
   58000    2184.1135    23549.929    101061.64    577.90665   -8409.5534    8.5103605 
   59000    2228.8155    23520.342    104747.28     589.7346   -8404.8848    8.5210659 
   60000    2236.3011    23634.618    91558.255    591.71524   -8429.4687    8.4798656 
   61000    2226.4667    23496.411    106153.23    589.11311   -8409.2177    8.5297447 
   62000     2191.398    23544.761    97206.188    579.83408   -8429.1428    8.5122286 
   63000    2298.8826    23557.974     101250.6    608.27403   -8409.7361    8.5074544 
   64000    2185.2265    23576.522    96915.265    578.20113   -8421.7228    8.5007613 
   65000    2210.5861    23449.636    102676.27    584.91116   -8438.4088    8.5467591 
   66000    2242.2633    23611.431    100132.42     593.2928   -8398.7293    8.4881933 
   67000    2167.5574    23543.908    100661.05    573.52598   -8411.8553     8.512537 
   68000    2172.5138    23609.824    100963.69     574.8374   -8386.7155    8.4887708 
   69000    2151.8874    23570.911     99024.29    569.37977   -8413.0448     8.502785 
   70000    2263.9131    23568.359    96334.202    599.02127   -8429.2908    8.5037057 
   71000    2201.9402    23509.517    105104.21    582.62349   -8402.8883    8.5249894 
   72000    2189.8052    23627.726    92949.855    579.41265   -8417.9071    8.4823391 
   73000    2191.4723     23527.29    104988.45    579.85376   -8399.1259    8.5185494 
   74000    2152.8686    23507.371    103257.99    569.63938   -8411.4282    8.5257678 
   75000    2183.1658    23531.237    99782.547    577.65589   -8420.6862    8.5171206 
   76000    2239.9013    23622.706    97372.476    592.66783   -8401.4306    8.4841418 
   77000    2165.9921    23617.693    97974.843    573.11181   -8397.0382    8.4859424 
   78000      2240.33    23570.145     99710.28    592.78127   -8411.3154    8.5030613 
   79000    2211.6016    23501.017    103002.46    585.17987   -8421.9951    8.5280731 
   80000     2219.144    23624.703    96854.822    587.17554   -8402.0875    8.4834246 
   81000    2124.9276    23588.712    98565.402    562.24631   -8404.1509    8.4963685 
   82000    2224.6434    23585.128    98716.459    588.63068   -8413.6792    8.4976596 
   83000     2213.683    23527.111    103713.93    585.73061   -8408.9755    8.5186144 
   84000    2198.1014    23650.485    91179.042    581.60777   -8423.7539    8.4741767 
   85000    2219.2064    23487.544    105122.82    587.19206   -8415.2155    8.5329649 
   86000    2148.0982    23576.668    94805.318    568.37716   -8424.7239    8.5007087 
   87000    2176.0351    23586.705    100060.82    575.76912   -8399.9324    8.4970912 
   88000    2208.7097    23471.909    106114.73    584.41467   -8413.6758    8.5386487 
   89000    2186.7164    23628.436    94726.833    578.59534   -8414.4665    8.4820842 
   90000    2212.2192    23486.456    106030.68    585.34328    -8414.958      8.53336 
   91000    2210.8524    23620.474     95750.66    584.98164   -8413.7008    8.4849433 
   92000    2199.3927    23390.854    108889.37    581.94945   -8427.6264    8.5682371 
   93000    2204.4654    23611.318    97052.103    583.29167   -8410.0202    8.4882339 
   94000    2146.4625    23542.716     98669.35    567.94434   -8418.8022    8.5129681 
   95000    2225.5738    23559.645     101997.3    588.87685   -8401.1236     8.506851 
   96000    2231.0467    23601.931    98821.191    590.32495   -8403.2764    8.4916096 
   97000    2173.1264    23552.724    100459.12    574.99951   -8408.4213    8.5093507 
   98000    2203.6596    23498.661    104173.43    583.07846   -8411.6104     8.528928 
   99000    2156.9873    23573.711    96849.335    570.72916   -8420.0334    8.5017749 
  100000    2217.5962    23504.137    102017.52    586.76601   -8420.7104    8.5269409 
  101000    2121.3191     23557.75    100025.01    561.29153   -8407.5776    8.5075351 
  102000    2188.8536    23525.267    105520.96    579.16085   -8395.1997    8.5192823 
  103000    2215.2234    23562.649    96702.785    586.13817   -8428.8751    8.5057665 
  104000    2196.7594    23637.547    97373.139    581.25269   -8395.9027    8.4788149 
  105000     2210.463    23574.629    97834.044    584.87859   -8418.8803    8.5014439 
  106000     2195.408    23625.476    92283.363     580.8951   -8422.1314    8.4831472 
  107000    2237.8046    23479.302     106629.8    592.11306   -8408.2371    8.5359603 
  108000    2183.4469    23726.914    87608.018    577.73026   -8413.2305    8.4468795 
  109000    2269.9062    23576.323    100509.74      600.607   -8407.0433     8.500833 
  110000    2155.1305    23500.307    103092.75    570.23786   -8414.9373    8.5283306 
  111000    2188.7842    23595.602    94253.624     579.1425   -8428.2708    8.4938874 
  112000    2232.2266    23539.281    105961.34    590.63715   -8391.7519    8.5142103 
  113000     2168.173    23674.765    91773.852    573.68886   -8409.5983    8.4654858 
  114000     2209.762    23513.603    106172.01    584.69311   -8400.1811    8.5235081 
  115000    2146.7136    23631.928    94063.117     568.0108   -8412.8948     8.480831 
  116000    2295.2007    23548.175    106820.59    607.29982   -8384.3007    8.5109946 
  117000     2228.895    23593.118    97482.011    589.75564   -8415.3104    8.4947816 
  118000    2164.3063     23534.99    101358.89    572.66575   -8411.1581    8.5157625 
  119000    2228.1861    23582.236    100183.88    589.56805   -8405.7276    8.4987017 
  120000    2153.0939    23515.793    101517.82    569.69898   -8418.4744    8.5227144 
  121000    2181.5188    23666.761    92817.258    577.22008    -8404.415    8.4683486 
  122000    2174.0535    23428.554    108146.45    575.24482   -8419.3992    8.5544496 
  123000    2258.2941    23610.007    99434.798     597.5345   -8401.2921    8.4887049 
  124000    2221.7318    23583.411     95716.95    587.86028   -8428.4143    8.4982781 
  125000    2213.1331    23531.282    100284.04    585.58509   -8420.9228    8.5171045 
  126000    2192.1161    23645.111    95188.954     580.0241   -8401.2569    8.4761027 
  127000    2194.6197    23474.433    104983.38    580.68653    -8418.503    8.5377306 
  128000     2163.246    23632.237    91918.697     572.3852   -8426.1997      8.48072 
  129000    2228.5061    23536.577    101925.56    589.65272    -8411.172    8.5151882 
  130000    2242.2378    23586.356    102534.26    593.28606   -8391.3691    8.4972169 
  131000    2201.6002    23617.352    93163.497    582.53356    -8423.778     8.486065 
  132000    2202.4253    23522.892    102807.52    582.75187   -8412.7236    8.5201421 
  133000     2281.544    23522.845    100421.88     603.6863    -8429.101    8.5201592 
  134000    2200.6686    23543.127    97741.473    582.28705   -8428.1461    8.5128195 
  135000    2237.1281    23573.037    98470.266    591.93406   -8413.0474    8.5020179 
  136000    2214.8735    23603.935    97991.702    586.04561   -8406.4648    8.4908886 
  137000    2174.9911    23494.783    99728.785    575.49289   -8433.6782    8.5303359 
  138000    2235.3839    23529.814    102572.01    591.47255   -8414.1773    8.5176357 
  139000    2139.4003    23603.599    95394.555    566.07573   -8414.2007    8.4910096 
  140000    2244.4003    23474.356    108833.88    593.85825   -8400.6356    8.5377586 
  141000    2127.3602    23523.129    105122.73    562.88997    -8394.484    8.5200566 
  142000    2213.4678    23620.384    96253.294    585.67366   -8408.7705    8.4849757 
  143000    2208.3138    23485.338     102958.9    584.30993   -8423.4787    8.5337662 
  144000     2224.068     23614.32     98946.99    588.47843   -8395.5895    8.4871546 
  145000    2207.3337    23541.183    98923.246    584.05059   -8421.5231    8.5135224 
  146000    2264.9496    23592.909    98577.827    599.29552   -8414.1575    8.4948571 
  147000     2179.086    23587.712    98092.421    576.57638   -8409.5339    8.4967287 
  148000    2146.1237    23456.178    107483.52     567.8547   -8409.6075    8.5443753 
  149000     2252.533    23544.193    103866.96    596.01014   -8400.7947     8.512434 
  150000    2190.0974    23597.429    94664.594    579.48994   -8424.1604    8.4932296 
  151000    2196.5693      23479.8    104683.61     581.2024   -8418.2577    8.5357791 
  152000    2179.4727    23529.323     98584.08    576.67872   -8430.3941    8.5178134 
  153000    2191.9357    23534.923    101922.63    579.97635   -8411.1872    8.5157868 
  154000    2210.6016    23583.751    100003.98    584.91528   -8404.3547    8.4981558 
  155000    2203.7181      23542.6    99097.483    583.09394   -8424.9295    8.5130098 
  156000    2195.7328    23535.798    100443.52    580.98106   -8419.2184    8.5154701 
  157000    2204.4657    23517.975    106208.56    583.29175    -8398.094    8.5219235 
  158000    2172.4965     23605.38    92812.341    574.83283    -8430.231     8.490369 
  159000    2209.2278    23540.298     101745.5    584.55176   -8409.7334    8.5138422 
  160000     2198.282    23565.383    98704.169    581.65556   -8417.5715    8.5047794 
  161000    2221.8927    23603.647    94747.893    587.90284   -8423.2965    8.4909923 
  162000    2253.7217     23448.15    110166.82    596.32466   -8405.1934    8.5473007 
  163000    2195.4007    23591.466    98526.914    580.89317   -8410.1888    8.4953766 
  164000    2205.1739    23406.058    107276.47    583.47912   -8432.7222    8.5626713 
  165000    2217.0816    23587.597      96090.9    586.62986   -8423.3463      8.49677 
  166000    2151.7718    23486.204    103783.29    569.34918   -8416.2781    8.5334515 
  167000    2156.9847     23633.76    98853.487    570.72847   -8385.6488    8.4801737 
  168000    2227.1752    23553.353    102688.75    589.30057   -8405.6792    8.5091232 
  169000    2204.5316    23589.315        96262    583.30916   -8420.3922     8.496151 
  170000    2202.0405    23497.338    101629.49    582.65004   -8424.6916     8.529408 
  171000    2178.4201    23621.626    97584.649    576.40018   -8397.6413    8.4845296 
  172000    2090.6556    23501.873    103798.86     553.1781   -8408.5415    8.5277623 
  173000    2185.7015     23576.14    99902.476    578.32681   -8407.0738    8.5008992 
  174000    2183.2848    23554.063    101015.03    577.68736   -8409.0804    8.5088668 
  175000    2208.5079     23677.27    93790.706     584.3613   -8403.0552      8.46459 
  176000    2190.7312    23403.837    109357.92    579.65767   -8421.1676    8.5634843 
  177000    2216.7491    23600.302    96734.634    586.54188     -8413.97    8.4921959 
  178000    2204.5227     23473.76       102172    583.30683   -8430.4496    8.5379753 
  179000    2205.8873    23509.771    103933.21    583.66788   -8413.1436    8.5248973 
  180000     2143.935    23534.255    101928.09    567.27559   -8408.4953    8.5160285 
  181000    2209.1791    23504.168    103269.84     584.5389   -8415.5118    8.5269297 
  182000    2132.1454    23634.922    95040.429     564.1561   -8403.4045    8.4797568 
  183000    2213.0082    23577.132    99605.493    585.55205   -8411.6021    8.5005413 
  184000      2217.38    23497.782    107665.82    586.70881   -8397.9952    8.5292471 
  185000    2156.8095    23534.947    99980.133    570.68213   -8416.6088     8.515778 
  186000    2188.9811    23528.208    105947.94    579.19459   -8393.1355    8.5182171 
  187000    2189.4342    23586.361    97539.209    579.31448   -8411.7721    8.4972151 
  188000    2238.6753    23663.713     92721.62    592.34344   -8411.5688    8.4694397 
  189000    2164.8837    23542.647    102040.31    572.81852   -8407.3245     8.512993 
  190000    2163.6997    23602.739    95275.983    572.50525   -8416.6019    8.4913192 
  191000    2269.1443    23583.325    98030.355    600.40542    -8415.871    8.4983093 
  192000    2200.2914    23486.434    104094.87    582.18724   -8418.6816    8.5333679 
  193000     2134.873     23617.39    94157.525    564.87783   -8414.7256    8.4860514 
  194000    2260.7398    23471.131    107901.04    598.18162   -8408.7571    8.5389316 
  195000    2184.3279    23596.413    93506.581    577.96337   -8430.4736    8.4935953 
  196000    2245.4149    23531.491    100896.38    594.12671   -8418.1213    8.5170287 
  197000    2233.6561    23542.694    98691.575     591.0154   -8427.4034    8.5129757 
  198000    2211.1824    23533.099    100372.64    585.06896   -8421.0372    8.5164468 
  199000     2190.046    23563.742    103319.82    579.47635   -8391.6252    8.5053717 
  200000    2219.2025    23551.348    97844.717    587.19104   -8427.2317    8.5098477 
  201000    2292.5525    23588.599    104024.39    606.59912   -8388.5705     8.496409 
  202000    2181.4196    23509.687     102123.4    577.19385   -8418.9981     8.524928 
  203000    2176.1275    23558.544    99368.753    575.79357   -8413.2218    8.5072483 
  204000    2208.8506    23671.698    92851.996    584.45197   -8410.7193    8.4665828 
  205000    2250.8066    23500.349    106814.36    595.55335   -8401.2029    8.5283155 
  206000    2188.2661    23687.171    90317.894    579.00541   -8414.8058    8.4610521 
  207000    2204.2635    23505.527    104352.14    583.23824   -8410.1645    8.5264366 
  208000    2232.2497    23643.539    94652.879    590.64327   -8407.4158    8.4766661 
  209000    2228.0186    23595.554    97466.046    589.52374     -8411.57    8.4939047 
  210000    2211.0121    23524.914    104602.84    585.02388   -8402.4021    8.5194099 
  211000    2129.6317    23500.409    101919.24      563.491   -8418.8095    8.5282936 
  212000    2169.3375     23485.51    105149.15    573.99699   -8410.1168     8.533704 
  213000    2220.9352    23622.931    91822.905    587.64949    -8427.877     8.484061 
  214000    2169.4617    23459.401    105336.46    574.02985   -8421.5968    8.5432015 
  215000    2200.1899    23532.315    97167.096    582.16038   -8436.5218    8.5167304 
  216000    2152.7564    23451.675     107871.7     569.6097   -8408.9273    8.5460158 
  217000    2191.9964    23572.378    98264.496    579.99242    -8412.824    8.5022557 
  218000    2206.7629    23485.674    105533.27    583.89958   -8413.5286    8.5336441 
  219000     2151.218    23495.555    101616.76    569.20264   -8424.3381    8.5300554 
  220000    2222.9759    23604.139     94554.83    588.18946   -8426.2109    8.4908153 
  221000    2246.6789    23545.174    102081.31    594.46117   -8408.6781    8.5120792 
  222000    2202.9099    23514.658     98263.71    582.88009   -8435.8313    8.5231258 
  223000    2253.6734    23574.338    97937.837    596.31189   -8420.4606     8.501549 
  224000    2209.6061    23517.253    103733.71    584.65188   -8410.1485    8.5221853 
  225000    2102.6701    23699.853    88157.016    556.35708    -8410.187    8.4565244 
  226000     2225.507    23481.408    106630.21    588.85917   -8409.8494    8.5351947 
  227000    2215.8794    23586.407    93947.171    586.31177   -8435.1796    8.4971987 
  228000    2250.7543    23503.605    105001.38    595.53949   -8411.7047     8.527134 
  229000    2143.7398    23557.418     96239.54    567.22395   -8425.9088    8.5076549 
  230000     2226.958    23470.445    104067.94    589.24311   -8425.6183    8.5391814 
  231000    2222.6378    23548.915    100530.36    588.09999   -8417.6418    8.5107268 
  232000    2201.9333    23482.517    103452.34    582.62168   -8423.0141    8.5347914 
  233000    2192.6513    23557.597    100182.14     580.1657   -8413.2258    8.5075905 
  234000    2174.1177    23568.819    95971.235    575.26181   -8420.3837    8.5035398 
  235000    2178.5688    23382.565    112342.68    576.43954    -8419.092    8.5712745 
  236000    2205.7755    23697.184     92116.72     583.6383   -8402.6941    8.4574771 
  237000    2178.0218    23409.353    107324.78     576.2948   -8432.5518    8.5614662 
  238000    2184.2479    23538.391     101816.2    577.94219   -8414.0169    8.5145321 
  239000    2225.1541    23663.991    95007.306    588.76579   -8401.4275      8.46934 
  240000    2153.5103    23493.611    101584.54    569.80917   -8422.5169    8.5307611 
  241000    2280.4676    23614.075    94382.795    603.40151   -8425.6688    8.4872426 
  242000    2185.6091     23503.22    100686.97    578.30237   -8429.9766    8.5272736 
  243000    2188.5348    23579.973    99050.342    579.07649   -8408.3018    8.4995171 
  244000    2147.5263    23527.671    101180.28    568.22583   -8414.3454    8.5184117 
  245000    2168.5832    23640.742    90194.148    573.79739   -8429.0699     8.477669 
  246000    2276.9958     23570.01    100761.77    602.48289   -8411.9868    8.5031099 
  247000    2191.5296    23544.263    100021.86    579.86892   -8416.3937    8.5124085 
  248000     2248.061    23556.809    98654.236    594.82687   -8425.4809    8.5078749 
  249000     2240.859    23541.352    96429.945    592.92125    -8440.973    8.5134613 
  250000    2233.7494     23531.05    102130.31    591.04009   -8413.0008    8.5171883 
Loop time of 486.957 on 8 procs for 250000 steps with 2048 atoms

Performance: 44.357 ns/day, 0.541 hours/ns, 513.392 timesteps/s
120.2% CPU use with 4 MPI tasks x 2 OpenMP threads

MPI task timing breakdown:
Section |  min time  |  avg time  |  max time  |%varavg| %total
---------------------------------------------------------------
Pair    | 282.26     | 287.66     | 292.96     |  22.6 | 59.07
Neigh   | 4.268      | 4.4        | 4.4667     |   3.8 |  0.90
Comm    | 20.394     | 25.944     | 31.567     |  78.6 |  5.33
Output  | 0.0059585  | 0.011178   | 0.012929   |   2.9 |  0.00
Modify  | 167.96     | 168.06     | 168.25     |   0.9 | 34.51
Other   |            | 0.8837     |            |       |  0.18

Nlocal:        512.000 ave         519 max         497 min
Histogram: 1 0 0 0 0 0 0 1 0 2
Nghost:        3063.75 ave        3085 max        3049 min
Histogram: 1 0 1 1 0 0 0 0 0 1
Neighs:        40742.2 ave       43264 max       39369 min
Histogram: 1 1 1 0 0 0 0 0 0 1

Total # of neighbors = 162969
Ave neighs/atom = 79.574707
Neighbor list builds = 4702
Dangerous builds = 0


# fix 132 all momentum 100 linear 1 1 1 angular
fix out_file_1 all print 1000 "$(step) $(temp) $(press) ${sys_press} $(vol) $(ke) $(pe) $(density)" file one_phase_${sim}_press_$P_$T_.txt screen no title  "step temp press pressGiga vol ke pe density"
fix out_file_1 all print 1000 "$(step) $(temp) $(press) ${sys_press} $(vol) $(ke) $(pe) $(density)" file one_phase_heating_press_$P_$T_.txt screen no title  "step temp press pressGiga vol ke pe density"
fix out_file_1 all print 1000 "$(step) $(temp) $(press) ${sys_press} $(vol) $(ke) $(pe) $(density)" file one_phase_heating_press_100000_$T_.txt screen no title  "step temp press pressGiga vol ke pe density"
fix out_file_1 all print 1000 "$(step) $(temp) $(press) ${sys_press} $(vol) $(ke) $(pe) $(density)" file one_phase_heating_press_100000_2200_.txt screen no title  "step temp press pressGiga vol ke pe density"

# dump 3 all custom 1000 traj_npt_new.lammpstrj id type x y z
run 50000
Last active /omp style is pair_style eam/alloy/omp
Per MPI rank memory allocation (min/avg/max) = 4.354 | 4.354 | 4.354 Mbytes
Step Temp Volume Press KinEng PotEng Density 
  250000    2233.7494     23531.05    102130.31    591.04009   -8413.0008    8.5171883 
  251000    2185.4729    23594.244    93661.154    578.26634   -8429.2055    8.4943763 
  252000    2217.9177    23537.369    104104.28    586.85108   -8399.3876     8.514902 
  253000    2167.5701     23470.63     105821.5    573.52934   -8415.4891     8.539114 
  254000    2187.9932    23594.779     96199.53     578.9332   -8418.8176    8.4941837 
  255000    2211.8888    23483.559    103169.07    585.25586   -8425.0451     8.534413 
  256000    2172.2206    23682.341    90345.708    574.75982   -8413.4501    8.4627775 
  257000    2211.4288    23459.732    110580.98    585.13415   -8398.4698    8.5430808 
  258000    2206.8019    23605.982    94362.544    583.90988   -8426.0226    8.4901525 
  259000    2174.0926     23567.67    99209.204    575.25516   -8414.3569     8.503954 
  260000     2191.244    23540.784    102925.36    579.79334   -8402.8156    8.5136668 
  261000    2258.7163    23522.356    100983.85    597.64622   -8426.7871    8.5203366 
  262000    2143.4782     23607.81    94971.556    567.15472   -8417.7721    8.4894952 
  263000    2205.1264    23570.276      99443.6    583.46657   -8406.5539    8.5030141 
  264000    2236.8788    23475.709    102836.09    591.86809   -8431.8892    8.5372666 
  265000    2174.0259     23659.94    92729.748    575.23752   -8409.9737    8.4707901 
  266000    2283.6384    23564.775    101751.68    604.24047   -8408.1081    8.5049991 
  267000    2196.9766    23578.444     99471.45    581.31015   -8411.1502    8.5000684 
  268000    2274.1688    23596.565    98193.053    601.73486   -8412.0505    8.4935407 
  269000    2189.6982    23625.242    98679.875    579.38433   -8393.2148     8.483231 
  270000    2107.7682    23542.299    103777.35      557.706    -8394.102    8.5131186 
  271000     2232.121    23572.424    103446.76    590.60921    -8392.426    8.5022392 
  272000    2194.8996    23591.388    98129.781    580.76059   -8409.5099    8.4954046 
  273000    2156.3026    23533.894     100215.4    570.54799   -8416.5267    8.5161591 
  274000    2184.4708    23502.872     100843.2    578.00117   -8426.5488    8.5273999 
  275000    2157.3287    23650.277    92965.629    570.81951   -8412.9886    8.4742511 
  276000    2153.1252    23491.467    110028.13    569.70727   -8385.9938    8.5315397 
  277000      2202.92    23646.632    94117.762    582.88277   -8408.6664    8.4755574 
  278000    2238.1717    23580.098    100614.37    592.21021   -8403.3751    8.4994722 
  279000    2156.8711    23591.613    97316.145    570.69842   -8410.5733    8.4953237 
  280000    2258.4082    23489.461    102909.89     597.5647   -8428.0141    8.5322686 
  281000    2206.1023    23611.944    96208.353    583.72478   -8411.6697    8.4880088 
  282000    2115.2555    23484.575    105631.57    559.68711   -8403.3405    8.5340436 
  283000    2157.3123    23637.613    98358.107    570.81516   -8390.4246    8.4787911 
  284000    2176.8909    23501.343    102245.09    575.99557    -8420.997    8.5279547 
  285000     2265.898    23506.306     102736.9    599.54645   -8422.5912    8.5261539 
  286000    2157.7434     23644.95     90579.08    570.92924    -8424.738    8.4761603 
  287000    2267.1896    23516.802     105464.9    599.88819   -8401.5821    8.5223487 
  288000      2186.92    23578.799    100275.29    578.64924   -8402.7972    8.4999405 
  289000    2197.7617    23531.657    103458.73    581.51789   -8406.2125    8.5169688 
  290000    2279.5118    23570.872    105896.17    603.14861   -8382.2517    8.5027989 
  291000    2179.0262    23583.959    98530.302    576.56056   -8410.5204    8.4980806 
  292000    2229.8309    23506.516     99949.56    590.00327   -8432.6847    8.5260779 
  293000    2197.2921    23523.078    102597.36    581.39363   -8411.8772    8.5200748 
  294000    2212.2815    23506.269    101458.02    585.35978   -8426.2841    8.5261675 
  295000    2168.5556    23570.524    98079.405    573.79009   -8413.0724    8.5029247 
  296000    2277.7456    23486.622    109000.96    602.68127   -8398.4993    8.5332998 
  297000    2232.1768    23601.353    92736.573    590.62396   -8435.8623    8.4918175 
  298000     2196.288    23535.512     102389.8    581.12795   -8406.4722    8.5155738 
  299000    2243.5158    23613.476    97957.903    593.62423   -8401.9115     8.487458 
  300000    2197.7491    23617.982    99022.581    581.51457    -8395.021    8.4858389 
Loop time of 104.612 on 8 procs for 50000 steps with 2048 atoms

Performance: 41.295 ns/day, 0.581 hours/ns, 477.956 timesteps/s
118.5% CPU use with 4 MPI tasks x 2 OpenMP threads

MPI task timing breakdown:
Section |  min time  |  avg time  |  max time  |%varavg| %total
---------------------------------------------------------------
Pair    | 60.753     | 61.839     | 62.976     |  10.2 | 59.11
Neigh   | 0.92804    | 0.95241    | 0.96643    |   1.5 |  0.91
Comm    | 4.2255     | 5.4166     | 6.5474     |  35.8 |  5.18
Output  | 0.0011748  | 0.0018688  | 0.0021035  |   0.9 |  0.00
Modify  | 36.194     | 36.213     | 36.256     |   0.4 | 34.62
Other   |            | 0.1889     |            |       |  0.18

Nlocal:        512.000 ave         525 max         503 min
Histogram: 2 0 0 0 0 0 1 0 0 1
Nghost:        3057.25 ave        3078 max        3032 min
Histogram: 1 0 0 0 1 0 0 1 0 1
Neighs:        40550.2 ave       41343 max       39508 min
Histogram: 1 0 0 0 1 0 0 0 1 1

Total # of neighbors = 162201
Ave neighs/atom = 79.199707
Neighbor list builds = 945
Dangerous builds = 0

unfix temp
unfix out_file_1


write_data after_${sim}_press_$P_$T.in
write_data after_heating_press_$P_$T.in
write_data after_heating_press_100000_$T.in
write_data after_heating_press_100000_2200.in
System init for write_data ...
Last active /omp style is pair_style eam/alloy/omp
write_restart after_${sim}_press_$P_$T.lmp
write_restart after_heating_press_$P_$T.lmp
write_restart after_heating_press_100000_$T.lmp
write_restart after_heating_press_100000_2200.lmp
System init for write_restart ...
Last active /omp style is pair_style eam/alloy/omp
next loopVar
jump in.lmp ensemble

print """
Label pachadi solti, hos garam.
"""

Label pachadi solti, hos garam.

variable T equal 2100+${loopVar}*100
variable T equal 2100+2*100
# variable T equal 2350
# velocity all create 1200 123123
reset_timestep 0
fix 1 all npt temp $T $T $(dt*100) iso $P $P $(dt*1000)
fix 1 all npt temp 2300 $T $(dt*100) iso $P $P $(dt*1000)
fix 1 all npt temp 2300 2300 $(dt*100) iso $P $P $(dt*1000)
fix 1 all npt temp 2300 2300 0.10000000000000000555 iso $P $P $(dt*1000)
fix 1 all npt temp 2300 2300 0.10000000000000000555 iso 100000 $P $(dt*1000)
fix 1 all npt temp 2300 2300 0.10000000000000000555 iso 100000 100000 $(dt*1000)
fix 1 all npt temp 2300 2300 0.10000000000000000555 iso 100000 100000 1
print """
<--------------------------------------------------------------------->
<------------------ Equilibrating at temperature $T ----------------->
<--------------------------------------------------------------------->
"""

<--------------------------------------------------------------------->
<------------------ Equilibrating at temperature 2300 ----------------->
<--------------------------------------------------------------------->

fix temp all print 1000 "$(step) $(temp) $(press) ${sys_press} $(vol) $(ke) $(pe) $(density)" file temp_${sim}.txt screen no title  "step temp press pressGiga vol ke pe density"
fix temp all print 1000 "$(step) $(temp) $(press) ${sys_press} $(vol) $(ke) $(pe) $(density)" file temp_heating.txt screen no title  "step temp press pressGiga vol ke pe density"
run 250000
Last active /omp style is pair_style eam/alloy/omp
Per MPI rank memory allocation (min/avg/max) = 4.354 | 4.354 | 4.354 Mbytes
Step Temp Volume Press KinEng PotEng Density 
       0    2197.7491    23617.982    99022.581    581.51457    -8395.021    8.4858389 
    1000    2313.5081    23715.264    96582.207    612.14388   -8379.2729     8.451029 
    2000    2325.8465     23538.51       111882    615.40855   -8369.0223    8.5144891 
    3000    2225.1144    23629.838    98489.111     588.7553   -8396.8372    8.4815812 
    4000    2301.0845    23771.223    93228.113    608.85665   -8376.5535    8.4311347 
    5000    2355.1807    23552.904     109300.5    623.17027    -8376.004    8.5092854 
    6000    2264.8014    23676.339    97124.584     599.2563   -8386.1419     8.464923 
    7000    2301.0039    23593.993    104245.49    608.83531    -8381.787    8.4944665 
    8000    2338.0209    23631.273    99978.155    618.62984   -8395.1809     8.481066 
    9000    2236.6605    23624.761    102955.52    591.81035   -8373.7205    8.4834038 
   10000    2198.1983    23659.951    100397.65     581.6334   -8376.0703    8.4707861 
   11000    2328.2037     23622.31    99448.498    616.03225   -8401.7948    8.4842839 
   12000    2331.5496     23760.26    95601.192    616.91757   -8369.8665    8.4350251 
   13000    2316.9394    23499.682    112070.06    613.05178   -8380.6143    8.5285572 
   14000    2314.9325    23821.639    89311.662    612.52076    -8375.659    8.4132913 
   15000    2221.8533    23645.706    102880.16    587.89243   -8366.1375    8.4758894 
   16000    2302.2802    23602.068    105748.58    609.17301   -8371.0736    8.4915603 
   17000    2315.1635     23671.88    93966.744    612.58188   -8405.4427    8.4665176 
   18000    2331.5188    23576.354    104810.47    616.90943   -8391.0283     8.500822 
   19000    2402.9786    23618.909    101868.39    635.81735    -8395.229    8.4855055 
   20000    2292.1557    23650.934    97195.819    606.49411   -8398.6707    8.4740156 
   21000      2353.19     23692.19    99248.735    622.64353   -8375.7292    8.4592598 
   22000    2268.6232    23608.838    104191.62    600.26754   -8378.4854    8.4891252 
   23000    2304.4258    23656.897    100543.82    609.74073   -8382.8468    8.4718798 
   24000    2281.6833    23631.329    100208.73    603.72316   -8392.0961    8.4810458 
   25000    2290.8488    23617.922    102243.39    606.14833   -8383.2287    8.4858603 
   26000     2329.384    23699.542     97198.97    616.34457   -8383.4487    8.4566352 
   27000    2280.6666    23587.241    103929.78    603.45415   -8384.2177    8.4968981 
   28000    2329.7287    23671.617    104018.02    616.43577   -8358.1445    8.4666114 
   29000    2358.2975    23730.279    90625.855    623.99495   -8408.7397    8.4456818 
   30000    2317.5407    23599.293    104543.87    613.21087   -8382.5316     8.492559 
   31000    2266.3882    23587.016    106009.04    599.67615   -8374.6469    8.4969794 
   32000    2220.1528    23696.929    93237.756    587.44248   -8393.2589    8.4575678 
   33000    2277.4838    23548.722    109708.23    602.61201   -8366.9018    8.5107969 
   34000    2350.8892    23740.723    97643.153    622.03475   -8366.0825    8.4419663 
   35000    2252.8097    23615.164    101450.28    596.08335   -8387.9381    8.4868512 
   36000    2297.1291    23713.847    98593.645    607.81007   -8370.3322     8.451534 
   37000    2270.4365     23605.55    99344.884    600.74732   -8397.6706    8.4903078 
   38000    2229.8738    23567.864    100868.11    590.01462   -8403.7023    8.5038841 
   39000    2375.4511    23618.022    101859.38    628.53371   -8390.9289    8.4858243 
   40000    2270.1055    23804.187     84610.03    600.65975   -8407.6638    8.4194594 
   41000    2270.2412    23581.055    109244.41    600.69565   -8360.3295    8.4991274 
   42000    2290.6046    23694.041    96743.807     606.0837   -8382.9844    8.4585988 
   43000    2258.3962     23502.61    107737.47     597.5615   -8396.9397    8.5274949 
   44000     2346.985     23688.34    96364.537    621.00171   -8391.1694    8.4606346 
   45000    2357.0002    23798.465    96576.028    623.65168   -8351.5186    8.4214839 
   46000    2296.0517    23665.988    99666.531    607.52498   -8375.2236    8.4686255 
   47000    2301.9168     23614.48    104782.84    609.07686   -8370.5983    8.4870973 
   48000    2248.5964    23743.299    92408.863    594.96853   -8385.6575    8.4410504 
   49000    2373.5095    23570.323    103841.72    628.01998   -8398.9477    8.5029972 
   50000    2271.8947    23629.345    101454.57    601.13317   -8382.8867    8.4817579 
   51000    2311.2871    23658.359    102868.94    611.55619   -8367.9133    8.4713561 
   52000    2268.7558    23724.887    94290.154    600.30262   -8383.4426    8.4476011 
   53000    2374.4296    23593.828    110166.83    628.26341    -8357.247    8.4945261 
   54000    2304.0333    23702.056     95987.83    609.63688   -8385.2966    8.4557385 
   55000    2257.5371     23661.14     94636.68    597.33418   -8400.9664    8.4703605 
   56000    2378.8048    23581.133    105949.86    629.42108   -8383.4959    8.4990991 
   57000    2300.6699    23701.329    95276.296    608.74695   -8388.3905    8.4559979 
   58000    2327.6493    23670.576    104335.48    615.88557   -8355.3745    8.4669838 
   59000    2245.1247     23605.95    104077.38    594.04994   -8379.3397     8.490164 
   60000    2344.2565    23686.768    100624.81    620.27976    -8374.858    8.4611959 
   61000    2334.8405    23569.816    104256.53    617.78832   -8396.0482      8.50318 
   62000    2281.6747    23684.674    97764.409    603.72089   -8382.7381    8.4619441 
   63000     2250.789    23584.314    103359.97    595.54867    -8387.004    8.4979526 
   64000    2311.7888    23614.789    105107.06    611.68896    -8372.089    8.4869859 
   65000    2248.7785    23671.968    100496.77     595.0167   -8370.9977     8.466486 
   66000    2284.7388    23818.258    90726.761    604.53164   -8367.1513    8.4144856 
   67000    2259.1433    23596.484     107221.1    597.75918   -8365.5452    8.4935699 
   68000    2335.6359     23779.79     93409.46     617.9988   -8375.5301    8.4280974 
   69000    2201.1122    23597.655    103890.18    582.40442   -8377.7634    8.4931486 
   70000    2225.8415    23611.791    105451.24    588.94769   -8369.1555    8.4880638 
   71000    2272.7077    23721.541    97860.528    601.34828   -8369.6551     8.448793 
   72000    2314.0445    23600.407    99873.583    612.28579   -8405.0831    8.4921579 
   73000     2386.129    23707.224     99294.85    631.35905   -8373.8427     8.453895 
   74000    2320.9073    23760.258    96008.407    614.10167   -8371.8769    8.4350257 
   75000    2312.1121    23615.934    103936.49    611.77451    -8377.349    8.4865747 
   76000    2313.2976      23708.6     96158.71    612.08818   -8384.0758    8.4534043 
   77000    2336.0608    23695.112    95492.561    618.11122   -8392.5644    8.4582166 
   78000    2328.2893    23655.149    105445.97     616.0549   -8356.8389    8.4725056 
   79000    2286.2228    23709.885    94166.245     604.9243   -8387.9865    8.4529463 
   80000    2277.0146    23502.268    109597.19    602.48786    -8384.701    8.5276189 
   81000    2350.2591    23726.273    97009.019    621.86803   -8373.7795    8.4471078 
   82000    2367.6243    23687.015    97122.752    626.46276   -8392.9839    8.4611076 
   83000    2326.0261    23682.918    97232.053    615.45607   -8386.8944    8.4625716 
   84000    2305.6149    23615.406    105764.12    610.05536   -8370.1643    8.4867646 
   85000    2288.1209    23611.912    98372.593    605.42652   -8406.4782    8.4880201 
   86000    2309.8803    23727.143    94850.425    611.18397   -8386.2236    8.4467981 
   87000    2352.2554    23621.774    103441.34    622.39624    -8382.959    8.4844766 
   88000    2412.5736    23633.493    101386.77    638.35616   -8389.3376    8.4802694 
   89000    2267.0272    23739.233    91794.696    599.84523   -8393.4305    8.4424962 
   90000    2303.4413    23561.153    106203.62    609.48025   -8387.2705    8.5063062 
   91000    2213.9981    23670.817    99032.526    585.81397   -8375.9422    8.4668978 
   92000    2300.4327    23690.764    99078.635    608.68417   -8376.2377    8.4597689 
   93000    2304.7305    23617.441    101595.02    609.82135   -8387.4467    8.4860331 
   94000    2319.7277    23629.639    99442.288    613.78956   -8395.8847    8.4816525 
   95000    2333.8234    23673.399    99214.352    617.51921   -8384.4882    8.4659742 
   96000    2307.1325    23592.516    103193.72    610.45692    -8390.974    8.4949984 
   97000    2334.9498    23727.898    99382.393    617.81725   -8361.3333    8.4465292 
   98000    2352.4841    23662.757    96641.782    622.45674    -8396.461    8.4697817 
   99000    2291.8579    23730.726    94043.019    606.41532   -8382.0961    8.4455226 
  100000    2302.4475     23591.65       107844    609.21728   -8367.3618    8.4953104 
  101000    2287.1443    23718.876    94264.315    605.16814   -8386.9249    8.4497422 
  102000    2278.2824    23609.287    107296.06    602.82332   -8357.3635     8.488964 
  103000     2244.067     23633.28    100609.45    593.77007   -8382.9434    8.4803458 
  104000    2323.4166    23679.011    100404.26    614.76562   -8375.9652    8.4639678 
  105000    2330.4413    23659.798    102004.58    616.62433     -8375.76    8.4708411 
  106000    2272.5701    23627.197    100004.72    601.31185   -8391.2733    8.4825291 
  107000    2322.2014    23673.883    98088.195    614.44408   -8384.8268     8.465801 
  108000     2294.001    23551.171    110094.89    606.98237   -8369.6572    8.5099117 
  109000     2269.147    23778.816    96130.135    600.40612   -8355.6048    8.4284427 
  110000    2370.7878    23677.598    104160.98    627.29982   -8354.8528    8.4644728 
  111000    2431.0479    23779.049    96672.004    643.24437   -8362.9703      8.42836 
  112000    2278.5022    23665.116    98631.654    602.88147   -8387.5819    8.4689374 
  113000    2325.0137    23716.727    99360.729     615.1882    -8369.257    8.4505079 
  114000    2260.3455    23642.639    102039.36    598.07729   -8374.0818    8.4769889 
  115000    2235.1714    23618.126    104163.28    591.41633   -8368.7316    8.4857871 
  116000    2303.8903    23731.638    94459.566    609.59906   -8382.5517    8.4451984 
  117000    2298.2944    23660.786    100725.67    608.11839   -8378.8636    8.4704873 
  118000    2364.7835    23685.342    97342.179    625.71111   -8386.6115    8.4617054 
  119000    2345.9155    23697.633    98507.113    620.71873   -8380.3475    8.4573167 
  120000    2332.2925    23620.994    103839.37    617.11415   -8376.8242    8.4847566 
  121000    2310.6328    23766.121    91804.635    611.38308   -8382.7401    8.4329449 
  122000    2314.2417    23576.725    102507.35    612.33798   -8398.9966     8.500688 
  123000    2303.3203    23733.716    95709.008    609.44823   -8374.5202    8.4444586 
  124000    2332.3502    23632.641    104671.49     617.1294   -8369.4895     8.480575 
  125000    2306.9424    23769.208    91877.709     610.4066   -8383.0918    8.4318495 
  126000     2312.063    23585.916    106504.91    611.76151     -8374.56    8.4973756 
  127000    2310.9609    23615.515    102464.38    611.46988   -8388.3051    8.4867254 
  128000    2312.7902    23637.142     102303.6    611.95392   -8380.5383    8.4789601 
  129000    2307.8902    23633.554    96647.417     610.6574   -8407.4029    8.4802473 
  130000    2313.2058    23652.688    97479.786    612.06388   -8396.6611    8.4733872 
  131000    2307.7966    23557.578    104264.74    610.63262   -8399.9051    8.5075974 
  132000    2307.0397    23766.078    93956.361    610.43236   -8374.3946    8.4329599 
  133000    2320.7755    23582.793    106870.25     614.0668   -8374.0686     8.498501 
  134000    2319.9469    23662.578    99497.079    613.84756    -8381.426    8.4698459 
  135000    2253.2619    23669.994    98326.042    596.20301   -8384.3418     8.467192 
  136000    2293.0676    23685.312    98910.261    606.73542    -8377.296    8.4617161 
  137000    2283.3718    23635.702    105239.13    604.16995   -8360.7231    8.4794769 
  138000    2355.0067    23729.168    92961.073    623.12421   -8393.1357    8.4460772 
  139000    2292.9039    23681.921       100441    606.69209   -8370.8406    8.4629278 
  140000    2337.9822    23671.255    100613.29     618.6196    -8377.979    8.4667412 
  141000    2286.2574    23754.659    90195.922    604.93347   -8395.8115    8.4370139 
  142000    2334.0472     23646.85    102410.73    617.57844   -8373.5733    8.4754793 
  143000    2319.7112    23674.203    100692.12    613.78518   -8376.0565    8.4656867 
  144000    2266.4925     23668.71    98131.233    599.70377   -8386.6819    8.4676515 
  145000    2341.0645    23651.941    98896.768    619.43518   -8391.8987     8.473655 
  146000    2328.2473    23658.688    96794.731    616.04379   -8397.1935    8.4712385 
  147000    2380.4806    23721.791    96980.131    629.86448   -8378.2538    8.4487038 
  148000    2322.4148    23718.081    95710.847    614.50054   -8382.8847    8.4500253 
  149000    2288.3002    23488.075    112688.41    605.47396   -8380.0178    8.5327721 
  150000    2258.1213    23654.589    96355.186    597.48878   -8395.8789    8.4727062 
  151000    2294.9584    23602.404     102910.9    607.23569   -8388.0634    8.4914394 
  152000    2261.3501    23585.493    105066.52    598.34309   -8382.0606     8.497528 
  153000    2237.8271    23707.681    95563.984    592.11902   -8380.8899    8.4537324 
  154000    2377.9445    23698.146     101913.6    629.19346   -8358.8591    8.4571335 
  155000    2273.9254    23669.078    99160.777    601.67046   -8378.7986    8.4675198 
  156000     2243.126     23690.78    98502.871    593.52109   -8373.2342    8.4597629 
  157000    2256.0491    23682.527    102888.14    596.94049    -8356.209    8.4627113 
  158000    2322.8368    23764.922    93454.739     614.6122   -8373.7308    8.4333702 
  159000    2301.4388     23568.59    107599.22    608.95039   -8377.3131    8.5036222 
  160000    2295.9061    23624.476    103241.22    607.48645   -8377.1113    8.4835062 
  161000    2266.7096    23684.445    96397.527    599.76119    -8388.027     8.462026 
  162000    2309.0566    23630.824    99031.459    610.96601   -8396.6303     8.481227 
  163000    2410.2297    23646.798    101650.77    637.73596    -8382.365    8.4754978 
  164000    2277.0893    23828.611    91162.814    602.50763   -8365.2564    8.4108296 
  165000    2297.6212    23654.048    102399.39    607.94027   -8370.7119    8.4729001 
  166000    2280.4322    23550.239    104415.39    603.39214   -8396.6455    8.5102485 
  167000    2287.0766     23621.47    97803.925     605.1502   -8405.5292    8.4845857 
  168000    2291.1681    23627.793    100170.33     606.2328   -8390.7232    8.4823153 
  169000    2319.2123    23670.335    98954.078    613.65318   -8384.3078    8.4670701 
  170000    2341.1829    23714.163    98231.945    619.46651   -8375.2713    8.4514215 
  171000    2288.3265    23608.954    102711.38    605.48092   -8384.6223    8.4890837 
  172000    2269.0719    23660.734    102559.29    600.38625   -8367.6487    8.4705058 
  173000    2343.5567    23670.056    102621.33     620.0946   -8362.7576    8.4671698 
  174000    2280.5237     23704.14    96265.139    603.41636   -8385.1565    8.4549952 
  175000    2261.2888    23594.866    105436.58    598.32687   -8375.2079    8.4941522 
  176000    2343.5752     23746.38    97958.487     620.0995   -8365.2158    8.4399552 
  177000     2308.966    23645.872     101952.2    610.94204   -8377.4356    8.4758297 
  178000    2373.1927    23649.553    103199.18    627.93616   -8371.8693    8.4745106 
  179000    2282.0018    23715.367    93384.697    603.80744   -8396.1056    8.4509923 
  180000    2346.7556    23623.976    103952.01    620.94101   -8377.4979    8.4836856 
  181000    2289.4714    23718.805    92955.957    605.78386   -8394.7438    8.4497675 
  182000     2246.454    23667.816    99045.337    594.40167   -8380.4225    8.4679713 
  183000    2344.8066    23652.301    102159.46    620.42531   -8372.7745     8.473526 
  184000    2210.5809    23612.537    103810.54     584.9098    -8372.389    8.4877956 
  185000    2304.0165    23568.415    104030.39    609.63243   -8392.6358    8.5036854 
  186000    2375.2517     23759.95    94461.565    628.48095   -8375.1866    8.4351349 
  187000    2284.0006    23712.406    94835.948    604.33631   -8386.7113    8.4520475 
  188000    2359.8998    23632.793     102709.9    624.41891   -8380.2139    8.4805206 
  189000     2296.683    23645.227    100163.79    607.69202   -8385.6777    8.4760611 
  190000     2249.696      23782.1    95466.147    595.25948   -8357.1434    8.4272788 
  191000    2285.5649    23594.624    105088.89    604.75024    -8376.025    8.4942393 
  192000     2288.789    23692.323    99531.404     605.6033   -8370.0543    8.4592121 
  193000    2282.7648    23621.027    103454.13    604.00933   -8378.7473    8.4847448 
  194000    2278.3957    23644.763    103066.74     602.8533   -8368.6323    8.4762275 
  195000    2249.4194    23760.257    91255.839    595.18629    -8380.723    8.4350262 
  196000    2248.7664     23507.88    116827.28    595.01351   -8347.0694    8.5255831 
  197000    2296.7361     23640.59    100483.06    607.70607   -8384.7547    8.4777235 
  198000    2308.0499    23726.811     95393.12    610.69966   -8379.9372    8.4469164 
  199000    2354.7785    23541.424    107954.84    623.06383   -8388.5851    8.5134352 
  200000    2355.7254     23791.12    93632.683    623.31439   -8368.8455    8.4240836 
  201000     2335.647    23598.782    100127.49    618.00174   -8400.1956    8.4927428 
  202000     2367.251    23658.398    98008.189      626.364   -8394.4773    8.4713423 
  203000    2354.3748    23613.366    102706.02    622.95703   -8388.1643    8.4874976 
  204000    2245.8179     23545.78     106944.3    594.23335   -8385.0808    8.5118601 
  205000    2255.9407    23748.308    92416.338    596.91179   -8382.6526    8.4392701 
  206000     2386.161    23620.891    101555.32    631.36751   -8393.3355    8.4847938 
  207000    2238.3287     23670.75    101572.27    592.25175   -8364.3989    8.4669217 
  208000    2305.2469    23758.501     98133.84    609.95799   -8351.5209    8.4356496 
  209000    2318.1739    23588.094    101254.34    613.37841   -8400.0666     8.496591 
  210000    2323.8208    23706.332    99431.318    614.87257   -8368.6558    8.4542132 
  211000    2262.6046    23642.377    101037.46    598.67502   -8382.8533    8.4770829 
  212000    2273.7246    23605.721    105094.21    601.61733    -8370.033    8.4902463 
  213000    2278.4881    23765.259    87923.878    602.87775   -8403.2108    8.4332506 
  214000     2353.376    23563.825    108210.06    622.69273   -8376.4522    8.5053419 
  215000    2298.7693    23705.197    97639.271    608.24406   -8378.4545    8.4546182 
  216000    2311.3249     23653.37    97643.783     611.5662   -8396.2948     8.473143 
  217000    2292.1237    23655.247    103934.51    606.48565   -8362.9598    8.4724706 
  218000      2282.64    23667.875    99354.866     603.9763   -8382.8326    8.4679503 
  219000    2239.8801    23723.241    95576.319    592.66224   -8377.8203    8.4481874 
  220000    2294.1447    23632.787     104146.3     607.0204   -8369.9903    8.4805227 
  221000    2306.3649    23753.347    89380.257    610.25381   -8401.6522    8.4374799 
  222000    2369.9669    23606.377    103358.83    627.08263   -8389.0199    8.4900102 
  223000    2352.3331    23650.374    101520.58     622.4168   -8378.1854    8.4742164 
  224000    2259.2705    23596.888    102038.77    597.79284   -8392.2892    8.4934243 
  225000    2303.8887    23662.297    99360.351    609.59861   -8383.0334    8.4699465 
  226000    2303.0991    23575.846    109252.15     609.3897   -8368.4829     8.501005 
  227000    2290.1604    23716.542      92505.9    605.96617   -8397.6433    8.4505738 
  228000    2332.1352    23603.568    105498.12    617.07253   -8376.5807    8.4910208 
  229000    2266.2073    23648.879    97298.894    599.62829   -8398.1002    8.4747522 
  230000      2363.53    23694.992     97126.96    625.37944   -8384.4799    8.4582595 
  231000    2310.3271    23664.559    105928.53     611.3022     -8349.01    8.4691368 
  232000    2279.1848    23615.585    101080.14    603.06207   -8389.6647       8.4867 
  233000    2301.0269    23627.834    109050.16    608.84141    -8350.427    8.4823005 
  234000    2277.6372    23775.165    89668.084     602.6526   -8389.2887    8.4297369 
  235000    2288.6953    23599.707    104597.31    605.57851   -8380.0016      8.49241 
  236000    2300.1857    23775.914    96914.425    608.61883   -8357.0011    8.4294712 
  237000    2290.0566    23651.744    99221.924    605.93871   -8387.6182    8.4737257 
  238000    2273.1526    23581.169     104701.7    601.46598     -8386.25    8.4990861 
  239000    2281.6107     23652.25    98301.664    603.70397    -8392.404    8.4735444 
  240000    2260.6394    23640.007    98310.421    598.15504   -8394.3242    8.4779327 
  241000    2305.8694    23471.365    114406.08    610.12271   -8377.3821    8.5388467 
  242000    2296.5466    23716.801    95330.018    607.65594   -8383.0521    8.4504814 
  243000    2276.2556    23591.215    106370.21    602.28703   -8370.2894     8.495467 
  244000    2184.8891    23619.263     101152.7    578.11186   -8385.4574    8.4853784 
  245000      2283.58    23753.277    97749.134    604.22502   -8356.2312    8.4375045 
  246000    2351.4983    23658.409    96794.529    622.19591   -8398.7868    8.4713383 
  247000    2320.3467    23639.201    106136.65    613.95334   -8358.1144    8.4782216 
  248000     2321.059    23569.187    103358.92    614.14181   -8397.7997    8.5034069 
  249000    2259.8481    23663.062    97625.795    597.94569   -8391.8059    8.4696724 
  250000    2299.2474    23600.529    104595.34    608.37056   -8378.0419    8.4921142 
Loop time of 513.903 on 8 procs for 250000 steps with 2048 atoms

Performance: 42.031 ns/day, 0.571 hours/ns, 486.474 timesteps/s
117.8% CPU use with 4 MPI tasks x 2 OpenMP threads

MPI task timing breakdown:
Section |  min time  |  avg time  |  max time  |%varavg| %total
---------------------------------------------------------------
Pair    | 298.46     | 302.96     | 308.91     |  22.6 | 58.95
Neigh   | 4.6517     | 4.8043     | 4.8816     |   4.1 |  0.93
Comm    | 21.842     | 28.162     | 32.975     |  78.4 |  5.48
Output  | 0.0057597  | 0.011282   | 0.013135   |   3.0 |  0.00
Modify  | 176.85     | 177.03     | 177.35     |   1.4 | 34.45
Other   |            | 0.9382     |            |       |  0.18

Nlocal:        512.000 ave         523 max         504 min
Histogram: 1 1 0 0 0 1 0 0 0 1
Nghost:        3054.50 ave        3062 max        3044 min
Histogram: 1 0 0 0 0 1 0 0 1 1
Neighs:        40637.5 ave       42550 max       39477 min
Histogram: 2 0 0 0 1 0 0 0 0 1

Total # of neighbors = 162550
Ave neighs/atom = 79.370117
Neighbor list builds = 4852
Dangerous builds = 0


# fix 132 all momentum 100 linear 1 1 1 angular
fix out_file_1 all print 1000 "$(step) $(temp) $(press) ${sys_press} $(vol) $(ke) $(pe) $(density)" file one_phase_${sim}_press_$P_$T_.txt screen no title  "step temp press pressGiga vol ke pe density"
fix out_file_1 all print 1000 "$(step) $(temp) $(press) ${sys_press} $(vol) $(ke) $(pe) $(density)" file one_phase_heating_press_$P_$T_.txt screen no title  "step temp press pressGiga vol ke pe density"
fix out_file_1 all print 1000 "$(step) $(temp) $(press) ${sys_press} $(vol) $(ke) $(pe) $(density)" file one_phase_heating_press_100000_$T_.txt screen no title  "step temp press pressGiga vol ke pe density"
fix out_file_1 all print 1000 "$(step) $(temp) $(press) ${sys_press} $(vol) $(ke) $(pe) $(density)" file one_phase_heating_press_100000_2300_.txt screen no title  "step temp press pressGiga vol ke pe density"

# dump 3 all custom 1000 traj_npt_new.lammpstrj id type x y z
run 50000
Last active /omp style is pair_style eam/alloy/omp
Per MPI rank memory allocation (min/avg/max) = 4.354 | 4.354 | 4.354 Mbytes
Step Temp Volume Press KinEng PotEng Density 
  250000    2299.2474    23600.529    104595.34    608.37056   -8378.0419    8.4921142 
  251000    2285.1357    23653.889    97615.673    604.63665   -8395.6509    8.4729572 
  252000     2244.592    23708.566    94187.376    593.90899   -8390.8354    8.4534165 
  253000    2322.8639    23542.035    109453.01    614.61938   -8376.6684    8.5132142 
  254000    2317.4255    23641.377    104104.79    613.18039    -8371.671    8.4774415 
  255000    2299.8362    23744.215    93545.043    608.52635   -8380.3687    8.4407249 
  256000    2261.7638    23631.777    100081.36    598.45257   -8388.9834    8.4808852 
  257000    2318.3437    23594.824    105747.39    613.42334   -8375.3183    8.4941674 
  258000    2254.7419    23768.324     88315.27     596.5946   -8400.0861    8.4321632 
  259000    2288.2241    23579.822    109994.82    605.45383    -8356.497    8.4995715 
  260000     2325.821    23718.544    94262.858     615.4018   -8389.8361    8.4498605 
  261000    2287.9154    23675.933    101499.46    605.37215   -8363.6978     8.465068 
  262000    2309.9349     23616.73    104782.03    611.19842   -8375.4323    8.4862886 
  263000    2183.3754    23714.124    94133.022    577.71133   -8385.3709    8.4514355 
  264000    2309.4258     23525.39    109029.69     611.0637   -8383.7198    8.5192375 
  265000    2313.2681    23683.616    99944.999    612.08037    -8370.978    8.4623222 
  266000    2309.9123    23704.626    97710.047    611.19244   -8374.9232    8.4548218 
  267000    2246.5928    23703.343    99804.167    594.43839   -8363.8036    8.4552793 
  268000    2268.7549    23557.112    103167.42    600.30239   -8399.6188    8.5077654 
  269000    2213.3926    23717.844    95813.177    585.65375   -8377.8545    8.4501098 
  270000    2352.8234    23563.264    106076.01    622.54652   -8386.4688    8.5055444 
  271000    2377.1438    23686.303    97282.625    628.98158   -8389.4128    8.4613622 
  272000    2239.9351    23633.944    100758.96     592.6768   -8385.3919    8.4801074 
  273000    2272.1198    23666.261    103008.64    601.19272   -8362.8979    8.4685279 
  274000    2262.6235    23735.508    93691.568    598.68004   -8385.1409    8.4438213 
  275000     2366.655    23536.947    106257.25    626.20629   -8396.4175    8.5150545 
  276000    2303.9123    23655.322    99996.951    609.60487   -8382.1147    8.4724438 
  277000    2331.4869     23697.03    96628.549    616.90098   -8386.5107    8.4575317 
  278000    2218.1934    23613.868    102553.34    586.92404   -8379.2511     8.487317 
  279000    2228.9636    23607.102    104151.23    589.77377   -8376.2212    8.4897498 
  280000    2266.7227    23668.353    99915.855    599.76466    -8372.917    8.4677791 
  281000    2366.9113    23704.732    102062.89    626.27413   -8360.2791    8.4547839 
  282000    2301.2464    23612.076    101084.89    608.89949   -8395.1476    8.4879613 
  283000    2349.0521    23741.705     95375.62    621.54865   -8376.7563    8.4416171 
  284000    2311.0346    23528.115    112493.59     611.4894   -8365.3745    8.5182508 
  285000    2285.5949    23724.402    93303.964    604.75815   -8388.3301    8.4477741 
  286000     2303.522    23598.802    103002.33    609.50161   -8389.7315    8.4927356 
  287000    2277.8722    23763.422    95227.061    602.71477   -8364.2509    8.4339028 
  288000    2263.0332    23634.401    98835.806    598.78844   -8389.8853    8.4799437 
  289000    2234.9252    23644.407    96069.214    591.35119   -8402.0352    8.4763551 
  290000     2369.419    23657.642    99532.611    626.93764   -8386.9851    8.4716128 
  291000    2270.7768    23576.847    103315.86    600.83736   -8392.2177     8.500644 
  292000    2319.3676    23718.229    94772.147    613.69427    -8388.385    8.4499725 
  293000    2237.1766    23587.868    101994.51    591.94691   -8390.2853    8.4966722 
  294000    2305.0387     23715.42    98026.867    609.90289   -8370.8661    8.4509734 
  295000    2291.2268    23718.696    92066.555    606.24835    -8398.753    8.4498063 
  296000    2332.1934    23627.934    107506.34    617.08791   -8355.7385    8.4822645 
  297000    2312.4657    23642.331    102592.47    611.86805    -8372.207    8.4770992 
  298000    2283.7384    23645.814    96448.448    604.26695   -8402.3776    8.4758507 
  299000    2281.5304    23699.812    99340.382    603.68272   -8370.1613    8.4565392 
  300000     2325.847    23589.795     103633.6    615.40868   -8387.9825    8.4959783 
Loop time of 105.416 on 8 procs for 50000 steps with 2048 atoms

Performance: 40.980 ns/day, 0.586 hours/ns, 474.311 timesteps/s
118.0% CPU use with 4 MPI tasks x 2 OpenMP threads

MPI task timing breakdown:
Section |  min time  |  avg time  |  max time  |%varavg| %total
---------------------------------------------------------------
Pair    | 61.478     | 62.391     | 63.543     |   9.7 | 59.19
Neigh   | 0.95925    | 0.98088    | 0.99145    |   1.3 |  0.93
Comm    | 4.7703     | 6.0002     | 6.9757     |  33.2 |  5.69
Output  | 0.0011144  | 0.0014438  | 0.0015549  |   0.5 |  0.00
Modify  | 35.802     | 35.847     | 35.919     |   0.7 | 34.00
Other   |            | 0.1959     |            |       |  0.19

Nlocal:        512.000 ave         523 max         506 min
Histogram: 2 0 0 1 0 0 0 0 0 1
Nghost:        3065.00 ave        3078 max        3047 min
Histogram: 1 0 0 0 1 0 0 0 0 2
Neighs:        40690.8 ave       42258 max       38708 min
Histogram: 1 0 0 0 0 0 2 0 0 1

Total # of neighbors = 162763
Ave neighs/atom = 79.474121
Neighbor list builds = 973
Dangerous builds = 0

unfix temp
unfix out_file_1


write_data after_${sim}_press_$P_$T.in
write_data after_heating_press_$P_$T.in
write_data after_heating_press_100000_$T.in
write_data after_heating_press_100000_2300.in
System init for write_data ...
Last active /omp style is pair_style eam/alloy/omp
write_restart after_${sim}_press_$P_$T.lmp
write_restart after_heating_press_$P_$T.lmp
write_restart after_heating_press_100000_$T.lmp
write_restart after_heating_press_100000_2300.lmp
System init for write_restart ...
Last active /omp style is pair_style eam/alloy/omp
next loopVar
jump in.lmp ensemble

print """
Label pachadi solti, hos garam.
"""

Label pachadi solti, hos garam.

variable T equal 2100+${loopVar}*100
variable T equal 2100+3*100
# variable T equal 2350
# velocity all create 1200 123123
reset_timestep 0
fix 1 all npt temp $T $T $(dt*100) iso $P $P $(dt*1000)
fix 1 all npt temp 2400 $T $(dt*100) iso $P $P $(dt*1000)
fix 1 all npt temp 2400 2400 $(dt*100) iso $P $P $(dt*1000)
fix 1 all npt temp 2400 2400 0.10000000000000000555 iso $P $P $(dt*1000)
fix 1 all npt temp 2400 2400 0.10000000000000000555 iso 100000 $P $(dt*1000)
fix 1 all npt temp 2400 2400 0.10000000000000000555 iso 100000 100000 $(dt*1000)
fix 1 all npt temp 2400 2400 0.10000000000000000555 iso 100000 100000 1
print """
<--------------------------------------------------------------------->
<------------------ Equilibrating at temperature $T ----------------->
<--------------------------------------------------------------------->
"""

<--------------------------------------------------------------------->
<------------------ Equilibrating at temperature 2400 ----------------->
<--------------------------------------------------------------------->

fix temp all print 1000 "$(step) $(temp) $(press) ${sys_press} $(vol) $(ke) $(pe) $(density)" file temp_${sim}.txt screen no title  "step temp press pressGiga vol ke pe density"
fix temp all print 1000 "$(step) $(temp) $(press) ${sys_press} $(vol) $(ke) $(pe) $(density)" file temp_heating.txt screen no title  "step temp press pressGiga vol ke pe density"
run 250000
Last active /omp style is pair_style eam/alloy/omp
Per MPI rank memory allocation (min/avg/max) = 4.354 | 4.354 | 4.354 Mbytes
Step Temp Volume Press KinEng PotEng Density 
       0     2325.847    23589.795     103633.6    615.40868   -8387.9825    8.4959783 
    1000    2442.6768    23844.217    99776.029    646.32133   -8323.6878    8.4053248 
    2000    2360.8985    23799.386    97898.245    624.68317   -8347.0461    8.4211578 
    3000     2442.933    23785.968    101700.58    646.38912   -8335.3206    8.4259084 
    4000    2406.4788    23788.119    96121.999    636.74349   -8358.4963    8.4251466 
    5000    2373.7227    23790.836    102260.28    628.07639   -8328.1687    8.4241842 
    6000     2360.944    23776.241    102556.05    624.69519   -8330.8518    8.4293556 
    7000    2400.7777    23714.246    103169.91    635.23501   -8347.7285    8.4513919 
    8000    2362.0027    23739.064    99708.821    624.97534   -8356.5093    8.4425562 
    9000    2400.1526    23884.456    95270.533    635.06962   -8328.1452    8.3911638 
   10000    2395.6103    23746.769    102116.95    633.86774   -8342.6807    8.4398171 
   11000    2420.2131    23836.518    99051.076    640.37753   -8330.3187    8.4080396 
   12000    2404.9781    23635.816    105328.65    636.34641   -8368.9049    8.4794359 
   13000    2385.4307    23769.061    98256.126    631.17427   -8356.9838    8.4319016 
   14000    2398.4488     23727.33    101447.65    634.61881   -8352.7043    8.4467317 
   15000    2435.9882    23818.511    93375.261    644.55156   -8364.9584     8.414396 
   16000    2403.9085    23694.021    107007.59    636.06342   -8338.5684    8.4586058 
   17000    2407.1739    23854.117    97172.402    636.92742   -8332.9564    8.4018362 
   18000    2347.8238    23702.759    102013.59    621.22365   -8354.5161    8.4554876 
   19000    2416.8875    23774.502    102825.26    639.49761   -8329.8841     8.429972 
   20000    2373.9597    23864.469     90499.17    628.13911   -8355.6703    8.3981918 
   21000    2401.3216    23757.041    102514.29    635.37893    -8336.542     8.436168 
   22000    2344.7147    23755.388    100071.88      620.401   -8343.1783    8.4367551 
   23000    2485.9407    23865.384    93656.351    657.76877   -8345.9356    8.3978697 
   24000    2399.1915    23718.614    104627.51    634.81531   -8338.5411    8.4498354 
   25000    2381.6724    23779.231    100904.07    630.17983   -8337.6777    8.4282954 
   26000    2353.6901    23847.086     92854.94    622.77585   -8352.6764    8.4043136 
   27000    2401.2998    23795.533    104202.24    635.37316    -8319.578    8.4225215 
   28000     2436.631    23770.829    103014.18    644.72165   -8332.0225    8.4312744 
   29000    2400.9179    23669.226     104524.8    635.27212     -8362.15    8.4674668 
   30000    2432.8166    23818.281    96814.639    643.71237   -8346.3046    8.4144773 
   31000     2342.474    23791.606     95018.26    619.80811   -8362.2206    8.4239118 
   32000    2418.2284    23637.876     105871.5     639.8524   -8364.8162    8.4786969 
   33000    2321.0463    23794.819     98161.23    614.13844   -8340.9624     8.422774 
   34000    2367.9098    23885.835    94603.075    626.53832   -8332.8606    8.3906797 
   35000    2452.1175    23685.678    105760.64     648.8193    -8350.289    8.4615852 
   36000    2330.0713    23766.712    98050.523    616.52641   -8352.1306     8.432735 
   37000    2321.8257    23860.449    96204.742    614.34468   -8327.2908    8.3996067 
   38000    2330.9012    23605.191    112837.35      616.746   -8336.5297     8.490437 
   39000    2363.6814    23672.951    103182.97    625.41951   -8360.5652    8.4661345 
   40000    2420.0326    23824.208    94709.378    640.32978   -8355.5154     8.412384 
   41000    2439.0457    23806.718    98363.275    645.36056   -8344.4441    8.4185643 
   42000    2397.6123    23661.731    103120.52    634.39747   -8372.3899    8.4701491 
   43000    2452.4805     23786.83    97485.864    648.91535   -8358.1583    8.4256031 
   44000    2419.2856    23727.465    102620.79    640.13213   -8350.5731    8.4466834 
   45000      2338.88    23852.337    96360.254    618.85716    -8331.894    8.4024632 
   46000    2432.4562    23760.372    101941.72      643.617   -8340.9713    8.4349854 
   47000    2415.6031    23839.394     97296.16    639.15775    -8336.736    8.4070252 
   48000    2468.2571    23768.386    102816.84    653.08976   -8337.3499    8.4321413 
   49000     2413.096    23844.954    94765.937    638.49438   -8347.1806    8.4050648 
   50000    2445.3531    23766.148     100669.7    647.02947   -8346.1683    8.4329351 
   51000    2341.3245    23724.451    99799.888    619.50398   -8363.4186    8.4477566 
   52000    2398.7627    23794.382     98655.33    634.70185   -8339.9537     8.422929 
   53000      2434.93    23802.545    100606.15    644.27157   -8335.9916    8.4200402 
   54000    2385.3487    23874.368    94344.172    631.15257   -8339.6874    8.3947097 
   55000    2392.8159    23733.345    103054.21    633.12835   -8345.4538    8.4445909 
   56000     2426.427    23719.501    104759.16    642.02169   -8343.0999    8.4495195 
   57000    2324.2994     23849.74    96226.732     614.9992   -8334.2846    8.4033783 
   58000    2402.8691    23600.514     115628.2    635.78838   -8329.9494    8.4921196 
   59000    2414.9966    23922.533    91046.538    638.99727    -8339.834     8.377808 
   60000    2473.2904    23818.771    100042.03    654.42155   -8335.0757    8.4143044 
   61000    2399.3351    23744.709    102291.51    634.85332    -8345.215    8.4405493 
   62000    2332.1592    23947.231    89493.929    617.07888   -8333.5111    8.3691673 
   63000     2369.264    23725.314    102814.42    626.89663   -8346.2037    8.4474493 
   64000    2382.3604    23748.985    103825.46    630.36189   -8334.7486    8.4390296 
   65000    2362.7178    23810.733    97322.269    625.16454   -8344.3649    8.4171448 
   66000    2495.7832    23803.846    96653.165    660.37306    -8358.867    8.4195801 
   67000    2460.0962    23734.379    105227.67    650.93044   -8335.3125    8.4442228 
   68000    2327.7484    23656.318     106435.8     615.9118   -8350.1962    8.4720871 
   69000    2395.7853    23792.183    98735.518    633.91405   -8346.0252    8.4237072 
   70000    2461.8556    23900.624    94431.869    651.39595   -8328.1701    8.3854876 
   71000    2364.0547    23649.082    111460.27    625.51827   -8330.2861    8.4746792 
   72000    2340.4942    23768.863    97384.369    619.28428   -8354.4997    8.4319718 
   73000    2356.6172    23773.471     100488.6    623.55035   -8340.7208    8.4303375 
   74000    2355.6769    23675.233    106280.26    623.30154   -8345.2377    8.4653185 
   75000    2370.4517    23857.915    99722.921    627.21089   -8317.4658    8.4004989 
   76000    2408.4065    23669.423    107318.84    637.25355   -8342.9454    8.4673963 
   77000    2469.7451    23903.916    95888.227    653.48347   -8322.1886    8.3843329 
   78000    2389.1075    23834.019    93693.559    632.14714   -8350.8871    8.4089213 
   79000    2415.1398     23783.88    100042.68    639.03517   -8341.0075     8.426648 
   80000    2360.8959    23808.723    99514.541    624.68247   -8333.5619    8.4178553 
   81000     2359.927    23732.763    101229.75    624.42611   -8351.9082     8.444798 
   82000    2341.2392    23708.976     104499.1    619.48139   -8344.0183    8.4532703 
   83000    2378.0749    23800.613    97498.482    629.22795   -8346.1302    8.4207238 
   84000     2410.284     23675.72    107299.09    637.75033   -8346.6974    8.4651444 
   85000    2403.3707    23911.703    93195.931    635.92112   -8325.2515    8.3816025 
   86000    2341.3277    23624.988    108611.86    619.50481   -8354.0905    8.4833223 
   87000    2449.4666    23716.511    104072.33    648.11789   -8348.4162    8.4505846 
   88000    2381.8487    23821.259     96387.38    630.22648   -8344.6245    8.4134254 
   89000    2389.8488      23808.1    103030.87    632.34328   -8313.2372    8.4180755 
   90000    2401.6479    23692.849    102835.35    635.46527   -8362.7926    8.4590243 
   91000    2358.1841     23693.78    106589.18    623.96495   -8336.5901     8.458692 
   92000    2410.6624    23932.457    93906.804    637.85047   -8318.4381    8.3743338 
   93000    2335.4684    23725.863    103687.43    617.95446   -8339.3904    8.4472539 
   94000    2360.0085    23723.419    105989.84    624.44766   -8331.6482     8.448124 
   95000     2336.388    23881.926    95478.627    618.19779   -8328.6175     8.392053 
   96000    2403.2777    23790.022    101589.16     635.8965   -8332.7619    8.4244725 
   97000    2456.3268    23835.986    98875.771    649.93306   -8331.8924    8.4082273 
   98000    2383.0935    23734.503    100999.55    630.55586   -8352.0942    8.4441789 
   99000    2398.2573    23828.472     97912.23    634.56814   -8334.6592    8.4108787 
  100000    2369.5717    23855.919    102842.35    626.97805   -8297.6671    8.4012018 
  101000    2334.3584    23834.547    93083.283    617.66077   -8358.9905     8.408735 
  102000    2344.9612    23810.127    99050.416    620.46622   -8335.5138    8.4173591 
  103000    2442.3041    23686.118    109066.45    646.22272   -8334.1307    8.4614282 
  104000    2424.7641    23814.885    98712.021     641.5817   -8340.1506    8.4156773 
  105000    2421.5848      23781.6    98548.554    640.74048   -8351.1973    8.4274559 
  106000    2402.3973    23814.317    100376.72    635.66355   -8330.1155    8.4158781 
  107000    2354.5936    23760.526    102892.73     623.0149   -8333.6519    8.4349305 
  108000    2374.1493    23776.648    97428.658    628.18926   -8352.5165     8.429211 
  109000    2417.9467    23812.533    100473.74    639.77786   -8329.9966    8.4165086 
  110000    2368.4821    23801.125    101391.48    626.68975   -8328.2665    8.4205426 
  111000    2394.1829    23795.071    100555.58    633.49005   -8334.1124    8.4226849 
  112000    2292.5541    23724.174    100574.25    606.59953   -8354.7293    8.4478551 
  113000    2414.9366    23787.848    99602.586    638.98139   -8344.8273    8.4252425 
  114000    2369.6187    23690.234    102898.15    626.99048   -8359.5183    8.4599582 
  115000    2440.0944    23728.932    98957.193    645.63803   -8368.0852    8.4461611 
  116000    2391.7346    23806.618    96464.443    632.84226   -8352.3456    8.4185996 
  117000    2375.2266    23736.733    97921.739     628.4743   -8368.0891    8.4433855 
  118000    2489.5035    23748.977     100773.7    658.71145   -8357.2955    8.4390324 
  119000    2464.6016    23713.899    106561.01    652.12254     -8339.27    8.4515154 
  120000    2382.2199    23747.104    102483.73    630.32471   -8340.2749    8.4396979 
  121000    2349.3511    23807.387    93852.244    621.62777   -8362.0164    8.4183278 
  122000    2411.6925    23708.906     105447.3    638.12301   -8341.9698    8.4532955 
  123000    2408.5477    23740.804    102322.31    637.29093   -8345.0991    8.4419377 
  124000    2406.8992    23796.093    96095.832    636.85475   -8356.9354    8.4223233 
  125000    2345.9079    23910.996    92247.972    620.71672   -8330.3179    8.3818501 
  126000    2353.1083    23727.243    105405.75     622.6219   -8332.5286    8.4467623 
  127000    2347.1362    23747.969    96919.707    621.04171   -8369.4253    8.4393906 
  128000    2408.7794    23623.394    108519.42    637.35223    -8360.388    8.4838946 
  129000    2419.7867    23848.101    95369.509     640.2647   -8342.3454    8.4039559 
  130000    2428.6818     23780.57    95729.807    642.61832   -8367.1271    8.4278211 
  131000    2398.0805    23641.058     110344.1    634.52136   -8339.7639    8.4775557 
  132000    2378.7525    23738.929    103861.04    629.40725   -8333.4492    8.4426046 
  133000      2423.89    23852.715    92015.954    641.35042   -8356.4048    8.4023302 
  134000    2448.2535    23737.045    98050.195    647.79691   -8370.2028    8.4432743 
  135000    2415.7138    23690.936     105597.1    639.18704   -8348.0731    8.4597073 
[...]
  120000    2575.7811    24800.714    106207.22    681.54013   -7986.9695     8.081154 
  121000    2521.6086    24861.201    103677.94    667.20633   -7981.2697    8.0614925 
  122000      2599.82    25055.199    97242.584    687.90071   -7958.0897    7.9990739 
  123000     2616.609    24876.464    100978.93    692.34302   -7994.7123    8.0565463 
  124000    2566.0588    25067.214    87687.196    678.96766    -7994.587    7.9952397 
  125000    2577.7447    24941.416    99334.989     682.0597   -7981.3218    8.0355656 
  126000    2575.9511    24759.786    112058.84    681.58511   -7972.6033    8.0945122 
  127000    2584.6297    24916.908    103611.15    683.88143   -7961.9321    8.0434693 
  128000    2531.1528    24911.918    97511.442    669.73168   -7988.6706    8.0450806 
  129000    2575.3592    24925.119    101651.34    681.42851   -7968.4447    8.0408197 
  130000    2562.7025    24825.183    106550.13    678.07959   -7972.0562    8.0731888 
  131000    2597.0287    25072.712    97275.962    687.16216   -7953.7654    7.9934866 
  132000    2583.0752    24996.115    91924.424    683.47012   -7992.9762    8.0179816 
  133000    2562.6004    25017.955    91231.914    678.05257   -7993.5475    8.0109821 
  134000    2576.1718    24871.458    102020.97    681.64351   -7988.4444    8.0581678 
  135000    2557.0178     24776.44     106167.2    676.57543   -7994.5115    8.0890713 
  136000       2554.6    24786.138     103384.2     675.9357   -7998.6083    8.0859061 
  137000    2589.6895    24860.795    105548.58    685.22024   -7978.2915    8.0616241 
  138000    2589.6379    24862.734    98583.995    685.20658   -7997.7429    8.0609956 
  139000    2533.0654    24869.432    103435.13    670.23774   -7973.7305    8.0588246 
  140000     2646.091    24825.219    102481.01    700.14382   -7997.3097    8.0731768 
  141000    2597.6846    24896.285    101348.27     687.3357   -7981.1322    8.0501321 
  142000    2658.8044    24898.675    102373.54    703.50772   -7983.9884    8.0493597 
  143000    2497.8492    24980.144    92404.859     660.9197   -7993.7538    8.0231079 
  144000    2613.4103    24889.528    100649.02    691.49665   -7983.7424    8.0523178 
  145000    2657.3977    24810.328    105976.64    703.13553   -7985.1042    8.0780224 
  146000    2537.4957    24951.007    93884.588    671.40999    -8000.802    8.0324768 
  147000    2596.8934    24926.766    100422.87    687.12635   -7972.3102    8.0402885 
  148000    2628.1822    24975.408    99763.775    695.40524   -7966.3188    8.0246291 
  149000     2575.848    24897.723    102022.09    681.55784   -7979.6889    8.0496674 
  150000    2643.1914    24968.521    94555.921    699.37658   -7996.1916    8.0268424 
  151000    2560.6141    24911.726    104085.83    677.52701   -7960.5548    8.0451427 
  152000    2611.4216    24774.104     107219.2    690.97046   -7989.6697     8.089834 
  153000    2655.1923    24880.506    104281.48    702.55198   -7978.1769    8.0552375 
  154000    2562.8212    24860.232    103098.85    678.11099   -7983.4583    8.0618069 
  155000    2604.5443    24928.165    94673.519    689.15073   -8005.8877    8.0398372 
  156000     2613.966    24885.625    105115.85     691.6437    -7971.356    8.0535806 
  157000    2624.2241    24712.614    109696.41    694.35794   -7996.2242    8.1099631 
  158000    2694.6818    24873.351    102852.63    713.00072   -7988.3514    8.0575548 
  159000    2589.9424    24855.152    102755.69    685.28714   -7985.9549    8.0634546 
  160000    2588.5739    25048.097    94011.407    684.92505    -7968.722    8.0013417 
  161000    2590.3032     24905.08    97120.969    685.38262   -7999.4753    8.0472893 
  162000    2619.4042    25024.791    97956.763    693.08261   -7960.4149    8.0087937 
  163000    2635.3724    24856.121    103517.64    697.30771   -7984.0042    8.0631402 
  164000    2606.3953    25080.419    89316.027    689.64052   -7988.0624    7.9910303 
  165000    2625.6647    24918.664    100379.44    694.73911   -7981.2983    8.0429027 
  166000    2609.7617    24850.462    105630.12    690.53124   -7978.4753    8.0649761 
  167000    2604.9277    24900.712     99174.02    689.25219   -7997.8704    8.0487012 
  168000    2688.1697    25047.685    89928.078    711.27765   -7993.4655    8.0014734 
  169000    2649.7523    24976.395    101512.49    701.11259   -7959.7506     8.024312 
  170000    2534.4242    24841.303    106162.74    670.59728    -7972.547    8.0679498 
  171000    2617.1921    24819.383    106400.61     692.4973    -7984.889    8.0750753 
  172000    2549.5507    24938.093    101840.29    674.59968   -7970.1503    8.0366363 
  173000    2552.2835    25102.463    87750.347    675.32277    -7987.293    7.9840129 
  174000      2567.03    24888.724    102938.32    679.22463   -7970.8442    8.0525777 
  175000    2597.4658    24794.373    108657.74    687.27781   -7979.6981    8.0832207 
  176000    2594.4971    24997.037    96767.442    686.49231   -7973.1057    8.0176856 
  177000    2606.4423    24838.335    106292.18    689.65295   -7978.6578    8.0689138 
  178000      2573.32    24938.742    102030.18    680.88894   -7965.9376    8.0364272 
  179000    2585.8928    24905.329    103218.23    684.21564   -7961.7067    8.0472089 
  180000    2546.5275    25040.564    95331.867    673.79976   -7964.8911    8.0037489 
  181000    2718.3351    24919.356     102185.5    719.25928    -7972.839    8.0426793 
  182000    2539.7704     24919.44    99403.761    672.01185   -7986.1488     8.042652 
  183000    2500.4802    24986.404    95016.939    661.61585   -7984.2833    8.0210976 
  184000    2625.7298    24905.194    104982.07    694.75634    -7960.193    8.0472527 
  185000    2592.7911     24930.72    98933.403    686.04089   -7986.1382     8.039013 
  186000    2623.9775    25042.135    93332.618    694.29269   -7983.6483    8.0032468 
  187000    2697.3846    24940.024    101881.37    713.71587   -7969.7926     8.036014 
  188000    2625.8991    24904.256    100742.97    694.80114     -7980.53    8.0475555 
  189000    2547.1832    25127.622    86694.864    673.97326   -7977.6049    7.9760189 
  190000     2608.931    24952.652    94715.862    690.31146   -8000.3805    8.0319473 
  191000    2682.9541    24841.252    106341.76    709.89762   -7972.8284    8.0679665 
  192000    2665.0941    24908.326    101752.39    705.17196   -7986.8693    8.0462409 
  193000    2574.3049    24846.375    102062.59    681.14954   -7986.9133    8.0663029 
  194000    2613.2765    24952.367     100795.9    691.46124   -7967.9572     8.032039 
  195000    2586.6836    24942.045    101764.01    684.42488   -7964.8461    8.0353631 
  196000    2611.2488     24883.67    104592.79    690.92473   -7972.0625    8.0542132 
  197000    2526.5912    24985.846    94389.748     668.5247   -7981.7219    8.0212767 
  198000    2602.5452    24921.342    99658.888    688.62178   -7983.0144    8.0420382 
  199000    2664.6437     24842.68    107812.14    705.05279   -7979.1336    8.0675025 
  200000    2683.4124    24841.264    103172.51    710.01888   -7993.9566    8.0679625 
  201000    2610.4147    25069.407    88511.262    690.70402   -7990.7697    7.9945403 
  202000    2612.2981     24943.33     98761.78    691.20237    -7985.192    8.0349491 
  203000      2728.77    24876.494    106162.12    722.02032   -7968.2291    8.0565365 
  204000    2608.5267    24974.998    97833.622    690.20448   -7982.2272    8.0247609 
  205000    2611.2548    24918.193    98147.789    690.92632   -7988.5561    8.0430545 
  206000    2582.8539    24999.381     96709.11    683.41156   -7968.5997    8.0169339 
  207000    2590.4995    24889.211    98059.685    685.43456   -8001.0457    8.0524202 
  208000    2527.5718     24935.33    100940.42    668.78418   -7970.8349     8.037527 
  209000    2595.9697     25059.43    88483.663    686.88193   -8001.1727    7.9977233 
  210000    2639.5459    24920.612    99352.773    698.41201   -7980.4396     8.042274 
  211000    2569.2515    24821.794    104898.94    679.81242   -7989.6106    8.0742911 
  212000    2681.3484    24919.278    100653.89    709.47277   -7987.0476    8.0427044 
  213000     2525.446     24859.24    105084.42    668.22169   -7966.5726    8.0621286 
  214000    2478.5823    24990.442    94417.374    655.82176   -7981.6483    8.0198014 
  215000    2539.8855    24878.642    101680.48    672.04232   -7984.8566    8.0558409 
  216000    2744.8711    24905.258    103696.94    726.28059   -7974.2955     8.047232 
  217000    2614.9074     25036.14    92590.701    691.89277   -7981.0981    8.0051633 
  218000    2576.4889    24897.234    100764.13    681.72741   -7982.5876    8.0498254 
  219000    2642.7037     24843.14    108583.45    699.24755   -7964.0339    8.0673531 
  220000    2576.1639    24910.664    102364.77    681.64141   -7972.2769    8.0454854 
  221000    2589.6934    24921.334    101443.42    685.22127     -7978.04     8.042041 
  222000    2541.1904    24886.189    99013.347    672.38758   -7991.7523    8.0533982 
  223000    2541.6071    24775.553    105631.96    672.49784   -7990.6987    8.0893607 
  224000    2606.6557    24811.161    110679.44     689.7094   -7966.7656    8.0777512 
  225000    2567.6878    24905.555    99376.591    679.39869   -7984.8913    8.0471359 
  226000    2604.8269    24894.831    103766.37    689.22553   -7974.9699    8.0506025 
  227000    2667.3682    24905.454    100974.73    705.77367    -7986.218    8.0471684 
  228000    2630.6226    25057.229    91485.769    696.05095   -7983.2513    7.9984259 
  229000    2572.5646    24866.231    100192.49    680.68905   -7998.9352     8.059862 
  230000    2660.0794    24765.959    107308.64    703.84508   -7991.7445    8.0924944 
  231000    2629.2258    24967.472    95837.395    695.68137   -7984.8923    8.0271799 
  232000    2635.3235    25086.241    94205.136    697.29479   -7966.8463    7.9891756 
  233000    2546.5503     24853.39    100820.62    673.80579   -7992.3504     8.064026 
  234000    2634.1516    24854.055    106306.09    696.98471   -7967.3077    8.0638105 
  235000    2590.3472    25010.812     97332.95    685.39426   -7970.1228    8.0132698 
  236000    2565.3397    25054.847    91012.885    678.77738   -7982.0957    7.9991861 
  237000    2631.9085    24838.892     110439.9     696.3912   -7958.0907    8.0687328 
  238000    2623.0264    24896.552    103720.98    694.04103   -7974.7337     8.050046 
  239000    2557.4206    24876.434    102175.57    676.68204   -7983.5522    8.0565562 
  240000    2550.9845    24959.517    96792.536    674.97907   -7976.3058    8.0297383 
  241000    2541.3591    24794.859    105985.74    672.43221   -7990.6463    8.0830621 
  242000    2597.6295    24832.223    106338.19    687.32113   -7974.7299    8.0708998 
  243000    2602.6088    24997.872    97713.034    688.63862   -7969.2744     8.017418 
  244000    2606.6147    25023.684    97339.559    689.69856   -7970.4006    8.0091478 
  245000    2703.1564     24935.53    98577.442    715.24305   -7990.6808    8.0374625 
  246000    2656.9191      24738.1    111020.85    703.00889   -7990.7367     8.101608 
  247000    2617.1498    24950.776    97475.806     692.4861   -7990.9057    8.0325511 
  248000    2569.5456    24960.062    97851.464    679.89025   -7978.3946    8.0295629 
  249000     2589.724    24816.125    104386.06    685.22936   -7989.2198    8.0761354 
  250000    2645.9558    25022.965    98395.118    700.10805   -7961.8993    8.0093781 
Loop time of 506.855 on 8 procs for 250000 steps with 2048 atoms

Performance: 42.616 ns/day, 0.563 hours/ns, 493.238 timesteps/s
119.1% CPU use with 4 MPI tasks x 2 OpenMP threads

MPI task timing breakdown:
Section |  min time  |  avg time  |  max time  |%varavg| %total
---------------------------------------------------------------
Pair    | 291.73     | 294.59     | 298.5      |  15.3 | 58.12
Neigh   | 4.9838     | 5.1253     | 5.1842     |   3.6 |  1.01
Comm    | 20.524     | 24.794     | 27.942     |  56.9 |  4.89
Output  | 0.0064178  | 0.011817   | 0.013689   |   2.9 |  0.00
Modify  | 181.19     | 181.35     | 181.68     |   1.5 | 35.78
Other   |            | 0.986      |            |       |  0.19

Nlocal:        512.000 ave         518 max         506 min
Histogram: 1 0 1 0 0 0 0 1 0 1
Nghost:        2733.50 ave        2737 max        2728 min
Histogram: 1 0 0 0 1 0 0 0 0 2
Neighs:        38429.0 ave       40172 max       36647 min
Histogram: 1 0 1 0 0 0 0 1 0 1

Total # of neighbors = 153716
Ave neighs/atom = 75.056641
Neighbor list builds = 5254
Dangerous builds = 0


# fix 132 all momentum 100 linear 1 1 1 angular
fix out_file_1 all print 1000 "$(step) $(temp) $(press) ${sys_press} $(vol) $(ke) $(pe) $(density)" file one_phase_${sim}_press_$P_$T_.txt screen no title  "step temp press pressGiga vol ke pe density"
fix out_file_1 all print 1000 "$(step) $(temp) $(press) ${sys_press} $(vol) $(ke) $(pe) $(density)" file one_phase_heating_press_$P_$T_.txt screen no title  "step temp press pressGiga vol ke pe density"
fix out_file_1 all print 1000 "$(step) $(temp) $(press) ${sys_press} $(vol) $(ke) $(pe) $(density)" file one_phase_heating_press_100000_$T_.txt screen no title  "step temp press pressGiga vol ke pe density"
fix out_file_1 all print 1000 "$(step) $(temp) $(press) ${sys_press} $(vol) $(ke) $(pe) $(density)" file one_phase_heating_press_100000_2600_.txt screen no title  "step temp press pressGiga vol ke pe density"

# dump 3 all custom 1000 traj_npt_new.lammpstrj id type x y z
run 50000
Last active /omp style is pair_style eam/alloy/omp
Per MPI rank memory allocation (min/avg/max) = 4.354 | 4.354 | 4.354 Mbytes
Step Temp Volume Press KinEng PotEng Density 
  250000    2645.9558    25022.965    98395.118    700.10805   -7961.8993    8.0093781 
  251000    2615.4259    24885.295    97080.149    692.02998   -8004.0767    8.0536875 
  252000    2570.4872    24914.038    104056.64    680.13938   -7959.7753    8.0443959 
  253000    2564.9592    24791.377    108862.68    678.67671   -7980.1398    8.0841973 
  254000    2468.7523    24926.083    102853.09     653.2208   -7965.7756    8.0405088 
  255000    2637.4939    25031.935     98821.02    697.86906   -7963.6545    8.0065081 
  256000    2604.5703    24868.792    104936.39    689.15762   -7974.5055    8.0590318 
  257000    2590.3298    25009.778    91736.034    685.38966    -7991.741    8.0136012 
  258000    2557.8381     24892.58    99368.693    676.79249   -7990.9631    8.0513306 
  259000    2601.2439    24761.074    106301.51    688.27747   -7997.1162    8.0940911 
  260000     2643.669    24847.284    102295.63    699.50297   -7992.4133    8.0660076 
  261000    2665.8848     24991.86    98932.378    705.38116   -7971.5343    8.0193465 
  262000    2581.4494    24910.777    99780.551    683.03995   -7990.1032    8.0454491 
  263000    2578.7936    24954.095    98717.554    682.33722     -7982.91    8.0314829 
  264000    2622.6929    24976.802     99448.31    693.95278   -7966.0992    8.0241814 
  265000    2619.9708     25077.68    89511.015    693.23254   -7985.2252    7.9919031 
  266000    2597.9396    24894.754    101871.79    687.40318   -7976.7006    8.0506272 
  267000    2600.2468    24693.907    112436.97    688.01366   -7987.5685    8.1161068 
  268000    2553.9203    25019.532    99920.011    675.75587   -7946.2869     8.010477 
  269000    2542.3676    24939.659    100579.64    672.69908   -7972.1145    8.0361319 
  270000    2602.4967    24972.354      95165.6    688.60895   -7986.7846    8.0256106 
  271000    2663.4836    24926.942    103543.61    704.74583   -7964.3312    8.0402315 
  272000    2554.9761    24934.345    98208.091    676.03522   -7984.3762    8.0378445 
  273000    2543.3195    25123.492    86548.909    672.95094   -7991.0251      7.97733 
  274000    2604.3866    24828.765    103157.75    689.10901   -7994.0296     8.072024 
  275000    2613.1994    24863.899    100241.24    691.44084    -7994.979    8.0606178 
  276000    2514.8627    24902.849    95699.733    665.42138   -8001.7949    8.0480105 
  277000    2589.4424    24850.333    101988.81    685.15484   -7994.1476    8.0650182 
  278000    2581.4697    24884.501    103781.23     683.0453   -7968.8226    8.0539443 
  279000    2621.2835    24784.403    112063.76    693.57986   -7967.2387    8.0864722 
  280000    2599.1473     24927.73    96021.058    687.72272   -8000.1764    8.0399775 
  281000    2605.1548    25022.522    92320.207    689.31228   -7989.9176    8.0095198 
  282000    2575.1498    25021.146    102052.27     681.3731   -7938.8566    8.0099603 
  283000    2515.6403    24740.508    112081.91    665.62715   -7979.4646    8.1008192 
  284000    2602.5388    24947.498    97753.225    688.62009   -7987.9668    8.0336066 
  285000    2598.1249    25029.091    91412.818    687.45219   -7994.7501    8.0074179 
  286000    2671.3564    24816.171    106906.45    706.82892   -7982.1564    8.0761204 
  287000    2592.7176    24796.437    106253.94    686.02145   -7994.3605    8.0825479 
  288000    2573.3217    24979.487    98547.071    680.88937   -7965.4773    8.0233186 
  289000     2610.772    24873.959    97173.915    690.79858   -8008.8331    8.0573577 
  290000    2654.0717    24932.444    99200.981    702.25547   -7984.6891    8.0384573 
  291000    2608.7777    24983.555     99583.45    690.27089   -7963.1596    8.0220123 
  292000    2643.9665    24934.104    102877.72    699.58169    -7970.606     8.037922 
  293000    2607.2302    24854.691    101976.04    689.86141   -7993.2191     8.063604 
  294000    2523.3927     24846.15    99312.454    667.67838    -8000.732     8.066376 
  295000    2596.0378    24968.153    97652.682    686.89997   -7984.0085     8.026961 
  296000    2603.7043    24930.408    97814.821     688.9285   -7990.6706    8.0391139 
  297000    2604.8132    25057.556     87939.67    689.22191    -7999.576    7.9983213 
  298000    2585.4255    24870.343    104215.69      684.092     -7978.36    8.0585294 
  299000    2643.1006    24857.056    100902.19    699.35257   -8002.7656    8.0628368 
  300000    2494.5225    25015.807    92751.295    660.03947    -7974.713    8.0116698 
Loop time of 101.094 on 8 procs for 50000 steps with 2048 atoms

Performance: 42.733 ns/day, 0.562 hours/ns, 494.590 timesteps/s
120.3% CPU use with 4 MPI tasks x 2 OpenMP threads

MPI task timing breakdown:
Section |  min time  |  avg time  |  max time  |%varavg| %total
---------------------------------------------------------------
Pair    | 57.948     | 58.734     | 59.706     |   8.4 | 58.10
Neigh   | 0.99101    | 1.0172     | 1.031      |   1.5 |  1.01
Comm    | 3.903      | 4.9494     | 5.8021     |  31.1 |  4.90
Output  | 0.0012223  | 0.0021906  | 0.0025164  |   1.2 |  0.00
Modify  | 36.152     | 36.194     | 36.266     |   0.7 | 35.80
Other   |            | 0.1964     |            |       |  0.19

Nlocal:        512.000 ave         519 max         503 min
Histogram: 1 0 0 0 0 1 0 1 0 1
Nghost:        2714.25 ave        2727 max        2709 min
Histogram: 2 1 0 0 0 0 0 0 0 1
Neighs:        38467.8 ave       40311 max       36723 min
Histogram: 1 0 0 1 0 1 0 0 0 1

Total # of neighbors = 153871
Ave neighs/atom = 75.132324
Neighbor list builds = 1049
Dangerous builds = 0

unfix temp
unfix out_file_1


write_data after_${sim}_press_$P_$T.in
write_data after_heating_press_$P_$T.in
write_data after_heating_press_100000_$T.in
write_data after_heating_press_100000_2600.in
System init for write_data ...
Last active /omp style is pair_style eam/alloy/omp
write_restart after_${sim}_press_$P_$T.lmp
write_restart after_heating_press_$P_$T.lmp
write_restart after_heating_press_100000_$T.lmp
write_restart after_heating_press_100000_2600.lmp
System init for write_restart ...
Last active /omp style is pair_style eam/alloy/omp
next loopVar
jump in.lmp ensemble
























Total wall time: 0:52:00
