LAMMPS data file. CGCMM style. atom_style full generated by VMD/TopoTools v1.7 on Wed Jan 06 21:30:27 +0545 2021
 1000 atoms
 0 bonds
 0 angles
 0 dihedrals
 0 impropers
 1 atom types
 0 bond types
 0 angle types
 0 dihedral types
 0 improper types
 0.027105 27.527105  xlo xhi
 0.099957 59.599957  ylo yhi
 0.008076 28.437876  zlo zhi

# Pair Coeffs
#
# 1  N

 Masses

 1 14.007000 # N

 Atoms # full

1 1 1 0.000000 21.367935 50.370781 22.149197 # N 1
2 2 1 0.000000 9.131584 11.191890 27.035236 # N 2
3 3 1 0.000000 16.942783 53.363338 18.390015 # N 3
4 4 1 0.000000 12.822293 8.505885 23.402197 # N 4
5 5 1 0.000000 14.855110 29.546297 10.569679 # N 5
6 6 1 0.000000 11.571906 25.381292 7.156635 # N 6
7 7 1 0.000000 20.374653 53.368286 19.095284 # N 7
8 8 1 0.000000 16.261219 50.825333 15.315971 # N 8
9 9 1 0.000000 15.703692 24.336008 5.717274 # N 9
10 10 1 0.000000 24.869711 47.998363 28.226299 # N 10
11 11 1 0.000000 14.005031 56.151955 11.825256 # N 11
12 12 1 0.000000 13.230608 47.942680 17.728096 # N 12
13 13 1 0.000000 4.485624 47.531349 26.738487 # N 13
14 14 1 0.000000 27.281715 57.271301 21.833433 # N 14
15 15 1 0.000000 16.983831 28.331490 6.613235 # N 15
16 16 1 0.000000 14.082079 5.801414 20.220676 # N 16
17 17 1 0.000000 10.416815 22.730869 3.198666 # N 17
18 18 1 0.000000 17.168785 32.135490 7.769732 # N 18
19 19 1 0.000000 9.146767 23.245626 26.473867 # N 19
20 20 1 0.000000 16.094614 8.725591 15.685539 # N 20
21 21 1 0.000000 23.418194 54.634621 22.516691 # N 21
22 22 1 0.000000 11.916748 54.021652 13.270108 # N 22
23 23 1 0.000000 9.986035 58.331261 8.451070 # N 23
24 24 1 0.000000 18.358446 29.937588 10.139897 # N 24
25 25 1 0.000000 7.453960 44.157906 24.895489 # N 25
26 26 1 0.000000 12.963118 51.540466 18.685749 # N 26
27 27 1 0.000000 19.652338 46.194271 18.790192 # N 27
28 28 1 0.000000 11.294397 25.560616 0.376706 # N 28
29 29 1 0.000000 21.309229 35.662216 8.494030 # N 29
30 30 1 0.000000 23.355347 49.032162 18.460157 # N 30
31 31 1 0.000000 1.040779 46.030708 25.119148 # N 31
32 32 1 0.000000 20.176256 33.815281 11.092134 # N 32
33 33 1 0.000000 17.451258 20.472927 10.652617 # N 33
34 34 1 0.000000 15.818654 20.760612 6.900081 # N 34
35 35 1 0.000000 9.384878 59.230541 4.220089 # N 35
36 36 1 0.000000 12.567715 21.259916 27.340801 # N 36
37 37 1 0.000000 14.623074 50.218895 9.824326 # N 37
38 38 1 0.000000 13.528215 6.916553 13.694128 # N 38
39 39 1 0.000000 27.194172 45.990929 3.211037 # N 39
40 40 1 0.000000 8.852743 26.570894 26.333611 # N 40
41 41 1 0.000000 21.495796 28.315998 9.775301 # N 41
42 42 1 0.000000 14.361847 33.340439 9.859712 # N 42
43 43 1 0.000000 12.328176 24.813822 25.327665 # N 43
44 44 1 0.000000 3.612228 56.373009 21.193565 # N 44
45 45 1 0.000000 24.669338 27.147781 8.196458 # N 45
46 46 1 0.000000 12.016378 31.586369 0.419753 # N 46
47 47 1 0.000000 16.224899 27.493799 2.979558 # N 47
48 48 1 0.000000 19.066259 11.409628 13.413385 # N 48
49 49 1 0.000000 13.191858 29.541172 4.924411 # N 49
50 50 1 0.000000 9.929294 7.088808 24.129042 # N 50
51 51 1 0.000000 16.998928 54.920471 12.480266 # N 51
52 52 1 0.000000 4.414614 53.283298 26.097126 # N 52
53 53 1 0.000000 12.718069 33.542549 4.671202 # N 53
54 54 1 0.000000 5.073690 58.591476 24.237692 # N 54
55 55 1 0.000000 19.275974 26.498201 12.394726 # N 55
56 56 1 0.000000 11.814593 54.917236 9.497574 # N 56
57 57 1 0.000000 20.789845 20.393017 12.167134 # N 57
58 58 1 0.000000 12.001826 52.760498 6.460347 # N 58
59 59 1 0.000000 16.237694 58.313416 7.899387 # N 59
60 60 1 0.000000 25.596352 47.183979 22.376415 # N 60
61 61 1 0.000000 15.484923 52.192287 12.535025 # N 61
62 62 1 0.000000 21.304525 32.273960 13.897316 # N 62
63 63 1 0.000000 27.097361 41.979580 22.622406 # N 63
64 64 1 0.000000 8.161757 28.794754 0.551783 # N 64
65 65 1 0.000000 19.622019 48.896320 16.313366 # N 65
66 66 1 0.000000 18.753414 24.515043 2.549701 # N 66
67 67 1 0.000000 16.245920 35.972919 8.426897 # N 67
68 68 1 0.000000 18.360691 54.491787 15.718051 # N 68
69 69 1 0.000000 26.968884 1.423382 19.746529 # N 69
70 70 1 0.000000 7.240510 57.864048 19.655197 # N 70
71 71 1 0.000000 5.705376 11.290836 25.848295 # N 71
72 72 1 0.000000 11.092327 43.854507 25.259790 # N 72
73 73 1 0.000000 18.388754 48.983284 22.180552 # N 73
74 74 1 0.000000 22.013687 24.828218 14.005860 # N 74
75 75 1 0.000000 17.619701 25.265003 15.359066 # N 75
76 76 1 0.000000 12.037262 3.024509 22.117470 # N 76
77 77 1 0.000000 5.453421 31.589348 0.479203 # N 77
78 78 1 0.000000 25.963037 56.391785 25.109358 # N 78
79 79 1 0.000000 15.398952 52.437355 6.130731 # N 79
80 80 1 0.000000 17.977514 34.697193 4.408755 # N 80
81 81 1 0.000000 24.758181 28.786726 4.769562 # N 81
82 82 1 0.000000 18.723768 56.902485 9.473312 # N 82
83 83 1 0.000000 11.918994 56.595264 19.125528 # N 83
84 84 1 0.000000 8.852934 58.129463 23.005104 # N 84
85 85 1 0.000000 15.921966 25.313343 18.465420 # N 85
86 86 1 0.000000 6.596559 42.004189 22.315413 # N 86
87 87 1 0.000000 1.684968 51.855442 22.735092 # N 87
88 88 1 0.000000 25.105276 54.813057 17.975687 # N 88
89 89 1 0.000000 18.519211 30.454550 15.651033 # N 89
90 90 1 0.000000 20.486515 21.573187 16.934929 # N 90
91 91 1 0.000000 13.706358 44.768047 15.799514 # N 91
92 92 1 0.000000 21.145063 52.702087 16.071505 # N 92
93 93 1 0.000000 4.479033 45.626064 23.275312 # N 93
94 94 1 0.000000 22.343493 36.746948 13.527171 # N 94
95 95 1 0.000000 4.840206 48.283344 21.298845 # N 95
96 96 1 0.000000 14.081758 40.816658 14.001184 # N 96
97 97 1 0.000000 13.829821 53.441849 23.498901 # N 97
98 98 1 0.000000 7.737296 55.055862 21.983938 # N 98
99 99 1 0.000000 23.829716 43.552963 16.391386 # N 99
100 100 1 0.000000 14.838210 24.470737 11.591578 # N 100
101 101 1 0.000000 8.940452 49.743263 21.016108 # N 101
102 102 1 0.000000 13.212577 46.689846 26.066216 # N 102
103 103 1 0.000000 16.201506 51.849834 27.733147 # N 103
104 104 1 0.000000 11.256255 35.446228 1.846409 # N 104
105 105 1 0.000000 18.427753 19.133181 4.974571 # N 105
106 106 1 0.000000 14.968218 38.505585 4.554187 # N 106
107 107 1 0.000000 18.827696 54.459969 26.581968 # N 107
108 108 1 0.000000 17.854090 5.580257 15.140591 # N 108
109 109 1 0.000000 7.583517 5.297956 26.914846 # N 109
110 110 1 0.000000 7.439427 25.038876 0.899937 # N 110
111 111 1 0.000000 13.701829 58.517147 16.377611 # N 111
112 112 1 0.000000 22.258657 42.545719 20.725731 # N 112
113 113 1 0.000000 5.230204 21.978943 1.919132 # N 113
114 114 1 0.000000 23.611418 39.321079 10.540207 # N 114
115 115 1 0.000000 9.591254 44.540691 22.318338 # N 115
116 116 1 0.000000 21.929163 20.283941 8.549941 # N 116
117 117 1 0.000000 7.985642 55.558235 25.190357 # N 117
118 118 1 0.000000 1.904832 48.620434 18.578438 # N 118
119 119 1 0.000000 16.737455 47.994640 19.358549 # N 119
120 120 1 0.000000 19.502283 58.318703 18.286398 # N 120
121 121 1 0.000000 13.003327 20.272806 2.607521 # N 121
122 122 1 0.000000 16.842714 46.175190 15.516957 # N 122
123 123 1 0.000000 16.274761 43.516689 21.084173 # N 123
124 124 1 0.000000 24.369566 25.096359 5.681694 # N 124
125 125 1 0.000000 2.017054 3.966238 20.514313 # N 125
126 126 1 0.000000 6.614404 12.186592 1.150123 # N 126
127 127 1 0.000000 9.851189 1.632958 20.057783 # N 127
128 128 1 0.000000 5.280711 27.388456 27.282017 # N 128
129 129 1 0.000000 1.178219 3.742673 17.118593 # N 129
130 130 1 0.000000 7.131137 23.871952 4.287461 # N 130
131 131 1 0.000000 13.545712 59.208241 6.233152 # N 131
132 132 1 0.000000 7.903971 7.898912 0.500205 # N 132
133 133 1 0.000000 11.253096 53.529995 27.889971 # N 133
134 134 1 0.000000 23.587975 56.836388 27.936066 # N 134
135 135 1 0.000000 5.181134 15.849011 0.724804 # N 135
136 136 1 0.000000 16.106630 2.571915 16.214170 # N 136
137 137 1 0.000000 8.311805 36.436020 3.355334 # N 137
138 138 1 0.000000 11.238189 27.291370 3.256195 # N 138
139 139 1 0.000000 9.406358 3.819033 23.670713 # N 139
140 140 1 0.000000 1.900400 58.774563 19.364075 # N 140
141 141 1 0.000000 20.588167 55.515896 11.974555 # N 141
142 142 1 0.000000 14.038227 43.590698 23.550467 # N 142
143 143 1 0.000000 4.417327 29.075932 3.112417 # N 143
144 144 1 0.000000 8.167372 11.450621 6.054826 # N 144
145 145 1 0.000000 22.587164 53.340500 10.002325 # N 145
146 146 1 0.000000 16.773186 41.310261 18.615324 # N 146
147 147 1 0.000000 20.829994 23.860973 6.987483 # N 147
148 148 1 0.000000 17.221056 3.937773 19.285021 # N 148
149 149 1 0.000000 4.932813 18.898994 2.965225 # N 149
150 150 1 0.000000 5.090515 6.136474 24.589277 # N 150
151 151 1 0.000000 8.691610 55.451794 1.192256 # N 151
152 152 1 0.000000 8.452797 15.481964 0.981107 # N 152
153 153 1 0.000000 17.857306 33.661324 15.231532 # N 153
154 154 1 0.000000 2.895341 40.481819 22.373312 # N 154
155 155 1 0.000000 17.157192 26.687498 27.011501 # N 155
156 156 1 0.000000 18.472918 22.812864 8.827785 # N 156
157 157 1 0.000000 19.927500 41.242287 15.422467 # N 157
158 158 1 0.000000 20.474022 1.196922 20.312569 # N 158
159 159 1 0.000000 12.439824 49.296932 13.806989 # N 159
160 160 1 0.000000 6.415681 8.399356 22.000196 # N 160
161 161 1 0.000000 10.886645 45.242065 18.778505 # N 161
162 162 1 0.000000 18.365694 42.822502 12.811923 # N 162
163 163 1 0.000000 26.027256 51.369991 20.956562 # N 163
164 164 1 0.000000 16.898335 4.200861 22.691343 # N 164
165 165 1 0.000000 23.739511 2.881792 17.257191 # N 165
166 166 1 0.000000 11.343045 38.363132 5.163983 # N 166
167 167 1 0.000000 8.596253 58.132210 13.937087 # N 167
168 168 1 0.000000 23.062403 34.435585 5.014526 # N 168
169 169 1 0.000000 3.709892 9.118137 0.792524 # N 169
170 170 1 0.000000 17.151716 59.445068 24.147408 # N 170
171 171 1 0.000000 8.425694 17.944843 6.648803 # N 171
172 172 1 0.000000 2.030767 29.441105 28.188480 # N 172
173 173 1 0.000000 25.973192 7.545246 18.868050 # N 173
174 174 1 0.000000 16.652866 24.583706 23.933472 # N 174
175 175 1 0.000000 14.106480 36.772217 13.397574 # N 175
176 176 1 0.000000 16.211212 32.292046 3.034231 # N 176
177 177 1 0.000000 10.464624 49.120941 27.101788 # N 177
178 178 1 0.000000 4.407888 15.698290 25.171835 # N 178
179 179 1 0.000000 24.633533 32.910419 14.977840 # N 179
180 180 1 0.000000 21.575516 48.819733 0.063798 # N 180
181 181 1 0.000000 18.038174 56.457588 1.449882 # N 181
182 182 1 0.000000 7.530403 3.223330 3.979876 # N 182
183 183 1 0.000000 2.582559 22.447950 4.300718 # N 183
184 184 1 0.000000 17.616995 37.133217 12.388271 # N 184
185 185 1 0.000000 21.301622 42.725132 11.243396 # N 185
186 186 1 0.000000 23.103977 52.175358 26.012129 # N 186
187 187 1 0.000000 11.147114 2.336172 15.118671 # N 187
188 188 1 0.000000 2.318605 45.011806 18.339926 # N 188
189 189 1 0.000000 25.307377 37.139404 6.614448 # N 189
190 190 1 0.000000 20.026762 49.600121 8.999908 # N 190
191 191 1 0.000000 0.760118 28.117886 5.656181 # N 191
192 192 1 0.000000 22.496319 4.180856 20.202065 # N 192
193 193 1 0.000000 26.430666 5.564600 22.231483 # N 193
194 194 1 0.000000 26.383604 22.905096 7.215993 # N 194
195 195 1 0.000000 12.996013 41.576935 18.470654 # N 195
196 196 1 0.000000 13.540395 1.316502 1.617106 # N 196
197 197 1 0.000000 9.787296 25.014894 23.041517 # N 197
198 198 1 0.000000 16.971848 21.411219 16.756586 # N 198
199 199 1 0.000000 14.811263 32.305065 14.183433 # N 199
200 200 1 0.000000 14.792449 34.801174 1.539621 # N 200
201 201 1 0.000000 20.293831 4.580040 17.729115 # N 201
202 202 1 0.000000 6.508727 38.199387 24.390120 # N 202
203 203 1 0.000000 13.188364 49.641171 5.557180 # N 203
204 204 1 0.000000 24.768436 20.387581 3.660511 # N 204
205 205 1 0.000000 6.592899 22.966238 23.650654 # N 205
206 206 1 0.000000 0.601754 52.027714 18.014555 # N 206
207 207 1 0.000000 8.265055 19.527344 25.405209 # N 207
208 208 1 0.000000 11.821753 57.579395 26.312290 # N 208
209 209 1 0.000000 18.643295 55.647293 5.649490 # N 209
210 210 1 0.000000 14.316946 20.776993 12.501755 # N 210
211 211 1 0.000000 4.635311 54.863808 16.484201 # N 211
212 212 1 0.000000 12.839064 40.393017 24.208614 # N 212
213 213 1 0.000000 9.233470 34.954315 6.339540 # N 213
214 214 1 0.000000 14.267243 43.982170 4.359846 # N 214
215 215 1 0.000000 12.838805 51.630863 2.492718 # N 215
216 216 1 0.000000 16.320568 41.366798 6.247881 # N 216
217 217 1 0.000000 11.381457 15.649753 6.469902 # N 217
218 218 1 0.000000 21.477230 59.080479 23.662628 # N 218
219 219 1 0.000000 21.549047 38.068180 4.537813 # N 219
220 220 1 0.000000 5.666133 34.540550 6.646904 # N 220
221 221 1 0.000000 3.732052 1.142781 22.331594 # N 221
222 222 1 0.000000 6.085951 52.457352 0.671440 # N 222
223 223 1 0.000000 5.055346 55.457611 1.159654 # N 223
224 224 1 0.000000 27.116631 49.868401 15.574478 # N 224
225 225 1 0.000000 6.566822 57.653992 10.102458 # N 225
226 226 1 0.000000 11.325045 57.662544 1.255722 # N 226
227 227 1 0.000000 13.485979 42.177029 0.373702 # N 227
228 228 1 0.000000 19.220268 18.394054 8.131469 # N 228
229 229 1 0.000000 15.332483 44.103088 10.075322 # N 229
230 230 1 0.000000 8.311909 4.368495 7.301115 # N 230
231 231 1 0.000000 14.317474 47.086327 11.743714 # N 231
232 232 1 0.000000 13.445968 25.954269 15.329366 # N 232
233 233 1 0.000000 9.867150 54.168625 18.522646 # N 233
234 234 1 0.000000 17.472515 51.547585 24.668312 # N 234
235 235 1 0.000000 8.120478 56.640186 6.265993 # N 235
236 236 1 0.000000 25.555584 18.678242 9.904771 # N 236
237 237 1 0.000000 25.479273 0.996126 24.105965 # N 237
238 238 1 0.000000 18.237276 56.867908 21.007893 # N 238
239 239 1 0.000000 20.090225 21.494627 28.100529 # N 239
240 240 1 0.000000 7.473523 51.425083 5.378449 # N 240
241 241 1 0.000000 10.529929 2.794699 1.838029 # N 241
242 242 1 0.000000 24.932028 40.506256 7.093473 # N 242
243 243 1 0.000000 23.045994 29.633814 0.757344 # N 243
244 244 1 0.000000 14.333363 1.620055 10.130948 # N 244
245 245 1 0.000000 25.219423 27.565842 27.605648 # N 245
246 246 1 0.000000 2.272634 6.579263 23.064932 # N 246
247 247 1 0.000000 24.042904 27.640854 14.795485 # N 247
248 248 1 0.000000 20.786276 25.685678 27.242804 # N 248
249 249 1 0.000000 12.628327 55.342743 3.995737 # N 249
250 250 1 0.000000 16.633318 55.292931 24.313589 # N 250
251 251 1 0.000000 20.051792 28.682215 1.164667 # N 251
252 252 1 0.000000 26.413801 28.476448 12.281827 # N 252
253 253 1 0.000000 26.280090 51.717716 27.660538 # N 253
254 254 1 0.000000 3.911282 33.643562 3.508413 # N 254
255 255 1 0.000000 25.147682 13.942812 6.777047 # N 255
256 256 1 0.000000 12.271554 21.663065 23.179186 # N 256
257 257 1 0.000000 16.137819 46.061199 24.025429 # N 257
258 258 1 0.000000 16.727695 49.867516 2.617198 # N 258
259 259 1 0.000000 26.275234 52.851227 6.388388 # N 259
260 260 1 0.000000 15.733391 0.509494 21.072765 # N 260
261 261 1 0.000000 9.673573 10.427523 21.284472 # N 261
262 262 1 0.000000 26.399473 50.004223 24.166496 # N 262
263 263 1 0.000000 19.983225 59.440948 1.347895 # N 263
264 264 1 0.000000 20.769674 20.530369 2.550390 # N 264
265 265 1 0.000000 20.278019 37.020397 16.013041 # N 265
266 266 1 0.000000 16.364286 16.732496 1.502686 # N 266
267 267 1 0.000000 25.351744 52.682369 14.132659 # N 267
268 268 1 0.000000 3.549292 53.543858 19.833546 # N 268
269 269 1 0.000000 23.910873 57.272392 15.269468 # N 269
270 270 1 0.000000 18.866556 17.267868 11.741500 # N 270
271 271 1 0.000000 26.143976 49.008404 7.249323 # N 271
272 272 1 0.000000 25.286625 40.934277 3.070610 # N 272
273 273 1 0.000000 11.841151 3.781414 18.905851 # N 273
274 274 1 0.000000 10.452102 16.893143 26.803017 # N 274
275 275 1 0.000000 14.461770 2.557680 13.389776 # N 275
276 276 1 0.000000 17.753012 26.283251 9.139414 # N 276
277 277 1 0.000000 9.648861 9.839290 17.337399 # N 277
278 278 1 0.000000 22.137440 56.976307 3.315689 # N 278
279 279 1 0.000000 8.437679 0.603994 25.555082 # N 279
280 280 1 0.000000 15.763960 34.920868 24.696785 # N 280
281 281 1 0.000000 8.070755 45.798859 28.352612 # N 281
282 282 1 0.000000 27.292635 1.233550 14.181500 # N 282
283 283 1 0.000000 11.771800 22.176407 11.183217 # N 283
284 284 1 0.000000 27.315182 33.960445 12.020392 # N 284
285 285 1 0.000000 23.745472 16.875114 3.567636 # N 285
286 286 1 0.000000 24.348965 24.377333 27.126719 # N 286
287 287 1 0.000000 24.523893 16.900759 13.554334 # N 287
288 288 1 0.000000 0.467496 6.301504 26.974855 # N 288
289 289 1 0.000000 5.490918 46.559837 16.472305 # N 289
290 290 1 0.000000 27.406187 33.391071 1.173344 # N 290
291 291 1 0.000000 1.282174 10.599158 26.370270 # N 291
292 292 1 0.000000 6.885005 26.341423 23.518309 # N 292
293 293 1 0.000000 26.385399 55.628902 8.840866 # N 293
294 294 1 0.000000 16.422800 20.387072 1.385091 # N 294
295 295 1 0.000000 5.161684 52.077084 9.128497 # N 295
296 296 1 0.000000 5.556199 42.538273 15.876261 # N 296
297 297 1 0.000000 9.748083 8.767089 10.702687 # N 297
298 298 1 0.000000 27.227812 41.673218 11.504537 # N 298
299 299 1 0.000000 24.636587 45.485519 12.376263 # N 299
300 300 1 0.000000 16.456188 58.763817 14.713019 # N 300
301 301 1 0.000000 2.268526 52.675114 14.122059 # N 301
302 302 1 0.000000 13.639202 36.514984 18.949902 # N 302
303 303 1 0.000000 14.947940 28.550268 0.077573 # N 303
304 304 1 0.000000 0.917696 47.836014 12.463464 # N 304
305 305 1 0.000000 8.697146 20.062492 19.017075 # N 305
306 306 1 0.000000 20.754036 3.190936 13.295608 # N 306
307 307 1 0.000000 24.550871 13.482031 1.687338 # N 307
308 308 1 0.000000 18.258747 9.033109 21.864304 # N 308
309 309 1 0.000000 1.773328 10.867795 21.983122 # N 309
310 310 1 0.000000 16.364288 53.674969 3.022903 # N 310
311 311 1 0.000000 6.195021 22.008509 17.253069 # N 311
312 312 1 0.000000 11.716108 16.699837 2.180065 # N 312
313 313 1 0.000000 24.842329 4.667213 25.263968 # N 313
314 314 1 0.000000 13.862038 38.772671 8.993963 # N 314
315 315 1 0.000000 18.612219 3.756311 9.953754 # N 315
316 316 1 0.000000 8.012101 23.886820 19.355803 # N 316
317 317 1 0.000000 12.811430 36.094490 22.798502 # N 317
318 318 1 0.000000 23.784109 53.250599 1.228864 # N 318
319 319 1 0.000000 15.453413 39.165234 26.221476 # N 319
320 320 1 0.000000 5.843188 48.102482 2.533604 # N 320
321 321 1 0.000000 8.691478 46.747890 8.989519 # N 321
322 322 1 0.000000 10.737012 8.718019 5.408958 # N 322
323 323 1 0.000000 19.021231 52.612343 7.955477 # N 323
324 324 1 0.000000 19.502790 31.094337 3.335785 # N 324
325 325 1 0.000000 22.966286 30.712421 17.315081 # N 325
326 326 1 0.000000 22.313084 8.005873 21.666866 # N 326
327 327 1 0.000000 11.600204 48.534893 22.283413 # N 327
328 328 1 0.000000 11.221422 25.307173 19.210058 # N 328
329 329 1 0.000000 21.755548 41.377419 6.342950 # N 329
330 330 1 0.000000 25.736589 30.796509 25.673937 # N 330
331 331 1 0.000000 23.273766 6.257876 16.361713 # N 331
332 332 1 0.000000 16.021503 16.666607 8.783133 # N 332
333 333 1 0.000000 22.112576 40.361031 23.798355 # N 333
334 334 1 0.000000 3.676388 55.978168 12.403949 # N 334
335 335 1 0.000000 0.202126 38.662083 19.825699 # N 335
336 336 1 0.000000 1.264047 51.308308 8.215169 # N 336
337 337 1 0.000000 0.084428 40.581253 15.812958 # N 337
338 338 1 0.000000 7.590342 41.592697 27.483353 # N 338
339 339 1 0.000000 21.476351 10.154794 15.820889 # N 339
340 340 1 0.000000 19.186808 27.153728 17.313229 # N 340
341 341 1 0.000000 16.310146 45.507133 2.090637 # N 341
342 342 1 0.000000 18.842745 46.578495 5.955369 # N 342
343 343 1 0.000000 12.538712 28.807312 25.716883 # N 343
344 344 1 0.000000 8.117452 30.887493 5.572865 # N 344
345 345 1 0.000000 6.585918 38.465015 20.278090 # N 345
346 346 1 0.000000 17.953686 32.578682 27.961693 # N 346
347 347 1 0.000000 12.809438 58.020580 21.793636 # N 347
348 348 1 0.000000 5.966013 29.512390 24.969471 # N 348
349 349 1 0.000000 14.881082 20.347174 24.509247 # N 349
350 350 1 0.000000 0.467411 55.663719 15.587227 # N 350
351 351 1 0.000000 10.515232 34.388363 26.126440 # N 351
352 352 1 0.000000 26.318577 34.920700 21.750488 # N 352
353 353 1 0.000000 19.955711 9.521650 18.600914 # N 353
354 354 1 0.000000 18.117588 22.703154 13.714677 # N 354
355 355 1 0.000000 17.936052 51.916748 21.065649 # N 355
356 356 1 0.000000 10.809958 39.410770 26.718596 # N 356
357 357 1 0.000000 7.276496 51.523052 23.101809 # N 357
358 358 1 0.000000 11.647120 5.863413 3.226160 # N 358
359 359 1 0.000000 11.589695 7.919228 27.460310 # N 359
360 360 1 0.000000 12.898163 1.343519 24.999731 # N 360
361 361 1 0.000000 19.685030 32.680908 22.167482 # N 361
362 362 1 0.000000 25.322548 20.331961 12.893909 # N 362
363 363 1 0.000000 13.093119 18.073627 10.053741 # N 363
364 364 1 0.000000 26.406820 49.944599 2.923963 # N 364
365 365 1 0.000000 14.912681 22.315229 20.040995 # N 365
366 366 1 0.000000 9.009663 46.762787 16.287642 # N 366
367 367 1 0.000000 18.712126 29.381203 25.058722 # N 367
368 368 1 0.000000 2.212577 59.074677 26.088543 # N 368
369 369 1 0.000000 11.916896 30.346428 8.814313 # N 369
370 370 1 0.000000 1.595123 26.020208 21.247908 # N 370
371 371 1 0.000000 8.987132 47.401470 23.469019 # N 371
372 372 1 0.000000 22.045176 46.057487 15.729980 # N 372
373 373 1 0.000000 7.392513 48.520527 13.245335 # N 373
374 374 1 0.000000 3.343841 25.700739 1.824074 # N 374
375 375 1 0.000000 8.148781 15.859368 16.367970 # N 375
376 376 1 0.000000 8.148162 35.498817 27.914768 # N 376
377 377 1 0.000000 2.781642 36.828762 28.193323 # N 377
378 378 1 0.000000 23.987135 36.747051 23.653238 # N 378
379 379 1 0.000000 1.384544 7.031843 15.558584 # N 379
380 380 1 0.000000 21.992805 49.794140 13.244695 # N 380
381 381 1 0.000000 19.684299 26.424522 20.708960 # N 381
382 382 1 0.000000 27.386007 24.609089 13.636218 # N 382
383 383 1 0.000000 12.108820 12.977001 1.233027 # N 383
384 384 1 0.000000 25.677320 4.073241 1.561394 # N 384
385 385 1 0.000000 18.449539 57.844311 26.963203 # N 385
386 386 1 0.000000 4.857567 19.802938 7.049181 # N 386
387 387 1 0.000000 4.883808 22.036503 26.917717 # N 387
388 388 1 0.000000 24.849783 39.441799 14.056124 # N 388
389 389 1 0.000000 3.382455 55.258873 4.138105 # N 389
390 390 1 0.000000 11.532840 18.438192 21.001318 # N 390
391 391 1 0.000000 2.606771 42.864212 27.534597 # N 391
392 392 1 0.000000 21.722847 2.633655 0.339051 # N 392
393 393 1 0.000000 5.437773 4.441733 18.978659 # N 393
394 394 1 0.000000 9.492759 43.443150 6.382075 # N 394
395 395 1 0.000000 20.222240 37.544903 23.570019 # N 395
396 396 1 0.000000 9.882472 24.516693 14.189470 # N 396
397 397 1 0.000000 14.817829 17.913649 27.247379 # N 397
398 398 1 0.000000 2.641630 34.548267 8.943145 # N 398
399 399 1 0.000000 27.316505 37.790504 11.346067 # N 399
400 400 1 0.000000 27.381323 28.566126 23.208204 # N 400
401 401 1 0.000000 0.599708 25.651604 9.231923 # N 401
402 402 1 0.000000 7.287060 4.784991 13.566501 # N 402
403 403 1 0.000000 21.035782 58.888348 6.071423 # N 403
404 404 1 0.000000 10.095124 48.088066 3.417609 # N 404
405 405 1 0.000000 26.895422 24.670269 2.123839 # N 405
406 406 1 0.000000 0.258125 58.662704 1.618826 # N 406
407 407 1 0.000000 8.324221 42.173630 19.617088 # N 407
408 408 1 0.000000 12.667598 46.709282 8.868121 # N 408
409 409 1 0.000000 20.376209 15.496979 5.759309 # N 409
410 410 1 0.000000 3.925298 56.000496 7.388490 # N 410
411 411 1 0.000000 3.620963 3.643847 26.565905 # N 411
412 412 1 0.000000 21.596394 15.022692 11.145206 # N 412
413 413 1 0.000000 20.881201 14.246632 1.905073 # N 413
414 414 1 0.000000 7.906663 53.476364 8.873838 # N 414
415 415 1 0.000000 11.162753 28.022495 21.440237 # N 415
416 416 1 0.000000 2.614074 22.750872 7.925306 # N 416
417 417 1 0.000000 0.684785 33.009747 5.505822 # N 417
418 418 1 0.000000 23.108988 33.411858 25.417984 # N 418
419 419 1 0.000000 20.909817 6.361954 12.107904 # N 419
420 420 1 0.000000 2.211528 19.851076 10.468421 # N 420
421 421 1 0.000000 23.155916 46.628555 3.329813 # N 421
422 422 1 0.000000 9.068937 50.535641 9.167006 # N 422
423 423 1 0.000000 17.418106 19.340443 21.723339 # N 423
424 424 1 0.000000 19.278742 51.435997 28.121643 # N 424
425 425 1 0.000000 15.989050 2.282784 26.313587 # N 425
426 426 1 0.000000 22.780098 16.973381 20.249241 # N 426
427 427 1 0.000000 2.119891 7.738954 3.533284 # N 427
428 428 1 0.000000 9.374834 7.001755 15.956009 # N 428
429 429 1 0.000000 24.578371 31.461012 22.236151 # N 429
430 430 1 0.000000 22.219393 10.540387 5.041878 # N 430
431 431 1 0.000000 9.484919 35.915947 23.390120 # N 431
432 432 1 0.000000 4.546599 33.742027 26.431795 # N 432
433 433 1 0.000000 8.532296 3.016601 17.243586 # N 433
434 434 1 0.000000 0.433277 39.957500 25.211704 # N 434
435 435 1 0.000000 22.278120 1.291207 3.851592 # N 435
436 436 1 0.000000 17.645132 13.433153 5.050624 # N 436
437 437 1 0.000000 19.661570 22.363338 4.481377 # N 437
438 438 1 0.000000 22.197039 22.467808 25.159681 # N 438
439 439 1 0.000000 1.902596 31.683233 24.814262 # N 439
440 440 1 0.000000 24.353359 19.712515 27.171333 # N 440
441 441 1 0.000000 23.098082 16.437681 0.199809 # N 441
442 442 1 0.000000 4.984907 36.417614 17.828789 # N 442
443 443 1 0.000000 11.990404 20.415901 16.144117 # N 443
444 444 1 0.000000 17.108612 32.656002 18.609524 # N 444
445 445 1 0.000000 10.002259 2.929825 10.230484 # N 445
446 446 1 0.000000 14.797085 58.055172 27.313019 # N 446
447 447 1 0.000000 24.112772 45.702602 8.945226 # N 447
448 448 1 0.000000 15.725637 39.348927 1.572386 # N 448
449 449 1 0.000000 14.544154 31.705059 26.788074 # N 449
450 450 1 0.000000 16.089172 58.787025 4.324396 # N 450
451 451 1 0.000000 9.551693 29.055710 24.329670 # N 451
452 452 1 0.000000 20.594225 51.392376 4.198617 # N 452
453 453 1 0.000000 16.190895 49.067532 5.882715 # N 453
454 454 1 0.000000 14.536014 29.992302 23.441027 # N 454
455 455 1 0.000000 25.299702 31.202517 8.975648 # N 455
456 456 1 0.000000 16.738762 18.353846 14.733152 # N 456
457 457 1 0.000000 9.849389 50.995548 14.768435 # N 457
458 458 1 0.000000 27.248899 16.892977 2.186974 # N 458
459 459 1 0.000000 0.726787 54.208660 11.846321 # N 459
460 460 1 0.000000 24.177820 50.061054 9.791468 # N 460
461 461 1 0.000000 17.353558 48.497635 12.599382 # N 461
462 462 1 0.000000 27.492760 18.516768 12.103334 # N 462
463 463 1 0.000000 22.642679 14.662052 23.635069 # N 463
464 464 1 0.000000 20.297228 34.757114 25.899435 # N 464
465 465 1 0.000000 0.379508 8.956438 0.660713 # N 465
466 466 1 0.000000 10.015998 46.440979 12.756246 # N 466
467 467 1 0.000000 1.510234 42.879604 4.738135 # N 467
468 468 1 0.000000 20.356262 30.883717 19.097994 # N 468
469 469 1 0.000000 9.487933 14.431691 20.986685 # N 469
470 470 1 0.000000 1.173937 55.044674 0.042070 # N 470
471 471 1 0.000000 13.132565 47.967804 2.359132 # N 471
472 472 1 0.000000 16.147121 26.983057 22.036442 # N 472
473 473 1 0.000000 21.886852 28.103260 4.316944 # N 473
474 474 1 0.000000 15.289706 7.463686 5.555695 # N 474
475 475 1 0.000000 22.613008 24.999439 19.034264 # N 475
476 476 1 0.000000 15.778221 7.400800 25.791384 # N 476
477 477 1 0.000000 17.100012 42.375961 2.675773 # N 477
478 478 1 0.000000 27.351204 10.174961 16.833797 # N 478
479 479 1 0.000000 18.038658 48.418266 27.329237 # N 479
480 480 1 0.000000 10.456158 41.226711 13.513545 # N 480
481 481 1 0.000000 8.307682 5.190133 18.616472 # N 481
482 482 1 0.000000 13.366891 7.177919 8.207854 # N 482
483 483 1 0.000000 0.204278 44.797379 14.921079 # N 483
484 484 1 0.000000 5.182992 28.385771 20.736956 # N 484
485 485 1 0.000000 26.911945 13.271099 26.994421 # N 485
486 486 1 0.000000 0.098537 1.080455 5.618822 # N 486
487 487 1 0.000000 27.229181 11.712376 12.834476 # N 487
488 488 1 0.000000 6.474001 49.909031 18.127398 # N 488
489 489 1 0.000000 22.562271 49.490658 24.618460 # N 489
490 490 1 0.000000 3.402148 36.990044 23.997931 # N 490
491 491 1 0.000000 9.423320 27.466381 16.202564 # N 491
492 492 1 0.000000 2.389891 49.421970 2.836374 # N 492
493 493 1 0.000000 22.245064 39.874439 18.004227 # N 493
494 494 1 0.000000 24.359787 27.066378 24.320278 # N 494
495 495 1 0.000000 16.522778 11.288788 8.625167 # N 495
496 496 1 0.000000 15.779442 27.881804 13.285821 # N 496
497 497 1 0.000000 1.693071 20.987446 24.907764 # N 497
498 498 1 0.000000 22.977819 34.872688 17.621929 # N 498
499 499 1 0.000000 16.636765 13.452727 0.742335 # N 499
500 500 1 0.000000 2.290990 9.514668 17.865723 # N 500
501 501 1 0.000000 15.384492 12.513215 20.606321 # N 501
502 502 1 0.000000 15.938376 23.010452 26.913681 # N 502
503 503 1 0.000000 6.728777 34.020996 23.325146 # N 503
504 504 1 0.000000 19.455986 36.738609 28.304041 # N 504
505 505 1 0.000000 3.065138 6.332136 18.342123 # N 505
506 506 1 0.000000 14.364244 4.391066 24.385477 # N 506
507 507 1 0.000000 18.728771 13.591250 16.631691 # N 507
508 508 1 0.000000 26.972971 38.446026 28.403883 # N 508
509 509 1 0.000000 4.998765 46.529537 6.370898 # N 509
510 510 1 0.000000 26.175333 7.369684 4.325440 # N 510
511 511 1 0.000000 19.255842 12.042409 23.928541 # N 511
512 512 1 0.000000 12.963247 15.976119 13.803811 # N 512
513 513 1 0.000000 26.371033 7.104642 10.382156 # N 513
514 514 1 0.000000 4.792068 0.586547 11.486252 # N 514
515 515 1 0.000000 18.757317 14.858929 21.184303 # N 515
516 516 1 0.000000 9.883055 30.875673 13.680774 # N 516
517 517 1 0.000000 4.717585 19.454294 24.403690 # N 517
518 518 1 0.000000 23.999844 43.824608 0.880282 # N 518
519 519 1 0.000000 1.479534 28.808176 11.058256 # N 519
520 520 1 0.000000 9.040833 22.578150 16.309919 # N 520
521 521 1 0.000000 3.613246 24.041727 15.133175 # N 521
522 522 1 0.000000 22.164558 30.989418 6.757114 # N 522
523 523 1 0.000000 23.231112 14.157480 17.944925 # N 523
524 524 1 0.000000 7.646132 27.266232 3.414795 # N 524
525 525 1 0.000000 26.258232 7.960628 24.589491 # N 525
526 526 1 0.000000 20.638336 46.589546 22.765057 # N 526
527 527 1 0.000000 15.709753 55.230194 27.777624 # N 527
528 528 1 0.000000 24.045660 38.083488 20.848385 # N 528
529 529 1 0.000000 5.797803 1.324459 27.850739 # N 529
530 530 1 0.000000 5.605095 29.762066 6.131159 # N 530
531 531 1 0.000000 14.252739 7.161652 0.541307 # N 531
532 532 1 0.000000 12.679852 36.085903 15.626603 # N 532