LAMMPS data file. CGCMM style. atom_style full generated by VMD/TopoTools v1.7 on Sat Jan 09 12:08:11 +0545 2021
 132 atoms
 181 bonds
 0 angles
 0 dihedrals
 0 impropers
 1 atom types
 1 bond types
 0 angle types
 0 dihedral types
 0 improper types
 -5.108510 20.391490  xlo xhi
 -0.560301 0.439699  ylo yhi
 9.571619 21.571619  zlo zhi

# Pair Coeffs
#
# 1  C

# Bond Coeffs
#
# 1  

 Masses

 1 12.011000 # C

 Atoms # full

1 1 1 0.000000 -5.270919 -0.060301 12.731626 # C 1
2 1 1 0.000000 -5.270919 -0.060301 9.891631 # C 1
3 1 1 0.000000 -4.041165 -0.060301 10.601630 # C 1
4 1 1 0.000000 -2.811412 -0.060301 12.731626 # C 1
5 1 1 0.000000 -4.041165 -0.060301 12.021626 # C 1
6 1 1 0.000000 -2.811412 -0.060301 9.891631 # C 1
7 1 1 0.000000 -1.581659 -0.060301 10.601630 # C 1
8 1 1 0.000000 -0.351906 -0.060301 12.731626 # C 1
9 1 1 0.000000 -1.581659 -0.060301 12.021626 # C 1
10 1 1 0.000000 -0.351906 -0.060301 9.891631 # C 1
11 1 1 0.000000 0.877848 -0.060301 10.601630 # C 1
12 1 1 0.000000 2.107601 -0.060301 12.731626 # C 1
13 1 1 0.000000 0.877848 -0.060301 12.021626 # C 1
14 1 1 0.000000 2.107601 -0.060301 9.891631 # C 1
15 1 1 0.000000 3.337354 -0.060301 10.601630 # C 1
16 1 1 0.000000 4.567108 -0.060301 12.731626 # C 1
17 1 1 0.000000 3.337354 -0.060301 12.021626 # C 1
18 1 1 0.000000 4.567108 -0.060301 9.891631 # C 1
19 1 1 0.000000 5.796861 -0.060301 10.601630 # C 1
20 1 1 0.000000 7.026614 -0.060301 12.731626 # C 1
21 1 1 0.000000 5.796861 -0.060301 12.021626 # C 1
22 1 1 0.000000 7.026614 -0.060301 9.891631 # C 1
23 1 1 0.000000 8.256368 -0.060301 10.601630 # C 1
24 1 1 0.000000 9.486120 -0.060301 12.731626 # C 1
25 1 1 0.000000 8.256368 -0.060301 12.021626 # C 1
26 1 1 0.000000 9.486120 -0.060301 9.891631 # C 1
27 1 1 0.000000 10.715874 -0.060301 10.601630 # C 1
28 1 1 0.000000 11.945627 -0.060301 12.731626 # C 1
29 1 1 0.000000 10.715874 -0.060301 12.021626 # C 1
30 1 1 0.000000 11.945627 -0.060301 9.891631 # C 1
31 1 1 0.000000 13.175381 -0.060301 10.601630 # C 1
32 1 1 0.000000 14.405134 -0.060301 12.731626 # C 1
33 1 1 0.000000 13.175381 -0.060301 12.021626 # C 1
34 1 1 0.000000 14.405134 -0.060301 9.891631 # C 1
35 1 1 0.000000 15.634887 -0.060301 10.601630 # C 1
36 1 1 0.000000 16.864641 -0.060301 12.731626 # C 1
37 1 1 0.000000 15.634887 -0.060301 12.021626 # C 1
38 1 1 0.000000 16.864641 -0.060301 9.891631 # C 1
39 1 1 0.000000 18.094393 -0.060301 10.601630 # C 1
40 1 1 0.000000 19.324146 -0.060301 12.731626 # C 1
41 1 1 0.000000 18.094393 -0.060301 12.021626 # C 1
42 1 1 0.000000 19.324146 -0.060301 9.891631 # C 1
43 1 1 0.000000 -5.270919 -0.060301 16.991615 # C 1
44 1 1 0.000000 -5.270919 -0.060301 14.151622 # C 1
45 1 1 0.000000 -4.041165 -0.060301 14.861621 # C 1
46 1 1 0.000000 -2.811412 -0.060301 16.991615 # C 1
47 1 1 0.000000 -4.041165 -0.060301 16.281618 # C 1
48 1 1 0.000000 -2.811412 -0.060301 14.151622 # C 1
49 1 1 0.000000 -1.581659 -0.060301 14.861621 # C 1
50 1 1 0.000000 -0.351906 -0.060301 16.991615 # C 1
51 1 1 0.000000 -1.581659 -0.060301 16.281618 # C 1
52 1 1 0.000000 -0.351906 -0.060301 14.151622 # C 1
53 1 1 0.000000 0.877848 -0.060301 14.861621 # C 1
54 1 1 0.000000 2.107601 -0.060301 16.991615 # C 1
55 1 1 0.000000 0.877848 -0.060301 16.281618 # C 1
56 1 1 0.000000 2.107601 -0.060301 14.151622 # C 1
57 1 1 0.000000 3.337354 -0.060301 14.861621 # C 1
58 1 1 0.000000 4.567108 -0.060301 16.991615 # C 1
59 1 1 0.000000 3.337354 -0.060301 16.281618 # C 1
60 1 1 0.000000 4.567108 -0.060301 14.151622 # C 1
61 1 1 0.000000 5.796861 -0.060301 14.861621 # C 1
62 1 1 0.000000 7.026614 -0.060301 16.991615 # C 1
63 1 1 0.000000 5.796861 -0.060301 16.281618 # C 1
64 1 1 0.000000 7.026614 -0.060301 14.151622 # C 1
65 1 1 0.000000 8.256368 -0.060301 14.861621 # C 1
66 1 1 0.000000 9.486120 -0.060301 16.991615 # C 1
67 1 1 0.000000 8.256368 -0.060301 16.281618 # C 1
68 1 1 0.000000 9.486120 -0.060301 14.151622 # C 1
69 1 1 0.000000 10.715874 -0.060301 14.861621 # C 1
70 1 1 0.000000 11.945627 -0.060301 16.991615 # C 1
71 1 1 0.000000 10.715874 -0.060301 16.281618 # C 1
72 1 1 0.000000 11.945627 -0.060301 14.151622 # C 1
73 1 1 0.000000 13.175381 -0.060301 14.861621 # C 1
74 1 1 0.000000 14.405134 -0.060301 16.991615 # C 1
75 1 1 0.000000 13.175381 -0.060301 16.281618 # C 1
76 1 1 0.000000 14.405134 -0.060301 14.151622 # C 1
77 1 1 0.000000 15.634887 -0.060301 14.861621 # C 1
78 1 1 0.000000 16.864641 -0.060301 16.991615 # C 1
79 1 1 0.000000 15.634887 -0.060301 16.281618 # C 1
80 1 1 0.000000 16.864641 -0.060301 14.151622 # C 1
81 1 1 0.000000 18.094393 -0.060301 14.861621 # C 1
82 1 1 0.000000 19.324146 -0.060301 16.991615 # C 1
83 1 1 0.000000 18.094393 -0.060301 16.281618 # C 1
84 1 1 0.000000 19.324146 -0.060301 14.151622 # C 1
85 1 1 0.000000 -5.270919 -0.060301 21.251606 # C 1
86 1 1 0.000000 -5.270919 -0.060301 18.411613 # C 1
87 1 1 0.000000 -4.041165 -0.060301 19.121611 # C 1
88 1 1 0.000000 -2.811412 -0.060301 21.251606 # C 1
89 1 1 0.000000 -4.041165 -0.060301 20.541609 # C 1
90 1 1 0.000000 -2.811412 -0.060301 18.411613 # C 1
91 1 1 0.000000 -1.581659 -0.060301 19.121611 # C 1
92 1 1 0.000000 -0.351906 -0.060301 21.251606 # C 1
93 1 1 0.000000 -1.581659 -0.060301 20.541609 # C 1
94 1 1 0.000000 -0.351906 -0.060301 18.411613 # C 1
95 1 1 0.000000 0.877848 -0.060301 19.121611 # C 1
96 1 1 0.000000 2.107601 -0.060301 21.251606 # C 1
97 1 1 0.000000 0.877848 -0.060301 20.541609 # C 1
98 1 1 0.000000 2.107601 -0.060301 18.411613 # C 1
99 1 1 0.000000 3.337354 -0.060301 19.121611 # C 1
100 1 1 0.000000 4.567108 -0.060301 21.251606 # C 1
101 1 1 0.000000 3.337354 -0.060301 20.541609 # C 1
102 1 1 0.000000 4.567108 -0.060301 18.411613 # C 1
103 1 1 0.000000 5.796861 -0.060301 19.121611 # C 1
104 1 1 0.000000 7.026614 -0.060301 21.251606 # C 1
105 1 1 0.000000 5.796861 -0.060301 20.541609 # C 1
106 1 1 0.000000 7.026614 -0.060301 18.411613 # C 1
107 1 1 0.000000 8.256368 -0.060301 19.121611 # C 1
108 1 1 0.000000 9.486120 -0.060301 21.251606 # C 1
109 1 1 0.000000 8.256368 -0.060301 20.541609 # C 1
110 1 1 0.000000 9.486120 -0.060301 18.411613 # C 1
111 1 1 0.000000 10.715874 -0.060301 19.121611 # C 1
112 1 1 0.000000 11.945627 -0.060301 21.251606 # C 1
113 1 1 0.000000 10.715874 -0.060301 20.541609 # C 1
114 1 1 0.000000 11.945627 -0.060301 18.411613 # C 1
115 1 1 0.000000 13.175381 -0.060301 19.121611 # C 1
116 1 1 0.000000 14.405134 -0.060301 21.251606 # C 1
117 1 1 0.000000 13.175381 -0.060301 20.541609 # C 1
118 1 1 0.000000 14.405134 -0.060301 18.411613 # C 1
119 1 1 0.000000 15.634887 -0.060301 19.121611 # C 1
120 1 1 0.000000 16.864641 -0.060301 21.251606 # C 1
121 1 1 0.000000 15.634887 -0.060301 20.541609 # C 1
122 1 1 0.000000 16.864641 -0.060301 18.411613 # C 1
123 1 1 0.000000 18.094393 -0.060301 19.121611 # C 1
124 1 1 0.000000 19.324146 -0.060301 21.251606 # C 1
125 1 1 0.000000 18.094393 -0.060301 20.541609 # C 1
126 1 1 0.000000 19.324146 -0.060301 18.411613 # C 1
127 1 1 0.000000 20.553900 -0.060301 10.601630 # C 1
128 1 1 0.000000 20.553900 -0.060301 12.021626 # C 1
129 1 1 0.000000 20.553900 -0.060301 14.861621 # C 1
130 1 1 0.000000 20.553900 -0.060301 16.281618 # C 1
131 1 1 0.000000 20.553900 -0.060301 19.121611 # C 1
132 1 1 0.000000 20.553900 -0.060301 20.541609 # C 1

 Bonds

1 1 1 5
2 1 1 44
3 1 2 3
4 1 3 6
5 1 3 5
6 1 4 5
7 1 4 9
8 1 4 48
9 1 6 7
10 1 7 10
11 1 7 9
12 1 8 9
13 1 8 13
14 1 8 52
15 1 10 11
16 1 11 14
17 1 11 13
18 1 12 17
19 1 12 56
20 1 12 13
21 1 14 15
22 1 15 18
23 1 15 17
24 1 16 17
25 1 16 21
26 1 16 60
27 1 18 19
28 1 19 22
29 1 19 21
30 1 20 21
31 1 20 25
32 1 20 64
33 1 22 23
34 1 23 26
35 1 23 25
36 1 24 29
37 1 24 68
38 1 24 25
39 1 26 27
40 1 27 30
41 1 27 29
42 1 28 29
43 1 28 33
44 1 28 72
45 1 30 31
46 1 31 34
47 1 31 33
48 1 32 33
49 1 32 37
50 1 32 76
51 1 34 35
52 1 35 38
53 1 35 37
54 1 36 41
55 1 36 80
56 1 36 37
57 1 38 39
58 1 39 42
59 1 39 41
60 1 40 41
61 1 40 128
62 1 40 84
63 1 42 127
64 1 43 47
65 1 43 86
66 1 44 45
67 1 45 48
68 1 45 47
69 1 46 51
70 1 46 90
71 1 46 47
72 1 48 49
73 1 49 52
74 1 49 51
75 1 50 51
76 1 50 55
77 1 50 94
78 1 52 53
79 1 53 56
80 1 53 55
81 1 54 59
82 1 54 98
83 1 54 55
84 1 56 57
85 1 57 60
86 1 57 59
87 1 58 63
88 1 58 102
89 1 58 59
90 1 60 61
91 1 61 64
92 1 61 63
93 1 62 63
94 1 62 67
95 1 62 106
96 1 64 65
97 1 65 68
98 1 65 67
99 1 66 71
100 1 66 110
101 1 66 67
102 1 68 69
103 1 69 72
104 1 69 71
105 1 70 75
106 1 70 114
107 1 70 71
108 1 72 73
109 1 73 76
110 1 73 75
111 1 74 75
112 1 74 79
113 1 74 118
114 1 76 77
115 1 77 80
116 1 77 79
117 1 78 83
118 1 78 122
119 1 78 79
120 1 80 81
121 1 81 84
122 1 81 83
123 1 82 130
124 1 82 126
125 1 82 83
126 1 84 129
127 1 85 89
128 1 86 87
129 1 87 89
130 1 87 90
131 1 88 89
132 1 88 93
133 1 90 91
134 1 91 94
135 1 91 93
136 1 92 97
137 1 92 93
138 1 94 95
139 1 95 97
140 1 95 98
141 1 96 101
142 1 96 97
143 1 98 99
144 1 99 101
145 1 99 102
146 1 100 101
147 1 100 105
148 1 102 103
149 1 103 106
150 1 103 105
151 1 104 109
152 1 104 105
153 1 106 107
154 1 107 109
155 1 107 110
156 1 108 113
157 1 108 109
158 1 110 111
159 1 111 113
160 1 111 114
161 1 112 113
162 1 112 117
163 1 114 115
164 1 115 118
165 1 115 117
166 1 116 121
167 1 116 117
168 1 118 119
169 1 119 121
170 1 119 122
171 1 120 125
172 1 120 121
173 1 122 123
174 1 123 125
175 1 123 126
176 1 124 125
177 1 124 132
178 1 126 131
179 1 127 128
180 1 129 130
181 1 131 132

