LAMMPS data file. CGCMM style. atom_style full generated by VMD/TopoTools v1.7 on Thu Dec 31 17:50:50 +0545 2020
 616 atoms
 885 bonds
 1694 angles
 3265 dihedrals
 0 impropers
 1 atom types
 1 bond types
 1 angle types
 1 dihedral types
 0 improper types
 -0.500000 0.500000  xlo xhi
 -0.500000 0.500000  ylo yhi
 -0.500000 0.500000  zlo zhi

# Pair Coeffs
#
# 1  C

# Bond Coeffs
#
# 1  

# Angle Coeffs
#
# 1  C-C-C

# Dihedral Coeffs
#
# 1  C-C-C-C

 Masses

 1 12.011000 # C

 Atoms # full

1 1 1 0.000000 -0.000000 1.419997 0.000000 # C 1
2 1 1 0.000000 1.229753 3.549992 0.000000 # C 1
3 1 1 0.000000 -0.000000 2.839994 0.000000 # C 1
4 1 1 0.000000 1.229753 0.709998 0.000000 # C 1
5 1 1 0.000000 2.459507 1.419997 0.000000 # C 1
6 1 1 0.000000 3.689260 3.549992 0.000000 # C 1
7 1 1 0.000000 2.459507 2.839994 0.000000 # C 1
8 1 1 0.000000 3.689260 0.709998 0.000000 # C 1
9 1 1 0.000000 4.919013 1.419997 0.000000 # C 1
10 1 1 0.000000 6.148767 3.549992 0.000000 # C 1
11 1 1 0.000000 4.919013 2.839994 0.000000 # C 1
12 1 1 0.000000 6.148767 0.709998 0.000000 # C 1
13 1 1 0.000000 7.378520 1.419997 0.000000 # C 1
14 1 1 0.000000 8.608273 3.549992 0.000000 # C 1
15 1 1 0.000000 7.378520 2.839994 0.000000 # C 1
16 1 1 0.000000 8.608273 0.709998 0.000000 # C 1
17 1 1 0.000000 9.838026 1.419997 0.000000 # C 1
18 1 1 0.000000 11.067780 3.549992 0.000000 # C 1
19 1 1 0.000000 9.838026 2.839994 0.000000 # C 1
20 1 1 0.000000 11.067780 0.709998 0.000000 # C 1
21 1 1 0.000000 12.297533 1.419997 0.000000 # C 1
22 1 1 0.000000 13.527287 3.549992 0.000000 # C 1
23 1 1 0.000000 12.297533 2.839994 0.000000 # C 1
24 1 1 0.000000 13.527287 0.709998 0.000000 # C 1
25 1 1 0.000000 14.757039 1.419997 0.000000 # C 1
26 1 1 0.000000 15.986793 3.549992 0.000000 # C 1
27 1 1 0.000000 14.757039 2.839994 0.000000 # C 1
28 1 1 0.000000 15.986793 0.709998 0.000000 # C 1
29 1 1 0.000000 17.216545 1.419997 0.000000 # C 1
30 1 1 0.000000 18.446299 3.549992 0.000000 # C 1
31 1 1 0.000000 17.216545 2.839994 0.000000 # C 1
32 1 1 0.000000 18.446299 0.709998 0.000000 # C 1
33 1 1 0.000000 19.676052 1.419997 0.000000 # C 1
34 1 1 0.000000 20.905806 3.549992 0.000000 # C 1
35 1 1 0.000000 19.676052 2.839994 0.000000 # C 1
36 1 1 0.000000 20.905806 0.709998 0.000000 # C 1
37 1 1 0.000000 22.135559 1.419997 0.000000 # C 1
38 1 1 0.000000 23.365313 3.549992 0.000000 # C 1
39 1 1 0.000000 22.135559 2.839994 0.000000 # C 1
40 1 1 0.000000 23.365313 0.709998 0.000000 # C 1
41 1 1 0.000000 24.595066 1.419997 0.000000 # C 1
42 1 1 0.000000 25.824820 3.549992 0.000000 # C 1
43 1 1 0.000000 24.595066 2.839994 0.000000 # C 1
44 1 1 0.000000 25.824820 0.709998 0.000000 # C 1
45 1 1 0.000000 -0.000000 5.679988 0.000000 # C 1
46 1 1 0.000000 1.229753 7.809983 0.000000 # C 1
47 1 1 0.000000 -0.000000 7.099985 0.000000 # C 1
48 1 1 0.000000 1.229753 4.969989 0.000000 # C 1
49 1 1 0.000000 2.459507 5.679988 0.000000 # C 1
50 1 1 0.000000 3.689260 7.809983 0.000000 # C 1
51 1 1 0.000000 2.459507 7.099985 0.000000 # C 1
52 1 1 0.000000 3.689260 4.969989 0.000000 # C 1
53 1 1 0.000000 4.919013 5.679988 0.000000 # C 1
54 1 1 0.000000 6.148767 7.809983 0.000000 # C 1
55 1 1 0.000000 4.919013 7.099985 0.000000 # C 1
56 1 1 0.000000 6.148767 4.969989 0.000000 # C 1
57 1 1 0.000000 7.378520 5.679988 0.000000 # C 1
58 1 1 0.000000 8.608273 7.809983 0.000000 # C 1
59 1 1 0.000000 7.378520 7.099985 0.000000 # C 1
60 1 1 0.000000 8.608273 4.969989 0.000000 # C 1
61 1 1 0.000000 9.838026 5.679988 0.000000 # C 1
62 1 1 0.000000 11.067780 7.809983 0.000000 # C 1
63 1 1 0.000000 9.838026 7.099985 0.000000 # C 1
64 1 1 0.000000 11.067780 4.969989 0.000000 # C 1
65 1 1 0.000000 12.297533 5.679988 0.000000 # C 1
66 1 1 0.000000 13.527287 7.809983 0.000000 # C 1
67 1 1 0.000000 12.297533 7.099985 0.000000 # C 1
68 1 1 0.000000 13.527287 4.969989 0.000000 # C 1
69 1 1 0.000000 14.757039 5.679988 0.000000 # C 1
70 1 1 0.000000 15.986793 7.809983 0.000000 # C 1
71 1 1 0.000000 14.757039 7.099985 0.000000 # C 1
72 1 1 0.000000 15.986793 4.969989 0.000000 # C 1
73 1 1 0.000000 17.216545 5.679988 0.000000 # C 1
74 1 1 0.000000 18.446299 7.809983 0.000000 # C 1
75 1 1 0.000000 17.216545 7.099985 0.000000 # C 1
76 1 1 0.000000 18.446299 4.969989 0.000000 # C 1
77 1 1 0.000000 19.676052 5.679988 0.000000 # C 1
78 1 1 0.000000 20.905806 7.809983 0.000000 # C 1
79 1 1 0.000000 19.676052 7.099985 0.000000 # C 1
80 1 1 0.000000 20.905806 4.969989 0.000000 # C 1
81 1 1 0.000000 22.135559 5.679988 0.000000 # C 1
82 1 1 0.000000 23.365313 7.809983 0.000000 # C 1
83 1 1 0.000000 22.135559 7.099985 0.000000 # C 1
84 1 1 0.000000 23.365313 4.969989 0.000000 # C 1
85 1 1 0.000000 24.595066 5.679988 0.000000 # C 1
86 1 1 0.000000 25.824820 7.809983 0.000000 # C 1
87 1 1 0.000000 24.595066 7.099985 0.000000 # C 1
88 1 1 0.000000 25.824820 4.969989 0.000000 # C 1
89 1 1 0.000000 -0.000000 9.939979 0.000000 # C 1
90 1 1 0.000000 1.229753 12.069974 0.000000 # C 1
91 1 1 0.000000 -0.000000 11.359976 0.000000 # C 1
92 1 1 0.000000 1.229753 9.229980 0.000000 # C 1
93 1 1 0.000000 2.459507 9.939979 0.000000 # C 1
94 1 1 0.000000 3.689260 12.069974 0.000000 # C 1
95 1 1 0.000000 2.459507 11.359976 0.000000 # C 1
96 1 1 0.000000 3.689260 9.229980 0.000000 # C 1
97 1 1 0.000000 4.919013 9.939979 0.000000 # C 1
98 1 1 0.000000 6.148767 12.069974 0.000000 # C 1
99 1 1 0.000000 4.919013 11.359976 0.000000 # C 1
100 1 1 0.000000 6.148767 9.229980 0.000000 # C 1
101 1 1 0.000000 7.378520 9.939979 0.000000 # C 1
102 1 1 0.000000 8.608273 12.069974 0.000000 # C 1
103 1 1 0.000000 7.378520 11.359976 0.000000 # C 1
104 1 1 0.000000 8.608273 9.229980 0.000000 # C 1
105 1 1 0.000000 9.838026 9.939979 0.000000 # C 1
106 1 1 0.000000 11.067780 12.069974 0.000000 # C 1
107 1 1 0.000000 9.838026 11.359976 0.000000 # C 1
108 1 1 0.000000 11.067780 9.229980 0.000000 # C 1
109 1 1 0.000000 12.297533 9.939979 0.000000 # C 1
110 1 1 0.000000 13.527287 12.069974 0.000000 # C 1
111 1 1 0.000000 12.297533 11.359976 0.000000 # C 1
112 1 1 0.000000 13.527287 9.229980 0.000000 # C 1
113 1 1 0.000000 14.757039 9.939979 0.000000 # C 1
114 1 1 0.000000 15.986793 12.069974 0.000000 # C 1
115 1 1 0.000000 14.757039 11.359976 0.000000 # C 1
116 1 1 0.000000 15.986793 9.229980 0.000000 # C 1
117 1 1 0.000000 17.216545 9.939979 0.000000 # C 1
118 1 1 0.000000 18.446299 12.069974 0.000000 # C 1
119 1 1 0.000000 17.216545 11.359976 0.000000 # C 1
120 1 1 0.000000 18.446299 9.229980 0.000000 # C 1
121 1 1 0.000000 19.676052 9.939979 0.000000 # C 1
122 1 1 0.000000 20.905806 12.069974 0.000000 # C 1
123 1 1 0.000000 19.676052 11.359976 0.000000 # C 1
124 1 1 0.000000 20.905806 9.229980 0.000000 # C 1
125 1 1 0.000000 22.135559 9.939979 0.000000 # C 1
126 1 1 0.000000 23.365313 12.069974 0.000000 # C 1
127 1 1 0.000000 22.135559 11.359976 0.000000 # C 1
128 1 1 0.000000 23.365313 9.229980 0.000000 # C 1
129 1 1 0.000000 24.595066 9.939979 0.000000 # C 1
130 1 1 0.000000 25.824820 12.069974 0.000000 # C 1
131 1 1 0.000000 24.595066 11.359976 0.000000 # C 1
132 1 1 0.000000 25.824820 9.229980 0.000000 # C 1
133 1 1 0.000000 -0.000000 14.199969 0.000000 # C 1
134 1 1 0.000000 1.229753 16.329966 0.000000 # C 1
135 1 1 0.000000 -0.000000 15.619967 0.000000 # C 1
136 1 1 0.000000 1.229753 13.489971 0.000000 # C 1
137 1 1 0.000000 2.459507 14.199969 0.000000 # C 1
138 1 1 0.000000 3.689260 16.329966 0.000000 # C 1
139 1 1 0.000000 2.459507 15.619967 0.000000 # C 1
140 1 1 0.000000 3.689260 13.489971 0.000000 # C 1
141 1 1 0.000000 4.919013 14.199969 0.000000 # C 1
142 1 1 0.000000 6.148767 16.329966 0.000000 # C 1
143 1 1 0.000000 4.919013 15.619967 0.000000 # C 1
144 1 1 0.000000 6.148767 13.489971 0.000000 # C 1
145 1 1 0.000000 7.378520 14.199969 0.000000 # C 1
146 1 1 0.000000 8.608273 16.329966 0.000000 # C 1
147 1 1 0.000000 7.378520 15.619967 0.000000 # C 1
148 1 1 0.000000 8.608273 13.489971 0.000000 # C 1
149 1 1 0.000000 9.838026 14.199969 0.000000 # C 1
150 1 1 0.000000 11.067780 16.329966 0.000000 # C 1
151 1 1 0.000000 9.838026 15.619967 0.000000 # C 1
152 1 1 0.000000 11.067780 13.489971 0.000000 # C 1
153 1 1 0.000000 12.297533 14.199969 0.000000 # C 1
154 1 1 0.000000 13.527287 16.329966 0.000000 # C 1
155 1 1 0.000000 12.297533 15.619967 0.000000 # C 1
156 1 1 0.000000 13.527287 13.489971 0.000000 # C 1
157 1 1 0.000000 14.757039 14.199969 0.000000 # C 1
158 1 1 0.000000 15.986793 16.329966 0.000000 # C 1
159 1 1 0.000000 14.757039 15.619967 0.000000 # C 1
160 1 1 0.000000 15.986793 13.489971 0.000000 # C 1
161 1 1 0.000000 17.216545 14.199969 0.000000 # C 1
162 1 1 0.000000 18.446299 16.329966 0.000000 # C 1
163 1 1 0.000000 17.216545 15.619967 0.000000 # C 1
164 1 1 0.000000 18.446299 13.489971 0.000000 # C 1
165 1 1 0.000000 19.676052 14.199969 0.000000 # C 1
166 1 1 0.000000 20.905806 16.329966 0.000000 # C 1
167 1 1 0.000000 19.676052 15.619967 0.000000 # C 1
168 1 1 0.000000 20.905806 13.489971 0.000000 # C 1
169 1 1 0.000000 22.135559 14.199969 0.000000 # C 1
170 1 1 0.000000 23.365313 16.329966 0.000000 # C 1
171 1 1 0.000000 22.135559 15.619967 0.000000 # C 1
172 1 1 0.000000 23.365313 13.489971 0.000000 # C 1
173 1 1 0.000000 24.595066 14.199969 0.000000 # C 1
174 1 1 0.000000 25.824820 16.329966 0.000000 # C 1
175 1 1 0.000000 24.595066 15.619967 0.000000 # C 1
176 1 1 0.000000 25.824820 13.489971 0.000000 # C 1
177 1 1 0.000000 -0.000000 18.459961 0.000000 # C 1
178 1 1 0.000000 1.229753 20.589956 0.000000 # C 1
179 1 1 0.000000 -0.000000 19.879957 0.000000 # C 1
180 1 1 0.000000 1.229753 17.749962 0.000000 # C 1
181 1 1 0.000000 2.459507 18.459961 0.000000 # C 1
182 1 1 0.000000 3.689260 20.589956 0.000000 # C 1
183 1 1 0.000000 2.459507 19.879957 0.000000 # C 1
184 1 1 0.000000 3.689260 17.749962 0.000000 # C 1
185 1 1 0.000000 4.919013 18.459961 0.000000 # C 1
186 1 1 0.000000 6.148767 20.589956 0.000000 # C 1
187 1 1 0.000000 4.919013 19.879957 0.000000 # C 1
188 1 1 0.000000 6.148767 17.749962 0.000000 # C 1
189 1 1 0.000000 7.378520 18.459961 0.000000 # C 1
190 1 1 0.000000 8.608273 20.589956 0.000000 # C 1
191 1 1 0.000000 7.378520 19.879957 0.000000 # C 1
192 1 1 0.000000 8.608273 17.749962 0.000000 # C 1
193 1 1 0.000000 9.838026 18.459961 0.000000 # C 1
194 1 1 0.000000 11.067780 20.589956 0.000000 # C 1
195 1 1 0.000000 9.838026 19.879957 0.000000 # C 1
196 1 1 0.000000 11.067780 17.749962 0.000000 # C 1
197 1 1 0.000000 12.297533 18.459961 0.000000 # C 1
198 1 1 0.000000 13.527287 20.589956 0.000000 # C 1
199 1 1 0.000000 12.297533 19.879957 0.000000 # C 1
200 1 1 0.000000 13.527287 17.749962 0.000000 # C 1
201 1 1 0.000000 14.757039 18.459961 0.000000 # C 1
202 1 1 0.000000 15.986793 20.589956 0.000000 # C 1
203 1 1 0.000000 14.757039 19.879957 0.000000 # C 1
204 1 1 0.000000 15.986793 17.749962 0.000000 # C 1
205 1 1 0.000000 17.216545 18.459961 0.000000 # C 1
206 1 1 0.000000 18.446299 20.589956 0.000000 # C 1
207 1 1 0.000000 17.216545 19.879957 0.000000 # C 1
208 1 1 0.000000 18.446299 17.749962 0.000000 # C 1
209 1 1 0.000000 19.676052 18.459961 0.000000 # C 1
210 1 1 0.000000 20.905806 20.589956 0.000000 # C 1
211 1 1 0.000000 19.676052 19.879957 0.000000 # C 1
212 1 1 0.000000 20.905806 17.749962 0.000000 # C 1
213 1 1 0.000000 22.135559 18.459961 0.000000 # C 1
214 1 1 0.000000 23.365313 20.589956 0.000000 # C 1
215 1 1 0.000000 22.135559 19.879957 0.000000 # C 1
216 1 1 0.000000 23.365313 17.749962 0.000000 # C 1
217 1 1 0.000000 24.595066 18.459961 0.000000 # C 1
218 1 1 0.000000 25.824820 20.589956 0.000000 # C 1
219 1 1 0.000000 24.595066 19.879957 0.000000 # C 1
220 1 1 0.000000 25.824820 17.749962 0.000000 # C 1
221 1 1 0.000000 -0.000000 22.719952 0.000000 # C 1
222 1 1 0.000000 1.229753 24.849947 0.000000 # C 1
223 1 1 0.000000 -0.000000 24.139948 0.000000 # C 1
224 1 1 0.000000 1.229753 22.009953 0.000000 # C 1
225 1 1 0.000000 2.459507 22.719952 0.000000 # C 1
226 1 1 0.000000 3.689260 24.849947 0.000000 # C 1
227 1 1 0.000000 2.459507 24.139948 0.000000 # C 1
228 1 1 0.000000 3.689260 22.009953 0.000000 # C 1
229 1 1 0.000000 4.919013 22.719952 0.000000 # C 1
230 1 1 0.000000 6.148767 24.849947 0.000000 # C 1
231 1 1 0.000000 4.919013 24.139948 0.000000 # C 1
232 1 1 0.000000 6.148767 22.009953 0.000000 # C 1
233 1 1 0.000000 7.378520 22.719952 0.000000 # C 1
234 1 1 0.000000 8.608273 24.849947 0.000000 # C 1
235 1 1 0.000000 7.378520 24.139948 0.000000 # C 1
236 1 1 0.000000 8.608273 22.009953 0.000000 # C 1
237 1 1 0.000000 9.838026 22.719952 0.000000 # C 1
238 1 1 0.000000 11.067780 24.849947 0.000000 # C 1
239 1 1 0.000000 9.838026 24.139948 0.000000 # C 1
240 1 1 0.000000 11.067780 22.009953 0.000000 # C 1
241 1 1 0.000000 12.297533 22.719952 0.000000 # C 1
242 1 1 0.000000 13.527287 24.849947 0.000000 # C 1
243 1 1 0.000000 12.297533 24.139948 0.000000 # C 1
244 1 1 0.000000 13.527287 22.009953 0.000000 # C 1
245 1 1 0.000000 14.757039 22.719952 0.000000 # C 1
246 1 1 0.000000 15.986793 24.849947 0.000000 # C 1
247 1 1 0.000000 14.757039 24.139948 0.000000 # C 1
248 1 1 0.000000 15.986793 22.009953 0.000000 # C 1
249 1 1 0.000000 17.216545 22.719952 0.000000 # C 1
250 1 1 0.000000 18.446299 24.849947 0.000000 # C 1
251 1 1 0.000000 17.216545 24.139948 0.000000 # C 1
252 1 1 0.000000 18.446299 22.009953 0.000000 # C 1
253 1 1 0.000000 19.676052 22.719952 0.000000 # C 1
254 1 1 0.000000 20.905806 24.849947 0.000000 # C 1
255 1 1 0.000000 19.676052 24.139948 0.000000 # C 1
256 1 1 0.000000 20.905806 22.009953 0.000000 # C 1
257 1 1 0.000000 22.135559 22.719952 0.000000 # C 1
258 1 1 0.000000 23.365313 24.849947 0.000000 # C 1
259 1 1 0.000000 22.135559 24.139948 0.000000 # C 1
260 1 1 0.000000 23.365313 22.009953 0.000000 # C 1
261 1 1 0.000000 24.595066 22.719952 0.000000 # C 1
262 1 1 0.000000 25.824820 24.849947 0.000000 # C 1
263 1 1 0.000000 24.595066 24.139948 0.000000 # C 1
264 1 1 0.000000 25.824820 22.009953 0.000000 # C 1
265 1 1 0.000000 -0.000000 26.979942 0.000000 # C 1
266 1 1 0.000000 1.229753 29.109938 0.000000 # C 1
267 1 1 0.000000 -0.000000 28.399939 0.000000 # C 1
268 1 1 0.000000 1.229753 26.269943 0.000000 # C 1
269 1 1 0.000000 2.459507 26.979942 0.000000 # C 1
270 1 1 0.000000 3.689260 29.109938 0.000000 # C 1
271 1 1 0.000000 2.459507 28.399939 0.000000 # C 1
272 1 1 0.000000 3.689260 26.269943 0.000000 # C 1
273 1 1 0.000000 4.919013 26.979942 0.000000 # C 1
274 1 1 0.000000 6.148767 29.109938 0.000000 # C 1
275 1 1 0.000000 4.919013 28.399939 0.000000 # C 1
276 1 1 0.000000 6.148767 26.269943 0.000000 # C 1
277 1 1 0.000000 7.378520 26.979942 0.000000 # C 1
278 1 1 0.000000 8.608273 29.109938 0.000000 # C 1
279 1 1 0.000000 7.378520 28.399939 0.000000 # C 1
280 1 1 0.000000 8.608273 26.269943 0.000000 # C 1
281 1 1 0.000000 9.838026 26.979942 0.000000 # C 1
282 1 1 0.000000 11.067780 29.109938 0.000000 # C 1
283 1 1 0.000000 9.838026 28.399939 0.000000 # C 1
284 1 1 0.000000 11.067780 26.269943 0.000000 # C 1
285 1 1 0.000000 12.297533 26.979942 0.000000 # C 1
286 1 1 0.000000 13.527287 29.109938 0.000000 # C 1
287 1 1 0.000000 12.297533 28.399939 0.000000 # C 1
288 1 1 0.000000 13.527287 26.269943 0.000000 # C 1
289 1 1 0.000000 14.757039 26.979942 0.000000 # C 1
290 1 1 0.000000 15.986793 29.109938 0.000000 # C 1
291 1 1 0.000000 14.757039 28.399939 0.000000 # C 1
292 1 1 0.000000 15.986793 26.269943 0.000000 # C 1
293 1 1 0.000000 17.216545 26.979942 0.000000 # C 1
294 1 1 0.000000 18.446299 29.109938 0.000000 # C 1
295 1 1 0.000000 17.216545 28.399939 0.000000 # C 1
296 1 1 0.000000 18.446299 26.269943 0.000000 # C 1
297 1 1 0.000000 19.676052 26.979942 0.000000 # C 1
298 1 1 0.000000 20.905806 29.109938 0.000000 # C 1
299 1 1 0.000000 19.676052 28.399939 0.000000 # C 1
300 1 1 0.000000 20.905806 26.269943 0.000000 # C 1
301 1 1 0.000000 22.135559 26.979942 0.000000 # C 1
302 1 1 0.000000 23.365313 29.109938 0.000000 # C 1
303 1 1 0.000000 22.135559 28.399939 0.000000 # C 1
304 1 1 0.000000 23.365313 26.269943 0.000000 # C 1
305 1 1 0.000000 24.595066 26.979942 0.000000 # C 1
306 1 1 0.000000 25.824820 29.109938 0.000000 # C 1
307 1 1 0.000000 24.595066 28.399939 0.000000 # C 1
308 1 1 0.000000 25.824820 26.269943 0.000000 # C 1
309 1 1 0.000000 -0.000000 31.239933 0.000000 # C 1
310 1 1 0.000000 1.229753 33.369926 0.000000 # C 1
311 1 1 0.000000 -0.000000 32.659931 0.000000 # C 1
312 1 1 0.000000 1.229753 30.529934 0.000000 # C 1
313 1 1 0.000000 2.459507 31.239933 0.000000 # C 1
314 1 1 0.000000 3.689260 33.369926 0.000000 # C 1
315 1 1 0.000000 2.459507 32.659931 0.000000 # C 1
316 1 1 0.000000 3.689260 30.529934 0.000000 # C 1
317 1 1 0.000000 4.919013 31.239933 0.000000 # C 1
318 1 1 0.000000 6.148767 33.369926 0.000000 # C 1
319 1 1 0.000000 4.919013 32.659931 0.000000 # C 1
320 1 1 0.000000 6.148767 30.529934 0.000000 # C 1
321 1 1 0.000000 7.378520 31.239933 0.000000 # C 1
322 1 1 0.000000 8.608273 33.369926 0.000000 # C 1
323 1 1 0.000000 7.378520 32.659931 0.000000 # C 1
324 1 1 0.000000 8.608273 30.529934 0.000000 # C 1
325 1 1 0.000000 9.838026 31.239933 0.000000 # C 1
326 1 1 0.000000 11.067780 33.369926 0.000000 # C 1
327 1 1 0.000000 9.838026 32.659931 0.000000 # C 1
328 1 1 0.000000 11.067780 30.529934 0.000000 # C 1
329 1 1 0.000000 12.297533 31.239933 0.000000 # C 1
330 1 1 0.000000 13.527287 33.369926 0.000000 # C 1
331 1 1 0.000000 12.297533 32.659931 0.000000 # C 1
332 1 1 0.000000 13.527287 30.529934 0.000000 # C 1
333 1 1 0.000000 14.757039 31.239933 0.000000 # C 1
334 1 1 0.000000 15.986793 33.369926 0.000000 # C 1
335 1 1 0.000000 14.757039 32.659931 0.000000 # C 1
336 1 1 0.000000 15.986793 30.529934 0.000000 # C 1
337 1 1 0.000000 17.216545 31.239933 0.000000 # C 1
338 1 1 0.000000 18.446299 33.369926 0.000000 # C 1
339 1 1 0.000000 17.216545 32.659931 0.000000 # C 1
340 1 1 0.000000 18.446299 30.529934 0.000000 # C 1
341 1 1 0.000000 19.676052 31.239933 0.000000 # C 1
342 1 1 0.000000 20.905806 33.369926 0.000000 # C 1
343 1 1 0.000000 19.676052 32.659931 0.000000 # C 1
344 1 1 0.000000 20.905806 30.529934 0.000000 # C 1
345 1 1 0.000000 22.135559 31.239933 0.000000 # C 1
346 1 1 0.000000 23.365313 33.369926 0.000000 # C 1
347 1 1 0.000000 22.135559 32.659931 0.000000 # C 1
348 1 1 0.000000 23.365313 30.529934 0.000000 # C 1
349 1 1 0.000000 24.595066 31.239933 0.000000 # C 1
350 1 1 0.000000 25.824820 33.369926 0.000000 # C 1
351 1 1 0.000000 24.595066 32.659931 0.000000 # C 1
352 1 1 0.000000 25.824820 30.529934 0.000000 # C 1
353 1 1 0.000000 -0.000000 35.499924 0.000000 # C 1
354 1 1 0.000000 1.229753 37.629917 0.000000 # C 1
355 1 1 0.000000 -0.000000 36.919922 0.000000 # C 1
356 1 1 0.000000 1.229753 34.789925 0.000000 # C 1
357 1 1 0.000000 2.459507 35.499924 0.000000 # C 1
358 1 1 0.000000 3.689260 37.629917 0.000000 # C 1
359 1 1 0.000000 2.459507 36.919922 0.000000 # C 1
360 1 1 0.000000 3.689260 34.789925 0.000000 # C 1
361 1 1 0.000000 4.919013 35.499924 0.000000 # C 1
362 1 1 0.000000 6.148767 37.629917 0.000000 # C 1
363 1 1 0.000000 4.919013 36.919922 0.000000 # C 1
364 1 1 0.000000 6.148767 34.789925 0.000000 # C 1
365 1 1 0.000000 7.378520 35.499924 0.000000 # C 1
366 1 1 0.000000 8.608273 37.629917 0.000000 # C 1
367 1 1 0.000000 7.378520 36.919922 0.000000 # C 1
368 1 1 0.000000 8.608273 34.789925 0.000000 # C 1
369 1 1 0.000000 9.838026 35.499924 0.000000 # C 1
370 1 1 0.000000 11.067780 37.629917 0.000000 # C 1
371 1 1 0.000000 9.838026 36.919922 0.000000 # C 1
372 1 1 0.000000 11.067780 34.789925 0.000000 # C 1
373 1 1 0.000000 12.297533 35.499924 0.000000 # C 1
374 1 1 0.000000 13.527287 37.629917 0.000000 # C 1
375 1 1 0.000000 12.297533 36.919922 0.000000 # C 1
376 1 1 0.000000 13.527287 34.789925 0.000000 # C 1
377 1 1 0.000000 14.757039 35.499924 0.000000 # C 1
378 1 1 0.000000 15.986793 37.629917 0.000000 # C 1
379 1 1 0.000000 14.757039 36.919922 0.000000 # C 1
380 1 1 0.000000 15.986793 34.789925 0.000000 # C 1
381 1 1 0.000000 17.216545 35.499924 0.000000 # C 1
382 1 1 0.000000 18.446299 37.629917 0.000000 # C 1
383 1 1 0.000000 17.216545 36.919922 0.000000 # C 1
384 1 1 0.000000 18.446299 34.789925 0.000000 # C 1
385 1 1 0.000000 19.676052 35.499924 0.000000 # C 1
386 1 1 0.000000 20.905806 37.629917 0.000000 # C 1
387 1 1 0.000000 19.676052 36.919922 0.000000 # C 1
388 1 1 0.000000 20.905806 34.789925 0.000000 # C 1
389 1 1 0.000000 22.135559 35.499924 0.000000 # C 1
390 1 1 0.000000 23.365313 37.629917 0.000000 # C 1
391 1 1 0.000000 22.135559 36.919922 0.000000 # C 1
392 1 1 0.000000 23.365313 34.789925 0.000000 # C 1
393 1 1 0.000000 24.595066 35.499924 0.000000 # C 1
394 1 1 0.000000 25.824820 37.629917 0.000000 # C 1
395 1 1 0.000000 24.595066 36.919922 0.000000 # C 1
396 1 1 0.000000 25.824820 34.789925 0.000000 # C 1
397 1 1 0.000000 -0.000000 39.759914 0.000000 # C 1
398 1 1 0.000000 1.229753 41.889908 0.000000 # C 1
399 1 1 0.000000 -0.000000 41.179913 0.000000 # C 1
400 1 1 0.000000 1.229753 39.049915 0.000000 # C 1
401 1 1 0.000000 2.459507 39.759914 0.000000 # C 1
402 1 1 0.000000 3.689260 41.889908 0.000000 # C 1
403 1 1 0.000000 2.459507 41.179913 0.000000 # C 1
404 1 1 0.000000 3.689260 39.049915 0.000000 # C 1
405 1 1 0.000000 4.919013 39.759914 0.000000 # C 1
406 1 1 0.000000 6.148767 41.889908 0.000000 # C 1
407 1 1 0.000000 4.919013 41.179913 0.000000 # C 1
408 1 1 0.000000 6.148767 39.049915 0.000000 # C 1
409 1 1 0.000000 7.378520 39.759914 0.000000 # C 1
410 1 1 0.000000 8.608273 41.889908 0.000000 # C 1
411 1 1 0.000000 7.378520 41.179913 0.000000 # C 1
412 1 1 0.000000 8.608273 39.049915 0.000000 # C 1
413 1 1 0.000000 9.838026 39.759914 0.000000 # C 1
414 1 1 0.000000 11.067780 41.889908 0.000000 # C 1
415 1 1 0.000000 9.838026 41.179913 0.000000 # C 1
416 1 1 0.000000 11.067780 39.049915 0.000000 # C 1
417 1 1 0.000000 12.297533 39.759914 0.000000 # C 1
418 1 1 0.000000 13.527287 41.889908 0.000000 # C 1
419 1 1 0.000000 12.297533 41.179913 0.000000 # C 1
420 1 1 0.000000 13.527287 39.049915 0.000000 # C 1
421 1 1 0.000000 14.757039 39.759914 0.000000 # C 1
422 1 1 0.000000 15.986793 41.889908 0.000000 # C 1
423 1 1 0.000000 14.757039 41.179913 0.000000 # C 1
424 1 1 0.000000 15.986793 39.049915 0.000000 # C 1
425 1 1 0.000000 17.216545 39.759914 0.000000 # C 1
426 1 1 0.000000 18.446299 41.889908 0.000000 # C 1
427 1 1 0.000000 17.216545 41.179913 0.000000 # C 1
428 1 1 0.000000 18.446299 39.049915 0.000000 # C 1
429 1 1 0.000000 19.676052 39.759914 0.000000 # C 1
430 1 1 0.000000 20.905806 41.889908 0.000000 # C 1
431 1 1 0.000000 19.676052 41.179913 0.000000 # C 1
432 1 1 0.000000 20.905806 39.049915 0.000000 # C 1
433 1 1 0.000000 22.135559 39.759914 0.000000 # C 1
434 1 1 0.000000 23.365313 41.889908 0.000000 # C 1
435 1 1 0.000000 22.135559 41.179913 0.000000 # C 1
436 1 1 0.000000 23.365313 39.049915 0.000000 # C 1
437 1 1 0.000000 24.595066 39.759914 0.000000 # C 1
438 1 1 0.000000 25.824820 41.889908 0.000000 # C 1
439 1 1 0.000000 24.595066 41.179913 0.000000 # C 1
440 1 1 0.000000 25.824820 39.049915 0.000000 # C 1
441 1 1 0.000000 -0.000000 44.019905 0.000000 # C 1
442 1 1 0.000000 1.229753 46.149899 0.000000 # C 1
443 1 1 0.000000 -0.000000 45.439903 0.000000 # C 1
444 1 1 0.000000 1.229753 43.309906 0.000000 # C 1
445 1 1 0.000000 2.459507 44.019905 0.000000 # C 1
446 1 1 0.000000 3.689260 46.149899 0.000000 # C 1
447 1 1 0.000000 2.459507 45.439903 0.000000 # C 1
448 1 1 0.000000 3.689260 43.309906 0.000000 # C 1
449 1 1 0.000000 4.919013 44.019905 0.000000 # C 1
450 1 1 0.000000 6.148767 46.149899 0.000000 # C 1
451 1 1 0.000000 4.919013 45.439903 0.000000 # C 1
452 1 1 0.000000 6.148767 43.309906 0.000000 # C 1
453 1 1 0.000000 7.378520 44.019905 0.000000 # C 1
454 1 1 0.000000 8.608273 46.149899 0.000000 # C 1
455 1 1 0.000000 7.378520 45.439903 0.000000 # C 1
456 1 1 0.000000 8.608273 43.309906 0.000000 # C 1
457 1 1 0.000000 9.838026 44.019905 0.000000 # C 1
458 1 1 0.000000 11.067780 46.149899 0.000000 # C 1
459 1 1 0.000000 9.838026 45.439903 0.000000 # C 1
460 1 1 0.000000 11.067780 43.309906 0.000000 # C 1
461 1 1 0.000000 12.297533 44.019905 0.000000 # C 1
462 1 1 0.000000 13.527287 46.149899 0.000000 # C 1
463 1 1 0.000000 12.297533 45.439903 0.000000 # C 1
464 1 1 0.000000 13.527287 43.309906 0.000000 # C 1
465 1 1 0.000000 14.757039 44.019905 0.000000 # C 1
466 1 1 0.000000 15.986793 46.149899 0.000000 # C 1
467 1 1 0.000000 14.757039 45.439903 0.000000 # C 1
468 1 1 0.000000 15.986793 43.309906 0.000000 # C 1
469 1 1 0.000000 17.216545 44.019905 0.000000 # C 1
470 1 1 0.000000 18.446299 46.149899 0.000000 # C 1
471 1 1 0.000000 17.216545 45.439903 0.000000 # C 1
472 1 1 0.000000 18.446299 43.309906 0.000000 # C 1
473 1 1 0.000000 19.676052 44.019905 0.000000 # C 1
474 1 1 0.000000 20.905806 46.149899 0.000000 # C 1
475 1 1 0.000000 19.676052 45.439903 0.000000 # C 1
476 1 1 0.000000 20.905806 43.309906 0.000000 # C 1
477 1 1 0.000000 22.135559 44.019905 0.000000 # C 1
478 1 1 0.000000 23.365313 46.149899 0.000000 # C 1
479 1 1 0.000000 22.135559 45.439903 0.000000 # C 1
480 1 1 0.000000 23.365313 43.309906 0.000000 # C 1
481 1 1 0.000000 24.595066 44.019905 0.000000 # C 1
482 1 1 0.000000 25.824820 46.149899 0.000000 # C 1
483 1 1 0.000000 24.595066 45.439903 0.000000 # C 1
484 1 1 0.000000 25.824820 43.309906 0.000000 # C 1
485 1 1 0.000000 -0.000000 48.279896 0.000000 # C 1
486 1 1 0.000000 1.229753 50.409889 0.000000 # C 1
487 1 1 0.000000 -0.000000 49.699894 0.000000 # C 1
488 1 1 0.000000 1.229753 47.569897 0.000000 # C 1
489 1 1 0.000000 2.459507 48.279896 0.000000 # C 1
490 1 1 0.000000 3.689260 50.409889 0.000000 # C 1
491 1 1 0.000000 2.459507 49.699894 0.000000 # C 1
492 1 1 0.000000 3.689260 47.569897 0.000000 # C 1
493 1 1 0.000000 4.919013 48.279896 0.000000 # C 1
494 1 1 0.000000 6.148767 50.409889 0.000000 # C 1
495 1 1 0.000000 4.919013 49.699894 0.000000 # C 1
496 1 1 0.000000 6.148767 47.569897 0.000000 # C 1
497 1 1 0.000000 7.378520 48.279896 0.000000 # C 1
498 1 1 0.000000 8.608273 50.409889 0.000000 # C 1
499 1 1 0.000000 7.378520 49.699894 0.000000 # C 1
500 1 1 0.000000 8.608273 47.569897 0.000000 # C 1
501 1 1 0.000000 9.838026 48.279896 0.000000 # C 1
502 1 1 0.000000 11.067780 50.409889 0.000000 # C 1
503 1 1 0.000000 9.838026 49.699894 0.000000 # C 1
504 1 1 0.000000 11.067780 47.569897 0.000000 # C 1
505 1 1 0.000000 12.297533 48.279896 0.000000 # C 1
506 1 1 0.000000 13.527287 50.409889 0.000000 # C 1
507 1 1 0.000000 12.297533 49.699894 0.000000 # C 1
508 1 1 0.000000 13.527287 47.569897 0.000000 # C 1
509 1 1 0.000000 14.757039 48.279896 0.000000 # C 1
510 1 1 0.000000 15.986793 50.409889 0.000000 # C 1
511 1 1 0.000000 14.757039 49.699894 0.000000 # C 1
512 1 1 0.000000 15.986793 47.569897 0.000000 # C 1
513 1 1 0.000000 17.216545 48.279896 0.000000 # C 1
514 1 1 0.000000 18.446299 50.409889 0.000000 # C 1
515 1 1 0.000000 17.216545 49.699894 0.000000 # C 1
516 1 1 0.000000 18.446299 47.569897 0.000000 # C 1
517 1 1 0.000000 19.676052 48.279896 0.000000 # C 1
518 1 1 0.000000 20.905806 50.409889 0.000000 # C 1
519 1 1 0.000000 19.676052 49.699894 0.000000 # C 1
520 1 1 0.000000 20.905806 47.569897 0.000000 # C 1
521 1 1 0.000000 22.135559 48.279896 0.000000 # C 1
522 1 1 0.000000 23.365313 50.409889 0.000000 # C 1
523 1 1 0.000000 22.135559 49.699894 0.000000 # C 1
524 1 1 0.000000 23.365313 47.569897 0.000000 # C 1
525 1 1 0.000000 24.595066 48.279896 0.000000 # C 1
526 1 1 0.000000 25.824820 50.409889 0.000000 # C 1
527 1 1 0.000000 24.595066 49.699894 0.000000 # C 1
528 1 1 0.000000 25.824820 47.569897 0.000000 # C 1
529 1 1 0.000000 -0.000000 52.539886 0.000000 # C 1
530 1 1 0.000000 1.229753 54.669880 0.000000 # C 1
531 1 1 0.000000 -0.000000 53.959885 0.000000 # C 1
532 1 1 0.000000 1.229753 51.829887 0.000000 # C 1
533 1 1 0.000000 2.459507 52.539886 0.000000 # C 1
534 1 1 0.000000 3.689260 54.669880 0.000000 # C 1
535 1 1 0.000000 2.459507 53.959885 0.000000 # C 1
536 1 1 0.000000 3.689260 51.829887 0.000000 # C 1
537 1 1 0.000000 4.919013 52.539886 0.000000 # C 1
538 1 1 0.000000 6.148767 54.669880 0.000000 # C 1
539 1 1 0.000000 4.919013 53.959885 0.000000 # C 1
540 1 1 0.000000 6.148767 51.829887 0.000000 # C 1
541 1 1 0.000000 7.378520 52.539886 0.000000 # C 1
542 1 1 0.000000 8.608273 54.669880 0.000000 # C 1
543 1 1 0.000000 7.378520 53.959885 0.000000 # C 1
544 1 1 0.000000 8.608273 51.829887 0.000000 # C 1
545 1 1 0.000000 9.838026 52.539886 0.000000 # C 1
546 1 1 0.000000 11.067780 54.669880 0.000000 # C 1
547 1 1 0.000000 9.838026 53.959885 0.000000 # C 1
548 1 1 0.000000 11.067780 51.829887 0.000000 # C 1
549 1 1 0.000000 12.297533 52.539886 0.000000 # C 1
550 1 1 0.000000 13.527287 54.669880 0.000000 # C 1
551 1 1 0.000000 12.297533 53.959885 0.000000 # C 1
552 1 1 0.000000 13.527287 51.829887 0.000000 # C 1
553 1 1 0.000000 14.757039 52.539886 0.000000 # C 1
554 1 1 0.000000 15.986793 54.669880 0.000000 # C 1
555 1 1 0.000000 14.757039 53.959885 0.000000 # C 1
556 1 1 0.000000 15.986793 51.829887 0.000000 # C 1
557 1 1 0.000000 17.216545 52.539886 0.000000 # C 1
558 1 1 0.000000 18.446299 54.669880 0.000000 # C 1
559 1 1 0.000000 17.216545 53.959885 0.000000 # C 1
560 1 1 0.000000 18.446299 51.829887 0.000000 # C 1
561 1 1 0.000000 19.676052 52.539886 0.000000 # C 1
562 1 1 0.000000 20.905806 54.669880 0.000000 # C 1
563 1 1 0.000000 19.676052 53.959885 0.000000 # C 1
564 1 1 0.000000 20.905806 51.829887 0.000000 # C 1
565 1 1 0.000000 22.135559 52.539886 0.000000 # C 1
566 1 1 0.000000 23.365313 54.669880 0.000000 # C 1
567 1 1 0.000000 22.135559 53.959885 0.000000 # C 1
568 1 1 0.000000 23.365313 51.829887 0.000000 # C 1
569 1 1 0.000000 24.595066 52.539886 0.000000 # C 1
570 1 1 0.000000 25.824820 54.669880 0.000000 # C 1
571 1 1 0.000000 24.595066 53.959885 0.000000 # C 1
572 1 1 0.000000 25.824820 51.829887 0.000000 # C 1
573 1 1 0.000000 -0.000000 56.799877 0.000000 # C 1
574 1 1 0.000000 1.229753 58.929871 0.000000 # C 1
575 1 1 0.000000 -0.000000 58.219875 0.000000 # C 1