# LAMMPS data file written by OVITO Basic 3.3.1
2000 atoms
1750 bonds
1500 angles
1250 dihedrals
2 atom types
1 bond types
2 angle types
2 dihedral types
5.813712 32.813712 xlo xhi
3.99361 59.99361 ylo yhi
5.49878 142.609978 zlo zhi

Masses

1 14.007  # N
2 15.999  # O

Atoms  # full

1 1 1 0.0 13.20471 46.546268 102.914574
2 1 2 0.0 14.438414 47.428085 103.085014
3 1 2 0.0 15.279362 47.008438 104.287254
4 1 2 0.0 16.513065 47.890255 104.457695
5 1 2 0.0 17.354012 47.470604 105.659927
6 1 2 0.0 18.587715 48.352421 105.830376
7 1 2 0.0 19.428663 47.93277 107.032608
8 1 1 0.0 20.662367 48.814587 107.203056
9 2 1 0.0 18.619429 27.649427 64.375641
10 2 2 0.0 17.960466 26.27667 64.475555
11 2 2 0.0 17.122314 25.953758 63.241894
12 2 2 0.0 16.463352 24.581001 63.341805
13 2 2 0.0 15.6252 24.258089 62.108147
14 2 2 0.0 14.966238 22.88533 62.208057
15 2 2 0.0 14.128086 22.56242 60.9744
16 2 1 0.0 13.469125 21.189663 61.07431
17 3 1 0.0 25.472397 34.027611 96.542595
18 3 2 0.0 26.020618 35.212585 97.332504
19 3 2 0.0 26.584425 34.786358 98.684959
20 3 2 0.0 27.132647 35.971336 99.474869
21 3 2 0.0 27.696453 35.545105 100.827324
22 3 2 0.0 28.244675 36.73008 101.617233
23 3 2 0.0 28.808481 36.303848 102.969688
24 3 1 0.0 29.356703 37.488827 103.759598
25 4 1 0.0 10.811378 20.160353 51.738815
26 4 2 0.0 11.276201 21.064144 52.877136
27 4 2 0.0 12.340761 22.0574 52.420158
28 4 2 0.0 12.805584 22.961191 53.558479
29 4 2 0.0 13.870144 23.954447 53.101501
30 4 2 0.0 14.334967 24.858238 54.239826
31 4 2 0.0 15.399527 25.851494 53.782845
32 4 1 0.0 15.864349 26.755285 54.921169
33 5 1 0.0 22.394283 17.304993 65.339584
34 5 2 0.0 21.241871 16.395302 65.755615
35 5 2 0.0 19.958332 16.714235 64.994385
36 5 2 0.0 18.805918 15.804543 65.410416
37 5 2 0.0 17.522377 16.123478 64.64917
38 5 2 0.0 16.369965 15.213786 65.065201
39 5 2 0.0 15.086426 15.532721 64.30397
40 5 1 0.0 13.934012 14.623028 64.720001
41 6 1 0.0 21.864494 29.806795 95.643394
42 6 2 0.0 23.134333 30.613363 95.387192
43 6 2 0.0 24.373186 29.923687 95.95134
44 6 2 0.0 25.643023 30.730257 95.695145
45 6 2 0.0 26.881876 30.040581 96.259293
46 6 2 0.0 28.151714 30.847151 96.003098
47 6 2 0.0 29.390568 30.157475 96.567245
48 6 1 0.0 30.660404 30.964043 96.31105
49 7 1 0.0 10.996755 48.083031 72.111336
50 7 2 0.0 11.653149 49.187462 71.287888
51 7 2 0.0 12.464713 48.626846 70.12352
52 7 2 0.0 13.121106 49.731277 69.300079
53 7 2 0.0 13.932671 49.170666 68.135712
54 7 2 0.0 14.589065 50.275093 67.312271
55 7 2 0.0 15.400629 49.714481 66.147903
56 7 1 0.0 16.057022 50.818909 65.324463
57 8 1 0.0 18.052732 28.462324 71.697678
58 8 2 0.0 18.829945 27.162897 71.887688
59 8 2 0.0 20.290855 27.3043 71.470047
60 8 2 0.0 21.068068 26.004873 71.660057
61 8 2 0.0 22.528976 26.146276 71.242416
62 8 2 0.0 23.30619 24.846848 71.432434
63 8 2 0.0 24.767099 24.988251 71.014786
64 8 1 0.0 25.544312 23.688824 71.204803
65 9 1 0.0 26.091673 47.432663 69.821228
66 9 2 0.0 25.012791 47.162495 68.776382
67 9 2 0.0 23.927153 46.228806 69.303909
68 9 2 0.0 22.84827 45.958637 68.259064
69 9 2 0.0 21.762634 45.024948 68.786606
70 9 2 0.0 20.683752 44.754784 67.74176
71 9 2 0.0 19.598114 43.821091 68.269287
72 9 1 0.0 18.519234 43.550926 67.224442
73 10 1 0.0 21.263371 26.810104 50.723053
74 10 2 0.0 22.731447 26.580599 50.375553
75 10 2 0.0 23.636147 26.717623 51.59679
76 10 2 0.0 25.104221 26.488117 51.249287
77 10 2 0.0 26.008923 26.625141 52.470524
78 10 2 0.0 27.476997 26.395636 52.12302
79 10 2 0.0 28.381697 26.53266 53.344257
80 10 1 0.0 29.849771 26.303154 52.996758
81 11 1 0.0 18.122036 28.246178 93.025795
82 11 2 0.0 17.766123 29.315931 94.054207
83 11 2 0.0 18.975531 30.162708 94.440178
84 11 2 0.0 18.619616 31.232462 95.46859
85 11 2 0.0 19.829023 32.079239 95.854568
86 11 2 0.0 19.47311 33.148994 96.882973
87 11 2 0.0 20.682518 33.995773 97.268951
88 11 1 0.0 20.326603 35.065525 98.297363
89 12 1 0.0 24.502249 46.853973 100.84465
90 12 2 0.0 23.382839 47.290367 101.785477
91 12 2 0.0 22.898087 48.704693 101.479889
92 12 2 0.0 21.778679 49.141087 102.420715
93 12 2 0.0 21.293926 50.555412 102.115135
94 12 2 0.0 20.174517 50.991806 103.055962
95 12 2 0.0 19.689766 52.406132 102.750374
96 12 1 0.0 18.570354 52.842525 103.6912
97 13 1 0.0 18.721832 45.758789 103.832726
98 13 2 0.0 19.963627 45.794712 104.718918
99 13 2 0.0 20.259115 44.434498 105.34436
100 13 2 0.0 21.500908 44.470417 106.230553
101 13 2 0.0 21.796398 43.110203 106.855995
102 13 2 0.0 23.038193 43.146126 107.742188
103 13 2 0.0 23.333679 41.785912 108.36763
104 13 1 0.0 24.575474 41.821831 109.253822
105 14 1 0.0 21.658939 22.13998 73.493423
106 14 2 0.0 20.763008 20.963078 73.868767
107 14 2 0.0 19.295631 21.238163 73.552841
108 14 2 0.0 18.3997 20.06126 73.928185
109 14 2 0.0 16.932323 20.336348 73.612259
110 14 2 0.0 16.036392 19.159445 73.987595
111 14 2 0.0 14.569016 19.434532 73.671677
112 14 1 0.0 13.673085 18.257629 74.047012
113 15 1 0.0 12.265217 8.796858 67.56366
114 15 2 0.0 13.789324 8.861496 67.523705
115 15 2 0.0 14.294495 9.741126 66.383652
116 15 2 0.0 15.818601 9.805764 66.343697
117 15 2 0.0 16.323771 10.685394 65.203644
118 15 2 0.0 17.847878 10.750032 65.163689
119 15 2 0.0 18.353048 11.629663 64.023636
120 15 1 0.0 19.877155 11.694301 63.983681
121 16 1 0.0 17.46563 45.373676 101.027275
122 16 2 0.0 16.642344 44.191238 100.524574
123 16 2 0.0 15.919744 44.511566 99.219231
124 16 2 0.0 15.096458 43.329128 98.716522
125 16 2 0.0 14.373857 43.649456 97.411186
126 16 2 0.0 13.550572 42.467018 96.908478
127 16 2 0.0 12.827971 42.787346 95.603142
128 16 1 0.0 12.004686 41.604904 95.100433
129 17 1 0.0 29.265017 40.377655 111.624878
130 17 2 0.0 28.147184 40.628326 112.632988
131 17 2 0.0 28.57037 40.273964 114.055664
132 17 2 0.0 27.452536 40.524635 115.063774
133 17 2 0.0 27.875721 40.170269 116.486458
134 17 2 0.0 26.757887 40.420944 117.494568
135 17 2 0.0 27.181072 40.066574 118.917244
136 17 1 0.0 26.06324 40.317249 119.925354
137 18 1 0.0 14.029888 12.512539 55.598671
138 18 2 0.0 13.556574 13.024904 56.955921
139 18 2 0.0 14.431652 14.162502 57.474365
140 18 2 0.0 13.958337 14.674868 58.831619
141 18 2 0.0 14.833414 15.812466 59.350063
142 18 2 0.0 14.3601 16.324831 60.707314
143 18 2 0.0 15.235178 17.462429 61.225758
144 18 1 0.0 14.761864 17.974794 62.583008
145 19 1 0.0 24.49403 34.487099 121.246445
146 19 2 0.0 24.173576 34.969345 119.834564
147 19 2 0.0 23.114635 36.068123 119.832359
148 19 2 0.0 22.794184 36.550369 118.420471
149 19 2 0.0 21.735241 37.649147 118.418266
150 19 2 0.0 21.414789 38.131397 117.006378
151 19 2 0.0 20.355848 39.230175 117.004173
152 19 1 0.0 20.035397 39.712425 115.592285
153 20 1 0.0 30.593231 47.088001 64.591003
154 20 2 0.0 30.107422 47.639748 63.253754
155 20 2 0.0 28.64102 47.305153 62.996094
156 20 2 0.0 28.15521 47.856903 61.65884
157 20 2 0.0 26.688808 47.522308 61.40118
158 20 2 0.0 26.202999 48.074055 60.063931
159 20 2 0.0 24.736597 47.73946 59.806271
160 20 1 0.0 24.250788 48.291206 58.469017
161 21 1 0.0 18.761524 42.080364 73.896057
162 21 2 0.0 18.603186 40.840309 74.771194
163 21 2 0.0 19.158642 39.589523 74.096153
164 21 2 0.0 19.000301 38.349472 74.971298
165 21 2 0.0 19.555759 37.098686 74.296265
166 21 2 0.0 19.397419 35.858631 75.171402
167 21 2 0.0 19.952877 34.607841 74.496368
168 21 1 0.0 19.794537 33.36779 75.371506
169 22 1 0.0 27.946009 51.576946 100.839874
170 22 2 0.0 26.807842 50.769089 100.222923
171 22 2 0.0 26.627436 51.076576 98.739151
172 22 2 0.0 25.489269 50.268719 98.122208
173 22 2 0.0 25.308865 50.576206 96.638435
174 22 2 0.0 24.170696 49.768349 96.021484
175 22 2 0.0 23.990292 50.075836 94.537712
176 22 1 0.0 22.852123 49.267979 93.920769
177 23 1 0.0 16.579912 53.246979 71.368423
178 23 2 0.0 15.384554 52.990879 72.281769
179 23 2 0.0 15.727177 52.028557 73.415451
180 23 2 0.0 14.53182 51.772457 74.328796
181 23 2 0.0 14.874443 50.810135 75.462471
182 23 2 0.0 13.679085 50.554035 76.375824
183 23 2 0.0 14.021708 49.591713 77.509499
184 23 1 0.0 12.826351 49.335613 78.422852
185 24 1 0.0 18.232162 32.882259 91.677727
186 24 2 0.0 17.533003 34.101742 92.271629
187 24 2 0.0 18.328976 34.713783 93.420761
188 24 2 0.0 17.629816 35.933266 94.014664
189 24 2 0.0 18.425787 36.545311 95.163795
190 24 2 0.0 17.726627 37.764793 95.757698
191 24 2 0.0 18.522598 38.376839 96.90683
192 24 1 0.0 17.823441 39.596317 97.500732
193 25 1 0.0 21.989529 50.283638 65.496094
194 25 2 0.0 21.298923 50.829594 64.249634
195 25 2 0.0 21.840115 50.194714 62.971851
196 25 2 0.0 21.149508 50.740669 61.725388
197 25 2 0.0 21.690697 50.105789 60.447613
198 25 2 0.0 21.000092 50.651745 59.201149
199 25 2 0.0 21.541281 50.016865 57.92337
200 25 1 0.0 20.850676 50.56282 56.676907
201 26 1 0.0 9.666677 22.072517 58.508862
202 26 2 0.0 9.776186 23.594576 58.513714
203 26 2 0.0 11.176264 24.065752 58.896404
204 26 2 0.0 11.285773 25.587811 58.901257
205 26 2 0.0 12.68585 26.058987 59.283947
206 26 2 0.0 12.795361 27.581045 59.288799
207 26 2 0.0 14.195438 28.052221 59.67149
208 26 1 0.0 14.304947 29.57428 59.676342
209 27 1 0.0 11.950944 32.202415 63.933964
210 27 2 0.0 13.03701 31.955091 62.890907
211 27 2 0.0 14.434713 31.986027 63.502583
212 27 2 0.0 15.520781 31.738701 62.459526
213 27 2 0.0 16.918484 31.769634 63.071201
214 27 2 0.0 18.004551 31.522308 62.028149
215 27 2 0.0 19.402252 31.553244 62.63982
216 27 1 0.0 20.488319 31.305918 61.596767
217 28 1 0.0 14.928465 32.283318 58.226727
218 28 2 0.0 13.756826 33.202991 58.558594
219 28 2 0.0 14.126724 34.242279 59.61298
220 28 2 0.0 12.955086 35.161957 59.944847
221 28 2 0.0 13.324984 36.201241 60.999233
222 28 2 0.0 12.153346 37.120918 61.3311
223 28 2 0.0 12.523244 38.160206 62.38549
224 28 1 0.0 11.351605 39.07988 62.717354
225 29 1 0.0 18.893051 30.019323 109.974258
226 29 2 0.0 18.36953 31.445202 109.827736
227 29 2 0.0 19.293007 32.46405 110.489418
228 29 2 0.0 18.769484 33.889927 110.342888
229 29 2 0.0 19.692959 34.908775 111.00457
230 29 2 0.0 19.169437 36.334652 110.858047
231 29 2 0.0 20.092913 37.3535 111.51973
232 29 1 0.0 19.569389 38.779377 111.373199
233 30 1 0.0 24.275478 39.719959 57.095955
234 30 2 0.0 25.213215 38.517036 57.047981
235 30 2 0.0 26.421789 38.76976 56.151237
236 30 2 0.0 27.359528 37.566837 56.103264
237 30 2 0.0 28.568102 37.819561 55.20652
238 30 2 0.0 29.50584 36.616638 55.158546
239 30 2 0.0 30.714415 36.869362 54.261803
240 30 1 0.0 31.652153 35.666439 54.213829
241 31 1 0.0 16.537266 22.18087 96.589439
242 31 2 0.0 17.488985 21.23563 95.861824
243 31 2 0.0 18.012308 21.84017 94.56208
244 31 2 0.0 18.964027 20.894928 93.834465
245 31 2 0.0 19.48735 21.49947 92.534714
246 31 2 0.0 20.439068 20.55423 91.807098
247 31 2 0.0 20.962391 21.15877 90.507355
248 31 1 0.0 21.91411 20.213528 89.779739
249 32 1 0.0 21.148262 27.896454 46.527859
250 32 2 0.0 21.296608 27.229841 45.1632
251 32 2 0.0 21.120035 28.224087 44.019096
252 32 2 0.0 21.268383 27.557474 42.654438
253 32 2 0.0 21.091808 28.55172 41.510334
254 32 2 0.0 21.240154 27.885107 40.145676
255 32 2 0.0 21.063581 28.879353 39.001572
256 32 1 0.0 21.211929 28.212738 37.636913
257 33 1 0.0 13.501786 32.02005 67.650864
258 33 2 0.0 13.969742 33.443665 67.938995
259 33 2 0.0 13.034923 34.486404 67.332802
260 33 2 0.0 13.502878 35.910019 67.620941
261 33 2 0.0 12.56806 36.952759 67.01474
262 33 2 0.0 13.036015 38.376373 67.302879
263 33 2 0.0 12.101196 39.419113 66.696686
264 33 1 0.0 12.569152 40.842728 66.984818
265 34 1 0.0 18.467855 46.850842 72.88784
266 34 2 0.0 19.077396 48.012848 73.66687
267 34 2 0.0 19.746719 47.547596 74.956917
268 34 2 0.0 20.356262 48.709602 75.735939
269 34 2 0.0 21.025585 48.244354 77.025986
270 34 2 0.0 21.635128 49.406357 77.805008
271 34 2 0.0 22.304449 48.941109 79.095062
272 34 1 0.0 22.91399 50.103115 79.874084
273 35 1 0.0 14.42445 35.38121 74.989769
274 35 2 0.0 14.707872 36.697376 74.271393
275 35 2 0.0 14.556591 37.899269 75.199425
276 35 2 0.0 14.840014 39.215431 74.481056
277 35 2 0.0 14.688734 40.417328 75.409088
278 35 2 0.0 14.972156 41.73349 74.690712
279 35 2 0.0 14.820875 42.935383 75.618752
280 35 1 0.0 15.104298 44.251545 74.900375
281 36 1 0.0 12.175465 24.591179 92.418221
282 36 2 0.0 12.77471 25.950851 92.765884
283 36 2 0.0 13.411935 25.957043 94.152458
284 36 2 0.0 14.011181 27.316717 94.500122
285 36 2 0.0 14.648405 27.322908 95.886696
286 36 2 0.0 15.247652 28.682581 96.23436
287 36 2 0.0 15.884876 28.688772 97.620934
288 36 1 0.0 16.484123 30.048445 97.968597
289 37 1 0.0 21.474062 46.098503 80.924744
290 37 2 0.0 21.578869 45.107513 82.080437
291 37 2 0.0 22.168028 45.750145 83.33287
292 37 2 0.0 22.272835 44.759151 84.488564
293 37 2 0.0 22.861996 45.401783 85.740997
294 37 2 0.0 22.966801 44.410789 86.89669
295 37 2 0.0 23.555962 45.053421 88.149124
296 37 1 0.0 23.660767 44.062428 89.304817
297 38 1 0.0 16.711016 45.784283 86.899132
298 38 2 0.0 16.426134 46.185818 88.343536
299 38 2 0.0 14.950598 46.029438 88.699928
300 38 2 0.0 14.665715 46.430977 90.144325
301 38 2 0.0 13.19018 46.274597 90.500717
302 38 2 0.0 12.905297 46.676132 91.945114
303 38 2 0.0 11.429762 46.519756 92.301514
304 38 1 0.0 11.144878 46.921291 93.745911
305 39 1 0.0 23.00423 19.044201 55.809139
306 39 2 0.0 21.804882 18.121883 56.008053
307 39 2 0.0 22.106739 16.995935 56.992836
308 39 2 0.0 20.907391 16.073618 57.19175
309 39 2 0.0 21.209248 14.94767 58.176533
310 39 2 0.0 20.009897 14.025352 58.37545
311 39 2 0.0 20.311756 12.899405 59.360233
312 39 1 0.0 19.112404 11.977087 59.559147
313 40 1 0.0 16.631735 47.814117 61.775501
314 40 2 0.0 15.917213 46.471298 61.653156
315 40 2 0.0 14.867845 46.48098 60.545273
316 40 2 0.0 14.153322 45.138161 60.422932
317 40 2 0.0 13.103954 45.147842 59.315044
318 40 2 0.0 12.389432 43.805019 59.192703
319 40 2 0.0 11.340063 43.814701 58.08482
320 40 1 0.0 10.625542 42.471882 57.962475
321 41 1 0.0 18.544497 34.993023 59.499714
322 41 2 0.0 18.367817 33.539719 59.06918
323 41 2 0.0 19.6854 32.770454 59.099018
324 41 2 0.0 19.50872 31.317148 58.668484
325 41 2 0.0 20.826302 30.547886 58.698322
326 41 2 0.0 20.649624 29.09458 58.267792
327 41 2 0.0 21.967205 28.325317 58.29763
328 41 1 0.0 21.790527 26.872011 57.867096
329 42 1 0.0 18.214746 15.493286 91.105682
330 42 2 0.0 18.053593 16.985535 91.381187
331 42 2 0.0 16.769615 17.289953 92.147606
332 42 2 0.0 16.608463 18.782202 92.423111
333 42 2 0.0 15.324486 19.08662 93.189537
334 42 2 0.0 15.163333 20.578869 93.465034
335 42 2 0.0 13.879354 20.883289 94.231461
336 42 1 0.0 13.718203 22.375538 94.506958
337 43 1 0.0 28.286434 17.873566 61.98035
338 43 2 0.0 28.262829 18.736568 63.238663
339 43 2 0.0 27.702509 17.980513 64.439949
340 43 2 0.0 27.678904 18.843517 65.698257
341 43 2 0.0 27.118584 18.08746 66.899551
342 43 2 0.0 27.09498 18.950466 68.157852
343 43 2 0.0 26.53466 18.194408 69.359146
344 43 1 0.0 26.511055 19.057411 70.617455
345 44 1 0.0 13.11009 27.50403 69.646004
346 44 2 0.0 13.914876 28.76993 69.92617
347 44 2 0.0 14.733561 29.206684 68.714691
348 44 2 0.0 15.538346 30.472584 68.994858
349 44 2 0.0 16.357031 30.909338 67.783386
350 44 2 0.0 17.161816 32.17524 68.063553
351 44 2 0.0 17.980501 32.611992 66.852074
352 44 1 0.0 18.785286 33.877892 67.132248
353 45 1 0.0 24.650497 28.032063 55.674789
354 45 2 0.0 24.293247 29.039522 56.763859
355 45 2 0.0 25.420681 29.208643 57.778236
356 45 2 0.0 25.063431 30.216103 58.86731
357 45 2 0.0 26.190866 30.385225 59.881687
358 45 2 0.0 25.833614 31.392683 60.970757
359 45 2 0.0 26.96105 31.561806 61.985138
360 45 1 0.0 26.6038 32.569267 63.074207
361 46 1 0.0 18.117538 24.466793 49.582722
362 46 2 0.0 18.575951 23.741802 50.844833
363 46 2 0.0 17.944954 22.358051 50.970329
364 46 2 0.0 18.403364 21.63306 52.232437
365 46 2 0.0 17.772367 20.24931 52.357933
366 46 2 0.0 18.230778 19.524319 53.620045
367 46 2 0.0 17.599783 18.140566 53.745537
368 46 1 0.0 18.058193 17.415577 55.007648
369 47 1 0.0 26.208776 24.006092 37.229511
370 47 2 0.0 24.743206 23.773647 37.585533
371 47 2 0.0 24.572563 23.306225 39.02813
372 47 2 0.0 23.106995 23.073778 39.384155
373 47 2 0.0 22.936352 22.606358 40.826744
374 47 2 0.0 21.470783 22.373909 41.18277
375 47 2 0.0 21.30014 21.906488 42.625362
376 47 1 0.0 19.834572 21.674042 42.981388
377 48 1 0.0 28.089035 29.892128 42.349815
378 48 2 0.0 27.743351 30.84598 41.209927
379 48 2 0.0 26.333548 31.413675 41.347225
380 48 2 0.0 25.987865 32.367527 40.207336
381 48 2 0.0 24.57806 32.935226 40.344635
382 48 2 0.0 24.232378 33.889076 39.20475
383 48 2 0.0 22.822575 34.456772 39.342049
384 48 1 0.0 22.476891 35.410622 38.202156
385 49 1 0.0 13.671927 17.02714 46.580997
386 49 2 0.0 14.674259 17.590237 45.577538
387 49 2 0.0 14.667002 19.116085 45.557198
388 49 2 0.0 15.669333 19.67918 44.553738
389 49 2 0.0 15.662075 21.205029 44.533398
390 49 2 0.0 16.664406 21.768127 43.529942
391 49 2 0.0 16.657148 23.293972 43.509598
392 49 1 0.0 17.659481 23.857071 42.506142
393 50 1 0.0 27.657782 23.372135 95.369034
394 50 2 0.0 26.815493 24.072218 94.306435
395 50 2 0.0 27.365639 25.45249 93.958778
396 50 2 0.0 26.52335 26.152573 92.896187
397 50 2 0.0 27.073496 27.532845 92.548531
398 50 2 0.0 26.231207 28.232927 91.485939
399 50 2 0.0 26.781353 29.613199 91.138283
400 50 1 0.0 25.939064 30.313284 90.075691
401 51 1 0.0 23.097652 17.850315 103.103165
402 51 2 0.0 22.315533 17.755867 101.796242
403 51 2 0.0 23.15992 18.167641 100.593689
404 51 2 0.0 22.377802 18.073193 99.286766
405 51 2 0.0 23.222191 18.484966 98.084213
406 51 2 0.0 22.440071 18.39052 96.777298
407 51 2 0.0 23.284458 18.802294 95.574745
408 51 1 0.0 22.50234 18.707846 94.267822
409 52 1 0.0 13.460154 50.281036 58.563095
410 52 2 0.0 14.779053 50.819275 58.01585
411 52 2 0.0 14.624495 52.217548 57.424564
412 52 2 0.0 15.943394 52.755791 56.877319
413 52 2 0.0 15.788836 54.154064 56.286034
414 52 2 0.0 17.107735 54.692303 55.738789
415 52 2 0.0 16.953176 56.090576 55.147503
416 52 1 0.0 18.272076 56.628819 54.600258
417 53 1 0.0 23.978466 44.01284 58.750854
418 53 2 0.0 24.453419 43.430683 60.079082
419 53 2 0.0 25.814014 43.984631 60.492115
420 53 2 0.0 26.288967 43.402473 61.820347
421 53 2 0.0 27.649565 43.956417 62.233379
422 53 2 0.0 28.124516 43.37426 63.561607
423 53 2 0.0 29.485113 43.928207 63.97464
424 53 1 0.0 29.960064 43.34605 65.302872
425 54 1 0.0 25.436909 8.083324 78.598824
426 54 2 0.0 25.008278 9.546773 78.541641
427 54 2 0.0 25.611107 10.272556 77.342262
428 54 2 0.0 25.182476 11.736005 77.28508
429 54 2 0.0 25.785307 12.461788 76.085701
430 54 2 0.0 25.356674 13.925237 76.028519
431 54 2 0.0 25.959507 14.65102 74.82914
432 54 1 0.0 25.530874 16.114468 74.771957
433 55 1 0.0 14.70319 56.561253 78.59787
434 55 2 0.0 15.823318 56.372597 77.578857
435 55 2 0.0 16.41423 54.966679 77.632629
436 55 2 0.0 17.534359 54.778023 76.613609
437 55 2 0.0 18.125275 53.372105 76.667389
438 55 2 0.0 19.245401 53.183445 75.648369
439 55 2 0.0 19.836315 51.777527 75.702141
440 55 1 0.0 20.956444 51.588871 74.683128
441 56 1 0.0 15.892462 14.288205 87.719391
442 56 2 0.0 15.543301 12.98444 88.431404
443 56 2 0.0 16.761694 12.081299 88.600319
444 56 2 0.0 16.412533 10.777534 89.312325
445 56 2 0.0 17.630926 9.874393 89.481239
446 56 2 0.0 17.281765 8.570627 90.193253
447 56 2 0.0 18.500158 7.667486 90.362167
448 56 1 0.0 18.150997 6.363721 91.074173
449 57 1 0.0 10.237123 44.93729 116.282669
450 57 2 0.0 11.015787 44.326614 115.121017
451 57 2 0.0 12.385633 43.814896 115.557289
452 57 2 0.0 13.164296 43.204224 114.395638
453 57 2 0.0 14.534143 42.692505 114.831917
454 57 2 0.0 15.312806 42.081829 113.670265
455 57 2 0.0 16.682652 41.57011 114.106544
456 57 1 0.0 17.461315 40.959435 112.944893
457 58 1 0.0 23.293259 32.672249 34.423557
458 58 2 0.0 22.237694 31.702621 33.899834
459 58 2 0.0 22.302551 31.551805 32.38269
460 58 2 0.0 21.246986 30.582178 31.858971
461 58 2 0.0 21.311842 30.431362 30.341827
462 58 2 0.0 20.256279 29.461735 29.818106
463 58 2 0.0 20.321135 29.310919 28.300962
464 58 1 0.0 19.265572 28.341291 27.777241
465 59 1 0.0 13.878092 33.638535 110.59166
466 59 2 0.0 14.792665 34.519455 111.43795
467 59 2 0.0 14.868998 34.040466 112.884819
468 59 2 0.0 15.783571 34.921387 113.73111
469 59 2 0.0 15.859903 34.442398 115.177979
470 59 2 0.0 16.774477 35.323318 116.024269
471 59 2 0.0 16.850811 34.844334 117.471138
472 59 1 0.0 17.765385 35.72525 118.317436
473 60 1 0.0 18.946774 34.440842 49.631397
474 60 2 0.0 18.521147 33.485359 48.520283
475 60 2 0.0 19.022003 33.939968 47.152386
476 60 2 0.0 18.596375 32.984486 46.041275
477 60 2 0.0 19.097233 33.439095 44.673374
478 60 2 0.0 18.671604 32.483612 43.562263
479 60 2 0.0 19.172462 32.938225 42.194363
480 60 1 0.0 18.746834 31.98274 41.083252
481 61 1 0.0 15.298054 15.523094 69.585403
482 61 2 0.0 16.596334 16.230162 69.963821
483 61 2 0.0 17.771793 15.260662 70.04776
484 61 2 0.0 19.070072 15.967731 70.426178
485 61 2 0.0 20.245531 14.998232 70.510117
486 61 2 0.0 21.543812 15.705299 70.888535
487 61 2 0.0 22.719269 14.7358 70.972473
488 61 1 0.0 24.017551 15.442867 71.350891
489 62 1 0.0 16.2397 50.93716 109.035393
490 62 2 0.0 15.158909 50.980488 110.111816
491 62 2 0.0 15.752632 51.00494 111.517365
492 62 2 0.0 14.671841 51.048267 112.593788
493 62 2 0.0 15.265562 51.07272 113.999344
494 62 2 0.0 14.184771 51.116043 115.075768
495 62 2 0.0 14.778494 51.140495 116.481316
496 62 1 0.0 13.697702 51.183823 117.557739
497 63 1 0.0 12.893947 22.095184 77.535233
498 63 2 0.0 12.690788 23.59201 77.318634
499 63 2 0.0 12.199381 24.291059 78.582962
500 63 2 0.0 11.996222 25.787886 78.366364
501 63 2 0.0 11.504814 26.486935 79.630692
502 63 2 0.0 11.301657 27.983761 79.414093
503 63 2 0.0 10.810248 28.68281 80.678421
504 63 1 0.0 10.60709 30.179634 80.46183
505 64 1 0.0 17.902817 23.076687 33.974895
506 64 2 0.0 18.12598 22.325794 35.284489
507 64 2 0.0 16.892414 21.532455 35.705925
508 64 2 0.0 17.115578 20.781563 37.015518
509 64 2 0.0 15.882012 19.988226 37.436958
510 64 2 0.0 16.105175 19.237331 38.746552
511 64 2 0.0 14.871611 18.443996 39.167984
512 64 1 0.0 15.094772 17.693102 40.477577
513 65 1 0.0 15.525139 28.124041 30.694098
514 65 2 0.0 16.941809 27.59803 30.481878
515 65 2 0.0 17.023155 26.085148 30.664221
516 65 2 0.0 18.439825 25.559139 30.452003
517 65 2 0.0 18.521172 24.046257 30.634346
518 65 2 0.0 19.937843 23.520247 30.422127
519 65 2 0.0 20.01919 22.007366 30.604469
520 65 1 0.0 21.43586 21.481354 30.392252
521 66 1 0.0 21.708618 20.984783 26.444244
522 66 2 0.0 20.74712 20.317417 27.423439
523 66 2 0.0 21.198795 18.908657 27.797688
524 66 2 0.0 20.237299 18.241289 28.77688
525 66 2 0.0 20.688974 16.832529 29.151129
526 66 2 0.0 19.727478 16.165161 30.130323
527 66 2 0.0 20.179153 14.756403 30.50457
528 66 1 0.0 19.217655 14.089035 31.483765
529 67 1 0.0 18.93195 6.910865 87.121117
530 67 2 0.0 18.761108 8.425882 87.18602
531 67 2 0.0 20.079807 9.138075 87.473228
532 67 2 0.0 19.908968 10.653092 87.538132
533 67 2 0.0 21.227669 11.365285 87.825333
534 67 2 0.0 21.056828 12.880302 87.890236
535 67 2 0.0 22.375526 13.592495 88.177444
536 67 1 0.0 22.204687 15.107512 88.242348
537 68 1 0.0 16.769634 53.818466 125.554565
538 68 2 0.0 16.141291 52.690075 124.741798
539 68 2 0.0 16.904533 52.424339 123.44738
540 68 2 0.0 16.276188 51.295948 122.634613
541 68 2 0.0 17.039431 51.030209 121.340195
542 68 2 0.0 16.411087 49.901817 120.527428
543 68 2 0.0 17.174328 49.636082 119.233009
544 68 1 0.0 16.545984 48.50769 118.420242
545 69 1 0.0 14.142318 27.996582 111.70089
546 69 2 0.0 14.873972 28.824244 112.753662
547 69 2 0.0 16.382996 28.601816 112.708397
548 69 2 0.0 17.114649 29.429478 113.761177
549 69 2 0.0 18.623672 29.207048 113.715912
550 69 2 0.0 19.355328 30.034712 114.768684
551 69 2 0.0 20.864351 29.812283 114.723427
552 69 1 0.0 21.596004 30.639944 115.776199
553 70 1 0.0 19.552021 54.255695 71.997444
554 70 2 0.0 19.922533 52.955585 71.289551
555 70 2 0.0 19.260649 52.842098 69.91925
556 70 2 0.0 19.631161 51.541988 69.211357
557 70 2 0.0 18.969276 51.428501 67.841064
558 70 2 0.0 19.339787 50.128391 67.133163
559 70 2 0.0 18.677902 50.014904 65.762878
560 70 1 0.0 19.048412 48.714794 65.054977
561 71 1 0.0 28.235029 33.070229 73.426201
562 71 2 0.0 28.828268 34.265221 74.166969
563 71 2 0.0 27.794949 34.962639 75.04705
564 71 2 0.0 28.388187 36.157623 75.787819
565 71 2 0.0 27.354868 36.855042 76.667892
566 71 2 0.0 27.948107 38.050034 77.408669
567 71 2 0.0 26.914787 38.747452 78.288742
568 71 1 0.0 27.508026 39.942444 79.029518
569 72 1 0.0 13.223319 41.94392 102.171379
570 72 2 0.0 13.078458 41.354599 100.77124
571 72 2 0.0 13.216303 39.834839 100.773613
572 72 2 0.0 13.071442 39.245522 99.373474
573 72 2 0.0 13.209286 37.725761 99.375847
574 72 2 0.0 13.064425 37.136436 97.9757
575 72 2 0.0 13.20227 35.616676 97.978073
576 72 1 0.0 13.057408 35.027359 96.577934
577 73 1 0.0 25.445196 25.034348 85.926331
578 73 2 0.0 24.799776 23.672319 86.165054
579 73 2 0.0 23.278442 23.73498 86.063606
580 73 2 0.0 22.633022 22.372952 86.30233
581 73 2 0.0 21.111687 22.435612 86.200882
582 73 2 0.0 20.466267 21.073586 86.439606
583 73 2 0.0 18.944931 21.136246 86.338165
584 73 1 0.0 18.299511 19.774218 86.576881
585 74 1 0.0 26.144262 40.535698 70.267151
586 74 2 0.0 24.92691 40.697601 71.172974
587 74 2 0.0 25.305811 41.239128 72.548424
588 74 2 0.0 24.088459 41.401031 73.454247
589 74 2 0.0 24.467358 41.942558 74.829697
590 74 2 0.0 23.250008 42.104462 75.735519
591 74 2 0.0 23.628906 42.645988 77.11097
592 74 1 0.0 22.411556 42.807892 78.016792
593 75 1 0.0 24.410086 20.951191 87.858383
594 75 2 0.0 24.451103 19.590305 87.169197
595 75 2 0.0 25.529034 18.684101 87.757019
596 75 2 0.0 25.570051 17.323212 87.067833
597 75 2 0.0 26.647984 16.417007 87.655655
598 75 2 0.0 26.688999 15.05612 86.966469
599 75 2 0.0 27.766932 14.149916 87.554283
600 75 1 0.0 27.807949 12.789028 86.865097
601 76 1 0.0 10.880031 9.31753 29.228718
602 76 2 0.0 12.388077 9.16431 29.05266
603 76 2 0.0 13.035746 10.444095 28.531746
604 76 2 0.0 14.543792 10.290874 28.355686
605 76 2 0.0 15.191461 11.570659 27.834774
606 76 2 0.0 16.699507 11.417439 27.658714
607 76 2 0.0 17.347176 12.697224 27.1378
608 76 1 0.0 18.855221 12.544003 26.961742
609 77 1 0.0 29.139179 29.214914 34.26059
610 77 2 0.0 29.134298 28.669107 35.685635
611 77 2 0.0 27.757462 28.77766 36.334644
612 77 2 0.0 27.752579 28.231853 37.759686
613 77 2 0.0 26.375742 28.340406 38.408695
614 77 2 0.0 26.370861 27.7946 39.83374
615 77 2 0.0 24.994024 27.903152 40.482746
616 77 1 0.0 24.989143 27.357346 41.907791
617 78 1 0.0 14.294827 18.24342 98.529175
618 78 2 0.0 15.053349 18.709635 99.768517
619 78 2 0.0 14.148716 18.793198 100.994621
620 78 2 0.0 14.907238 19.259415 102.233963
621 78 2 0.0 14.002605 19.342976 103.460068
622 78 2 0.0 14.761127 19.809193 104.699409
623 78 2 0.0 13.856495 19.892756 105.925514
624 78 1 0.0 14.615015 20.358971 107.164848
625 79 1 0.0 13.520557 27.056845 120.670105
626 79 2 0.0 13.032063 28.428406 120.213089
627 79 2 0.0 13.925562 29.553801 120.726715
628 79 2 0.0 13.437067 30.925362 120.269699
629 79 2 0.0 14.330566 32.050758 120.783333
630 79 2 0.0 13.842071 33.422318 120.326309
631 79 2 0.0 14.735571 34.547714 120.839943
632 79 1 0.0 14.247075 35.919273 120.382919
633 80 1 0.0 15.938576 50.397999 30.708754
634 80 2 0.0 16.73119 49.262291 30.067963
635 80 2 0.0 16.988691 49.510887 28.584532
636 80 2 0.0 17.781303 48.375183 27.943739
637 80 2 0.0 18.038807 48.623779 26.460308
638 80 2 0.0 18.831421 47.488075 25.819517
639 80 2 0.0 19.088924 47.736671 24.336086
640 80 1 0.0 19.881535 46.600964 23.695293
641 81 1 0.0 25.766689 26.399935 125.35849
642 81 2 0.0 25.38773 25.096363 124.661522
643 81 2 0.0 24.347027 25.31488 123.567055
644 81 2 0.0 23.968065 24.011307 122.870087
645 81 2 0.0 22.927362 24.229828 121.77562
646 81 2 0.0 22.548403 22.926254 121.078651
647 81 2 0.0 21.5077 23.144772 119.984184
648 81 1 0.0 21.128738 21.841198 119.287216
649 82 1 0.0 24.638468 38.489513 65.491638
650 82 2 0.0 24.621632 37.705727 66.800858
651 82 2 0.0 23.223057 37.204216 67.148941
652 82 2 0.0 23.206219 36.420425 68.45816
653 82 2 0.0 21.807648 35.918919 68.806244
654 82 2 0.0 21.79081 35.135128 70.115463
655 82 2 0.0 20.392237 34.633621 70.463547
656 82 1 0.0 20.375401 33.849831 71.772766
657 83 1 0.0 22.797031 19.351997 76.848404
658 83 2 0.0 22.743477 19.32283 78.373184
659 83 2 0.0 23.01709 17.927931 78.928223
660 83 2 0.0 22.963535 17.898766 80.453003
661 83 2 0.0 23.237148 16.503864 81.008041
662 83 2 0.0 23.183594 16.474699 82.532822
663 83 2 0.0 23.457207 15.0798 83.08786
664 83 1 0.0 23.403652 15.050634 84.61264
665 84 1 0.0 17.737608 11.543143 73.608765
666 84 2 0.0 17.584373 12.147128 75.001747
667 84 2 0.0 18.123787 13.573023 75.069069
668 84 2 0.0 17.970551 14.177008 76.462044
669 84 2 0.0 18.509964 15.602903 76.529366
670 84 2 0.0 18.356728 16.206886 77.922348
671 84 2 0.0 18.896141 17.632782 77.98967
672 84 1 0.0 18.742905 18.236767 79.382652
673 85 1 0.0 22.489117 13.945082 99.724586
674 85 2 0.0 23.9349 13.912979 100.211777
675 85 2 0.0 24.087627 14.548027 101.590935
676 85 2 0.0 25.533409 14.515925 102.078125
677 85 2 0.0 25.686134 15.150972 103.457283
678 85 2 0.0 27.131918 15.118872 103.944473
679 85 2 0.0 27.284643 15.753919 105.323631
680 85 1 0.0 28.730427 15.721817 105.810822
681 86 1 0.0 7.716574 17.650013 34.749657
682 86 2 0.0 9.054691 16.923429 34.850628
683 86 2 0.0 8.901712 15.415942 34.669647
684 86 2 0.0 10.23983 14.68936 34.770615
685 86 2 0.0 10.086852 13.181872 34.58963
686 86 2 0.0 11.42497 12.45529 34.690601
687 86 2 0.0 11.271992 10.947802 34.509617
688 86 1 0.0 12.610109 10.221219 34.610588
689 87 1 0.0 21.77495 46.986084 27.438639
690 87 2 0.0 21.852463 48.46714 27.798
691 87 2 0.0 21.396378 49.35928 26.64702
692 87 2 0.0 21.473888 50.840336 27.006382
693 87 2 0.0 21.017803 51.732471 25.855404
694 87 2 0.0 21.095316 53.213528 26.214764
695 87 2 0.0 20.639233 54.105667 25.063786
696 87 1 0.0 20.716743 55.586723 25.423145
697 88 1 0.0 9.911736 28.752283 103.66256
698 88 2 0.0 11.344929 28.619968 104.16964