LAMMPS data file. CGCMM style. atom_style full generated by VMD/TopoTools v1.7 on Mon Jan 04 12:00:36 +0545 2021
 2000 atoms
 1750 bonds
 1500 angles
 1250 dihedrals
 0 impropers
 2 atom types
 1 bond types
 2 angle types
 2 dihedral types
 0 improper types
 10.000799 25.000799  xlo xhi
 10.232001 85.232001  ylo yhi
 10.407766 101.927763  zlo zhi

# Pair Coeffs
#
# 1  N
# 2  O

# Bond Coeffs
#
# 1  

# Angle Coeffs
#
# 1  N-O-O
# 2  O-O-O

# Dihedral Coeffs
#
# 1  N-O-O-O
# 2  O-O-O-O

 Masses

 1 14.007000 # N
 2 15.999000 # O

 Atoms # full

1 1 1 0.000000 22.633732 65.664406 100.757729 # N 1
2 1 2 0.000000 22.927992 67.133011 101.049751 # O 1
3 1 2 0.000000 22.626163 68.026093 99.849754 # O 1
4 1 2 0.000000 22.920425 69.494698 100.141777 # O 1
5 1 2 0.000000 22.618599 70.387772 98.941788 # O 1
6 1 2 0.000000 22.912859 71.856384 99.233810 # O 1
7 1 2 0.000000 22.611031 72.749466 98.033813 # O 1
8 1 1 0.000000 22.905293 74.218071 98.325836 # N 1
9 2 1 0.000000 22.987492 64.403122 96.612823 # N 2
10 2 2 0.000000 22.425591 64.380219 95.194229 # O 2
11 2 2 0.000000 21.658007 65.656769 94.862724 # O 2
12 2 2 0.000000 21.096106 65.633865 93.444122 # O 2
13 2 2 0.000000 20.328522 66.910423 93.112617 # O 2
14 2 2 0.000000 19.766621 66.887520 91.694023 # O 2
15 2 2 0.000000 18.999035 68.164078 91.362518 # O 2
16 2 1 0.000000 18.437136 68.141174 89.943924 # N 2
17 3 1 0.000000 10.145546 35.764717 85.792130 # N 3
18 3 2 0.000000 10.762883 35.368813 84.453911 # O 3
19 3 2 0.000000 12.286093 35.457733 84.478416 # O 3
20 3 2 0.000000 12.903429 35.061829 83.140198 # O 3
21 3 2 0.000000 14.426640 35.150745 83.164703 # O 3
22 3 2 0.000000 15.043976 34.754845 81.826485 # O 3
23 3 2 0.000000 16.567186 34.843761 81.850983 # O 3
24 3 1 0.000000 17.184523 34.447861 80.512764 # N 3
25 4 1 0.000000 11.570469 63.306889 13.729367 # N 4
26 4 2 0.000000 11.780846 64.280746 14.885235 # O 4
27 4 2 0.000000 10.488711 64.992767 15.275215 # O 4
28 4 2 0.000000 10.699087 65.966614 16.431084 # O 4
29 4 2 0.000000 9.406953 66.678642 16.821064 # O 4
30 4 2 0.000000 9.617330 67.652496 17.976933 # O 4
31 4 2 0.000000 8.325194 68.364517 18.366913 # O 4
32 4 1 0.000000 8.535571 69.338371 19.522781 # N 4
33 5 1 0.000000 16.750519 67.003952 101.563980 # N 5
34 5 2 0.000000 17.730743 68.162086 101.726959 # O 5
35 5 2 0.000000 17.370886 69.345634 100.833427 # O 5
36 5 2 0.000000 18.351109 70.503769 100.996407 # O 5
37 5 2 0.000000 17.991253 71.687317 100.102875 # O 5
38 5 2 0.000000 18.971478 72.845444 100.265854 # O 5
39 5 2 0.000000 18.611622 74.028992 99.372322 # O 5
40 5 1 0.000000 19.591845 75.187126 99.535309 # N 5
41 6 1 0.000000 7.123836 32.725471 91.668060 # N 6
42 6 2 0.000000 8.198009 33.799042 91.817307 # O 6
43 6 2 0.000000 8.749531 33.862160 93.238754 # O 6
44 6 2 0.000000 9.823705 34.935730 93.388000 # O 6
45 6 2 0.000000 10.375226 34.998848 94.809448 # O 6
46 6 2 0.000000 11.449400 36.072418 94.958694 # O 6
47 6 2 0.000000 12.000921 36.135532 96.380142 # O 6
48 6 1 0.000000 13.075095 37.209103 96.529388 # N 6
49 7 1 0.000000 15.752367 22.775961 78.772041 # N 7
50 7 2 0.000000 15.420662 24.252413 78.575218 # O 7
51 7 2 0.000000 16.453226 24.958735 77.701378 # O 7
52 7 2 0.000000 16.121521 26.435186 77.504547 # O 7
53 7 2 0.000000 17.154085 27.141508 76.630707 # O 7
54 7 2 0.000000 16.822380 28.617960 76.433884 # O 7
55 7 2 0.000000 17.854944 29.324282 75.560043 # O 7
56 7 1 0.000000 17.523241 30.800734 75.363220 # N 7
57 8 1 0.000000 22.343975 34.038132 99.079666 # N 8
58 8 2 0.000000 21.416855 32.852787 99.332817 # O 8
59 8 2 0.000000 22.092337 31.521214 99.017677 # O 8
60 8 2 0.000000 21.165216 30.335871 99.270821 # O 8
61 8 2 0.000000 21.840698 29.004299 98.955681 # O 8
62 8 2 0.000000 20.913578 27.818956 99.208832 # O 8
63 8 2 0.000000 21.589060 26.487383 98.893692 # O 8
64 8 1 0.000000 20.661938 25.302040 99.146835 # N 8
65 9 1 0.000000 17.031425 29.880116 89.412239 # N 9
66 9 2 0.000000 17.231089 28.830359 90.501648 # O 9
67 9 2 0.000000 16.647436 27.477194 90.105453 # O 9
68 9 2 0.000000 16.847101 26.427439 91.194870 # O 9
69 9 2 0.000000 16.263447 25.074274 90.798676 # O 9
70 9 2 0.000000 16.463112 24.024519 91.888092 # O 9
71 9 2 0.000000 15.879459 22.671352 91.491898 # O 9
72 9 1 0.000000 16.079124 21.621597 92.581306 # N 9
73 10 1 0.000000 22.373463 40.191376 91.274414 # N 10
74 10 2 0.000000 21.059837 40.263039 92.047668 # O 10
75 10 2 0.000000 20.521450 41.688583 92.129066 # O 10
76 10 2 0.000000 19.207825 41.760246 92.902328 # O 10
77 10 2 0.000000 18.669436 43.185795 92.983727 # O 10
78 10 2 0.000000 17.355810 43.257454 93.756981 # O 10
79 10 2 0.000000 16.817421 44.683002 93.838379 # O 10
80 10 1 0.000000 15.503796 44.754662 94.611633 # N 10
81 11 1 0.000000 12.489132 71.334320 94.232475 # N 11
82 11 2 0.000000 13.962845 71.722588 94.154404 # O 11
83 11 2 0.000000 14.499255 71.646469 92.727821 # O 11
84 11 2 0.000000 15.972969 72.034737 92.649750 # O 11
85 11 2 0.000000 16.509378 71.958618 91.223160 # O 11
86 11 2 0.000000 17.983093 72.346886 91.145088 # O 11
87 11 2 0.000000 18.519503 72.270767 89.718506 # O 11
88 11 1 0.000000 19.993216 72.659035 89.640434 # N 11
89 12 1 0.000000 22.037138 47.988888 105.196014 # N 12
90 12 2 0.000000 21.152052 48.472092 104.050667 # O 12
91 12 2 0.000000 21.445444 47.730717 102.749535 # O 12
92 12 2 0.000000 20.560356 48.213921 101.604187 # O 12
93 12 2 0.000000 20.853750 47.472546 100.303047 # O 12
94 12 2 0.000000 19.968662 47.955750 99.157707 # O 12
95 12 2 0.000000 20.262056 47.214375 97.856567 # O 12
96 12 1 0.000000 19.376968 47.697578 96.711227 # N 12
97 13 1 0.000000 18.732574 36.919590 86.467041 # N 13
98 13 2 0.000000 19.071682 37.173508 85.001022 # O 13
99 13 2 0.000000 19.562971 38.599102 84.766533 # O 13
100 13 2 0.000000 19.902077 38.853020 83.300514 # O 13
101 13 2 0.000000 20.393366 40.278614 83.066032 # O 13
102 13 2 0.000000 20.732471 40.532532 81.600014 # O 13
103 13 2 0.000000 21.223761 41.958130 81.365532 # O 13
104 13 1 0.000000 21.562866 42.212040 79.899513 # N 13
105 14 1 0.000000 24.594063 72.599686 22.735092 # N 14
106 14 2 0.000000 24.999222 71.538483 23.754093 # O 14
107 14 2 0.000000 24.048145 71.498611 24.946796 # O 14
108 14 2 0.000000 24.453304 70.437408 25.965799 # O 14
109 14 2 0.000000 23.502230 70.397545 27.158503 # O 14
110 14 2 0.000000 23.907389 69.336334 28.177505 # O 14
111 14 2 0.000000 22.956314 69.296478 29.370209 # O 14
112 14 1 0.000000 23.361473 68.235268 30.389212 # N 14
113 15 1 0.000000 14.580772 57.877956 86.572472 # N 15
114 15 2 0.000000 15.219639 57.435226 87.885681 # O 15
115 15 2 0.000000 15.418116 58.603424 88.847244 # O 15
116 15 2 0.000000 16.056982 58.160698 90.160454 # O 15
117 15 2 0.000000 16.255459 59.328892 91.122009 # O 15
118 15 2 0.000000 16.894325 58.886166 92.435219 # O 15
119 15 2 0.000000 17.092800 60.054363 93.396782 # O 15
120 15 1 0.000000 17.731667 59.611637 94.709991 # N 15
121 16 1 0.000000 12.811856 72.160652 86.122749 # N 16
122 16 2 0.000000 12.096512 71.295280 87.156235 # O 16
123 16 2 0.000000 12.021075 69.833649 86.724220 # O 16
124 16 2 0.000000 11.305732 68.968277 87.757706 # O 16
125 16 2 0.000000 11.230295 67.506653 87.325691 # O 16
126 16 2 0.000000 10.514951 66.641281 88.359177 # O 16
127 16 2 0.000000 10.439514 65.179657 87.927162 # O 16
128 16 1 0.000000 9.724171 64.314285 88.960648 # N 16
129 17 1 0.000000 11.755297 20.684689 97.221413 # N 17
130 17 2 0.000000 13.150535 20.709454 97.838966 # O 17
131 17 2 0.000000 13.466568 22.056061 98.483521 # O 17
132 17 2 0.000000 14.861806 22.080826 99.101082 # O 17
133 17 2 0.000000 15.177840 23.427433 99.745628 # O 17
134 17 2 0.000000 16.573078 23.452196 100.363190 # O 17
135 17 2 0.000000 16.889111 24.798803 101.007736 # O 17
136 17 1 0.000000 18.284349 24.823566 101.625298 # N 17
137 18 1 0.000000 21.030205 18.273102 101.137657 # N 18
138 18 2 0.000000 21.864845 17.941460 99.903938 # O 18
139 18 2 0.000000 21.890736 19.094311 98.904472 # O 18
140 18 2 0.000000 22.725376 18.762669 97.670753 # O 18
141 18 2 0.000000 22.751266 19.915520 96.671280 # O 18
142 18 2 0.000000 23.585907 19.583878 95.437561 # O 18
143 18 2 0.000000 23.611797 20.736729 94.438095 # O 18
144 18 1 0.000000 24.446438 20.405087 93.204376 # N 18
145 19 1 0.000000 6.348924 67.899918 84.935249 # N 19
146 19 2 0.000000 7.310856 66.718750 85.025810 # O 19
147 19 2 0.000000 8.762232 67.147118 84.829124 # O 19
148 19 2 0.000000 9.724165 65.965950 84.919685 # O 19
149 19 2 0.000000 11.175541 66.394318 84.723007 # O 19
150 19 2 0.000000 12.137473 65.213150 84.813568 # O 19
151 19 2 0.000000 13.588849 65.641518 84.616882 # O 19
152 19 1 0.000000 14.550781 64.460350 84.707443 # N 19
153 20 1 0.000000 13.019827 49.895107 17.518778 # N 20
154 20 2 0.000000 13.034678 49.775040 19.039974 # O 20
155 20 2 0.000000 13.836747 48.564934 19.510086 # O 20
156 20 2 0.000000 13.851599 48.444866 21.031282 # O 20
157 20 2 0.000000 14.653667 47.234760 21.501392 # O 20
158 20 2 0.000000 14.668519 47.114693 23.022591 # O 20
159 20 2 0.000000 15.470587 45.904587 23.492702 # O 20
160 20 1 0.000000 15.485439 45.784519 25.013897 # N 20
161 21 1 0.000000 14.092237 78.424110 23.495852 # N 21
162 21 2 0.000000 13.749891 77.349007 22.468418 # O 21
163 21 2 0.000000 12.383051 77.581917 21.831097 # O 21
164 21 2 0.000000 12.040705 76.506805 20.803665 # O 21
165 21 2 0.000000 10.673864 76.739716 20.166344 # O 21
166 21 2 0.000000 10.331519 75.664604 19.138908 # O 21
167 21 2 0.000000 8.964679 75.897514 18.501587 # O 21
168 21 1 0.000000 8.622333 74.822403 17.474155 # N 21
169 22 1 0.000000 17.919685 77.572899 24.144779 # N 22
170 22 2 0.000000 19.196230 77.945862 23.396442 # O 22
171 22 2 0.000000 19.820286 79.229958 23.935268 # O 22
172 22 2 0.000000 21.096828 79.602928 23.186932 # O 22
173 22 2 0.000000 21.720882 80.887024 23.725754 # O 22
174 22 2 0.000000 22.997427 81.259987 22.977417 # O 22
175 22 2 0.000000 23.621483 82.544083 23.516241 # O 22
176 22 1 0.000000 24.898026 82.917053 22.767906 # N 22
177 23 1 0.000000 25.115604 44.399780 101.468704 # N 23
178 23 2 0.000000 23.992702 45.002911 100.629662 # O 23
179 23 2 0.000000 22.749969 44.117405 100.616615 # O 23
180 23 2 0.000000 21.627068 44.720535 99.777565 # O 23
181 23 2 0.000000 20.384335 43.835030 99.764519 # O 23
182 23 2 0.000000 19.261435 44.438164 98.925468 # O 23
183 23 2 0.000000 18.018700 43.552658 98.912422 # O 23
184 23 1 0.000000 16.895800 44.155788 98.073372 # N 23
185 24 1 0.000000 13.230131 66.497360 20.442982 # N 24
186 24 2 0.000000 13.462203 65.054642 20.882748 # O 24
187 24 2 0.000000 13.226669 64.065308 19.745022 # O 24
188 24 2 0.000000 13.458741 62.622597 20.184788 # O 24
189 24 2 0.000000 13.223207 61.633259 19.047062 # O 24
190 24 2 0.000000 13.455279 60.190544 19.486828 # O 24
191 24 2 0.000000 13.219746 59.201210 18.349104 # O 24
192 24 1 0.000000 13.451818 57.758495 18.788868 # N 24
193 25 1 0.000000 18.543118 33.206100 96.048897 # N 25
194 25 2 0.000000 18.770744 33.537319 94.576775 # O 25
195 25 2 0.000000 18.552055 35.018864 94.283730 # O 25
196 25 2 0.000000 18.779682 35.350082 92.811607 # O 25
197 25 2 0.000000 18.560991 36.831631 92.518562 # O 25
198 25 2 0.000000 18.788620 37.162849 91.046432 # O 25
199 25 2 0.000000 18.569929 38.644394 90.753387 # O 25
200 25 1 0.000000 18.797558 38.975616 89.281265 # N 25
201 26 1 0.000000 9.608935 17.484169 11.418306 # N 26
202 26 2 0.000000 10.374071 18.731754 10.986138 # O 26
203 26 2 0.000000 10.126767 19.908230 11.926044 # O 26
204 26 2 0.000000 10.891903 21.155819 11.493876 # O 26
205 26 2 0.000000 10.644598 22.332294 12.433782 # O 26
206 26 2 0.000000 11.409734 23.579880 12.001614 # O 26
207 26 2 0.000000 11.162430 24.756355 12.941520 # O 26
208 26 1 0.000000 11.927565 26.003944 12.509352 # N 26
209 27 1 0.000000 9.108356 77.619568 27.161392 # N 27
210 27 2 0.000000 9.091987 76.164192 27.619963 # O 27
211 27 2 0.000000 10.434021 75.476250 27.386824 # O 27
212 27 2 0.000000 10.417653 74.020866 27.845394 # O 27
213 27 2 0.000000 11.759687 73.332932 27.612253 # O 27
214 27 2 0.000000 11.743319 71.877548 28.070826 # O 27
215 27 2 0.000000 13.085353 71.189606 27.837685 # O 27
216 27 1 0.000000 13.068985 69.734230 28.296257 # N 27
217 28 1 0.000000 15.727807 79.466911 13.540264 # N 28
218 28 2 0.000000 16.522804 80.729965 13.858621 # O 28
219 28 2 0.000000 16.116758 81.338669 15.197756 # O 28
220 28 2 0.000000 16.911757 82.601723 15.516111 # O 28
221 28 2 0.000000 16.505709 83.210419 16.855247 # O 28
222 28 2 0.000000 17.300707 84.473473 17.173603 # O 28
223 28 2 0.000000 16.894659 85.082176 18.512737 # O 28
224 28 1 0.000000 17.689657 86.345230 18.831093 # N 28
225 29 1 0.000000 16.788864 39.079510 86.022598 # N 29
226 29 2 0.000000 16.791868 40.597923 86.174530 # O 29
227 29 2 0.000000 15.552425 41.101425 86.908653 # O 29
228 29 2 0.000000 15.555429 42.619839 87.060585 # O 29
229 29 2 0.000000 14.315987 43.123341 87.794716 # O 29
230 29 2 0.000000 14.318990 44.641758 87.946648 # O 29
231 29 2 0.000000 13.079548 45.145256 88.680779 # O 29
232 29 1 0.000000 13.082551 46.663673 88.832703 # N 29
233 30 1 0.000000 13.876125 54.188011 98.683403 # N 30
234 30 2 0.000000 15.213558 54.427746 97.988800 # O 30
235 30 2 0.000000 16.153770 55.279213 98.837143 # O 30
236 30 2 0.000000 17.491203 55.518948 98.142540 # O 30
237 30 2 0.000000 18.431416 56.370411 98.990883 # O 30
238 30 2 0.000000 19.768850 56.610149 98.296280 # O 30
239 30 2 0.000000 20.709063 57.461613 99.144623 # O 30
240 30 1 0.000000 22.046495 57.701351 98.450020 # N 30
241 31 1 0.000000 11.443510 36.933426 75.353188 # N 31
242 31 2 0.000000 12.640098 36.921024 76.300133 # O 31
243 31 2 0.000000 12.491089 37.943558 77.423027 # O 31
244 31 2 0.000000 13.687677 37.931156 78.369972 # O 31
245 31 2 0.000000 13.538669 38.953690 79.492867 # O 31
246 31 2 0.000000 14.735256 38.941292 80.439812 # O 31
247 31 2 0.000000 14.586248 39.963825 81.562706 # O 31
248 31 1 0.000000 15.782835 39.951424 82.509651 # N 31
249 32 1 0.000000 19.819527 45.703068 20.556332 # N 32
250 32 2 0.000000 20.081303 47.088360 21.140385 # O 32
251 32 2 0.000000 19.488945 47.240566 22.538462 # O 32
252 32 2 0.000000 19.750717 48.625858 23.122513 # O 32
253 32 2 0.000000 19.158360 48.778065 24.520592 # O 32
254 32 2 0.000000 19.420134 50.163357 25.104645 # O 32
255 32 2 0.000000 18.827778 50.315563 26.502722 # O 32
256 32 1 0.000000 19.089550 51.700851 27.086775 # N 32
257 33 1 0.000000 12.150805 88.232269 23.018166 # N 33
258 33 2 0.000000 13.337908 87.371284 23.440262 # O 33
259 33 2 0.000000 12.950434 86.342926 24.499046 # O 33
260 33 2 0.000000 14.137537 85.481941 24.921143 # O 33
261 33 2 0.000000 13.750062 84.453583 25.979927 # O 33
262 33 2 0.000000 14.937165 83.592598 26.402025 # O 33
263 33 2 0.000000 14.549691 82.564247 27.460810 # O 33
264 33 1 0.000000 15.736794 81.703262 27.882906 # N 33
265 34 1 0.000000 26.059422 40.844978 94.339012 # N 34
266 34 2 0.000000 24.640797 40.411419 94.697075 # O 34
267 34 2 0.000000 24.433460 40.324287 96.206406 # O 34
268 34 2 0.000000 23.014835 39.890732 96.564468 # O 34
269 34 2 0.000000 22.807499 39.803600 98.073807 # O 34
270 34 2 0.000000 21.388874 39.370041 98.431862 # O 34
271 34 2 0.000000 21.181538 39.282913 99.941200 # O 34
272 34 1 0.000000 19.762911 38.849358 100.299255 # N 34
273 35 1 0.000000 16.518032 72.668655 96.852127 # N 35
274 35 2 0.000000 15.651350 73.458878 95.875862 # O 35
275 35 2 0.000000 15.793288 74.965096 96.075493 # O 35
276 35 2 0.000000 14.926607 75.755318 95.099228 # O 35
277 35 2 0.000000 15.068545 77.261536 95.298866 # O 35
278 35 2 0.000000 14.201864 78.051758 94.322601 # O 35
279 35 2 0.000000 14.343802 79.557968 94.522232 # O 35
280 35 1 0.000000 13.477121 80.348190 93.545967 # N 35
281 36 1 0.000000 14.472084 86.260918 33.140331 # N 36
282 36 2 0.000000 13.232062 85.377922 33.246784 # O 36
283 36 2 0.000000 13.077421 84.461266 32.036617 # O 36
284 36 2 0.000000 11.837399 83.578262 32.143070 # O 36
285 36 2 0.000000 11.682758 82.661606 30.932903 # O 36
286 36 2 0.000000 10.442736 81.778610 31.039356 # O 36
287 36 2 0.000000 10.288095 80.861954 29.829187 # O 36
288 36 1 0.000000 9.048073 79.978958 29.935642 # N 36
289 37 1 0.000000 22.063103 9.386750 26.338364 # N 37
290 37 2 0.000000 22.933769 10.401791 25.603306 # O 37
291 37 2 0.000000 23.380356 11.539661 26.516809 # O 37
292 37 2 0.000000 24.251024 12.554702 25.781754 # O 37
293 37 2 0.000000 24.697611 13.692573 26.695255 # O 37
294 37 2 0.000000 25.568277 14.707613 25.960197 # O 37
295 37 2 0.000000 26.014864 15.845484 26.873699 # O 37
296 37 1 0.000000 26.885532 16.860525 26.138643 # N 37
297 38 1 0.000000 13.502467 42.748703 14.546695 # N 38
298 38 2 0.000000 14.469600 42.878414 13.373448 # O 38
299 38 2 0.000000 15.905721 42.558651 13.778397 # O 38
300 38 2 0.000000 16.872852 42.688366 12.605151 # O 38
301 38 2 0.000000 18.308975 42.368603 13.010099 # O 38
302 38 2 0.000000 19.276106 42.498314 11.836854 # O 38
303 38 2 0.000000 20.712227 42.178551 12.241802 # O 38
304 38 1 0.000000 21.679359 42.308266 11.068556 # N 38
305 39 1 0.000000 13.617964 47.772629 11.719761 # N 39
306 39 2 0.000000 14.782202 47.897667 12.698327 # O 39
307 39 2 0.000000 15.509371 49.231506 12.554198 # O 39
308 39 2 0.000000 16.673609 49.356544 13.532764 # O 39
309 39 2 0.000000 17.400778 50.690384 13.388636 # O 39
310 39 2 0.000000 18.565016 50.815418 14.367201 # O 39
311 39 2 0.000000 19.292185 52.149258 14.223072 # O 39
312 39 1 0.000000 20.456425 52.274296 15.201638 # N 39
313 40 1 0.000000 20.393900 75.375549 31.998283 # N 40
314 40 2 0.000000 19.602966 76.277802 32.941170 # O 40
315 40 2 0.000000 18.097433 76.072914 32.799500 # O 40
316 40 2 0.000000 17.306499 76.975166 33.742386 # O 40
317 40 2 0.000000 15.800966 76.770287 33.600712 # O 40
318 40 2 0.000000 15.010032 77.672539 34.543602 # O 40
319 40 2 0.000000 13.504499 77.467659 34.401924 # O 40
320 40 1 0.000000 12.713565 78.369911 35.344810 # N 40
321 41 1 0.000000 14.309420 70.093338 41.630520 # N 41
322 41 2 0.000000 15.401244 71.156380 41.711411 # O 41
323 41 2 0.000000 14.854081 72.558228 41.458229 # O 41
324 41 2 0.000000 15.945906 73.621277 41.539124 # O 41
325 41 2 0.000000 15.398743 75.023125 41.285942 # O 41
326 41 2 0.000000 16.490566 76.086166 41.366837 # O 41
327 41 2 0.000000 15.943403 77.488014 41.113655 # O 41
328 41 1 0.000000 17.035227 78.551056 41.194546 # N 41
329 42 1 0.000000 17.036507 66.122780 37.732361 # N 42
330 42 2 0.000000 17.967022 67.149628 37.093307 # O 42
331 42 2 0.000000 19.319246 67.212204 37.797752 # O 42
332 42 2 0.000000 20.249763 68.239059 37.158699 # O 42
333 42 2 0.000000 21.601988 68.301628 37.863152 # O 42
334 42 2 0.000000 22.532503 69.328476 37.224098 # O 42
335 42 2 0.000000 23.884727 69.391052 37.928543 # O 42
336 42 1 0.000000 24.815243 70.417908 37.289490 # N 42
337 43 1 0.000000 19.047375 61.248066 37.058125 # N 43
338 43 2 0.000000 19.906509 60.080433 36.581470 # O 43
339 43 2 0.000000 19.126202 59.126587 35.681488 # O 43
340 43 2 0.000000 19.985334 57.958954 35.204834 # O 43
341 43 2 0.000000 19.205027 57.005104 34.304848 # O 43
342 43 2 0.000000 20.064159 55.837471 33.828194 # O 43
343 43 2 0.000000 19.283852 54.883621 32.928215 # O 43
344 43 1 0.000000 20.142986 53.715988 32.451561 # N 43
345 44 1 0.000000 13.971510 40.263645 16.330532 # N 44
346 44 2 0.000000 13.634642 40.503563 17.799423 # O 44
347 44 2 0.000000 12.771148 41.746902 17.992189 # O 44
348 44 2 0.000000 12.434278 41.986816 19.461079 # O 44
349 44 2 0.000000 11.570786 43.230160 19.653847 # O 44
350 44 2 0.000000 11.233916 43.470078 21.122736 # O 44
351 44 2 0.000000 10.370422 44.713417 21.315504 # O 44
352 44 1 0.000000 10.033554 44.953335 22.784393 # N 44
353 45 1 0.000000 17.049438 56.580811 42.752922 # N 45
354 45 2 0.000000 16.353842 55.829617 41.621319 # O 45
355 45 2 0.000000 17.219896 54.702385 41.066360 # O 45
356 45 2 0.000000 16.524300 53.951191 39.934757 # O 45
357 45 2 0.000000 17.390354 52.823959 39.379799 # O 45
358 45 2 0.000000 16.694759 52.072765 38.248196 # O 45
359 45 2 0.000000 17.560812 50.945534 37.693237 # O 45
360 45 1 0.000000 16.865217 50.194340 36.561634 # N 45
361 46 1 0.000000 16.791237 61.784481 18.632473 # N 46
362 46 2 0.000000 18.023453 62.291798 17.888866 # O 46
363 46 2 0.000000 19.318024 61.765675 18.502018 # O 46
364 46 2 0.000000 20.550240 62.272995 17.758410 # O 46
365 46 2 0.000000 21.844810 61.746872 18.371559 # O 46
366 46 2 0.000000 23.077026 62.254189 17.627953 # O 46
367 46 2 0.000000 24.371599 61.728069 18.241102 # O 46
368 46 1 0.000000 25.603813 62.235386 17.497494 # N 46
369 47 1 0.000000 13.992195 77.960518 98.981255 # N 47
370 47 2 0.000000 13.350947 79.344727 98.943153 # O 47
371 47 2 0.000000 14.034495 80.263840 97.934860 # O 47
372 47 2 0.000000 13.393248 81.648048 97.896759 # O 47
373 47 2 0.000000 14.076796 82.567162 96.888458 # O 47
374 47 2 0.000000 13.435548 83.951370 96.850357 # O 47
375 47 2 0.000000 14.119096 84.870483 95.842064 # O 47
376 47 1 0.000000 13.477848 86.254692 95.803963 # N 47
377 48 1 0.000000 7.644400 69.075424 81.854767 # N 48
378 48 2 0.000000 8.854363 68.289734 81.357414 # O 48
379 48 2 0.000000 10.169624 68.957840 81.747803 # O 48
380 48 2 0.000000 11.379589 68.172150 81.250458 # O 48
381 48 2 0.000000 12.694849 68.840248 81.640846 # O 48
382 48 2 0.000000 13.904814 68.054565 81.143494 # O 48
383 48 2 0.000000 15.220074 68.722664 81.533882 # O 48
384 48 1 0.000000 16.430038 67.936981 81.036537 # N 48
385 49 1 0.000000 20.440807 53.998791 88.776924 # N 49
386 49 2 0.000000 19.044580 54.595245 88.930107 # O 49
387 49 2 0.000000 17.970741 53.701820 88.315826 # O 49
388 49 2 0.000000 16.574514 54.298279 88.469009 # O 49
389 49 2 0.000000 15.500673 53.404850 87.854736 # O 49
390 49 2 0.000000 14.104446 54.001308 88.007919 # O 49
391 49 2 0.000000 13.030607 53.107883 87.393646 # O 49
392 49 1 0.000000 11.634380 53.704342 87.546829 # N 49
393 50 1 0.000000 14.222658 56.836269 37.075073 # N 50
394 50 2 0.000000 14.742229 55.401752 37.104782 # O 50
395 50 2 0.000000 13.619537 54.383362 36.928375 # O 50
396 50 2 0.000000 14.139109 52.948845 36.958084 # O 50
397 50 2 0.000000 13.016417 51.930454 36.781673 # O 50
398 50 2 0.000000 13.535989 50.495937 36.811382 # O 50
399 50 2 0.000000 12.413297 49.477547 36.634972 # O 50
400 50 1 0.000000 12.932869 48.043030 36.664680 # N 50
401 51 1 0.000000 12.285857 52.075405 77.996223 # N 51
402 51 2 0.000000 13.709613 51.530563 77.927361 # O 51
403 51 2 0.000000 14.394115 51.884651 76.610260 # O 51
404 51 2 0.000000 15.817871 51.339806 76.541397 # O 51
405 51 2 0.000000 16.502373 51.693893 75.224297 # O 51
406 51 2 0.000000 17.926128 51.149048 75.155441 # O 51
407 51 2 0.000000 18.610630 51.503136 73.838333 # O 51
408 51 1 0.000000 20.034386 50.958294 73.769478 # N 51
409 52 1 0.000000 18.210739 46.882347 87.885292 # N 52
410 52 2 0.000000 18.323410 47.583954 86.534836 # O 52
411 52 2 0.000000 17.144150 48.517036 86.275261 # O 52
412 52 2 0.000000 17.256819 49.218647 84.924805 # O 52
413 52 2 0.000000 16.077557 50.151726 84.665230 # O 52
414 52 2 0.000000 16.190228 50.853336 83.314781 # O 52
415 52 2 0.000000 15.010966 51.786419 83.055199 # O 52
416 52 1 0.000000 15.123636 52.488026 81.704750 # N 52
417 53 1 0.000000 24.782528 56.218250 23.140556 # N 53
418 53 2 0.000000 24.420519 57.261196 22.087042 # O 53
419 53 2 0.000000 24.873505 56.844372 20.690712 # O 53
420 53 2 0.000000 24.511496 57.887318 19.637199 # O 53
421 53 2 0.000000 24.964481 57.470490 18.240871 # O 53
422 53 2 0.000000 24.602470 58.513435 17.187359 # O 53
423 53 2 0.000000 25.055458 58.096607 15.791029 # O 53
424 53 1 0.000000 24.693447 59.139553 14.737516 # N 53
425 54 1 0.000000 18.431767 71.537933 41.310356 # N 54
426 54 2 0.000000 18.500957 70.830849 42.660881 # O 54
427 54 2 0.000000 18.391285 71.810806 43.825497 # O 54
428 54 2 0.000000 18.460476 71.103729 45.176022 # O 54
429 54 2 0.000000 18.350807 72.083687 46.340637 # O 54
430 54 2 0.000000 18.419998 71.376602 47.691162 # O 54
431 54 2 0.000000 18.310328 72.356567 48.855774 # O 54
432 54 1 0.000000 18.379517 71.649475 50.206303 # N 54
433 55 1 0.000000 14.297167 65.325928 11.995085 # N 55
434 55 2 0.000000 14.585432 65.291016 13.493204 # O 55
435 55 2 0.000000 14.438478 66.667267 14.135847 # O 55
436 55 2 0.000000 14.726742 66.632355 15.633966 # O 55
437 55 2 0.000000 14.579788 68.008614 16.276609 # O 55
438 55 2 0.000000 14.868053 67.973694 17.774729 # O 55
439 55 2 0.000000 14.721099 69.349953 18.417372 # O 55
440 55 1 0.000000 15.009364 69.315033 19.915491 # N 55
441 56 1 0.000000 16.309296 78.350960 31.231791 # N 56
442 56 2 0.000000 15.749981 77.383080 30.193016 # O 56
443 56 2 0.000000 16.671726 76.187332 29.971077 # O 56
444 56 2 0.000000 16.112411 75.219452 28.932302 # O 56
445 56 2 0.000000 17.034157 74.023712 28.710361 # O 56
446 56 2 0.000000 16.474840 73.055832 27.671587 # O 56
447 56 2 0.000000 17.396585 71.860085 27.449646 # O 56
448 56 1 0.000000 16.837271 70.892204 26.410873 # N 56
449 57 1 0.000000 19.446535 70.270447 34.155403 # N 57
450 57 2 0.000000 19.865173 69.251457 33.099426 # O 57
451 57 2 0.000000 19.326744 67.856827 33.405655 # O 57
452 57 2 0.000000 19.745384 66.837837 32.349682 # O 57
453 57 2 0.000000 19.206955 65.443207 32.655907 # O 57
454 57 2 0.000000 19.625593 64.424217 31.599934 # O 57
455 57 2 0.000000 19.087166 63.029587 31.906162 # O 57
456 57 1 0.000000 19.505804 62.010597 30.850187 # N 57
457 58 1 0.000000 9.791772 13.079435 15.054945 # N 58
458 58 2 0.000000 10.616398 14.187922 14.406927 # O 58
459 58 2 0.000000 10.780236 13.974854 12.904784 # O 58
460 58 2 0.000000 11.604863 15.083340 12.256767 # O 58
461 58 2 0.000000 11.768702 14.870272 10.754623 # O 58
462 58 2 0.000000 12.593328 15.978758 10.106606 # O 58
463 58 2 0.000000 12.757166 15.765690 8.604463 # O 58
464 58 1 0.000000 13.581792 16.874176 7.956446 # N 58
465 59 1 0.000000 16.447674 65.755508 25.837887 # N 59
466 59 2 0.000000 16.419113 64.785919 27.015919 # O 59
467 59 2 0.000000 15.480336 63.609268 26.765207 # O 59
468 59 2 0.000000 15.451775 62.639679 27.943239 # O 59
469 59 2 0.000000 14.512999 61.463024 27.692528 # O 59
470 59 2 0.000000 14.484437 60.493435 28.870560 # O 59
471 59 2 0.000000 13.545660 59.316780 28.619848 # O 59
472 59 1 0.000000 13.517099 58.347191 29.797882 # N 59
473 60 1 0.000000 13.462327 76.934113 12.625937 # N 60
474 60 2 0.000000 13.561963 75.462357 13.016689 # O 60
475 60 2 0.000000 15.008684 75.021614 13.220208 # O 60
476 60 2 0.000000 15.108320 73.549866 13.610962 # O 60
477 60 2 0.000000 16.555042 73.109116 13.814481 # O 60
478 60 2 0.000000 16.654678 71.637360 14.205235 # O 60
479 60 2 0.000000 18.101398 71.196625 14.408752 # O 60
480 60 1 0.000000 18.201035 69.724869 14.799505 # N 60
481 61 1 0.000000 7.807329 49.493252 99.484764 # N 61
482 61 2 0.000000 8.742248 49.615185 98.284874 # O 61
483 61 2 0.000000 10.209743 49.514408 98.691048 # O 61
484 61 2 0.000000 11.144661 49.636341 97.491158 # O 61
485 61 2 0.000000 12.612157 49.535564 97.897331 # O 61
486 61 2 0.000000 13.547075 49.657501 96.697441 # O 61
487 61 2 0.000000 15.014570 49.556725 97.103615 # O 61
488 61 1 0.000000 15.949489 49.678658 95.903725 # N 61
489 62 1 0.000000 15.453330 39.972694 8.054934 # N 62
490 62 2 0.000000 15.118331 40.396858 9.482006 # O 62
491 62 2 0.000000 13.617165 40.579319 9.686659 # O 62
492 62 2 0.000000 13.282166 41.003487 11.113731 # O 62
493 62 2 0.000000 11.780998 41.185944 11.318384 # O 62
494 62 2 0.000000 11.445999 41.610107 12.745457 # O 62
495 62 2 0.000000 9.944833 41.792572 12.950109 # O 62
496 62 1 0.000000 9.609834 42.216736 14.377182 # N 62
497 63 1 0.000000 20.656677 22.873459 78.256386 # N 63
498 63 2 0.000000 21.655552 22.306866 77.251450 # O 63
499 63 2 0.000000 23.041832 22.126152 77.863205 # O 63
500 63 2 0.000000 24.040707 21.559561 76.858269 # O 63
501 63 2 0.000000 25.426989 21.378849 77.470024 # O 63
502 63 2 0.000000 26.425863 20.812256 76.465088 # O 63
503 63 2 0.000000 27.812145 20.631546 77.076843 # O 63
504 63 1 0.000000 28.811020 20.064953 76.071907 # N 63
505 64 1 0.000000 20.896990 49.207520 53.746986 # N 64
506 64 2 0.000000 19.636696 50.064152 53.666248 # O 64
507 64 2 0.000000 19.740984 51.133812 52.582909 # O 64
508 64 2 0.000000 18.480690 51.990440 52.502167 # O 64
509 64 2 0.000000 18.584976 53.060101 51.418827 # O 64
510 64 2 0.000000 17.324684 53.916733 51.338089 # O 64
511 64 2 0.000000 17.428970 54.986389 50.254745 # O 64
512 64 1 0.000000 16.168678 55.843021 50.174007 # N 64
513 65 1 0.000000 15.343999 76.992722 85.330521 # N 65
514 65 2 0.000000 14.847901 75.878784 86.247971 # O 65
515 65 2 0.000000 14.164514 76.428535 87.496742 # O 65
516 65 2 0.000000 13.668416 75.314598 88.414200 # O 65
517 65 2 0.000000 12.985028 75.864349 89.662971 # O 65
518 65 2 0.000000 12.488930 74.750412 90.580421 # O 65
519 65 2 0.000000 11.805542 75.300163 91.829201 # O 65
520 65 1 0.000000 11.309444 74.186226 92.746651 # N 65
521 66 1 0.000000 20.265341 71.439301 26.665627 # N 66
522 66 2 0.000000 19.715485 70.120941 26.128733 # O 66
523 66 2 0.000000 20.746414 69.370758 25.290228 # O 66
524 66 2 0.000000 20.196556 68.052399 24.753334 # O 66
525 66 2 0.000000 21.227486 67.302216 23.914829 # O 66
526 66 2 0.000000 20.677629 65.983856 23.377934 # O 66
527 66 2 0.000000 21.708557 65.233673 22.539429 # O 66
528 66 1 0.000000 21.158701 63.915310 22.002537 # N 66
529 67 1 0.000000 11.147384 72.618301 43.451866 # N 67
530 67 2 0.000000 11.503562 73.187668 44.822136 # O 67
531 67 2 0.000000 13.003031 73.430481 44.968094 # O 67
532 67 2 0.000000 13.359209 73.999855 46.338364 # O 67
533 67 2 0.000000 14.858679 74.242676 46.484325 # O 67
534 67 2 0.000000 15.214857 74.812042 47.854591 # O 67
535 67 2 0.000000 16.714327 75.054863 48.000553 # O 67
536 67 1 0.000000 17.070503 75.624229 49.370819 # N 67
537 68 1 0.000000 16.879578 28.342123 96.286179 # N 68
538 68 2 0.000000 16.955271 28.146553 97.797699 # O 68
539 68 2 0.000000 16.522463 29.396717 98.558258 # O 68
540 68 2 0.000000 16.598158 29.201147 100.069778 # O 68