LAMMPS data file via write_data, version 29 Oct 2020, timestep = 300000

2048 atoms
1 atom types

0.3142276456088986 28.03777235439016 xlo xhi
0.3142276456088986 28.03777235439016 ylo yhi
0.3142276456088986 28.03777235439016 zlo zhi

Masses

1 58.933

Atoms # atomic

551 1 3.1849463270557434 4.883056784756378 1.3628358385330175 1 0 0
83 1 2.8749606784932253 1.3004482956269041 2.6182965502621802 2 1 2
518 1 1.6945018387551007 3.209707842647852 2.681217849894216 0 -1 -1
1701 1 7.344152946441315 9.862719453606836 2.344349963853962 -1 -1 -1
604 1 2.9371898359380912 4.5799087286138525 5.730765458788513 0 1 0
1575 1 26.071833323457472 11.339917748051123 11.651906231349052 -1 0 1
756 1 17.245283702911596 1.5201998163222687 13.976810554233765 -1 1 0
797 1 5.0980316361804645 1.3689958744652162 3.1611135496955676 -1 0 2
1996 1 6.290900441350961 2.680005368081204 4.604065725647212 1 -1 1
1279 1 25.88939255034875 9.144653424601508 12.356911004520564 -1 0 -1
1957 1 3.7624051340411957 3.174485804294863 3.8921961154621236 -1 1 2
370 1 26.024418331074543 7.729799316108712 13.879482393427896 0 -1 -1
2 1 21.046068587053355 0.9133420877353033 11.429421899802492 -1 0 0
1503 1 5.931227926897635 3.9172842789247095 2.7351453606994376 2 0 0
1565 1 8.460454227353539 1.7826357783255267 3.533874558134361 1 0 0
1598 1 12.839639843891671 2.2725264725087957 3.850404072262927 0 1 1
947 1 10.291224068218575 3.022698963504172 3.9090385129866787 -1 1 1
1253 1 10.543371168301832 1.8843084282809672 2.0429523435477854 -1 0 -1
217 1 7.749136527612247 4.887461016602393 1.6781361630107026 0 0 0
1284 1 7.109527943261927 1.9901360284831504 2.064061044765102 0 1 1
395 1 27.21276777388357 4.07213509536944 0.9150053056361673 -1 -2 0
198 1 11.800545113790253 3.9614881031675844 2.011875598678573 0 1 -2
199 1 11.03781095009215 5.056042352850448 13.691082597362914 0 0 0
335 1 13.750225636565608 3.5018893257488366 2.3706060357150474 1 0 2
1847 1 13.606141193938676 5.052362696652869 1.219023181992466 1 0 0
1356 1 13.237385845360734 5.228388455725179 3.8139449774174894 0 -1 1
1676 1 15.53313598039438 3.8935784352971803 0.6725027858751206 -2 1 0
1743 1 14.70317115237088 3.655912264466673 5.035170567716412 1 2 2
699 1 10.689350721010003 5.526589754032518 4.054854386002127 0 0 1
735 1 15.610458620860756 4.566695211789705 2.8808383411969887 2 0 0
883 1 18.0161200429262 1.4121923934955902 2.217033243653829 1 -1 1
1122 1 17.68500064001138 3.8417569049860814 1.4200807885342845 0 0 1
1314 1 16.068945089776502 2.5008784825738166 2.8075364832325262 -1 0 0
385 1 16.689804569521645 2.280855660846153 4.791513109226154 -1 0 -1
1234 1 15.092234383553432 10.854866580720481 1.1871216138803675 -1 1 0
866 1 22.313050099405096 13.078478906362577 1.8696602173366963 -1 0 1
36 1 17.12898235784831 5.843808398006768 1.932100257049763 -2 1 1
1110 1 5.8223914388208895 8.129451878447556 1.0670631130000192 -1 0 1
1580 1 9.155211855400706 0.4993752034130611 10.175371365471596 0 1 -2
37 1 22.053799306886013 2.3276359930667465 3.162678144403419 -1 1 1
1865 1 21.190736041062085 4.422723148318988 2.7568298084071525 1 2 2
1651 1 20.050822389401244 2.62945867347884 1.9219944740925659 0 2 1
440 1 23.012509022407382 5.981554434002537 2.3562678127855485 0 0 0
1013 1 23.154523057637245 3.3676829734656493 4.834389285070905 1 1 1
578 1 23.59011512606978 3.7521609083134604 2.5515491338233858 0 -1 1
662 1 20.411891602259658 0.7940283585993327 9.09352138677977 1 0 1
1995 1 6.870742121235941 13.450151357472684 0.7094579189791248 2 -1 0
1236 1 11.489775909829671 0.7291422658900177 6.262488313988223 1 1 1
725 1 5.41303627625561 0.9816925678605102 0.876142346005114 0 2 3
208 1 26.077779392320643 3.8045206582240825 2.414665901124499 -1 0 1
1843 1 1.2116393489334039 5.455534154599371 1.766673998424289 1 0 1
228 1 25.60549450283864 2.2399871876777446 0.9714381385622941 -3 0 1
1543 1 27.7054083578492 1.2807759149872207 3.5736743113798863 -1 1 1
1944 1 0.6704434364123788 1.7121727555261856 1.421755478666242 2 -1 0
165 1 24.699874396895062 4.9883649721222225 3.923842558301947 -1 -1 -1
1678 1 27.605831798237386 4.497448932165479 3.3848698984054226 -2 0 -1
145 1 26.90356304993861 11.554709048544128 0.7103978035318058 0 -1 0
2020 1 26.932462774096354 2.314830674000798 5.77188472687858 0 0 2
814 1 2.0357713638969033 5.099182604387612 3.75568882404832 1 -1 1
821 1 6.598616746367272 10.449133100545108 0.5706397523279925 -1 0 0
1643 1 1.1361035965515276 6.428233319225724 5.0805838286788685 0 1 1
964 1 1.51074615856403 10.926372671867801 1.4632404958491747 -2 0 1
462 1 3.0426582352028455 7.21240560944488 4.43563875643711 0 -1 0
559 1 28.03133230808272 9.793692924536376 3.3777085574806542 0 0 1
749 1 0.5988340060186272 7.277602352556985 3.2527160914336286 2 0 1
1609 1 4.25839724434229 5.4206471095490185 3.727025191079509 0 1 1
478 1 5.235348885214503 8.575072441857914 4.614189466876326 1 -1 1
99 1 2.867423013231081 6.847750205243715 1.9647223685591604 -1 -1 1
881 1 6.262566422976762 4.6465192455601505 5.322946824295797 1 0 1
1784 1 4.525521919126445 7.69792335998859 2.954381168587663 -1 0 1
1739 1 6.295825299148918 10.860622322831405 4.3808600486632665 0 1 1
799 1 15.294787766477787 6.582858335782789 1.120334516752604 1 -2 0
1731 1 10.02995101095088 5.11507623484094 1.5887288659727636 0 1 1
469 1 10.100627876898892 8.317693288046675 3.85319031015095 1 1 0
1516 1 8.565442402203878 6.094991872378177 4.099773388055127 0 1 0
660 1 11.8624456204752 8.199178566809069 6.046242204284441 0 -1 0
959 1 6.403181020827122 5.805824705323331 3.323693507629197 1 0 2
158 1 11.43397236874797 8.501920947876119 2.1242049884000727 0 3 -2
1656 1 9.282689953210697 7.039662140236499 2.256479346552667 0 1 2
157 1 7.498098381470446 7.024500386005809 0.9734398118846755 2 0 0
656 1 6.899130793272494 6.9197043704132986 5.2634439857708655 0 -1 0
1164 1 6.879076960918853 7.824324502130226 3.241402064501422 -1 0 -1
1033 1 18.023013886672548 0.34018252871643334 4.228448652764001 -1 0 1
1802 1 8.703591134778872 9.208623677766663 0.8839014577291815 -1 -1 1
1331 1 13.692702195368412 7.596289736797397 2.2814758317196304 0 0 1
1445 1 11.72801877562594 9.677434428103648 3.8401274816293793 -1 0 -1
1719 1 15.29839824111358 8.262345380512684 5.003338165676682 1 0 1
1050 1 17.97322684503841 8.150327298500756 2.0996691748954612 -1 1 0
353 1 13.608375017167715 9.969720604582363 2.5779277528633044 -1 1 1
112 1 12.152932813489135 7.47037606910494 3.9179133787797946 -2 -1 0
1327 1 14.855973384549984 11.555811861774835 3.316928652202307 0 0 1
166 1 19.03732217609317 2.0901223255813344 5.85649437393862 -2 0 -1
1828 1 23.47272814921104 1.4483812961698461 1.4634182339375552 0 1 2
570 1 15.526317728692746 5.841967954033047 4.914983327247784 2 0 1
1899 1 0.658692399332337 1.7199386555931002 10.781408786262922 0 1 1
906 1 1.2549285415247722 0.5093050542908537 5.259587259067681 2 0 2
23 1 17.34824830117883 7.6902871768789485 5.939343904898744 1 1 0
1427 1 15.733929837167969 7.17579417976316 3.3496240249031475 -1 1 0
251 1 18.64222213870783 7.00786752635152 3.8840294886516498 -1 0 1
281 1 20.177302855496713 8.502486601076736 2.8029623160849826 -1 1 1
805 1 16.784827575498085 9.334307412712963 4.277707805097055 0 -1 0
757 1 17.375646666958627 5.475545314666822 4.336058174817771 -1 0 0
161 1 21.167119123288916 7.273306176517788 0.7684472153393268 -1 0 -1
603 1 21.087565110107672 6.738469008011993 3.0858159987786777 0 0 1
1816 1 23.457587970037896 1.6964685714691676 13.091484942622396 0 0 0
550 1 22.808403194888353 8.735618875413463 1.352330009245269 0 1 1
1682 1 20.87132186726956 9.542252948142936 0.8679851799479211 -1 0 -1
193 1 22.85265325374775 8.338987579267723 3.4613961646792566 -2 -1 -1
1556 1 22.929479718241684 8.29041837973769 5.519437544433443 -1 2 -1
382 1 24.683757507222484 7.592340281682403 2.2152353531402245 0 0 1
13 1 24.942396799796402 13.936863204810555 11.04694140754101 -2 0 0
1240 1 26.12835827566564 6.530486854097847 4.290458804412891 0 1 -1
1619 1 25.2924862261671 9.63313812599294 3.42301276895851 -2 1 0
1230 1 26.708945268843436 6.315197581583047 2.087256699057774 -1 1 -1
1989 1 16.807449644087477 13.440027857784441 4.187507463183908 -1 1 1
673 1 2.5840669626821766 8.379493356235844 11.948429627716711 1 -2 1
1645 1 27.331131328920357 8.14891772988884 4.969075116588423 -2 1 0
1993 1 1.9902656626093944 12.748259576957048 2.5940687149454895 -2 0 3
880 1 2.8051358083159506 8.915373785438895 3.3045233326727366 0 1 0
717 1 2.5653855923480093 10.851462221295924 3.7461800330286765 1 0 3
219 1 6.091843259023037 11.880870497194893 2.528235482067722 0 -1 1
244 1 26.828569556032598 11.492855231255025 2.748944400859535 1 1 0
2031 1 13.994793424202124 8.559581397095766 0.48263836462195026 -2 0 -2
868 1 0.6382776675859492 12.243471392315433 4.287599011606139 0 -1 0
114 1 7.326796765038806 1.2958156905749254 8.50512727885299 1 0 0
832 1 8.466107177810953 10.756374916401004 3.91495581887532 1 -1 1
933 1 3.7303635870923704 11.33279913099869 1.99735522071334 1 0 1
1600 1 4.219857651587539 11.880513134733283 4.1069675501251925 0 -1 0
240 1 5.000546084170322 9.734796470189861 2.394191040628447 1 0 0
127 1 9.381176939186288 13.662940918159686 1.1158212642331566 1 0 1
1180 1 8.310350372307028 13.519512316890282 7.786172330969991 0 0 -1
1711 1 7.777500233754489 12.945461576681977 3.121598973649604 1 -1 0
1290 1 24.7519018875065 5.682646949250669 1.2004020613103585 0 1 2
1023 1 21.762536722634405 3.3112892245532652 0.48050408573822123 -1 1 0
1085 1 4.788250196722806 0.5599492095322972 9.302449886358605 2 0 0
1849 1 9.590237140500603 12.291596728679078 3.1175478638577196 -2 0 1
960 1 7.592206579173318 8.81092522598939 5.319328108838456 2 0 1
547 1 11.641596407963407 11.836460179265549 3.7471995314017432 0 0 -1
34 1 4.984854496107251 12.194290782269817 0.4497613453785305 0 1 0
304 1 9.543609637909093 9.676320232760352 5.700274014073558 0 0 -1
1689 1 15.652621239680649 9.105658414315144 2.3099861431168254 1 1 1
1073 1 8.506765973948855 11.574855642650418 0.7977890257821827 -1 1 0
1220 1 11.318415664972575 12.326081582492195 1.2960279109559734 0 1 2
1484 1 10.066411420742758 10.470786402453312 2.1159032037700136 0 1 1
641 1 12.782963957458684 12.357905798797223 5.731208170817043 1 -2 0
1583 1 13.122875027760788 13.083430736357085 2.8402751840916256 0 -2 -1
678 1 14.537571397878597 13.009723131017651 4.595062611497278 -1 1 1
1252 1 16.768522794556013 3.9695286026522663 13.593278986960055 -1 0 -1
186 1 13.674771198960324 12.510458929084768 0.6457156056152624 1 0 0
750 1 3.427189802574506 13.168627403717467 10.17191130830798 1 -1 1
761 1 18.45179708700351 9.950184500794846 2.626251712921072 -1 1 -1
1435 1 17.19844506434123 11.131584844940951 1.4090803650051682 -1 1 1
1597 1 18.86725584653976 12.780676694367203 2.9063527139548206 1 1 -1
1454 1 17.698414844239196 11.150176604090463 4.293694290517504 -1 0 0
1300 1 16.431720229876685 13.270853644505912 6.4257059752509 1 1 0
577 1 20.64018554130084 11.42755072566192 2.9339220665728227 0 -2 -1
1340 1 17.779241784241663 10.376451833997269 6.333969042186675 0 1 1
1641 1 20.214893593846288 11.105765578269173 4.946100622123776 -2 1 1
2011 1 23.466485414404623 10.72402453654607 0.7618806016091724 0 1 0
935 1 20.575102166361805 13.723468320343994 3.359120650856532 -1 0 -1
349 1 22.746375525836207 10.442640246239064 2.9938964409743627 1 0 1
107 1 1.042867256803015 13.993918967599928 13.20415232594724 0 0 0
808 1 27.796805203122638 12.636061958762665 8.293772722233342 0 -1 1
1806 1 23.798783969399793 10.661712171118085 5.00213998107398 1 2 -1
398 1 21.504104662505778 11.94464078069249 0.4834824651532633 -1 -1 0
1492 1 18.6228001441613 5.891571826220058 0.5336713296616791 1 0 0
688 1 23.86828287318115 13.833816615569662 0.6980231082703977 -1 1 1
1307 1 22.375815053965475 12.363298468057632 4.080306293460481 -1 -1 0
457 1 24.374270879180973 11.91165216133616 2.6407729823329973 0 0 0
2010 1 25.697072796879453 13.267854533591104 1.4842920102093062 -1 1 1
557 1 26.610487053357872 8.487557519462376 2.167870009258147 -3 0 0
1970 1 26.344255951965504 13.04165835639012 4.137761027177696 -2 0 1
1458 1 27.750668813012524 13.483052127487491 2.4647371594862313 -1 2 1
870 1 26.39995194769451 11.040541068901232 4.806988654617897 0 0 1
1939 1 25.420726757265456 10.086142119240819 1.4484857977230876 0 0 1
1677 1 3.1022689019363123 1.6103849004534152 6.0450396228954295 0 1 0
1732 1 4.899086043310895 4.984439724262232 7.493164453968429 1 2 0
1401 1 0.4673114784083102 4.619046439917878 5.925902759832474 1 1 1
1039 1 2.7518264064971154 1.4336589393291868 10.114172871784108 -1 1 0
1185 1 10.877113727378402 14.005474105235256 13.617690564071443 0 -1 -1
580 1 5.350452853620955 1.6765641650238174 7.236463552661843 2 0 -1
47 1 27.723721845061874 9.867765414666595 13.495090954293758 -1 -2 0
1124 1 0.9631617950263353 1.9881486753514248 7.111422062470373 1 2 0
1555 1 2.2602656333509596 4.930628962897405 7.920261513806108 1 0 0
1958 1 1.3232652267066554 2.7522943353654226 4.897529291527447 1 0 0
1294 1 1.0473893596119983 10.524897693997938 8.330612971290332 0 1 0
601 1 4.694362776704942 3.397060308754825 6.135822450876192 1 -1 0
49 1 5.500100034986127 2.714816929383364 9.434221429703813 2 1 0
1930 1 7.056717360015555 3.4190944523617546 7.267258175239088 1 3 0
2012 1 7.242247803529354 0.5895511588874556 6.056802146720307 1 0 2
2016 1 2.9229723272713977 2.6341483795152687 8.236837794110942 1 2 2
909 1 8.082216217225792 3.9318617854836893 3.509885228028204 0 0 3
1144 1 1.7720655309727187 13.527977335967293 11.27804928691126 1 0 -1
1669 1 6.168400712226831 4.482379251397683 10.021808387079066 0 1 -1
655 1 5.966049284828125 10.795276238654388 13.510664074774711 1 -1 0
316 1 10.097251820788014 2.616740734297997 8.272875611596554 -2 -1 1
410 1 8.243197292115227 2.8289226907203884 5.577666240896967 1 1 1
1242 1 9.488194531572725 0.7684969464406942 7.921491770344464 -1 0 0
455 1 10.52225616770957 2.6572415631646633 6.26225656675808 -1 1 0
1343 1 12.379374044160116 2.345056189854038 8.218698687998018 0 1 -1
1183 1 11.32592935925686 4.339084850748979 7.399009703585849 -2 0 0
1895 1 11.259804048030022 1.0737869422210162 9.307058718387918 1 0 0
1191 1 9.118071170774884 4.431730474854411 7.7596917489740935 1 2 -1
732 1 13.335209138230917 2.4736609979803577 6.123469856321556 0 1 -2
1213 1 16.84340677823833 3.233546091487436 8.137182415449285 2 1 0
610 1 13.725268673560388 3.4788922238351248 11.155619663122822 0 0 -1
834 1 16.81791301550001 4.972194567082236 10.676005362855381 0 -1 0
921 1 14.47929658584238 2.5913539377591674 8.68242985654098 -1 -1 2
800 1 13.190839280347912 1.1814251319900482 10.106358230988246 0 -2 1
1285 1 13.550885216710462 4.3627947091413155 7.181781353540663 -1 1 0
1560 1 13.630456344398095 0.6029330490590886 7.722262308539787 1 0 1
871 1 11.84343461633963 6.346486330963502 1.9662549380708874 0 -1 1
1566 1 16.19417197069017 4.467731896699091 6.6595970563493765 1 0 0
1635 1 17.83669174348831 3.8236094566227687 5.863118062539662 -1 2 0
1472 1 18.59829505520482 3.10642624742299 3.7445105523101088 -1 1 1
1455 1 18.725728172762047 5.910638161710103 11.340315719045435 0 0 -1
1752 1 17.272088516323556 5.992253006847344 7.848264529025398 -1 1 0
955 1 18.613832621105196 1.6358231383315784 7.771683563002203 0 3 1
436 1 16.46648341660386 1.214613151595655 8.733829689696163 -1 0 -1
1333 1 20.995679162972493 3.2374915091221133 8.909222248595434 0 1 2
1211 1 21.926847010335976 5.417737697711677 4.646263635243013 0 0 0
2018 1 25.40669567160952 2.4425828416799673 3.902780505221435 -1 0 -1
368 1 19.08372828677667 3.6867881674692815 7.576991729864951 0 1 0
1581 1 19.64851779526272 5.172411634008394 5.465965862736105 -1 1 2
299 1 23.065013628990588 4.492149927767236 8.764102052684123 -1 1 0
391 1 23.349264809770077 1.8673169560981546 10.62907088458898 -2 1 -1
269 1 22.119081481896398 6.856708235113664 7.163340019820327 -2 -1 0
558 1 21.90677569583377 2.6603603289336437 6.5875436276657355 -1 -1 0
1540 1 20.86673756704442 0.8428406249889332 0.952832577778627 -1 0 0
1251 1 25.534877660154287 0.31562572406216693 4.967513278113893 0 0 -2
722 1 12.178807427960685 10.157781927888067 0.8238680168104882 0 0 1
138 1 26.076579921720214 4.350722249659694 5.439304419887232 1 0 0
268 1 26.208736775000293 3.240712113764993 9.559344514570885 -2 0 0
407 1 24.981826454021682 3.3172509749643133 6.785391203702537 -1 1 0
1533 1 2.027621452422386 5.507625553353157 9.974580411649937 0 1 1
1114 1 26.79444090961361 6.502347839316145 6.373271645517785 -2 0 1
1133 1 26.590252669112374 1.5331874966238939 8.372568155602597 1 1 0
1925 1 4.352592627605245 7.633953298782197 7.295306730313031 -1 0 0
372 1 2.684627114547953 6.61925600603829 6.620937410710122 1 1 1
826 1 0.7788107568167106 6.537161211306909 8.097806295836259 1 0 1
1218 1 2.072465205196691 8.438555502639034 8.642006998921312 1 2 -1
1541 1 6.252255199474668 6.129087047934544 9.093008799163485 0 0 1
1417 1 1.6771482083635598 8.555531311629242 6.3099736955871935 -2 0 0
1593 1 3.3480774580712698 9.431981383041018 5.3219030478677505 0 2 1
1326 1 3.760470061044311 6.673047963527393 8.889838568235168 0 -1 0
402 1 7.26973679349517 5.527469363323866 7.44925644651084 1 1 1
1675 1 6.417644326015997 8.389679767510357 10.570041593265435 0 0 0
1576 1 6.304784614999019 7.397394681874762 7.322951664959284 -1 1 0
901 1 9.768418783690057 6.682459021203593 8.222220486801975 -1 0 0
884 1 4.724545576977654 6.5049349765856865 5.667635662175918 0 0 1
638 1 8.153345443078301 7.969668856042291 7.582180372015768 2 1 -1
1280 1 6.9713340660406695 9.349517008203334 8.000274892528932 1 1 0
629 1 11.309593680140521 6.100978480939275 6.460017974658513 1 0 1
1921 1 9.314479650087977 4.577122208428286 5.652566085061937 1 1 1
788 1 12.458834066008357 4.91841487503494 9.384397247717057 0 0 0
1203 1 9.613709085255474 7.211809096139941 5.865836941346288 0 -1 -1
923 1 11.461579103160211 6.653702527877549 9.47584933765892 0 -1 0
878 1 12.280302668413249 8.633736759502732 8.176782468340697 2 1 1
1162 1 11.945101234410785 4.006230049793911 5.100038841401735 -1 -1 1
686 1 8.39691953664554 9.089793413888438 9.447949719597123 0 -1 1
700 1 16.088022806625478 9.589095042181489 7.02231515725198 0 1 0
941 1 16.70899333045943 7.254858716894332 9.69403730376297 0 0 -1
697 1 13.703687796933332 8.837473327333544 6.29283508087534 0 -1 1
1243 1 13.496039930564173 6.638920398874899 5.716598724669499 0 0 2
1070 1 14.866878217983892 5.018175814924893 9.149571797885647 -1 -1 -1
516 1 13.074085326334824 9.128289499332048 10.364345007389122 -1 0 0
862 1 13.237655321307136 6.699342366901268 8.029271608162047 1 -1 1
650 1 14.530017155512468 7.589304796662791 9.64696299923174 -1 1 0
869 1 17.96459758455574 10.519003965593427 8.233757893848857 -1 0 1
1019 1 14.905496218160865 9.702291386152815 8.699084329827969 1 1 1
1659 1 19.044909587848387 4.642461172679978 9.722325625844958 -1 0 -1
507 1 18.881941657866808 8.872234261958054 4.9199362011805245 -1 1 1
849 1 17.53612608864427 8.461594127997257 8.113088480460027 0 0 0
1442 1 17.984835251239293 9.251280011916755 9.835022539551506 0 0 -1
237 1 19.033141576526134 6.896154568215369 9.038732309519881 2 -1 1
1301 1 19.237539374340724 4.999645378429896 2.6810083495586468 0 -1 1
1174 1 20.33155083912199 7.211213651224261 5.361785248361114 0 1 0
1727 1 21.211215743050996 9.147063942328417 4.321178488828605 1 0 2
328 1 20.709779414341522 8.94319530745486 6.62386533067371 -3 -2 -1
246 1 19.33447643536586 6.6471235311382 6.97071675935979 1 0 -1
1988 1 20.7463023092925 5.317242356046527 8.16424052462086 -1 2 1
1354 1 22.029068286235415 9.212034382765966 8.652800184352229 -1 1 0
1111 1 23.689595887697404 9.141299084192097 7.327812643092257 2 -1 1
987 1 24.377970940302816 5.96424841896397 9.67765882963429 1 -1 0
1147 1 25.493707564053413 5.080817877147001 7.801743000202734 -1 1 0
1687 1 23.906990966354048 6.729644319598814 4.445270838697842 0 -1 1
1109 1 24.564933605480753 7.021955919033931 6.919295282582951 0 0 0
1797 1 25.13073865182159 8.909884063046503 5.723391539418402 -1 0 1
1718 1 25.98774450990374 7.2774475712387074 9.028190849062552 0 0 1
1433 1 27.53269152469193 3.5266501369700376 7.557537179540597 0 -1 1
1365 1 5.515999330461008 9.616126623696497 6.700002918813918 0 2 -1
1056 1 3.161454779230791 9.795827528216803 7.544912104076856 2 -1 0
317 1 0.7879079330754506 10.42640401776384 5.677166803237437 2 0 -1
2017 1 2.4884767460758495 12.554949352773189 7.90160680419273 -1 0 0
504 1 2.8158636928950846 11.394199352927215 6.40891278535822 1 0 -1
215 1 3.9908081605358263 14.03715763270274 3.219031893103596 0 -1 -1
1987 1 6.9068429397309625 10.598308554928174 9.740309470587658 0 0 2
86 1 4.926199694350253 11.865933345301617 6.245963101447873 1 0 1
129 1 7.732419171362582 10.71301959928223 6.561181845566142 0 0 0
213 1 6.834225125952341 12.042148228986381 7.87412331849168 2 2 0
572 1 9.13683462335739 11.088296437743978 8.195736689693147 1 0 0
343 1 25.92359575066092 11.767046473506975 9.344512342005334 -1 -1 0
29 1 22.303090598896194 12.965672783696222 13.790395177904726 1 -2 -1
24 1 8.283559580245722 12.71208025336281 9.75865039527347 1 -1 -2
1115 1 11.771980614556947 10.578010611448871 6.324363811394392 -1 0 0
1193 1 9.821755830719779 11.725743011626712 5.834177909063242 1 0 1
1189 1 10.093245171962549 8.836334808874469 7.814776058406493 -1 1 -2
1948 1 10.930868854599682 8.94956769345952 10.055259631549221 0 -1 0
1707 1 11.680603165419363 13.811018200923929 4.8353303698928585 1 1 -1
194 1 11.404936318692302 12.88763353668001 7.288407375126753 -3 -1 0
1789 1 13.624157543841218 10.182206837883966 4.758097695251704 1 0 1
1079 1 18.25830816722659 12.52772877871597 7.36101763482712 -2 1 -1
1823 1 15.298162447581651 11.225667239293397 5.853709460559192 0 1 1
975 1 2.5270177966279044 13.055039173703324 5.035087775556626 1 0 2
930 1 11.454561478200342 10.785013432048375 8.562220306885749 1 0 0
1376 1 15.688874002223713 11.813078357352877 11.93135540047111 -1 0 1
1801 1 13.628808526050035 11.111870908314735 7.338905649427761 1 1 2
1767 1 15.259214486237175 6.767419772973427 7.4651041127422895 -1 1 1
388 1 13.222413028207187 12.801877845196218 8.184134355138681 -1 -1 1
511 1 15.94025910903666 11.405828394945297 8.427979219720614 -1 1 -1
723 1 19.911229952476127 9.185269313238575 8.953503455055488 -1 1 -2
229 1 14.917509117450576 13.742726871474806 8.95745024399821 -1 0 1
1497 1 1.0901126586786614 3.2976083085591936 13.729529942823495 1 1 2
1 1 17.995514187202936 11.015361842997203 11.55129188942393 -1 0 1
2002 1 16.917685983390683 12.586511730232864 10.041178084911756 1 1 1
992 1 20.920249791694264 0.7492540340487945 7.144459484148148 1 2 -1
2042 1 26.39385572658409 3.4060416623273375 13.586978469968656 -1 1 1
1654 1 20.329184599235827 11.605683135653518 7.244363905067243 1 0 -1
1686 1 23.86416742864668 10.492859123309215 9.10070977691926 -1 1 0
1877 1 22.28400793192214 10.691197803847011 6.453247083967058 -2 0 0
1120 1 21.719321729767387 11.308447223660108 9.319806368110097 0 2 -1
1481 1 19.439106970338518 11.774287457135408 9.645122506848509 -1 -1 0
737 1 24.390088563233498 12.900356239670002 5.153277733222734 -2 -1 2
882 1 21.17483634932577 13.479323054836284 5.704715667599606 0 0 1
1590 1 22.477622763420687 12.645007861962961 7.644498339973085 1 -1 -1
625 1 25.53468439688871 9.200718321058805 8.393116571069807 0 0 -1
254 1 24.07451211479684 12.065635041495321 12.318676131513403 1 1 2
1319 1 24.808774979647144 11.912163586677943 6.936037659928419 -2 -2 1
1909 1 4.553739246928427 0.657780932799022 11.430985272741463 -1 0 1
904 1 0.7855198671703753 12.53228499049998 6.606950669075954 0 1 3
387 1 26.063238168815136 13.767893902062657 6.819680020706217 -1 0 0
689 1 27.594898765230734 8.692075626172597 7.187313526266627 -2 0 2
91 1 26.668627892769685 10.52059208462928 7.148608240232426 1 0 -1
1237 1 15.426861317720467 1.2446744186023135 10.689786539990706 0 0 -2
1395 1 2.2879809502749002 3.582872539333047 11.499457754265872 0 0 0
791 1 3.7720078529559244 4.708738104807865 9.691283145653504 1 0 3
259 1 2.991085736924544 1.974836099114824 12.324080075703957 -1 -1 0
1634 1 1.082098497545469 1.3877414948165845 12.871226592426845 0 1 1
2039 1 24.687757013031188 13.488968102200317 8.698940503198008 1 1 0
1009 1 4.783872960710767 3.0229813447956118 11.506434164999545 1 0 1
693 1 3.2502843761743003 3.4207077882796018 13.944663723504728 0 -1 0
1885 1 6.952433308569666 0.655714776114859 10.723510749851988 0 1 0
1223 1 3.4761922197307222 5.490363230052927 11.7426179439102 1 1 1
1117 1 9.727043021465693 2.181709833907169 11.295952466264513 0 1 1
305 1 1.3376286079989488 8.695482074578136 1.4469651174849187 1 1 1
589 1 7.234457902956556 4.734296766955462 11.900676632272011 1 2 3
1408 1 6.584506099249972 3.525751801301076 13.571740680411251 2 2 -2
1487 1 23.867610336915696 12.521611012652345 10.214907444876017 -1 0 -2
1693 1 10.0557869309154 0.7814586975907999 12.80129510090702 2 0 1
1672 1 11.415503207573073 3.15282841548785 10.599780148949584 -1 0 1
824 1 19.370413704692577 11.451876365959746 0.7634567744656746 0 1 2
1967 1 23.288695516998967 10.436336149103782 13.682826299089337 1 0 0
1334 1 15.887232752275521 2.847762851495747 12.108291909521858 1 0 -2
586 1 7.533286213231033 2.51098557931444 11.967225354300247 0 1 0
121 1 11.963167203538944 1.477495079991504 12.07984290364305 -1 0 -2
1568 1 25.64603847210378 1.0666278665092588 13.980195227667167 1 1 1
497 1 21.680121221060553 0.3803789283797223 5.3509412958439775 0 0 1
352 1 14.165008707867722 1.773697886540997 12.332030346339698 1 0 -1
677 1 18.732169637541 3.6030649509439496 13.955507667282792 -2 1 1
596 1 10.527283665052877 12.98225913685592 9.366524942729079 0 1 0
470 1 19.312428981988205 1.2337755761488092 13.283651996110748 0 2 0
1864 1 15.860636645429066 3.1462412363077923 10.151211882257572 1 1 1
608 1 17.96989517192663 2.4850302429813538 9.875771267263808 1 0 -1
1539 1 21.361192617391264 4.775661358802653 10.261953509363808 0 0 1
477 1 20.34411464177595 4.491835446240265 12.092609743689538 0 0 0
592 1 17.511965972293503 1.5966161949248168 11.789576891657958 2 -2 1
1690 1 12.016779351777567 9.353204952910865 12.32373109485754 0 0 2
52 1 12.60358152774345 1.4340374621322503 1.6945022517521717 1 1 1
1393 1 18.217488740974616 3.8322076294702505 11.846800976396256 0 1 1
1214 1 20.579204653233557 6.712617694504845 11.666359660491617 -1 0 0
200 1 23.998274223176324 1.4474454975440023 6.359374539185999 -1 1 -1
1827 1 7.469921002997938 12.444676269576847 5.4115995648413975 -1 0 1
1302 1 23.633589928831032 4.162783167734798 10.746568641711391 1 0 0
1754 1 19.730385126684173 2.6983515559645617 10.679053881043487 0 2 -1
274 1 21.934445222881486 3.0185765794476027 11.634963603152656 0 -1 1
1518 1 1.6570837505704086 3.565093745230059 0.46801364018715946 0 0 -2
1329 1 12.594810174351991 13.386573306303093 10.181368964772556 -1 -2 0
1127 1 25.028459868886216 2.62979475792335 11.447337101637677 -1 1 1
1008 1 21.15844025908333 13.338418930874186 9.897259288904474 -1 0 1
1313 1 27.51968785396838 3.5725076932762523 11.48934892989168 0 1 1
1908 1 23.12447837739229 2.5484814290362565 8.40245801277891 0 1 2
1525 1 10.168051393224882 2.813149908223221 13.56089178033576 0 0 -1
1889 1 23.04199270001601 4.909819124254226 6.539703700810651 -2 2 1
1160 1 25.467224769361252 1.0918972828033713 10.110161961368314 1 2 1
1713 1 1.1913168029633785 3.554483464411512 9.45764516213041 0 0 0
585 1 26.85864904096188 1.5117486317454456 12.172116517076 -1 0 1
854 1 11.421352099608052 0.6122093189748641 3.923398247192193 1 1 -1
92 1 5.498121343494786 6.1714434021873705 11.142642283563136 0 2 0
376 1 27.01679170804703 5.906800894490646 13.069612231032211 1 0 0
1025 1 3.1436734771214416 6.852869188058977 13.39619025118823 1 0 -1
255 1 27.735791114811455 7.545942777034415 10.364483318593326 -1 -1 0
1425 1 4.23412996401022 7.72159048327476 10.74193618654932 1 1 1
1803 1 9.667672886878968 13.843905239596554 6.036155235370461 -2 1 -1
94 1 4.4376382074811325 9.512619951254925 12.767845535977127 1 0 -1
175 1 27.490301136220616 5.375017453708908 9.925963204300016 -2 0 2
1101 1 26.496209870233173 12.743974563944905 13.061000978760543 -1 0 0
517 1 7.847587797447964 3.1555775891412456 9.31691367278702 0 0 0
1261 1 8.233191474474436 5.9553965165253455 9.644209960715715 0 0 0
425 1 24.835464501834192 9.512304649730398 10.854671920417456 -3 0 0
1281 1 9.224439408605967 6.443422186205006 12.583115913844615 0 0 -2
321 1 5.2872682323823925 7.59018550517712 13.329818971479291 0 1 -1
1054 1 5.090269167412338 4.98300319251133 13.081238472211165 1 -1 1
1629 1 4.984245440244983 11.08552195142228 10.815184506058978 0 1 0
1182 1 7.296500233099697 9.692719461076845 11.88385119497569 1 1 0
143 1 7.647715417343224 0.3548225293979725 12.686974374477199 -1 1 -1
1712 1 14.424372762188804 0.9481755252956502 4.899572970609535 0 2 1
642 1 9.479083318076242 4.136432822161512 12.222148321249117 1 0 0
758 1 10.161126485673536 4.649360462423628 9.920649617770062 0 -1 1
1814 1 7.4875949863912385 7.313320406152948 12.286036169265676 2 1 0
1557 1 11.037111815109247 5.417598669983924 11.51322937723512 0 0 0
108 1 9.73528271548848 7.1047094133784405 10.71930730209253 0 1 -1
2014 1 15.385210333229834 5.018039707357913 12.70187668987407 1 0 0
1241 1 11.973878327098026 7.426752923011035 11.292892586260619 2 1 0
1441 1 10.85233611224132 7.646482244137279 13.359273290021752 0 2 -1
1080 1 17.871845605321436 5.953134073987649 13.425179391204015 0 1 0
1388 1 13.951019932263142 5.970436926011012 11.090965671993015 1 1 0
1638 1 12.779896857480747 6.678869185666072 13.136836608758102 -1 0 1
1462 1 22.78999168963603 10.65637973662829 11.462029800210416 0 1 1
1665 1 15.63852248499166 9.562380043135812 10.860711749427475 -1 1 0
142 1 15.95029310905503 7.071353481220271 13.790372759680263 0 0 1
1007 1 14.447412781427918 8.06297097625794 12.016515753061668 1 -2 0
267 1 11.02145784913604 14.071683406488964 2.6887276374901776 1 0 -1
599 1 21.783441514035108 12.314142133567602 11.718897038129978 1 1 2