LAMMPS data file via write_data, version 29 Oct 2020, timestep = 300000

2048 atoms
1 atom types

0.34246298699378563 28.009537013006934 xlo xhi
0.34246298699378563 28.009537013006934 ylo yhi
0.34246298699378563 28.009537013006934 zlo zhi

Masses

1 58.933

Atoms # atomic

1064 1 1.7818915957521992 3.5561017651262232 2.9287927219250722 1 1 0
1945 1 1.8488833175947204 4.1916147966051085 5.459625363389778 1 0 2
1132 1 1.1489501452286035 1.9976427241424795 4.876722618925234 0 1 1
11 1 2.0163945206800857 1.2963026612222266 2.6740373855030866 0 1 0
963 1 4.015318504802311 3.8694844719946135 1.9322794256562041 0 -1 1
1852 1 27.70888326603599 2.064559902700128 2.9031357945014507 0 0 0
1835 1 3.312385682822366 2.936757632834306 4.266908261957118 0 0 0
1666 1 10.29880922198545 1.4852521141736834 11.304000948799226 1 0 0
1400 1 4.653659956879934 1.7423255802126463 2.629359656647957 1 1 0
886 1 6.5255547395126845 2.85095809567308 1.8846876875761225 1 1 1
347 1 8.071084795148845 0.9957625548855431 2.3478359595609284 0 0 1
1070 1 7.383787633116664 4.512288841433105 4.03864027567009 1 -1 0
416 1 24.05600371604924 9.856703009276263 12.647871585674844 0 0 -1
307 1 20.045898665053656 2.041465809989692 5.3784956647877395 0 1 0
999 1 6.621269350585856 5.86540826281496 1.9196163724473525 0 1 1
1295 1 5.369743539988937 4.522661891010484 3.404957000456515 0 -1 0
570 1 12.30118804669311 12.446639883350612 1.729012868295424 1 0 1
641 1 8.703911779567065 5.1088243359271255 2.6348562701984855 1 0 0
426 1 11.945668017446307 2.548509826344272 2.6079488097733345 1 0 0
839 1 8.177795111831326 7.441054673371873 1.406949106653825 0 0 2
26 1 9.195535160608157 0.4423369791604922 0.37285518455465627 1 0 0
1571 1 15.307761306017412 7.665509385154411 1.368522993744569 0 0 0
1252 1 11.237433864785952 1.7506766172435346 4.479153514242239 0 1 1
2016 1 9.19288384849275 3.046240203520996 2.692069579866131 1 0 2
1063 1 14.544268260778372 2.917217743304636 12.616623051140099 -1 0 -1
55 1 12.94972373435374 3.999288224166435 0.9970773108875033 0 0 0
1457 1 10.677859207791473 0.45965305074773255 8.909864869944329 0 1 -1
609 1 13.240118620997366 0.7301320010934667 3.107631057435484 -1 1 0
297 1 15.285686975318342 4.090280270377727 4.004194973203688 0 -1 0
600 1 13.053213688492066 6.529669555163572 4.565412657094283 -1 -1 0
707 1 25.92968929978742 0.8656339086644725 1.7619244228563447 -1 0 0
1338 1 14.75552177763497 5.163397417071456 0.5509136070960257 0 0 0
1404 1 17.296888593984875 2.1671578055718985 1.8260518921651385 0 1 1
712 1 15.87142940805897 3.791475361197857 1.9421113172113769 -2 0 0
772 1 19.122209512631365 3.3730455345508963 3.9689733792196606 -1 1 0
273 1 15.12448134667206 5.9171994785733375 2.842508867049357 1 0 0
673 1 18.871634238315174 4.378804363203107 1.7760673045957691 -2 0 -1
1294 1 18.09387192603036 1.4318613219347975 4.0113659941461055 0 1 -1
1598 1 16.971570022494248 4.152118288328012 6.499215845189424 -1 1 1
89 1 14.811070032504427 0.6970925888822642 12.92713643519838 0 0 -1
1488 1 23.640475552817954 0.6211249435095336 14.047691116974484 0 1 0
471 1 0.9176871632458738 3.246124064704625 1.0652156081339121 1 0 0
1303 1 23.3619242110353 3.553730038616896 4.12745614241389 0 0 1
1991 1 18.149395729941567 5.17496083447735 4.6238770738633495 -1 0 2
1067 1 21.505067744729416 2.171166868022925 3.3218158959841064 0 1 0
52 1 23.138245138036858 3.5518738166772867 0.43520786045780974 0 0 0
700 1 26.04934537165073 6.002039303510889 0.7426387624735304 1 0 0
691 1 24.633678372991348 4.467296548154093 1.9414991240566704 -2 1 1
1469 1 25.73786859618997 4.166799747982328 3.7695520012537624 0 1 1
1114 1 25.14542260740474 1.8634616687787036 3.557921709696096 0 2 0
1890 1 3.093358959393912 0.41045061283334466 4.5350071912274545 1 1 1
446 1 0.40704765019960515 0.8023325449485019 0.961825834404136 2 0 1
1378 1 24.289571706796202 13.741311710657607 4.415577628682885 0 1 0
1660 1 26.398550235494767 2.9823546595457313 1.6303414919868182 0 1 1
1415 1 1.0571091232546634 5.205243993797312 1.5199614877584213 0 0 1
568 1 2.881348122909223 5.197413223810237 3.920872750248526 0 0 1
1346 1 4.578460550420663 6.220193588138545 1.8214893624598572 1 0 1
619 1 3.2906331601972365 7.15496110423224 4.157606978587676 0 1 0
1482 1 5.844456759222424 9.320941086661056 4.051195676886292 1 0 0
384 1 1.5652703644111425 8.681527445914035 3.710979314393031 0 0 1
944 1 4.253575889915174 5.016425391170424 5.6282013438364356 1 0 0
764 1 26.48317475665165 7.832767046922039 3.6142781363396965 0 0 0
301 1 9.76924619981075 14.146923850092431 5.628619189550128 1 0 0
633 1 5.292824342891104 7.175578572350975 3.7801897432739593 1 0 1
355 1 6.635889485785368 5.899920577329494 5.8558775615421785 1 0 0
1516 1 9.55900565842793 9.271678941952713 2.782251765460216 0 1 0
2003 1 5.369013315971585 8.56237390348565 2.0604720085776345 1 0 2
978 1 7.368487386059066 7.098644034198282 3.530214312693868 1 1 0
187 1 7.719363302839756 9.202822448291633 3.410046512479965 -1 0 0
728 1 13.587888511124271 5.2985483360552434 13.72026490095207 0 -1 0
860 1 10.366171800669953 9.821529140376123 5.41775402591061 2 -1 1
1687 1 9.543529195618971 7.695098962458737 4.839496614547444 1 -1 0
1560 1 12.463482381408973 6.700333949275736 2.016546678927097 0 0 0
779 1 12.086032227112401 10.420604398410108 4.587192935474114 0 0 0
811 1 8.778319928702112 10.855271580377998 4.475093015497697 0 -1 1
144 1 10.515907433880672 2.45936551344345 0.6702126387140939 0 -1 1
538 1 10.06160227724215 7.019454712823622 2.386263324512598 -1 -1 1
1839 1 1.067339023791162 12.670763611039607 4.061518115945586 1 0 1
1384 1 10.699851737381646 10.99250187018281 3.131381818882889 0 1 0
1072 1 10.51872181949148 4.967658688783253 1.7378863291897482 0 1 -1
560 1 12.895117657308745 4.836706294460761 3.122801672896456 1 0 0
1983 1 15.715298102913165 9.96314714075119 1.165944319961426 1 0 1
889 1 11.477165582073203 8.396933104253208 3.5970118721600564 1 -1 1
1033 1 13.507728507063264 8.202979471392378 3.1676138496777093 -1 0 1
256 1 14.344404594859222 10.178669464704523 3.6410299441457212 0 0 0
1618 1 13.498081919771584 8.956065760102904 0.8589171589347411 0 1 -1
595 1 17.87310986717295 9.759609752729464 0.9322790188633281 -1 1 1
180 1 16.981321082625207 7.250263875989131 3.9351981415540016 -1 0 1
374 1 20.025236470478717 5.523245816723211 3.1807618570300633 0 0 1
154 1 16.968051145723052 6.145374973222629 0.6265476102555112 0 0 0
1801 1 18.10020490583618 9.250097217912678 3.9527102391458637 0 1 1
1266 1 20.181875447510883 8.737312916444017 5.085147250383943 -1 1 0
1725 1 17.543526769755843 7.9301188852640845 1.9411882787137926 1 1 0
1960 1 19.239978791732156 6.552982723659875 1.1536935909061128 0 0 0
1259 1 17.299708785307295 5.4659683297994865 2.5874732040922286 0 1 -1
2038 1 1.8691203629962134 13.142233611474706 1.6396250312856182 1 1 1
806 1 14.898957432804387 10.880072797285646 13.571880892343502 0 0 1
1498 1 21.33283227963085 4.359303706653751 4.5657738645887 0 1 0
47 1 21.80423204497189 4.303490380599147 2.386042887523798 0 0 0
701 1 19.175824175320322 7.269409092612508 3.6493605928902575 0 -1 1
775 1 19.75093244837967 8.823375350349613 1.4767273732226693 -1 0 1
137 1 21.353573833932963 7.164734517709656 2.8995447911928967 0 1 0
1743 1 5.759011436403681 2.650909745472934 10.029677635764653 1 1 -1
1727 1 22.21519993143268 12.652060190905908 10.338298744100284 1 0 1
1470 1 24.335427875873407 5.736552896166301 5.772542530215707 0 0 0
534 1 15.846559989511618 1.2020130035303498 10.941476266517716 0 -1 0
648 1 24.167687210812815 7.78939871457211 4.715884019556504 1 0 0
1396 1 23.27235387614126 5.882613481249467 3.550514245431971 -1 0 1
1026 1 27.16859228275227 5.434439552779976 2.9975370940293877 -1 0 0
1092 1 2.304460573198706 7.309051586482509 2.1381452384411235 0 1 1
643 1 25.06225413100821 6.6337811099414115 2.463218835299066 -1 0 1
1570 1 0.9896820151209913 6.698149383844394 3.932032529840848 0 1 0
1228 1 27.536938688132572 3.763003465808249 4.852614564776737 -2 1 0
737 1 22.31957436747122 13.20006694106151 8.045281257080084 -1 0 0
1531 1 3.926461505192015 9.265372468622624 3.9037910784347223 0 0 1
1284 1 2.3683274654699753 11.125165094583844 0.7988783613801006 0 0 1
907 1 2.9269607770675217 9.385797289788526 1.8281746865980186 0 0 0
1808 1 2.111585890980982 10.957868657213211 3.0522378704954707 1 0 2
463 1 17.764202217262586 13.38604646433903 11.14213113898194 0 0 0
1596 1 27.376517700755784 12.063505191554041 5.725607522672158 0 -1 0
1170 1 7.751915637826774 1.1741228114143232 5.790230934399796 0 1 -1
1119 1 25.04868759753782 2.043186488519696 13.36309761888421 0 0 -1
2005 1 5.993587072704763 13.131797555717206 2.657945346968285 0 0 1
1668 1 3.8786484574423423 12.228011701359266 2.4035345407764304 0 0 1
1583 1 3.3146211284511438 11.326212769416701 4.870633106791431 1 1 1
486 1 5.588456236483235 11.035659448467836 2.50801907111965 -1 0 0
480 1 6.785949650736472 9.973841054222424 1.1307208140569518 1 0 1
1579 1 6.230337071257444 12.358870578640937 0.554597999848008 -1 0 0
857 1 8.508159876379422 12.66606477395578 0.4814704845568648 0 1 1
660 1 19.648046835311135 13.238950483150575 1.6597746643379643 -1 0 1
968 1 2.0859098898901482 7.16134592771526 13.525666406419875 0 0 0
1156 1 13.978841593373453 2.7883785163213077 2.5801777464399582 -1 1 0
254 1 12.06341403148322 12.380195032461542 4.507946297659778 1 0 0
1424 1 10.504528260290193 12.225436604865504 6.204298742507542 1 0 1
778 1 8.444952687860443 3.1628203822363883 0.4153977461377171 0 -1 1
49 1 8.37751869347237 11.572484572018178 2.45477390024836 0 -1 0
1917 1 7.74030141798701 12.862872372346628 4.414027409350922 1 0 1
1456 1 24.471246418255873 0.7131397940869533 11.598653534936865 0 1 0
1213 1 22.911744470260203 5.868539625177216 1.0714465884083595 0 0 0
580 1 11.34581370448207 8.475214311981407 1.044972528265665 -1 0 1
908 1 12.475264645621683 10.365437158251808 1.900229089594412 0 0 1
680 1 15.794274030969635 9.694038044878049 5.6315650591912485 0 -1 1
17 1 10.016517345512586 13.058153610175276 3.716375906821251 -1 -1 0
616 1 22.355720241992067 9.709470572610389 0.7446200437127004 0 1 0
1712 1 8.692177212135771 13.746665966073667 7.857609302891609 1 1 2
789 1 14.367173877749705 11.408202138926734 5.892562974344364 0 0 1
644 1 5.102396484277358 1.568618922966138 0.6650714752752067 -1 -1 0
1869 1 21.18956561753498 2.4541824514304666 1.0164661610907864 0 0 0
476 1 18.49570358230354 13.105437741746226 4.7139951344202515 -1 -1 0
1941 1 15.221740130528362 12.236412167337948 1.7487590777176503 1 0 1
834 1 16.59095996692148 10.94124213936865 3.6805651944629822 1 0 1
1006 1 11.78618502285383 13.105716067066323 10.374317649902688 0 0 2
1187 1 16.551101203271266 12.383800513142658 5.409808161945121 -1 0 0
1931 1 12.385555876620288 1.5202015959707256 0.8579358600576593 0 1 1
1635 1 20.746538973051344 12.520755412554204 3.793084084512414 0 -1 0
2022 1 14.152796357688281 12.667393149931865 3.674231682843641 0 -1 1
1370 1 17.287372458730182 11.804804814200526 1.5908602207186475 0 1 -1
377 1 19.197342571269658 10.983588949385377 2.793669016251635 0 0 0
1048 1 20.95001157193849 9.677873316715864 3.1647730890765904 0 0 -1
752 1 20.29852046859822 11.153023739721267 4.965065983082016 1 0 1
955 1 22.99886740727689 11.517509276164903 2.8115458174189487 1 -1 1
1946 1 13.519268144706682 0.6924246107728798 10.556116172913162 1 0 0
2028 1 14.833924263745747 1.7205545313133475 0.7240837286528785 -1 1 0
851 1 20.897569607937285 12.496286633463708 6.5015546873514 1 2 1
328 1 25.419581051829994 11.348300225451041 1.752510554480269 0 0 1
906 1 10.11999746811613 1.4617772413833032 6.517220289485787 0 0 0
828 1 5.177398864679569 0.886502049483101 11.204995137898042 1 0 1
1044 1 23.028301298104267 10.868824217222134 10.76733979225441 0 0 0
677 1 22.941928167308923 8.590486686217295 2.5993596556964325 0 -1 0
745 1 17.58018972441448 3.7637334015995294 13.424475336190909 -1 0 -1
206 1 0.6182537379853138 9.39606621975752 1.7897990350136666 1 0 0
1848 1 27.37488161815211 7.505674873023186 1.4972645968625133 0 1 1
990 1 25.511947496928343 9.038492987582385 1.9882600882135801 0 1 0
1672 1 27.836886844036087 11.57557445165809 1.7133750422291047 -1 0 0
882 1 1.6503875346702876 0.5181090501038977 6.72956664655728 2 1 1
1440 1 2.829839739522937 2.4473570017195283 6.801572093045542 0 1 1
1921 1 3.6921794314354837 3.8324853991849137 9.613506262228784 0 0 2
1757 1 4.123816446738301 1.2570547909144523 8.13637659880614 1 1 1
470 1 27.63296357540826 2.230569514279972 6.743396522326142 -1 0 0
443 1 2.8466276192365894 4.620308999274843 7.51385042235183 0 0 0
295 1 5.912650453813502 13.71939584560228 11.04774623903558 0 -1 -1
696 1 7.1987929464525955 3.5858402583998856 6.27016289903212 0 1 0
315 1 5.237081124584724 5.8242223918303875 7.800901390264893 1 1 0
171 1 4.491110873348671 0.7474379146298822 6.227632387449962 0 -1 0
221 1 5.47788703024735 3.6956385539830325 7.877783516380494 0 0 0
980 1 5.298616726017415 2.9670545718682177 5.55600885308014 1 0 2
1520 1 8.145811123595951 5.2430473363760175 7.268277036409922 1 0 0
768 1 5.964755223739009 5.168070335722465 9.758621287893732 2 0 0
1188 1 9.066358557896075 5.737618160619708 5.181169721054656 0 0 0
394 1 9.119348875684038 3.041048802995857 5.0417303526979635 0 0 1
1465 1 10.427756201918541 4.38244521817297 6.39917673800444 0 1 0
68 1 11.648512585045955 6.757077776033114 8.541685852639098 0 1 -1
390 1 10.757642282504442 3.944906142126636 3.7330599117220964 0 0 1
1304 1 12.477450423045818 1.1808431183742605 6.188779465951141 1 -1 0
1959 1 9.354650813018225 3.1447402948083445 7.952986873495586 0 0 1
373 1 8.04681171830169 1.4477731638455398 8.848266058140863 0 0 -1
969 1 12.357470170174244 3.2990237493392343 5.519923135460228 0 0 2
1095 1 12.129744973354827 1.7715183126904273 12.778537376599118 0 0 -1
343 1 13.216037340424345 1.0487265955793497 8.23146994707346 0 0 -1
1957 1 10.197687602512904 5.1294458139679495 8.705986395019451 0 0 0
432 1 14.33153409519024 4.435769056677738 6.273024981621347 0 0 0
1297 1 15.644419877759152 2.9931953221860312 7.631394563295988 1 1 -1
895 1 13.54323927576421 3.3255933040241956 7.987916124185698 1 0 0
319 1 13.991264702131284 2.3350546901529077 4.727641119063193 1 0 0
798 1 18.691047458534328 2.3800808942363676 6.699344272299948 1 -1 0
1058 1 16.201015558127544 2.395099667918121 5.425439567993408 -1 0 0
455 1 24.18239841684713 13.23403949989105 2.3218289074221112 -2 1 0
573 1 17.818862986903945 2.8365128555714754 8.573799806102688 1 0 0
2001 1 15.957516522862738 5.740424784541145 5.204164893101481 0 0 0
1373 1 17.046300262142545 3.2689342138714683 3.842640195039877 0 -1 -1
870 1 22.471616331715246 1.78539562944296 5.404319787322383 -1 0 0
1118 1 23.079058483820717 3.857596452154264 6.1323617919003555 -1 1 0
938 1 21.406650051621902 2.626994824410584 7.745395558997417 -1 0 1
404 1 19.7684373472336 2.3206507312827127 9.466270502793755 -1 0 0
1171 1 26.165385174870032 11.466841000536494 13.660674450754826 1 0 -1
120 1 23.26562803835501 3.760002852253012 8.282760684044794 1 1 1
706 1 25.438394727763885 3.029141781361515 7.92179161491943 0 0 0
823 1 13.641074462057318 13.662048742520343 5.526658903734171 0 -1 1
327 1 24.654093560257728 1.8808284571172287 5.783287978843898 -1 -1 1
183 1 23.446361132634735 1.5968353456699211 7.590190372864297 0 0 0
94 1 26.5894793708897 1.5547590665303752 4.832534708841195 0 -1 -1
577 1 20.423477824085225 11.04301017200714 1.0414212985583156 0 0 1
48 1 27.19495027541511 4.506677477963334 9.235644616800284 -1 -1 0
1438 1 24.91313754822594 1.1696457083307301 9.218248898069485 0 0 0
1885 1 1.9195943254760282 6.582100735009418 6.210696873841246 2 2 0
2040 1 0.5657394341775197 9.386911466537454 7.020746802479188 0 0 1
387 1 1.0896393406551317 10.416356142873058 5.116736537005721 0 -2 -1
793 1 2.7867749886124735 8.676745917087919 6.289179073271266 0 0 0
1816 1 2.754891952090762 6.454751570145687 8.15935367711674 1 0 1
2031 1 2.5283864891229486 10.977398557099752 10.287516016989086 0 1 1
852 1 8.492257909402614 8.627026683848108 6.52302782231366 0 0 0
1623 1 4.6657408168680705 7.331253587687895 5.803777692347903 0 0 0
1831 1 4.68863362721836 9.9217812314978 6.095977545235166 0 0 -2
1523 1 6.25162939493476 9.178355376375933 8.020656929240467 1 1 0
622 1 6.842225862500529 8.148780640881164 5.4386339381982705 0 1 0
346 1 7.299293406080402 6.917792587348392 7.778179012023508 1 0 0
1101 1 4.740555000735666 7.585115259999289 8.57524506435015 2 1 0
79 1 3.6087942159020816 9.472110341393316 8.630063969745336 0 1 1
1674 1 10.947131287184412 5.890948487127021 4.136327037695374 0 1 1
1585 1 8.317483392678987 9.414020867393251 9.20431787623341 0 0 -1
1508 1 10.411932578242547 8.773480857852826 7.62957624757314 0 1 0
1080 1 7.285377796912037 10.499534781828801 6.088445505016389 1 -1 0
624 1 9.661814239987185 6.686088753257009 7.180137959160812 0 0 0
501 1 9.759256886343783 10.940378774276986 7.774353339525781 1 0 0
1562 1 11.615862961487673 7.666232416757151 6.321266325766546 0 0 0
1123 1 13.500635568840165 9.033500034147073 5.314099276414296 0 1 -2
650 1 16.394572862135902 8.867671978911387 7.4465548545108735 0 0 1
182 1 12.557617684354106 5.273989810252163 6.7884902766636355 0 0 0
805 1 16.135756916237632 6.472422953872585 7.36137746443027 -1 0 0
780 1 14.465258516243376 5.285024517429473 8.59867557826126 -1 0 1
1096 1 17.320917549387097 5.5792713789997315 9.27926129775971 0 1 0
53 1 14.0555551939128 6.807696818419386 6.718526924020935 0 0 -1
934 1 14.876279129444983 7.7785121138867295 8.758237953540837 0 0 1
1431 1 15.845717778839946 8.86263471534266 3.15143977167817 1 -1 1
135 1 18.103711149650003 7.772811510040049 8.14877486443471 -1 0 -1
1993 1 14.886966710714619 7.608342487517698 4.692157682162018 1 0 1
1151 1 19.069827321436485 4.575536194827762 8.439952831892423 0 1 0
952 1 19.91868243783906 6.619751251598227 5.435492537345765 -1 0 2
781 1 17.635054339405322 8.162252627596285 5.63895332658362 -1 0 1
1185 1 20.009152650650222 8.156070710569622 9.497517736317374 0 1 0
1647 1 19.961090716187684 6.3780484718863235 7.8873344884790155 -1 -1 0
1857 1 22.43371023667045 9.735860605231148 4.402533521537913 0 0 1
542 1 19.463326778818555 4.313218525638429 6.060609241767057 0 -1 0
2006 1 21.138066105818744 8.282557164883277 7.2363438983075445 -1 1 2
1022 1 22.04481010432705 7.045116953212635 5.527143378208632 0 0 1
65 1 21.47584611414196 5.137219051189057 6.549302298779943 -2 1 0
195 1 23.476289494083375 8.931971769975807 8.867557823950577 -1 0 1
223 1 23.280638442411565 8.248832749154634 6.501783201463276 1 1 0
1313 1 25.62017730902386 5.294985234971546 7.507608576257842 -1 1 -1
1662 1 23.525987221633144 5.693970101726469 7.658572329514285 0 1 0
184 1 21.379955892794683 6.838107167507819 10.516048320819147 0 0 1
1379 1 25.32693680001193 9.715881233703643 7.581725978050443 -2 0 1
1718 1 0.49570203642051325 4.381269712781232 7.172822807553857 0 1 0
359 1 0.7850760644769914 6.763864836455658 9.137790916588116 1 0 1
409 1 25.82037232079984 3.840422736515811 5.9968248876559995 -2 0 0
1812 1 27.13144229320517 6.670564590056122 7.454322902861229 1 0 1
1711 1 26.440994008147563 6.144858079849273 5.126608111263088 0 -1 0
849 1 27.776920059803317 7.947888881116579 5.355380917543341 0 -1 1
1129 1 1.3202739185039198 9.31346038904479 9.055493634646997 0 -1 0
62 1 25.618392832271354 7.813798743604221 7.038674907005124 0 -1 0
1056 1 9.039762068080682 9.927660882649233 0.5742990910038464 1 1 1
1795 1 17.11230790037937 1.0024582405017295 7.222523050006596 -1 0 1
727 1 2.960626025123969 10.750816435441415 6.958655937964764 0 1 0
1322 1 27.11538730842657 11.045543579283677 7.825813024407614 -1 0 1
337 1 1.692233839499543 12.559799336350933 6.0822495170176625 0 0 1
553 1 1.681998104571115 11.134977348365805 8.501906261514725 0 0 1
958 1 3.7524203378057774 12.047395750368173 8.6230224807136 1 -1 1
39 1 2.2241575096302566 13.88981133683508 7.8453835447774285 0 0 0
1696 1 10.408054461696214 12.01193136614778 1.2465083411253328 0 1 2
1896 1 4.3605335716864175 12.674238066080495 6.342100862359606 0 1 1
825 1 3.4189968297268027 13.254588121985465 4.020005628774038 1 -1 1
1918 1 14.489677720641994 12.80463967829681 13.61198501134257 -1 1 0
241 1 6.077925992284548 11.467669289304222 4.743940015270595 -1 0 -1
1659 1 16.640363006432935 13.094442362995236 3.492723158391221 -1 0 0
51 1 5.720435031805173 11.42588840205112 7.19011012029984 1 0 0
1468 1 12.72453882700621 11.823372031608535 7.104825881510126 1 1 0
1895 1 8.358636337080808 12.298234410990082 6.331242728990509 -1 1 0
623 1 9.715179924419402 11.624116110123394 10.105099783805716 0 0 1
370 1 7.593096703854857 11.369653235247636 8.385321540201014 1 1 -1
1746 1 14.673866281837862 1.2949704789978354 6.491690967084792 0 1 1
1955 1 10.860746351242529 12.829325703680539 8.217363828448754 -1 0 1
1178 1 13.416451929742228 13.660263968224982 8.63935153937966 1 1 0
1551 1 16.985147960573357 11.392894513860796 7.357835246165495 1 -1 2
1332 1 14.854399943793302 12.394371532579502 7.710270451398964 1 0 0
665 1 12.711007649912858 11.21771067918153 9.153179222898672 0 -1 0
730 1 12.41256093803778 9.709087864804617 6.851582262936391 1 0 0
649 1 14.393985279766868 9.906327793526001 8.15258355067938 -1 0 0
559 1 14.271168464824742 12.465722830935928 10.20829332166438 0 -1 1
749 1 18.636045405931824 9.754474509389556 9.201813319995349 0 0 0
1608 1 20.165573451825708 12.942189652960183 10.655942644095218 0 0 1
451 1 23.35423391827559 2.1124793396957138 1.9198706935975771 -2 0 1
985 1 0.6644626009781329 8.630615826595493 13.224258478646462 0 0 0
437 1 25.934849350539963 13.708299863838127 12.853594956399697 -1 0 1
92 1 18.41545150750487 12.223276429376808 8.80217762844153 0 1 0
899 1 17.968341325438438 10.790134253473129 5.404885378231915 -1 0 1
402 1 19.24370633027383 10.060164979122504 6.975648091665635 -1 0 0
1333 1 16.33020573911068 10.455922346140463 9.304191404321537 0 0 -1
724 1 15.931444644711792 0.8771798457553552 3.6551381347736798 0 0 0
1159 1 20.34592107335122 10.014421564335935 10.80473802236511 0 1 -1
2012 1 16.304407103235633 13.694020411684773 7.093552019817137 0 0 1
1902 1 20.683205892535476 12.027683197598211 8.762845583794114 0 1 0
1594 1 26.116379448482327 13.575888760801885 0.9796435766840778 -1 0 1
431 1 18.555095838572484 12.97221724628635 6.906420313059263 -2 -1 0
1076 1 23.639743106021832 13.54291598752688 6.385738118601586 0 0 0
1179 1 21.850253284511425 10.495058163006423 6.759358952950026 1 0 0
1958 1 22.520543685766434 12.40567506972543 4.947497782274486 -1 0 0
448 1 26.17963307111203 9.442454968163993 5.521814887169366 1 -1 0
1884 1 26.83166421599492 10.231185034959038 3.3067075528325867 0 0 0
1183 1 23.991259250737087 10.08782186295226 5.950829580848157 0 0 1
1205 1 25.427893791574085 11.4731151382897 5.258593823559322 0 0 0
1176 1 24.423707665901226 10.056015814650591 3.687027589644581 0 0 0
385 1 25.216479271270046 12.450345350289997 7.357481080645265 -2 -1 1
1756 1 23.017267468416023 11.197372379717878 8.51153416641971 0 0 1
1221 1 27.806421489482418 13.280739441078952 7.720666644658532 -2 1 0
27 1 26.7964097024333 8.96486117715089 8.997026545351078 0 1 0
1561 1 2.843382017173027 1.5310811325176858 12.308683042128711 1 1 0
771 1 1.5079336211201781 2.571491072337512 10.605371102385785 0 0 0
163 1 1.675248209966792 4.295815507787965 9.202174782174293 1 0 0
1891 1 1.1539692401314932 3.089291782375138 12.598272693583473 -1 1 1
1853 1 2.5200030236021638 4.436589151630133 11.405726239279948 1 0 1
807 1 3.895258716072994 6.190904260473942 10.350664782849904 0 0 0
1019 1 21.88669502585838 12.862742553732154 1.5582863096811232 0 1 1
316 1 0.9839862788729923 10.693896841291203 13.604206228094688 1 0 0
1245 1 3.221321150233841 1.4218810602163365 10.227808082006243 0 1 0
218 1 7.470975057303052 3.637443573989189 8.711019420185654 0 0 0
1894 1 23.70728479806896 0.5651798526896988 3.704851496930398 -2 1 0
1823 1 3.694816318967979 3.1034102072004495 14.094110702318742 1 1 1
466 1 8.921868088586235 1.4436606974044401 13.645886791532194 0 0 0
356 1 7.268774305589186 1.5582344836495814 12.280605083694041 0 1 -1
248 1 4.145179015382683 3.0340124875939094 11.721970786877515 1 1 -1
1364 1 6.656409909668675 3.934648867279133 11.26484059454075 1 1 0
381 1 8.496139721820429 2.9887512486966417 10.446916335661964 0 1 0
2008 1 11.54339362502776 2.567384542871672 8.028557726394235 0 1 1
1552 1 10.321205570224974 3.5512839352189243 13.243604434978707 0 1 1
757 1 10.479708135320564 3.6855985079923292 10.844517669135286 1 0 1
1235 1 10.85945894405068 6.612115064841927 14.011213440131872 -1 1 0
1428 1 9.521339955641798 5.318497687167206 12.161389587694911 0 0 0
1039 1 15.500244579019052 1.1354347902996982 8.916333305828907 0 0 -1
1612 1 10.093088050464488 1.228286714222222 2.700428992788686 0 1 0
1162 1 12.264266705800438 4.186121993915592 12.154310354482554 0 1 -1
1615 1 12.0841036621176 4.295442068102948 9.586500894363882 2 0 -1
2009 1 14.345424713629635 2.817093872020965 10.116622299775127 0 1 1
438 1 16.19779953241651 3.5058145512658543 9.394562181043916 0 -1 0
500 1 11.177343274144656 6.041398299808713 10.49157203490125 1 0 0
937 1 25.258214597026452 10.900581903489913 9.307082143852467 -1 0 0
565 1 18.524499191620492 1.9861830838648173 11.678579726783523 -1 0 0
1480 1 18.13833722878632 6.279487311167638 6.677970546417428 1 1 -1
1554 1 18.22383007411107 3.8113590029754287 10.51390930393322 -1 0 0
2024 1 15.752615529603329 5.094216543763743 12.817452981319745 -1 1 0
1275 1 16.933774623851356 1.8851636142923907 13.119700915624936 0 1 0
1196 1 16.388318893195127 3.371454095099079 11.670263897718199 -1 0 -1
1606 1 21.428979461702028 4.762590042399285 8.837730578532453 -1 0 1
1199 1 20.702482610025925 1.6624720207063362 12.294465778023618 0 0 1
1988 1 19.51795805368606 3.635965031624817 12.359099359115577 -1 1 0
199 1 23.13322328499236 2.1222234025021587 12.42924168885329 1 1 0
318 1 21.840498256296108 1.1353549483674243 9.172601978850588 0 0 0
1664 1 23.39115991412448 2.5824589285208677 10.12836801802083 0 1 0
685 1 21.18388349689841 3.127242589730014 10.805198117615271 0 0 1
302 1 12.507587203208889 10.547896636260523 13.28212715595107 0 1 -1
1592 1 21.846944070635317 3.8181165373306682 12.77091743783731 0 1 0
475 1 25.921553869318046 2.927754779175813 10.935626714316816 -1 1 0
1676 1 23.93288986429753 3.970655974919333 12.231274099093746 -2 0 1
1529 1 27.40075558718337 1.6371710129781138 12.177640625071191 -1 1 0
1840 1 27.043669463811426 1.842602033819903 9.565104400919196 0 0 0
1029 1 16.394205396775902 12.685155262035186 9.482335379406713 0 0 -1
1200 1 1.4741736467190716 1.7549128190109873 8.539445654050242 1 2 0
1432 1 26.60589513280602 3.8319547546783204 12.922657265003672 0 0 0
1695 1 25.739357868840706 5.24342340716313 14.12777865570209 -1 1 0
1759 1 8.21624242769175 13.979269465892758 2.28746284410218 2 0 0
1576 1 1.6363420731788265 6.437427037221978 11.34428820791859 0 1 0
1112 1 5.201499363427124 8.930781162624132 10.097755431035738 1 1 0
458 1 6.5452322783037875 1.930363382286859 4.025924455125342 0 -1 -1
868 1 3.732161768867686 5.608893103859684 12.706581981712864 0 1 1
420 1 2.5466216813998375 7.86340995520648 9.89494309088584 0 -1 0
1149 1 27.30829888192975 7.982720517817819 11.028530513423185 0 1 -1
1559 1 1.186568738231871 9.568914075373927 11.141620014830384 1 1 0
822 1 4.438022530463145 7.8332954593445505 12.697410625570322 2 0 1
1453 1 3.054031973969488 9.335907413949034 13.508561887219445 1 1 0
1289 1 5.447721428352089 4.37591449010236 12.978844185222437 0 1 -1
1034 1 5.62455647085553 6.405150511191028 11.487415651018898 1 1 0
1315 1 7.078807649314348 7.34171251120301 10.314447037767856 1 0 -1
96 1 6.812926406900997 8.38493118442338 12.700800622311558 1 0 0
1781 1 12.282578984173673 9.111593243359593 8.889785516470274 1 1 1
1888 1 5.676038095224233 13.949037498160598 5.137083878651374 1 0 1
674 1 9.17980506684634 7.66942602550804 11.748312749564132 0 0 1
835 1 10.264073268327847 9.06116158256647 9.818041101480635 0 0 0
545 1 9.206929780195647 7.182105278422092 9.361207446026903 0 1 0
702 1 8.097070265718383 5.286729092497449 10.19679294978078 0 0 1
528 1 11.402911562713747 8.588289293844563 13.441421451059771 0 1 0
173 1 7.484345308752443 5.968868751991921 12.480547945509668 0 0 -1
329 1 8.286168494158915 3.739022919021463 12.89950219292464 0 1 0
203 1 6.379798260829187 1.6008686464978 7.267414577326126 0 0 0
109 1 8.756766051554585 7.633864756108361 13.897924078243983 0 1 -1
875 1 11.938479531970433 2.145881122164636 9.970141063951125 1 1 0
1120 1 14.574633866656303 4.683121279628388 11.046645707432885 0 1 -1
1165 1 15.640187763196511 6.48432062319377 10.418886290098655 -1 -1 0
362 1 12.410759583951117 6.456382802142205 12.34650347665589 0 -1 0
1763 1 13.517840709604053 6.946586043036366 10.40308662161133 -1 1 0
342 1 11.691238104587306 7.873725868988217 11.1950313291979 0 0 0
261 1 16.163400931058252 8.967436813463907 11.75575022169621 1 0 0
1947 1 17.125470227573757 10.379367519649108 12.994474508093928 0 0 0
659 1 17.578751978506688 5.71109087154027 11.643339566234642 0 0 1
1037 1 15.124995978928194 7.075005951181116 12.71475457308082 -1 0 1
1828 1 19.786115929839887 6.654354763744399 12.50360870410784 -1 1 0
1555 1 16.710486988743874 8.24118489193747 9.798268353082094 0 1 0
114 1 18.68329831620808 6.904604409786376 10.27952915281649 0 -1 0
1973 1 21.234632290899327 8.37238670994444 12.36045262960456 1 1 1
824 1 17.548772493443572 6.596044725629738 13.55456859155781 0 0 0
1518 1 25.60178329540419 11.852498597653252 11.52879035389355 0 1 0
972 1 18.182496609492695 0.6664960556002334 9.602708799405526 0 0 1
7 1 22.772482706510417 8.807598045516784 10.990966866575036 0 0 0
663 1 24.667718618318673 4.856809945606337 10.187986225211635 0 -1 0
628 1 22.62015703685912 8.655552071632137 14.128694610857387 0 0 0
1035 1 21.32611153602356 9.801835768888447 8.80193844921925 0 0 0
502 1 22.517207515043957 4.851935448273513 10.916746867306488 -1 1 0
554 1 21.815221279792937 6.16036328114418 12.764793015406179 -1 0 -1