LAMMPS data file via write_data, version 29 Oct 2020, timestep = 300000

2048 atoms
1 atom types

0.35052242728511196 28.00147757271511 xlo xhi
0.35052242728511196 28.00147757271511 ylo yhi
0.35052242728511196 28.00147757271511 zlo zhi

Masses

1 58.933

Atoms # atomic

243 1 2.3381220273511185 4.79704302530499 3.2679587425876044 0 -1 -1
124 1 1.2289635791953 2.5125066229771598 1.4187911526364252 1 1 0
342 1 3.358980402818053 2.63674633366576 2.0219794599655607 1 0 0
1770 1 3.4025323666163496 4.807891550059255 1.2306360330216939 -1 1 1
32 1 4.258397292531455 1.4516892746332097 3.979823202066372 1 1 0
706 1 2.164872327395649 2.2581730749457236 3.89913885655312 0 1 -1
1849 1 2.1763730984103953 1.0022546303402078 0.4487681724449333 0 0 1
119 1 0.8288134289884139 4.871553636161544 1.3996091018772068 1 1 1
658 1 4.4158097920141905 3.732956944343395 3.854212884129457 0 0 0
1530 1 7.804234481117218 2.6970155977687975 1.5750042556641712 0 1 0
1816 1 7.9849042512501445 0.702004877364198 3.399483893469866 0 0 1
935 1 6.795350501366924 2.4727098280822313 3.6883963401353244 0 0 0
157 1 5.367028596270172 3.627982072798373 1.3952591340699165 1 0 0
1201 1 7.938394409989211 4.344263286120311 3.103551627047284 0 1 0
834 1 6.090334604840075 0.41254103834603484 4.726939312286307 0 -1 0
1409 1 6.121338209414314 1.5940710875086763 1.1736456696571005 0 0 0
1446 1 11.303261759687967 2.0363261126227887 1.6341116253624328 0 1 1
1652 1 10.169870912284663 4.942264084995957 4.190396583371703 0 1 1
1209 1 9.23128044290817 2.390427730737901 3.6515698571827278 0 0 0
1088 1 11.091927104286205 1.2014089202245097 3.552524632562905 -1 1 0
663 1 10.126787708259867 3.820872515091094 2.0235648811792304 0 -1 1
1427 1 11.991369555009472 3.471714680639591 3.363928396699477 -1 1 1
11 1 8.88506901147408 0.7776267448629726 1.3493742168058214 -1 0 0
366 1 14.069570840604909 3.401369435157601 3.6411927465535117 1 1 0
1068 1 15.901765720393968 4.169794310090027 2.557400233717577 0 0 0
1527 1 13.489444567665846 1.9268816078755442 1.8363315246625997 0 0 2
1366 1 13.163552689143186 4.4752669744538975 1.195363762610113 1 1 1
1334 1 15.567211232716566 1.39040293517554 0.5619334899133474 0 0 -1
1075 1 15.717874821317869 1.968615628838492 2.891596347097156 0 1 1
1708 1 15.22755076105837 3.8632371955397917 0.6043952417508771 0 0 1
1525 1 14.696798403602639 0.430320091396966 3.5431738085749465 0 1 0
1731 1 17.774333532027335 2.6904061240798733 3.302065331716955 0 1 1
923 1 19.49510290881154 3.7708655839087157 1.0769827215589687 0 -1 1
1817 1 17.416045619617144 3.2598561057704876 1.1971016441729514 0 0 1
1774 1 17.739334654592625 1.004866114045997 1.4438152800549306 -1 1 1
1135 1 19.343304899189945 1.240070829052731 3.0332075002170784 -2 1 0
450 1 18.321125354253738 4.718864196604037 3.065094107249088 0 0 0
1670 1 21.085534591192634 1.451638677939471 1.9007516636624124 -1 0 0
1973 1 22.198285629369913 3.529963709589374 4.159006236783203 0 0 1
1805 1 23.164403179054197 2.2339317460724684 2.7108484460908406 0 -1 1
670 1 21.908266765508166 3.352455535264759 1.0182075398748263 1 0 0
413 1 20.165483337654635 3.4162485830145592 3.1268960793805602 1 0 0
858 1 22.666722004557258 4.830097242006534 2.2221570870137133 0 1 1
1918 1 21.483835627358225 1.0109504347142655 4.198443332223318 1 1 0
1800 1 23.9306060363039 1.5806254246903324 4.7993670261837895 -1 -1 0
1126 1 27.707455799409573 3.2652105709346517 3.1425324667927446 -1 0 0
301 1 26.411944644609015 2.223243226215989 1.4786578980826925 0 0 0
1194 1 25.754917261525627 2.1479726959262777 3.79354427178998 -1 1 0
1873 1 26.06289745754564 4.506933579445947 0.7071607821610034 0 -1 0
439 1 26.63447663748775 4.0184884136061605 4.932090446737741 0 1 1
1977 1 25.275644915121624 4.343046566182037 2.7456506200564594 0 1 1
337 1 24.2531297815286 3.263037318384814 1.3014365091794056 -1 1 0
1860 1 27.736632679555733 2.226102912621989 4.935242012158559 -1 2 1
1326 1 27.721147300822242 1.0248261650574406 3.2491682206176837 0 0 0
1871 1 24.862444968519327 0.5497563537304716 1.9969325491426981 0 1 0
1838 1 1.52986004216462 9.194854528410334 1.0788981671458022 1 1 1
1616 1 3.9804639621770868 6.086731716787657 3.1401121222363244 0 1 0
589 1 3.5891990456446394 7.6902127454478935 1.348056010034368 1 1 2
1631 1 2.4328587652554616 9.500302181764555 2.9879409009577738 1 0 1
146 1 2.3720921612450527 7.151128901196958 4.057730756014735 1 0 0
1451 1 0.4988229553513643 7.939283898158583 3.9120704543186697 1 1 1
676 1 0.9466407415796496 7.211875906206258 1.7035352521938678 0 -1 1
1041 1 7.222228952041083 5.00263201184627 0.9098338826090566 0 0 1
1794 1 7.355495184781697 9.271461575270319 2.616879028250496 0 0 0
1012 1 7.188731300052684 6.993937886610115 1.3615970537127948 0 0 1
418 1 5.845399962740824 5.31049931774466 2.9207924079146057 0 0 0
621 1 4.3312122948733 8.121374402198281 4.263081316361987 0 1 0
893 1 7.775961488154801 7.551308735955923 3.5909197433999993 1 0 0
1878 1 5.549017115830146 7.853849370911838 2.6468105073114843 0 1 2
1104 1 5.597726968323685 8.83769064547732 0.7399154364564086 0 -1 1
211 1 5.217402699839917 6.3050725682033715 0.6328032405185379 0 0 1
1807 1 11.142588552384815 5.784291154261148 2.280755397981078 0 0 2
1332 1 11.38746508838171 7.3093885570652155 3.7766714887218398 0 1 0
1792 1 9.299723032063659 7.248590025848995 4.739728594104215 1 2 1
458 1 9.471025051964329 8.403694666695527 1.9840817747550932 0 0 1
244 1 8.981441549013296 6.064662041252449 2.6743979366220034 2 1 0
221 1 10.76042016315909 7.615593223039494 0.7147787968787838 0 0 0
224 1 10.139602712457974 9.111008022132348 4.162897388013567 0 1 -1
2046 1 9.637952408882052 5.073130943073855 0.6190872090145874 0 1 1
701 1 13.190438336462439 9.22170960408562 0.7721961484954047 0 0 0
1099 1 14.1992849126761 5.737246068452083 2.9584363701125747 1 1 1
1673 1 13.043009333558098 7.760220556769292 2.5031246750868736 0 -1 0
241 1 15.182912279612951 7.774711434902262 2.168075972262441 1 0 0
951 1 13.77783193559831 7.420202625636228 4.569570560682323 0 0 1
799 1 12.574555723984808 9.219678128271376 4.65284858206216 1 -1 0
882 1 15.921762508708078 5.97256484681913 4.422876735848985 -1 0 1
235 1 16.019548749605725 8.393176934982982 4.070163675991415 0 0 0
1742 1 15.135036462386749 6.088633973105182 0.7884905984086543 1 1 1
283 1 15.558267609784279 9.56060494985636 1.2075740765844776 0 -1 1
1318 1 12.702255594012948 5.251721605120476 4.457816787795596 0 0 1
509 1 12.958507765262574 6.596565004972738 0.6053400084628655 1 0 1
1284 1 16.860919802062234 6.694371437248946 2.5308938647601473 -1 0 0
358 1 18.042600748999007 8.734477097915507 2.9138284437155226 -1 0 0
242 1 19.068948009733 6.6441405222760235 3.635007360526135 0 0 0
1074 1 19.854309750645804 9.18546741328906 1.3110713442505495 -1 0 -1
1715 1 18.646076381334794 6.327675549583553 0.8966247564468826 -1 1 1
734 1 23.433514944417787 5.319255563301874 4.147591589591787 0 1 0
1303 1 22.547948388604865 6.644008543906162 2.5987748998770046 0 1 0
1619 1 20.679696426441197 7.858034650003073 2.726292993109882 -1 1 0
1830 1 20.768965180623894 5.165141369992506 4.401582717110289 0 0 0
219 1 23.59137971562081 7.815478258442447 4.333339110991691 0 0 0
1823 1 23.066400458921287 8.619699930971299 2.284715968394445 0 1 1
1756 1 21.494893021498825 7.1346265312696175 4.706569732235236 0 1 1
1689 1 20.19121051192922 5.496191373741837 2.0196786963305113 0 1 1
228 1 21.332143632351233 7.4966982450657795 0.7945709344441348 -2 0 1
1815 1 25.00002641547607 6.564831996281871 2.7077442114507417 0 0 1
328 1 26.788481484554495 6.462313293168926 0.8099409969254924 -2 -1 0
1935 1 26.504054732748514 8.52601048493317 1.9362980698133858 -1 0 1
1615 1 27.172564500808804 6.030105509021428 3.2796096781639084 0 1 1
374 1 25.593561497456584 9.310693373704183 3.6194620328401803 -1 0 1
874 1 24.523641898717145 8.310683192287009 0.910410484431189 -1 0 1
758 1 24.651494496776742 5.911528416624089 0.6455890568019147 0 0 0
22 1 25.384060462352714 5.788852329736586 4.720076256309298 -1 -1 -1
731 1 1.7883910365354962 11.617176584576887 1.2576755673976847 1 1 1
1881 1 3.6553870793861103 9.7913962161278 0.5352774012700241 2 1 1
873 1 2.9760077430303222 12.043853177262074 3.0745614951419844 1 1 0
1755 1 4.192047898023105 12.55994148398262 1.5236592472293384 0 1 1
274 1 0.5175179413304757 12.462621356151462 3.475867714761009 0 0 0
1845 1 1.798334033686794 11.554880582214372 4.846717481392072 0 0 1
1278 1 3.6331104961848264 13.733524315711444 4.611883674026921 1 1 -1
209 1 3.781751309872885 10.413095926762363 4.770346187575933 1 -1 -1
1072 1 1.5142591569261656 14.064426361342687 4.688831611930005 1 0 0
805 1 5.940748959748788 10.31476532214648 4.223091051590096 -1 0 0
313 1 4.610019937377545 10.254879154688236 2.445064806199135 1 1 0
55 1 6.271634452404903 11.035499565668848 1.3980019403629391 1 0 0
629 1 7.482621802607392 11.749674565895386 3.4308466322677647 0 0 0
65 1 5.0090016935287 12.095284876544357 3.6729205967547305 0 -1 0
857 1 6.352555108444336 13.644092875258776 2.2480322607147003 0 -1 1
1205 1 10.791601412975563 11.797723457919554 0.9828247886350133 0 0 1
196 1 10.099128770175673 12.976066759222341 2.9637758932362877 0 0 1
47 1 9.303728090812482 10.929828423502883 2.732941496012565 0 -1 0
807 1 9.584066266949305 11.437652571386735 4.70068119099489 0 1 1
42 1 8.296296946098497 12.53361402990271 1.282096428782368 0 -1 -1
26 1 12.071191193462598 10.921469301428825 3.869787933750204 1 -1 1
688 1 11.356561713152155 9.679797408461715 1.9569995908902467 0 0 1
1601 1 8.331557573048247 13.924716064598961 3.5530412456536626 1 0 0
572 1 8.715704391497283 9.70586817830194 0.879807227382472 1 0 0
1787 1 14.466155246137792 12.913490317819202 2.3594324016954187 0 1 1
1941 1 13.922788918250067 13.672203992027605 4.501340648875222 1 1 1
827 1 14.505511779508737 11.36186684998955 3.8436295964346856 0 0 1
1843 1 12.926851299493205 11.535082568173406 1.9748370438977927 1 0 1
88 1 12.447775723683698 13.410874002073033 3.180982465882817 0 0 1
1781 1 14.044027579348686 9.571676546655857 2.9853762835423785 0 0 0
623 1 15.933987461442747 12.642539201160123 4.585677937739569 1 -1 1
45 1 12.609441306807422 13.136001829043918 0.5011376057802749 1 0 0
984 1 16.58647900233121 10.842329137948978 3.300899445237696 0 -1 0
1511 1 17.113762944197532 13.739704818817962 2.910148224423338 0 0 0
232 1 19.456590648966085 13.174756171822363 1.171413058881038 -1 1 0
169 1 16.846758516010958 12.201789338899326 1.6007452917054348 0 -1 1
1688 1 18.721161918100265 11.081382347792383 2.707080209738238 1 0 1
1589 1 19.00088152336736 9.621479164371937 4.350029728684518 1 0 0
160 1 18.919237599095396 12.45560490088629 4.4730342215700025 0 0 0
809 1 17.669870480694335 9.578758541057681 0.6326819056337298 0 -1 0
1382 1 18.6675522744658 11.309236450176245 0.6395322380966988 0 0 1
1450 1 21.03508148174101 9.91473458914551 3.484898570389664 0 1 -1
489 1 20.750301218490954 12.093390735779433 2.8101271352769657 -1 1 1
390 1 21.071865649877985 10.874574876864754 0.9589442330154896 0 0 0
1863 1 22.966299981231636 13.61715947382879 3.561018273942476 -1 0 1
73 1 23.091032729342622 10.581881130066028 3.4333028469271514 0 0 0
762 1 24.046576950108523 11.946746582439147 4.674409654543096 0 1 1
1504 1 21.255572193733684 14.09638138984863 2.514840855941989 0 1 0
295 1 22.766647307561094 12.004913952102413 1.907379223983241 0 0 1
2023 1 20.62952932635779 14.010334658966492 4.6369404807584775 0 0 0
147 1 22.456339166411766 13.983161148904012 0.42870868513425364 0 0 1
1753 1 25.404855061428044 13.485579177193328 2.6736147164504627 2 0 0
1153 1 24.62687065978887 14.104939097312709 4.712373398097759 -1 0 1
1015 1 26.719184287680797 13.539546289752831 4.410904700695276 0 -1 0
373 1 25.69242245934526 11.388079213219 3.087958670333839 0 -1 0
1355 1 27.829593414233692 10.152583875598063 3.2381381238066083 -1 2 0
644 1 27.444270945901444 10.42573347632162 0.8305098303049938 -1 0 1
766 1 24.66306586410763 10.60359860091232 1.3684462970426328 0 -1 0
1108 1 26.563256948061955 12.361701931122559 1.2698293389652484 -1 0 0
1247 1 24.64074146734854 13.00035830431582 0.725893376774124 0 -1 0
900 1 3.22245456624728 2.8226541899131035 8.264012814842804 -1 0 1
777 1 1.525373675054099 1.998873282885888 6.591131870196663 1 1 1
1183 1 0.8327280848309032 3.675307469737299 8.912298081414864 0 1 -1
145 1 3.3313397584479856 3.533723959755154 5.806267905969163 1 0 0
362 1 3.425784304161228 0.7078214753553487 6.021803618024762 0 0 0
48 1 1.738737570315802 1.4754966487622443 8.91497529431667 1 0 0
1597 1 1.2462669638143231 3.969916233703364 5.19327926007416 1 1 0
2010 1 1.5226821953784595 4.835482528532994 7.018124212160993 0 1 1
214 1 2.887574435135182 4.636864157346197 9.187840899398806 2 0 -1
1224 1 1.7198055253617885 0.4500574118100644 5.064937103486415 -1 1 -1
1253 1 5.771732163155368 0.7288515817387025 7.158397739942174 -1 1 -1
1761 1 5.277225802324737 2.4507614986273376 9.386167514594188 0 0 0
1651 1 4.654037358065063 4.01646385034492 7.293343998429684 0 2 1
616 1 5.334635985471021 2.413908638084014 5.6338940293163615 0 1 0
20 1 7.959210649648144 0.5505509219070773 6.849068680798369 0 0 1
1327 1 6.984560526789029 2.5654760196119217 7.729494108973322 1 0 0
1759 1 6.470101618713144 4.292017293614146 5.071905682512248 1 1 0
1538 1 7.268037346242993 4.843168240277295 7.243777627936774 0 0 0
460 1 6.838089807410687 1.1003613092768822 9.134209786747515 0 0 0
247 1 9.090840937573748 1.1512411657941968 8.648484522268827 0 0 1
1465 1 8.451109844124012 2.578288113545632 5.557607266298384 0 0 0
961 1 11.318964879740918 1.7620599622790112 7.266016137381551 0 -1 1
1299 1 8.95642002647733 3.307935576676623 8.151148946473793 0 0 0
574 1 10.380294979895584 3.4971450850401684 5.9028569652852125 -1 0 0
1442 1 11.335095206883691 4.2752840943634896 8.437404536169145 0 1 -1
570 1 8.355962939907506 4.886795033994852 5.394704674865589 0 0 0
165 1 10.37060813004242 0.7219333666980665 5.317494823618105 -1 0 -1
252 1 10.890879346566967 2.3016410031929535 9.28445049119762 1 1 0
1257 1 13.066017161063474 0.7449136510249696 6.590931553570437 0 2 0
231 1 14.785497596128213 3.8862122653923947 8.016935889344829 0 1 1
29 1 12.256559382935407 2.4174453350499436 5.369843998606494 0 -1 -1
614 1 14.3993473592795 2.6482082286170687 6.042998380162065 0 0 1
230 1 13.04464583062873 2.517865561901161 8.002896774727674 0 1 0
866 1 12.542934171641086 4.232569007301487 6.485132451050152 -1 0 1
1050 1 16.12741398231779 3.5323644348140677 5.077587341616074 -1 1 -1
499 1 15.79481371594483 2.1146220984330695 7.878200345327655 0 1 1
585 1 12.692434779605126 0.7885474926885228 9.152526450047741 -1 0 1
486 1 18.553767294888225 1.6533482274171334 5.0564804292974115 -1 1 0
1641 1 18.663604921478665 3.9371004100347573 5.234840839614392 -1 1 0
943 1 16.595358768528534 1.399322253882325 5.7915342207181695 -1 0 1
43 1 17.849621416312345 2.7173974764635154 7.181008182900866 -1 1 0
2 1 19.838643841440522 1.4761719385607681 6.778278750077322 0 0 1
1656 1 19.096212088560293 4.434759564631431 7.238712407469545 0 2 1
1891 1 16.83659976932575 4.657825765137219 7.246390127793227 0 0 0
1010 1 16.859847427105876 2.6005940916665375 9.53959219713574 0 1 0
626 1 19.29815416151311 2.7732869586051976 9.016533215385103 1 1 1
265 1 17.286659072227224 4.882210793698081 9.495884757702228 0 0 -1
1196 1 17.844859251259777 0.6853503348883636 7.596910396948842 0 1 0
837 1 20.758541496032294 3.047677716917004 5.517060840904652 -2 0 1
384 1 21.928230407812208 4.900079578206605 6.27758750733758 1 0 1
561 1 21.943966327942924 0.4498762607598741 6.4806534165324985 0 0 1
356 1 21.12197814521096 3.783019419705966 7.855697348880562 -1 -1 0
1829 1 22.984992730904686 2.589080533376332 6.880067347557288 -1 0 1
1624 1 23.61207227558809 4.727277341250745 7.461827057763358 -1 1 0
1271 1 22.561419116576275 3.460403184582026 9.541033852761702 -1 1 0
599 1 21.544196524538116 1.8925282011832316 8.805569172538599 1 1 1
1724 1 24.570122206676253 3.6419240404395175 5.118390305536476 0 2 0
333 1 24.253863723846514 0.5094038539390362 7.32975419565091 -1 -1 0
648 1 25.839923434482266 1.530773033101502 6.100157564247499 0 1 0
233 1 27.414289542377325 3.3867723036616204 7.041024101605356 0 0 0
1832 1 25.115500710848792 2.8723059140742877 7.430338125367682 -1 2 0
1213 1 26.99953064138954 1.328185225110777 8.319375426778713 1 1 0
1030 1 24.202280588886055 1.7054473041864675 9.25266864428156 0 1 -1
810 1 2.08524855549216 9.042233304757398 5.550379326675897 1 -1 1
1142 1 2.7507955967054163 5.6190047092428665 5.646416898137053 2 1 -1
1640 1 3.5765506957589466 6.686619174725515 8.032977314067239 0 0 0
1982 1 2.4496134156284826 8.91025413284464 7.9578730087875895 1 0 0
778 1 1.3661838180485952 6.797112850175018 9.110981617147422 0 0 1
1383 1 0.7569528891614001 7.436002726445127 6.600822885512074 1 1 1
171 1 3.850608328339868 7.930073120523448 6.289368975128678 0 0 0
713 1 6.369661800045858 9.048233626897659 7.194250900326977 0 -1 0
641 1 4.774751734158734 5.819451517970903 5.311734778314951 0 -1 0
1159 1 6.181096561105725 8.077877532419603 5.157625744368188 0 0 0
2030 1 6.127882381777225 6.739873993366152 7.023963365299446 1 1 0
577 1 7.426305326622804 7.90635935040665 8.789946693111915 0 0 -1
1282 1 4.800819177751271 8.37725679383218 8.539474849950043 1 0 0
1991 1 8.050171283866353 7.414426407760624 6.544751795887329 -1 1 1
1744 1 5.575027333147996 5.587574539043695 8.708752849260739 0 0 -1
132 1 7.781681370608737 5.874799801550296 9.407171521714218 -1 0 -1
689 1 9.242350551527522 5.527742389756701 7.512199175613622 -1 -1 2
1650 1 11.21639106121395 6.087422499328956 7.973298095288167 -1 2 0
603 1 10.844676235161216 6.086729552875594 5.658997578879608 0 0 1
707 1 10.886080436522459 8.264219717488082 6.102348530248893 -1 0 0
1342 1 9.595851647426082 7.85147773044376 8.392045370020968 0 0 -1
1466 1 12.006404424815177 8.202812459010767 8.209655040996541 1 0 0
1276 1 14.711305697646589 5.081269576926909 5.838955187307139 0 1 1
1105 1 12.700874596023766 6.721007149916894 6.3067660952507145 1 1 1
519 1 15.969489772174253 7.595841440350529 6.344151700820202 -1 -1 1
1347 1 13.126909324304307 5.944538413537823 8.396333391051432 -1 0 0
1497 1 13.438614292703614 8.589062708500217 6.508871514859493 1 1 1
1872 1 14.211745054332681 7.887624265549424 8.611071397862379 0 1 1
2041 1 15.419287818758258 6.019575267627875 8.149116564245645 0 1 0
1261 1 15.68836655832857 9.329288080383042 7.753551540926706 -1 0 0
1595 1 18.745392089508726 9.34110952363515 9.531513123729688 0 1 -1
2026 1 17.907459194109613 5.596999367522623 5.479525083147005 0 2 1
1037 1 19.584511915938826 5.29319929226083 8.987859264334213 0 1 -2
226 1 17.844987242628868 7.813710493238155 5.193690781043703 0 0 0
1421 1 18.018578175637245 6.741680598785006 7.85477374457227 -1 0 0
1612 1 20.02167483226698 6.318435441962134 6.244689692439309 -1 1 0
1909 1 17.829989273155796 8.629429354458278 7.140199679729605 -1 0 0
1182 1 16.506916553172275 8.297961087951261 9.424388440445584 0 1 1
1758 1 24.038677725953526 6.535607903665873 6.1018697307829735 -1 1 0
995 1 20.108698717645233 8.513084425035776 5.758586594389681 -1 0 1
1111 1 22.120153824517992 7.363358218562631 6.922784579620772 0 0 1
1092 1 21.319652419892407 9.295169791084083 7.441869450952264 -1 1 0
1054 1 23.968238755332322 7.153446756951456 8.31600358114915 0 0 1
776 1 23.429494387860956 9.237062959740568 8.088449312544746 0 0 0
1439 1 20.12637004765162 7.366988004089109 8.08221269968241 1 1 1
449 1 21.684538342795435 8.168242674173737 9.118038229900337 0 0 0
508 1 22.53027962510592 5.428021205281334 8.912870352241054 1 1 1
1707 1 24.960127215580457 5.40675511468635 9.363006627992739 0 1 0
24 1 25.650705624684065 5.34602536522969 6.866449150105566 0 0 -1
279 1 27.279089550868832 5.390721454790116 8.376831804968509 -1 0 1
619 1 26.2814497299195 7.980799585622992 5.164640794018398 0 1 1
1371 1 27.58180985750718 5.894970507673913 5.483785771674177 0 1 0
550 1 27.959456522020837 8.786315881625459 8.1847393589035 -1 1 1
1737 1 27.58632436267521 9.399207301950025 6.046293857238632 -1 0 2
1765 1 26.11513933557702 7.1439698432812895 7.354680498540838 -1 0 1
1848 1 24.405513388072862 8.675540120117844 5.8454896634575455 1 0 1
841 1 25.552997997303336 8.877517360837667 8.718140253531372 -1 0 1
1696 1 1.7637603602836736 10.481372837240407 9.399265276083213 2 0 1
513 1 4.2631263671368345 12.143916680785313 5.914276788679188 1 -1 -1
1315 1 2.1135611519454387 11.032880093866362 7.264190397202185 0 1 1
1033 1 4.153188415679731 10.274600993181568 9.55971621403498 0 0 0
84 1 2.438992733961291 13.089641226959808 6.283188652580894 1 0 0
942 1 2.644052462204145 13.229547894735097 8.599216224261998 1 0 1
1226 1 8.197971489430579 9.638066380969692 4.973911606548163 0 1 0
1528 1 4.5006686044387845 11.94748861062377 8.416663216201526 1 0 -1
1684 1 4.422217983003189 10.147769039503792 7.162531872960206 0 1 1
9 1 8.034066547374849 10.958214864660384 6.9300138936084315 -1 0 0
815 1 6.1490541651890185 11.322326723585949 6.018425210803598 0 -1 1
405 1 7.192625547153526 12.94116033094699 7.9058783008980695 1 -1 -1
1788 1 7.7447597558804 12.500072065123009 5.499891010616492 1 0 1
1321 1 5.673245071637454 13.72899982432198 5.41892473527427 -1 -1 0
1154 1 6.238416779418355 10.811219695969417 8.406329151719673 0 0 -1
90 1 4.809460529070078 14.015384965458772 7.55450736673978 1 -1 -1
887 1 10.106752603839146 13.944143438222657 5.4636798416689265 0 0 0
1700 1 11.767233688680538 12.743120519400788 5.340786175081573 0 1 1
521 1 11.5170448158992 10.474423758701928 6.06555015524806 -1 -1 1
1124 1 9.664502487361249 9.799768907891297 6.950121174756353 0 1 0
1244 1 9.671460570145781 12.078600578304005 6.9350216088175545 0 1 0
1490 1 8.830890049004655 10.244219891960777 8.949426742998432 -1 0 0
640 1 11.802020071507739 12.113942739133932 7.643456638757874 0 0 0
497 1 9.447856681775214 13.252937735986192 9.337099950157741 0 0 1
76 1 11.117720413028538 10.193987029829183 8.669527080755822 -1 0 0
596 1 15.277628408891857 9.864992907133246 5.477132814514892 0 1 1
2042 1 13.247294386511259 10.29872537852016 8.343637375135598 0 1 1
1452 1 13.833327647416167 12.37472992962935 8.809237281344785 0 1 0
495 1 13.819229548807858 11.099187871548363 6.370189069348235 0 1 0
518 1 15.732013226392619 12.008135026709601 7.085352586962919 0 -1 -1
1570 1 14.901323448601252 13.851028934458723 7.1353293520917935 -1 0 1
1989 1 12.537274602164127 14.04559677241893 6.527650416559329 -1 1 0
1809 1 16.397081947163002 12.78690677661663 9.048998438859439 1 -1 1
972 1 17.55109074086549 11.360581507754311 5.589323680763877 -1 0 1
1192 1 17.726599128532627 10.949548240047438 8.712105848770303 0 0 0
282 1 17.796538657163453 12.94840000273596 7.09329603276426 1 -1 0
1362 1 19.90172120669981 12.780871404992443 6.402669734554507 0 0 0
696 1 19.006114442494244 10.232720354473289 6.824230219261495 -1 0 0
1729 1 19.54415431294961 13.089163627382051 8.491921578033173 -1 0 1
155 1 21.7157364144036 13.320949488551827 7.859431886389897 0 0 0
322 1 22.607394284871326 9.703180741966301 5.433583346261273 -1 0 -1
281 1 20.75077924308215 11.114329680061612 4.999195886842398 0 1 0
491 1 20.536314102083715 11.337287123002639 7.7992017701431475 -1 0 1
1990 1 22.19409105851299 12.61509580505722 5.886174536525409 -1 -1 0
1358 1 22.496158355217553 11.60487440155362 8.810441710532096 -1 0 0
1971 1 23.708450724661553 13.260417481457731 9.507507472357554 -1 0 0
2047 1 26.074622046639746 12.690396116270845 6.567481154047226 0 0 1
4 1 24.14079211767323 11.158726509041573 6.823062122748058 -1 0 0
335 1 24.140015238781174 13.552159204226925 7.375376204861975 0 0 1
1647 1 27.908131729650723 12.143122295581362 8.172857566125405 0 -1 0
1419 1 26.025358860366595 10.77419106638044 5.063254854041196 -1 -1 0
253 1 27.216376004935817 10.49046077853611 9.557595762757302 0 1 1
1214 1 26.18287228745028 10.415950734394341 7.324396265129005 0 0 0
986 1 27.83741345320687 11.62785881384709 5.8482074307238685 0 -1 0
1302 1 24.5187702476643 10.852729629651103 9.302161892461147 1 0 0
1170 1 25.77862357373195 12.45225930918337 8.435430647678183 -1 0 0
1869 1 27.9984674190513 14.02562649734418 6.603552602966688 0 1 2
936 1 3.4265031559457575 2.390502809948062 13.474016189654138 0 0 0
620 1 2.4115126415165733 3.2220417328385595 11.267350464884997 0 1 1
985 1 0.8079097626682796 4.262612720649155 12.503645833087553 1 0 0
170 1 3.9023750897601066 1.6768067725540519 10.861809440812909 1 0 0
1955 1 1.3204373031688532 1.2005111196513099 13.712184317752245 0 1 1
1980 1 2.0388168997620264 1.318559458281273 11.708570598460927 0 1 0
1344 1 3.370511125705727 4.801924776642733 12.296495762879758 1 1 0
2035 1 6.229533177301693 2.334816224909194 11.419064023991789 1 1 1
539 1 7.25941455229714 4.944006724389334 13.397002572889992 1 -1 0
2021 1 4.570635573317793 4.20871398803594 10.313086656003218 0 1 2
618 1 7.740476999983537 0.7775703134184773 12.036272071444474 0 0 0
661 1 7.414352336871262 2.697601647987197 13.454847009747148 -1 0 1
800 1 5.820701228037998 1.2505507314577728 13.249423213368601 0 -1 1
1275 1 5.212676360270208 3.6615939082615747 13.02831697716835 1 0 0
238 1 6.136685802995668 4.941005868599639 11.302927472716927 1 1 0
828 1 7.293592226481073 3.7923710057172744 9.780686562885183 1 0 1
925 1 12.063758665868567 4.3395202995466615 13.479305174140082 0 0 0
520 1 11.086012895663876 0.4566977999455831 10.747705130122114 0 0 1
646 1 10.22945034461201 2.4592641654369163 13.184950499578452 1 0 0
111 1 11.752649402423266 0.9529837678195676 13.531800273896321 -1 1 0
684 1 9.786218950604118 0.5492996465966484 12.482152130250945 0 0 0
2007 1 10.182122452347944 4.177555312980493 10.254484855462648 1 1 0
309 1 9.081777128613377 2.5109454402904894 10.687081522465707 1 0 -1
845 1 10.031860670936998 4.833037493370635 13.209884631143364 0 0 1
814 1 11.86600871603106 3.5223197636142327 11.328930017232459 0 0 0
586 1 8.304834848218729 4.336418344801521 11.683783612198093 0 0 1
1725 1 15.502652231811982 0.8021727318126697 9.969606798581182 0 1 0
12 1 12.990771769694526 4.339909847853522 9.632560525907262 0 -1 0
255 1 13.951302490810294 2.366192951748662 10.17212706891805 0 0 0
149 1 15.907307593509122 0.8832740195593859 13.899973966415246 0 0 -1
336 1 15.648182505392134 3.0042428904225917 11.481631541686415 0 0 0
1046 1 15.269018954433497 4.3931119637296145 10.004050917688971 1 0 0
903 1 13.473458693611505 4.886892201860933 11.66287070039186 0 0 1
121 1 14.80177902281226 4.079296848525946 13.254884698012612 0 0 -1
1488 1 13.453151042601817 1.9604689686746248 12.460812813673916 0 1 1
454 1 19.32307279278558 3.1809907782338285 12.874977404372045 -1 1 0
957 1 18.465166408992616 1.601957321097872 13.951916470414075 0 0 0
63 1 18.082418530835085 3.4823191052885845 11.203192101925659 0 0 0
310 1 17.69287890756617 1.1999100038064978 11.733330220371805 0 0 1
1186 1 16.834813450864914 2.8658691284659796 13.423055108758282 0 0 0
1537 1 19.957365778103828 1.838527378108301 11.158749973902987 0 0 0
1690 1 19.458673541250327 0.48459641207858806 9.577716196574395 0 1 1
529 1 16.460289072138465 4.958127800811497 11.93926394223493 0 -1 -1
1922 1 20.676887558386134 3.847732340820691 10.670452006504688 -2 1 1
1422 1 23.754174676513145 0.4786233714324482 11.248415663621458 0 0 0
524 1 21.178751192108045 1.7193741514408931 12.963576885095796 0 0 0
256 1 24.02487812021448 2.349391826046296 13.06643042449871 0 0 0
267 1 22.50453364691328 3.6589115845225355 12.487833793324612 0 0 -1
1256 1 22.163625557753093 1.5478141201829156 10.63234743258072 -1 0 -1
122 1 26.398665208317723 4.239791010969085 12.1957620999052 0 0 -2
1965 1 24.540201918564293 4.627118785287946 13.006766102800615 0 0 1
595 1 26.698304147750925 2.251385978312996 13.238412451409715 -1 1 -1
545 1 27.844613114568276 2.6625360506326197 10.910424810119038 -2 0 0
971 1 27.821034528899208 4.924564283853745 10.382007961710531 -1 -1 0
376 1 24.286385062645458 3.7833222508879305 10.781322235374697 1 0 0
1659 1 26.38523499208506 3.5874791183705765 9.570488379923791 0 0 0
1692 1 25.688322122588005 1.753550010795166 11.256857565410883 0 0 0
459 1 27.34978013093346 0.6287666650501926 10.537799200598483 0 0 0
387 1 0.7409228226125126 8.831570480807024 10.519007175828824 0 0 0
829 1 2.9512307666586195 8.280563777708927 9.93456773153785 1 0 1
1280 1 0.724837360902157 8.42193930250086 13.177401604488397 2 1 0
718 1 1.7907791663612909 5.930204180841597 13.493544312000926 1 0 0
400 1 2.465909739425022 7.9505600203847795 12.070133650537544 1 -1 0
610 1 0.43353838635507563 6.453119199887003 11.622520131536056 1 1 0
1048 1 3.1000527856771396 6.2690223111126455 10.581605260864892 1 0 -1
1035 1 6.395117372204178 7.231261344693189 13.526826006788406 1 0 -1
229 1 4.976366617671585 8.422796800656938 10.992487157211002 0 0 0
1614 1 4.475217851682994 6.61349689300411 12.401353510993795 0 0 0
1911 1 6.105268511266758 6.962295721682425 10.05231423085753 2 0 0
826 1 7.833164567830391 6.742116989058388 11.59338748452958 1 -1 0
1529 1 4.340298797339747 8.543090005799543 13.357297493666962 1 1 0
349 1 6.923677692416084 9.069341171676363 12.43423096001069 1 0 0
710 1 6.8197510014628575 9.43840399765176 10.133195361415645 0 0 0
163 1 11.09139210693934 8.715756160523265 10.785915102687833 0 -1 0
973 1 11.36547268977461 8.502403130465561 13.279931695031525 0 -1 0
1000 1 11.264020022766525 5.7025447162116985 11.728609332638875 -1 0 0
1927 1 10.041849649023742 7.050709615063693 12.357626583542677 1 -1 0
314 1 8.937663694013816 8.05446242705808 10.627573588997123 1 0 0
1109 1 10.062702712467521 6.450593548997282 9.798870338584221 0 1 0
782 1 9.059258199920647 8.813619387652151 13.295661792833544 0 0 0
285 1 14.553517323947831 6.688993700115213 10.427416954926782 0 0 0
1047 1 12.239831105701768 6.890725770409614 9.932809336195117 1 0 0
1776 1 12.994627342567444 8.913404337354844 10.274013229318824 0 0 1
2016 1 13.154275628901708 7.100979813607994 11.977521355482104 1 1 1
1741 1 15.356375773945816 6.556743151277873 12.732236117880747 0 2 0
541 1 13.71454922287958 5.8070013549667925 14.06381173279541 -1 -1 1