LAMMPS data file via write_data, version 29 Oct 2020, timestep = 300000

2048 atoms
1 atom types

0.27180458486749615 28.080195415132955 xlo xhi
0.27180458486749615 28.080195415132955 ylo yhi
0.27180458486749615 28.080195415132955 zlo zhi

Masses

1 58.933

Atoms # atomic

219 1 1.730631645565288 2.010245954027383 1.5141298942330237 0 -1 2
1563 1 4.342183225787615 2.0353106043851144 4.831314033146476 1 0 1
1880 1 4.417791161005646 4.905027219009397 4.019259088634071 3 1 -1
1459 1 0.9657282944986233 5.427563651650481 2.3716831171017474 4 2 -1
1239 1 7.346697399567515 0.9736469060888024 1.76119160394354 5 3 0
1939 1 2.566601195138052 4.174234509561283 2.736303569137785 3 2 1
900 1 0.5031525218308 3.7921854431357938 0.9173508500434688 -2 -5 0
843 1 1.045700097826324 2.132865970807156 4.0395624431920165 -2 0 1
851 1 2.430310599506944 3.621521294533527 5.307948873794957 1 1 -1
1262 1 23.92881598804634 13.82165104255079 7.604425424877972 0 2 4
464 1 7.801804004699539 4.4873580536059805 3.6012167472744814 -3 0 -5
766 1 6.084079414180906 2.5583531084804227 3.093469578930505 0 -1 1
1373 1 5.960342302018579 4.642458645424128 2.052219987462582 1 3 0
1152 1 10.489398786185353 1.8707273822444614 2.1619450798285116 3 -3 2
1665 1 10.253352584665807 4.249709571949026 3.5131466370138127 -4 -1 0
1711 1 18.991190519402114 13.83158995274581 8.722330621459626 1 3 -1
213 1 16.19986536879567 0.4790617080344276 11.358387758140044 0 4 0
1498 1 3.763486998070143 2.974362417728607 1.9012738941271885 0 4 -1
200 1 8.876595935407426 3.2521352308752354 1.9274415948267585 0 2 0
1626 1 12.392155476294619 4.187999824839543 4.504809241080134 3 -2 1
1452 1 13.18159600785135 2.8053334223670334 2.662442384632441 -2 1 3
1282 1 14.258623196747752 1.9948996388142002 4.118934819806709 2 0 2
274 1 10.608995588184174 12.785041745082927 13.656151456464247 2 -3 0
1442 1 10.558025314959476 4.015522370370073 0.9495447079051975 1 1 1
1047 1 12.476462953007221 0.6757861648336103 3.1311472412704706 2 1 1
994 1 6.154777188802948 8.479063224276821 0.3672454403427903 1 1 -3
254 1 16.713554160311723 0.9976784048197718 0.8508468203169332 1 -1 1
1581 1 16.205525670969926 3.1621866438290263 3.5588406180558096 -2 1 2
91 1 19.462980443932988 10.918090016376219 0.7149725418432484 2 -1 0
1807 1 25.016095729746038 9.171605877856056 1.027194957797118 1 0 3
1978 1 15.511097550300558 11.180146675226702 1.9111308360871253 -1 1 1
1321 1 17.74049862918791 4.1147575054164225 2.0813351526061545 -5 -1 0
2016 1 15.533390537772963 4.42250044250475 1.912474200904949 1 -2 2
1389 1 4.970415755163041 12.723529003418255 12.708380330571442 -1 2 0
880 1 16.936915780876056 1.8721283955161419 6.3631660196695945 1 -1 0
295 1 17.01768527536261 3.474291925463003 8.070658533651773 -1 0 4
634 1 18.51624377070209 2.379763317687096 4.607450162607296 0 1 -2
280 1 18.301667748388024 4.251029243099417 4.463556106876719 -2 1 -1
440 1 17.255192911545844 1.497407816138791 3.1317747643037124 1 1 3
661 1 7.794541217885142 10.986310000454647 0.3296686173825321 -2 -4 -3
1388 1 19.44727251161492 3.0411105992968537 2.789768579006449 -1 2 1
29 1 1.412883149931926 9.69099669356159 0.9813815759983304 4 -4 1
1827 1 24.893701703943528 3.3232031895120406 2.6156258200878537 -2 2 0
1936 1 15.087650635459267 2.241530717978888 1.5506706403574435 2 2 1
736 1 20.71031688346444 4.457096204065252 3.6692163768272796 -1 2 3
1615 1 24.987394143186116 9.870024144299862 13.618843079686853 0 -2 1
733 1 24.228796903644337 4.2799794611761 0.4334571015212818 -2 0 0
1323 1 22.59721045829928 3.311164066123959 2.365362753647603 -1 1 1
2024 1 21.763460658601794 2.5670514241324516 4.468492289288734 -2 1 3
494 1 25.101774736942073 13.648473074068749 9.325497267005122 -1 0 0
1414 1 24.96915189080011 1.986309678921514 4.330660365996037 2 3 -3
1480 1 25.880746521247197 13.288433899719271 1.537637726098087 -1 1 0
99 1 24.96359488783091 5.533215231555045 2.9441367935562694 -3 -1 1
1134 1 26.94088339004275 3.970464084338304 2.8918319021807544 0 -2 0
60 1 27.452670924186556 1.8495734730158542 2.0283927736674983 -3 1 1
1215 1 24.973302095469332 4.6153246683031295 4.842655519927709 0 -2 0
17 1 5.40587892120035 1.2063995474613014 1.456793331813874 2 1 -3
331 1 26.681013229529967 5.229143650200905 6.421695206194844 -3 1 1
1463 1 1.290162438456088 5.282074243422914 4.596693928932302 2 4 1
890 1 11.847204441764447 1.3172880140866003 8.59796409669832 -2 1 -1
1178 1 26.629291919849774 7.179319911183408 3.055921734510868 -1 -1 -2
1908 1 3.3032717250025176 6.172815106901666 5.311760752476487 1 -1 2
235 1 0.9941746163166578 7.773849902560221 4.120865673521 0 0 -1
617 1 1.5256758970497075 7.526078206054774 2.1062672895355545 0 -1 -2
848 1 3.0786318291410892 8.484937728192909 3.5065946769552374 0 2 2
571 1 3.3429983880083904 6.593331674071429 2.956142388728603 2 2 2
709 1 8.93940934864143 6.018586850163295 3.425796956113376 2 -4 0
2044 1 7.2537857844619325 6.972812637528887 1.9966689976161711 -3 -1 1
1325 1 8.249117312114212 8.263270285318715 3.85958664431429 1 -3 0
256 1 5.239865490219244 8.736539043352915 3.1181130057574507 3 2 1
290 1 4.619558631380414 7.741800056671557 4.908538543002642 -2 -1 -2
2008 1 4.264973076065003 10.261615418778739 4.83866578123748 -1 3 4
1996 1 7.671180868074975 8.952802926018068 1.9114551212316544 1 -1 4
1019 1 6.5244954696835045 6.1011823116990636 4.031345820100162 1 -1 1
1811 1 3.5647333844146294 8.894397422419647 1.3850399029769949 -2 1 0
1835 1 11.00059492041764 6.029436611206307 1.6274900403570864 -1 1 0
1027 1 9.82672909952958 7.8592480439058825 2.17220766588769 -1 0 1
1296 1 26.741700570786264 0.892017519961167 4.853492675975701 -2 0 2
657 1 11.437353518543144 6.728821526131845 4.045569662398538 1 -2 3
1099 1 9.759156768695556 10.152307799441056 2.324460475033762 1 0 0
2023 1 12.07401664958408 8.382525842098966 2.7356018063059047 1 -1 3
1676 1 12.73671000839188 5.2077225566272265 2.5196236351406607 -2 -1 3
1909 1 8.64524009314917 5.190328577434209 1.3265277707721101 2 2 2
1950 1 16.134779411426656 6.4711689847811 0.8840525062109765 2 -2 0
2013 1 16.412210883687404 5.36125909291801 3.5607815035507238 -2 0 1
1828 1 11.505783855491517 8.971943496735694 0.7849938998294067 0 1 2
1448 1 16.844702506194157 9.70556660373161 4.15402455328878 -1 0 -2
1378 1 14.67403761613241 6.3865290651119055 2.4861918684330804 2 0 -1
1611 1 18.618645115405936 6.285212858560989 0.6291212471932741 2 3 1
107 1 17.407745828975504 9.720763746801902 1.9772994438616038 -4 2 0
1562 1 18.627102322922163 5.901405074987006 3.183267310172166 1 -2 1
1900 1 16.33222621630282 7.884405997687062 2.6836499649375325 0 0 -1
2004 1 2.731662367275761 13.460546237094277 10.145898213952709 1 1 1
827 1 17.64553368451016 7.247583790842786 4.470673990822922 1 1 -1
1319 1 20.668076260089208 5.877616056520566 1.9782429258060934 1 -3 3
1997 1 21.783918928528053 7.890230160710031 2.666681230597293 1 0 -1
1956 1 19.88240273510875 8.349973473919995 0.9221878615989345 -2 1 3
1985 1 23.2757669346799 9.39700876742965 2.584421967948019 2 -1 -3
233 1 16.153556368650428 1.398291309075127 13.387234935012216 4 0 1
1213 1 21.640100369766234 6.453920462647096 4.430750826255797 0 1 1
1739 1 22.95043123168849 5.814249146051572 1.9794426612818516 -2 2 1
539 1 19.401099842174244 7.734252979026923 3.1541604382159654 3 1 -2
888 1 19.669557353987965 5.7687099805376 5.168832993322327 -4 -2 -1
1765 1 27.031438895313716 5.6989420156019825 4.420892865201816 -2 2 1
954 1 23.119758694168 1.0718749302465052 5.221435932879576 4 -2 0
1539 1 26.620792334856507 5.740609684192567 1.24691871293374 0 2 -1
1118 1 24.10427139923643 6.755789330803801 4.541908840756055 -3 0 -3
624 1 24.475551704699193 7.776940349811034 2.566733175587783 -1 0 2
378 1 23.193678068585534 8.505665660032033 4.512023612350613 1 0 2
1037 1 27.055612919991766 9.213423464229086 4.135626757534951 -1 0 -3
342 1 2.819190461419545 0.7731297201423818 7.686668475780493 2 4 -1
136 1 1.5287549316531972 11.882766498506436 2.205975797763733 1 0 2
609 1 1.9720068493632084 9.420352921942316 5.391136793528998 1 0 -3
189 1 3.451317634390736 11.058757156983875 2.930725920429389 2 2 1
1806 1 2.1705005437451153 11.74359719747701 4.654935857554427 1 3 0
592 1 0.4830586771063675 11.043173943433583 6.206924924733149 3 -3 5
211 1 21.940779667585396 14.144944765201252 13.9345287835781 1 -2 0
1598 1 26.2815582115119 0.5621001665270016 13.67604993445815 0 2 -1
514 1 5.625303285010869 12.380682840854021 3.007489700117888 6 -2 0
446 1 24.919077886270177 1.207998813890946 2.391493690787977 -1 3 -1
1960 1 6.54341682358163 10.343832221652102 4.351478330930626 -4 1 0
2046 1 23.329942569574968 5.175772899109613 13.671577369667165 -1 1 -2
1867 1 3.626523820221192 12.791577630395844 1.4282816949287311 0 0 -4
1485 1 3.9086559385588293 1.5438048849733685 9.570119016292242 0 -1 -3
1392 1 10.406087056397954 11.968430117526173 2.96865745881627 2 0 -2
1173 1 10.811536141011103 10.33686651883859 6.069749631887718 -3 1 0
557 1 11.530863121568146 11.08194530250821 1.2112057582216735 -3 0 1
358 1 10.364634764985075 8.637466490379087 4.411890018355659 -3 1 -1
1970 1 12.273532720419828 12.791759699548885 4.434304530122938 2 2 0
90 1 8.816410816866785 10.241098706217274 4.442032446703729 2 3 -2
671 1 11.637936968722913 10.14082300596347 3.694133029416548 1 -3 0
731 1 9.517611886566149 11.529284660563539 7.6250653213392425 2 -1 -2
788 1 14.642171973702224 13.30125347737395 3.0604416496137214 0 -1 0
2017 1 20.949766857061 2.064528118964275 1.179922421668766 -5 1 3
1354 1 6.235711737893025 3.1355732427235923 0.5533806775059174 -1 0 1
1536 1 13.689263268457157 12.663290670366967 0.8224156742584688 1 -3 -1
1655 1 5.033212201569981 7.024114351584874 1.2613388215956136 1 -1 2
288 1 13.495282382346575 11.031601357012255 2.9340679198400714 0 2 1
134 1 15.61502114928958 11.695880856139567 3.8722474583046638 1 -4 1
707 1 15.673015789314913 9.198664395627091 0.595353864328851 -3 -1 2
548 1 14.414949107067182 12.881881827493695 5.286379178910167 -3 0 3
183 1 9.383200291773903 12.652883753775964 1.2454361570028778 0 1 -1
1198 1 13.315081683253243 7.507152377992223 1.1072227982017253 -3 2 -1
448 1 19.132712947429567 12.42109972325967 1.9720482355271087 1 -1 2
1722 1 16.13361085770793 13.61501548103856 1.0154227374029678 3 2 2
622 1 21.264899190768514 12.293961450799701 1.7985935491153218 2 0 3
456 1 19.06878686346172 9.64657247762582 3.683401031566804 -2 1 1
133 1 20.06954613799873 11.92181668847221 3.9294599326771356 -1 0 2
1809 1 17.689851322862985 8.142865091158566 0.5425161087323325 4 0 4
513 1 0.7463625148462425 13.421353620184588 6.979052366046076 5 0 -3
881 1 16.68782799383662 13.159776228420792 5.188569488990841 1 2 2
1407 1 26.20436066139576 3.3044689840798367 0.6146026680423685 0 -1 -1
1159 1 22.468943727225035 11.5352790135202 3.4460955976760945 1 -2 0
380 1 21.433984649595914 9.768966472758814 4.0507362960471625 3 0 -2
1524 1 21.12091072845138 9.80878721260944 1.9161362103697788 0 -1 -1
673 1 20.824693805083516 1.9703112175428983 12.130550396661308 0 -3 0
495 1 26.372750433158036 10.978654854410236 2.7415037952193937 -2 1 -1
1587 1 24.119060513206417 11.326393583187198 1.9991037430553107 -1 -2 0
103 1 23.442935123011253 13.578405451345054 1.280172361835852 -2 0 -3
1255 1 24.994342494984288 9.521660436900683 3.8015168581709826 0 0 -1
155 1 1.260559752085822 9.93427207935705 3.191336359107769 0 4 1
1367 1 27.43180252360966 12.06029716158874 0.9529452984529435 -1 0 -2
1184 1 27.935436721173097 11.935841272512585 4.031717236181656 -2 4 -1
613 1 25.47408765408977 12.389743829224887 4.101673633499711 -2 -1 0
761 1 27.27496483535782 9.292474685679684 1.5949474354005837 -2 1 -3
1757 1 10.129211541764565 12.985547109335782 5.373517746548764 2 1 2
351 1 21.159740191068327 4.144573733304238 12.58773205985775 3 3 -3
754 1 5.364637071561662 14.095391058501928 1.3080054742274065 2 0 3
1799 1 1.1289969888942462 4.648998357387237 8.790597772606409 3 1 -1
2020 1 1.209826556799602 1.235414177813084 8.997496081638957 1 -2 4
259 1 1.7481878387576992 1.9642641180874814 10.915156267932957 -3 -3 2
636 1 1.9856292586477948 2.2793736130243505 6.889753055782894 3 1 1
1516 1 4.046126314137496 5.666321308641732 9.017339064485142 1 -2 -3
34 1 2.3215860735317078 3.059061108989018 9.185526256818179 2 0 0
1218 1 24.74929690220251 12.100232636997436 13.090822684506419 -1 0 1
39 1 6.238008811712554 2.2891235803575993 5.874929079924212 0 0 0
376 1 8.45041103420689 2.2255200287600827 3.539522014287909 1 -2 -3
1522 1 6.390257731488133 4.406409913481754 5.121835297636297 -1 0 1
985 1 8.458330441554562 1.962531504526192 7.262122448485276 2 -1 3
814 1 2.824768428079061 4.657816878756782 7.349905751319794 -1 -3 1
31 1 24.463271106896517 10.542357026590457 11.635863905336581 2 1 -1
475 1 6.604075096652469 2.8654296973202213 7.952486660616555 1 1 4
1759 1 4.589449575598687 4.2554030929396784 6.042591381331106 -1 3 -2
1786 1 1.9616886251858416 4.414018720591316 10.99965419545759 1 -1 -2
789 1 8.495073742680914 3.8115151789893997 8.372408940461286 -3 -1 -2
1168 1 9.828904480203201 0.4816902378058857 9.172050627917576 1 -1 -1
631 1 10.599144120619652 0.3390371243168745 4.4293374672688675 0 1 3
1968 1 8.843584778947047 4.132602333816646 5.923065694201399 -1 0 1
1328 1 9.685028170747115 2.1650396706015167 5.1462210477695125 -1 -3 -2
1380 1 11.018390518627784 3.664485189232585 6.804863073790431 -1 0 -4
1668 1 12.053291435885223 2.2454047277361364 4.7980081937789345 1 0 1
25 1 11.360407198634125 1.1248561960677752 6.641875020991792 1 2 -1
1771 1 10.279169276339609 2.639144607389764 8.468704652634372 1 1 -1
1535 1 13.940432005731465 1.3295167786917428 9.828388295348946 0 -2 -1
806 1 14.881348281058687 2.886547481603714 5.71165407648511 0 2 -1
593 1 11.575056534344705 2.9110433989117217 10.521890374066665 -1 1 2
1657 1 12.486758368776663 3.565820679562835 8.642253156151417 -2 0 -2
2035 1 13.456303440813286 1.668119811348878 7.1761986288500355 -1 0 0
932 1 11.61835343858966 4.812047194420134 10.525144354387033 0 -2 2
1264 1 13.355223739682373 4.399423713556221 6.531267293707495 1 3 0
73 1 16.09158462850793 2.329667132327562 9.796738441208914 -2 -3 -3
2006 1 14.843207260753813 4.190920144151901 7.984518678725574 -1 3 0
1140 1 15.455840938017671 1.7348289202655196 8.06322262390039 0 1 -4
1270 1 18.110190367821527 3.9510448568948293 6.543078583266061 2 -1 0
386 1 19.139520257573313 1.966584166275003 6.843726881154859 3 0 1
1352 1 26.607529184337448 0.7490760632969549 9.261194346369152 -4 -2 1
305 1 17.48352706865565 4.0377716508843555 10.632489049799748 -1 1 0
1818 1 18.613131088065447 2.6272416024378313 9.188664475260497 4 0 -2
241 1 17.49664762509207 7.933351249941453 8.40346076625306 2 3 -2
1706 1 21.35180593581163 1.682358354707901 7.627184194600535 1 2 -2
38 1 22.85174250013242 3.239518712082904 8.383365292109012 -2 2 -1
1646 1 21.819600889095508 4.558733370456735 6.5454070207958965 -3 -1 -4
160 1 23.465834808873986 3.361823260330964 6.2140402339839005 -1 0 2
1644 1 23.215055219679492 4.708510391606003 4.106261095776745 -1 0 1
1551 1 20.224888602472337 3.4523396918411287 5.793454472251063 0 3 -2
1851 1 22.278668297406412 5.672032467595366 8.208419676109902 -1 0 -1
1541 1 18.67696646406174 13.99491005119383 11.300003747212811 -3 -2 -1
140 1 27.821294767058568 3.6447472527714413 4.958533941611624 2 -1 3
1796 1 24.80753335675618 4.6117028662919095 7.550517071500597 -2 1 0
646 1 27.456491312444527 3.0148470398447706 8.714305899503495 2 -3 1
117 1 7.015421013606833 7.0419587735079245 13.332751540188541 2 0 0
860 1 25.16953502469303 2.2947214665804494 8.940253170741187 2 -2 2
1316 1 0.7299174352430212 4.988931033395742 6.728148389355992 1 1 1
352 1 27.36925976201777 12.011521612823325 8.39979528679682 2 1 0
1654 1 27.037328735198685 8.098800707549357 8.130600243783604 0 1 -1
1494 1 1.4839811836242858 7.002416838625501 8.66360538148302 3 -1 -2
1318 1 26.21730707930458 6.062765038702276 8.725840100855718 2 1 2
711 1 3.918656317184526 8.033439994448631 9.592100120934536 2 -1 0
119 1 3.127128009226202 7.53876783350294 6.707955891549219 1 2 -1
1041 1 2.105113447816955 9.483916413518527 10.284265717700304 1 -1 0
1862 1 5.986540797692865 6.779428769547268 10.005983152715414 0 0 1
1176 1 3.825946377613409 5.345530965003055 11.22373833262797 1 2 3
614 1 6.224843025203653 4.919053713553497 8.102751002481195 2 -2 -1
1415 1 6.412085991544007 6.19034217577761 6.328499215898048 1 0 0
1339 1 8.532813897540848 6.291935236946752 7.457217998405263 -2 -2 -6
840 1 5.24890473410224 7.040717437158612 7.76747780953446 -2 0 -3
1825 1 9.296759649239002 8.931443601440913 10.879698364555749 -1 5 -1
823 1 10.920739666317733 5.428668631212179 6.142832900960921 1 -3 -1
1332 1 8.982624695375343 6.638770309642307 5.323056963211041 1 1 0
1164 1 8.686077484918677 9.186038815567594 6.481428481596214 1 1 -1
1356 1 12.487940379356127 8.730717089282626 5.38548033153037 -1 -1 2
1138 1 9.070079483231392 7.567160269911597 9.198670101599017 1 0 -1
1575 1 13.313468241955364 6.2938630227754295 4.8214938245100605 0 -2 2
196 1 10.389577777602039 7.8804124532402815 6.892312772722739 4 -1 -1
1730 1 10.460727666971623 9.648659483227554 8.456630238640615 -5 -1 -1
1794 1 7.8435875944054985 6.230023460248285 9.89781237686416 0 0 -2
253 1 12.134499693592588 5.667742449918996 7.919778377978172 1 3 2
1845 1 12.877274279072594 7.728269196430305 7.348965952419322 2 1 -2
1965 1 14.358258918763058 4.45672093577059 3.8854096896275023 -2 0 0
1009 1 14.568427258001247 5.911505580767401 7.1784149690523416 -1 0 1
124 1 13.63694334071808 5.393103457465826 9.162434300442266 3 0 2
780 1 14.58234817010643 9.216105562067591 7.288684338946742 1 2 1
1597 1 14.608195222186874 8.871917212085913 5.133947801603236 2 1 1
53 1 15.280635763339065 7.026977927528028 4.593404285369216 -3 -2 2
2034 1 16.837878425263472 5.960721478007635 8.047467252972236 1 2 0
1802 1 15.98847671221589 7.529767869009388 6.62582513600085 -2 -2 2
1161 1 14.67270297498939 8.895960789443068 2.9149850043089187 -3 0 0
355 1 16.227780102500446 4.944324525818186 5.613558175822135 2 3 2
284 1 17.981342173057964 10.43483236313375 7.860327070021191 0 -1 1
1462 1 18.708115159423564 4.937450136215762 9.155251698350062 -3 2 2
560 1 14.602552936673534 7.539875500993376 9.075581707544643 4 0 3
519 1 17.21326323813383 11.681277678605008 10.252881884432927 2 -1 3
1344 1 19.551874811503993 7.821189568745585 5.4421077155593895 -1 1 0
1054 1 18.010571108382297 6.334210077555309 6.3957507378637315 2 -1 1
718 1 20.076552025600307 6.268575594548008 7.256565949496611 1 -1 1
1922 1 22.007511465811362 7.11872045938238 6.443182889747818 -3 -4 3
1481 1 21.17413092202591 10.786587064795231 8.537868641839925 0 -1 -4
506 1 24.46504574186088 8.645450675197988 6.491428016811484 1 0 1
1662 1 21.90956608151013 8.058885392196764 8.47646119637563 2 1 1
990 1 23.2127593815312 6.9068499668984895 10.086561968912116 -2 -1 -2
1199 1 19.81976893510233 8.44208875103464 7.618720208959895 -2 2 0
1310 1 19.212704883123784 7.223715641886369 9.612632565659002 -3 1 -2
1259 1 27.814220218453098 8.97755741171312 6.535087269202301 0 0 0
462 1 26.306935420331754 7.540870430047677 5.736606551145541 0 1 0
1911 1 0.9188692175950278 6.949314452004709 6.095832264371297 5 2 0
1888 1 23.582910012191252 5.8618766344514714 6.537646832921201 -2 -1 -2
1599 1 25.839885094437054 10.494204815267208 5.375164566408488 3 2 1
1826 1 26.13787491318537 10.200159723928582 7.744782322359999 -3 1 3
1703 1 24.56073329469686 7.11454067960716 8.381693913801996 1 -5 -3
729 1 23.604291903395975 9.736620080023496 8.12472722202336 1 2 -3
458 1 3.079044518700991 13.595721958033096 6.8323570163889 0 2 -1
845 1 3.26419964963189 10.824241848475467 6.710820215661889 1 0 0
1376 1 1.0071017789515544 13.972674211918031 4.637239964988902 -1 1 0
730 1 4.736743724250989 9.504412564410346 6.642383312842371 1 2 3
428 1 2.3141741396364863 9.214370918028202 7.969540777657676 2 -2 2
1656 1 5.005273456576712 12.143350944624093 8.38656134614351 -1 1 1
600 1 18.986202119656465 0.8671298692017925 1.7885681272728364 3 0 5
1577 1 0.4873127499773083 9.802647474715755 8.775882022365876 3 1 2
1486 1 1.725327102756956 13.518232071495618 0.43785340289439145 -2 -2 -2
1899 1 2.9569313075222614 13.629909921969293 3.3569996933272024 2 1 4
1785 1 4.271589589778785 13.1819259849626 5.114349479526371 0 2 -2
1976 1 26.774951157116064 11.30797046191363 12.876037846169693 0 -1 2
1014 1 7.173239968816324 8.134786460278617 7.899223218980458 2 3 0
344 1 6.693781428197955 8.49912673556349 5.709042168861043 2 1 0
445 1 5.5882246615677005 11.62067816239234 5.717299696706744 0 -1 1
1863 1 6.758145948501854 13.67416302256729 4.969167358177541 1 -1 0
1925 1 6.750977184194179 10.792525574137054 7.349966015998641 -5 0 0
1291 1 2.9930111751061492 1.0098478473034285 3.2306709569729186 3 -1 1
97 1 8.193163939481433 12.126547095676838 5.505975729014942 -2 1 -2
1639 1 7.4336372515362 12.87570312853587 7.9326838086594975 1 0 0
1530 1 12.332648988961134 2.0124689834909573 0.685851133949319 1 -1 -1
424 1 9.910440038438592 11.792868357000375 9.983668132972067 -3 -1 0
1473 1 25.645290768174952 0.7539802114504583 6.888098172209311 -2 3 1
1233 1 8.390858622368688 9.780621458173899 8.58067397414598 0 -1 1
404 1 11.8671612707025 12.205565341969624 6.786695675136347 2 3 -4
1752 1 15.995886493723482 10.833628642556535 8.443845666712646 -2 0 -1
576 1 17.70579264865189 11.488733449153647 3.487789486239628 0 -3 2
1364 1 16.748864776223048 13.44155105037926 3.063295677810229 1 2 -3
1002 1 12.399997490475506 9.957462790955859 7.4626548739379395 1 -1 4
1780 1 12.891656051885212 13.510353808076946 8.439662026068712 4 -4 -4
1929 1 17.200652707798284 0.45725335459793703 9.080970376702181 0 0 3
264 1 13.95946883301332 11.751255926736544 7.344446142732522 -1 -1 -2
1500 1 13.103413792005366 10.677085352561345 5.237100290921756 -1 1 4
742 1 18.010014029316633 11.271163506114862 5.728425876212212 1 3 -1
238 1 23.37012654695591 2.088303600432261 0.9413654229559608 2 1 0
1591 1 17.482777449455966 8.91326769567257 6.289252430441834 2 3 -1
329 1 16.82165653579981 13.794463459464748 9.719619162561763 1 2 3
1181 1 16.967367437499654 9.406771292528521 10.013991727242813 0 -1 -3
1036 1 17.298503219473034 12.712259637364186 7.527265213936521 3 -3 -2
403 1 15.59346551633401 10.801437215795406 5.951431647504109 0 5 0
1197 1 15.288893861266581 13.806805779047043 6.918161169987508 -1 0 -1
1672 1 17.592167260933785 2.728901513965245 12.19908567637888 -2 -1 1
505 1 21.414705572828225 13.482300781403433 7.880012357759744 3 -2 1
1222 1 21.975353035821637 9.264630860486614 6.442064607349802 -1 2 0
394 1 21.571068506894783 13.168924197793059 5.5501451242361135 0 1 -2
1177 1 11.160253351198262 13.500052567525872 10.090262898816404 3 3 -3
599 1 20.102648020217135 12.132083230138909 7.356841262412589 3 3 2
781 1 19.606845480076565 9.995715413137738 6.291773808019916 0 2 3
1221 1 21.436427239912668 11.145691044891914 5.621257996240191 -1 -1 0
1062 1 19.647997046476537 12.104673188267313 10.133152829310793 1 3 0
487 1 8.587023136807947 13.231329992852356 3.5728562575781724 2 2 1
1748 1 23.655195493628796 10.565375518950287 5.5947300823609565 1 -1 -2
1283 1 25.25448310766464 11.909736013411413 7.080444971615056 1 1 -4
655 1 26.887918006497358 12.940654226851498 6.124051457562829 1 -2 2
596 1 26.521714347247737 10.299328802610754 10.63589439680706 0 2 0
1288 1 24.94525153852952 11.662187635168742 9.415231637483144 0 1 0
2028 1 23.728982169646688 12.816715491248354 5.6762120482424185 0 -2 0
778 1 2.8328083363681484 5.604205612582292 0.8907986242818391 1 3 1
1271 1 7.332115333769699 13.255769283968649 0.9017933467797344 -2 -2 1
1096 1 2.013169536033483 2.814325057727802 13.176475096775436 -3 -1 -1
678 1 18.35137724170664 1.0598591105236466 13.250550492935675 -2 3 0
1105 1 27.709787055122877 2.014239088293533 12.681986482323287 1 0 0
139 1 14.846993271693233 12.37223782992249 9.504188349470711 -2 2 0
1819 1 1.4834343157422583 0.5993180574317764 12.598981611675672 1 0 -2
1497 1 4.3992430069447295 2.4276195602502373 7.336740944437794 1 1 4
1904 1 22.770300185889308 1.48965925036948 3.1917704303713337 -2 0 3
578 1 7.994537765208321 1.31188582559013 10.668322891412107 2 1 -1
512 1 5.685654493469663 2.4681323725398165 11.141444726947077 3 2 0
664 1 6.0140515224375415 3.040157937705987 13.832546009162803 -1 1 -4
695 1 6.839637499298048 1.1916371902253475 12.988416365411464 -4 -2 2
792 1 12.267860025391482 13.117878702531101 2.080967991263221 -1 -1 1
1244 1 4.008491349557644 1.3397756662729012 12.16635894449335 -2 2 -2
743 1 11.190551635563777 0.9198724138808342 13.528172684914514 -1 1 1
2 1 10.476819522212876 3.7773024038985787 12.526300653446345 -2 -1 0
1269 1 9.099313264803609 2.9587222705420033 10.120943207911639 -3 5 -3
1868 1 10.327801684198898 1.5273284855915426 11.310781850823727 0 3 1
1859 1 12.188963024098966 0.4412807261723688 10.536385966385495 0 1 1
811 1 8.0989046424426 3.1518007027096733 12.070885900772833 -1 -2 -2
515 1 9.137928029902133 0.5511024158301283 13.196502985672511 -1 0 1
1219 1 0.8810148094186928 11.853083266002846 13.758585655486108 2 2 -2
877 1 27.691653273156458 1.7871137658074225 6.88981384500015 0 1 0
1035 1 2.539369354458274 7.038415055333429 13.854581712701497 1 0 -2
1435 1 14.43414326583472 3.5524183423240476 10.231012221521814 2 -3 1
1519 1 12.790395108576242 1.4131684607141985 12.765830532780292 -3 -3 -1
1947 1 15.77386981424762 4.106907761386712 12.387069358136007 -1 2 2
637 1 10.581811224749172 6.966585040131802 10.688953293397825 -2 5 -2
1113 1 14.722505054159114 2.2327081794749106 11.862399649452463 0 5 0
1755 1 12.621989185769579 3.514903326430351 12.451059172471611 -1 2 -2
2032 1 4.513262101331485 10.171455939069943 13.129988945570284 -1 -1 1
26 1 19.339295387161226 3.4857679969176 11.387371580231518 3 -1 0
1588 1 18.641824145140383 1.1999939711247807 10.86945955937009 -2 1 3
40 1 17.776921450494005 5.266093473319187 13.161745270715402 -2 3 -1
1729 1 22.245240422731502 2.63002690882154 10.65772530752713 0 4 -1
1322 1 13.138615258041568 11.86510445312064 10.982516202835916 -3 0 -1
1153 1 7.9662349870145075 4.580068204715298 14.142962736074276 1 3 -1
2018 1 20.641303883501678 1.6528086418003927 9.904571499376514 -3 1 -2
1589 1 24.01399336379359 5.026098806456152 9.46530638059749 1 -2 1
1595 1 3.4265586159531853 10.92274411589149 0.610602780041072 1 0 -1
1306 1 22.895989391578425 2.800934237481923 12.66637845689523 -1 1 -3
521 1 20.72744721491308 3.8125709456785724 8.500565093423143 -2 -1 0
1991 1 25.56527593228835 4.132853903962543 12.122123406159778 -2 5 4
993 1 26.963238496895208 4.812773964945017 13.545802232325377 -4 1 1
1896 1 25.501993209507628 2.1104818493092585 12.337672660932746 3 3 0
101 1 5.7723928214014695 10.315961885011308 1.5964368524842698 -2 1 -2
660 1 27.280925861620457 2.1918164791581853 10.67593696969316 0 -1 -3
800 1 26.14768850099098 4.241794278056435 9.783388415230661 -2 -1 0
972 1 23.935981108352387 1.1378438347672284 10.517249850170007 -3 -2 1
1350 1 23.146390380689333 5.336505721755672 11.563837014037741 0 1 2
1128 1 24.190555624940313 3.095475959286349 10.57430391752077 -1 2 0
923 1 18.681946017868434 13.710298158438045 4.541737061412174 -2 -4 -1
1073 1 27.772693146098835 4.313796536137369 11.619115373966661 -3 1 -1
688 1 1.3843368844944604 5.396194425148875 12.998174160484755 -4 3 1
852 1 23.5737888450348 1.4230462270265332 7.524794047245659 -3 -4 0
546 1 1.19634940898962 8.284064205556497 12.579837602141211 2 0 -1
1679 1 4.612521054675866 7.268320857896523 12.149563942841917 -1 0 -1
1718 1 21.85197034205389 14.161886207298503 3.3199904553214132 -3 0 0
308 1 3.102977762969484 8.671457813372388 12.254752761912274 0 3 -2
109 1 3.137250125143637 10.890482938085556 9.164796047485991 1 2 0
1647 1 19.2880093796399 3.6413708986369464 13.689898706746646 0 0 1
841 1 15.469535422843956 0.36309872192628095 3.484874505627363 0 4 0
1340 1 7.349051887644356 7.775399999046638 11.233402946220808 0 1 1
1901 1 3.8448201358408336 3.2863018794600385 12.225004971180095 0 1 1
1501 1 6.261657258278707 4.8926433455191916 12.604311789264289 0 1 1
1313 1 4.627379005692248 3.793042441084355 9.418868774792815 1 2 3
866 1 7.183514416798721 10.141889643494705 10.645683911618232 1 2 3
1276 1 5.125670053189849 9.282165081824228 11.113039906398935 3 5 2
1148 1 2.4627796997262017 6.84252071496824 11.046565549040748 0 -1 -2
379 1 5.7508641792975626 13.883553420730834 7.1355974890970355 1 0 0
1876 1 10.107966402635384 5.475192055340086 8.692615072085907 -1 -1 1
1404 1 9.18333488419836 6.547027269874841 12.277446851036123 -2 -1 -3
946 1 6.574220083446678 4.162755808506766 10.322356479763407 2 0 -1
1248 1 9.347560775715683 4.896422630514269 10.974072823841041 3 -1 -3
2000 1 0.6627661811201719 13.900915594133222 2.1963037517574953 -1 0 4
420 1 11.104855760962602 8.013408496903272 12.707309199539578 -2 1 1
203 1 11.383342535900628 7.565736408206452 9.035136368918005 0 3 -1
1523 1 8.713127492364093 8.628926144492487 13.303390961492404 0 2 0
1211 1 15.729798808396916 5.674863771425091 10.00190539885184 -3 0 1
2030 1 13.574726867167197 5.873768238579 11.415459815894643 2 0 -2
1034 1 13.540156323523512 7.63324006699493 12.775783348445348 1 2 -2
1051 1 12.683722785125422 9.329050797670533 11.632013855288129 0 1 -3
1795 1 12.82944740147712 7.517361584732938 10.510794171109433 0 1 1
1608 1 14.901551303397245 8.270955913556298 11.101463470587515 1 0 0
769 1 19.99561538777588 4.243959931088122 0.7480131558444316 1 2 1
1160 1 16.42024721668472 9.213569216104482 12.773561735310548 1 3 2
1528 1 15.567307242482052 6.417955795009307 12.178575623718087 1 0 -5
598 1 17.56895568749757 6.759148551887399 10.864114805310312 0 2 -1
1839 1 17.32777706100432 11.572123980798102 1.2048606982207686 -2 1 2
1302 1 19.306481117755805 9.738406010604844 9.583012866375322 0 0 2
12 1 18.6599203773156 8.932392014194892 11.905800901179976 -3 1 1
507 1 19.627360458194534 6.58142564739964 11.87170060318824 -1 1 0
1924 1 17.305813924020264 7.42899827173131 13.212267213295542 3 2 -3