LAMMPS data file via write_data, version 29 Oct 2020, timestep = 300000

2048 atoms
1 atom types

0.3042338380215881 28.047766161978103 xlo xhi
0.3042338380215881 28.047766161978103 ylo yhi
0.3042338380215881 28.047766161978103 zlo zhi

Masses

1 58.933

Atoms # atomic

1406 1 5.108939095739668 6.847754235015352 2.105465146381063 0 0 -1
1654 1 3.65795576728755 5.034877433144512 2.197906173082595 2 0 -2
1138 1 2.0002929592558356 6.690760378290396 2.2478954686928105 1 0 1
653 1 4.4310210421599745 5.087747203688535 4.0732158459730865 -1 -2 0
659 1 1.361916782353816 3.0477135924792633 0.5158462739701224 1 0 0
334 1 4.967206556931124 3.5743832749510642 12.558204927648902 -1 1 0
952 1 17.899835762278098 8.759058464714988 1.0129411003769997 -2 -1 0
1313 1 4.139102118208562 2.8828188334767066 2.146788767275821 1 1 3
817 1 2.6933535647790583 1.1443517543648494 1.2030309598720486 1 1 0
742 1 5.918422015212141 3.2026693069727763 4.577280962139052 2 3 0
535 1 5.096834381037783 1.3133543120351214 2.9990320619794457 4 0 0
1859 1 7.822997887914117 1.320432557285861 2.906461223223757 1 1 1
1190 1 7.713367715159092 3.7422810057751494 3.0902200874041794 -1 -1 -1
1288 1 8.357633531616912 3.9555889841959773 5.289474567674862 1 2 -1
1033 1 21.19945495100134 1.7649491591271949 2.8143094895620577 -2 1 2
1536 1 6.515218867575964 2.2727652456701994 1.6046491348755476 2 1 0
1211 1 24.41560107701789 2.401774892913213 1.3398630265612275 -1 1 0
1230 1 3.351408249456887 10.579172853064636 1.5462618872009235 1 0 -1
318 1 11.07393488161335 3.7145305174993033 5.788174973546639 1 1 0
332 1 12.87291116234456 4.466105668465283 2.6555149372190345 -3 -1 2
92 1 13.202468208239683 3.606472598243395 5.626777235138703 0 3 2
1363 1 10.369041064380433 2.7854063565126577 1.8254621053012092 1 2 -1
249 1 23.438887260578078 13.829912810255673 13.396376255521858 -1 0 -1
1550 1 11.15944614166576 3.7641490522081145 3.805813343870134 1 1 -1
1437 1 9.222393735611153 2.2755749988110487 4.1406234960993284 1 1 2
1420 1 12.380247105290062 2.2978757309481628 2.960364564323163 -1 -1 3
1071 1 21.66712368410137 6.556450854323171 0.7610985574245196 2 0 0
883 1 14.667575594788255 5.947342668943657 2.368576954517643 1 0 0
549 1 17.183875823662493 5.54942619772311 2.5154714337186523 -2 0 3
1495 1 12.67969940062853 2.7095065212326364 0.4033067259708239 2 1 0
159 1 16.64630244016767 2.979031080547621 2.783681443911099 1 1 -2
1658 1 14.999954145148733 4.374009362692673 3.9701373156999673 -2 1 2
1065 1 7.313153400845797 13.452545471622477 0.9844451476539934 0 -1 1
1402 1 6.576481307852327 0.4387789225478359 6.763851341487537 1 0 0
1598 1 18.32581670578788 3.3188584279292104 1.038327038412652 0 1 0
722 1 18.088424854391448 3.2772070516413865 4.4565294012007595 0 -1 0
682 1 8.909147897184138 9.457734634525814 1.7687040899411153 -1 1 1
2036 1 21.093015062334256 3.3298548841263043 1.6748867096244484 1 2 0
2044 1 19.130941895780055 1.964961253625799 2.9841729203190566 -2 0 1
1683 1 7.939499143303847 1.1875007860998092 10.849059719172134 2 0 -1
325 1 1.2655772591544607 10.787680478713149 2.002233365433349 3 -1 -2
1368 1 25.090636987999215 2.4436029982243235 5.681714186540677 -1 0 -1
668 1 20.12995648821472 2.672594448509317 4.926050100929652 0 0 0
1701 1 20.874873249015774 3.7935038657009694 7.307991856608932 -2 0 -1
1026 1 22.216537971308554 12.623630284141802 9.526616745465784 0 -1 0
1264 1 16.417862078368003 1.1804582218117103 4.011497096930666 1 2 -1
1369 1 17.99207230834114 0.42458196366677425 1.850707962550586 -2 2 -1
443 1 23.694659384141964 7.054294721078313 0.5827098034719973 -1 -1 -1
1668 1 24.273504803069066 1.9296283122430362 3.3458342047397718 0 0 0
1778 1 21.360857576111346 4.4154735709633 4.6727802200185895 -1 0 -2
217 1 23.360401473945387 3.278773181267875 13.607399302793858 -1 0 0
1951 1 23.15080774953372 12.8396866540003 0.3249507901221591 -1 1 1
2021 1 25.969619588098322 3.5115085169278353 2.7484366536377856 -2 0 2
1150 1 23.33324054321007 10.412648263510825 12.453934507757333 1 3 0
1125 1 26.451793041537492 1.2035837289218025 3.44611823673276 -2 2 0
2007 1 21.618103246059153 10.007074072212776 13.798269569224823 2 1 0
257 1 27.215381848710937 4.992528159767413 1.1847510870385942 -1 0 1
519 1 1.80746741826851 3.4598345587460213 2.5898016920604188 1 -1 2
1296 1 18.008803320588743 1.566662548444311 6.058121483162042 -2 0 -1
420 1 2.0120517951535453 5.035773396154892 0.7358429322784719 -2 0 0
369 1 22.538544408236575 13.46794125857614 7.314121574671672 0 0 -1
216 1 3.545531747025683 7.274762643468177 3.652492434984082 1 3 2
166 1 1.5746195936364864 8.598374956531403 0.7262961953741298 -3 0 -2
1447 1 0.7287111634787566 1.6413509798306145 10.360114935072122 1 0 1
10 1 2.1541869542532623 9.067128238458636 2.7277282833479353 3 -1 1
192 1 27.76702532709155 8.442411033860832 2.3187537812526853 1 0 0
1268 1 4.929877380577083 8.955804628477278 2.7039631166730653 2 0 2
1934 1 8.07195017752278 6.000388367311432 3.775936618192246 0 0 0
406 1 7.7260520144626845 9.244680320673917 3.993987176807196 1 -1 0
1896 1 22.112674410723677 5.596773910036623 13.87868753221219 1 3 1
477 1 6.491174445545902 5.531823797831438 3.045099890161608 1 -1 0
524 1 6.99935034253509 9.993035503316673 2.387512427264187 2 0 3
1837 1 5.627721796594993 10.11893798013439 4.413209770602424 2 1 1
1029 1 5.744711579222824 7.7425742041545575 4.42800264343851 0 2 -2
1318 1 9.875185226990707 5.419316145526663 4.738169052098521 2 0 1
307 1 9.364001633954546 7.586624898880506 2.7730336647310576 0 0 -1
417 1 10.236538877446474 9.707614750191995 3.8834144345829675 0 0 1
1039 1 11.347774298927618 9.053995585190135 1.8816697663442274 -2 2 -1
568 1 9.360031272969499 8.03524959779747 4.9138129412811224 1 2 0
1969 1 11.23865939791494 7.759410665699633 3.765653942609492 1 2 0
1830 1 12.201736406198302 11.72471447734429 4.560338427040455 -1 1 1
213 1 7.505441018208938 12.562971168224015 13.569394636151364 1 3 -1
1918 1 2.603006003533778 13.985781772665243 9.716015482321568 1 2 0
31 1 13.354377631418062 7.852947659697846 2.2838457726080357 2 -1 -1
645 1 9.626407002094691 5.217460872618076 2.546001628202639 -2 1 -1
652 1 7.814055401204537 0.41169690216049304 13.042281158356497 0 -1 1
1913 1 13.82559052735902 4.7764315413925384 0.6029841777932252 0 3 2
918 1 16.93049814181738 5.507680801860356 5.420194631548131 0 -1 2
1525 1 11.529450125260855 11.388295361250885 2.692878733115008 1 0 -2
1101 1 16.48755089358106 10.547750887487478 5.875999620955388 -1 0 1
259 1 15.142027516969003 9.254167961170118 2.890521683352082 -2 -1 1
1307 1 15.920569397023156 7.29109994652657 3.1348794391501853 -1 -1 1
1817 1 14.28764123663414 11.10476380952005 2.1048132704949207 1 -1 1
1875 1 14.353409356220634 2.7765773761290746 2.317779527888708 -1 1 -1
234 1 19.15894099947481 5.0112698222543255 3.246349302754756 1 1 3
1733 1 19.06349648941953 8.55724550951722 5.9957233748506145 1 1 1
556 1 17.99141839263603 7.216307314104944 4.258965326719144 0 1 0
1545 1 15.948086597576877 4.196502138174333 0.8338606691622601 -1 0 0
1718 1 18.654346912665808 6.640063259746112 1.9698842022522587 0 1 1
327 1 3.1086465606446723 0.5642005588048176 3.5192165266764017 -1 1 0
694 1 17.3793186913454 9.298846996020174 2.927279285666765 1 0 1
140 1 17.568750062620996 13.040480746763091 10.929770164014606 0 -1 3
1236 1 21.273698689939945 5.635409174002543 2.8430394144960203 1 0 1
1776 1 1.447397733403885 13.12298850357296 13.436654838529707 1 -1 1
1504 1 21.648497191485095 8.094027197247174 2.8103219840728713 1 2 1
77 1 23.46647983569426 4.05747491301921 3.3353803370107893 -1 1 1
670 1 20.344106910372357 6.952296352467446 4.785379784072325 0 -1 -1
54 1 24.8139192728479 6.742673517101635 4.304537376143126 0 0 0
661 1 23.685717863603617 13.883662249467376 3.428287156212175 -2 -1 -1
833 1 20.722961032573412 9.589563507288243 4.549027837330487 1 -2 0
1543 1 26.069927764633963 7.083334454042536 0.6152258230200183 0 0 1
25 1 11.574226893618198 5.683523034927741 13.484788487237585 1 -1 -1
1874 1 8.66160340138807 2.458330194236795 0.5506957874941394 -1 1 2
33 1 25.17437048607857 7.769460297459026 2.2573938669719587 0 1 -2
1824 1 1.3136604204760114 7.620365490001945 4.270593987793433 0 0 2
1670 1 25.071590352976166 5.392622175298335 2.2958866067666612 -2 -2 0
548 1 2.243120611056965 5.498281357757582 4.159165355442188 1 1 2
1604 1 3.5135353585397584 10.541245578168386 3.838305167686899 1 2 0
246 1 24.935041413154767 8.551251743862515 5.71108036243081 1 0 -3
1849 1 26.90419017354599 6.940580882475212 3.761922440412263 -2 2 1
1295 1 27.824234253165557 5.263501360714584 3.2344410857106625 -1 1 0
691 1 27.736150912220776 9.89760597578634 4.5950197519583815 -1 0 1
1297 1 25.83921076141288 9.373015399432116 3.8240025623399934 -3 1 -2
1858 1 3.727614240844523 13.838332107595471 4.411648023297467 1 0 0
689 1 4.913737212974364 11.717351334227004 2.4022099723129244 -1 -1 2
954 1 1.8192649002426986 12.027795681369547 4.3536795946051265 3 -2 0
1358 1 13.356573084604278 1.2097297433752887 13.877897785688322 1 -1 0
1775 1 1.2485714963205752 10.829344458065892 6.260309790975091 0 0 3
1599 1 5.463121582027035 12.184605477278993 4.665633527783179 3 1 1
1270 1 27.49456676514148 12.6018418076462 5.607812081787509 -1 -3 1
157 1 25.52800800856111 10.068643304788468 1.7164392739021208 1 1 -1
896 1 7.580582204265374 11.207121778344419 4.9464044442991115 2 0 0
1062 1 5.672246554724219 9.859569256530081 6.861148637110683 -1 3 2
2014 1 7.086970751780014 12.25569109918905 3.323297597044536 1 0 0
2034 1 9.036895562172084 11.343467449661402 3.048847516266484 1 1 1
1562 1 7.857417870275921 10.452556158783993 13.99358959351143 1 -2 1
1940 1 8.984127441737773 13.333248187343894 4.262598192672648 -1 2 0
1192 1 7.541234299245995 11.522672069192689 7.6034877419828 0 0 2
831 1 5.527004692019408 13.93156446959682 2.5655999849532574 1 -1 2
348 1 22.890165649742965 0.8847256147926759 1.6839952545119572 -2 1 1
431 1 10.002074269841243 11.346919859726361 5.155995500480289 1 -1 2
32 1 11.819023333961894 10.659063731391697 0.7736218154113778 1 1 0
970 1 9.687557253854235 12.851220675267513 1.5715971071545634 0 -1 1
337 1 13.59174872522817 13.216240499207112 3.210635250607738 1 2 0
1165 1 11.25414650762754 13.189795703330748 3.6282984483098084 0 0 0
700 1 15.390447530857678 8.91488551351456 0.6153097123707032 -1 1 2
797 1 3.7692499635316965 0.8851469643693194 8.570321629579901 -2 1 1
1484 1 5.311144315151286 1.3356539059848422 13.578146876286004 0 0 1
1478 1 10.92915537599235 13.301856149828241 6.076466575669613 -1 0 3
650 1 10.447573864492353 0.6683356763831583 2.9846440142282415 0 2 0
158 1 20.987718055559096 12.263791230925676 7.906895423504592 1 2 -2
1311 1 15.70176423817499 12.805480716879456 2.7674801986748676 -1 -1 1
1310 1 22.21585404650006 1.2726968134353616 13.36806945152587 0 1 0
1582 1 7.841119976966554 5.134712428749475 1.2864821176607115 -1 0 -1
164 1 26.67714113712341 0.8170428185021158 7.854042003956703 -1 0 0
1312 1 8.139508263399122 1.3757547220827606 8.553060489154833 1 0 1
101 1 16.421689695147176 11.049611853079945 1.1495083694325803 -3 0 0
1759 1 10.12775988996213 13.11013911648599 13.53597580815805 0 3 -1
1393 1 18.77363727586338 11.488383254522049 1.6471423872129347 1 0 2
1049 1 19.87718412996768 8.527070498398832 2.130840670064736 -2 0 0
1342 1 11.146061186708742 4.717764745075294 0.932311508449388 0 -1 -1
1625 1 23.36823085757437 9.327989318673946 3.6081643547214046 -2 2 -1
1095 1 19.724461985033713 12.4692948826723 10.464701113987122 -2 0 -3
1023 1 21.503969168860966 13.56860903967628 4.003374352156124 -1 1 -1
558 1 16.352788768585352 6.825708653401607 0.7583780383429837 -1 -2 0
749 1 22.274403182212357 12.357179020966164 2.3736868777037343 2 0 1
221 1 13.361649290060749 13.346800534149871 5.431909142385077 -2 -1 -1
374 1 25.074168855934218 11.077433855398121 4.735333612750267 -1 -1 1
577 1 23.79104594581037 0.8524152008517464 10.357054887428022 0 -2 -2
1019 1 26.61779471905256 10.171056152775515 6.626586401658675 -1 1 1
1841 1 25.21358290477435 12.010705283056291 7.028384337355566 -1 0 0
631 1 13.677821267153584 0.6370985602454198 1.9367059812376122 -1 1 4
1895 1 6.003561350173762 1.2866654026777113 9.511477035194467 2 0 0
500 1 27.198245387429992 11.669755302089065 3.304438285550347 -1 -1 0
1381 1 26.599764938719872 12.477113306662634 0.9584481998437816 -2 0 0
323 1 24.940638893871007 11.914315426297533 2.71550754881942 -1 -2 0
1084 1 3.2741425293369195 2.6245493197435494 4.271433072879407 1 1 2
608 1 3.466542274212221 4.267824534399287 8.599134075212403 2 -1 -1
581 1 2.2156483244979714 2.7489213058020012 7.359514393163512 2 0 1
1394 1 3.42168225579096 3.924435712974047 5.982642364360461 1 0 -1
818 1 1.3933482146366079 1.7281817579041754 4.780152903071531 2 0 2
1864 1 3.3813274081794757 6.308472484850236 7.900727824482902 1 0 0
2002 1 3.315383643245176 5.006087211662799 10.843882498398932 1 1 1
282 1 8.008087513757316 4.7835552579074045 7.54895339498828 2 1 -1
520 1 6.800614929835856 5.52919353488372 5.462391062156514 0 0 0
587 1 7.339589056295741 1.9240412370974431 5.155317795182558 1 1 0
774 1 6.738225686729799 2.8475944640483974 6.990112173689255 1 0 0
1280 1 5.611013570307976 4.926943653897708 7.294308095461592 1 1 0
643 1 4.675150517156232 2.0090548262784207 6.20410357351577 -1 0 0
265 1 8.995403952974444 2.573520738200713 6.699080200257119 2 -1 -2
697 1 9.197895848636032 5.893708313431378 8.981266867719604 0 0 1
1811 1 10.857601805794578 1.5155764228606596 5.353880849936761 0 1 0
422 1 16.112330916406243 9.288135156721408 12.322792683598331 0 1 0
1596 1 10.30764056121457 5.127314807658459 7.244555662701843 1 0 1
737 1 12.487882434753445 3.995451974521202 7.7055036540771065 -2 -1 2
1002 1 10.716673770453069 1.4452472326882873 7.979851029347831 2 0 1
1962 1 11.347281116175703 13.756492017808995 9.156319000843157 0 -1 0
40 1 13.012792052945569 1.0387806128064223 5.832625522650135 0 2 -2
522 1 14.400353223433457 2.689100227736542 7.390498391569057 1 -1 -1
288 1 15.525115728518694 1.468357234654169 8.871140279120876 0 2 2
4 1 13.585546083639606 3.659654549525124 10.010001906010382 -1 -1 0
2013 1 14.392996987653955 2.3268691931905674 4.387749675513062 -2 2 1
1090 1 13.586045618604533 5.740241160317249 8.746086374557567 2 2 -1
1255 1 16.344406585642556 3.0023047571866033 5.643435126060141 0 1 0
1645 1 15.455665230934232 13.569735687759785 11.322994518028548 -1 0 0
1224 1 3.5355630745828783 11.897720410942403 5.690059902686822 -2 0 -2
942 1 17.102164146718312 2.397490031054906 7.661454044067954 1 1 0
1080 1 19.743165376506948 1.7881788375860104 7.7246070171643435 -1 1 -1
1398 1 15.318501519933454 3.856396697132889 8.728085676262058 1 1 0
1096 1 16.822655579155573 4.797994942020333 7.214551962263223 -2 1 0
1901 1 23.691525358310795 12.604260278929559 11.225295832361557 0 0 1
904 1 11.661890961215326 0.8818509414157347 0.9823636003866782 0 0 3
503 1 23.183028024060025 6.404824383368521 2.4957645019792536 -2 1 -1
360 1 18.928141189681895 13.396095312334953 4.663783242396866 0 0 1
1226 1 21.61972636604899 1.8035599698588842 6.747669642752853 -1 0 0
1902 1 23.05126882660667 2.6634062137181003 5.430689676609734 -2 0 -2
977 1 22.84580727901396 3.7097054555626836 7.215276886734934 -2 -1 1
1553 1 23.35491526758417 5.151138006682491 5.3635621878988085 0 -1 2
2020 1 0.8550924289580925 2.9721921126892963 8.831965270430047 2 -1 3
1713 1 3.0221203942243107 12.41733522997839 2.6110032445415583 0 1 0
998 1 26.90973366210805 3.1369823752225234 4.391348454012096 -1 1 -1
625 1 25.517781696054218 6.106636804948439 6.293420496921508 -1 1 0
1129 1 28.019296775371817 1.8998855658928366 6.620523720792937 -2 1 -1
2011 1 1.4327177660977126 3.8046482102174464 5.453742860374545 1 1 0
803 1 27.007592670488073 3.834062595547207 6.891795397183578 0 1 0
1867 1 1.560729571801699 4.945842267411294 7.155507741807349 1 1 -1
1570 1 4.295516874731268 6.189927888345652 5.740701476646497 -1 -1 1
950 1 1.7903317772235787 6.556286354167495 5.970651812482137 1 0 0
1531 1 1.4485637038812988 6.456226325155122 9.156173818854993 0 0 -2
1783 1 0.9143199760256964 8.561436604462337 6.642074911317366 -1 2 -1
262 1 0.5191640033249566 8.340574067424365 8.826505139627663 0 0 -2
407 1 2.415642363014331 8.460775970268665 7.946194366375248 -1 0 0
263 1 3.125301441514411 8.729524046541552 5.451577028078984 0 0 -1
1043 1 2.437586196134511 9.603706547500662 9.889614617095718 1 0 1
1923 1 5.28194158206944 6.068369515822769 9.094753233590069 2 -1 0
589 1 3.2357339104337104 7.401680964378515 9.891707414555714 1 3 2
134 1 9.054330111730037 6.617007278097714 6.799196086555008 -1 -2 -1
989 1 5.017007166694643 7.429584433388222 7.237479953106997 0 -2 2
1113 1 9.219130977313748 10.128996358888 6.813656353235837 0 4 0
313 1 5.71770860271404 8.129513738495357 9.44430666424506 2 2 -2
1666 1 7.111583115515975 6.843845090164324 7.98490987491201 1 0 1
637 1 4.6478981481168065 8.289211442292327 11.170715606682148 0 2 0
839 1 7.252176975280265 5.590582974833835 10.093360863106822 0 0 1
773 1 9.989850973607242 8.581788495533878 10.272951852228902 0 1 1
94 1 9.799826519228944 8.20241939074131 8.001476897600345 1 0 -1
1871 1 11.160569314470056 6.950818416810365 5.930560858086219 0 1 -1
1431 1 12.698003581842439 9.891836651399313 3.446864554005833 2 1 1
1114 1 12.528044453888391 5.830401058587887 7.077703798931289 -1 -1 1
78 1 11.67674034274287 8.849651277015605 8.038659625793002 1 0 1
1128 1 13.690172938508853 9.896261079106992 8.058135092263853 0 3 1
562 1 11.441099512072968 9.278802733444095 5.622505492666297 -1 1 0
1133 1 11.408659280947901 10.880205525005248 10.14188698085093 2 1 1
310 1 10.262903109631521 6.329868378026529 11.252209276597373 -2 0 1
1238 1 12.611139627627582 5.543929314107126 4.618153019653912 0 -1 2
502 1 14.084069101793485 8.163617872936182 4.634666216356071 0 -1 0
982 1 14.841423369171755 9.659102694104735 10.360149006605587 1 -1 0
1105 1 13.212719260658803 8.101832540182315 6.562369905051506 0 2 0
1938 1 15.671810727407038 8.79295729250385 6.817295454264828 -1 0 2
1396 1 15.076941307121933 6.2349039581161225 5.166558185323793 1 2 -1
44 1 16.151614171229966 7.942564457188641 8.7105463998925 -1 2 -2
1155 1 13.752006931897256 7.856356901247218 8.418315505496322 0 -2 2
755 1 16.282609672827988 8.45885248333711 4.80724270370103 0 2 1
222 1 15.01810242132415 4.365996222030184 6.152323598437352 -1 0 0
82 1 17.27738618658994 7.379400710517706 6.637731805848019 0 -2 0
102 1 17.58337442053317 6.208543979421942 8.767255869892228 -1 0 0
504 1 19.065517805071988 6.5032125577133435 7.005937928501876 -1 0 -1
382 1 18.131173896358508 5.103964152831018 10.728373842477833 0 -1 1
1606 1 20.838927487719644 8.035891401702536 6.734207664731785 -2 1 -2
109 1 18.743981651477363 3.8898291090152823 7.838487764987721 0 0 -1
171 1 17.384402417080974 3.1680394949370747 9.684425614492104 0 1 0
1960 1 22.91815879784794 7.410703859409725 4.406533363090311 -2 0 1
1469 1 19.435966157225145 5.001891938464527 5.504665295330473 1 3 0
1411 1 21.446870720852058 5.647494731411192 6.590603174809912 -2 1 -1
825 1 25.449579961175854 4.601824863011517 4.824328522102606 2 -3 1
1888 1 23.223623315215164 7.305557408185258 7.247777877883905 0 -1 0
68 1 22.528436479486388 9.530124151230542 6.0793062058027685 0 -1 -3
1857 1 22.73093925352792 5.3652989011380186 8.43872339639455 0 0 0
1842 1 21.0594866407971 7.0151659247389615 9.101867615035525 -1 1 2
100 1 25.341220692640814 6.102257234442001 8.649019258204383 1 1 -1
1853 1 26.841585114712704 7.900487554096862 5.450733504092917 0 0 1
563 1 27.573824921901245 6.233599844555403 7.684415046957045 -2 1 0
1806 1 27.622220361584084 5.592352089248609 5.492867483800627 0 2 -1
787 1 24.484399023714772 8.050242392943876 9.663490215716497 0 -1 2
1626 1 24.622397405892272 9.639290314895804 7.987005527031386 1 0 0
994 1 27.393518974236134 4.753805198437258 9.209416779469006 -1 1 0
1188 1 26.24194275527899 8.169390442048025 7.72564693654672 0 2 -3
402 1 26.500616485962162 10.059346595042886 8.840753066772981 0 1 0
2045 1 21.913950781545033 7.906449566465482 12.920581386711886 -1 1 1
865 1 17.073824948806053 10.794407014200127 13.869675003574 -1 0 0
1193 1 0.7879585972942087 10.740749656857604 8.916365094150526 2 1 0
1675 1 3.3519987958012383 10.360470443574691 7.06842376614457 1 -1 -1
1903 1 27.72010260067787 12.277029786733575 7.540714115327564 1 -1 1
586 1 3.25827335915997 11.42288071083854 8.854900158028483 -1 1 0
1126 1 26.19752912500281 12.788887323078583 8.644026152185235 -1 0 0
842 1 18.2366679508706 11.185415586350018 12.33462977822386 0 -1 0
226 1 20.429985323127664 1.1698589296838557 0.6779794195133286 0 0 -1
1905 1 4.5883044529485595 13.353263476644772 9.01890231330948 2 1 1
1856 1 25.192285990099748 11.531495621875631 12.598228565342623 -2 0 -1
1025 1 7.123778252284015 13.072279543886802 5.524033532405679 1 1 -1
85 1 5.824880061684638 11.329440017184988 9.085223840121872 1 -2 1
1999 1 2.0998227050474414 13.070115682096734 7.289216879011943 2 1 2
1354 1 5.829927492976051 12.392698533230025 6.810121477507758 0 0 1
647 1 4.29855815648494 9.401761603214734 8.649930681105944 -1 -2 -1
800 1 7.797531642031493 9.261633982126005 8.269040466828994 1 -2 0
1349 1 9.041941768274839 12.776130488655403 7.003477589033085 -1 -1 1
674 1 26.952355281868225 1.9989684046955953 1.3474164020174106 -2 1 1
306 1 7.439426548060711 8.286419507200002 6.0992849371103945 1 1 -1
1692 1 25.64898499479965 10.614965424266298 10.93252148989783 0 0 0
929 1 6.761053863568541 13.62339333460171 9.056091205525572 1 0 1
1518 1 9.45861732873684 10.719390254348996 8.992012849933886 0 1 -2
387 1 10.846484676103435 11.66158117283259 8.102060352350453 -2 0 0
1067 1 9.860319321647367 13.068832447927075 11.496825840147107 0 0 0
995 1 23.38144422850717 10.582707720033056 1.5271481205402553 -1 0 2
1458 1 17.313127989943222 11.80734816814198 7.25054893374747 -1 2 1
1952 1 14.737874343865327 11.44940921587007 4.291869000934812 1 0 -1
1400 1 12.2066467040498 11.303724725235933 6.492937840589622 1 -1 -1
775 1 14.98857552994046 12.412470415749135 6.569913574019537 -1 1 1
609 1 12.641377635873454 13.473078095527537 7.528407536212096 2 -1 0
23 1 13.680680506033786 10.140896693168585 5.353180146729073 1 1 0
1256 1 12.993052547440367 11.878966936124161 8.609284281858208 -1 -1 -1
1564 1 27.657058264140808 10.104339569937677 0.3169244471295297 1 0 1
478 1 15.717176119284172 10.468161173600505 8.256681489712939 1 -1 0
1780 1 1.134683044006855 1.1251023937459288 2.792458969597908 4 -1 -1
1712 1 18.406408140926317 10.519550179010958 4.6968643570710835 1 1 1
724 1 18.613197573082324 12.71455015599523 8.89512613729581 -1 -2 0
364 1 17.5706805713316 9.673469788188719 8.189494017739289 -2 1 0
1727 1 18.82620044137563 9.853183204528877 10.267362199084547 1 -1 2
80 1 19.272790551028432 11.384282279225351 6.493302299447718 -1 -2 1
448 1 20.70025756898882 10.357464029138683 7.249291482978683 0 -2 0
922 1 16.737936496945093 11.16172035354452 3.3503110613432567 0 -2 0
794 1 26.21532626068183 7.922305615848329 13.966026982410465 -1 2 -1
153 1 19.89151520474317 11.801853435069082 3.509366048109371 0 -1 1
576 1 22.475363900069066 11.016928663620964 4.1575142567295735 1 -2 1
1702 1 22.961539586175657 11.173901345296558 7.6398767928207745 -1 0 0
1603 1 20.918575766058215 11.73658993829864 5.456900718243636 0 -1 0
146 1 20.835309608485804 10.637956147694872 9.47778963287992 1 -2 -1
1915 1 23.341023892872386 12.747803378935716 5.450278545099282 -1 0 0
1722 1 7.544175380603701 4.741223841621386 13.807284273059377 0 2 0
170 1 24.133032548024264 13.532876340789825 8.909254301976299 2 -2 0
491 1 24.290751762099003 11.228615299375532 9.354391105262703 -2 1 0
1669 1 22.02322911588308 8.858145759120625 8.644293811152139 -1 0 -2
974 1 11.697989817859803 12.248335243590104 11.999823965487991 0 0 1
1266 1 13.37202950161146 9.402278757443213 0.9181764059552893 0 -1 -1
426 1 1.4294971518601278 1.2895633090541496 12.390896405701932 1 2 -1
1449 1 3.0699456812670207 2.415912144700147 10.121482934140138 -1 0 1
985 1 1.920586342573982 5.984271744881318 13.420519872321705 0 -1 1
299 1 5.265013243976844 4.113363953709365 10.118166460669316 0 1 -1
1187 1 27.211172820779588 3.216813558216125 11.328480076994463 0 0 1
297 1 4.14954429814239 5.986162815544495 13.064910357142477 0 -2 0
1005 1 1.0174435976870022 4.729487573726019 10.664489645605002 -1 0 2
1418 1 25.603420427072816 13.759569224467032 4.776968990081315 -2 0 1
138 1 21.112795068540155 10.378819237585397 2.0821967206325387 1 0 1
1229 1 3.733432264256459 1.7776040894488556 12.237606121854846 -1 1 -1
1736 1 7.815379165636295 3.4383723895113714 9.392277336442268 1 2 2
945 1 2.4731000387664634 3.6695636103196545 12.551452563633543 3 1 -1
283 1 6.788992499852992 4.417192567202594 12.015775746265597 0 -2 1
539 1 10.628529707879045 2.389871678265868 10.721538708643154 2 -1 -2
183 1 6.301370119484679 2.079105191183079 11.800999277341228 1 -1 -1
123 1 9.387671631296001 4.446082110553263 11.15887052051377 -2 0 0
789 1 1.6778231490462805 0.827727330522469 8.25294518419328 -2 0 -1
273 1 17.021838038814547 8.07992201835686 13.818630318108974 0 1 0
567 1 20.355762920753023 13.912317583889104 2.140148866719811 1 1 0
1751 1 9.964791708457403 3.5260260117270095 8.609620832069492 0 1 1
22 1 11.992157695492622 2.4335441070537396 9.07186835929104 1 1 -1
1217 1 16.830183096168057 0.453798475125307 10.10646754876279 1 0 0
218 1 8.395967938735756 2.8332161772702924 11.928957955326773 0 -1 0
891 1 11.345557763463065 4.4650372976445105 9.672138860143084 -1 -1 -1
1194 1 11.207483161932542 4.313478896850425 11.98811306034897 -1 1 -1
1798 1 15.750749896784487 11.39717381589639 11.881264004901983 -2 1 -1
1637 1 11.860760174954171 2.1696770101866973 12.545737134245313 0 2 1
888 1 13.115807236710825 13.79888601065843 10.750603510200985 -1 0 0
1578 1 13.499161862781978 1.4251650829264793 10.826572595001272 1 0 -2
239 1 13.8528029726432 3.359974558135996 12.06566747095838 0 1 -2
275 1 3.583966017859354 12.67583809960363 0.4961461270624329 -1 -1 0
529 1 19.7123972326715 9.825794532054077 0.37543453833906315 0 -2 0
336 1 15.392117486178682 2.656491821311512 13.026825901581404 2 -1 0
864 1 17.368759041881862 14.140633878978935 6.862001057833596 -1 1 2
511 1 1.042267392721855 13.848547352376139 11.522843336458257 0 1 -1
294 1 9.164873627992822 10.628468446292727 11.027135241449999 0 -1 1
843 1 26.70132876003863 1.3471060909852317 12.547457238545519 -1 0 1
871 1 19.5547322466872 2.9117676086632973 9.805341491047114 0 -1 1
1816 1 20.41446990097095 10.466620115701987 11.943270705033248 0 -1 0
1691 1 14.357330408151698 11.938332866542513 10.267725487355161 2 1 -3
1450 1 15.352658016586261 1.8498264319977265 11.17601063887332 -2 0 -2
1527 1 17.922359849212256 2.9172190947488987 12.210848252576216 0 1 2
821 1 19.899697739403237 10.792612091430605 13.950182807906154 0 0 0
1346 1 19.151387079156933 0.408188196693124 10.017112651910804 -1 1 0
53 1 11.983780771011979 11.380512070083793 14.003019218225518 -1 -1 0
1615 1 21.783131231959462 1.6466706895047436 9.015618962435203 1 1 1
936 1 16.900550229837254 11.242666022793793 10.028503587560149 0 0 -1
1735 1 24.448813141954172 1.1351714564141981 8.002878423418625 -1 3 0
399 1 24.239590582860718 1.1650205869742303 12.55327723458985 0 -1 2
935 1 20.053276501370497 5.088943827896849 1.007299802348192 -1 1 -1
1581 1 23.573781982691994 3.2067499302837 9.108639735393242 -1 1 1
1300 1 20.236759045299095 2.8457443189563314 11.61569431277995 2 1 0
934 1 22.639397012530026 2.6902455649703167 11.44361763138919 -1 0 3
38 1 21.035973903534842 3.5620211355252502 14.002296326966649 -1 0 -1
1386 1 21.795999120585126 12.07477006609925 11.527328471170655 0 -1 -1
1087 1 0.825273929001335 13.106550649194103 2.089850666727222 -1 1 1
1679 1 24.921943257692938 3.957693595023003 7.420252523503263 -1 1 0
1180 1 25.005971980100664 2.6555870502213765 10.614067795823827 -1 1 -2
1227 1 27.889376469526734 3.5159112799746346 13.197222197674783 -2 -1 0
1540 1 25.58902763543895 3.2785074573567283 12.77876285598407 0 0 1
90 1 16.561172339116666 12.988057144077274 5.22303317675158 0 0 -2
795 1 20.922787045478138 8.252228423539181 10.933935335294407 0 1 0
1532 1 27.58683444754312 6.170199895581309 13.67360056562751 -1 1 0
1123 1 12.658453228608543 0.5344938908042307 3.6683980395202243 0 1 -1
959 1 13.292335180141672 10.900678079898046 11.690995372193713 1 0 2
1959 1 28.021224883750623 9.954884513681927 11.112468721655036 -2 0 0
1786 1 2.876735530894204 6.80078908202891 11.81352093010852 1 0 -2
1388 1 0.8820422909252177 8.216626785935347 13.620881145519537 1 1 0
1439 1 4.482603512595312 8.06260109384101 13.452959218372255 3 1 -1
1390 1 5.179906314140402 6.158480100799504 11.365877577954167 0 2 0
1524 1 8.002490352838144 7.635762264587003 10.28539716891296 0 -1 0
1719 1 6.827263435654423 10.1505778936708 10.451440099685191 1 -1 1
644 1 4.443789973650248 10.034810099128496 12.939162814410658 -1 1 -1
12 1 12.234330620359954 12.784265065792134 0.7431489883559779 -1 -2 1
633 1 6.6365189351722425 8.781063857683733 11.96883893880334 2 1 -1
198 1 2.2692016718473917 9.21913525389152 12.020508092382197 0 0 -3
872 1 6.951447651749273 6.658342788030085 12.16248147902756 -1 0 1
572 1 23.3306031950965 0.37537080970288983 6.017267568158046 0 1 0
461 1 16.032888273105648 12.887389651143618 8.665442472004571 -3 1 1
840 1 14.29287896169534 5.393124403231151 11.832104621534095 0 1 -2
708 1 12.612174839265693 8.945741955279066 10.204920683833445 0 -2 0
1316 1 19.821966351186056 13.19162178013571 12.789240882516667 -2 1 0
850 1 9.033625842547336 6.127649927443115 13.003341916213056 1 1 2
1242 1 8.949505036460206 8.951315966456907 12.512353415730127 -1 0 0
1083 1 3.5045070883955125 13.99439333766937 11.926849590059133 1 0 -4
358 1 11.307019462800248 6.703480211153394 8.864397434152592 -1 0 1
678 1 16.073231272174073 4.241216533210682 10.856407963571549 -2 1 0
569 1 14.564521899425571 7.202645161068866 13.041607209740075 -1 1 -1
882 1 15.44511716982208 5.978724277235238 9.93091734272916 0 -1 3
901 1 10.80136152020973 7.793672899655211 12.932521249777894 -2 -1 0