LAMMPS data file via write_data, version 29 Oct 2020, timestep = 300000

2048 atoms
1 atom types

0.5241302303370787 27.82786976966245 xlo xhi
0.5241302303370787 27.82786976966245 ylo yhi
0.5241302303370787 27.82786976966245 zlo zhi

Masses

1 58.933

Atoms # atomic

35 1 1.9336644883317822 4.26844923329597 2.116516230310765 0 0 0
130 1 2.147966302678669 2.524521163683111 3.8803876606576777 0 0 0
165 1 3.743508883736144 3.9389351084920903 4.392217480548062 0 0 0
8 1 3.876318998921199 2.601198805324415 2.3186364102956754 0 0 0
4 1 27.683202449721477 2.469343846524704 2.27463843858449 -1 0 0
73 1 7.305312803826195 7.151789098868096 0.7704324400049348 0 0 0
45 1 10.756845781465646 3.7194347031047656 0.9629491456342019 0 0 0
526 1 12.59174631117882 2.249043459390456 13.974627763012212 0 0 0
1031 1 5.330205281396111 14.023920719632613 2.507974649619587 0 0 0
12 1 7.842288883994978 2.389051092519999 2.690167433010054 0 0 0
39 1 5.805758648099011 3.697167014529444 2.3904592006464833 0 0 0
134 1 5.322817750980179 2.351163441497185 4.394100906329379 0 0 0
169 1 7.4597873797141885 4.115096636842087 4.0073129390764155 0 0 0
1291 1 9.306368872456137 13.87337176741581 8.969270644380012 0 0 0
105 1 7.184899088671243 10.657158317168728 0.7292975091205735 0 0 0
1413 1 3.965675560831436 14.09847403540733 10.775306112759344 0 0 0
138 1 9.314734726390624 2.522454559508759 4.512503268346144 0 0 0
16 1 10.441594222956505 2.6241231674230088 2.746960907908989 0 0 0
43 1 9.1746310069152 4.429998164983257 2.7728028243163987 0 0 0
173 1 10.726265145723104 4.034867613068455 4.4368533777865355 0 0 0
47 1 12.248249953895545 3.9286694366704356 2.622190304139319 0 0 0
273 1 14.254502366221196 0.7264089380330742 7.621222166317154 0 0 0
566 1 19.06903780039753 5.6990658780047845 14.133262129001835 0 0 0
131 1 1.9129284844109748 0.5308321473718429 5.980590584819478 0 0 0
1285 1 3.923230402595223 14.051851015229067 7.278330871155035 0 0 0
18 1 15.850615347638394 2.4702836823649044 0.6803459791129357 0 0 0
142 1 12.424509935674667 2.6431360197824385 4.227048549506977 0 0 0
20 1 14.243431120499368 2.2104744223520507 2.3892315987295834 0 0 0
177 1 14.361327389985595 3.887757008385697 4.000420309336847 0 0 0
146 1 16.28616918819185 2.276240278535483 3.8616092982255203 0 0 0
51 1 16.105651977012947 3.7968542200206397 2.1967512636850217 0 0 0
484 1 27.735888716761362 12.511025862309726 12.395100559858196 -1 0 0
15 1 12.246695454572384 0.8256480966486166 2.5712809690920095 0 0 0
31 1 25.925488477664402 0.6238011717803086 2.3515755078847898 0 0 0
137 1 7.253252946351388 0.5542065329719961 4.188375430189886 0 0 0
24 1 17.92883119275525 2.233033645236672 2.0969495347681804 0 0 0
150 1 19.413802111553224 2.291077091271636 4.003937181945221 0 0 0
181 1 17.357630383957108 4.026198573241057 4.177871447613105 0 0 0
55 1 19.741122088971633 4.065538900524276 2.4944673049509056 0 0 0
512 1 24.251651536667165 12.323227167884609 12.873893498743708 0 0 0
1179 1 22.482470819539973 13.844262072771933 5.148506190844241 0 0 0
271 1 12.565231978788876 0.6046138477974345 9.06275171468461 0 0 0
28 1 21.51122169942312 2.490461164879326 2.1816767555895855 0 0 0
59 1 22.93278763121723 4.472307425653408 2.535266293674041 0 0 0
154 1 22.91312819309967 1.8774130801856335 3.909467480424018 0 0 0
185 1 21.196419248108207 3.9714123511013097 4.166204244101186 0 0 0
1305 1 21.155551792189417 13.898668043000807 7.538942432132779 0 0 0
46 1 12.100626671034812 5.698266219990099 1.0589901619841517 0 0 0
161 1 0.5820957307653375 3.9960979131110936 4.042648137402224 0 0 0
32 1 24.246790232368532 2.458982438486436 2.3533373250393104 0 0 0
189 1 24.50711396811366 4.2453310299409885 3.960970521908782 0 0 0
63 1 25.80075087988513 4.279473136322009 2.3866375083884357 0 0 0
158 1 25.937520951810573 2.587508541690145 3.968543865029829 0 0 0
509 1 24.2426521721946 10.754616480019427 10.862809457309671 0 0 0
1039 1 12.478543422540172 14.150398855485161 2.4162604424942447 0 0 0
162 1 2.3685444735147407 5.501843755065636 3.91035951064238 0 0 0
67 1 2.339893041596725 7.258922332204053 2.35731364252411 0 0 0
194 1 2.505855365898175 8.845266195920809 3.9834131496524354 0 0 0
40 1 3.930548329247553 5.446736020933541 2.3588476075259805 0 0 0
197 1 3.9394625805359245 7.339404618479939 4.012299743956708 0 0 0
72 1 4.0671781447714945 8.912099746911434 2.2617635038075234 0 0 0
68 1 0.7373175766503008 8.799394775135674 1.7359461407858061 0 0 0
193 1 0.9175951628922744 7.31950424100292 4.143656985179065 0 0 0
1157 1 3.7458429635974317 14.02103057402519 3.9427119279883844 0 0 0
44 1 7.558710784161859 5.621452143406685 2.5344791976941967 0 0 0
166 1 5.374282213395696 5.389342404088067 3.944118924506389 0 0 0
71 1 5.949093851465176 7.164216741860492 2.393900945112475 0 0 0
76 1 7.249400754811593 8.533996521817482 2.6250826399999454 0 0 0
201 1 7.207174857967473 6.880511806934707 4.312208624623899 0 0 0
198 1 5.5099862260274035 8.903570935739731 3.7531467663154943 0 0 0
204 1 7.310114738133219 8.897746583313644 5.630469321211029 0 0 0
6 1 5.430871591151992 2.3183741846837154 0.7335856153585456 0 0 0
1433 1 21.292102931394325 14.14673391670769 11.307965276734286 0 0 0
129 1 27.64716279330923 0.6191016925575568 3.9721987519451187 -1 0 0
170 1 9.145529824713384 5.332255818480117 4.828128849085515 0 0 0
48 1 10.828657066531543 5.677037520135849 2.909635980598339 0 0 0
75 1 9.06796074108648 7.07434763487077 2.485989585519842 0 0 0
205 1 10.83011224825888 7.314824461051856 4.216946827063611 0 0 0
202 1 8.947830182164425 8.651588325424148 4.362785595581469 0 0 0
80 1 10.526089183904318 8.785955815021039 2.6363904338118105 0 0 0
174 1 13.08352873265659 5.91841722874956 3.7930330899492937 0 0 0
3 1 2.042946253708217 0.7053967422471065 2.3192213775991943 0 0 0
53 1 18.027628306311815 4.10396270721734 0.834144946097714 0 0 0
206 1 12.653432115491933 9.111696807145837 4.27440253261272 0 0 0
79 1 12.335020949789662 7.55846442757859 2.164266068855248 0 0 0
52 1 14.396339148870322 5.6819949305922375 2.1295812641946457 0 0 0
209 1 14.59663887840147 7.716719001712099 3.873437968594793 0 0 0
210 1 16.098938184673592 9.136645931212632 3.6741886051813073 0 0 0
84 1 14.265982964505072 9.024210241700317 2.016513985979536 0 0 0
178 1 15.663621988496832 5.498007640564326 3.6848063209765987 0 0 0
83 1 16.16388398342593 7.5912462028439345 2.237056689836745 0 0 0
1153 1 0.5809855862520905 14.146735138828323 3.7921285513389686 0 0 0
534 1 19.209353420640657 2.770128350728582 14.05971960065393 0 0 0
54 1 19.798299047660976 5.878755134571255 0.7904407629197883 0 0 0
56 1 17.78746984636457 5.623990472418168 2.4037195358408985 0 0 0
213 1 17.182139691156923 7.2329996799238145 4.292209502953565 0 0 0
88 1 17.66096031876938 9.215518741245909 1.8063008886553173 0 0 0
87 1 19.18238523356815 7.1948635196658595 2.4892434744768828 0 0 0
214 1 18.5251171173625 9.105498151358605 3.959154626827021 0 0 0
182 1 19.433049153275658 5.354927295001953 4.033368373161034 0 0 0
110 1 12.676351237584724 12.593265058323729 0.585743170323165 0 0 0
102 1 6.01575502888338 12.615474362699283 0.6707738246949316 0 0 0
186 1 22.671947033404322 6.065552927656493 4.351019850284819 0 0 0
60 1 20.981429587968165 6.016660164288805 2.9263912493712496 0 0 0
91 1 22.551567496898244 7.41071884090782 2.3170781996645555 0 0 0
217 1 20.511101819583903 7.643243425603199 4.154174921947265 0 0 0
218 1 22.28396688766059 8.897626345131147 3.907638563700073 0 0 0
92 1 21.05405820777955 9.02816538501715 2.1602909755530035 0 0 0
139 1 9.063778803430399 0.7271052809364619 5.76502747631318 0 0 0
1431 1 19.442672043317305 14.140949433857125 12.168716762368218 0 0 0
263 1 5.24197136714554 0.7003084530849024 9.239330011834301 0 0 0
109 1 10.886212735087296 10.461471363114555 0.7382552865462543 0 0 0
36 1 27.7447446326285 5.641731514678211 2.174242788890731 -1 0 0
64 1 24.413688906910938 6.067835389143301 2.384216681728583 0 0 0
190 1 26.359785934704195 5.947328456555536 4.125978971792035 0 0 0
221 1 24.4688491324168 7.738795172991987 4.081400252381404 0 0 0
95 1 26.346284821422937 7.335523644984777 2.1558016848625043 0 0 0
222 1 26.40160706867481 8.760407159353495 3.810541165253981 0 0 0
96 1 24.605367887460815 9.138424118153425 2.2191289491638946 0 0 0
569 1 21.287112021834258 4.196535156920795 13.985090793471292 0 0 0
1411 1 2.507269664998564 14.01088332515082 12.053985280771862 0 0 0
518 1 6.019694566123685 2.164077325272443 13.771219335833157 0 0 0
99 1 2.468057896077646 10.347038554981458 2.2071268424662507 0 0 0
226 1 1.9706255878444698 12.665606610409538 4.0251815673657365 0 0 0
229 1 4.223153083691024 10.688975246917831 3.823822496333386 0 0 0
104 1 3.4419902494101224 12.201160887833423 2.298682617492584 0 0 0
225 1 27.71062864179461 11.029471229016972 3.7502120332037974 -1 0 0
510 1 26.39831332112976 12.418628607311316 10.816397073229101 0 0 0
511 1 25.888933469736664 10.614827505587089 12.438532554993358 0 0 0
5 1 3.870092736553965 0.6958000288336115 0.8982619415922501 0 0 0
81 1 14.366138661482715 7.296756554674909 0.8343586869057609 0 0 0
103 1 5.488779820566769 10.648942502591087 2.097739498386555 0 0 0
108 1 7.447871535341685 12.598213619122754 2.2387097332597286 0 0 0
230 1 5.807404939952944 12.21762639003563 3.817755926586284 0 0 0
233 1 7.222064008971631 10.5801472180977 3.564226594422171 0 0 0
58 1 22.540341453500012 5.470713492564841 0.5445921592229919 0 0 0
42 1 9.199789764524272 5.5288637520648 0.6549793512015112 0 0 0
1545 1 7.183971061682095 13.769299359025938 14.052892527893905 0 0 0
107 1 8.907651647057062 10.302267231632108 2.6093032352376744 0 0 0
112 1 10.54259409501933 12.590822255545373 2.1582936597260405 0 0 0
234 1 9.361391189172252 12.475854664385642 3.9309509901346855 0 0 0
237 1 10.968326080091956 10.723963352573206 3.8329258748187023 0 0 0
38 1 6.0257515005722055 5.256813806445966 0.8011669267496637 0 0 0
23 1 19.82349910382679 0.8481326697856151 1.793729688467866 0 0 0
265 1 7.20765837744904 0.8099524844887138 7.46607967944071 0 0 0
238 1 12.5322507258338 12.530199665595571 4.091732122906917 0 0 0
111 1 12.486033597932222 10.818709721216262 2.092809828731661 0 0 0
116 1 14.1978636750861 12.551323847196382 2.169385107213534 0 0 0
241 1 14.423603231351256 10.765592174711205 3.966882001940288 0 0 0
242 1 15.98167385044784 12.401118221153727 3.8615710233547067 0 0 0
115 1 15.783185195753234 10.538544893822783 2.12325919877647 0 0 0
33 1 27.218821849780575 3.882881374663778 0.6703845318695418 -1 0 0
119 1 19.204860540355604 10.76857925535532 2.209065804582776 0 0 0
120 1 17.28125295389335 12.596444779168651 1.8951538866711466 0 0 0
245 1 17.410721993455176 10.893255641908489 3.705500321201394 0 0 0
246 1 18.866840581265595 12.636585292886334 3.57900726614046 0 0 0
505 1 20.734491432730763 10.49315567774294 11.133644131845484 0 0 0
157 1 24.660465373631933 0.6705812624745766 3.8461585546675487 0 0 0
123 1 22.746587753355247 10.580367625059523 2.5309417388367623 0 0 0
124 1 20.586421024648054 12.697854312199334 1.91890017925319 0 0 0
249 1 20.537506675747874 10.700789139784218 3.8415915103288554 0 0 0
250 1 22.33016277809365 12.190855537526932 3.7218569373301005 0 0 0
1427 1 16.110848631343828 14.114421180835487 12.427527889130461 0 0 0
1439 1 25.67764284267246 14.073720579938106 12.601882634146568 0 0 0
100 1 27.756976997085484 12.808410793025775 2.060129837581986 -1 0 0
10 1 9.376618236708707 2.2490100557203667 0.9188962155648702 0 0 0
128 1 24.193107261351248 12.232042632773178 2.325559909624768 0 0 0
253 1 24.271489099239123 10.452357054846884 4.244390590957861 0 0 0
127 1 25.724357912069063 10.70691875688273 2.7334887830940757 0 0 0
254 1 25.79186186044146 12.567234450070258 3.6748152548644 0 0 0
1549 1 10.581916545366173 13.912200431633066 14.136031111052018 0 0 0
9 1 7.390561455951502 1.1919480883219271 0.8707596302381903 0 0 0
508 1 20.83962904911322 12.117181748758828 12.341060281127133 0 0 0
507 1 22.592623508468332 10.969603449288758 12.959784357005647 0 0 0
163 1 1.9572359688288825 3.8103167436198646 5.691917352082968 0 0 0
258 1 1.8761072991281782 2.3061654982471076 7.592691491424598 0 0 0
291 1 2.102683932958546 4.0567566864134035 9.289122888859279 0 0 0
136 1 3.743661812772619 1.9599563361568584 5.58916556694703 0 0 0
293 1 3.755142817767919 3.626746795016415 7.131168299427188 0 0 0
264 1 3.6226750019169858 2.2685862331970212 9.453970714932712 0 0 0
140 1 7.3564736445099825 2.4980057923221346 5.81658930872449 0 0 0
167 1 5.718901646334523 4.101090731107445 5.7618278717817475 0 0 0
262 1 5.659952989075979 2.4015654675438602 7.30752159631878 0 0 0
297 1 7.219722667233009 3.9794532623165897 7.984865213676434 0 0 0
268 1 7.229725329518003 2.0951082793306544 9.204904873314863 0 0 0
295 1 5.203414989609138 3.7931304265257597 9.444743291177197 0 0 0
153 1 21.020734064050814 0.7953106439493796 4.03291985288786 0 0 0
506 1 22.630857313056797 12.360126132597385 10.91281370437605 0 0 0
299 1 9.5350510481801 3.9682844098415075 9.289580707818997 0 0 0
171 1 9.069374841127916 3.952815679423195 6.40973804081092 0 0 0
144 1 10.877490210714903 2.0807778901943843 5.9735111777994065 0 0 0
266 1 8.943664032420786 2.3715740195194144 7.8056629981416465 0 0 0
301 1 11.12264939401595 4.003023405397961 7.6990891578279586 0 0 0
272 1 10.939033734508252 1.992620587191713 8.743266744609587 0 0 0
175 1 12.818800220773962 4.271545940682861 5.678375348540772 0 0 0
1417 1 7.388572043906013 13.740051336232602 10.619213520118423 0 0 0
1437 1 24.625838373527763 13.863560974050037 10.828500218424184 0 0 0
270 1 12.590648110411275 2.0545934326366555 7.203629526586044 0 0 0
179 1 15.998607509869514 3.8904655420531946 5.952396829982563 0 0 0
303 1 12.603146777331162 4.205998970801197 9.235238632307102 0 0 0
148 1 14.456363307915172 2.2430108716456143 5.2696699915058725 0 0 0
305 1 14.245616459803964 3.9371750720098064 7.234762864484273 0 0 0
276 1 14.02078037919184 2.2680714596420026 9.168629936631163 0 0 0
274 1 16.064155292883775 1.9603715735544136 7.143883442398867 0 0 0
307 1 15.769273386639162 3.9732752326300145 8.998393318656229 0 0 0
503 1 19.106466606693367 9.922737466645168 12.58912973255237 0 0 0
504 1 17.812877124877414 12.255985524812601 12.738107493217063 0 0 0
183 1 19.308813555368825 3.6918157259490916 5.826727119640342 0 0 0
152 1 17.74764126625631 2.1706281964276872 5.595618100139889 0 0 0
309 1 17.597299741220404 3.452920651056188 7.715559409420338 0 0 0
278 1 19.53368388724191 1.7526629412445722 7.1803336855826325 0 0 0
311 1 19.13045983033785 3.7167655296761364 9.299949232617218 0 0 0
280 1 17.636553779968924 1.9919903873482336 9.49829991212393 0 0 0
501 1 17.414737739378484 10.85393625134744 10.782553718315038 0 0 0
156 1 21.294806187495066 2.3228689012746484 5.577183838452775 0 0 0
187 1 22.974940218046072 4.301285352163468 5.744192655806905 0 0 0
282 1 22.761937173143245 2.3395220800401164 7.274599002641184 0 0 0
313 1 20.958018660404054 4.026636000361197 7.117557307355284 0 0 0
315 1 22.59868170441557 3.7764005012369593 9.298143040807947 0 0 0
284 1 21.395403113778784 2.1884227933713154 8.921331624213247 0 0 0
260 1 27.62022759448968 2.17057592133082 9.181889506013967 -1 0 0
289 1 27.744075759281493 3.9688411969613004 7.447206669682453 -1 0 0
132 1 27.538301811196426 2.261397661264433 5.388335158410283 -1 0 0
288 1 24.285805839411818 2.5524171532124353 8.75905278405661 0 0 0
317 1 24.749045973356893 4.39310118053838 7.086703945538933 0 0 0
160 1 24.35398103205652 2.6831319426017055 5.701862628179672 0 0 0
191 1 26.432114918599602 4.077797420492182 5.850501447647684 0 0 0
286 1 25.831707163247962 2.3961736098189084 7.061390158510921 0 0 0
319 1 25.89656545299138 3.86344787710293 9.042757610343584 0 0 0
502 1 19.085197024616114 12.618882221225565 10.845879336556967 0 0 0
296 1 3.8164040632107494 5.729535643434608 9.328741415199952 0 0 0
290 1 1.8421034360194926 5.430561703039308 7.332053134111608 0 0 0
195 1 2.332046422159699 7.207685806164335 6.09217958564403 0 0 0
323 1 2.4090519684504295 7.468298740484812 9.228738616674445 0 0 0
168 1 3.929057706961462 5.625612808781067 5.870808026019124 0 0 0
322 1 2.566145247082706 9.030692936008311 7.465197675114178 0 0 0
200 1 4.372878189623076 8.794123237381909 5.810685330409282 0 0 0
325 1 4.014892671272915 7.468068201024064 7.809231205940948 0 0 0
328 1 3.8638918608041126 9.254749943724573 9.271588691106535 0 0 0
324 1 0.6572279258590998 9.07830784075912 9.129649998391093 0 0 0
321 1 0.6764840937741586 7.578287206770549 7.347819714917145 0 0 0
164 1 0.6467485773050722 5.746270895863138 5.657990762841533 0 0 0
199 1 5.605082894557255 7.115706977662918 6.094309839513415 0 0 0
172 1 7.113307287956066 5.588016475574345 6.481126389192952 0 0 0
294 1 5.311081166696675 5.331529532577842 7.751338411815984 0 0 0
329 1 7.399252791870985 7.442625793460088 7.51092403526496 0 0 0
327 1 5.67164214640274 7.307335135306659 9.149098098849208 0 0 0
326 1 5.6385820201154635 9.038453726627575 7.4527663288108315 0 0 0
332 1 7.172694519537517 9.11914941590629 9.059172624923502 0 0 0
300 1 7.018253048047528 5.922696034010445 9.27302744021294 0 0 0
176 1 10.832544964181363 5.74953480032684 5.903491635936567 0 0 0
298 1 9.221063868878973 5.5327054466331775 7.830014442651943 0 0 0
203 1 9.134373207500616 7.0011067984014455 6.004526404967458 0 0 0
333 1 11.093959093260871 7.187771887353204 7.589268808472487 0 0 0
330 1 9.053821720003357 8.944622962574936 7.096469284868437 0 0 0
208 1 10.851186740956635 8.862839889722718 5.732881946149438 0 0 0
331 1 8.724805936186893 7.5528540475300865 9.304355621816983 0 0 0
304 1 10.971945165223648 6.091569729930673 9.40888716357515 0 0 0
336 1 10.411867490753854 9.045379083127276 8.919602181130179 0 0 0
302 1 12.709288405843349 5.66677677261022 7.632277270604516 0 0 0
180 1 14.702989214411494 5.815878902507542 5.599071094150769 0 0 0
335 1 12.826963233782392 7.834069298517873 9.104104974250939 0 0 0
207 1 12.551746269062011 6.856722513720499 5.593355055146592 0 0 0
334 1 12.227756676169916 9.265455660955256 7.584832662010725 0 0 0
308 1 14.268667427014035 5.866925024833404 9.007747298509326 0 0 0
337 1 13.678435730056917 7.568258626829291 7.222529320209199 0 0 0
340 1 14.441338188906359 9.398898697352324 9.00233432931341 0 0 0
212 1 14.212657075641646 9.173740468742379 5.903982520524356 0 0 0
338 1 16.035173469973536 9.180535218917461 7.389164676760039 0 0 0
339 1 15.653551662133411 7.474563456464544 8.879495307912176 0 0 0
306 1 15.775241377577276 5.65561138425119 7.4586379542614605 0 0 0
211 1 15.794289214489238 7.809631047179192 5.794487218292018 0 0 0
184 1 17.44799837599083 5.690161792743693 6.079935203744487 0 0 0
216 1 17.790369980078417 9.15382732708765 5.775963873983391 0 0 0
312 1 17.421634737728166 5.516838431206234 8.902853962765 0 0 0
310 1 19.223213313431124 5.339609355396866 7.544499150229524 0 0 0
341 1 17.47957582579465 7.414499774722872 7.514709608313589 0 0 0
343 1 19.39936339098696 7.569913750193876 8.76528774637316 0 0 0
215 1 19.323544670596323 7.469677010694336 5.82091225871734 0 0 0
344 1 17.477131559750863 9.033348150314755 9.147208230972225 0 0 0
342 1 19.080154191516062 9.41445492877001 7.399252190456668 0 0 0
188 1 20.951832691236746 5.640945553231255 5.768977825879534 0 0 0
219 1 22.81222116686279 7.534478170000459 5.660911865299271 0 0 0
220 1 20.694022871440385 9.287048716267522 5.918166616154874 0 0 0
314 1 22.542282787044346 5.74814088581375 7.58941851917902 0 0 0
345 1 21.13892872334624 7.342506655730115 7.554324201555212 0 0 0
348 1 21.459541136487324 9.346124383699209 9.354434853528812 0 0 0
346 1 22.753033027167636 8.772270083954789 7.320317472857511 0 0 0
347 1 22.8743295533022 7.407369705600441 9.16794382302262 0 0 0
316 1 20.96526388851719 5.634411071956178 9.283326372808014 0 0 0
292 1 27.824598755437883 5.507736616192892 9.357433882323342 -1 0 0
196 1 0.8160929124584706 9.081015401663429 5.6246524388291546 0 0 0
192 1 24.4795057547158 5.839338280727919 5.484130424173567 0 0 0
224 1 24.248595116556864 9.009262841417142 5.849922480189175 0 0 0
223 1 26.240726912883407 7.363560074376021 5.86632691189328 0 0 0
349 1 24.568189688540873 7.412804389522107 7.467001535209292 0 0 0
352 1 24.685947669902173 9.03348470880606 8.947815422745983 0 0 0
320 1 24.628242241350417 5.732551048515785 9.368916514828543 0 0 0
318 1 26.382859773246263 5.849642290614911 7.585905565380353 0 0 0
351 1 26.461935925675064 7.638443440830985 9.006252094791291 0 0 0
350 1 26.005753742847592 9.365019797543484 7.227075175450051 0 0 0
1289 1 7.209193449633273 14.051972358659587 7.354441419371868 0 0 0
227 1 2.1196103595142857 10.834864550301374 5.343752535902224 0 0 0
354 1 1.9583901770215881 12.371715227193032 7.103036299733783 0 0 0
355 1 2.465144524601903 10.762157327820615 9.013212044956658 0 0 0
360 1 3.956847212540028 12.356365624148161 8.92875084057309 0 0 0
232 1 3.7557019983492492 12.352192457688192 5.415809210097793 0 0 0
357 1 4.1940291886722125 10.892929884059079 7.01495908715656 0 0 0
353 1 0.755581993941292 10.401679151816294 7.292973869463978 0 0 0
487 1 5.730921286433961 10.829830430811606 12.340907114682606 0 0 0
231 1 5.73969925794071 10.303187552627945 5.346683892758333 0 0 0
236 1 7.369196063441345 12.688328776441502 5.311314329504838 0 0 0
358 1 5.732831275295446 12.086287874921982 6.625825604164883 0 0 0
359 1 5.804921248500665 10.950701633012885 8.60837359181692 0 0 0
361 1 7.720830738399731 10.749480438252654 6.859133378033756 0 0 0
364 1 7.464945636807822 12.536950713616898 8.791035998883878 0 0 0
1421 1 10.740464036735275 13.845169792796142 10.782850146532725 0 0 0
1561 1 21.138281873589293 14.087656057472246 13.977674639308798 0 0 0
143 1 12.88175238001942 0.6199430903736918 5.443113856436944 0 0 0
50 1 16.202804668365285 5.276513462917659 0.6307870177039845 0 0 0
368 1 11.18800300445035 12.416750505022023 8.82118698841347 0 0 0
235 1 9.203465759273712 10.678004708292102 5.155052309555061 0 0 0
240 1 10.702072117450447 12.450197860808524 5.756973266978863 0 0 0
362 1 8.99411436706487 12.668890899580532 7.052700890706302 0 0 0
365 1 10.172561842750438 10.67956459841046 7.314449419194652 0 0 0
363 1 8.571547766687301 10.66004748493452 8.921466224043856 0 0 0
367 1 12.22274266448124 10.866513312320677 8.924686623250984 0 0 0
389 1 3.7070009411808673 0.5642115523095477 10.739298271649025 0 0 0
492 1 7.318620254601582 11.934750653582766 12.190314313827221 0 0 0
1423 1 12.44742883288074 14.091712845250933 12.150636336361488 0 0 0
239 1 12.351409342282341 10.764922879063956 5.61807974241992 0 0 0
366 1 12.819418369813228 12.537524695622814 7.208425990880509 0 0 0
244 1 14.113114408237916 12.533966881802373 5.676221771654679 0 0 0
369 1 14.259217378545273 10.929796646701186 7.380553311248571 0 0 0
372 1 14.15116412866794 12.81447243215943 8.937757898376514 0 0 0
243 1 16.153852440484734 10.705668698828077 5.370328468312197 0 0 0
371 1 15.951346723806271 11.072536877278095 8.8726401265758 0 0 0
370 1 15.923754018289799 12.487915538335994 6.744038512120194 0 0 0
248 1 17.436768568279856 12.720994552698684 5.30302918305068 0 0 0
376 1 17.387049892546337 12.729093838128213 9.013840999144536 0 0 0
247 1 19.112611698248593 11.330778597481789 5.4651211181161425 0 0 0
373 1 17.437827306541084 11.059366833043297 7.390681053571429 0 0 0
374 1 19.43897570815956 12.483363269361423 7.6098699661643385 0 0 0
375 1 19.14282560679286 10.689454146068003 9.186373574504605 0 0 0
489 1 7.179857586421674 10.718747141225691 10.507039756247865 0 0 0
252 1 21.201109639323075 12.54988527312093 5.858934549133352 0 0 0
251 1 22.57472674931844 10.682981367392385 5.487867412879865 0 0 0
380 1 20.965729949752145 12.286329398599015 9.448993797927903 0 0 0
379 1 22.91744470168313 10.740841337382825 8.801289111263031 0 0 0
377 1 20.974282875984695 10.82683666359336 7.403906591986339 0 0 0
378 1 22.593854994500447 12.476781527376088 7.546857752751058 0 0 0
7 1 5.748191033748711 0.8698382897815042 2.33769400122077 0 0 0
356 1 0.7121525384490934 12.223097220315713 9.040328225559737 0 0 0
228 1 27.80564752787426 12.504610089918152 5.563624931923118 -1 0 0
384 1 24.531383347252298 12.387665714124438 9.04937415112791 0 0 0
256 1 24.07741442234643 12.240487800503002 5.280270009640705 0 0 0
381 1 24.398163156265277 11.149017213068367 7.126205191753485 0 0 0
383 1 26.123396418482287 10.76295207962923 9.084357568353086 0 0 0
255 1 26.255955916055534 10.975499492231142 5.550305673036013 0 0 0
382 1 26.44275984209734 12.431481061518463 7.509297586669749 0 0 0
1177 1 20.85031586583574 14.164634157275731 3.735908900091117 0 0 0
499 1 15.950256232870078 11.082300018702204 12.550216036173804 0 0 0
386 1 2.05774195063658 2.316614125993532 10.838939218137023 0 0 0
419 1 2.3482740983464048 4.133723735332435 12.380061375681775 0 0 0
421 1 3.9703375556902096 4.026104279223344 11.136879033009269 0 0 0
392 1 4.022391086175414 1.9377720902838065 12.714609485143049 0 0 0
1309 1 24.491485511264358 13.878803112306395 7.299818540410088 0 0 0
388 1 27.385864070101416 1.9030308763303279 12.56389295919157 -1 0 0
481 1 0.781178045586298 10.800754657667802 11.213790444292062 0 0 0
497 1 14.269702608394873 11.073400498668605 10.448500993543016 0 0 0
390 1 5.6324759349161395 2.2590595854220794 11.186947410319565 0 0 0
396 1 7.676375326847855 1.7689647035584124 12.113711341713874 0 0 0
423 1 5.883856225122991 4.109521469092982 12.60082936873958 0 0 0
425 1 7.4760618199884785 3.9278059880703045 10.868509797460804 0 0 0
448 1 24.610363644899834 5.5963359367967636 12.210172566863212 0 0 0
1175 1 19.268799383984682 14.16032694133908 5.864106852655001 0 0 0
394 1 9.582439710751881 2.0348592793412132 10.474155374037462 0 0 0
400 1 10.829243700874128 2.366060863537988 12.512982055665615 0 0 0
427 1 9.153578483445425 3.5991126544855474 12.500443999233728 0 0 0
429 1 11.175801812624943 4.115155147454377 10.651085364964016 0 0 0
488 1 4.077667357516024 12.360281523512247 12.829287481899598 0 0 0
1171 1 15.59089681937315 14.131868390835399 5.4061264409008345 0 0 0
479 1 26.373713508293758 7.163945204908972 12.400361847037995 0 0 0
431 1 13.115090230135268 3.957404119128766 12.476407882071817 0 0 0
398 1 12.226205028408698 2.290509640314748 10.679145362694854 0 0 0
404 1 14.563519322845911 2.294879624421254 12.626000460666246 0 0 0
433 1 14.460979160663456 3.9769321838435028 10.54780299642075 0 0 0
435 1 15.62913656086145 4.143317914633288 12.742337509180105 0 0 0
574 1 26.054087700255728 5.229442719000663 13.921308065162323 0 0 0
1311 1 26.00168067338678 13.931419773508054 9.099975467272762 0 0 0
49 1 13.904272728468948 3.980499922014988 0.9072755761465711 0 0 0
402 1 15.900765059680522 2.2615192619381466 10.54343701948871 0 0 0
406 1 19.41948056450991 2.0431681857760653 10.599961416032832 0 0 0
408 1 17.829169941135955 2.3427607386020233 12.410851935518622 0 0 0
437 1 17.135178484768318 4.120282672530074 10.855392684106484 0 0 0
439 1 19.16715345516021 4.02253350839746 12.243968145693003 0 0 0
498 1 16.077978292553354 12.657807462843397 10.686451648209333 0 0 0
491 1 8.669906509479372 10.695563315442035 12.903375434574675 0 0 0
410 1 22.47306716861083 2.0886078400236543 10.74834395994034 0 0 0
412 1 20.79591630925011 2.311884453806427 12.371016765776012 0 0 0
441 1 20.756962336093626 4.048505409352327 10.484547380366092 0 0 0
443 1 22.711848503301983 4.345426083219937 12.260050144043253 0 0 0
1283 1 2.0157276600656635 13.87655510252143 8.95827434494879 0 0 0
486 1 5.37521578880601 12.346038238179034 10.781471685579334 0 0 0
495 1 12.539055806522015 10.912877484836693 12.596458445339112 0 0 0
496 1 10.976931792509433 12.51932705340001 12.326402321020284 0 0 0
417 1 27.75654269047791 3.8291685565034443 10.839954326860578 -1 0 0
445 1 24.42892510582491 3.554763181181465 10.66925451030867 0 0 0
416 1 24.43063557426606 1.7322428486866945 12.080581370665405 0 0 0
414 1 25.633669104339567 1.9325174231690798 10.282576841159994 0 0 0
447 1 26.060599267669506 3.583111973604499 12.438501908796173 0 0 0
493 1 10.767624992347086 10.649941988893394 10.715277774608547 0 0 0
490 1 9.160770761180828 12.09131546059626 10.583665475890033 0 0 0
500 1 13.961825094231134 12.58781679987475 12.271534923551089 0 0 0
418 1 2.3096396708680844 5.906063826505534 10.850591865222878 0 0 0
451 1 2.3852755324730452 7.253531312678506 12.700846873997493 0 0 0
450 1 2.2721968034950786 8.97227135022227 10.88959369626242 0 0 0
453 1 4.139450092610149 7.604811712758919 10.946348572622396 0 0 0
456 1 3.705589740096284 9.054439751825472 12.710731385227868 0 0 0
449 1 0.5440585782981961 7.536465959918962 10.866575700232916 0 0 0
424 1 4.240256466567724 5.676447836200328 12.839083476810094 0 0 0
452 1 27.646346891631012 9.006939769906516 12.581653187588838 -1 0 0
422 1 5.397178808759715 5.791709054055086 10.931815234514406 0 0 0
428 1 7.2729964754506655 5.906229228702977 12.483705052193516 0 0 0
455 1 5.553045883957813 7.361428635680382 12.688672171789339 0 0 0
457 1 7.06276352836582 7.5964637494112965 10.935571888968948 0 0 0
460 1 7.134785125084072 9.01773710192332 12.785181172118811 0 0 0
454 1 5.4999717599524685 9.479883845760568 10.738024809165267 0 0 0
77 1 10.592168335610785 7.1497470418810485 0.7786017944746926 0 0 0
401 1 14.262986454172097 0.6547385757609021 10.651606599564763 0 0 0
494 1 12.634145861191499 12.629117416673445 10.335844932877468 0 0 0
426 1 9.091616094749671 5.352306133228348 11.25990968762474 0 0 0
458 1 9.013226797542023 9.296606687001425 10.939335569741282 0 0 0
432 1 10.892917558108046 5.495683335231674 12.613782090867826 0 0 0
459 1 8.924077136317507 7.549357704325447 12.06431115510409 0 0 0
461 1 11.11118015799969 7.830464042820308 10.951404776450659 0 0 0
464 1 10.42438451739822 9.333947220963093 12.684749822038027 0 0 0
482 1 1.9613928756657453 12.660275205899133 10.806703218912617 0 0 0
126 1 25.81408127299334 11.967993943326084 0.7975213696987911 0 0 0
463 1 12.538089992769748 7.530581399350896 12.525519792931567 0 0 0
430 1 12.724196712480486 5.7642963272086725 10.777232235982103 0 0 0
462 1 12.544910175393328 9.22038454321329 10.97747609472866 0 0 0