LAMMPS data file via write_data, version 29 Oct 2020, timestep = 300000

2048 atoms
1 atom types

0.5103545852169837 27.84164541478235 xlo xhi
0.5103545852169837 27.84164541478235 ylo yhi
0.5103545852169837 27.84164541478235 zlo zhi

Masses

1 58.933

Atoms # atomic

35 1 2.404076705355563 3.716937152711734 2.668662556678474 0 0 0
130 1 2.18591718086068 2.3750441116936045 4.388774616909499 0 0 0
165 1 4.454951064637081 3.786447760558292 4.20627044632684 0 0 0
8 1 4.111462129746414 2.225011616076304 2.221713136021944 0 0 0
1565 1 22.37833652801854 13.770339872751059 12.44977424414056 0 0 0
1031 1 5.286717474110588 13.872059641405182 2.3631975962802767 0 0 0
159 1 26.09134628541638 0.6689873975956204 5.382654389812105 0 0 0
1033 1 6.7397464683655475 13.640834343385919 0.5333502799580528 0 0 0
12 1 7.442644676539444 1.8824419442360447 2.669531895542981 0 0 0
39 1 5.981950263748982 3.7595788792356912 2.477025826475511 0 0 0
134 1 5.717712425403435 1.772286490244851 4.191487339423748 0 0 0
169 1 7.460533857124296 3.901250884795057 4.225617789218653 0 0 0
506 1 24.39844966476316 13.880220589358071 11.049586448642206 0 0 0
81 1 14.079842573192884 7.589953860331461 1.0672361286850895 0 0 0
484 1 27.75765712307533 12.564674193161038 12.567778379533351 -1 0 0
43 1 8.727741096694324 3.596204689939462 2.277783752346731 0 0 0
138 1 9.153248981262125 2.1369200715738144 4.348052239291669 0 0 0
16 1 10.794243893781637 2.4263417730194208 2.1046372586863784 0 0 0
173 1 10.883862879986166 3.6919577468440363 4.17896742363269 0 0 0
257 1 27.48786749056528 0.7281722344100569 6.9870213958171 -1 0 0
533 1 17.562098420619016 0.6199149609552077 14.15378280958803 0 0 0
512 1 24.207841365060858 12.111056226347552 12.958784936285594 0 0 0
47 1 12.457117751184485 4.143813038310493 2.0242590514336993 0 0 0
142 1 12.505891010350826 2.1287844504777693 3.9289737369167104 0 0 0
20 1 13.91030252718087 2.0234618114786853 1.9311969829800468 0 0 0
177 1 13.752236998416516 4.007636112764878 3.968882169131591 0 0 0
83 1 15.658805138546523 3.6445525322225514 2.095495590007542 0 0 0
146 1 15.376071860617515 2.125744364282971 3.6404119252413336 0 0 0
510 1 26.135053255764465 12.299600948632376 10.948797325602278 0 0 0
287 1 26.35200604014242 0.7150303465153972 8.967002024664493 0 0 0
1433 1 20.857152396758583 13.97890334685959 10.709541773571203 0 0 0
11 1 9.342757534134709 0.6575697023755489 2.5250868405650544 0 0 0
24 1 17.28632843575438 2.3415781318966937 2.204063356474678 0 0 0
150 1 19.206929098186254 2.1375548578757755 3.9568964081701985 0 0 0
181 1 17.55921398499892 3.6249622139770104 4.097259626522671 0 0 0
55 1 19.03297289958252 3.7572003342860403 2.581286432908357 0 0 0
511 1 26.248647879481943 10.660933070928564 12.54969791966662 0 0 0
509 1 24.392620450012398 10.704652633190456 10.890490751105336 0 0 0
157 1 24.511906593247915 0.60754045738957 3.7371973198705306 0 0 0
513 1 27.72953141172407 0.6629106169268983 13.78101462519405 -1 0 0
59 1 22.57784621740841 4.0942251898017386 2.2134360676957887 0 0 0
154 1 21.074580239194372 2.1746358660709015 2.9600547305947185 0 0 0
185 1 21.02960619461242 4.146637641894644 3.851872580708697 0 0 0
187 1 22.960992722462443 2.150658102512697 3.738804041486991 0 0 0
1297 1 14.478402786822167 13.977144794706648 7.2649889724962 0 0 0
1295 1 12.787655123421734 13.934641514133009 9.419906798448851 0 0 0
508 1 20.646646149069472 12.277124265303597 12.481767814595546 0 0 0
161 1 27.779542857662733 4.216468178981536 4.11815726814031 -1 0 0
4 1 0.7852120953685389 2.333213056720095 2.1366055205677124 0 0 0
32 1 24.154043304230896 2.254103585809678 1.7735711009871569 0 0 0
189 1 24.45507869203433 3.822910503850607 3.7855722849190623 0 0 0
63 1 26.15020736782581 3.742968814296525 2.0458593150410853 0 0 0
158 1 26.4506308795137 2.2172636694289944 3.6265740208777646 0 0 0
387 1 2.0791504106404206 0.5123461456184497 12.358462050979622 0 0 0
141 1 10.856337886165246 0.6114171753362296 4.15545732433484 0 0 0
6 1 5.816374890830816 2.525917426843697 0.5805313698851986 0 0 0
1421 1 11.29518867563407 13.903298620861182 11.055916395946332 0 0 0
40 1 4.154032895403667 5.452801253156322 2.5350995760374087 0 0 0
162 1 2.1433523580653135 5.528843673606067 4.039319323955534 0 0 0
67 1 2.4364078296110074 7.298713678963882 2.2637006608449513 0 0 0
197 1 4.024645464140628 6.970117778932622 3.9027606181312384 0 0 0
72 1 3.714773102245 9.068271705170726 2.2397644873183173 0 0 0
194 1 2.0498876660683516 8.604544303773997 3.718282703611621 0 0 0
193 1 27.724086346968313 7.299194533574253 3.328486909337568 -1 0 0
1161 1 7.00439349367411 13.799064142726463 3.9704045847081795 0 0 0
1175 1 20.883143038583626 13.934215347695876 3.6032850645836385 0 0 0
401 1 14.259919323102533 0.5430427838718586 11.057269405914626 0 0 0
166 1 5.831229550516295 5.540041010820002 4.2075415513251535 0 0 0
44 1 7.101638433010253 5.851534332051126 2.10124272092895 0 0 0
71 1 5.420207239096696 7.210569969650896 2.2206762590573907 0 0 0
201 1 7.498219364784962 7.558706950833865 4.037385098407051 0 0 0
76 1 6.96543935181248 9.062827326473426 2.4378961588080603 0 0 0
198 1 5.397857182208237 8.987292604125887 4.056412296494389 0 0 0
89 1 21.373983912106784 7.429239800504656 0.6299794033483187 0 0 0
202 1 9.197070374405694 9.51374336172269 3.6481300269116095 0 0 0
48 1 10.719681848146532 5.395917163944787 2.6166592657504557 0 0 0
170 1 8.87706608809795 5.563415187754673 3.80575591371244 0 0 0
75 1 9.494206426557366 7.298369054725396 2.5852624320998547 0 0 0
205 1 10.927806262437526 7.794355913338824 3.842961993362576 0 0 0
80 1 10.733678940502129 9.397705455177663 2.0339711154386757 0 0 0
147 1 15.728866386471598 1.0399622264899562 5.744632465262339 0 0 0
546 1 2.011386268306807 5.503717505349199 14.086107039536087 0 0 0
1167 1 12.290781802141723 13.80798447946791 5.577522880654869 0 0 0
206 1 12.432596467728002 9.445737085725828 3.6950373530570095 0 0 0
174 1 12.4844038789272 6.061063456457025 3.5238448057426672 0 0 0
79 1 12.278735830094616 7.616503606358835 2.0691635232113006 0 0 0
52 1 14.26418555754391 5.592762835602817 2.146614641933627 0 0 0
209 1 14.588570525061428 7.636669007389315 3.3777081199895185 0 0 0
178 1 15.85183602671969 5.579351917173899 3.57456356398342 0 0 0
88 1 16.334052666498955 7.462663708143062 2.2076738062984216 0 0 0
84 1 14.051318776738004 9.54429556455108 2.1548240341380183 0 0 0
210 1 16.225364619831673 9.346470338335351 3.8484770668578814 0 0 0
56 1 17.48149904555928 5.249360348679607 2.074650657871837 0 0 0
182 1 19.30287757400289 5.622299227737267 3.936546381020523 0 0 0
92 1 17.920618038747655 9.267971016520514 1.9005920391416427 0 0 0
211 1 17.577991945398935 7.2191223227561405 3.920743512500303 0 0 0
213 1 19.301168914409615 8.878828213400762 4.1147151271185045 0 0 0
87 1 18.845145947335613 7.114889258280131 1.9960459175865768 0 0 0
415 1 26.02594465668778 0.7903722103289001 12.345315529260764 0 0 0
60 1 21.139120954433135 5.7802294449712734 2.3385141767385895 0 0 0
186 1 22.922707097587818 5.815619848645578 3.7853628086044084 0 0 0
91 1 23.068521043049074 7.429651280949095 2.0602553187236845 0 0 0
217 1 20.71771075188072 7.136142566335819 3.9944214810331777 0 0 0
123 1 21.078516233708967 8.827965578556984 2.4156998845598396 0 0 0
218 1 23.158754593335093 9.254582203784887 4.03319162828626 0 0 0
534 1 19.511239825514558 2.750514048252146 13.900438106672096 0 0 0
356 1 1.7034839380768019 13.93804708829396 8.858804037910472 0 0 0
1027 1 2.502270103772368 13.7113188845992 2.085673167622616 0 0 0
36 1 0.7990893930280197 5.4025365756189405 1.7891705222610144 0 0 0
68 1 0.5331527144217993 9.100874365682705 2.020299124920104 0 0 0
221 1 24.498560110692743 7.18452417213384 3.8931476139447336 0 0 0
64 1 24.462712418457336 5.393024963159734 1.9632902474858211 0 0 0
190 1 26.288586628815004 5.630743598563704 3.455054531807559 0 0 0
95 1 25.669344964861867 7.2587979020683076 2.0443563274907914 0 0 0
222 1 26.36840114844156 9.191103137813668 4.199127949840948 0 0 0
96 1 24.450858920870882 9.250550360216693 2.166776883518894 0 0 0
99 1 2.023216935163089 10.626070984615417 2.136914448806335 0 0 0
226 1 1.9499028009736659 12.349479249561796 3.8467054551403193 0 0 0
229 1 3.5097821278737404 10.589848803150938 4.049193967590703 0 0 0
104 1 3.862891141626277 12.139226838534814 2.308589206381563 0 0 0
225 1 0.7462825685876892 10.493573640583273 3.972130284117931 0 0 0
507 1 22.394201282211288 10.623962111851974 12.950523603560255 0 0 0
131 1 2.341760657961002 0.5644499615769117 6.460558400749417 0 0 0
26 1 22.410444079640786 1.8848234718182255 0.7161159897238059 0 0 0
407 1 19.449391420357518 0.8154151983465652 12.369167450347337 0 0 0
105 1 7.022766197406429 10.69938567040958 0.6559576235965308 0 0 0
103 1 5.502686981906396 10.73885729449966 2.231656106487601 0 0 0
108 1 6.996933523434791 12.268878267048343 2.212618368678566 0 0 0
230 1 5.420273236238115 12.044858293355272 4.1842489562142955 0 0 0
233 1 7.19399853247699 10.634353055718295 4.057353297041847 0 0 0
22 1 19.35075455102849 2.4177225451916895 0.7369076200189987 0 0 0
380 1 20.525147699498064 10.648324371187922 11.233176669408916 0 0 0
107 1 8.917166704662652 11.02221124157534 2.0519910144468048 0 0 0
112 1 10.987271829557848 12.308510015782645 2.2938854062849208 0 0 0
234 1 8.811108109283667 12.397261857127457 3.537551786725252 0 0 0
237 1 10.960255677429952 11.25750971694747 4.006935966731453 0 0 0
1437 1 26.016665987281783 13.884850174534533 12.598257281624132 0 0 0
111 1 12.371081021056968 11.047538192327275 2.063630531603348 0 0 0
238 1 12.663350201561625 12.553976742628576 3.8382181217205114 0 0 0
116 1 14.371168644891144 12.839867429302153 1.8429374873311477 0 0 0
241 1 14.172585032568868 11.118681631309725 3.6956746805585294 0 0 0
115 1 16.124001808657884 10.7913885798089 2.236573988872146 0 0 0
263 1 5.833311157668728 0.717294819554112 9.24387154400077 0 0 0
393 1 7.438684400186827 0.6264734170002524 11.051992830538818 0 0 0
403 1 15.804664962998945 0.7346757631362315 12.793911047386727 0 0 0
242 1 15.733046694322129 12.629207718386992 3.855915514944053 0 0 0
120 1 17.687755344791306 12.44921472235329 2.1748215507206314 0 0 0
245 1 17.72816730207768 10.846481090288455 3.786362308634069 0 0 0
246 1 19.177864159720986 12.323529423063484 3.7484814416516286 0 0 0
119 1 19.435854804427642 10.523341266770213 1.9840620412234233 0 0 0
279 1 19.401584089095866 0.8770009946015039 8.755964636593973 0 0 0
1051 1 22.797638945942836 14.137410806839483 1.9480916870582892 0 0 0
630 1 19.55343971718012 14.056065852257978 12.806387665520182 0 0 0
124 1 21.204681984117833 12.09789778729407 2.1063389947290805 0 0 0
249 1 21.120834569688963 10.598546477442566 3.587782534300804 0 0 0
250 1 22.792146614422844 12.463405499205237 3.6035350829999495 0 0 0
128 1 22.685652810624045 10.34447165036493 1.87710389341147 0 0 0
3 1 2.719140810652935 0.6215165837306941 2.3874000583173047 0 0 0
100 1 0.6273900197644612 12.418514377207451 2.201641685310242 0 0 0
253 1 24.392854733934033 11.004258250769855 3.4964580010152626 0 0 0
127 1 26.39673037941142 10.703461852912215 2.4357213141158054 0 0 0
254 1 24.7765597046029 12.650864398855143 1.9283778163116714 0 0 0
228 1 25.895814808964502 12.913701170147569 4.0335325709803165 -1 0 0
413 1 24.213508144044134 0.534441895400569 10.994641078109627 0 0 0
1435 1 22.661559740739403 11.958856374284414 11.186530337075665 0 0 0
277 1 17.89246598384332 0.659200764466964 7.330651024060523 0 0 0
499 1 16.06851934435536 10.580432496451012 12.62792019497438 0 0 0
118 1 19.44490928649856 12.700937234399241 0.6735017973394267 0 0 0
136 1 4.034854496528287 2.402000355723124 6.065489972505037 0 0 0
163 1 2.3407453085662113 4.184851984613653 6.29217883725042 0 0 0
258 1 2.455431687302089 2.497854674761536 7.586976137633109 0 0 0
291 1 2.459457541274225 3.9969350087535367 9.085115416040965 0 0 0
264 1 4.032684073396747 2.051818080140803 8.968573774804307 0 0 0
293 1 4.287439706674289 4.169805664310371 7.594231176873683 0 0 0
132 1 0.5415149961506835 2.6260430492270403 5.744334872859309 0 0 0
260 1 27.637730550498254 2.556114387249199 8.97172466452261 -1 0 0
503 1 18.94352784092465 10.738735292476044 12.857900991900628 0 0 0
498 1 16.20554027568567 12.643715257890547 10.748220764183674 0 0 0
140 1 7.434209253753736 2.1790438323267804 5.755229002825645 0 0 0
167 1 5.877906241449983 3.7207603892002403 5.465799888325012 0 0 0
262 1 5.54342225831441 2.169744935857746 7.4405232877170615 0 0 0
297 1 7.009382854795409 3.8245944286267357 7.243570573523068 0 0 0
295 1 5.3298975598616405 3.76612104646901 9.282187064821112 0 0 0
268 1 7.379307469080888 2.2428992050304677 9.07512124176942 0 0 0
1035 1 8.874474993217234 13.996719060254708 1.771855435153023 0 0 0
171 1 9.21215173797819 4.398720789797011 6.018300269446687 0 0 0
144 1 10.960609856054923 2.3317542470564487 6.300462348771656 0 0 0
266 1 8.709726763814047 2.338278423774987 7.35062372194104 0 0 0
301 1 10.850741473450979 4.437657363513694 7.579786784823774 0 0 0
299 1 9.000121885057016 4.17089661454606 8.884301688586136 0 0 0
272 1 10.544605318432149 2.740153534893072 8.900283636265929 0 0 0
267 1 8.88476362607484 0.6619614232006148 9.196147185065902 0 0 0
270 1 12.591057205928866 2.537226818080338 7.623957392165877 0 0 0
175 1 12.40798229646602 4.107470739076898 5.609773663414991 0 0 0
148 1 13.705475668356144 2.541525095215699 5.650451173995553 0 0 0
303 1 12.75559015767252 4.189210970693611 9.005232910921094 0 0 0
305 1 14.28538677510217 3.9713875165171726 7.1281763793796475 0 0 0
276 1 14.238154473418138 2.3012729878787495 9.265464022598563 0 0 0
179 1 15.499768435272996 3.73077911736846 5.28390263400549 0 0 0
307 1 16.28662185888519 3.942684593012499 9.074010560896768 0 0 0
504 1 17.56208985042481 12.321822002582168 12.703928114228527 0 0 0
389 1 3.7117073251485744 0.6366812099065555 10.929858484617997 0 0 0
1165 1 10.372230788925872 14.060371169790448 3.9295969652563456 0 0 0
274 1 15.853347323047837 2.398963957383689 7.748230103848871 0 0 0
183 1 19.439255185201493 3.734336669491384 5.402793523665003 0 0 0
152 1 17.591709578926114 1.9977401761938354 5.368132593103203 0 0 0
309 1 17.720342335889843 3.7845567784765874 6.8348716436969426 0 0 0
278 1 19.487899293253893 2.1915606095294997 6.90232295513014 0 0 0
280 1 17.63029077616597 2.127678954151749 9.13385409951257 0 0 0
502 1 19.20524903605359 12.268273459788272 10.756107624517439 0 0 0
156 1 21.423937045932394 2.2792879548054197 5.292294183011669 0 0 0
282 1 22.783588205088673 2.3231359142594843 7.095284459626276 0 0 0
313 1 21.346985411374547 3.87623762024843 7.3159243520791595 0 0 0
284 1 21.054431542610953 2.08738073502216 8.755551971496526 0 0 0
314 1 22.740671646079548 3.9265367530809807 5.308851774488879 0 0 0
315 1 22.8395400287623 3.9627026782744603 9.27547523284885 0 0 0
501 1 17.543299190767492 10.938556244834741 11.062738475606483 0 0 0
1287 1 5.564956737326854 13.959782975442694 9.359338950568066 0 0 0
289 1 27.616617550769917 4.192949070757546 7.323385437712872 -1 0 0
317 1 24.273976236766607 4.059759010962722 7.021677482068132 0 0 0
160 1 24.563209289886288 2.104800184416889 5.39414211626388 0 0 0
288 1 24.292376912587333 2.0494440117322927 8.917528223255381 0 0 0
191 1 25.89760672117592 3.8561685308991085 5.653625144529555 0 0 0
286 1 25.8868881194714 2.2964666515507375 7.366480258262256 0 0 0
319 1 25.883764657660944 3.6412570073931354 8.907118442181734 0 0 0
290 1 2.1270321943620925 5.834331619240918 7.8630480043180935 0 0 0
195 1 2.577867207067907 7.104366689117856 5.777420174207926 0 0 0
323 1 1.9091030533193905 7.443636559186087 9.351455967451086 0 0 0
325 1 3.9646890050123544 7.250421243833022 7.6441152741673895 0 0 0
168 1 4.254410820876233 5.4462017380747225 5.83061271672304 0 0 0
322 1 1.9418643229036199 8.976988811085098 7.4540609183447835 0 0 0
200 1 4.188218228385319 9.07260169519983 5.923674007352532 0 0 0
296 1 4.126859524199047 5.822294996676131 9.41459734391255 0 0 0
328 1 3.86088386726323 9.047867200246216 9.009467021878528 0 0 0
321 1 27.7289972747333 7.158156299111587 7.333028290876348 -1 0 0
196 1 0.6142792555529384 8.68975869320472 5.727216635815941 0 0 0
172 1 7.710033429355174 5.996040806069946 5.876454430961534 0 0 0
294 1 5.77288428397389 5.869704988403111 7.293895040870329 0 0 0
300 1 7.236801410744619 5.9024983648237885 9.510922575355398 0 0 0
199 1 5.712303330435623 7.400602684368201 5.873518798499584 0 0 0
329 1 7.827166491168967 7.218514409276257 7.930581678106881 0 0 0
204 1 7.628558878831101 9.058275248398228 5.7175692896198616 0 0 0
332 1 7.124383459726572 9.484679551624666 9.079712567334035 0 0 0
327 1 5.8619145043844085 7.388274431207624 8.893646408774982 0 0 0
326 1 5.918508445150958 8.971828858896403 7.460684998738768 0 0 0
298 1 9.748029430360935 6.413665597011314 7.971279428916251 0 0 0
304 1 11.386992677977611 6.052109699797234 9.298521586423908 0 0 0
176 1 11.06840133603589 6.0959085925318695 5.359586586108985 0 0 0
203 1 9.152042845338094 7.300364787574666 5.3958234146134805 0 0 0
333 1 11.119942294582053 7.596435578724772 7.044799992018529 0 0 0
330 1 9.050126169167918 8.752164396688258 7.141409399766476 0 0 0
331 1 9.054167549189161 8.277094750063972 9.287651986182867 0 0 0
336 1 10.950370224516965 9.40451222857045 8.82874760204473 0 0 0
208 1 10.875008695285816 9.516644681193124 5.583372701422444 0 0 0
207 1 13.292213251603933 7.801352810959704 5.442050278542335 0 0 0
462 1 12.663593548593708 7.824141874021222 8.950482302166316 0 0 0
302 1 12.680298460724828 6.010869913142721 7.2179203949638575 0 0 0
334 1 12.576562429137919 9.278628268597833 7.1988016239933375 0 0 0
212 1 14.358450485011645 9.886619154554229 5.40909030907014 0 0 0
180 1 14.247336745634264 5.732592730257326 5.401288899850269 0 0 0
338 1 14.357438720316484 7.748073775234594 7.499946811589466 0 0 0
335 1 14.545579261742493 5.901036327891538 8.586542363862954 0 0 0
337 1 15.828039248577578 7.596385506736176 5.657404319498191 0 0 0
339 1 15.71299811925456 9.562816748935193 7.087983586877092 0 0 0
308 1 16.13091210013154 7.364086284497829 9.051935278934234 0 0 0
306 1 15.82729350842736 5.901449824248118 7.049336402225807 0 0 0
184 1 17.429820811053467 5.707841555813309 5.485873793638433 0 0 0
215 1 19.139003226893635 7.141036884188743 5.77173225356992 0 0 0
310 1 19.603743495669548 5.163445936091582 7.258453275528325 0 0 0
341 1 17.29428622771899 7.625226066281572 7.069478453305151 0 0 0
342 1 19.10380511417972 8.897094156586428 6.878969033916866 0 0 0
312 1 17.56398538208984 5.523311561505844 8.62224583319738 0 0 0
343 1 19.29460923016757 7.435751121355214 8.761079644471698 0 0 0
216 1 17.521536745522166 9.377195036571397 5.710014248354739 0 0 0
344 1 17.551927418120844 9.193704820983118 8.754413455727398 0 0 0
188 1 21.154891956319943 5.845583414098565 5.633694783952531 0 0 0
220 1 22.751743355881253 7.285494317067169 5.20967703761323 0 0 0
345 1 20.889065041013254 7.490360306237087 7.440361586648534 0 0 0
347 1 22.659253491262625 5.651293964328459 7.0992346362007686 0 0 0
474 1 22.38294295188062 7.484737265634375 9.002682276545327 0 0 0
348 1 20.529059089066852 9.226013266989487 9.071540867734361 0 0 0
214 1 21.478110057546402 8.9009108463165 5.524258400514651 0 0 0
316 1 21.317466561733283 5.508168378977807 8.853057049958789 0 0 0
346 1 22.6300620661144 9.061644437862318 7.489305089288652 0 0 0
324 1 27.53791563019712 9.09908097378751 8.827298173638418 -1 0 0
164 1 0.5971912912452146 5.6827395960092435 5.789109016704736 0 0 0
292 1 27.696262947051913 5.592359352429159 9.237476248198629 -1 0 0
224 1 24.425028117980254 9.222758654739101 5.573736013951381 0 0 0
349 1 24.029440741090404 8.758775654166103 9.232062134548805 0 0 0
223 1 26.24094125918795 7.33793068956561 5.26804348856031 0 0 0
219 1 24.244087039511584 7.588465889338421 7.004262478308485 0 0 0
192 1 24.680580659488147 5.560913798365091 5.550398888830519 0 0 0
318 1 25.956040423024906 5.76951273598632 7.620608363650792 0 0 0
351 1 25.940164900160696 7.468879356330069 8.963759125106092 0 0 0
350 1 26.21632779128755 9.041317716815879 7.108869985793443 0 0 0
320 1 24.289871914241832 5.695494445940832 8.759383579440142 0 0 0
618 1 9.197851594649189 12.604481481276363 13.581215908573355 0 0 0
232 1 3.4580481662316394 12.192997660058023 5.704439033452541 0 0 0
227 1 1.4453997545626955 10.588464985296772 6.002794262983707 0 0 0
354 1 1.795072583299123 12.37618593704765 7.42636355252185 0 0 0
355 1 1.9682532424030077 10.556219363859126 9.356835650562555 0 0 0
357 1 3.5526384064010923 10.603794830338037 7.423018213167011 0 0 0
360 1 3.789277107771094 12.213832546878729 9.233612642157222 0 0 0
383 1 27.177247513855814 11.977241238824726 9.17764813440909 0 0 0
625 1 13.033987339975655 10.72373715614092 12.664530247507086 0 0 0
149 1 17.480433118675087 0.6480575043880461 3.506984176968146 0 0 0
236 1 7.360761224073507 12.414928301483753 5.82875519347528 0 0 0
231 1 5.773262383059286 10.90797543787888 5.955478499519772 0 0 0
358 1 5.203307804483465 12.341796160625771 7.368936421524074 0 0 0
361 1 7.781677666444041 10.800424403917573 7.298334839215832 0 0 0
359 1 5.36980532733178 10.678025207491025 8.716332535580657 0 0 0
364 1 6.973990789336689 12.10257138326064 8.899628537164741 0 0 0
235 1 9.103663982578222 10.870952600668875 5.568069467116456 0 0 0
240 1 10.478899584041052 12.802474321959796 5.544415656421862 0 0 0
363 1 9.239579515979027 10.860812204264668 9.021699261535984 0 0 0
362 1 9.046456006843664 12.748005760609914 7.541527354538388 0 0 0
365 1 10.835809607303238 11.018905345881901 7.273856302356457 0 0 0
368 1 10.82525299989728 12.854220160731877 9.310696623259672 0 0 0
271 1 12.60998403403641 0.727999693538203 9.296988613744166 0 0 0
497 1 12.75250840463766 12.099304452939824 11.307488276214988 0 0 0
340 1 14.487411680374244 9.209269890464821 8.962914231119573 0 0 0
367 1 12.631923531015175 10.731699833412288 9.504605386428779 0 0 0
366 1 12.62462519871138 12.755768938977447 7.68317965486983 0 0 0
239 1 12.522189708030075 11.21668971374807 5.769384247034393 0 0 0
244 1 14.319834989225173 12.673577476400402 5.615755021877842 0 0 0
369 1 14.172662878895542 11.040085291695762 7.3028086722583305 0 0 0
372 1 14.593554874736512 12.155673841908369 9.214679110790557 0 0 0
243 1 16.357620285863817 11.094104000026991 5.498424516404711 0 0 0
370 1 16.15772970842107 12.596345036492183 7.12767332476981 0 0 0
500 1 14.733537326300137 12.469450298448368 13.071500743559696 0 0 0
1171 1 16.26844570061714 14.0199854448273 5.555468799057504 0 0 0
622 1 14.579328076603677 10.969922210059632 10.868403330229114 0 0 0
557 1 11.325501868572287 4.003052573360616 14.149914185594636 0 0 0
371 1 16.29138343152796 10.577763790607516 8.79766813222797 0 0 0
248 1 17.83050948822615 12.54977802691686 5.539800349099805 0 0 0
376 1 17.712423379678608 12.372541698963163 9.124660556333414 0 0 0
247 1 19.828553028382796 10.622117292231682 5.404371589385377 0 0 0
373 1 18.207697463367282 10.839925148371368 6.9876769761717625 0 0 0
374 1 19.466712745587756 12.325861308736691 7.441844982588468 0 0 0
375 1 19.09596612662304 10.837053939239716 9.140773031291623 0 0 0
485 1 3.786797274930332 10.823431169938596 10.909384780190654 0 0 0
377 1 21.326433236419593 11.785703366505519 9.296401297301681 0 0 0
251 1 22.47852854434516 10.936828394888025 5.758613635964412 0 0 0
1177 1 20.73047477126693 12.415843845187567 5.31844887850272 0 0 0
379 1 23.05595769796579 10.55946196333897 9.041835446757498 0 0 0
252 1 20.898762778415918 10.48292476509792 7.178555092264097 0 0 0
378 1 22.80713601823575 12.368169319666308 7.136041597727705 0 0 0
411 1 22.168882951821047 0.7203093897480861 12.598853850584158 0 0 0
489 1 7.443464927355517 10.557195998747332 10.84217791889009 0 0 0
353 1 27.150466927302137 11.009426914787872 7.4462418697233055 -1 0 0
1281 1 27.48763208594657 12.513905176781035 5.579578697817085 -1 0 0
352 1 25.53394281780384 10.504208857599302 8.816945527012749 0 0 0
384 1 24.282404608248733 12.294301117427896 9.338631023671892 0 0 0
381 1 24.419147960461586 10.648743444685437 7.264472945909081 0 0 0
256 1 24.18197936008264 12.330713060719951 5.408087661008753 0 0 0
255 1 25.870401328726427 11.028172153645317 5.632676293931001 0 0 0
382 1 25.4952625419936 12.90835456362314 7.464621850478878 0 0 0
493 1 10.943951073894747 11.006647996580485 10.845579268375566 0 0 0
482 1 1.9743186722758983 12.55136153550261 10.533387139621322 0 0 0
386 1 2.470987257340549 2.1581968181995257 10.627594555529932 0 0 0
419 1 2.1480581082366164 3.8346042773968865 12.381255498308105 0 0 0
421 1 3.9357503675921612 3.9479326334879774 10.9809616554037 0 0 0
392 1 4.104597072370245 2.229989117194665 12.611868396481805 0 0 0
417 1 0.7847522250233432 3.9523325666267763 10.47294115813952 0 0 0
494 1 10.793021383554827 11.936246274208369 12.679665460928915 0 0 0
487 1 5.645685891097878 10.890735403970163 12.800025959979818 0 0 0
1047 1 19.327251738736507 14.162714946093777 2.0154767431841623 0 0 0
390 1 5.47131286868949 2.0058316034029406 11.133800912560051 0 0 0
396 1 7.973841396914306 2.716753366923255 12.485305288325886 0 0 0
423 1 5.878379121448471 3.71669224376802 12.889053889428796 0 0 0
425 1 7.572972927279924 3.750900801025592 10.488761612364627 0 0 0
492 1 7.356984276006049 12.285187293988056 12.366942888744997 0 0 0
46 1 12.229379361708625 5.8404361563791465 0.5731217562795327 0 0 0
273 1 14.33226303629423 0.5664486460827418 7.475796351101358 0 0 0
491 1 9.14827015857517 10.205653468030787 12.84763380352134 0 0 0
394 1 9.195073318518288 2.4631294337910434 10.825413806791252 0 0 0
400 1 10.800764355165994 2.1743565112304544 12.780376260620688 0 0 0
427 1 9.40364330559696 4.215854110436702 12.331683749230045 0 0 0
429 1 11.047103060989294 4.075123345669379 10.497808088462563 0 0 0
1291 1 8.589537841900723 13.970707666259967 9.433041278672857 0 0 0
486 1 5.601736329739489 12.272127371856845 10.95700843835788 0 0 0
398 1 12.125553408703684 2.1645369438078434 10.976120246615432 0 0 0
431 1 12.534375441971484 4.1552841487674845 12.001264867239989 0 0 0
404 1 14.149285081664566 2.3001922465083497 12.273965948453425 0 0 0
433 1 14.497503314071677 3.7475083389771253 10.72757983810641 0 0 0
435 1 15.75325468648627 3.8104670064842847 12.537927347658568 0 0 0
402 1 16.26242438776906 2.1340952634625854 10.8267750690663 0 0 0
114 1 16.088395887740898 12.39530684598625 0.6601571097430385 0 0 0
1293 1 11.01477030069503 14.094409991060266 7.417568155792218 0 0 0
311 1 19.353394638761817 4.166255627101809 8.929529306540084 0 0 0
408 1 17.603686551361264 2.54546047203685 12.706723723262245 0 0 0
437 1 17.593278936632768 4.31278610307656 10.39027956215558 0 0 0
439 1 19.13899560267485 4.004092654491066 11.966360633897985 0 0 0
406 1 19.652475648708435 2.4112345777925497 10.622955316511241 0 0 0
490 1 9.215393457998362 12.269636278994424 10.916408967082244 0 0 0
1039 1 12.384891697346784 14.019502665960626 2.075210011726374 0 0 0
488 1 2.2286448822721443 10.533765578931247 12.596364449577164 0 0 0
410 1 22.4057479258967 1.9267383014949218 10.391898765026463 0 0 0
412 1 21.237651094989587 2.367577923449911 12.453143294339137 0 0 0
441 1 21.132185763111405 4.112060644958392 10.707119852104256 0 0 0
443 1 22.73983977428873 3.7141473639820877 12.206011693147298 0 0 0
610 1 3.491415860341521 12.541955860348216 12.555241891907688 0 0 0
388 1 27.60921086133013 2.4652220464456915 12.44957706007447 -1 0 0
416 1 24.25234939028792 2.150794702275144 12.414919420354709 0 0 0
445 1 24.492284639912814 3.7768089226806234 10.72759264935939 0 0 0
414 1 26.11497484157218 2.486586202565422 10.607644292653001 0 0 0
447 1 25.780576461972267 4.141833898048613 12.565206304197254 0 0 0
1157 1 3.717432735876982 14.076837038593258 4.05632615970287 0 0 0
456 1 3.688433016835068 9.086261161976704 12.483927042837761 0 0 0
418 1 2.379260546564911 5.524430613969036 10.678334790703289 0 0 0
451 1 2.1315715331715657 7.400886035747076 12.586269802361436 0 0 0
424 1 3.850511267669742 5.477510002995667 12.644281423048428 0 0 0
450 1 2.0006719498060983 8.767313542086939 11.077558195035085 0 0 0
453 1 4.127381471996944 7.722755390743449 10.706501312320704 0 0 0
420 1 0.6028591508362847 5.497389335854968 12.220821119446423 0 0 0
269 1 10.68450416824515 0.6854741491823083 7.892221195295961 0 0 0
454 1 5.442114205221872 9.306434954875662 10.692757954738843 0 0 0
428 1 7.623601483618965 5.874838962093599 12.519413162787057 0 0 0
422 1 5.717373273000753 5.543398514511945 11.152321868895186 0 0 0
455 1 5.320987334231726 7.500440342930927 12.84777833108056 0 0 0
457 1 7.160053951519403 7.844335032402535 11.017165704700915 0 0 0
460 1 7.207726198745599 9.037558711835851 12.75069702317744 0 0 0
385 1 0.6228350068938227 0.9032282227248938 10.747950439561775 0 0 0
1289 1 7.210402869076455 13.91507856559354 7.772268342433094 0 0 0
1413 1 3.775255364154483 13.974812109435822 10.698890943940986 0 0 0
464 1 11.231823088701526 9.18848582013764 12.693621842728497 0 0 0
432 1 11.093589885457341 5.86694142972969 12.042204678402998 0 0 0
426 1 9.259938630812776 5.601291294507872 10.775449444929857 0 0 0
459 1 9.433371745984225 7.697994259464003 12.500039165013593 0 0 0
461 1 11.15887738586886 7.7362544715092945 10.601748203066673 0 0 0
458 1 9.376459277098983 9.522398035825615 11.081326390231547 0 0 0
1159 1 5.488819552822559 13.956782386577828 5.78788958071375 0 0 0
481 1 0.5248127006188654 10.462574554741979 10.775964623810236 0 0 0
549 1 3.6697583976380086 3.7358232835672216 13.934167039501382 0 0 0
590 1 12.76401565694629 7.564755573278993 12.321932684246764 0 0 0
430 1 13.090147303595872 6.057671214067334 10.465278754777843 0 0 0
463 1 13.168664439060878 9.36341564812536 10.805471265683863 0 0 0
436 1 14.025087887982714 5.407287393638384 12.39653469920855 0 0 0
468 1 14.49517793296998 9.211514701958961 12.576512227586955 0 0 0
465 1 14.454321980238817 7.780273980011046 10.9571699973357 0 0 0
467 1 16.081717253313585 7.030705194098308 12.602510544692747 0 0 0
466 1 16.171901616701007 9.158746358287535 10.690482762236758 0 0 0