LAMMPS data file via write_data, version 29 Oct 2020, timestep = 300000

2048 atoms
1 atom types

0.2895814605645537 28.062418539434738 xlo xhi
0.2895814605645537 28.062418539434738 ylo yhi
0.2895814605645537 28.062418539434738 zlo zhi

Masses

1 58.933

Atoms # atomic

1432 1 23.86476171330591 10.623884888686542 0.6928918107446775 0 1 1
762 1 3.9187970226158013 1.228153363123972 7.1141580241990345 -1 1 2
975 1 4.052974221157681 4.471846320538204 2.8604881626412646 0 0 0
504 1 12.207027102268674 1.673542275264788 1.433431735566028 0 2 2
1276 1 1.866496787464266 3.182778127558553 2.317459966690655 3 4 3
574 1 3.174371042646953 4.511571290593815 0.8183655508794114 -1 -3 1
1720 1 27.910173424136993 5.685882315908452 1.5780227317376647 -4 0 1
563 1 16.82446862181515 13.563656295303826 6.47914986165572 -1 1 1
1410 1 27.775701110783746 1.2085423426694621 2.9085389272722812 -2 1 0
1268 1 4.64091032642358 1.2585210366399249 13.341136396590688 3 0 1
161 1 5.005013912492926 1.5597519721408915 3.946927754975526 1 1 -2
200 1 7.1066757414733095 1.9702000624494906 2.843011828022039 0 1 1
809 1 9.163076192227878 2.5366964993046417 3.9807401404092264 1 -1 0
562 1 8.000871633052878 3.8341417700167484 1.934025497013206 -1 2 1
1346 1 5.623633790920096 1.1850086357150995 5.9808263784569 -1 1 0
1543 1 6.586966180368988 3.4890492268490574 4.623803054252081 2 1 1
954 1 13.742654477667946 11.16281493079081 0.6323061868830412 4 0 -1
1826 1 27.358373908592775 2.064054121352439 13.47768824659165 -2 0 2
366 1 2.6414999677755673 8.917995620372144 0.5164066385768076 2 -1 1
75 1 7.74371802674194 1.1841656385859485 4.924717814845233 0 2 2
690 1 20.001847109277385 11.894913141430674 13.865423860901837 0 0 0
857 1 10.628605277883944 0.6127729858046871 2.6204888444443966 -1 -1 1
1934 1 0.8351949130181299 3.8180230909403514 0.34518665307477314 1 2 0
7 1 10.19179938571572 3.8184640618832115 5.902639914724393 0 -1 0
1735 1 11.812902380870373 2.0139203301864796 3.9611564881241796 -1 3 -1
1844 1 7.087946745988961 13.960923480575296 6.400144479907767 1 1 0
1529 1 20.475392578509165 0.5485452842860754 9.580687845385937 0 2 -1
598 1 10.466687531629834 3.2784980707757887 2.53609436970046 1 1 -1
1677 1 8.642039784092944 0.9507167104732475 1.7502136344217842 1 1 1
1241 1 11.341269623871707 13.693732971601154 4.085584539471913 2 -2 0
1429 1 13.18583472082815 0.5007059648230006 3.547266465785131 -1 0 -1
855 1 11.474324605190686 4.264215474421654 4.168679036138328 0 2 0
1298 1 16.32458656731272 1.8968356749239423 6.042492295195072 -1 -1 0
1995 1 18.825128553009037 13.443312806979534 10.590269004175331 3 1 1
1472 1 14.404732026494552 2.059506834862235 1.94869753682424 -1 0 2
1573 1 14.214660035487215 4.972374783171465 1.259540396481647 -2 1 -1
1872 1 12.679901549810346 0.39808825712558715 6.202727210608698 1 0 1
1922 1 17.39722147767622 3.8159689547146995 3.7993928033235482 -2 -3 3
1178 1 19.222003484142256 2.816628485410494 2.8598481628284866 -1 -1 -2
628 1 18.322485594102233 2.472233752560424 5.4850441011043625 -2 3 4
1784 1 16.04080644473761 4.584488338680845 1.9919800121851483 -2 -2 0
1680 1 26.56657681801847 13.297228341728774 2.201175018333613 1 -1 0
1212 1 20.624351289308095 1.5017494727450957 2.027326874927943 1 0 1
1393 1 21.62946638314665 3.0605028695908407 0.9680530455437584 0 -1 2
1833 1 21.13863961437267 2.0602658827794365 4.2469262222166755 1 -1 -1
843 1 21.31973927050266 12.297599342795618 10.663062692661446 -2 0 1
1032 1 23.583374636077558 1.9498259500875073 1.9631125396333682 -1 0 0
987 1 7.116021763252458 8.563713025689058 1.0090777709462957 0 2 1
2033 1 23.041590246670324 3.3031420664133373 5.005498599237094 1 0 0
26 1 22.797166504772264 3.8311609299027585 2.660908238633386 2 -1 0
2039 1 13.846228637917482 13.247093866819718 13.056454229111713 1 2 -1
2015 1 26.979891605810693 12.813393776149749 9.731335455097247 0 3 1
36 1 1.308677206420131 0.8239553802506545 1.0920609737109892 0 3 2
970 1 25.23607862343799 1.866694564705688 0.6820640949216796 -2 -1 1
1541 1 27.369525261189423 3.088574821340475 1.9229494115787755 -2 -1 -1
86 1 25.005605604506506 3.11121838678177 3.0409718174806644 3 5 3
571 1 25.691267923328475 1.0987754656861901 2.5905063883898376 1 1 1
2025 1 10.175675228914054 2.436436866761074 14.048656198548972 2 0 -2
1756 1 26.664009699243366 8.606640063034652 2.7116158020521204 -1 -1 3
1052 1 22.605193264958842 12.821426826478115 8.456959956484114 0 1 -2
429 1 4.77997939663124 8.609344116098901 1.515356065165552 -2 1 0
547 1 1.0664805678290485 9.875574244153384 2.3100649669545805 -3 -1 -2
1810 1 3.299538706714318 10.573603843447847 2.980968976694448 1 -2 1
1139 1 3.0939986975585376 6.737669886900784 5.182334660172602 3 2 0
1089 1 2.1704319138077146 5.761832523290642 3.332314807194552 1 -2 -2
1700 1 0.3814752477666948 7.170726188755481 3.675656563267413 -4 1 1
141 1 2.4478809197067317 7.830144246971229 3.0358995003556477 3 1 -1
322 1 4.6407844309139294 4.688324900387548 5.177261606771105 -3 -1 2
1733 1 6.040373210199657 6.59918057005862 1.685110551122968 2 0 1
396 1 5.564865447912154 3.014577248617366 1.679868252365388 1 0 1
871 1 7.862327007788083 6.748632595619 3.592604964115262 0 1 1
774 1 7.965702217177572 9.569548037696984 2.8909446864470136 1 0 0
675 1 6.222568726657587 5.313512819284438 3.3582079273287007 1 -1 2
127 1 7.025946240649224 10.809196290492492 4.661929708048297 0 1 2
886 1 6.374140319704439 8.022783352240221 3.5221937993471024 0 -2 2
856 1 8.64794944146615 4.774723874246708 4.275951102071494 1 2 1
1479 1 7.731796064226492 8.302919614850499 5.369659919515225 1 4 3
241 1 10.625641425158618 6.109183503725804 5.174272304070244 2 2 -1
419 1 10.358033478468629 7.618980268810054 3.6752321075295664 -2 0 1
1371 1 9.967218828463569 5.5203370150527595 2.9382712096993493 -1 2 0
716 1 8.390002264202208 6.261123638451473 1.315091884743698 1 -2 1
324 1 9.479957057538723 8.55787173734075 1.9175631158275432 -1 2 2
1534 1 2.7367626271523444 0.5392525714873646 3.03755312054288 4 -1 0
1444 1 18.399638751234036 12.910268904505445 12.744539580763075 -4 -1 -1
490 1 12.874258016647676 6.312856444769881 2.725711459319095 1 0 0
964 1 12.040572036414568 5.103924099808373 1.3696434182544404 -2 0 3
868 1 13.144972088729235 3.588279604437998 3.0279875791899453 -1 -2 1
1251 1 15.319393949453522 6.887614375080471 2.253608900540922 2 -4 -2
80 1 11.666787869069456 8.91860845065701 4.824644180703554 -2 -2 -1
997 1 13.192345664967583 9.197922872731247 12.649119092884234 -2 -2 0
1095 1 12.010956547211956 8.593257166023252 2.3927283467053533 -1 1 -1
178 1 17.948045795961825 8.441913235044224 1.1046708807014278 1 0 1
2008 1 10.881125708888652 0.3840272640310276 10.298216882553826 -1 3 4
1907 1 15.731960006236179 4.08274014198339 5.458550791176581 -1 1 -2
961 1 16.773977454795144 5.957219461004814 4.235303681410052 -2 -1 2
1384 1 18.455118703266763 7.751943116229337 4.642605063359705 0 -1 1
901 1 18.81746022764309 5.654252203099954 3.548048644643609 -1 -1 0
329 1 16.117728350008278 8.801212396992028 3.3099644207592576 1 2 4
849 1 17.51365002797786 6.499400798906823 1.6372357779140798 1 0 0
1575 1 12.397027877845286 12.476920306768967 5.520753749787597 0 -2 3
1434 1 23.846774057746615 6.278240528052776 1.3919610250989156 -1 0 0
917 1 21.488411450287366 6.4521524427870505 2.3306035129274734 0 -1 0
1904 1 20.722695469693832 6.725252781681342 4.170124725576577 -1 -1 4
266 1 19.740304516376305 7.711239836875667 2.3652882436898697 0 0 -1
1775 1 24.019621653217882 7.489570065083259 4.848042057591344 0 1 3
264 1 17.730300655716277 0.3032557194547465 6.113346961036002 -1 0 -3
1807 1 24.46393387385625 13.538556625296849 12.083025998894014 1 0 2
606 1 12.126141638412902 0.31079775707645807 12.548363459790444 1 4 1
1579 1 2.0658152555680647 0.46737871496942596 5.683487196775515 2 0 -1
1423 1 25.615490328818403 9.141087057061872 0.9137566872225368 -3 -1 0
1679 1 24.581408287642297 7.923637014662045 2.8184911681195173 -1 -1 0
804 1 8.891890095716304 12.485989434639968 0.5554649257992315 -1 0 1
1083 1 26.015137820960113 6.664353499518641 3.7300712091522232 1 0 -2
1994 1 25.909897889587356 4.90771233834297 1.9715179324623444 0 1 0
1842 1 5.6493413518918025 10.408832661222633 3.088888933662766 1 1 1
335 1 27.893420347021596 12.035494178377911 1.2254117232035753 1 -1 1
237 1 2.4548325592540285 11.979410431625375 1.5314012650982367 1 -1 -1
63 1 0.9719970544772302 11.623753998735223 3.348813604636418 1 -1 2
573 1 3.037148159944838 13.760693465469414 3.3015205512354533 -1 -2 2
1698 1 27.423441838800052 4.259537988344153 13.767347242207057 0 2 1
457 1 7.381512156781377 13.790994139609953 1.8731438015391848 0 1 -1
1438 1 8.411302283737445 11.901328472126364 3.4421472754910902 0 1 -1
1363 1 26.225637036344196 0.5458081791646718 4.737739732311518 2 2 -2
1253 1 6.926492467209816 13.194992142588692 4.5327290197767764 -2 0 -2
984 1 5.5474463877195275 9.461545362076551 5.653543603617484 3 -1 1
792 1 7.417071030461433 11.039074475405219 1.3973773572605317 -1 0 1
1820 1 4.407579275684157 10.500979866246356 0.7313005084263247 0 3 3
1953 1 3.801411640163725 13.678751739653638 1.1120768114076585 -1 0 -1
1936 1 19.39200709226794 0.6685686642895714 4.101396797669636 1 2 1
1923 1 9.887361906806946 0.830067436650225 12.22680994425236 1 0 -1
1691 1 10.798437250823032 11.299903280994153 3.9000767563368224 2 1 -3
1055 1 9.63570800113866 9.58668661740759 4.45138110813031 -2 -1 -2
37 1 6.289884838510029 11.92222502702096 6.26573871267452 -1 1 3
1414 1 10.286529701922815 12.97990624558273 2.310899680145031 2 3 -1
1494 1 0.43726963331290347 8.288799379394348 0.8514010938513462 3 -1 -1
267 1 10.234662822020644 2.8394755114192276 0.5127528976995758 1 -3 0
208 1 3.973913169882048 13.81674226306477 13.566609166805186 0 -1 1
1154 1 12.35760089544921 10.870165226183776 2.504498328590207 1 1 1
401 1 15.167395750028643 11.549196208391313 2.904738611156105 -1 -2 0
713 1 14.120601977048077 8.92924561411703 2.0227116038943143 1 -2 0
1590 1 18.69257726138396 14.046362072908504 8.267542072737008 1 -3 0
479 1 14.828404642835633 0.4825624939736528 5.472767236693676 -1 -1 1
216 1 5.689850268893375 4.829170634021337 0.7833593031971766 1 4 2
202 1 14.200752694428129 13.00401969396495 4.285478679706461 1 -2 0
1537 1 12.704159642100862 12.90850500776231 2.676059496761437 -2 0 -2
676 1 15.975892607285864 11.9768322026525 5.426183853087195 1 -1 0
194 1 21.37192063831307 8.743314827651272 3.7878082477073995 -5 1 -1
1335 1 18.343929715141236 10.74778416253731 1.215243439606437 3 1 1
627 1 18.19418281378885 9.539132256784917 3.0296843685643116 0 3 1
1736 1 16.684218516137534 13.475750544114822 3.7335169769228163 1 0 2
29 1 6.838652906244188 0.4042037767643872 12.444377857969718 4 -3 1
1288 1 6.100401822162686 1.3317362605556982 7.915066915768484 1 2 -1
1210 1 22.785555882849373 7.916834124366065 1.9622842401125902 0 0 -1
1654 1 19.83587366613643 12.734640130331426 0.48397102136783043 1 1 -2
438 1 21.58109073136022 10.880139102288451 4.00803608797629 -1 -1 1
1043 1 21.198721708932865 9.975465620612336 1.9174870261687154 0 0 1
1617 1 22.647686309570467 9.482034605548114 5.350041436374 0 1 -3
727 1 19.52061425616194 11.687455538743196 2.6903594438132434 1 -1 -1
236 1 14.638873863693494 14.167725461758678 6.679882310997676 -3 -1 2
384 1 0.5949234530126527 13.462933694889456 5.229765998455911 2 -2 2
1376 1 24.2639825969744 12.342174346931069 2.2737891589363457 -2 0 -2
1368 1 18.721418001127333 0.7675859156223722 1.7906900166521418 -1 1 -1
1017 1 9.906241530530137 10.752962583705559 1.557206892735576 1 2 1
1666 1 26.684279925014927 10.745135353504505 3.228678476329978 0 0 1
495 1 12.026057265770305 13.691530961886823 9.700702141702813 -2 1 -1
1294 1 25.49495570089247 9.478577919569835 4.35300868867009 0 1 1
931 1 23.620127378351476 10.424154801672609 2.739585815660347 0 -2 3
228 1 1.881123545425859 2.053667779544214 4.352486029730356 0 -1 0
147 1 5.547639771231195 2.974911019379012 8.970143230031349 1 2 3
189 1 3.198294740366792 3.0975812196106176 7.2543256917422925 1 1 1
1531 1 27.61637448708661 1.3128979837190504 5.995053908187589 -2 0 -4
1757 1 5.490370698726132 4.502883718349182 11.036422231833901 2 0 1
777 1 3.5905084098404276 2.163574026910825 8.999755257219196 0 1 2
1798 1 25.492695457002256 11.974186308453312 13.091904519871592 -3 2 -2
568 1 7.199174776117256 2.609804744761973 10.655195317066324 0 2 0
300 1 10.20090055109282 5.324852016584543 8.211589404974172 0 -3 2
1753 1 3.65605660484735 2.3866635492780075 5.2562403812140195 4 -2 0
1129 1 7.3672601820622035 4.80180776880078 6.142654557245747 -1 0 -1
1587 1 7.400325833286942 4.449298755645137 8.68422050965284 0 -1 -1
587 1 8.367713447553054 2.74222396339326 6.877127812524039 2 3 2
2001 1 5.66668475794516 3.549136942772466 6.8394584716229145 1 0 -3
704 1 8.034981682771244 1.314895424604087 8.88548670314128 3 -1 0
1762 1 15.163372101656678 0.9279111949291602 3.520844807493536 0 -1 -1
1867 1 9.824778943717495 3.3178733337833504 8.333566404789316 0 3 -3
1581 1 26.72026525577359 13.939960988027497 3.970416207291879 -2 1 2
854 1 12.12581649972571 2.5817862962953932 6.386462334805768 2 1 -1
1231 1 13.279107456975927 11.150705106306619 12.226111323048734 0 1 0
1483 1 10.09933866437662 1.7285312247875717 5.849938830569226 -2 1 2
1201 1 12.06765006485037 5.7562132881616375 9.064972276375643 0 -2 0
97 1 10.67834826116227 3.8145868439602872 10.329845338856739 -2 1 -2
771 1 10.346533303896882 1.2387423033659362 8.018313415828306 -2 2 -2
685 1 25.637991528505694 0.6827452078013341 12.143294764297202 -4 -1 3
1013 1 15.40729820774241 3.129426620047752 3.6118297358688953 2 3 2
686 1 13.721200857075583 2.1881443346966845 5.1121519001746005 0 0 0
890 1 13.295998480963886 3.3926746202639078 8.875482577001808 0 1 -1
1045 1 26.71021280373772 8.008652051464697 12.50798412210634 1 0 -3
761 1 14.645872989542559 3.7063591289995044 7.117480731150052 -1 1 -3
1744 1 12.606509461524704 1.1093301008714507 8.507014117396835 0 -2 -3
1004 1 13.803487090986684 5.805221360608381 7.546993007265394 2 0 2
1765 1 16.757429615257998 1.6378823389085209 8.800459411013861 -1 1 1
785 1 15.216804223079931 2.912379269029737 9.63297960308418 -3 2 0
625 1 14.4345575386549 1.537634445499488 7.6142093708297 -1 2 1
255 1 19.499345113163706 4.112127802213483 7.524967811119732 0 1 0
1830 1 1.8870255656515456 0.9423878400620436 9.856601374791861 -1 0 -2
476 1 16.895610557924286 3.6317734466392078 7.614990316522116 1 0 -1
834 1 17.545974694030484 5.083774219928027 6.039601312068023 2 0 0
1863 1 20.16752158268661 4.036418194703425 4.321720351702633 0 -1 0
1958 1 10.665717444921698 6.999030994854896 1.1503980842190535 -1 -1 0
1662 1 16.573682743017606 7.520905093700344 13.476313731866206 2 0 1
994 1 19.00602758333008 3.2565822956477626 9.786073947892117 1 1 -2
1760 1 19.16643860121885 2.052385219276573 7.836226983814198 2 -1 -2
974 1 20.164343154096514 1.2857159607436819 6.039112916304083 -2 0 1
1769 1 21.180356916872633 3.5061690429910626 6.0924307345714075 -1 -2 2
1652 1 21.306992034788244 1.9733351179295429 8.084597597280052 -3 0 0
608 1 22.37570967268183 5.412326753232957 4.65450573612984 -1 -1 -2
445 1 25.147511800125343 1.4034001384409203 6.650663982123603 -1 -1 1
1192 1 21.965869843313136 5.179077467522804 6.981525690757084 -2 -1 1
1242 1 20.287418617802203 4.538319567489896 1.915832276621106 -2 -1 -1
633 1 23.40173144893501 2.8523421374945133 7.429370164113569 1 2 -1
174 1 27.769526697468613 4.429471720835633 4.031610612008019 0 0 0
697 1 1.086114396563667 3.2870396925654 5.943021400598257 1 0 1
662 1 25.478522292140724 4.364386374123518 4.883355455318026 1 -1 1
799 1 26.975645344587036 5.079554215027618 6.349625408061914 -1 -2 -1
414 1 27.454849520674074 3.0281215811968796 7.985361680945067 0 -3 -2
819 1 22.250849538977924 1.437120542382581 13.716560220160742 -2 0 -1
1919 1 26.982042244193543 2.5332625805480586 4.519428920094478 -1 -3 -1
692 1 3.078867331467346 4.831144114489489 9.495687069107014 1 -2 2
323 1 1.3892390515500586 5.5535423070287875 5.497847587716356 0 -1 0
1293 1 0.3111375178617166 7.373058588863052 6.504171048272529 -2 1 2
877 1 5.177061716534771 5.3201401044699 9.044948346724292 1 1 -1
1021 1 1.5447487866756036 9.229948466731853 4.642775462193856 2 1 -2
1016 1 2.606800949045098 4.070555167024265 4.398720890781138 -1 0 2
180 1 4.460971237159575 6.356627077939583 3.3864102711541677 -2 -1 0
1451 1 1.909362893993879 11.641051310581979 5.337326223787969 0 2 2
709 1 2.2713260125839034 8.353169264197978 6.672348378715538 1 -3 0
27 1 3.8083607398808725 9.475497455895162 8.490724741865112 2 0 -2
1200 1 1.7337670785254904 9.539637612947544 8.39592010423328 2 3 1
112 1 4.549408759860149 7.973600462727894 6.690599846274377 -3 -1 1
607 1 6.203107599193429 5.789972282724632 7.203543852920851 0 0 0
327 1 8.359960873160503 6.817372632490057 8.634548350685517 -2 1 0
357 1 7.020137029334779 6.018694389972191 10.316694948739114 -1 0 -1
177 1 5.2093075243408204 10.980188064155257 9.666830204378893 2 2 1
966 1 3.406718441790669 5.297921379221895 6.863714655035013 -3 2 -1
831 1 5.942787065467176 6.521488047390548 5.155495521298929 0 -1 2
745 1 10.446760152542144 7.699479959275793 8.62575576026863 3 0 -1
1982 1 8.958917209382081 6.471171906655326 6.4326796419421965 3 -2 0
1822 1 9.382059034075175 9.307782572106044 7.769924368650894 0 3 2
1821 1 11.356271805262978 9.81549460093647 8.078057574205111 0 3 -2
312 1 11.768505266333127 7.390082907103066 6.755322345246846 2 2 0
933 1 6.463751385743 7.795118005376485 7.253380486551492 -2 -2 1
1475 1 13.921399213729986 8.511942211857056 6.000469933925032 0 -3 -4
1930 1 13.739430374909036 4.458148242002172 5.329949810311337 0 2 2
448 1 14.520569442957004 5.4816194704056675 3.8248448099934085 1 -1 1
768 1 12.003027428970455 4.977621585332515 6.971875833317751 1 0 0
456 1 12.586626534151549 6.9120825182201155 4.831655938175442 -2 1 1
1300 1 13.31549553479287 9.178738741363025 10.608775026173275 2 1 -1
372 1 15.012217643174436 6.2896416940278606 5.613865333033991 1 2 2
1592 1 16.080542507690488 7.981025419043706 5.695558550766413 1 3 -3
637 1 16.93682668548078 4.114396247724488 10.328315546216098 -2 4 -1
1020 1 16.196042883860997 6.408877812295916 7.259091031523318 5 1 -1
2019 1 20.054920674603764 5.835813691875478 6.02342155844071 -3 3 1
316 1 19.693770879791877 6.6583933099176145 8.771474651173868 -4 -1 1
757 1 19.782241302703824 8.47583946095327 6.294859592418813 -2 -1 3
1743 1 14.883136635163314 8.333298528713838 7.703836406560372 -1 3 1
1988 1 20.461180925641543 9.338760504549414 8.0638957710332 -1 2 0
278 1 18.064915676888177 7.241754204054036 7.253987376290154 -1 0 1
1259 1 24.039989308769385 5.236234067601423 8.166951871387667 0 1 1
582 1 21.67659181666562 7.2953929592768105 5.9641770478688505 0 1 -1
44 1 21.53933364397526 6.757721418215751 7.941784585910811 0 2 -3
514 1 22.117915266356555 8.29164928725138 9.271221609033754 5 -1 -2
813 1 24.513008909846057 5.66952313466867 6.019154006719996 -3 0 -1
1504 1 24.668981055734427 5.460665622431203 10.557675187043664 2 2 1
803 1 20.33569726137371 7.201658891651338 10.893945127680157 1 3 -2
353 1 24.044096172438678 9.947714702153236 8.94287523181712 0 0 -1
1856 1 25.70017915345062 7.5275436427194595 6.139415618590642 0 -1 0
1076 1 1.4477308684327512 4.475104297257226 7.578978047047119 0 0 -3
1616 1 25.322284055965135 3.7013524808809164 6.924737946706353 -1 1 -2
462 1 27.85531823452463 4.880833428742846 9.494532719436364 -2 1 0
1136 1 24.023186890171075 5.637500576547519 3.1964204819501796 0 3 -1
249 1 26.382154132193925 5.883301599617019 8.682913408202085 0 1 -3
62 1 26.423809383849907 8.211176912022172 7.896250048503979 -1 -2 -2
389 1 27.311416870250397 8.842288860149953 4.723726573057746 -3 2 -1
285 1 1.267804905543764 6.820515172974213 8.204122636797731 1 -1 2
1490 1 5.346648252282286 12.146070403659479 1.9535561232947074 -1 -1 -1
346 1 1.4166349631661506 1.6513153491988246 12.143757833346763 0 3 -1
878 1 0.39073572511935595 9.590401862880983 6.62778444224947 4 2 0
105 1 3.1750626723566113 13.253088800469735 5.346583490763487 0 1 1
900 1 2.3398619929316022 10.761526079844627 7.0427153501915996 -1 -5 0
485 1 4.567086311597455 12.101549102495447 4.140691321241036 -2 -1 0
665 1 2.201120542912044 12.551135099410825 7.59366563583953 0 -1 3
1951 1 0.920313299833779 14.004445289110814 8.577056629020662 1 0 1
213 1 4.310387024933063 8.107942070725706 4.253195914151355 1 3 0
519 1 8.214100015507025 10.571799697020456 6.247535612217965 1 -1 2
656 1 4.1582719239435955 11.523342550420383 6.945310671117611 -2 -4 0
1746 1 6.202248269328083 10.149993181373796 7.667323836101593 -2 -2 -1
1260 1 3.58358621951563 10.058271772762533 5.124154144463311 -2 3 1
674 1 24.120501734832338 1.5051985386877238 4.466367362719729 -2 0 2
559 1 17.23438242078887 1.2607932574559966 3.8464710840854544 1 2 2
1501 1 6.087650939886575 12.645801676631997 8.34958277254344 0 0 1
825 1 9.249484340777702 12.676952578423258 5.536710377215403 4 -3 2
1244 1 24.4734442706919 1.8763669979201696 13.58599945262296 -2 3 -1
1186 1 10.011434653993819 8.3258306058985 5.9355404327801375 2 2 3
776 1 10.849793473813746 13.73049213983058 6.331529958998661 -1 -2 2
1888 1 10.886052620100234 10.63069732147064 6.1188462859770985 -1 -2 -2
2013 1 21.664976069968674 12.478570344400612 2.1923485788494936 -2 1 0
1030 1 13.023540735691835 10.15320373067014 6.560123776434729 2 1 -2
1752 1 15.495271965913087 13.822395648454437 1.8131546870919044 -1 1 0
52 1 15.104441086098324 9.930400769837615 5.0693103218115905 0 1 1
1571 1 13.332700756434988 10.851988769639728 4.575304212998649 0 0 1
1337 1 17.27758062054876 9.208809201933866 7.708299488348446 0 0 0
205 1 9.668885419412696 14.13878517657242 12.254052643191102 3 -1 2
1672 1 14.19173095729153 12.07797152190097 6.583452331469185 -2 -1 2
864 1 13.711325369599578 10.527104484732787 8.961514734379852 -2 2 2
1341 1 16.247671318674136 10.751224901549383 7.151025431416925 1 0 1
1761 1 14.463499918049479 7.577820663924741 4.067641812281735 -1 1 -3
35 1 19.519314407462474 9.775769871306958 4.893050189411632 -3 0 1
215 1 18.66385480163511 10.71254590234512 6.817204853559269 -1 -2 -2
1884 1 17.35512985681151 9.65567912408812 5.069124863819917 -1 -1 -1
1211 1 18.25843056575883 12.043078224267724 4.607177277194178 -2 1 1
433 1 21.99021132695995 10.661543876681913 9.804492051086536 -2 1 2
924 1 11.678455306951722 12.185586669138777 0.6012528719593504 1 1 1
1845 1 20.19805054253643 11.592392278533925 8.53041696884757 2 0 -2
859 1 11.378557646709918 10.12088908209237 11.423946921186435 0 -1 3
1703 1 0.9846129172868651 13.673247163557276 2.66068588055067 1 -5 -3
755 1 22.176831377929616 9.667003072676385 7.291445290387363 -1 3 2
982 1 23.629756596498204 7.3039050749358365 7.504772443644281 0 1 1
51 1 21.02810624169691 11.566338206068556 6.356323001384983 -1 0 0
373 1 23.678337556413545 11.253486849212551 4.942203791063448 0 0 1
631 1 2.7562297077916984 5.312609896060839 13.706814362475331 0 1 3
1214 1 20.66316983010818 12.76900516158571 4.274010113816683 -1 1 0
1354 1 22.781863484117686 13.087160727297542 4.018051844937455 -1 -1 2
1388 1 22.49021079737515 1.0129592550810635 5.999280357992162 0 2 0
186 1 27.041263335572104 12.882463821158847 7.087710837648229 -2 -1 -2
679 1 11.689848956575027 10.412695554070352 13.652357529954287 -3 1 2
1333 1 27.94670009997393 11.234311016976452 8.518383810054683 2 0 1
145 1 27.388419065055913 11.532800555159 5.414847011717822 3 -2 1
12 1 24.876156949241633 12.78551694449311 7.77147051380483 -3 0 0
235 1 26.140606759523244 10.765240221192293 6.755589670773314 0 0 0
2031 1 25.304583835727712 12.392263729436499 4.0400175392123465 -2 -1 -2
2037 1 26.004615976842864 9.606513518037168 9.445754989544204 -2 2 -2
1546 1 25.44626638620217 13.111937467775613 5.800227445577313 -2 -1 -1
784 1 24.659005108057592 9.408300819896382 6.646985499900002 -1 3 -2
1453 1 25.315209476090473 11.265144010295426 10.549648601730853 0 1 4
1611 1 1.3605488078078583 2.986149111501118 9.744950667703506 2 3 1
33 1 1.5736246728427112 6.768993771888782 12.706759949394728 1 0 -1
125 1 2.8795548337064454 2.3326592193278453 11.165155163861868 1 3 1
451 1 1.2488712233588546 4.611751566542778 11.576907233708654 1 3 2
1900 1 3.2963647384008326 5.323417495935683 11.545233710981057 1 0 0
612 1 2.1475633730463826 3.207017962286287 13.507675463890138 -1 1 0
1879 1 25.691982071325 11.467070481134625 0.9223755794181552 -1 1 2
1828 1 5.799865441567956 2.596069641120594 12.328241879574 0 0 2
1850 1 8.183855552057487 6.686067437516727 12.508523132675691 -1 3 -1
1806 1 23.954333428071223 12.325808505777493 9.739123320117674 0 3 -2
1005 1 6.364694888800975 4.318770980611517 13.834657801006296 -3 0 2
272 1 5.511125188522331 5.935598546921415 12.597942987789118 0 -2 0
168 1 3.3413156543832994 1.9635963069707567 1.3112416914814282 -1 -2 -1
1715 1 9.649762847268832 5.9374026993697555 10.81827179913786 2 0 3
1542 1 5.10615566841124 1.4302424011888561 10.452023931989054 -1 1 1
658 1 5.1099160650989806 6.9471457565903405 10.410708933643928 -1 -2 0
392 1 7.895851071994129 4.6756526203048345 11.91904878913432 -1 -2 2
1589 1 4.940391225710997 13.484309560536522 6.741813964009611 2 -1 2
1353 1 12.864205878013312 1.88759302994934 10.467397744292072 2 1 -1
1419 1 9.280422100616576 2.0341072090798207 10.604715172397585 -1 -4 -2
82 1 11.366580683880983 2.4177616327375704 11.754040142076008 2 -3 0
1190 1 8.18817179324522 2.3116348356037824 12.681674627550457 0 0 0
770 1 9.922917632134176 12.331748431365426 13.889359418951768 0 -2 1
1320 1 10.36641287086024 4.088338071379393 12.62624299379915 3 1 2
1374 1 15.713179699063613 9.45740243962102 0.866687926067305 -2 0 1
672 1 13.308745254261561 3.970405978519718 13.201407862967212 0 -1 -1
247 1 12.536167740350724 4.278276774272636 11.133638743129856 -2 0 -1
1140 1 4.109093460292609 3.7767569969743695 12.813612655276968 1 1 -3
1486 1 17.138257720718656 5.4887189982697855 13.7102154672888 -2 -2 -3
840 1 15.78142688422686 5.138683607887944 8.79558673830917 -2 1 -3
945 1 16.45886377637347 1.4758309283045032 12.837081112718142 2 0 -1
347 1 15.193273747473052 6.212363566810943 12.644198293840272 0 -2 1
1221 1 18.352889146605172 4.427805866497748 11.988630189790086 0 0 0
1869 1 18.85536947381315 5.346787413745512 10.098346284993188 -1 0 -1
714 1 17.708774877969063 2.3593693137908196 11.405994435268774 -1 -1 2
1670 1 15.591738964886291 3.6496431311305386 12.264834127601032 -1 -2 1
529 1 13.722165554429017 1.8133979827956255 12.597013514768278 1 -2 -1
1635 1 19.826688093301627 1.6350019708227042 11.518678867979666 -1 4 2
1413 1 18.638851717607324 0.8559632877922799 13.094550444328753 0 1 0
1909 1 20.521313635241874 3.3670049977129115 12.802583265340218 1 2 1
187 1 23.781704590199382 3.3388535177791385 9.909117156625001 3 2 -1
1523 1 11.772004113125014 9.688265235931558 0.6304672338734659 -1 3 0
308 1 22.707976780359566 1.1277465323374867 9.382465233952491 -1 3 -1
444 1 22.388256591948398 3.2176516670579236 12.073375475637993 -3 -1 -1
1168 1 21.59627430832488 2.9996534757540108 10.03034930875195 0 -1 0
1925 1 21.988878176145633 0.8045929486214538 11.608797089976385 -4 0 0
914 1 9.556237965679315 13.034842020576958 10.487406023036764 1 3 1
1971 1 24.131632641047403 3.9708391396399425 0.6587965164648049 0 3 1
1886 1 6.502570497353796 1.0339792984667806 0.980553393161857 0 0 3
596 1 25.18641090076305 1.1508551166403396 8.83920635545868 -1 2 0
1939 1 11.438798055587856 12.512998561367358 11.953650055823305 2 1 0
1386 1 27.152467631353282 1.8262049837896486 9.995377921336845 0 0 0
190 1 1.647562168296513 1.5541176423571958 7.784899094541685 2 0 -1
369 1 27.216800151120104 3.329468643605969 11.389329747891356 0 0 -2
1343 1 23.931060758167526 1.5007992066285392 11.15279439187319 0 2 -3
422 1 25.077689256796504 3.371956177389753 12.038198184473245 -2 2 1
91 1 3.5603230995185373 11.520070354811189 13.779156537024349 2 -1 -1
624 1 19.407326586772513 9.842170269231053 13.437903393072233 -1 0 1
1508 1 1.7350251155322127 6.420521893206176 10.41719381101773 -2 -1 0
1206 1 3.4919103313226 6.8894762920891885 8.362061133151485 1 0 -1
1503 1 1.5871749644424897 10.958818765420371 13.163558087507438 1 0 -3
1468 1 1.0711680907725674 8.54069878776044 11.704716756859018 4 1 1
1409 1 2.9218909763072007 8.407240319452558 9.99228036518294 -1 -2 -2
1143 1 3.9485211785254433 7.684315250054219 12.552953393862207 1 1 1
1247 1 1.0484558943850066 10.430058383883914 10.546985150716528 0 1 2
488 1 5.693969399634127 8.20542273232902 8.921005190976373 0 0 0
546 1 4.814516180193527 9.002475655143845 10.785660662490551 0 1 -2
311 1 6.77511383068542 8.265419398975926 10.973110719702644 1 0 2
1436 1 7.178806186901169 10.846810869142802 13.346670994754168 2 -1 -1
167 1 8.915403223235554 8.744665995940775 12.578243548343833 1 -1 -1
1349 1 5.197500733152284 13.27366903213135 10.669360233614197 0 -1 1
1237 1 7.4468654713525035 10.241325701551132 11.14286208738774 -1 -1 -2
1114 1 26.101030049802176 13.947156509224756 13.816457130713637 -2 -2 0
405 1 5.816355553570429 8.783505600732067 12.954929331008506 3 -4 -3
867 1 7.791512400622626 9.09267047707942 9.09681449585345 -1 0 -1
1813 1 11.587508065733278 5.652618716989147 11.696957157243439 -2 -2 2
1859 1 9.119209700717285 8.079824996791174 10.436078051444106 1 1 1
583 1 11.756544236532294 7.544093846280541 10.666224792732862 0 1 3
651 1 10.45847478967503 6.51213153915343 13.381763176900186 1 -1 0
1118 1 11.73780280513309 7.746550890712733 12.521541844253573 -2 1 -3
1058 1 14.971980249459767 10.35829973648447 11.180948605161065 -1 2 0
2006 1 19.240809662499665 12.841417372744388 6.348953993187237 -2 3 -1
1034 1 16.88124839006288 12.850444416757151 8.678905671755015 0 2 -1
481 1 14.748656319980181 4.995101848791191 10.667520476059236 -1 -4 1
1960 1 15.538973890275072 8.551292021534566 12.030883989683812 -3 1 0
1963 1 12.856796705341193 8.186288246764905 8.199957113535621 -1 4 3
657 1 14.70667017230805 7.187265378947459 9.439468016027734 -1 -1 2
449 1 13.579898017395733 6.950336846897993 11.469898884207966 -2 -2 0