LAMMPS data file via write_data, version 29 Oct 2020, timestep = 300000

2048 atoms
1 atom types

0.46990147569041874 27.882098524309853 xlo xhi
0.46990147569041874 27.882098524309853 ylo yhi
0.46990147569041874 27.882098524309853 zlo zhi

Masses

1 58.933

Atoms # atomic

5 1 2.045882958453469 4.106373427448612 2.259947751866531 0 0 0
129 1 2.2662741266070534 2.4489718450225433 3.7512797956518105 0 0 0
35 1 4.022933028715346 4.415734636781492 3.4643412299102416 0 0 0
39 1 3.6357735689432973 2.5721828255901134 1.858558573803004 0 0 0
136 1 27.63885600626358 3.8619481943405995 3.5153940637820194 -1 0 0
4 1 0.517538533039995 2.0925796523798796 1.998582377917049 0 0 0
62 1 26.029468695346914 5.735319377011335 0.9049386974594389 0 0 0
529 1 14.124483077484713 0.7162508428801616 14.105910103790954 0 0 0
135 1 7.597887158963767 1.8832042211238131 2.356397879139168 0 0 0
169 1 7.0870836682937846 3.792807264289822 3.68786800279995 0 0 0
44 1 5.360003958761681 2.2462294095558586 3.6793665581857073 0 0 0
7 1 5.960889639652413 3.5949083967690183 1.8095819160202846 0 0 0
413 1 24.462245194215555 0.8403570451051365 10.84428020875631 0 0 0
30 1 26.175016388002042 2.0958628688664485 0.8088500989961664 0 0 0
1173 1 17.274406640659727 13.97656767954696 4.15602518899162 0 0 0
16 1 10.604099657715679 2.1754919432444266 2.3192276632791256 0 0 0
138 1 8.832859115501856 2.166422820522682 4.280189084690681 0 0 0
43 1 8.917872718022753 3.7509767333368615 2.302835032406221 0 0 0
173 1 10.916026538528536 4.198993263480666 4.010363361770379 0 0 0
47 1 12.252412527706952 4.02858110746115 1.992421045127718 0 0 0
1289 1 7.480699223456714 13.963287316824335 7.230748100810113 0 0 0
1382 1 7.317600883518782 0.7850753392236258 7.016831882174403 0 1 0
424 1 5.609603911103611 5.681473939818427 13.825239948226779 0 0 0
261 1 4.0062090691849335 0.6682077152007131 7.2332945305760505 0 0 0
1417 1 7.461151024122066 13.94787206903496 11.204616059548067 0 0 0
142 1 12.424893045846161 2.4940897960346913 3.7962618607944307 0 0 0
20 1 13.809997447057974 2.3148389365332216 2.1922267672733113 0 0 0
177 1 13.951424461168852 4.17438624349472 3.801663131179327 0 0 0
146 1 15.68496645331367 2.67065948528297 3.909526965314643 0 0 0
83 1 16.373553959465085 4.061791129645171 2.083467105390615 0 0 0
141 1 10.409871214149593 0.5783186489757092 3.7488621036010037 0 0 0
356 1 27.782518787201138 14.135156535193376 10.826614109414303 -1 0 0
1660 1 21.092143963869212 0.6742260413861629 13.68880050941169 0 1 0
181 1 17.996010939411562 3.815462348434089 3.8021585417308215 0 0 0
55 1 19.70983131217826 3.763449683152803 2.202843696194787 0 0 0
149 1 17.677548652000304 2.4992385179938217 2.2122102175387326 0 0 0
150 1 19.413184131035884 2.1534470280960134 3.8776881400385896 0 0 0
1519 1 10.440423757685512 0.7729548083808884 10.650747435562538 0 1 0
32 1 2.12038762021496 0.7959238008406734 5.459336027148254 1 0 0
360 1 2.214201384280586 13.957688334163723 9.105664568460545 0 0 0
547 1 5.711624239786659 2.7416129983388124 13.936603241586887 0 0 0
154 1 21.033883241027148 1.8112034908584704 2.450255063701609 0 0 0
59 1 22.205237010898713 4.293171105484378 2.0639645294098585 0 0 0
160 1 22.60934069956165 2.089850147364869 3.8034558605478876 0 0 0
314 1 21.214404384540337 3.7368019101005854 3.988260105279911 0 0 0
161 1 25.823109206816888 2.4299080786184293 3.79418560497603 -1 0 0
189 1 24.099011191164614 4.380366549402409 4.053123289307026 0 0 0
63 1 24.212015401953316 2.387087362005658 2.515933437417022 0 0 0
162 1 25.688342825778 4.155332040907302 2.3573190699013806 -1 0 0
352 1 26.203753453472366 10.672919448551715 9.163811602204545 0 0 0
1287 1 5.592487081894788 13.634611305235397 9.393525192094774 0 0 0
1377 1 24.408059558484887 0.6034408009966322 3.958272656060219 -1 1 0
65 1 3.494791441478882 5.644725065955646 1.9749860934762142 0 0 0
40 1 2.057919670053207 5.888646329260556 3.9237460722141346 0 0 0
67 1 1.8231246998429618 7.241257344386546 2.364545417898678 0 0 0
196 1 2.1091407774382116 8.85256949028246 3.848480636649676 0 0 0
198 1 3.597972749055783 8.873941481570599 2.058586136078757 0 0 0
194 1 0.581923311040704 9.11610804381482 2.182403150189116 0 0 0
193 1 27.665873147330267 7.846643253590304 3.9208394554584594 -1 0 0
168 1 4.1759528832417505 7.179197282055404 3.7006019145610853 0 0 0
120 1 15.756210593362237 14.155785167887577 2.008611686293382 0 0 0
1408 1 23.07195478460995 0.5896906178255321 9.541255740853622 0 1 0
38 1 7.403877019379325 5.467650613997525 1.6994862120600858 0 0 0
34 1 5.755020192420647 5.4593568246317545 3.7031007912732314 0 0 0
166 1 6.862416458673306 7.483102922827424 3.933171297814273 0 0 0
76 1 5.259917942079482 7.176714803104034 1.872938564849402 0 0 0
972 1 7.008912025812853 9.526725369591121 2.1301079065763178 0 0 1
231 1 5.48636963689324 9.234441547392379 4.00985911401343 0 0 0
23 1 19.14469263011462 0.48479240427343484 2.1585923936543896 0 0 0
89 1 22.370986802150405 9.37669532780349 0.5174267509354854 0 0 0
48 1 10.56703952672618 5.79963757670612 1.9650176118378564 0 0 0
170 1 8.840037244675447 5.241275791525071 3.6091275177442714 0 0 0
75 1 8.596697235575423 7.200840396770447 2.383930386755284 0 0 0
205 1 10.734125133678585 7.6066085444074085 3.4700378937877447 0 0 0
202 1 9.043959695675591 9.002290501481635 3.3695284633831823 0 0 0
174 1 12.66083013316506 5.838301904153359 3.6749952248082347 0 0 0
1520 1 8.919172198716476 0.7795972279437625 12.907374284841143 0 1 0
131 1 0.5462296256300121 1.081110399160866 7.480401737651278 0 0 0
1163 1 9.325196959624815 13.862834734071178 5.8115353721236165 0 0 0
206 1 12.709749416691972 9.319147572808415 4.106045387255389 0 0 0
79 1 12.440940589083159 7.266581075116922 2.061480555868152 0 0 0
52 1 14.189383905870898 5.434935003885016 1.739036295761962 0 0 0
209 1 14.306709333722258 7.0837772676092285 3.6374439117435617 0 0 0
84 1 14.234583411134915 9.269486746538167 2.689342296779063 0 0 0
178 1 16.364250789164842 5.696543846112413 3.7002074004178467 0 0 0
210 1 16.369810832745664 9.047821452415556 4.391822514037267 0 0 0
3 1 26.422150773268065 0.5261438041330434 2.6736745303993175 -1 0 0
1508 1 27.682685744356583 0.898980000267366 10.845607096946567 -1 1 0
1500 1 21.003680830778876 0.5938340599219601 11.350484452926626 0 1 0
88 1 15.928046677775475 7.315576414463219 2.0661768644783334 0 0 0
56 1 17.926878363347925 5.497657604781845 1.9635856596068377 0 0 0
184 1 17.734045134758134 7.341131560477656 3.7266824190641996 0 0 0
92 1 17.558206688924372 8.881164411247225 1.9802894675847298 0 0 0
85 1 19.133224356997466 7.181467216783136 2.086631620199101 0 0 0
185 1 19.068189819528165 5.691386367998185 3.957542889249234 0 0 0
87 1 18.922991364261996 9.667587614274327 3.8499171737483935 0 0 0
78 1 13.048904327279775 9.25871700568789 1.0653445619316024 0 0 0
123 1 20.753969686041643 9.211668860978437 2.2978323491413124 0 0 0
188 1 20.609674001408898 5.754786403270124 2.369037500961471 0 0 0
91 1 22.488428906795882 7.634651540748157 2.3757999497858733 0 0 0
249 1 22.555171900264007 9.32980946308448 3.995572687116667 0 0 0
186 1 20.349745020573863 7.555946283287587 3.856401145184659 0 0 0
220 1 22.475099963476012 5.949024383013895 3.9170185528211734 0 0 0
286 1 0.9179575465323682 0.6445856794671442 3.8412917392078345 1 0 0
36 1 27.815440074592402 5.363600415842435 2.106379764463031 -1 0 0
64 1 24.04634363783309 5.992648763913151 2.120697248845097 0 0 0
217 1 24.28042268938784 7.96752630636752 3.8638279141528122 0 0 0
95 1 25.91232886075464 7.719069691172531 2.1207358766951447 0 0 0
218 1 26.159027722674686 5.975575805482625 3.460039478664912 0 0 0
222 1 25.8822981070059 9.634992978966546 4.1121402396638285 0 0 0
96 1 24.130331654685705 9.598429014657018 2.2154003072262007 0 0 0
487 1 5.125565234177592 8.430040829218772 13.951149044264584 0 0 0
99 1 2.0566531737957794 12.529424404519018 3.3234571863660105 0 0 0
104 1 2.2711836092282747 10.558496976356013 1.7612466000721865 0 0 0
229 1 3.356699734349979 10.851421234544386 3.885570777953693 0 0 0
103 1 3.891646280457188 12.408194367395367 2.1234700872035264 0 0 0
225 1 27.847966569499057 10.739993052365934 3.8682232825085205 -1 0 0
1024 1 27.78860357775597 12.656873578267588 2.174179388109888 0 0 1
26 1 22.657985328936412 2.283226529048429 0.8287736287253775 0 0 0
1150 1 26.203842661162007 0.9739866006258772 5.227539635628449 0 1 0
1410 1 2.208848421564503 14.10756147131718 12.444869486662691 0 0 0
197 1 5.169577857246728 10.961688935338971 2.443479480781625 0 0 0
235 1 7.409680860433853 10.67268087020287 4.013257112086235 0 0 0
1160 1 5.212292823804388 12.918824860495729 3.8072768763899387 0 0 0
1033 1 7.395168634568232 12.122305075338577 2.031738054649737 0 0 0
1418 1 10.737950561934943 13.412087018290737 11.565781956248196 0 0 0
80 1 11.100765800620318 9.407742760760918 2.1163891046508194 0 0 0
275 1 15.564496128422364 0.5660204973099858 9.242508638355345 0 0 0
1035 1 8.728575443324573 14.039850226426251 1.9730841213222245 0 0 0
107 1 9.128327206111951 10.855755194475936 2.009748655408277 0 0 0
240 1 9.085499221312892 12.438311798934143 3.8748116654349487 0 0 0
112 1 10.699561079598856 12.397228043220828 2.1340222243239806 0 0 0
237 1 10.694319641404087 10.926010062567558 3.7552898034686795 0 0 0
118 1 18.72724417097779 12.727736986118579 0.824218926739066 0 0 0
1310 1 27.581434096679637 13.827539496758362 7.7436658186216825 0 0 0
1413 1 4.050627347115797 14.035467679062503 10.924341977460841 0 0 0
1175 1 20.88944117730975 13.87167950809988 3.932011419996285 0 0 0
238 1 12.888273641513525 12.40834919745887 3.987028773138261 0 0 0
111 1 12.843181387321314 11.111392940057721 2.1213726885454602 0 0 0
241 1 14.429613249842152 10.810087955786958 4.259349409873796 0 0 0
1041 1 14.57771873112467 12.388304868467314 2.3779578446489174 0 0 0
116 1 15.489569391360357 12.521737119571114 4.559055310258112 0 0 0
115 1 16.252075490947433 10.490666612594184 2.416454225952144 0 0 0
401 1 17.50274753256376 0.8663012022682948 10.924156552543392 0 0 0
630 1 19.075479759318256 13.894369114784098 12.210290611259653 0 0 0
61 1 23.928989814499353 3.9586968172299835 0.8055291586453506 0 0 0
1307 1 23.106714412998905 14.151394858953376 8.835465336839155 0 0 0
201 1 7.773748807637502 7.322756136313856 0.5284751800966365 0 0 0
1134 1 12.100388787668924 0.5028405703819487 2.160848100115726 0 1 0
226 1 2.176444658321559 14.17031307209455 2.0007764703692974 0 0 0
1047 1 17.066747668527313 12.758775386235564 2.694984730865363 0 0 0
245 1 17.14541619174937 11.015246680539757 4.254797500786854 0 0 0
247 1 19.040197445798327 12.037050218631878 4.102717768165686 0 0 0
119 1 18.85646941953567 10.821921718864033 1.8576796651305434 0 0 0
113 1 14.899237228168131 10.798279475478811 0.5547172112108211 0 0 0
396 1 5.533779531958317 0.5745923133834423 12.237212793461381 0 0 0
601 1 21.02945969938701 3.9464806269225248 14.103474635012114 0 0 0
246 1 20.638894573478325 12.73269585479313 1.7612598290917325 0 0 0
128 1 22.249759596917137 11.293339744985138 2.2479230427753762 0 0 0
1177 1 20.55223276537177 11.120922244981095 3.6797581542262865 0 0 0
254 1 22.484764626817253 12.23981935902377 4.197019646934496 0 0 0
633 1 21.071037036333855 10.743288523554961 13.782184351364005 0 0 0
1297 1 13.821137286737699 13.95968021659344 7.784281145977748 0 0 0
253 1 24.07797859259402 10.860967589424847 3.8855669626300555 0 0 0
100 1 24.370563761810345 12.461237912582243 2.5090944597635216 -1 0 0
94 1 26.37274618280525 10.838745090658245 2.008116346261148 0 0 0
1184 1 26.165076916436426 12.234294274873392 4.090786129817891 0 0 0
145 1 14.17330937996747 0.720874933244736 4.134156128421165 0 0 0
625 1 12.316890303125563 10.473739176368795 12.63988324072845 0 0 0
46 1 12.260887420747887 5.524142429198909 0.5371884072530837 0 0 0
165 1 2.153761540460737 4.21045176299161 4.94426774169587 0 0 0
287 1 2.2715336660517234 2.577635984302789 7.1948908980221455 1 0 0
258 1 3.732765294798844 2.379471423569427 5.395469888463083 0 0 0
132 1 3.8368092086270527 4.15881958380212 7.089200322839127 0 0 0
260 1 3.9553172812443425 2.4382367315988813 8.876905916613698 0 0 0
257 1 2.144980326197017 3.9432217845258646 9.086371487346087 0 0 0
296 1 27.707140622692492 4.082671371120062 6.628118824894235 -1 0 0
285 1 27.629833109047397 2.6420143285875333 8.84904180475156 0 0 0
1167 1 12.777258686704954 14.109488375841513 5.92527987800886 0 0 0
140 1 6.732563248115856 2.378574949680532 5.367685432705687 0 0 0
297 1 5.294561091605675 4.176898825328484 5.5483526653910396 0 0 0
262 1 5.551317794872518 2.480697042571075 7.1279810843900675 0 0 0
390 1 7.256406076823897 3.961744407873748 7.048145141099377 0 0 0
263 1 7.090141042491659 2.352720380720302 8.715249075372704 0 0 0
295 1 5.543225583034027 4.090414031215731 8.776992864988413 0 0 0
1213 1 22.7590185178936 13.812923220243423 2.6313345825397634 0 0 0
510 1 26.022596831090482 12.378445183102631 11.19650111018138 0 0 0
1193 1 5.732672935508336 14.088757548249555 1.836211349519722 0 0 0
125 1 26.3079537195688 12.597661109796805 0.6011744491881472 0 0 0
1647 1 12.033698698440316 0.6022909613928937 12.486381420172163 0 1 0
171 1 9.27475465642556 4.073182402285109 5.4234594437971335 0 0 0
144 1 10.90123974310062 2.186132395431963 5.548834995956664 0 0 0
268 1 10.469020474786596 4.000168114177729 7.3454823071409505 0 0 0
266 1 8.9651828881919 2.1700163794877074 7.101673304215912 0 0 0
299 1 8.741350021965554 3.8937854183797995 9.022322934023617 0 0 0
272 1 10.481147843599366 2.3380177280680066 8.862112924991715 0 0 0
270 1 12.58444641782976 2.1349279252480646 7.453727809632414 0 0 0
1411 1 3.9902643782124967 12.09919772862701 12.873884668034009 0 0 0
493 1 10.418595219364583 10.568422044177328 10.757905715322552 0 0 0
175 1 12.476945409858411 3.91046314612668 5.600563744509431 0 0 0
301 1 12.177199061499698 4.242028824386146 9.072744529999715 0 0 0
305 1 14.003745468102492 4.266721861960731 7.110986585558418 0 0 0
179 1 13.98496980468893 2.220329307643694 5.584242529959117 0 0 0
303 1 14.313614801583833 2.0614755755611998 9.183897549970007 0 0 0
274 1 15.912561179918118 2.174640654206203 7.22364707859046 0 0 0
183 1 16.036973978319445 3.8576235132350982 5.965432493704065 0 0 0
335 1 15.977256323034705 3.998546348995201 8.84735379555455 0 0 0
494 1 10.586058723145682 11.791896108428556 12.893706558264123 0 0 0
497 1 12.56415181440874 12.164669359644455 11.023761100525599 0 0 0
242 1 15.590888157958094 14.084504138892749 6.034067243817869 0 0 0
484 1 27.845340026079903 11.93915226740998 12.627331918927064 -1 0 0
152 1 17.618949045065918 2.2939043792030804 5.744579855641099 0 0 0
309 1 17.548020126335324 3.837172634174651 7.738002771054696 0 0 0
280 1 19.170718498170338 2.1594250705433478 7.800645472394811 0 0 0
313 1 19.436651570678464 3.585263550491211 5.945157299683954 0 0 0
278 1 19.870893773531876 4.225069339780086 8.988680022024575 0 0 0
311 1 17.126204206355787 2.0829994019596447 9.073850258804134 0 0 0
509 1 26.157408787387347 10.387837039465335 12.528417790236716 0 0 0
319 1 2.1540648314533595 1.020607421358568 9.325923483683246 1 0 0
157 1 21.147205977512606 2.0216548501362768 5.634753218118091 0 0 0
284 1 21.042052015284447 4.213276592905761 7.38551120658507 0 0 0
406 1 22.49017589876958 2.09613698331565 7.753168244149422 0 0 0
315 1 22.485262993200834 4.276958645535526 8.85834492791174 0 0 0
1530 1 21.0585625143771 2.173661248934551 9.257300152222589 0 1 0
345 1 22.479543604391047 3.854172021592372 5.766895076935467 0 0 0
1554 1 15.711138265310575 14.002542622606926 12.840457951194 0 0 0
264 1 0.6023522139985318 2.1663092081728985 5.203837798204478 0 0 0
289 1 24.151638153163 2.271160850169105 5.30687261480226 -1 0 0
190 1 24.046249608849905 3.6535946779751103 7.34463761476487 0 0 0
158 1 26.01407967902039 4.050530844675597 5.763819909504045 0 0 0
291 1 26.0953981589131 2.152059167435163 6.8711278583098565 -1 0 0
446 1 25.796961716517053 4.056765978206268 8.603199564133856 0 0 0
282 1 24.69861566368764 2.1255129044642214 8.724292608699162 0 0 0
618 1 7.836663219800604 12.463903078444039 12.614336930220823 0 0 0
329 1 2.024094217906191 5.635746137768151 7.0438209198037525 0 0 0
200 1 3.7680851668691315 9.221312375979851 5.402048452391545 0 0 0
195 1 2.0033258700288625 7.428010622331814 5.661166356211084 0 0 0
322 1 2.038240275426107 9.254093615238686 7.059589746354627 0 0 0
328 1 3.6632903186612418 9.434753684108898 8.803012849449171 0 0 0
325 1 3.7823619973921816 7.44042539640472 7.003772158605698 0 0 0
292 1 2.2797718249893903 7.375844958732452 9.014722577232027 0 0 0
163 1 3.6892484850327505 5.498215900374451 9.059211603631514 0 0 0
293 1 3.7652522744273407 5.728896573487513 5.564834264149701 0 0 0
164 1 27.68348973340806 6.038410475726261 5.182002214126532 -1 0 0
318 1 27.811488817191297 5.185633563883067 8.899763997334949 0 0 0
233 1 5.431556799231057 7.288203904390344 5.774506043702612 0 0 0
172 1 7.269672302412418 5.831491650242159 5.430436677703946 0 0 0
167 1 5.475374130201882 5.598138341149011 7.141838468558199 0 0 0
331 1 7.368011935101017 7.56721600341538 7.086964998600752 0 0 0
199 1 7.167683985822266 9.223951631041974 5.663333480427857 0 0 0
300 1 7.187284553072276 5.8081749541094965 8.874749497871585 0 0 0
327 1 5.429335111117936 9.031793200285597 7.31774982065749 0 0 0
454 1 6.821395085794376 8.798200320328382 8.852063192663028 0 0 0
326 1 5.0589839038529 7.06001883254587 8.963716995760226 0 0 0
298 1 8.970427392229366 5.765463536463324 7.141609659028708 0 0 0
208 1 10.693759442741271 9.148040057694997 5.217860528521779 0 0 0
176 1 11.011406458836852 6.053707201756017 5.382035915288552 0 0 0
304 1 10.064652245873829 5.833447343212737 8.93509374445607 0 0 0
203 1 8.981725817558523 7.591602981661704 5.1651494702259635 0 0 0
302 1 10.374269450958058 7.556053228634687 6.832158599989612 0 0 0
330 1 9.000099205685363 9.019003064278218 7.231218999514294 0 0 0
336 1 10.839160488633663 9.09326481407415 9.00480448153827 0 0 0
180 1 11.942871753964978 5.51545128877477 7.147597898352564 0 0 0
365 1 12.694681761501794 8.28150987015 7.618587487468666 0 0 0
334 1 12.574330075450785 7.787894226918013 5.444012040925798 0 0 0
207 1 14.346728628657184 5.494783372336243 5.30365620707188 0 0 0
338 1 14.38003399327557 7.350471942068715 7.235185480641224 0 0 0
212 1 14.610286552110685 8.592603045024997 5.5255238510446185 0 0 0
337 1 16.483888192881224 6.82072740417434 5.482099169567839 0 0 0
308 1 14.197075046237263 6.153169660611035 9.188842520418795 0 0 0
340 1 14.174758570254793 8.700026941701807 9.033855601805126 0 0 0
371 1 16.360697598312065 8.673191248519341 7.278649163746032 0 0 0
333 1 11.857025319955047 6.970378151640392 8.777471371495363 0 0 0
434 1 15.980054053243167 7.407174869751695 9.450647022628605 0 0 0
307 1 15.658874441358094 5.551482822411293 7.5487166939221115 0 0 0
306 1 17.716302571874962 5.174467235107091 5.831198678924471 0 0 0
215 1 19.35089065778255 7.246522240018311 5.919423755354728 0 0 0
341 1 17.511869588899614 6.995651318442623 7.627393923586046 0 0 0
375 1 19.06452241846329 7.1434661680244655 9.135600925099029 0 0 0
211 1 19.266471177676223 8.991861150573621 7.4567920566380055 0 0 0
343 1 18.978043195508427 5.424510539289616 7.472825185106716 0 0 0
312 1 17.455357809393306 5.804270000394545 9.485617413305441 0 0 0
339 1 17.77695297209442 8.5941252621263 5.730279915541169 0 0 0
248 1 17.769677797618556 9.236685554452006 9.521239521154632 0 0 0
192 1 22.2265211420047 7.498606782979951 5.623184867939232 0 0 0
348 1 20.927117655553367 9.336436264512342 5.34039622842683 0 0 0
310 1 20.603342014684316 5.5127130152032935 5.562274535269576 0 0 0
342 1 22.891613968521973 5.573271231700902 7.009349480505021 0 0 0
216 1 20.90927392210535 6.875497207732107 7.248273301271375 0 0 0
213 1 22.15911240316826 9.106058245488741 7.511541706985276 0 0 0
214 1 20.907114929777975 9.077326219172148 9.270060794622683 0 0 0
219 1 22.703008921873817 7.302985330760611 8.94826746530336 0 0 0
316 1 21.031847327100152 5.9793586404722925 9.12534578304825 0 0 0
290 1 0.6381071771232527 7.594240680427181 7.12900869999539 0 0 0
324 1 0.6719966381205322 8.873489816972455 8.785081269165051 0 0 0
349 1 24.320686041678904 9.02461834972271 9.097112973644524 0 0 0
350 1 27.59481786126932 9.214474270646178 5.622854204396116 0 0 0
224 1 24.004541895398305 9.16980829583154 5.851706860980399 0 0 0
221 1 24.525616776703444 5.877155141392306 5.422375511957836 0 0 0
346 1 24.848746264052743 6.009982599591892 9.04885063836658 0 0 0
317 1 24.198071720045874 7.271952645102521 7.498961302123981 0 0 0
320 1 26.504122431675775 6.095069323522256 7.146166752892876 0 0 0
223 1 25.877411778761356 7.774237541737033 5.77486468783692 0 0 0
321 1 26.602013938808682 7.198738829686454 8.985102548520054 -1 0 0
477 1 25.93561572399809 9.031938864259727 7.498096608680471 0 0 0
602 1 24.70733281098461 7.456752069359329 11.1407715187243 0 0 0
1281 1 2.022793565361209 10.84946808849666 5.812926526499495 0 0 0
354 1 2.1639687831861334 12.581642902638203 7.176065373692592 0 0 0
489 1 3.6800438751334443 10.6788397787292 7.194044097636557 0 0 0
1192 1 3.758608643960852 12.346627175914724 9.029055956032975 0 0 0
227 1 3.5828137058768488 12.433785019193454 5.41879983195307 0 0 0
355 1 2.0203382459940933 10.901134358217316 8.737229671328752 0 0 0
490 1 9.043436166586936 12.419978177459388 10.476796373927797 0 0 0
357 1 5.271488977439132 10.825415944609471 5.391195128129712 0 0 0
236 1 6.946674932954243 12.644969411867615 5.448043075174407 0 0 0
204 1 6.842210456370244 10.910114689656316 7.437667575008023 0 0 0
358 1 5.393867013767386 12.680234857537512 7.460948290801273 0 0 0
359 1 5.501932607459475 10.937950895197908 9.17631553834416 0 0 0
364 1 7.514046998170121 12.774242048070832 8.917035573568334 0 0 0
586 1 8.52463637434283 10.217176695049705 12.611497213911974 0 0 0
234 1 8.721175341583518 10.928559941922272 5.758883734439552 0 0 0
362 1 11.422162723803853 12.326613447603615 5.660186045764666 0 0 0
361 1 9.390200265602386 12.590309576379868 7.449723730192328 0 0 0
363 1 10.830812598840295 10.480509860855266 7.2440368036202285 0 0 0
458 1 8.604181371266348 10.430010056830401 9.152263477121506 0 0 0
368 1 10.915676493936916 11.842262700069684 9.281924285409048 0 0 0
239 1 12.913484256257837 10.083163171023697 6.263345042445151 0 0 0
366 1 12.608163788976022 12.228969309550086 7.970672346845949 0 0 0
388 1 26.15375938569847 0.8756838826431542 12.394212175604356 -1 0 0
507 1 22.740708701687637 10.833322811564244 12.52354207553978 0 0 0
463 1 12.537671396022045 10.35342173663896 8.829451963882704 0 0 0
244 1 13.834366549472108 12.267623638463936 6.214800943296044 0 0 0
369 1 14.515110340664835 10.499124562905699 7.72531147584874 0 0 0
1423 1 14.262576966076455 12.159317832166565 9.25654431310645 0 0 0
367 1 15.919567474864074 10.685195150151639 9.402888299133691 0 0 0
879 1 10.666426377576736 14.105567788847846 0.6431844884759153 0 0 1
380 1 20.874636626566264 10.719469094008621 10.924604525830299 0 0 0
1435 1 22.276759486229672 12.673066352594514 10.877280360213096 0 0 0
243 1 15.696595549956326 10.677918808445492 6.102877642746269 0 0 0
1171 1 15.74452776778911 12.450270313234467 7.2344105440381545 0 0 0
252 1 19.38829273608058 10.574230045346026 6.152822920922268 0 0 0
1304 1 17.663131600499305 12.30126705972768 5.759744474045905 0 0 0
370 1 17.47556899500919 10.446546788892878 7.143155780131329 0 0 0
373 1 19.04024454312551 12.421124379060926 7.705242036565633 0 0 0
376 1 19.283589278704135 10.674925419556127 9.297528051464745 0 0 0
1301 1 17.412693776843355 12.283503879210354 9.18164470593773 0 0 0
1303 1 21.117069374053614 12.625439366857336 9.267815724819995 0 0 0
377 1 21.045079586274632 10.948001647691024 7.795018488538855 0 0 0
251 1 22.563016286805443 10.757254636887328 5.915772431779098 0 0 0
250 1 20.71278062374749 12.508027340800117 5.835647437007245 0 0 0
378 1 22.896783767258206 12.55890644378348 7.19733912365075 0 0 0
379 1 22.552945121071517 11.08217554523576 9.138903989811835 0 0 0
1565 1 22.460823683784362 14.169201230471753 12.552977096793231 0 0 0
512 1 24.452442046656707 10.663046203728198 10.787780967606157 0 0 0
353 1 27.69416476450754 11.2616436264933 7.350565059060533 -1 0 0
383 1 0.47630940241040065 12.511916521176389 9.392732285026575 1 0 0
256 1 24.62365370083112 12.577919529529474 5.649528373599515 0 0 0
228 1 0.6982143946151469 12.548101568733589 5.455117826709147 0 0 0
384 1 24.156076411063076 12.515672018184771 9.714761099472254 0 0 0
381 1 24.429601868046724 10.779074138931454 7.925800261998211 0 0 0
255 1 26.15021590402462 10.503452649882629 6.031608422603907 0 0 0
382 1 25.70444179437805 12.480105618354314 7.636194959531507 0 0 0
637 1 24.055261340794203 12.673745665580041 12.35034611290388 0 0 0
1266 1 17.199023325821152 0.6609977140887844 4.116763858488918 0 1 0
574 1 2.003797521772812 4.28551138789515 12.654875172137261 1 0 0
419 1 2.4140898535316504 2.5350833599192226 10.87014438245967 0 0 0
524 1 3.9177668671294605 2.2728882743966112 12.715117388276292 0 0 0
422 1 3.9970410652005963 4.081485208098102 11.013874164684864 0 0 0
420 1 27.779021915792335 3.823352341913561 10.913273108999505 -1 0 0
414 1 0.6097899963895737 2.2368510021838124 12.671997752495571 1 0 0
502 1 19.028272998965846 12.337463375473671 10.733926909091657 0 0 0
392 1 5.620906789568507 2.7300969373639523 10.533524782421711 0 0 0
423 1 5.919185838028682 4.226568279019794 12.43384071002911 0 0 0
522 1 7.017754976030254 2.0276798799650124 12.221488855157004 0 0 0
394 1 7.499365099282045 4.1971622009866465 10.620044278083824 0 0 0
498 1 17.358836111068157 12.482937734243473 12.859221009430573 0 0 0
501 1 17.540800936846566 11.116050134457678 11.019241484773932 0 0 0
425 1 8.50774110178317 2.104084465195881 10.688019134637381 0 0 0
427 1 10.568904712436607 2.389966556805189 12.484814662248919 0 0 0
429 1 10.346884579979024 4.072846314273633 10.525016129996406 0 0 0
617 1 8.956081206253602 4.268670502242076 12.48623218742235 0 0 0
431 1 12.58600798142895 4.311282428670426 12.552845377685092 0 0 0
398 1 12.149283420926427 2.4666543234172043 10.66784994492443 0 0 0
400 1 14.029769274659644 2.73812923635169 12.571091817266911 0 0 0
433 1 14.257044894283478 4.055759676879042 10.546203909012977 0 0 0
399 1 15.863237285194813 4.06075918011039 12.302522022800549 0 0 0
402 1 15.954147195397173 2.5771983584310156 10.787093209025448 0 0 0
491 1 7.289186777492846 10.463101637780063 11.046264024805097 0 0 0
622 1 13.974123663250525 10.818746581111348 11.143592164301136 0 0 0
486 1 2.4227588744981494 10.500880096046831 12.823435921364947 0 0 0
492 1 5.703961849072028 12.130290670797134 10.857146570097653 0 0 0
372 1 15.700529882304684 12.480696567375194 11.062529222795906 0 0 0
437 1 18.089326267968282 3.949915749361793 10.418140683145875 0 0 0
408 1 17.736492326660006 2.588449665614475 12.551264336751034 0 0 0
409 1 19.599426120445912 4.004978448949846 12.091471389045896 0 0 0
283 1 19.374879340616694 2.3496210550297008 10.988001190059544 0 0 0
610 1 5.518129401739391 10.454183507061234 12.404949436342127 0 0 0
538 1 21.642160235145944 2.3107262642180757 12.371376810411398 0 0 0
410 1 23.215155819232436 2.56406427315753 10.632949820412296 0 0 0
441 1 21.344761780930256 3.832662286181074 10.817748981094786 0 0 0
443 1 22.95988845093698 4.091020556309361 12.386855901299157 0 0 0
482 1 2.2877960189012736 11.69818904032933 10.964411010632693 0 0 0
411 1 24.268944447259223 2.4491960247415685 12.52783894084936 0 0 0
474 1 24.57598502847152 4.196698477765262 10.702393865841596 0 0 0
417 1 25.959029471335576 2.58724308319081 10.396936934322941 -1 0 0
445 1 26.04264070485683 3.632295365068258 12.327572645700615 0 0 0
508 1 20.83244090233913 12.735431333346014 12.432638044909046 0 0 0
475 1 26.4446886708105 5.82303574012413 10.74474515593036 0 0 0
503 1 19.187103257746912 10.725771665822712 12.718346291356715 0 0 0
453 1 1.7882069625001151 7.2951380104487 13.093993401786584 0 0 0
450 1 1.7498760545096512 5.501622927327023 10.734887246412248 0 0 0
578 1 2.3044263055427474 9.097049775095112 10.603832102333138 0 0 0
553 1 3.7751298104584325 7.4466501348935665 10.927928968379074 0 0 0
456 1 3.5332068440723092 8.608444142498698 12.476079058953076 0 0 0
451 1 3.6687922836318796 5.636908187438807 12.512917891295556 0 0 0
418 1 27.662481374917263 5.680892863923503 12.716437907869203 -1 0 0
449 1 0.5929780077770304 7.507436249871132 11.100433240388917 0 0 0
452 1 0.6018227587944837 9.124663246224406 12.66646221118314 0 0 0
1296 1 12.342096447057937 13.592884091723889 9.624274504471053 0 0 0
615 1 5.406099016406309 6.978941834144454 12.142096627711965 0 0 0
294 1 5.5034471187604534 5.57606481778778 10.501329969687525 0 0 0
455 1 7.4206658670771635 5.88508808584704 12.220480588345717 0 0 0
457 1 6.833277580620574 7.417363085485841 10.594269794525975 0 0 0
582 1 7.25628960315169 8.497741515634614 12.439150939546773 0 0 0
323 1 5.498575536203876 8.938249608061318 10.94388903871526 0 0 0
461 1 8.820033211736316 7.730156120215463 8.919366498037425 0 0 0
432 1 10.640775232447476 5.903963761981704 12.157559889306151 0 0 0
459 1 9.136357364966782 7.24685657140352 12.656182451712315 0 0 0
426 1 8.670447064956479 6.043288222681426 10.552547276355872 0 0 0
462 1 10.787601992090183 7.389312863572448 10.720215380781905 0 0 0
590 1 10.81209812031299 8.86893687531148 12.470560528607535 0 0 0
332 1 9.062069396238703 8.867856214670374 10.726682023193034 0 0 0
1254 1 3.6597670531650066 0.6321312360988856 4.05987026712482 0 1 0
430 1 12.203890627909024 5.725710451769997 10.557138504318486 0 0 0
436 1 12.613224069643092 7.311047875400609 12.538953077269904 0 0 0
468 1 12.254593772108727 9.378243372735406 10.648524011246392 0 0 0
404 1 14.240985672561557 5.744279543112417 12.782692330718657 0 0 0
594 1 14.2500350225789 8.986882733688647 12.84516261350714 0 0 0
465 1 13.934457063333221 7.856172949379547 10.993639160177654 0 0 0
439 1 15.651449405778902 5.6699207661427575 10.946907444499653 0 0 0
467 1 15.96212040588149 7.10320245199311 12.660139082204866 0 0 0