LAMMPS data file via write_data, version 29 Oct 2020, timestep = 300000

2048 atoms
1 atom types

0.499768848585493 27.852231151415218 xlo xhi
0.499768848585493 27.852231151415218 ylo yhi
0.499768848585493 27.852231151415218 zlo zhi

Masses

1 58.933

Atoms # atomic

35 1 2.1508087032298246 3.6688855225620403 2.0379649980939507 0 0 0
136 1 2.2978765818823366 2.1120553332833483 3.8738932756685367 0 0 0
40 1 3.801495565240403 3.7886748576451024 3.5550159568321993 0 0 0
4 1 0.7651035477410206 1.7106565572037056 2.230835556351092 0 0 0
161 1 27.459797892549027 3.6300408355081837 4.064360942954338 -1 0 0
27 1 22.412986143022724 0.5282147771665903 2.0072336657381813 0 0 0
484 1 27.7637736438737 12.509031967407498 12.524793562237328 -1 0 0
118 1 19.523818155359336 11.942938456611428 1.0737958027264969 0 0 0
15 1 12.399424877500445 0.9454983866020295 2.943176979862222 0 0 0
11 1 9.098702795509103 1.0443274707617376 2.4486718913677112 0 0 0
5 1 4.034525518133034 1.8382640998699402 2.083785649049908 0 0 0
39 1 5.694015783720969 3.659359008682883 1.9661900270610073 0 0 0
134 1 5.429379278277481 2.257395988556569 3.758736926615722 0 0 0
169 1 7.34851298035707 3.971252440064523 3.679763598415412 0 0 0
7 1 7.299890647677016 2.246164158486039 2.1419096880845636 0 0 0
46 1 12.399623341575598 5.683861588440378 0.9560017967441006 0 0 0
141 1 10.41699108451267 1.0670747789785615 4.735840584045773 0 0 0
22 1 18.825494764854515 2.3031713709877764 0.5164621040088828 0 0 0
138 1 9.263355009402678 2.697949808142074 4.107391828185654 0 0 0
43 1 9.25900347456678 3.892414417271058 2.188007188264251 0 0 0
16 1 10.727851327849626 2.3936475071039625 2.5585047087795485 0 0 0
173 1 10.952622603853811 4.486892640816375 4.088109756100753 0 0 0
1289 1 7.1404934319318505 14.121565167047844 7.717241673700903 0 0 0
273 1 13.986077635186687 0.7558116436001248 7.483196566605941 0 0 0
510 1 26.050201823015232 12.171657774979241 11.090044180027245 0 0 0
103 1 5.357739854509946 12.1164540615789 1.1025930338999805 0 0 0
47 1 12.573020814354546 4.32567872898772 2.6256611541884736 0 0 0
142 1 12.359209419262958 2.704059943871719 4.178327359713347 0 0 0
20 1 14.1427528023674 2.5844654294930463 2.4771732685844237 0 0 0
177 1 14.475289120671725 4.345072961915914 4.1654074898901 0 0 0
146 1 15.942499633585463 2.142750699485313 4.195562753865838 0 0 0
509 1 26.4329878537331 10.48364394529223 12.85994342916328 0 0 0
267 1 8.75404597529739 0.7200060653455805 9.211082499280536 0 0 0
269 1 10.450558989607533 0.5598767067771082 7.618954600942649 0 0 0
512 1 24.51009803444739 10.915649739868616 10.83599514163295 0 0 0
131 1 27.546215826362225 0.6552883179618898 7.416150315633439 -1 0 0
83 1 16.04860950036089 4.07880468778633 2.4750568192508 0 0 0
181 1 17.803176042765482 3.8410131303104404 4.249405890800095 0 0 0
55 1 19.302796818964488 3.5509515376020357 2.383553562859773 0 0 0
149 1 17.635706822210153 2.3205270757794105 2.2275039011126103 0 0 0
150 1 19.128691542060686 2.043463841768743 4.137766204719093 0 0 0
637 1 24.619486163618426 12.491041304004039 13.023348419017369 0 0 0
124 1 22.864004809129767 12.190836684453014 0.5826518493826508 0 0 0
1293 1 10.476021338513688 14.16210637446531 7.597762962455055 0 0 0
59 1 22.55228367200447 3.902357437096118 2.3232721584157203 0 0 0
154 1 20.64670058757213 1.846423393561984 2.160319957433906 0 0 0
160 1 22.296718457197077 2.398033248779787 3.787797652771462 0 0 0
314 1 20.709896778534386 3.8826529458989185 4.23670276925516 0 0 0
1033 1 7.308009127203465 13.871870505964601 0.9080448151973635 0 0 0
57 1 20.784040274871202 3.570446038942888 0.6899368518928939 0 0 0
157 1 23.88133335914359 0.8804431330562561 3.9711500605336694 0 0 0
189 1 24.267187371047353 3.3225032679604656 4.050057905773457 0 0 0
187 1 24.16144434206898 2.135711134652646 2.133196332313142 0 0 0
63 1 26.076494714990943 3.374309018866615 1.8948628583972942 0 0 0
158 1 26.292343239093654 1.7810322684894166 3.7556012379039845 0 0 0
399 1 12.438205188441163 0.5063188965795291 12.976603417921995 0 0 0
70 1 3.4806815378989158 10.839991449306297 0.9627819878410473 0 0 0
24 1 15.760356091326596 2.5679979932274835 0.6304350515200494 0 0 0
401 1 15.552786985578544 0.9744727893520333 12.279767537148663 0 0 0
1553 1 14.163371112171584 14.139269669016551 13.9938385865396 0 0 0
932 1 3.6267948375759675 5.297197157577741 2.0989984472574097 0 0 1
162 1 2.011659564868855 5.222488502444099 3.9821331689850332 0 0 0
67 1 1.6180117618107326 7.09797351158853 2.586093852013085 0 0 0
196 1 1.5864408436810407 8.507919376196648 4.005171315652896 0 0 0
198 1 3.4750776660887492 8.681818659460736 2.5574114333570623 0 0 0
168 1 3.8220986379755275 6.915479086134882 3.715366777113438 0 0 0
534 1 19.260616570578122 3.258238180059818 14.008938697354614 0 0 0
34 1 5.7710267997754325 5.465693533473723 3.6446825460446988 0 0 0
44 1 6.949161155087903 5.905363052796218 1.7909920294552202 0 0 0
166 1 7.287141645623978 7.3246786134441075 3.9974450988456858 0 0 0
71 1 5.108669947213188 7.284984340349239 1.6532857041267779 0 0 0
76 1 7.402861422287306 8.896219415219786 2.1704504887103964 0 0 0
996 1 26.03739485034829 12.54550121144517 0.7357941644149835 -1 0 1
197 1 5.247670004223592 8.6221046720839 3.7317331458276133 0 0 0
135 1 6.079414219124803 0.5419953032983749 5.410167336307195 0 0 0
1175 1 20.87984108662693 14.164949721780943 3.829802121170066 0 0 0
170 1 8.711667717168568 5.584697344131222 3.6912040437702465 0 0 0
48 1 10.509411988875899 5.797856949224329 2.338893921335777 0 0 0
75 1 9.111129843078528 7.375996065395686 2.1947745061097934 0 0 0
205 1 10.600434215380993 7.564477216206605 3.9703491250323553 0 0 0
80 1 10.917816089549007 8.980313553599975 1.914719471776263 0 0 0
202 1 8.931866602801295 9.08326017218682 3.7455801740461485 0 0 0
49 1 13.961717728261188 3.954920930035635 1.0210107130742507 0 0 0
1437 1 25.89715946927026 14.12698240512484 12.812065631287275 0 0 0
13 1 10.733624097591568 1.2383480260356523 0.7432191664309973 0 0 0
79 1 12.14190390547595 7.581865196450869 1.7373333131525333 0 0 0
206 1 12.577110829799928 8.3805770088407 4.1638868289140625 0 0 0
174 1 12.4951373005359 6.002077285919845 4.191314640439215 0 0 0
52 1 13.825890183086592 6.317185787180258 2.203615727979673 0 0 0
209 1 14.568463345127116 7.346365575473566 4.240205140010846 0 0 0
84 1 14.373978672059431 9.05556085923985 2.3880291075889666 0 0 0
88 1 15.849944222338042 7.552646364873684 2.520887540147595 0 0 0
210 1 15.899884657245877 9.178930793737464 4.161263998095034 0 0 0
1029 1 2.0711354892733524 12.621457363282648 0.7419478125668529 0 0 0
137 1 7.098742189685183 0.6227964990786958 3.624553809108733 0 0 0
1305 1 20.682879389023014 14.001759776510427 7.3142881901863985 0 0 0
178 1 16.14860580901869 5.868846140212914 3.9786739812002048 0 0 0
185 1 19.345973059488127 5.790702711474532 3.9773586635269136 0 0 0
56 1 18.007663324795082 6.081120660073704 2.2591702744041466 0 0 0
92 1 17.770024224674412 8.539924736779035 2.025246487460083 0 0 0
60 1 19.617923370162547 7.478728864439787 2.2802579798194476 0 0 0
184 1 17.58573872348147 7.601504191118811 4.140359982600231 0 0 0
87 1 19.399681498922426 8.978170526664654 3.9547471693801555 0 0 0
614 1 5.427030116540412 12.362491538679775 13.956759262469348 0 0 0
1299 1 15.673158973159506 14.09022474189983 9.334149613461076 0 0 0
188 1 20.687002280947198 5.457347667210161 2.2984467085504887 0 0 0
186 1 22.77002552985907 5.204982631714563 3.9116828247908697 0 0 0
91 1 22.313810043824834 6.908084856282648 2.0280262873336308 0 0 0
217 1 21.099279335799903 7.244864227937765 4.310608586864934 0 0 0
123 1 21.170227034074653 9.041019637274738 2.0951238182643035 0 0 0
249 1 22.726659087549837 8.91537840650865 3.6516652702713124 0 0 0
96 1 24.0330197531142 8.51348699087835 2.2225180645256457 0 0 0
1286 1 3.6814945434276565 14.051767234921268 7.4160289570325615 0 0 0
395 1 8.812493338041724 0.9386990006572171 12.849742466154668 0 0 0
193 1 27.29804610734733 6.775196087849747 4.196835516986183 -1 0 0
36 1 27.766420637559655 5.49372339735143 2.4280115577711134 -1 0 0
194 1 27.131152991167017 8.707006194274687 2.312315765546501 -1 0 0
190 1 25.86121011175468 4.922749660093244 3.5414412985763053 0 0 0
64 1 24.208114954753135 5.10972030209111 2.002716055579799 0 0 0
218 1 24.221980226976644 6.603428538437271 3.584091045353334 0 0 0
95 1 25.964041007112293 6.747622274418428 2.4537141583930215 0 0 0
222 1 25.608570254189313 8.299340926599951 3.702128300739528 0 0 0
32 1 25.754735130252623 0.5578010652310438 2.3235703815116597 0 0 0
554 1 8.974508432783109 5.3817395216367 13.939390799017806 0 0 0
99 1 1.7385002378783647 10.314290830850616 2.552183129399819 0 0 0
232 1 2.0783623850460495 12.469726010347566 3.932636483336668 0 0 0
104 1 3.6117063999512844 12.584092295186098 2.4811109024921256 0 0 0
229 1 3.4398854872644096 10.55457656979579 4.065199592717951 0 0 0
225 1 0.5727730267288251 10.317681209679288 4.256658393217111 0 0 0
97 1 27.663558844953243 12.36552429648228 2.38148512716625 -1 0 0
143 1 12.28545688676422 1.0534826838784976 5.789988663640955 0 0 0
405 1 17.778085711905952 0.6108251324911006 11.340920706133254 0 0 0
1171 1 16.063353170808803 13.925527929924536 5.842997592712351 0 0 0
558 1 12.336132623702497 5.635145189833296 13.823424529250417 0 0 0
265 1 7.29432848796086 0.567351664354568 7.5755927788918385 0 0 0
108 1 7.010307884723748 12.215185031993462 2.3882708915410396 0 0 0
230 1 5.529630037135229 10.166170607329274 2.5069421194663835 0 0 0
235 1 7.328192570368045 10.302860435178822 4.021045239555825 0 0 0
1160 1 5.36802772435662 12.278207863065655 4.050102561230335 0 0 0
407 1 19.418232403128243 1.2088939783689532 12.806583301919934 0 0 0
58 1 22.42360144044781 5.33028882201498 0.5496105427768005 0 0 0
107 1 9.046059921499378 10.327665325323766 2.0285878014267604 0 0 0
112 1 10.58300715809687 11.777494658312317 2.3335731324540694 0 0 0
237 1 11.483891035926415 10.297964179107653 3.695028927291305 0 0 0
240 1 8.758657061216667 12.053638652804516 3.9435654153556667 0 0 0
388 1 26.180636319956605 0.5980277467918736 12.419923239031567 -1 0 0
14 1 12.354374076542998 2.4975226797946304 0.8084485232109567 0 0 0
238 1 12.715394351680507 12.491849423475408 4.186205169829588 0 0 0
111 1 12.918096344853266 10.685942726014797 2.2078870665546444 0 0 0
116 1 14.41950100342357 12.263405857890453 2.508106517296656 0 0 0
241 1 13.975805258618893 10.506532272910931 4.168685851703592 0 0 0
242 1 15.74649858131488 11.747930683010173 4.190584682951572 0 0 0
115 1 16.060139249247207 10.830249121312786 2.3132493230198614 0 0 0
19 1 15.870924592491987 0.6591970111682487 2.2973200912538623 0 0 0
1049 1 21.11501538144858 13.657794943210344 0.8044170942817357 0 0 0
1047 1 17.581450309958047 12.38835203046532 2.4377083622439955 0 0 0
245 1 17.600068320072847 10.434312613112175 3.80404117786634 0 0 0
119 1 19.119978166121072 10.286830826427593 2.202817121340485 0 0 0
247 1 19.484936095000684 12.090682041885847 3.6017995303201538 0 0 0
139 1 8.280968891743438 0.5177061202335302 5.735234365451836 0 0 0
507 1 22.91754585491266 11.288968357706299 12.490258647258642 0 0 0
246 1 21.153346250440727 12.011292647420412 2.3802037832992937 0 0 0
128 1 22.70055734864887 10.535649731982684 2.1823995359530928 0 0 0
1177 1 21.004943567775985 10.488716323445423 3.9926490734336615 0 0 0
254 1 22.88965284342476 12.56709664013824 3.6586719994896546 0 0 0
125 1 24.400554034011027 10.596039558115915 0.8059484788880769 0 0 0
1411 1 2.056058180704321 14.049895163925848 12.404385791982197 0 0 0
100 1 24.511938177109098 12.51938916663766 2.4568545842195393 -1 0 0
253 1 24.476748085090243 10.272598087985068 3.447894558698125 0 0 0
228 1 26.252285344768655 12.479651849765556 3.9619880330459467 -1 0 0
94 1 26.311459365723366 10.470391315713957 2.065263230587461 0 0 0
533 1 17.55966628735339 0.9281274820460745 14.171554980148864 0 0 0
132 1 2.0644158702421667 3.4694953177125702 5.599230819437684 0 0 0
598 1 19.453967841660038 8.901837724139696 14.145777787685487 0 0 0
258 1 3.9041085482409303 1.9459032755016155 5.7184076613976265 0 0 0
293 1 3.8438093118201895 3.850048171068376 7.07869345912676 0 0 0
287 1 2.3522529326853814 1.8325633910383234 7.393518420660791 1 0 0
386 1 3.765478962312087 2.192890961779547 9.142010968111435 0 0 0
257 1 2.0187495003997418 3.838829728111456 8.690575382486596 0 0 0
291 1 27.7104364502378 3.4693264851322927 7.257342951226967 -1 0 0
1176 1 19.025116363554712 13.606694401903429 5.472316883384057 0 0 0
102 1 5.656960469494298 14.070107951857173 2.514437637632435 0 0 0
159 1 25.609402597521868 0.6979786166076407 5.616666935446013 0 0 0
62 1 26.342771613521958 5.32296765003822 0.6029572975055367 0 0 0
165 1 5.606965290265816 3.7678869354519686 5.472798247094037 0 0 0
140 1 7.224405739883947 2.290901562896366 5.092001347315278 0 0 0
262 1 5.50976069303641 1.834141026218883 7.1523522312891545 0 0 0
297 1 6.915615854623751 3.7636290606137615 7.5408595004551335 0 0 0
295 1 5.076183758771321 4.1905713885410005 9.123708344980638 0 0 0
390 1 6.748868324452815 2.2945550625320816 8.952017864693051 0 0 0
492 1 7.094587401941576 12.161648480781974 12.680916600358056 0 0 0
144 1 10.540373479508965 2.845758140050096 5.8751071658084815 0 0 0
171 1 9.024864011454502 4.521560052105365 5.55952451848595 0 0 0
268 1 10.196842069724074 4.057714676012344 7.5501073979010584 0 0 0
266 1 8.682913293632504 2.2068302148699646 7.250737250028729 0 0 0
272 1 10.181946942193322 2.309338516493959 9.044536238878475 0 0 0
299 1 8.737291268111262 3.9562372402783788 9.127719225861911 0 0 0
301 1 12.227127036112353 4.249268165313965 9.059932912760672 0 0 0
508 1 20.934474257800133 12.454679462830997 12.638827318324182 0 0 0
879 1 10.584345303509343 13.917693840897362 0.808698972209484 0 0 1
270 1 12.065101303440922 2.453256738451585 7.84557009360839 0 0 0
175 1 12.378857121926924 4.480991007431785 5.951654101392825 0 0 0
148 1 14.11701599741893 2.2457090609208605 5.359528742368568 0 0 0
305 1 13.915738158482785 3.6386743790798812 7.1823737617589485 0 0 0
303 1 13.984993121568207 2.0833125933599392 9.138301425560309 0 0 0
179 1 15.66519236911135 3.813436685525008 5.847264120618177 0 0 0
274 1 15.781769471920514 2.4799082705053586 7.58908108101559 0 0 0
437 1 15.998823538447938 4.07098156448472 9.102695641497931 0 0 0
615 1 5.115613440365823 10.502259071895004 12.40710707774583 0 0 0
152 1 17.49384858374257 2.5273666948360574 5.875856521462348 0 0 0
183 1 19.66936739408508 3.871244652747585 5.953983777485746 0 0 0
309 1 17.790039724638422 4.075898646577177 7.340990926685536 0 0 0
278 1 19.125359529760015 2.0154302779364004 7.588852722024442 0 0 0
280 1 17.41779514326863 1.9329638074793993 9.37127404531371 0 0 0
311 1 19.28423535065283 3.5854283919298924 9.089511711817153 0 0 0
106 1 8.977905384782852 12.107918976770012 0.6570836916822506 0 0 0
506 1 24.6500549040644 14.127072017016268 10.923476437687782 0 0 0
192 1 22.325270104850592 3.347261867359662 5.929220344088115 0 0 0
313 1 20.756425746227876 1.9696697321893346 5.5104221518872665 0 0 0
284 1 20.98274413047806 3.709352134300457 7.59059344346372 0 0 0
406 1 22.378289129705447 1.8569210667356597 7.362990767977073 0 0 0
315 1 22.42541359893426 3.561069778482748 9.264919309365814 0 0 0
1530 1 21.16846395604731 1.951125548693601 9.277214600984879 0 1 0
633 1 21.204397841294846 10.583725824359384 14.149797564459911 0 0 0
618 1 9.015871612775356 11.937428782302794 13.933917656585571 0 0 0
285 1 0.5557584643359341 2.186088783832565 9.1140648759393 1 0 0
286 1 0.5001653912930912 2.0166670801890265 5.535966790859398 1 0 0
282 1 24.11080846123731 1.888924216078148 8.985053782439513 0 0 0
347 1 24.353767240170896 3.770350353015995 7.6973571611737945 0 0 0
289 1 24.157099095796514 2.198429283281426 5.994475303184016 -1 0 0
191 1 25.896506916484626 3.407072074088368 5.490823297652095 0 0 0
319 1 26.00003072192864 2.3024924522093055 7.263302829618304 0 0 0
446 1 26.14941331272248 3.703403979308433 9.050566412639611 0 0 0
1435 1 22.84460185822125 12.771742804084072 10.711694632258565 0 0 0
329 1 3.9690611238119167 5.150692857273084 5.516151001736965 0 0 0
195 1 1.5966569952654275 7.304223177523459 5.6687487680240665 0 0 0
296 1 2.233447523108511 5.165292494728177 6.771045764706284 0 0 0
323 1 1.8890842868141895 7.312184171478231 8.886483883203399 0 0 0
322 1 1.4172750584701292 8.70122474333115 7.271669777139483 0 0 0
328 1 3.376719331320135 9.18296367229843 8.723113314181775 0 0 0
163 1 3.359032193975078 5.870773551291081 9.21519528451229 0 0 0
164 1 27.678785372316728 5.449185147668527 5.59381773036683 -1 0 0
200 1 3.805309277460917 8.895361208152954 5.547242712553008 0 0 0
325 1 3.7266019792451 6.942891460086337 7.257689153025601 0 0 0
350 1 27.077676404568997 8.843784210313583 5.54574291276241 0 0 0
290 1 27.26448103176195 7.144578781486383 7.409924633997829 -1 0 0
233 1 5.284397549211932 6.986471395774894 5.644926274648848 0 0 0
167 1 5.510026541828138 5.580364965642361 7.319546725870792 0 0 0
172 1 7.094713326906126 5.6855603749704215 5.550766662873242 0 0 0
331 1 7.030256878535652 7.267660761963705 7.502423491458063 0 0 0
199 1 7.368321683101609 8.765197818030337 5.698012310119786 0 0 0
326 1 5.371970937332295 8.715037111789275 7.114849819462825 0 0 0
332 1 6.766617525900495 9.194769233168717 9.171132508820566 0 0 0
294 1 5.208003604203284 7.391881032888741 9.211764349862907 0 0 0
300 1 6.986523803966614 5.5340133500751225 9.016555145512104 0 0 0
176 1 10.843314859845556 6.018908078662461 6.106392037222986 0 0 0
298 1 8.716316500060108 5.847423846077571 7.477733678131637 0 0 0
203 1 8.994156792777012 7.337948737357149 5.643308606074151 0 0 0
302 1 10.397044363753746 7.842698912039292 7.150214444337854 0 0 0
336 1 10.669566531026357 9.229262989289024 9.048187822505092 0 0 0
304 1 10.447634978775941 5.7557507424505525 8.840410189275172 0 0 0
330 1 8.86077917900432 9.321401322434026 7.568368293343429 0 0 0
208 1 10.950513579254974 9.082033497025526 5.593298512657205 0 0 0
461 1 8.51942051768237 7.334171849787796 9.10413373997598 0 0 0
333 1 12.049971144033846 7.566670493429235 8.858342029043888 0 0 0
180 1 12.624547319245098 5.815812619463983 7.673820868544379 0 0 0
334 1 12.552448634063897 7.288379972158579 6.129693092098795 0 0 0
365 1 12.267384631788666 9.265207861729092 7.275681908883391 0 0 0
207 1 14.23176586787254 5.8208924539747535 5.640284212624766 0 0 0
338 1 14.593156669512815 7.046282694573013 7.494267353710385 0 0 0
340 1 14.321881976613922 8.762919951226397 8.982407804269531 0 0 0
335 1 14.199393605865348 5.8350197574337495 9.176192371605888 0 0 0
337 1 16.325981728243963 7.189545836100064 6.24464388684027 0 0 0
212 1 14.009096651570335 9.145895203445255 6.113866195970442 0 0 0
339 1 16.199784878883293 8.970623853656102 7.516192313964398 0 0 0
307 1 16.227424069365373 5.349823825918912 7.56032501782384 0 0 0
308 1 16.227369827005607 7.466752414581952 9.156567192372144 0 0 0
306 1 17.764388874221282 5.322309121009469 5.740475659623362 0 0 0
310 1 19.8159290779125 5.532766870249866 7.547259258932906 0 0 0
215 1 18.811714223010306 7.3349741228488545 5.721959299611173 0 0 0
341 1 17.950035298124273 7.004476775254292 7.592556407192815 0 0 0
344 1 17.974283093767184 9.066710067641026 8.994931480755126 0 0 0
343 1 19.725060674542284 7.606316248043009 8.685365971656882 0 0 0
211 1 17.819803313825766 9.092943602822887 5.684301362285126 0 0 0
216 1 19.734516509273604 9.414206753266338 7.5984851246118525 0 0 0
220 1 22.39456750604346 5.435681700931243 7.497543688577806 0 0 0
221 1 22.776589005631077 7.443857502446501 5.628679111831407 0 0 0
219 1 22.843308560246026 7.32922778783773 9.137088089519287 0 0 0
342 1 20.938856443803765 7.221351252543323 6.822427697949188 0 0 0
345 1 21.0864858492407 5.531993429911131 5.508965836220589 0 0 0
375 1 21.160076802127588 9.034872030842907 9.192879257492473 0 0 0
213 1 21.239924974252585 9.20416586932987 5.668625008591882 0 0 0
214 1 22.77628922512727 9.32315519739511 7.561111614739737 0 0 0
316 1 21.3384250574832 5.990122440480314 9.111935925399964 0 0 0
324 1 27.073753686537515 9.042120451390657 8.889270916727675 -1 0 0
292 1 27.414333257601324 5.253900365678741 8.530986957361685 -1 0 0
318 1 24.067022654955093 5.19561975749243 5.521442891278927 0 0 0
224 1 24.1950653153788 9.121737331241246 5.475394242521447 0 0 0
317 1 24.029135269818674 7.272883471176757 7.217066724156624 0 0 0
223 1 25.702394025761667 7.01207827708548 5.590589371557538 0 0 0
477 1 25.56335990492269 8.684627557904404 7.0513297671715 0 0 0
320 1 25.759158795851842 5.239266005139655 7.246274921321261 0 0 0
349 1 24.45890427037395 8.944645366392788 9.134534301506983 0 0 0
321 1 25.438914453238336 6.981088671617704 8.955891376609946 -1 0 0
346 1 24.206797172074374 5.355967579589159 9.073768074550435 0 0 0
275 1 15.759811875564285 0.8180329086833389 8.975219238355473 0 0 0
66 1 1.8179438349931663 9.00548787159739 1.2084145006641216 0 0 0
1161 1 7.319072909520902 13.950745948631434 3.8684292641304308 0 0 0
1285 1 3.6754205643224878 12.148625956201679 5.563885838842881 0 0 0
227 1 2.27063040948004 10.62697871214449 6.168401225287801 0 0 0
354 1 2.093771533567307 12.456375716515108 7.235818703692541 0 0 0
355 1 1.4956782857091597 10.939782385573944 8.573059817806923 0 0 0
357 1 4.2541569309714395 10.416953558273137 7.287591235105016 0 0 0
1565 1 22.803227033956297 14.063763218938321 12.524419513914442 0 0 0
353 1 27.351561093789204 10.65447262548734 6.827256606690665 -1 0 0
1931 1 4.074678144170258 13.933106398929654 0.8846191938276882 0 0 1
1169 1 14.518513786092601 13.936331640828987 4.260009308634954 0 0 0
360 1 3.243371645178627 12.49793269158124 9.193640125909106 0 0 0
204 1 7.206238335634023 10.70625963374898 7.4288176683541085 0 0 0
236 1 7.317182160119679 12.367827757112437 5.70170748564353 0 0 0
231 1 5.735708078248566 10.448750114995235 5.4844451753551375 0 0 0
358 1 5.208880906628168 12.38915399519437 7.532665646071462 0 0 0
359 1 5.211650401355911 11.029368837584096 9.266701105951718 0 0 0
364 1 6.8818245674839345 12.430466067466167 8.962168923152232 0 0 0
82 1 16.087041156976753 8.913761026974946 0.5605571742240656 0 0 0
234 1 9.252078000933672 10.665300570302673 5.426927616159054 0 0 0
361 1 8.931024250670612 12.403385137786447 7.303197038215672 0 0 0
363 1 10.736303869945111 10.834821337033837 7.527004317341776 0 0 0
362 1 10.459286224279108 12.705275511630674 5.492076795025787 0 0 0
368 1 10.529503493744544 12.439278441678557 9.285434652962024 0 0 0
458 1 8.709421929146913 11.0033678734312 9.371564844317316 0 0 0
380 1 21.173155838243062 10.69930718965952 11.147065074096622 0 0 0
366 1 12.377932667844352 12.46222544273618 7.632109721183163 0 0 0
367 1 12.406292646325115 10.83853065467509 9.324311107418433 0 0 0
239 1 12.469413558369515 11.111762304194595 5.915219647558981 0 0 0
244 1 14.260611467431714 12.489719704233647 6.097438379117365 0 0 0
369 1 14.408095393960712 10.757700670355238 7.756806207387659 0 0 0
372 1 14.210110591502014 12.354664378008087 9.55792724048136 0 0 0
243 1 15.62732405263167 10.623270673792291 5.9003352820643356 0 0 0
371 1 15.858507598368885 10.551982322605989 9.19457264811671 0 0 0
370 1 15.800022683832525 12.59078693210595 7.75646519942317 0 0 0
376 1 19.26457893737836 10.719868775726654 9.344282036782694 0 0 0
248 1 17.377355164098308 12.047038244327862 5.54647888245816 0 0 0
373 1 17.451506304514204 10.6444367885346 7.414225559707305 0 0 0
374 1 19.177843360185115 12.309765538712005 7.49974798454004 0 0 0
1301 1 17.552209661016093 12.535008215212963 9.313605488804408 0 0 0
252 1 19.63089201386196 10.843639260753585 5.798743203358796 0 0 0
547 1 5.396452269082589 1.9015001229127244 13.761444220632697 0 0 0
377 1 20.632819693566365 12.482393737723234 9.403112036145941 0 0 0
379 1 22.53978322905422 11.19555234701069 9.283648080695782 0 0 0
250 1 21.38152530051034 12.362503038835243 5.19727016062006 0 0 0
251 1 23.014964029377964 10.925127499538874 5.705092854969848 0 0 0
348 1 21.053538488279596 10.991760326967366 7.451611085159288 0 0 0
378 1 22.608813288648978 12.58540965871949 7.58344889410673 0 0 0
69 1 3.302608195913737 7.1149906848728675 0.5870694878974712 0 0 0
625 1 12.176403612782462 11.131300583836488 12.637192797854416 0 0 0
1281 1 0.5510836058734837 12.418184931817281 5.747513365030711 0 0 0
384 1 24.01860613383225 13.121718928995099 9.133792874830162 0 0 0
352 1 25.859667606549316 10.842603393716823 8.79523945858305 0 0 0
256 1 24.307944139724086 13.225205651016243 5.4422403710118745 0 0 0
381 1 24.114195366957254 10.967384290474923 7.459419196808636 0 0 0
255 1 25.686632566608196 11.154368061867089 5.723426972337817 0 0 0
382 1 25.999204953870418 12.701846895834478 7.358938071742991 0 0 0
504 1 17.50312080774453 12.342797522757829 12.406536502958486 0 0 0
1163 1 8.78027850627286 13.976417852453084 5.8455309092687395 0 0 0
260 1 2.372330198683297 1.9675638542360523 10.7930967380222 0 0 0
419 1 1.8915917898711998 4.315157095534756 12.357682337431024 0 0 0
421 1 3.548255546534221 4.066691879699849 10.626688656903825 0 0 0
524 1 3.576989312036918 2.3897361830217734 12.4803624862286 0 0 0
417 1 27.776278609758986 3.6103920947271533 10.83558122036849 -1 0 0
392 1 5.239664928970298 2.0491000076975094 10.988435533698611 0 0 0
423 1 5.124649935004573 4.403847678508409 12.160318954787511 0 0 0
425 1 7.138239971861021 3.64177376822665 10.668181785564903 0 0 0
522 1 6.988148517631175 1.9472789445651613 12.314571619671248 0 0 0
385 1 25.947469285816656 0.5467296807325184 8.946055458924503 -1 0 0
501 1 17.451253284561542 10.351368739704828 10.601578297772406 0 0 0
427 1 9.183968093725777 3.3893845843401476 12.816636536675075 0 0 0
394 1 8.533846640011456 2.206875442567532 10.678170465528027 0 0 0
400 1 10.900872834327723 2.338896666544313 12.17573854242348 0 0 0
429 1 10.671728433719533 4.245181700285549 10.669127215880811 0 0 0
610 1 3.6119585198014716 12.450549389753316 12.604405534659765 0 0 0
490 1 8.734162874810593 12.335205427243919 11.147057532449303 0 0 0
503 1 19.25933130064976 10.737002629986343 12.449409455525208 0 0 0
398 1 12.258031963202994 1.9390101098561066 10.741790868520487 0 0 0
431 1 12.367168776311576 3.9471921937532275 12.138998618650955 0 0 0
404 1 13.748767254225633 2.069859862468136 12.535434600396954 0 0 0
433 1 14.068877893461138 3.9262033102035176 10.519945529695606 0 0 0
402 1 15.822385803430317 2.6321509216375607 10.823045635876456 0 0 0
435 1 15.259417321877326 4.056917596288349 12.480835391279273 0 0 0
1173 1 17.32055531429505 13.988254872793709 3.8873503786030428 0 0 0
491 1 8.814135834241878 10.242123044068254 12.398771975596615 0 0 0
147 1 15.670840739824557 0.612446886497745 5.8548457214019605 0 0 0
1500 1 20.749454918211992 0.7143045851797858 10.992136720889416 0 1 0
283 1 19.120388440916727 2.244534637518452 10.73106068968934 0 0 0
408 1 17.56965370024729 2.6586315880986207 12.24083260543889 0 0 0
409 1 19.49605746266356 4.610750100319976 12.34665197804306 0 0 0
439 1 17.425977304780652 4.372603199456551 11.091309606527789 0 0 0
494 1 10.770319285932187 12.681717552118618 12.846225110386268 0 0 0
410 1 22.772324365720117 1.742209684625576 10.958694268160773 0 0 0
412 1 21.117464525655148 2.572983251710604 12.421441220601414 0 0 0
441 1 20.817305829235156 3.9028665229749215 10.731906531683586 0 0 0
443 1 22.648460097829528 3.7519263468232125 11.909187157040316 0 0 0
502 1 19.26913418136209 12.52290203599989 11.360795501809662 0 0 0
485 1 3.1125013566283304 10.609659123854685 10.434166379324363 0 0 0
414 1 0.7161025936990392 2.0799324887463246 12.715452441549777 1 0 0
474 1 24.75071121285567 3.9488898974183013 10.828174901912778 0 0 0
416 1 24.29250652529503 1.9455973068509755 12.441487471928742 0 0 0
445 1 26.506368565269174 3.427875827384973 12.488826386409698 0 0 0
288 1 25.937884597063604 1.792988493050339 10.637010234477012 0 0 0
498 1 15.923682655401441 12.558597858705797 10.860608383218201 0 0 0
453 1 3.821446722366162 6.013789666197659 12.529869799498158 0 0 0
420 1 27.55391298848932 5.905506804699754 12.804058565668871 -1 0 0
418 1 1.5636398400587337 5.8068619502156675 10.408448239485534 0 0 0
451 1 2.0788192432619366 7.211049257374083 12.363189031202417 0 0 0
450 1 2.037319781152931 8.886652420580372 10.49501185690936 0 0 0
455 1 3.573947763163495 7.27720157678488 10.58234978665135 0 0 0
456 1 3.592317832432149 8.880177241922224 12.169060531211821 0 0 0
449 1 27.51304546242572 7.641174514175135 10.987981073755407 -1 0 0
428 1 7.113626797878181 5.502069522376748 12.228387988089791 0 0 0
617 1 5.693083394356487 7.054566299346424 12.532282499304756 0 0 0
422 1 5.38262785701986 5.819316711606386 10.478939063829813 0 0 0
457 1 6.902554249702001 7.510617960696714 10.616955019384001 0 0 0
582 1 7.014829851333962 8.945849329791047 12.759783948794668 0 0 0
327 1 4.864915700412563 9.226163047802808 10.638429873461636 0 0 0
489 1 5.579251630601684 12.528983452019393 10.889236141565707 0 0 0
426 1 8.765691807308666 5.733888811105387 10.487961801529414 0 0 0
460 1 8.775227275170966 9.025731557857027 10.543620262151798 0 0 0
462 1 10.416414206016203 7.391038604653949 10.658282329986413 0 0 0
464 1 10.945066405396648 9.267556336928573 12.560739338749096 0 0 0
432 1 10.659731877963043 5.380949155389177 12.503859269127924 0 0 0
459 1 8.991045045101702 7.306788495555535 12.261695511773178 0 0 0
590 1 12.201800217018654 7.258826755626216 12.700213507067003 0 0 0
500 1 14.322237747018368 12.505897393685013 12.166448913339083 0 0 0
1413 1 3.5865998393932212 14.118383806818402 10.895360475352557 0 0 0
463 1 12.145763910958829 9.033604305335286 10.563247729217265 0 0 0
430 1 12.364184460019702 6.065456013310204 10.442492879998273 0 0 0
436 1 14.146068028495742 6.041266687436405 12.499320682917675 0 0 0
465 1 14.0339331760694 7.737683631247555 10.760116928491824 0 0 0
468 1 14.076210709617877 8.971949296155929 12.86144362720955 0 0 0
467 1 15.740846053960007 7.303292012587243 12.626517069695096 0 0 0
466 1 15.870318147154325 8.756668905028306 11.01961352448463 0 0 0