LAMMPS data file via write_data, version 29 Oct 2020, timestep = 300000

2048 atoms
1 atom types

0.4750821007181951 27.876917899281427 xlo xhi
0.4750821007181951 27.876917899281427 ylo yhi
0.4750821007181951 27.876917899281427 zlo zhi

Masses

1 58.933

Atoms # atomic

5 1 1.7268102629775386 3.9376987742178264 2.7826849468723247 0 0 0
129 1 1.8546400435346366 2.061995376133024 4.022224584794527 0 0 0
1125 1 3.895643842203289 2.5880927710708255 2.3581729107462444 0 1 0
165 1 3.9516970279061607 4.189651830070181 3.8597178139698696 0 0 0
39 1 27.555683917162916 2.3770319096425423 2.734715884508758 -1 0 0
484 1 27.558915231482736 12.047938555140963 12.341607564837224 -1 0 0
240 1 11.179767424857431 13.877214804327341 3.803530099365706 0 0 0
1555 1 10.505460568960675 14.066796502960544 13.594434018442689 0 0 0
510 1 26.308010087451997 10.202612269854635 12.41988312355501 0 0 0
102 1 7.5429944818432455 10.553225345658236 0.652341517849075 0 0 0
169 1 7.419458608788834 2.1772500041367024 2.6575242218771975 0 0 0
44 1 5.5692145754883 2.215390573900491 3.7578718712957278 0 0 0
7 1 6.07310655909513 4.406995284524939 2.5078438065242272 0 0 0
138 1 7.206249370692781 4.1402595131468285 4.078218684582803 0 0 0
84 1 12.863047747387483 12.817355378917325 0.5979448316965184 0 0 0
360 1 2.121026931310829 14.035244604501438 9.046502619363666 0 0 0
347 1 24.442385602275927 0.48748706445508105 7.89076441358769 0 0 0
43 1 8.81912390206377 3.9730042486179147 2.4414769303709543 0 0 0
16 1 10.488073374307433 2.2397582806375267 2.4412380615389297 0 0 0
47 1 10.696382254364721 3.751039508415383 4.056953408971368 0 0 0
141 1 9.262525301117511 2.096035243539675 4.0938576106093 0 0 0
550 1 7.2266679101437825 7.058135984180389 14.121190243260566 0 0 0
1404 1 19.131691490322048 0.48376513768539553 9.28166157612509 0 1 0
142 1 12.493870433264354 2.2992864978330245 3.9674840923268344 0 0 0
48 1 11.869314916878519 3.3329377969533285 1.6665381051154575 0 0 0
145 1 14.196382386374601 1.9975216591397758 1.9018636749326194 0 0 0
175 1 14.44414811934084 3.6101457663112426 4.122545526757943 0 0 0
179 1 16.04949759953857 3.5130430749857258 2.35583606345935 0 0 0
181 1 16.455908758445194 1.998835350866985 4.260045748269938 0 0 0
8 1 4.149947624524303 4.136232819525795 0.8967710425019384 0 0 0
413 1 22.884721348486465 0.793276675849981 9.479947184019785 0 0 0
135 1 5.767717543512783 2.467381712863623 1.1007417371080406 0 0 0
1305 1 20.847727191869474 13.663255606939451 7.746218391689499 0 0 0
83 1 17.689479963668333 2.2597467159149183 2.512642139825543 0 0 0
55 1 19.306756270466508 4.050698813550142 2.0611175978814766 0 0 0
280 1 18.008716336445048 3.8366106622643135 4.3157653078876965 0 0 0
1408 1 19.638873859255867 1.9113405196206563 3.7871577964229277 0 1 0
4 1 0.5311591370332778 0.5507144877932821 0.511979601866204 0 0 0
154 1 22.73652426300078 1.6408490303615957 3.8478322602506503 0 0 0
314 1 21.08882426032094 3.7134137704834926 3.877927110607412 0 0 0
59 1 22.536757615718102 3.804507506898215 1.9023571272534134 0 0 0
26 1 20.7244259479357 1.8746182211245834 1.8366693088765014 0 0 0
506 1 26.08520539258334 12.193845852628995 10.22749280594726 0 0 0
130 1 2.058876407100617 0.6777778319798011 2.2142554786115154 0 0 0
164 1 27.362276744048756 3.9491353983379875 4.407352814945742 -1 0 0
151 1 24.44633490721425 2.3287636813928865 2.4458803194597065 0 0 0
189 1 23.999898345317895 3.917229443221865 3.9268607150757204 0 0 0
63 1 25.903597612349024 3.995103611215202 2.4768933333338565 0 0 0
161 1 25.761134893996484 2.059644138846469 4.103262659403143 -1 0 0
1167 1 12.693038191639486 13.734130235875279 5.979122065126231 0 0 0
106 1 9.403033449592852 12.11170450979825 1.198457278209791 0 0 0
546 1 1.9405981521452524 5.436622738055803 14.132452891598438 0 0 0
35 1 4.120775583883958 6.31105238621235 2.702456899309536 0 0 0
36 1 2.012820143003098 5.72631521954729 3.8581143623517398 0 0 0
67 1 1.7883386519215523 7.469468182018794 2.639864168831722 0 0 0
168 1 3.9912889121039785 7.858981326511158 4.28096408184472 0 0 0
195 1 1.9039780110150746 9.19336611546324 3.9435458444052625 0 0 0
198 1 3.8752720397386127 8.874189822601608 2.3875644352978593 0 0 0
194 1 27.6658317364369 9.42948952237208 2.23795816206001 -1 0 0
477 1 27.545858268238298 7.257641937807708 3.9807792010696876 0 0 0
562 1 12.277595917948085 8.671754660184165 13.964546122223433 0 0 0
38 1 7.471506952484318 6.171827703888124 1.9589222509252893 0 0 0
34 1 6.038673379493922 6.532203019067428 3.6706433568967234 0 0 0
166 1 7.824321371659753 7.414510590538769 3.797463377359057 0 0 0
76 1 5.698848176832838 8.120708274618682 1.8763739705091909 0 0 0
235 1 7.880060248795 8.734975560472023 2.021323109493917 0 0 0
972 1 5.942402724997659 8.97166290848771 3.90638942821229 0 0 1
1529 1 21.083317145539233 0.5710306990571697 10.503144062551524 0 1 0
942 1 10.99310549613642 5.527055859120236 2.0335373127144916 0 0 1
171 1 9.17329280128277 5.645622413716847 3.821697893251925 0 0 0
170 1 10.939877672709896 7.177842204551845 3.7064907588387754 0 0 0
75 1 9.344027846725831 7.029363717015083 1.911098263403457 0 0 0
80 1 11.201521923984583 8.889707488852148 1.9382367126717042 0 0 0
202 1 9.542506748026712 8.577608326393072 3.7588955732727896 0 0 0
209 1 12.87107510420404 8.747283559251438 3.6807513418572677 0 0 0
205 1 12.784909928594303 7.176051721884841 2.402918567462859 0 0 0
177 1 16.330407415167 5.03058758056014 4.167594404488679 0 0 0
1173 1 17.533915344539864 14.129498830018177 3.7862301936930782 0 0 0
174 1 14.045317587528624 5.475327350047991 2.2182538561329697 0 0 0
81 1 14.623436703810532 6.652188374730696 3.8590332154302964 0 0 0
79 1 14.761709999022049 8.639877359336253 2.189670690142403 0 0 0
210 1 15.647517693223534 8.931547221175343 4.047766213916506 0 0 0
178 1 12.861590115272897 4.92708229386677 3.6747353794590665 0 0 0
932 1 3.3972456136253455 7.453002957014168 0.6509223912638176 0 0 1
52 1 16.107327543968946 6.7904698135822725 2.321935571500797 0 0 0
56 1 17.606279118384506 5.124797877829515 2.4945587627317845 0 0 0
184 1 17.154231978279277 8.911944710194817 2.718747036817744 0 0 0
85 1 17.34669927488074 7.006656577786058 3.7895537438507443 0 0 0
60 1 19.173013584399314 7.072846964753161 2.22942136376545 0 0 0
87 1 19.723682176926836 8.941119045115677 3.4961239482214115 0 0 0
215 1 19.426399255916223 6.097187525404893 4.1491439644490224 0 0 0
1285 1 4.245324372477501 13.882616282374965 7.123059472764117 0 0 0
389 1 3.386636083546118 0.9889903951259975 10.670692886632581 0 0 0
188 1 21.32397984894942 5.880178105798399 2.2212558162935636 0 0 0
220 1 22.91219516743608 5.668177858212937 3.922586354122977 0 0 0
310 1 21.341578414587893 7.405054338970407 4.058761090265506 0 0 0
186 1 21.14437043130549 8.413009726688204 1.8376709255097847 0 0 0
222 1 23.0562794670779 7.509353466069943 2.4333387345676396 0 0 0
217 1 22.475930012495496 9.468729035060576 4.098709889668898 0 0 0
1051 1 22.686215714708794 12.531425672294885 0.7368908435993311 0 0 0
1158 1 4.11182273853616 14.169228499116958 4.071547509602315 0 0 0
1297 1 14.345750031388038 13.965012927263103 7.660536039491485 0 0 0
1000 1 6.9993397842601635 13.989852690345794 0.7360750752639882 0 0 1
68 1 27.59611811066948 5.693022613094289 2.538876862502537 -1 0 0
96 1 24.219426208543126 9.311143231396864 1.690440646846887 0 0 0
64 1 24.408570899066362 5.662504246503284 2.270559574709513 0 0 0
162 1 25.686194638735778 5.595076124397141 4.220682640722906 -1 0 0
95 1 26.115857944531776 7.7291007638443645 2.1135594793234915 0 0 0
193 1 26.446818435755205 9.238653895279086 3.9665686310294337 -1 0 0
221 1 24.39556781188403 7.786053431739827 4.012608435977029 0 0 0
71 1 5.651000193787613 6.314044543199322 0.6785148888773003 0 0 0
1295 1 15.85153195222119 13.96577418651115 9.151146703626168 0 0 0
374 1 19.34247208028747 13.603802240358789 5.7754627872155835 0 0 0
1029 1 2.2709467739616054 12.141566203634412 3.8854649711589317 0 0 0
99 1 2.2728563753183666 10.554421922089174 2.2109808391053476 0 0 0
229 1 4.194059481713966 10.658880143184915 3.9209493418545183 0 0 0
103 1 4.169102808464885 12.206896739172832 2.407638972981017 0 0 0
1035 1 7.558602239217055 14.084685840141926 3.547101767694438 0 0 0
1426 1 19.707774887907355 14.023993691128908 9.636669428902971 0 0 0
197 1 6.002910638862423 10.12632576816135 2.1193068856056634 0 0 0
1160 1 6.121608752790955 11.993284369683936 3.7227363555539146 0 0 0
1033 1 7.6263092504276 12.24430041396264 2.200130127485563 0 0 0
237 1 7.954306235251533 10.475811757234622 3.614079146972937 0 0 0
555 1 12.484658675212593 2.5323202369123257 14.163335448385391 0 0 0
1379 1 0.5035961065868477 0.5203633262160368 6.977577011103707 0 1 0
1181 1 26.231206646214382 13.873001158630743 1.9110439749798716 0 0 0
1007 1 11.551356917798708 12.427785392565857 2.297074224497517 0 0 1
107 1 9.602637054097853 10.093457081722551 2.071796334934369 0 0 0
206 1 11.199246329910547 10.378484883248314 3.660192063823502 0 0 0
112 1 9.505823176936966 12.215002030904927 3.4458621968001544 0 0 0
299 1 11.131678259100623 0.9821706708007282 10.332653870388974 0 0 0
269 1 10.654722459337677 0.5221709520652752 7.6325023047055645 0 0 0
111 1 13.070753559159721 10.83114934009417 2.342724881739943 0 0 0
238 1 12.788604604469462 12.28844227722448 4.253027116614671 0 0 0
241 1 14.545137106655197 10.739122695085925 3.958851110200712 0 0 0
1041 1 14.434817781202963 12.90551272219635 2.2731585157922423 0 0 0
115 1 15.966016680711249 10.716913065864802 2.188675855100122 0 0 0
116 1 15.69035460578505 12.689283411937128 3.8877865232810507 0 0 0
243 1 17.807325331216667 10.214163610616666 7.670647254914695 0 0 0
2 1 2.4984233842564327 2.3994436603479334 0.6529673132554203 0 0 0
92 1 19.41870802630354 10.565745549155205 2.360113616909863 0 0 0
1047 1 17.111313148012485 12.960891486107265 2.0059988432942437 0 0 0
119 1 17.074040654588018 11.067478468230103 3.922578263266026 0 0 0
1175 1 18.82515271244624 12.498757018035068 3.7325726725736077 0 0 0
128 1 22.336605549381126 10.75980183995723 1.9819748923193927 0 0 0
247 1 20.50637782273119 12.474238722475585 2.510166924676885 0 0 0
254 1 22.50181482667326 12.410401255361249 3.7504207232087845 0 0 0
250 1 20.728142277393715 10.536942381843051 4.110019166995887 0 0 0
1418 1 8.895421933099133 13.98722326619132 12.244325266257523 0 0 0
65 1 0.49321719297217753 7.358859075171038 0.7155094752519464 0 0 0
94 1 0.740222147956655 10.82011333423554 4.285757638340932 1 0 0
1184 1 0.6458486337362217 12.304457135885945 2.1127844445732284 1 0 0
196 1 25.916533001289224 10.73527127732217 2.0354017538140003 -1 0 0
253 1 24.53311479249661 10.611801072847097 3.867013342191857 0 0 0
100 1 24.426017910013513 12.481804858600988 2.4849277471569793 -1 0 0
1309 1 26.251986225157403 12.420452951075836 3.8660119373136324 0 0 0
1028 1 0.7065936398857336 13.71225935790139 3.548059257329467 0 0 0
271 1 12.796975471563371 0.5711090174256306 8.968111709556968 0 0 0
887 1 20.740275669654054 13.649701805959605 0.5272986484898032 0 0 1
287 1 1.933960309225448 2.0466134117286803 7.515089433646391 1 0 0
132 1 4.244155411703058 3.8078232800610823 7.215723810344294 0 0 0
260 1 2.2019893788057425 4.09161215881407 8.923545509821212 0 0 0
296 1 2.2919111168385795 4.231892860440464 5.229879254392908 0 0 0
258 1 3.583880838007855 2.3710014477072274 5.625777685883833 0 0 0
264 1 27.58353476745833 2.2952734404445403 5.731771017530212 -1 0 0
245 1 23.16974636970567 5.807668562766853 0.6236728168317629 0 0 0
109 1 11.673932904830513 10.85275244897321 0.8006740752749435 0 0 0
931 1 2.6141034133076912 5.4943893505070704 1.4664280581109743 0 0 1
386 1 3.736181982385685 2.4603700157328667 9.127010655803657 0 0 0
297 1 5.521353067668348 3.843203793648443 5.387578885997609 0 0 0
140 1 7.030764090708766 2.1284309104053047 5.8296451025505736 0 0 0
262 1 5.728965306808688 2.2868636156260873 7.790996574758249 0 0 0
390 1 7.32285329491509 3.973622871328409 7.0884348666502195 0 0 0
295 1 5.751966914788447 3.7252959823225926 9.426372619155295 0 0 0
394 1 7.843225802742872 2.48407978242285 8.709672080867389 0 0 0
69 1 26.44693211981499 5.449560898127876 0.5603861615955099 -1 0 0
637 1 24.37581137153606 10.165401965059257 10.881680957092433 0 0 0
173 1 9.031528777464288 3.8785433149921973 5.193892611313612 0 0 0
148 1 11.16074557952512 1.8772560268787377 5.634585257638331 0 0 0
266 1 9.107711629349357 2.184561101213659 6.7731276752147584 0 0 0
302 1 10.6310129761747 3.687498278512326 7.314502692621358 0 0 0
272 1 10.033999738207198 2.2385231854920233 8.859322795000445 0 0 0
300 1 9.036812308343002 4.12423000203823 8.987654161584443 0 0 0
765 1 24.73124870337223 12.104986030690926 12.588725892683536 0 0 0
268 1 12.714504802680862 3.8360153285365555 5.6886314728717515 0 0 0
144 1 12.552852973469237 2.0378050097523923 7.396074601891824 0 0 0
301 1 12.444314922585916 3.3838740017077713 9.179449802276308 0 0 0
270 1 14.390326240371033 1.9556288105336013 5.66333173031314 0 0 0
305 1 14.217480605646921 3.876525229728325 7.502448681564547 0 0 0
303 1 14.53884936977862 2.2674468013512836 9.216368615964143 0 0 0
183 1 16.14417508399562 3.713882970729985 5.895624965168251 0 0 0
274 1 16.060303265337232 2.174588360980428 7.426674977577279 0 0 0
335 1 16.00547995926827 3.8742794099457085 9.097078463315642 0 0 0
311 1 19.42198568425985 1.694277545966409 7.441723465492204 0 0 0
185 1 20.109782369040055 3.639233512030027 5.763913616552974 0 0 0
149 1 18.370597822549428 1.931992411069665 5.787339864028369 0 0 0
313 1 18.02174162838687 3.713580192511492 7.279724989185984 0 0 0
283 1 17.623257757791066 2.1529054694491965 9.395257887759469 0 0 0
309 1 19.046313730585737 3.7384852278861658 9.16313570339594 0 0 0
49 1 14.377837289689989 3.6731552493521735 0.7928131113212937 0 0 0
27 1 22.48084008651943 3.3886054844681524 5.791772957903904 0 0 0
150 1 21.20802565589036 1.8313099525799201 5.597604794777018 0 0 0
1530 1 20.640846009738425 2.4693315420630317 9.293899597789698 0 1 0
157 1 22.9439734058234 2.2555672435311367 7.724567677373231 0 0 0
342 1 21.175977503418643 3.760839668542018 7.621655268816501 0 0 0
315 1 22.739180035342763 3.813819436870271 9.21038740095914 0 0 0
1307 1 22.862188288044223 14.051179729567005 9.186069029412398 0 0 0
396 1 5.235002623032685 0.4783348852206686 12.271081620738416 0 0 0
282 1 27.315257729802184 4.1799099708263 7.217292349236694 0 0 0
190 1 27.37841850318 2.615029685257804 8.7505759173043 0 0 0
289 1 24.054559107732274 1.5892072313039824 5.9568348308621495 -1 0 0
218 1 24.251766626691463 4.028723408036786 7.546259035979186 0 0 0
158 1 25.5061008022667 3.8203432784629237 5.770558542930573 0 0 0
1150 1 24.599817509667425 2.3013950037278184 9.49372002418374 0 1 0
131 1 25.72496427205644 2.4702683576279005 7.292219462430244 -1 0 0
406 1 26.050940581742154 4.1652142240484995 9.384783532105999 0 0 0
20 1 12.476324126697872 1.4554043252846622 0.800736372728385 0 0 0
293 1 3.9507988843375754 6.015659984665646 5.359142539269767 0 0 0
329 1 2.5700267297864126 5.4867209086395965 7.243618503967916 0 0 0
40 1 2.243645924238364 7.517816145014068 5.684585365643037 0 0 0
322 1 2.4565730260264322 8.96362742426788 7.377941570651592 0 0 0
231 1 4.135822744828038 9.693389084954058 5.7781269551809835 0 0 0
328 1 4.060747699022472 8.849782112123938 8.88517799160781 0 0 0
325 1 3.960364946138781 7.436304978091645 7.130839708920614 0 0 0
292 1 2.4610167193562535 7.056392105756961 8.715281204604734 0 0 0
163 1 4.512619620169352 5.441260799272445 9.236798734735238 0 0 0
324 1 0.8109136763085274 9.019269183052424 8.772519112440257 0 0 0
223 1 27.546567526624848 5.565486585269878 5.75174508208118 0 0 0
257 1 0.5777742129050054 5.7247404607960215 8.877752505680467 0 0 0
350 1 0.7325658146381407 8.841671825005267 5.76685396987124 1 0 0
172 1 7.369113973592153 5.903143525948196 5.32869881991354 0 0 0
167 1 5.74415280161199 5.498634515080768 7.142239324026925 0 0 0
331 1 7.220727685810636 5.636056466911456 8.645872567341753 0 0 0
199 1 7.711318743078719 8.877232803520894 5.473782001757425 0 0 0
233 1 5.918495542613617 7.74434941375083 5.966478557829669 0 0 0
204 1 7.771412015261584 7.223793908877866 7.092721592325861 0 0 0
326 1 5.7488253727797956 7.265553762736107 8.469865653965602 0 0 0
327 1 5.639484856609748 9.588279004280972 7.267359416953056 0 0 0
454 1 7.3261429007361 8.638324991509345 8.656096357817363 0 0 0
298 1 9.159381507688272 5.102779007583889 6.821282240656479 0 0 0
176 1 11.066856940242243 5.453338218277111 5.529077032297708 0 0 0
203 1 9.60790019386799 7.088512692953909 5.371226599025522 0 0 0
336 1 11.032943293291796 7.369713067697304 7.223465044163804 0 0 0
208 1 11.135894330946819 8.835962103328091 5.5871626302622674 0 0 0
330 1 9.534551215847614 8.60848000365858 7.226953140768406 0 0 0
304 1 10.815613131793642 5.136373607428351 8.990170539619669 0 0 0
462 1 10.26858574724754 8.782368732181054 9.187928831787284 0 0 0
461 1 8.918776348946551 6.957950395934405 9.159177394177316 0 0 0
308 1 13.61208647502991 5.150845221434894 9.23732016196931 0 0 0
212 1 12.757523384974695 6.902868350017481 5.33905092048642 0 0 0
180 1 12.351024328538507 5.585293822270477 7.489429238053197 0 0 0
333 1 12.250996706688362 7.018704287532779 9.105624719738806 0 0 0
207 1 14.276886661256427 5.705116427910732 5.999743330947898 0 0 0
365 1 12.694099800608763 8.587951675485739 7.461974171027323 0 0 0
337 1 16.56573218755706 6.923564984281364 5.708912863152673 0 0 0
338 1 14.126943471185525 8.949577818599142 5.4820537426315825 0 0 0
334 1 14.248518971341998 7.082639926576193 8.050203639214088 0 0 0
340 1 14.109859191027601 9.266224652469111 9.370190726989506 0 0 0
434 1 16.65714895674835 7.534147603109669 9.075306744149767 0 0 0
307 1 15.988314433847403 5.20658795400489 7.260845796912127 0 0 0
371 1 15.987055303639996 8.42047255827651 7.07811308543409 0 0 0
306 1 18.20984336118162 5.651627394713347 5.686560178362984 0 0 0
343 1 19.532702678449233 5.417321187235537 7.4517515001961785 0 0 0
312 1 18.21229117500573 7.854824783918721 7.470583695542601 0 0 0
341 1 19.15706712807745 7.2286474858344425 5.772592963068269 0 0 0
375 1 19.638236678460828 6.7504059698429035 9.130601651018278 0 0 0
377 1 20.32628189343078 9.211261710488182 6.13951975391061 0 0 0
439 1 17.86179392765269 5.8570100720068945 8.729439743653266 0 0 0
252 1 17.95266941766893 9.136385864632494 5.03798249932196 0 0 0
284 1 21.2306887079816 5.61022978544708 5.315279312250326 0 0 0
345 1 22.665599978111345 5.53131213654173 7.520709646636536 0 0 0
192 1 22.6168780101043 7.885692794526138 5.537773208414822 0 0 0
216 1 20.874450528010733 7.142433793690115 7.036724698101739 0 0 0
214 1 22.339048903120315 7.375994277343378 8.792557666371492 0 0 0
348 1 18.945201517864305 11.056431514625977 5.494534251032284 0 0 0
473 1 20.740287048220345 9.00140489284393 9.006499464633698 0 0 0
317 1 22.57440480066822 9.273046297334105 7.7367463983419364 0 0 0
290 1 27.78956118652612 7.101089068719155 7.035135970611115 -1 0 0
446 1 24.242007570251076 5.952739427169622 9.021228449160473 0 0 0
255 1 25.832657425695274 7.699407709768559 5.588025746589099 0 0 0
219 1 24.184280199731063 7.246384495035363 7.37588352400727 0 0 0
349 1 23.827656995865752 5.9046207650531715 5.779862071464652 0 0 0
318 1 26.133898967190433 7.386463990936257 8.59228763542246 0 0 0
320 1 25.529956719246968 5.52320268062975 7.085146312071517 0 0 0
224 1 24.400769641285997 9.266199767403606 5.796220346527992 0 0 0
321 1 26.272460787871722 9.145314813747508 7.126798975257853 -1 0 0
346 1 24.55719538134465 8.896219847730515 9.118642604602469 0 0 0
1428 1 12.324639548260258 13.6961109544079 8.862814429116712 0 0 0
6 1 5.635142588856434 0.5790455356060704 2.0413004329208038 0 0 0
1469 1 24.2673365293615 14.056617207618894 11.039402203832552 0 0 0
1281 1 2.421513212231707 10.92919428124936 5.790156455098495 0 0 0
354 1 1.7527797374435636 12.653223283151707 7.1645280751556495 0 0 0
1192 1 3.8615650595788162 12.5402210278753 9.15619840458701 0 0 0
227 1 4.103416279086111 12.40445634550411 5.529314119007704 0 0 0
200 1 3.662328671635609 10.889560292707749 7.61901583313266 0 0 0
383 1 27.773560393164182 12.47211001815404 8.992836882936523 0 0 0
355 1 2.083262384603045 10.883093819125111 9.093896990406142 0 0 0
1427 1 15.879525542031068 13.715956455200862 12.684950592733042 0 0 0
1155 1 2.153624682860161 13.820132912938009 5.318233417217159 0 0 0
959 1 26.172446247269427 2.2183629578225883 0.7136221498373367 0 0 1
357 1 6.14212278845789 10.63858134146963 5.181694131621364 0 0 0
236 1 7.992587313756989 12.328970752072985 5.23775217629888 0 0 0
489 1 5.773843723378585 12.044449655138141 7.050123481711002 0 0 0
358 1 7.668632035885209 10.609081836503922 6.6662794968898265 0 0 0
364 1 7.185605110130479 12.490120984212526 8.884638705233234 0 0 0
359 1 5.5841702289002715 10.666549286415867 9.035307105161335 0 0 0
33 1 0.5793175365398824 3.6815208730437234 1.0613179952078717 0 0 0
508 1 21.313475278018686 10.935081809082734 10.821736489396688 0 0 0
1435 1 23.3140928230861 12.215905617798358 10.748566266511405 0 0 0
362 1 10.982392017617897 12.113116970092598 5.4973464518396415 0 0 0
234 1 9.280570048629667 10.394357282946693 5.184264311560579 0 0 0
361 1 9.359757757310906 12.008712149037532 7.3061698764487835 0 0 0
363 1 10.796260658633026 10.546784302383129 7.020729242595049 0 0 0
458 1 8.776960337689964 10.29415134793255 8.996790250119625 0 0 0
368 1 10.754148585126236 12.21293698336429 9.44114587494858 0 0 0
285 1 1.4022422614597483 0.9937090572365308 9.211933846596185 1 0 0
366 1 12.372560838043158 11.854626295203033 7.381260170748261 0 0 0
239 1 12.75114297483343 10.444213666576644 5.606024003241411 0 0 0
244 1 14.655095571034568 12.318204409768583 5.819360289914444 0 0 0
369 1 14.51280517582128 10.331494598254947 7.62256606449156 0 0 0
463 1 11.967465106116348 10.406868405913134 8.849404672730621 0 0 0
1423 1 14.261705520368057 12.254500948437293 9.141040186284053 0 0 0
367 1 16.622092897766592 10.571936359935071 9.311278561652417 0 0 0
1171 1 15.891801841971047 12.371544589028113 7.5248005146630526 0 0 0
1438 1 26.311794741060908 13.759494524412734 12.3726921794681 0 0 0
1296 1 10.721068876286406 14.022709880716924 10.739599823539294 0 0 0
248 1 18.32785540577013 8.945672894022104 9.449121727975035 0 0 0
1304 1 16.343697141593942 10.570057389548111 6.063698130820858 0 0 0
370 1 19.14704489412408 12.440366228791165 7.528133049408078 0 0 0
373 1 17.17087124274132 12.558071609283026 5.885770260292617 0 0 0
211 1 19.411273242189303 10.759938748813651 9.075035612550888 0 0 0
1301 1 17.675526039874754 12.374332188997615 8.96500645713017 0 0 0
13 1 7.474076027825547 4.138943855446664 0.5620280198156306 0 0 0
1250 1 4.033352220938555 0.5674744794828852 3.443966459862424 0 1 0
380 1 22.840053163737714 10.529468795329349 9.254489035849577 0 0 0
91 1 22.48792932308551 11.19290102118832 5.697176503697377 0 0 0
213 1 20.865709688953103 11.017395142404364 7.434784199377646 0 0 0
378 1 20.72600142616792 12.298212310311067 5.482625862904579 0 0 0
384 1 22.647738659063137 12.581674355166179 7.36275737180636 0 0 0
1303 1 21.375761299111566 12.39218246062598 9.257080478471282 0 0 0
507 1 23.105556142783207 10.769232353565615 12.696178282682778 0 0 0
225 1 2.683083600840067 12.207314226121927 0.7071825962404509 0 0 0
353 1 0.8163704606769708 10.56894238555739 7.36616715999471 0 0 0
382 1 27.794133051618907 12.29865904394974 5.506792867908074 0 0 0
512 1 24.248349130367714 12.60078304170086 8.786885387389994 0 0 0
1177 1 24.385645841198198 12.321486382650521 5.211923650359869 0 0 0
379 1 24.18242366187598 10.926883529147293 7.463816134193874 0 0 0
381 1 26.166197519840793 10.513036569558992 8.350549197451832 0 0 0
256 1 26.40362858726403 12.596790799007836 7.008772814315569 0 0 0
251 1 26.02851358599908 10.785723984343212 5.639588538850681 0 0 0
634 1 21.2444797609339 12.142787381945572 12.665336349872954 0 0 0
574 1 2.099187068289797 4.27855942606244 12.424902000399904 1 0 0
419 1 1.7148869880854167 2.419108571426163 10.621748587682076 0 0 0
542 1 3.731276796229749 2.351336565969045 12.173445576338228 1 0 0
451 1 3.777889703226074 3.8060665959418243 10.663522130299661 0 0 0
414 1 0.5019795979162538 2.5335587863087596 12.668493000190757 1 0 0
422 1 5.743285161869984 2.0333300686146254 10.935439093798543 0 0 0
392 1 7.393076117735963 1.8726728524822587 12.668975867314352 0 0 0
423 1 5.595677790173665 3.710737249818887 12.238415494449805 0 0 0
425 1 7.517071825909983 3.6608514059096313 10.948865291663079 0 0 0
1139 1 12.384662704836757 0.8008851291086287 2.6100419186805226 0 1 0
1293 1 10.43070356096534 13.880727879773666 8.030326421771825 0 0 0
617 1 9.069547883268402 3.730230719436989 12.39826528006587 0 0 0
1519 1 8.946102102078186 1.7681580599628341 10.712397108956523 0 1 0
427 1 11.024582366529046 1.9926862181371665 12.571541232090595 0 0 0
429 1 10.652673974911577 3.498884375324681 10.615468715673547 0 0 0
625 1 12.497049147818315 10.710996198932605 12.508779588723618 0 0 0
1541 1 6.003565379778493 13.768366075237271 12.815634304870786 0 0 0
136 1 27.706408518954795 0.5326769915672003 3.992784537424767 -1 0 0
398 1 12.993817832868354 2.2098427310486795 11.218806286190487 0 0 0
431 1 12.577207233804323 3.9401417054138688 12.427123880489406 0 0 0
400 1 14.633622772840116 2.128209345997483 12.98339084288253 0 0 0
433 1 14.517606164415264 4.02764427934622 11.075276512590117 0 0 0
402 1 15.852563481432762 2.164632418864249 11.086751574514045 0 0 0
399 1 16.061902429936897 4.350507924057573 12.832096615447124 0 0 0
448 1 24.334967467156076 3.8697862589614274 14.0951183907027 0 0 0
97 1 2.4365432463130734 14.13890872809612 2.017806761571441 0 0 0
405 1 17.650274239604933 2.3053067531490674 12.814070870377744 0 0 0
437 1 17.663022716498382 3.6192312451811337 11.010940787169812 0 0 0
408 1 19.31233860313712 1.9837167730200493 10.869436344833803 0 0 0
409 1 19.212728195700933 3.8092521790529745 12.820380492547462 0 0 0
14 1 10.641168767497403 0.6308883715115579 0.9197586818726062 0 0 0
1429 1 17.281227602430384 13.838247895954172 10.993096740494048 0 0 0
249 1 20.591946496454455 10.12658896577079 0.5931715928565503 0 0 0
501 1 17.860396934300795 10.62685122755309 10.943563356734673 0 0 0
278 1 20.663187020523367 3.808122883886301 10.983773406665547 0 0 0
1500 1 20.941136636568217 1.7917231072737643 12.366135562505477 0 1 0
410 1 22.627923766240826 2.259843960973729 10.884744110723885 0 0 0
443 1 22.181552815632223 3.7667971844754904 12.560763590160292 0 0 0
388 1 24.63939166875476 0.5511621059021194 11.067077279354843 -1 0 0
1433 1 21.40955128128558 13.597301522231163 11.000556504110136 0 0 0
1163 1 9.585947715602368 13.649874692964602 5.662967604379871 0 0 0
420 1 0.7312022087854473 4.553470415814062 10.427760207566115 0 0 0
411 1 24.272414930263828 2.282377399583095 12.487165735592475 0 0 0
474 1 24.152008906618804 4.2555663689194665 11.206775407019592 0 0 0
417 1 26.038474536657944 2.448774316197822 11.25181904123596 -1 0 0
475 1 26.223855021653897 4.40350573469065 12.582461175522825 0 0 0
1003 1 13.11803432421718 8.92882258210632 0.4831727179925364 0 0 1
503 1 19.44854726886807 10.867603895985315 12.880871751391481 0 0 0
1646 1 12.846702458964144 0.48145092230534564 12.497555110550394 0 1 0
552 1 4.09888083525121 5.491123544342749 11.957983502848133 0 0 0
450 1 2.358601915095112 5.913347346890906 10.760312170330664 0 0 0
453 1 2.4244105201660946 7.003552658604959 12.40459809030466 0 0 0
578 1 2.278913549607462 8.867095534639606 10.84414356918982 0 0 0
553 1 3.8808816287548047 7.571517467863546 10.612501812387052 0 0 0
456 1 3.690188664780955 9.032255040844502 12.521982027168812 0 0 0
418 1 0.6164420103131505 5.851026489405883 12.543773882766821 0 0 0
630 1 19.605973581666618 14.07676017594929 12.666809165521899 0 0 0
387 1 2.0458071197306267 0.5284809342898513 12.386596923022987 0 0 0
1159 1 6.120742110332989 13.753380901860247 5.3039461029559005 0 0 0
1554 1 17.900073502879266 12.497071447133637 12.432163370311878 0 0 0
455 1 7.485535254751146 5.48517596380025 12.339528104413194 0 0 0
294 1 6.142947972126735 5.597282398343273 10.696686296033501 0 0 0
615 1 5.781353720021208 7.554992862774848 12.485757217396694 0 0 0
457 1 7.389193992148998 7.327506052747592 10.65228057983722 0 0 0
487 1 7.626247693042651 9.044536947160422 12.991431881177029 0 0 0
323 1 5.761304814358175 8.877205847209106 10.541241241888885 0 0 0
502 1 19.36636117300442 12.177689847376202 10.902444956729562 0 0 0
558 1 10.804281827185829 5.430279215729965 12.790363818593944 0 0 0
426 1 8.978374133991153 5.06529408765543 10.653803447126974 0 0 0
459 1 8.829563792850116 7.314359448749676 12.881614407158072 0 0 0
432 1 10.547054445233863 6.994757710209977 10.713114042501442 0 0 0
590 1 10.418057772137558 8.64746084129392 12.71191056414511 0 0 0
332 1 9.167161282212364 8.576436566621835 11.033878647415817 0 0 0
1290 1 8.476132871338589 14.050196303889708 9.937990090647475 0 0 0
430 1 12.273406040070315 5.546460648824202 10.815777602774673 0 0 0
404 1 16.291877114219293 5.500067321812178 10.674246452949323 0 0 0
468 1 12.078090370033511 8.399246274045286 10.890030951269742 0 0 0
557 1 14.682023808679537 5.784874005239918 12.5927229427623 0 0 0
436 1 12.752139054205228 7.066417424119639 12.351451845608278 0 0 0
594 1 14.07940775192265 9.022182568619758 12.3969417417867 0 0 0
465 1 14.318805795825023 6.893402596029199 10.487705264781779 0 0 0
467 1 16.254383824385286 7.456148504280224 11.875206251787391 0 0 0
466 1 15.770262453652727 9.29059402318597 10.830111763611827 0 0 0
134 1 5.573444915152973 0.7175652505078365 5.392527179158423 0 0 0
438 1 19.239185844763135 5.5162538176468106 10.940578626683683 0 0 0
1521 1 17.78851149767842 5.694844032240212 12.57342598512279 0 1 0
376 1 19.78094350286206 9.222069907294538 11.135774033348515 0 0 0
470 1 19.52189514803348 7.395558632655876 12.54904832756354 0 0 0
344 1 18.210051117702534 7.559941660828806 10.97659531314193 0 0 0
597 1 17.763750760495107 8.947135457746745 12.572873188601674 0 0 0