LAMMPS data file via write_data, version 29 Oct 2020, timestep = 300000

2048 atoms
1 atom types

0.30375471122804676 28.048245288771383 xlo xhi
0.30375471122804676 28.048245288771383 ylo yhi
0.30375471122804676 28.048245288771383 zlo zhi

Masses

1 58.933

Atoms # atomic

1534 1 12.48107425853505 13.032022637614082 10.883458014639167 3 -1 -2
1737 1 10.84952978831464 8.985472679140164 1.738889229686319 2 1 3
1926 1 2.432753231950123 2.4683624447697294 3.843133658726278 -1 0 2
588 1 1.654323944631456 3.766935249812591 2.2490950360066178 2 0 -1
104 1 3.6234514346593145 4.572731884464467 5.346224713586138 -2 0 0
1651 1 8.93767959771017 9.411415893310778 0.8417947785649427 2 2 1
1620 1 25.73797285686863 8.380768105479948 1.4601308937994897 0 2 -1
552 1 11.324450502717076 0.39042476405515236 12.789324255326711 0 -1 1
1227 1 18.656009467831353 3.2898546079135387 10.280645038153992 -3 -1 1
795 1 8.563419617128849 1.8321570754368115 4.226956463099423 0 1 2
508 1 8.349396594589708 4.721172808892083 4.774225436815879 -1 0 1
1223 1 6.881139252816757 3.4798360097487055 3.8159598030337003 0 1 0
1339 1 23.845629289301968 0.9307480285331083 5.901536010972251 -2 1 -2
968 1 5.457784317981048 2.5177209292977305 2.5694409144146344 -3 0 2
914 1 6.491759600726255 0.9129547520938694 2.796985887328413 0 2 1
1933 1 8.88579165930328 1.271697009990354 1.603487949859824 0 1 0
273 1 8.946044592271667 3.4133031711483275 2.8243407024861256 0 1 0
1027 1 18.691358356703866 2.513995055884206 0.7308444394534055 -1 0 0
777 1 12.982358005442741 0.7854635897906003 2.396952338871841 -1 1 1
57 1 26.931032935383243 1.4350470602612417 13.773380158947973 0 2 0
374 1 8.998231162750717 5.860495557683892 2.8393119462861893 -1 -1 0
1849 1 11.185758189072008 2.003707944740934 5.036816515228921 -1 2 1
825 1 18.519708828889122 1.0967612669664009 11.156873677706416 2 -4 1
1916 1 14.444245918624436 3.571907744749088 1.9891607793842252 -1 2 3
236 1 14.329272481637075 1.5299997503488103 3.6747508843388053 -3 0 1
1217 1 27.106369532404656 3.562925319948584 1.1216759411687622 1 0 0
341 1 10.733072336515956 13.804248551818777 12.4410023438367 -1 0 -3
383 1 17.306973611840718 1.9213111498195006 9.589910491726005 3 1 -1
1860 1 16.13054390337906 1.8142437855722975 2.563003052180976 -2 1 3
292 1 17.66139171404678 1.8223232581098583 4.1214762947677 -2 -1 -1
1655 1 18.00636537661272 5.421117996486867 1.071047504920008 0 0 1
1035 1 20.288805305967735 1.5743148596702643 1.993245917192156 1 2 -2
109 1 16.946811550986077 3.8648363711618976 1.9618031059054524 0 1 0
212 1 18.12235003728847 0.7724410063872287 1.9736555357342318 -2 1 0
1982 1 19.97756669808971 0.5484796175963101 4.07097263169123 2 -1 0
1248 1 28.04474119546026 2.1121200602850534 11.509217906039487 1 -1 -2
849 1 27.33292604563107 13.007113156548812 13.251689296094378 0 0 -1
698 1 20.51752324580029 11.654796416024856 1.8677252294404731 -1 0 -3
1139 1 22.208462257660315 2.712153357040253 2.1864291269748324 2 2 1
1068 1 12.798778037283554 1.1937065688548305 8.678202913376333 1 -1 1
1452 1 2.743295035836614 6.6614089717499505 13.703348356498417 -1 1 3
1216 1 23.222135304147834 4.236200525680081 3.0996887294259534 0 1 1
1421 1 2.569787356822986 2.824625853183241 12.98829895832375 -1 1 4
671 1 20.733420452707207 4.401171401501819 1.4792843847869592 -1 -2 1
1678 1 19.218590072780515 4.009162177287093 5.457493632762645 -2 -1 -2
419 1 24.438502458272836 2.613193027010476 2.16225446443471 -3 0 1
1582 1 26.79797343772809 3.567574379969516 3.1624888443908867 -2 0 -2
74 1 23.07077076974292 13.77448336253505 9.91807601644046 -3 1 -1
710 1 25.796226719043737 1.1760754279280718 0.854602345322753 -1 4 -1
1070 1 23.639688484961447 2.9327555451335834 4.7676084849096005 -1 -2 -1
1473 1 23.08668831311276 5.512587939330959 5.533207303965008 -1 1 1
1947 1 22.024441936948286 1.3403394553017347 4.000362677163508 0 0 2
47 1 26.928902868554687 11.341267853295403 11.487398035576204 -2 -1 1
977 1 6.925068480407483 13.35112331178163 1.15073745456383 -2 -1 0
332 1 10.384523898834594 0.7589538338412469 8.02182153583136 -2 -1 3
1579 1 1.7473726468617017 7.924512077377076 1.6951505453435691 1 0 1
284 1 1.4127904049888453 7.845416504601393 4.420625917949903 1 0 1
454 1 13.698544287376135 13.964792017459573 4.825881448719266 0 1 2
1843 1 5.579519680102171 8.465529551517074 2.863440449506997 0 -3 1
614 1 26.5771202625374 0.7558351175610258 3.1838934795135194 0 -1 1
2044 1 0.4162409080670579 5.562515461954052 1.5602874285133401 -1 0 0
1341 1 15.425168231488383 13.645692987451666 8.47557975340314 1 0 1
308 1 7.458184666794506 3.3002184256027833 1.464086595106349 -1 2 0
97 1 3.6443683019876594 4.417966261972257 2.9179357590245187 -1 1 -1
1577 1 3.3569740302647233 1.0091547002325902 2.65145964297099 3 0 1
961 1 5.610208420394895 7.910189246943155 5.467981412980338 -1 -1 3
240 1 4.586374449197175 6.907043721293271 1.877199230720447 1 1 -1
1576 1 6.9405802323589985 7.990931593042493 1.1888385225973224 -2 3 1
1988 1 8.421935448316399 8.090946946398864 2.6428203951984166 0 2 2
453 1 6.852293566580427 6.659206848360685 3.849022603660801 -2 -1 1
634 1 5.689934640843695 4.95086438506737 3.0955193020222653 2 0 0
125 1 6.091874912940833 4.928781227675341 5.388866718110606 1 3 0
543 1 18.19561593356032 7.860570395892331 12.855953881079241 -1 -2 -2
1931 1 12.772083921171943 2.870965213231262 0.842800402032579 -1 2 1
1064 1 8.593917853901226 5.009768654568637 0.45300486907950566 1 2 1
208 1 17.195488196591562 4.38832352530548 14.082062121209704 0 -1 0
840 1 9.784861276964756 6.824380960490056 0.8375996919679345 -1 1 -2
1278 1 10.470039531549851 7.679269692069906 6.483803488001767 2 3 -1
1266 1 9.248854094422702 0.6294537027318898 12.23494313629971 1 -1 -2
909 1 17.66862351399611 7.5671375509090915 1.049469827040694 0 -1 3
288 1 5.384695145687229 0.4426832162586895 10.009719650885348 1 2 2
1686 1 13.523012306250216 4.871407339296938 0.6003995066710341 -1 2 1
1263 1 10.4772093836568 7.627288075124209 3.2854311014620117 0 -1 -2
783 1 14.650407118350232 5.446199207030645 2.7594667614220736 -2 3 2
294 1 14.195531678580902 6.20774890156094 5.031067090706065 -1 -1 1
621 1 23.144230618815037 0.5898693453405869 10.25254028765445 0 3 -2
1255 1 12.848702111545855 6.1857550268523855 3.4548474880186175 0 0 1
2047 1 12.245172200194808 1.794744784433026 13.804219527643466 1 0 1
1004 1 19.601123770016926 6.359334222467809 2.454788101302926 2 0 2
1591 1 19.705445794488597 9.775279564758595 2.534859537971835 2 2 1
1902 1 21.741777288156513 6.5801175586061005 1.8268735413630364 -1 -1 -2
1783 1 19.065722898386944 6.362279095095914 5.374906632779218 -1 1 0
287 1 15.357569894249492 7.565413375292203 3.691830000288807 -1 -1 2
1398 1 18.262482928255316 8.08026364896806 3.0922544203761952 2 2 0
983 1 21.291933210213756 8.501739328431333 2.116109320073715 2 -1 3
202 1 20.771885036434533 7.474783496749574 4.0015077770654415 1 -1 0
568 1 23.888421954803945 6.770398841712756 1.5577119486819295 1 2 1
112 1 21.145444914872996 5.1176648259781325 3.7895125928725455 -4 0 0
1319 1 5.694135128003596 1.5329642641562888 5.163642579187818 1 -2 2
1160 1 18.19346385538116 4.778878912352807 3.843701713271613 0 1 2
1134 1 22.177790871206277 7.558246608861382 5.7787004607706205 1 1 0
539 1 27.529758812124413 12.076641119346581 6.531837550050545 1 -1 -2
452 1 23.5153459126566 8.634733516611426 2.3716372788160256 0 1 0
162 1 27.062575254971875 4.365888567955477 5.579822930664963 0 0 1
580 1 27.73077693092396 10.064134489401152 1.0187032197272825 2 -1 -2
677 1 25.62008544316452 6.549290315371116 2.754844384844089 -4 1 3
762 1 27.950102415905477 6.252699760714157 3.4969850176813178 -1 1 2
1971 1 24.909548879072133 4.6995986721510254 4.087002717334955 0 2 0
1098 1 25.336909183564913 7.580763126777099 4.770274374799884 -1 2 1
78 1 25.55352789275573 9.691953462286577 3.830915226118383 0 1 2
1021 1 23.412608875828724 6.719802526184094 3.960378048502335 2 1 -1
861 1 23.70831687002363 8.114234351700569 7.006848139819448 2 0 0
915 1 0.527783319832164 1.9417986658995603 2.51567202589183 -1 -1 -1
1609 1 5.038967686985377 4.264990199114234 0.6916380866994147 -1 0 1
311 1 3.450747894645097 8.505946612198702 2.9592103228305686 0 -1 1
1036 1 3.179716115258663 11.692806049907777 4.633512041428998 3 0 -2
1250 1 2.7227802417430156 12.7953518897476 2.5483986223421566 1 2 1
824 1 3.9202182696936805 10.880421945484226 2.9178824215121257 1 1 2
802 1 4.708510675379001 9.782974290389179 1.340352496688131 -2 3 0
1180 1 2.2972958863040596 9.916464747937116 0.8615406084006078 0 0 -1
683 1 5.808669888128579 10.77419276318568 4.016479989598404 1 -2 1
77 1 7.454755171332369 9.07393552005779 4.634470380507691 0 1 0
1003 1 13.566619535093974 11.138267119446688 11.049770071686176 1 0 4
1695 1 5.619068143383601 11.929253695627885 2.2753747270106297 1 1 2
949 1 17.041139865018167 0.7617412678237654 7.265085424101904 2 -2 2
198 1 9.412880869524402 10.202228533732939 3.3699016601801337 -1 -2 -4
186 1 6.558322761483216 13.734452953568 3.333690642618245 -1 -1 -1
1766 1 4.192623993068196 10.674978157117607 7.048495302458464 -1 -2 3
1399 1 22.936328330251953 5.002573722754935 0.7806131568068565 1 1 0
1185 1 5.226562720024919 12.892191579621024 5.863531535118442 0 0 -2
930 1 11.93821203948823 6.90248355107552 1.16437079872658 -1 0 -1
345 1 1.16658314015345 11.681088118188656 2.0531331435077727 2 -1 0
398 1 13.193525761968786 7.899123840845944 2.09791661193925 -2 -1 1
655 1 9.35399116806272 9.204458075438902 5.585014810361467 2 0 2
1997 1 7.260674846439311 12.209972667726719 4.636607043144909 0 0 -1
179 1 11.645472408788518 9.82568560899534 3.7706306110139534 2 -1 1
471 1 8.337971271241853 11.829805181321548 1.9438336165370773 1 -1 0
882 1 9.6939714454835 11.852427768937897 4.715038618263322 0 -1 3
1762 1 25.767156960493793 14.079003017840886 12.13307694507565 -2 0 -1
833 1 7.3137087854718175 10.747736895907588 12.973340590198607 0 -1 -1
948 1 14.030130293503793 11.158013970510678 5.270811245552981 -1 0 1
1333 1 6.833230846300112 10.232379096337493 2.4100091057792463 2 -2 1
36 1 12.827917432174994 10.806739507818985 1.5522260471021103 -1 1 2
1732 1 12.81585184923086 12.011195129787954 3.802707137859481 1 1 0
483 1 16.683173759955544 5.881451993070513 2.7273714082279534 1 1 -1
1693 1 17.071663905732038 11.148760443792494 5.599965110346733 2 1 3
916 1 17.75795711445098 12.901892072130794 3.3062220570318193 -2 -1 1
1943 1 13.882726064576987 9.233826204659962 3.9659962510804507 0 3 0
1385 1 14.915798608520687 11.528594578125213 3.1979881148733704 0 -2 -1
456 1 23.547844267516844 12.635809565108834 12.024316314443512 -3 2 1
281 1 15.966841991440694 13.73852816275518 1.8233315595365556 0 1 1
1575 1 18.05712606662002 11.510675561654283 1.7125845822239476 0 -1 2
581 1 17.027695144390954 9.319942480958948 2.2833905065028706 2 0 1
1765 1 22.995952861747 13.096054543468082 7.1835020000214636 -1 1 2
1759 1 19.6046589561971 12.342928531955238 4.061416445488057 0 4 -1
242 1 23.1662836335938 10.428887373466424 12.573304601739327 -1 3 2
763 1 4.184271070009309 0.6647649196845218 0.36460031067760856 1 1 -1
639 1 21.86239573317644 8.580856117409441 12.59834203041059 1 3 -1
2037 1 21.2964146582309 13.518147884947144 5.6207499725677055 -1 1 -1
61 1 23.44584629205437 9.271837915521761 4.372753947276896 2 1 -1
847 1 23.49195219876829 13.641237815750507 1.9161967628782302 1 -3 0
1851 1 21.35204504675169 10.560667702681007 3.956799523017291 0 0 0
1103 1 21.867958215707894 12.686250145664241 3.3031010382009227 0 1 2
289 1 22.691416519683344 10.870338313693036 1.8557978464281246 0 -3 2
1718 1 25.15201922654599 10.801597127884506 1.1932846513718163 -2 1 0
597 1 14.492252723103993 1.2426696237593222 1.0586460950387355 0 0 1
54 1 24.311278403283318 11.336718566133012 3.5687359173076123 0 -1 1
1418 1 26.212409307119906 12.534526559678833 1.5970130634407684 -1 0 1
1935 1 26.139422965094994 11.235603881886211 5.400671011936412 0 -1 2
1119 1 27.397014154130375 8.154490424419421 2.45565273956762 -1 1 -2
592 1 27.30326609295912 11.25809099423818 3.1244003324952017 3 -1 3
464 1 15.691874291686327 5.467051761734966 0.5682528695316997 -1 -1 -3
881 1 3.1104736542529325 0.8573977600264695 10.576885448161056 2 1 2
1889 1 16.264090957689245 1.285009339096699 12.157450032709136 -1 1 0
1659 1 4.263983505682388 2.2329981122283744 6.607653234892552 0 -1 -2
303 1 1.265192844794873 4.025831915278138 8.843455248958234 1 0 -1
278 1 2.8323870952770447 5.8060167777466996 10.61825822054811 -1 1 2
1267 1 2.2154540958811735 2.8645189642383544 5.796768582849994 0 0 2
1689 1 0.99818169889949 0.9030888065668417 6.594725658513571 2 0 1
493 1 2.2558068127630673 2.2301720800595373 8.128015761336336 0 1 2
1225 1 1.3856346941073583 4.663379020917781 4.2371469075874595 1 1 2
445 1 9.334383966774057 2.0944395519883785 6.937149168707368 -1 0 1
96 1 5.787552215852592 3.5320759208788175 7.379790602598354 2 1 -4
680 1 7.443302505521354 2.5839314036047982 6.131646136036782 1 0 0
754 1 7.443645633831248 6.442604668069151 6.878929868765253 1 2 1
1561 1 8.112364934151955 2.720148576210788 8.420968130019586 0 2 1
1110 1 3.337767851848672 4.250456740494954 7.433203936201902 -2 1 0
441 1 4.619476308390036 2.997577092372741 4.417565069910849 0 0 0
1050 1 6.240074558977382 1.7016155248072125 7.660370510767838 0 2 0
2020 1 4.3272376184674375 0.42247121882655436 12.260353021864114 2 -2 3
1662 1 13.350404918959446 1.885770095500261 5.3273832173613105 2 0 2
499 1 10.067088143902197 4.7248244848463266 6.627522179671433 1 0 1
1466 1 10.669075677702642 4.095008541644585 4.174906901831774 0 1 -1
460 1 8.125289045729664 4.482910507678636 6.8061794126840605 1 -1 2
1206 1 12.236093399021426 2.8303844047611557 7.326841891029803 0 0 -1
1730 1 12.90329974329136 3.8318345164829113 3.52801991690645 -4 1 0
1903 1 16.592579975273125 4.982860469735416 7.42332641486743 2 -2 1
2002 1 14.506124320845739 1.109294356632081 7.335437788251898 1 2 1
1271 1 14.228222707869623 1.7107857848315398 9.985220721720818 -3 -1 2
1138 1 14.675534499833589 3.8023791282470487 5.896293418370483 1 -1 1
321 1 15.843240301270566 1.5600681326681856 5.389450832547087 -3 3 -2
1378 1 15.502737898429562 3.352289934475304 4.104679655314817 0 0 -1
331 1 12.965307608491107 3.641355274569128 9.802399235757713 -2 1 2
1094 1 17.16891882696502 3.564825222491614 5.697751124597356 1 3 4
518 1 20.330036279124585 3.1153369446218178 7.013975156738852 0 -1 -2
1688 1 15.675763538821268 11.790507943896165 0.8296413473316111 1 -2 2
706 1 17.416884141920818 7.0252365306065405 9.6733141016132 0 1 -1
1337 1 15.691637122576795 2.8222275428784123 7.661713947211747 -1 0 0
1562 1 17.88247401566681 9.400409799957897 6.629192071101034 1 -1 1
246 1 18.48843868822552 6.777756058638596 7.863246171922486 2 -1 -3
1909 1 18.665675655367878 1.3585085518533997 5.978054172644582 0 2 1
1115 1 20.82080917338933 1.3204108668383285 5.982637218812369 -2 -1 0
1464 1 19.38449436470043 8.985157123082313 0.6092878299517395 -2 -1 0
571 1 21.0883721930088 3.0417081476191674 4.22862446167689 2 2 0
472 1 21.698533757367677 4.666942070462405 8.504738907093339 -1 -1 0
337 1 2.739180166221112 0.756156191936566 5.418680947702551 2 3 0
1499 1 20.756279700626344 5.6596366314588815 6.306025450717107 -2 2 -1
746 1 19.601258073501207 5.472817018459975 9.71603901368316 -1 2 1
1809 1 6.829248608695071 5.780430720875166 1.5977850363725274 2 0 3
1258 1 26.76754392563919 0.43585239397000425 5.2989765902490875 0 -2 -1
25 1 24.936005307338377 3.4966017898238437 6.348520891702195 0 0 -1
270 1 25.468205584606693 5.62214447931931 6.178700124330561 2 0 -2
1606 1 0.548134760918698 1.968872764534634 4.6416191856176745 -1 1 -1
1311 1 1.3773375936467278 4.978090717160123 6.765939753627232 1 -1 0
1880 1 22.530673255848683 3.59043339211194 6.41997535668485 2 1 -1
894 1 0.35752347771101256 2.820760320734291 6.653468780088446 2 -2 0
1896 1 15.427190307503466 7.4152675973357915 1.3762865624861342 2 4 1
1089 1 2.291908420677531 6.388265350163579 2.9428549946209963 2 0 -2
991 1 4.226128911593889 9.587132788370301 4.93081036611202 2 0 1
1707 1 2.662958042564652 6.721046359109104 5.556619060258588 1 1 1
873 1 3.5997554765900124 8.525998961863158 6.786219918478298 1 0 -3
1679 1 3.0383620798982673 6.778845599556799 8.340331908940833 -1 -1 0
35 1 26.78880189128386 4.1520786999676345 7.851661217635151 -2 0 0
627 1 27.934136960413873 9.804705425322878 7.723505444935845 0 3 1
1808 1 3.2939875798842397 11.9247013990392 9.844709530903957 1 0 1
520 1 1.3429934952893996 7.618503449763175 7.271203927555271 1 0 1
616 1 2.4293473910783416 9.273779852298636 8.492245727498263 -1 2 -1
1305 1 4.951315010591217 9.538157579343345 8.543384563243363 2 0 0
829 1 7.035000119040395 10.587763195762653 8.595203992379036 2 0 2
1672 1 4.551889291869291 6.447832218055295 4.103997432111669 -1 0 2
586 1 5.96356096120689 7.673840504573731 7.811306228926127 0 0 -1
906 1 8.566384440720517 7.356876592902944 4.8959111075085415 1 -2 3
942 1 4.780025910531576 5.980196801219682 6.69274545769915 2 1 0
1700 1 10.55931735802589 6.194781568518816 4.881793569545992 -3 1 1
1162 1 11.332623124015088 2.3699194654076736 3.0419501097414607 0 0 2
7 1 10.117578526335143 9.43148775732973 7.909942614223694 1 -2 0
1285 1 12.637658902611708 8.346424883990789 5.396150949860991 0 1 0
1151 1 10.481547785222084 6.602318703359594 8.104844567873378 0 2 -2
874 1 12.400220909986015 6.081585087514522 7.69785241295012 1 0 2
1381 1 6.503388984223107 8.53699250932984 10.01671463014598 -2 0 1
1822 1 11.306741845286687 4.596858342453971 8.560743530677852 -1 2 2
870 1 8.04211476283663 8.798673586273752 7.110820926723092 -1 -2 0
1188 1 12.254633513383297 5.1620995161487855 5.740484845309435 1 1 -3
609 1 8.41281841507897 7.290227706135237 9.262884083919937 1 0 -3
488 1 16.489977301044277 5.43975159119732 4.971158768698826 0 -1 0
967 1 10.34096839534244 2.9018489183304395 9.079489018588362 -1 0 -1
346 1 14.497246838445815 5.74904361935485 7.101067594518036 -1 2 -1
1457 1 16.31728383607293 7.659836947962604 7.624992468354462 -1 -2 -1
1714 1 11.698427362086868 7.4932696380286 9.657363046402942 -3 -1 3
1015 1 15.162029451650582 8.062650107079694 5.792300128999768 1 -1 0
860 1 10.933857398827453 5.155644376579439 2.064795367660711 2 -1 1
994 1 14.176720097338459 7.5886217928591195 8.443147084146158 0 1 0
1415 1 17.25562326820114 7.316857935890348 5.179982799074218 1 1 -1
1768 1 15.859142027351643 9.67388742235522 4.490543268802465 -2 1 0
1428 1 20.152888531218373 8.896157774743099 8.873958101781943 0 3 0
9 1 16.887526391975932 6.762153874382691 11.81790888146338 0 1 -1
133 1 19.31598804989479 8.547421485791366 10.609319678741803 -1 1 1
1900 1 17.610752110440387 9.504178042492418 9.291881204688417 0 0 1
1388 1 18.570168465021112 11.199106771856272 8.299625641707056 0 1 0
997 1 19.306953880140966 8.750724711730928 5.219016052971865 -2 -1 1
373 1 21.717117218451186 6.973635067997197 8.290240683084567 0 0 0
2007 1 21.30760469844447 10.021935143113208 6.340159921257414 2 1 -1
160 1 20.192667930824037 7.696582917177828 7.018213969815802 -1 0 1
214 1 23.40929910387056 5.870523723001595 7.4691213812030055 -1 -1 -2
507 1 23.85328173757687 7.512645160661849 9.133403703264781 0 1 2
937 1 24.272828866244517 9.672460013959943 8.697668386788639 1 2 0
1842 1 24.778311893460923 11.18568449302996 11.415064421548426 -1 0 1
1610 1 19.492911509246525 5.077515179026406 7.820075360139831 -1 1 1
1541 1 27.561841859574294 6.786773739298241 5.733551408993663 -1 0 -1
233 1 0.47658734630402677 6.121717590788155 8.28775153478734 3 -1 2
740 1 27.446539756254772 9.408842175376245 5.352056071884598 -2 1 1
79 1 24.696829692995472 4.48816327984472 8.75004091990365 -1 -1 -2
434 1 25.819924463536722 6.464450103913729 8.299207673719614 0 -1 -1
1599 1 26.904794253018288 5.9868434434878735 10.07771010130314 2 2 0
1739 1 25.610160769415515 8.15258096680784 10.36960549872457 -1 1 0
1535 1 19.359355499109242 1.438330049355647 8.033379765879467 1 -2 -1
1638 1 2.9805087331802516 2.602827670880823 0.7700453778688952 -2 1 4
1416 1 3.3324336350951853 12.87147894995779 7.048109400561426 0 -1 1
890 1 1.4044396043018406 9.849452915560779 3.496207051589635 2 1 0
130 1 13.283843566578991 13.426079046321362 8.45620000518655 0 -1 -2
1265 1 0.3559748251142756 11.967124138696624 9.348918274201981 -2 1 -1
2042 1 2.2712906401994992 13.60690524683767 4.64532631163887 1 1 1
81 1 15.828209740831015 13.308578835687783 4.71516889605832 -2 -1 -1
980 1 5.338260825719628 12.259883022648259 8.24078379496725 0 1 1
1411 1 1.9967528491584985 11.60616035323685 8.228170878372932 -1 0 -1
290 1 27.087671025223685 13.679954449955572 8.181635364234824 -1 0 -2
1770 1 7.063154071328343 13.011572503913927 6.990516835059105 -1 1 0
919 1 9.122691608545423 13.058639976030424 8.040453483644633 0 -1 0
1875 1 6.237093174871447 10.112330497437728 6.256803389652652 -1 0 -1
1666 1 16.592444411876578 13.039820853562619 7.014075836588958 1 0 1
1835 1 6.944270142461686 13.744443217516096 8.98743257191573 1 1 0
952 1 6.8364764539321445 12.092264230106027 11.632846118555952 -1 -1 -1
1082 1 5.368504973668754 10.85224431615757 10.482460357633332 0 0 -1
1080 1 3.5617737085949486 9.411325285162187 10.430709712924862 -1 1 -2
1153 1 9.752916530781954 13.595172584633124 5.844842406063048 0 3 -2
1710 1 8.603158733738079 11.087231604231386 6.6948424807857 2 2 2
1303 1 10.486646147025775 11.869138475781366 6.912755714305635 3 1 -1
1536 1 1.138016774759405 11.861769965404841 4.509146621983873 3 0 -1
1294 1 11.433699919596 10.747731354863467 10.13258118687162 1 2 1
1023 1 12.708255313673043 8.701337566831784 7.7093243503976705 0 2 -2
1792 1 9.064434592140524 11.293538628997949 9.106642080501455 -1 5 2
1283 1 12.44322278668017 12.745540679196429 5.96174371483623 1 0 -2
1116 1 11.234869338579925 13.609988183668724 4.2481211714343665 1 2 2
1585 1 14.605919833369112 12.517937022441767 6.625054182472878 2 3 1
1369 1 16.090976336138585 10.942839905323423 8.285618050346747 -1 2 -1
793 1 11.655748934494524 10.355488002066256 6.055059027836429 -3 -1 -3
389 1 3.3270048386933384 12.420371927890335 13.630106864362535 -1 1 -2
1176 1 12.738740976450499 11.149006968920336 7.575328638672856 2 1 2
1201 1 14.782759873863995 9.836431566341444 7.246475238118055 0 -1 0
1675 1 14.251899678358193 11.692870168899855 9.124364449479856 0 0 0
1917 1 11.191767522448465 12.73868178823333 9.038146154571224 -1 0 -3
387 1 27.489253033965092 7.486529575012926 0.5124127035207113 -3 1 0
1132 1 17.87900905237789 10.558583103798851 11.722682079071486 1 -2 0
1055 1 19.501931721776074 11.135536914876162 10.175269617998564 -2 0 -2
342 1 18.218980926474515 10.524131841896734 3.8850720073282927 1 1 0
1886 1 19.62346308808671 12.986200422529699 6.981449098334935 0 0 3
756 1 16.701520696633622 11.595834995034707 10.074272869445098 0 0 1
205 1 18.560085001812872 13.659422782917618 9.091563999130386 2 -1 2
505 1 20.85364372631136 11.231260729160942 8.045287032439244 1 -3 0
141 1 26.78351414250323 8.00388284803763 7.130445265182487 1 2 -1
1649 1 20.982365779607875 13.287416481232047 10.720021716396898 0 1 3
401 1 19.48038437727095 10.975522154758378 6.040293449067694 -2 -1 0
1372 1 22.475943077582684 11.601638449485426 5.527344183366912 1 3 1
1743 1 15.02792240357515 9.807794851526207 1.5704341998657307 0 3 2
1574 1 23.466834560961757 10.861736812228099 7.164893196196393 -1 0 -1
204 1 23.053080070264556 11.378055888951357 9.63118384302051 1 -2 0
256 1 22.165081908790675 9.122150928990223 8.26698643909499 3 2 1
1711 1 9.624059782445427 12.101140595992563 13.630331245155068 1 1 -1
190 1 25.283308832250434 9.588246763252354 6.60102078818463 2 -1 -1
1533 1 2.168978345147793 10.424012316206875 6.475571574340201 1 0 2
313 1 24.942021601311033 13.814343036416995 7.813081810114094 0 3 -1
1262 1 24.394649030553666 12.601946400941921 5.80004306906884 0 2 1
1075 1 25.91120593834154 11.527460435802968 7.707386698422597 -2 1 1
268 1 0.3124800529175118 2.2505187733103744 9.336626170673208 -2 0 0
1209 1 27.47338990989325 8.242273209063478 9.320051629830276 -2 -2 1
410 1 25.278094717164493 12.707868130343472 9.983500168704417 2 0 4
695 1 0.8456485664417376 3.8515071064385755 13.36919918262133 -2 -1 3
654 1 0.8879430445920828 4.507169079638589 11.151721641603933 0 0 0
1448 1 4.6599108423473545 4.640469293312776 10.916951546202714 0 0 -2
1380 1 21.482720659997142 13.986232107357665 1.7163586009778782 -1 1 -2
936 1 4.453822783377582 4.99033887150438 8.776098906132855 0 -1 -2
1836 1 23.97802595879697 13.789951692694974 14.024201021570558 -2 0 2
120 1 2.704325236619085 4.751611025773671 12.249228920790118 2 4 -1
1237 1 7.596643461870513 1.05951052870661 9.815186938373886 -1 0 -1
731 1 5.158888598820276 3.1304516738677455 13.217901475425187 1 -1 -2
1402 1 6.847920550047929 5.180670667100293 8.376423140001416 2 -1 1
63 1 4.57467037583347 2.5234088636114675 8.786024485214261 2 0 1
1419 1 7.143117838601795 2.5989729712952307 12.305086442057313 0 -2 -1
666 1 3.4650042435631994 7.801960601856609 0.3607483340888608 0 -2 2
962 1 6.776251096428829 3.5053312070225973 9.980186436247791 -3 0 1
116 1 6.377795539469244 4.636137917150047 12.18088544514525 -2 0 0
1708 1 7.975532672748497 5.317086322964658 13.60351159843905 -2 2 0
821 1 8.97517836706547 3.5198574436025454 11.0264012711989 1 0 -1
1656 1 9.85406982735755 2.404018760482646 12.841178683418404 -1 0 2
1492 1 9.103826772610711 4.889472982266125 8.952674717235386 0 -2 -1
1607 1 2.6928677421788714 5.338066700049482 0.9071949268726284 0 1 0
1528 1 9.746595738989098 1.2995916206622997 10.471162462933714 2 0 -3
1012 1 12.203274281858913 4.212197516340172 12.639210081552434 1 -2 3
1893 1 9.84613056584544 4.700772907977498 12.875575418774101 -3 3 0
229 1 13.898046336699736 1.7866542464601403 12.294147115814274 1 0 3
1650 1 11.836587074540157 2.141116832629053 11.582302266519223 -1 3 -1
1631 1 15.754003661256867 3.022108794845939 10.850677487217395 1 1 1
1038 1 16.802293732919964 4.744298605072412 11.578538787701932 0 2 1
1471 1 10.982644141515603 4.328267817161695 10.868430897047139 -1 -2 0
562 1 14.376628123080984 4.489009594862378 11.621872651345905 -1 2 0
139 1 15.756611237438864 0.3574723759636642 9.364154667122031 -1 2 -1
1410 1 26.20333117822088 1.3179252194258784 9.948397787159513 -1 0 0
1200 1 26.941862988797922 10.075666057458076 9.380335303861909 0 2 1
238 1 26.25828100905764 12.930380551262799 3.633325074544219 2 0 0
530 1 23.98874874415729 13.589714437060039 4.1470006808605815 1 1 2
1091 1 17.953456288413207 3.0653097955859105 7.7514887287901315 -3 4 -1
717 1 19.748677914736902 13.495603308535019 13.270778201590769 0 0 3
1725 1 14.909398080038812 4.336235914375856 8.980586161166205 2 -2 0
1155 1 17.49030533233381 4.6696947257894434 9.345510579065397 0 -2 1
1511 1 20.80666187082457 4.788991466728667 11.473382731142243 0 1 2
1441 1 18.0388687817727 2.704346886312012 12.234297088180805 0 2 -2
1208 1 20.561035691378954 3.221507037953933 9.567530751320604 0 0 1
1179 1 22.798168347021857 3.1863504862598067 9.941125929000675 1 -1 -1
1345 1 22.468383664421737 1.8802640613830122 7.801608496853207 -2 1 0
1540 1 20.5576805402117 2.7187905138136297 11.580509253992796 0 -1 0
931 1 22.911207062167215 2.0444207756570316 12.281073079145617 0 -2 2
1958 1 23.267595021362183 4.023653458237762 12.088869267582876 0 -1 -1
83 1 21.254691973711196 1.004835744090867 9.524283449018737 2 1 3
670 1 10.44693299929395 2.814258885312809 1.1880191063395453 1 -1 -1
1959 1 26.34299330763306 2.0235782665763353 7.968914365607344 -2 1 1
58 1 24.612108416925174 3.468079851752075 10.614898998530707 0 2 0
49 1 4.719582506909065 13.195438691924945 0.8139759145338712 1 0 1
209 1 25.10095260637476 2.0930376402294 12.367514288548838 0 -3 1
1827 1 2.6601139190704366 3.005400581647723 10.497024916993373 -2 1 1
1785 1 22.637863621766584 12.251062077167145 13.807655341259418 -1 1 -2
1298 1 25.24207857470661 4.746641134837059 1.5387343573396028 -2 0 0
1351 1 0.8066437683684168 6.896785303014589 11.900485933519667 1 1 -1
107 1 9.069976040329408 13.331712340956981 3.615563754494914 -1 2 0
687 1 27.576100109566106 9.144622579373006 11.599253159634722 1 2 1
778 1 1.8480394148705894 7.831811021225626 10.129289418118672 1 2 2
1593 1 12.032425203897533 14.02379941276674 0.43466749390085835 -1 1 1
760 1 4.533329447825844 6.912826824103955 11.727346059263619 4 1 1
1964 1 2.537900395782904 8.201624027273173 12.105201113163051 -1 0 2
213 1 23.94575014878702 7.276154638684113 13.755585993093872 0 4 -1
244 1 1.236573031967532 9.929421363801593 10.29360715054905 2 0 0
707 1 4.104696133593914 13.59206893890946 3.7495480730770376 -2 0 1
1508 1 4.444745261432526 7.464851084275654 9.548737937374426 -1 1 -1
1882 1 4.612650195040734 5.443824087913222 13.793818456350618 3 -1 0
922 1 6.282791933780556 6.115538091348706 10.162069675433004 0 -1 0
1634 1 5.766214474298874 9.24800584645434 12.03466034040012 -1 2 1
992 1 4.56420315121014 8.39752285142342 13.97804877643604 2 3 0
30 1 15.677407298327868 3.1450224940349503 13.040512204880171 1 0 -3
1496 1 4.843540533185991 2.495556981554772 11.28299437994313 0 0 0
1494 1 10.037273764491395 6.182949228153165 10.489761580407642 3 0 -1
850 1 8.092962466598694 8.307509304877001 11.561767417016988 1 0 2
1772 1 18.320291542094523 13.66383485740772 5.291946093690583 1 2 0
679 1 9.719298239490291 8.939504928255271 10.141750154186076 -2 1 2
1867 1 8.004932086474131 6.121618942082771 11.099791908364232 0 2 -2
1858 1 9.956116666870965 7.433677486842886 12.78718198899851 -1 1 0
2016 1 3.698276421189645 0.564268767779417 7.916640500477271 1 -1 2
1567 1 6.518557348656622 6.900930988356629 12.699975333000122 2 -2 1
138 1 15.371220502155227 6.114429971994119 10.239388479505049 1 0 1
591 1 11.932851246689868 6.3188166454666375 11.824169628628331 1 -1 -1
826 1 19.10558494626394 13.486210650561747 1.8791263085222052 -1 1 0
1729 1 11.12820408587222 11.991838814902218 1.9343545279621797 0 2 2
1952 1 12.200206417813483 7.4520312108442335 13.420255278263104 2 0 0
1354 1 13.339975941159182 5.831345986125557 10.041287497817885 0 -1 2
1704 1 15.81246565685472 8.311208608885643 13.08190287494726 2 0 2