LAMMPS (29 Oct 2020)
OMP_NUM_THREADS environment is not set. Defaulting to 1 thread. (src/comm.cpp:94)
  using 1 OpenMP thread(s) per MPI task
package omp 0
using multi-threaded neighbor list subroutines
package omp 2
set 2 OpenMP thread(s) per MPI task
using multi-threaded neighbor list subroutines
units metal  #<----->
dimension 3
boundary p p p

lattice fcc 3.5440
Lattice spacing in x,y,z = 3.5440000 3.5440000 3.5440000
region box block 0 8 0 8 0 8 units lattice
create_box 1 box
Created orthogonal box = (0.0000000 0.0000000 0.0000000) to (28.352000 28.352000 28.352000)
  1 by 2 by 2 MPI processor grid
create_atoms 1 box
Created 2048 atoms
  create_atoms CPU = 0.001 seconds

# # read_restart after_heating_press_300000_3600.lmp  #<----->
# read_restart after_cooling_press_300000_1850.lmp

variable P equal 500000
variable dt equal 0.001
variable loopVar loop 6
variable sys_press equal "press/10000"

variable sim string "heating"  #<----->
# variable sim string "cooling"



pair_style eam/alloy
pair_coeff * * Co_Zhou04.eam.alloy Co
Reading eam/alloy potential file Co_Zhou04.eam.alloy with DATE: 2018-03-30




neighbor 2 bin
neigh_modify every 10 check yes

thermo 1000
thermo_style custom step temp vol press ke pe density

timestep $(dt)
timestep 0.0010000000000000000208



velocity all create 3400 123123 #<----->

print """
yo aagadi
"""

yo aagadi

label ensemble

print """
Label pachadi solti, hos garam.
"""

Label pachadi solti, hos garam.

variable T equal 3300+${loopVar}*100  #<----->
variable T equal 3300+1*100  
# variable T equal 1850


reset_timestep 0
fix 1 all npt temp $T $T $(dt*100) iso $P $P $(dt*1000)
fix 1 all npt temp 3400 $T $(dt*100) iso $P $P $(dt*1000)
fix 1 all npt temp 3400 3400 $(dt*100) iso $P $P $(dt*1000)
fix 1 all npt temp 3400 3400 0.10000000000000000555 iso $P $P $(dt*1000)
fix 1 all npt temp 3400 3400 0.10000000000000000555 iso 500000 $P $(dt*1000)
fix 1 all npt temp 3400 3400 0.10000000000000000555 iso 500000 500000 $(dt*1000)
fix 1 all npt temp 3400 3400 0.10000000000000000555 iso 500000 500000 1
print """
<--------------------------------------------------------------------->
<------------------ Equilibrating at temperature $T ----------------->
<--------------------------------------------------------------------->
"""

<--------------------------------------------------------------------->
<------------------ Equilibrating at temperature 3400 ----------------->
<--------------------------------------------------------------------->

fix temp all print 1000 "$(step) $(temp) $(press) ${sys_press} $(vol) $(ke) $(pe) $(density)" file temp_${sim}.txt screen no title  "step temp press pressGiga vol ke pe density"
fix temp all print 1000 "$(step) $(temp) $(press) ${sys_press} $(vol) $(ke) $(pe) $(density)" file temp_heating.txt screen no title  "step temp press pressGiga vol ke pe density"
run 250000
Last active /omp style is pair_style eam/alloy/omp
Neighbor list info ...
  update every 10 steps, delay 10 steps, check yes
  max neighbors/atom: 2000, page size: 100000
  master list distance cutoff = 7.6035394
  ghost atom cutoff = 7.6035394
  binsize = 3.8017697, bins = 8 8 8
  1 neighbor lists, perpetual/occasional/extra = 1 0 0
  (1) pair eam/alloy/omp, perpetual
      attributes: half, newton on, omp
      pair build: half/bin/atomonly/newton/omp
      stencil: half/bin/3d/newton
      bin: standard
Per MPI rank memory allocation (min/avg/max) = 4.354 | 4.354 | 4.354 Mbytes
Step Temp Volume Press KinEng PotEng Density 
       0         3400    22790.356    49843.003    899.62476    -9015.757        8.794 
    1000    3358.9584    20416.204    495754.64    888.76532   -7918.7922    9.8166333 
    2000    3413.5679    20417.258    501646.72    903.21475   -7893.8751    9.8161266 
    3000     3433.973    20417.204    497970.19    908.61386   -7912.3133    9.8161522 
    4000    3461.3884    20417.543    498101.95    915.86786   -7914.6879    9.8159895 
    5000    3370.7899     20453.17    493979.35    891.89588   -7906.9352    9.7988912 
    6000     3416.425    20365.415    502402.59    903.97073   -7920.3153    9.8411147 
    7000    3442.4482    20378.595    501052.92    910.85636    -7922.316    9.8347499 
    8000    3429.7615    20330.664    517310.12    907.49951   -7868.0344    9.8579361 
    9000    3325.0362    20476.337    491876.68    879.78968   -7899.5017    9.7878044 
   10000     3463.634    20378.595    511620.76    916.46204   -7868.9988      9.83475 
   11000    3400.7592    20491.238    489699.41    899.82563   -7911.2869    9.7806872 
   12000    3355.2281      20325.4    513936.45    887.77831   -7885.2378    9.8604893 
   13000    3268.1794    20389.667    499147.65    864.74561   -7907.9594    9.8294095 
   14000    3470.4716    20482.696    494434.87    918.27123   -7896.1737    9.7847658 
   15000     3378.627     20396.36    503963.22    893.96956    -7889.002    9.8261838 
   16000    3452.0288    20350.264    511299.47    913.39134   -7885.8919    9.8484417 
   17000    3263.1233    20439.679    494917.04     863.4078   -7900.8784    9.8053589 
   18000    3399.6539    20363.914    509173.34    899.53319   -7885.6408    9.8418401 
   19000    3338.9437    20393.265    497707.79    883.46954   -7921.8193    9.8276752 
   20000     3381.298    20461.455    495434.42    894.67628   -7898.2816    9.7949236 
   21000    3360.5809     20465.25    492566.27    889.19463   -7909.0734    9.7931072 
   22000    3393.9415    20312.944    517689.73    898.02171   -7873.7324    9.8665358 
   23000    3366.8283    20529.296    482038.53    890.84768   -7925.9615    9.7625551 
   24000    3553.9965    20370.581    508596.61    940.37155    -7893.678    9.8386189 
   25000    3363.6985     20455.89    495538.48    890.01953   -7897.0607    9.7975884 
   26000    3507.7871    20390.671    509386.23    928.14473   -7873.7853    9.8289256 
   27000    3388.9833    20504.784    487098.71     896.7098   -7914.2629    9.7742258 
   28000    3422.0407     20371.65    510268.58    905.45663    -7874.497    9.8381027 
   29000    3369.8383    20454.841    490364.17    891.64412   -7921.2201    9.7980905 
   30000    3381.6836    20372.387    505692.75    894.77833   -7895.4235    9.8377467 
   31000    3421.2343    20476.513    495804.85    905.24326   -7887.8718    9.7877205 
   32000    3278.4928    20430.463     498532.9     867.4745   -7892.6591    9.8097821 
   33000     3427.755    20369.032     508466.5    906.96862   -7886.9181    9.8393673 
   34000    3257.5466    20518.972     484091.7    861.93222   -7912.3486    9.7674671 
   35000    3534.5641     20366.12    511414.69    935.22981   -7881.2867    9.8407742 
   36000    3327.4383    20484.659     493188.6    880.42525   -7893.9674    9.7838285 
   37000    3467.9007    20345.051    505770.12    917.59098   -7916.2867    9.8509652 
   38000    3476.7643    20446.963     495957.2    919.93625   -7910.1876    9.8018658 
   39000    3339.3319    20401.238    496557.96    883.57225   -7922.3272    9.8238345 
   40000    3341.5013    20381.894    509933.66    884.14626   -7871.2568    9.8331583 
   41000    3503.9368    20459.901     496513.6    927.12597   -7899.9479    9.7956673 
   42000    3333.2034    20394.814    502031.84    881.95067   -7897.3208    9.8269287 
   43000    3398.9745    20392.755    508852.11    899.35342   -7869.6642    9.8279209 
   44000    3304.2892    20449.036    491364.14    874.30012   -7919.2405    9.8008722 
   45000    3360.5233    20414.118    506759.72     889.1794   -7863.9866    9.8176363 
   46000    3325.2897     20375.73    499257.84    879.85674   -7924.4091    9.8361328 
   47000    3421.7101    20480.721       490616    905.36915   -7912.0851    9.7857096 
   48000    3432.2725    20418.114    501075.55    908.16392   -7892.7153     9.815715 
   49000    3390.3511    20370.155    505181.75     897.0717    -7901.875     9.838825 
   50000     3393.764    20445.176    496695.54    897.97474   -7899.3074    9.8027226 
   51000    3440.7493    20380.887    504243.56    910.40683   -7902.2905    9.8336438 
   52000    3369.0174     20451.15    492615.67    891.42691   -7915.5853    9.7998589 
   53000    3414.5888    20400.763    501834.06    903.48488   -7902.2902    9.8240632 
   54000    3369.7021    20438.394    496444.84    891.60808   -7904.7808    9.8059751 
   55000    3370.4235    20447.029    497492.39    891.79894   -7896.4108    9.8018339 
   56000     3395.825    20339.817    509816.49    898.52007   -7894.5877    9.8534998 
   57000     3459.551    20463.607    491586.61     915.3817   -7920.7493    9.7938934 
   58000    3317.4132    20370.269    505734.19    877.77265   -7893.8575    9.8387695 
   59000    3459.1329     20432.56    494821.19    915.27107   -7924.8449    9.8087754 
   60000    3385.5731    20375.118    510246.41    895.80747   -7871.0465    9.8364281 
   61000    3403.1517    20462.174    495427.31    900.45869   -7897.9159    9.7945793 
   62000    3458.7727    20461.771    495005.52    915.17576   -7905.4728    9.7947722 
   63000    3362.2197    20367.694    505633.13    889.62827   -7900.6624    9.8400134 
   64000    3344.0427    20448.196    493701.86     884.8187   -7907.9668    9.8012748 
   65000    3560.3687    20431.083     497512.7    942.05759   -7911.1786    9.8094842 
   66000    3260.8242    20492.094    487383.52    862.79946   -7912.4831    9.7802785 
   67000    3426.7147    20355.369    515013.56    906.69336   -7862.6762    9.8459716 
   68000    3308.4883    20442.792    498469.27    875.41118   -7886.9641    9.8038657 
   69000    3479.2408    20480.794    492720.72    920.59152   -7905.1429    9.7856748 
   70000     3394.909    20388.447    505462.64    898.27769   -7887.0221    9.8299979 
   71000    3412.3831    20426.843    504110.62    902.90128   -7875.2107    9.8115204 
   72000    3317.8316    20409.729    503151.01    877.88336   -7883.6273    9.8197476 
   73000    3397.3079    20360.846    506866.35    898.91245   -7894.8777    9.8433232 
   74000    3420.5299    20555.516    483053.68    905.05687   -7908.9777    9.7501023 
   75000    3510.6841     20344.47    511087.35    928.91127   -7896.6341    9.8512466 
   76000    3228.7175    20432.346    492361.03    854.30417   -7919.3435     9.808878 
   77000    3400.2357    20365.737    506873.99    899.68713   -7896.2256     9.840959 
   78000    3323.9345    20495.821     486494.8    879.49816   -7918.4303    9.7784999 
   79000    3421.7501    20362.294    509967.97    905.37975   -7883.2163    9.8426232 
   80000    3358.6133    20512.649    492118.11    888.67403   -7879.7231    9.7704782 
   81000    3396.5831    20407.405    498578.83    898.72067   -7908.5282    9.8208659 
   82000    3390.4223    20313.666    511853.35    897.09053     -7900.35    9.8661848 
   83000    3424.0675    20440.729     499944.6    905.99291   -7890.4963    9.8048551 
   84000    3438.1207    20478.057    491482.07    909.71132   -7910.4965    9.7869826 
   85000    3231.5543    20216.838    527074.22    855.05478   -7871.5244    9.9134389 
   86000    3411.8948    20566.315    477334.01    902.77206   -7927.2589    9.7449828 
   87000    3497.6415    20451.572    503559.71    925.46026   -7869.6643    9.7996566 
   88000    3401.4808    20401.631    502601.01    900.01656   -7897.2809    9.8236451 
   89000    3404.9572    20475.487    491834.54    900.93642   -7911.2488    9.7882108 
   90000    3500.0959    20464.961    498652.77    926.10969   -7889.9385    9.7932456 
   91000    3425.9224    20322.587    511866.41     906.4837   -7895.5573    9.8618539 
   92000    3306.4213    20484.026    485055.65    874.86424   -7929.7713    9.7841307 
   93000    3421.4482    20327.401    514824.49    905.29985   -7882.3096    9.8595185 
   94000    3230.1559    20382.282    501491.91    854.68478   -7904.5868    9.8329711 
   95000    3523.0107     20464.52    495549.49    932.17283   -7904.1944    9.7934566 
   96000    3311.2904    20459.314    496104.16    876.15259   -7889.8313    9.7959485 
   97000     3400.538    20382.698    504146.93    899.76711   -7898.7658    9.8327702 
   98000    3406.2203    20424.913    503924.27    901.27062   -7876.1595    9.8124476 
   99000    3502.4953    20502.726     479842.9    926.74454    -7956.976     9.775207 
  100000    3390.8384    20278.931    524121.29    897.20064   -7863.2361    9.8830843 
  101000    3306.1424    20523.525    484598.88    874.79045   -7912.6163    9.7653003 
  102000    3475.4214    20328.516    514947.93    919.58092   -7886.3417    9.8589778 
  103000    3377.1493    20428.512    496145.41    893.57856   -7908.2312    9.8107189 
  104000    3476.8284    20476.823    495405.67    919.95321   -7896.1272    9.7875723 
  105000    3368.2317     20396.25    502977.45    891.21901   -7892.8538    9.8262372 
  106000    3493.9809    20443.792    499496.58    924.49169   -7895.1531    9.8033862 
  107000    3492.1452    20379.465    502790.29    924.00596   -7913.5213    9.8343301 
  108000    3331.5642    20414.606    495001.11    881.51696   -7920.1388    9.8174014 
  109000    3506.9665     20433.57    498197.38    927.92761   -7912.2153    9.8082904 
  110000    3441.5472    20373.212    504994.16    910.61796   -7903.9801    9.8373483 
  111000    3285.6173    20542.316    479015.97    869.35961   -7920.0723    9.7563677 
  112000    3396.3084     20306.07    523489.98    898.64798   -7846.9398    9.8698757 
  113000    3331.9485    20456.308    489516.92    881.61865    -7926.822    9.7973882 
  114000    3535.6523     20471.38    496250.16    935.51776   -7897.4221    9.7901749 
  115000    3354.3576    20373.213    505799.37    887.54799   -7894.5433     9.837348 
  116000    3410.2044    20443.029    501175.32    902.32479   -7886.0726    9.8037519 
  117000    3364.1975    20454.814    493232.95    890.15157   -7910.3066    9.7981038 
  118000    3334.1581    20355.625    513304.29    882.20328   -7864.3278     9.845848 
  119000     3410.245    20544.022    485287.92    902.33554   -7905.8539    9.7555574 
  120000    3378.4526    20348.936    504153.22     893.9234   -7918.4692    9.8490844 
  121000    3423.8382    20452.434    496962.53    905.93223   -7896.3903    9.7992439 
  122000     3335.696    20457.252    498671.93     882.6102   -7883.9058    9.7969361 
  123000      3464.36    20347.588    514088.42    916.65412   -7875.6826    9.8497366 
  124000    3369.5512    20467.374    492783.39    891.56813    -7910.182    9.7920911 
  125000    3403.0757    20420.668    503247.86    900.43857   -7880.4086    9.8144872 
  126000    3412.5925    20530.921    484526.19    902.95669   -7914.4029    9.7617824 
  127000    3390.8344    20363.518    510700.35    897.19958   -7875.8338    9.8420317 
  128000     3273.776    20453.236    496799.98    866.22645   -7888.8213    9.7988597 
  129000    3409.5435    20389.452    502959.78    902.14993   -7900.9884    9.8295133 
  130000    3445.1447    20554.913    479939.51    911.56984   -7922.8353    9.7503882 
  131000     3327.753    20325.046    512159.88    880.50854   -7891.8172    9.8606611 
  132000     3410.156    20480.147    493841.42      902.312   -7900.6688    9.7859839 
  133000    3346.5711    20471.919    486180.88    885.48772   -7934.7041     9.789917 
  134000    3428.7548    20360.822    510812.88    907.23315   -7880.3908    9.8433347 
  135000    3344.4837    20400.829    496666.42     884.9354   -7923.9717    9.8240317 
  136000    3444.2377    20412.687    501412.89    911.32986   -7898.0487    9.8183248 
  137000     3348.852    20458.277    493791.19    886.09123   -7908.5748    9.7964453 
  138000     3317.223    20353.767     511535.5    877.72233      -7871.8    9.8467467 
  139000    3318.6337    20440.007    492007.26    878.09561   -7921.9737    9.8052016 
  140000      3373.82    20365.667    513412.74    892.69765   -7863.6109    9.8409929 
  141000    3452.5273    20449.958    495697.75    913.52324   -7908.4771    9.8004304 
  142000     3411.372    20373.973    504452.99    902.63372   -7905.2287    9.8369812 
  143000    3405.8276    20402.067     504041.7    901.16673   -7891.9761    9.8234354 
  144000    3247.3991    20336.864    513202.96    859.24724   -7870.9097    9.8549305 
  145000    3413.3752    20467.124    492351.34    903.16378   -7911.7588    9.7922103 
  146000    3287.5897    20425.315    503201.41    869.88149   -7869.6134    9.8122544 
  147000    3501.2657    20394.552    508270.54     926.4192   -7883.1777    9.8270553 
  148000    3324.7595     20396.12    502946.78    879.71646   -7893.4403    9.8262996 
  149000    3345.2533    20453.212    502820.57    885.13904   -7860.1842    9.7988713 
  150000    3402.1438    20493.913    487025.75    900.19201   -7925.1239    9.7794104 
  151000    3482.9121    20334.323    510392.76    921.56293   -7901.5926     9.856162 
  152000    3334.2229    20531.309     484907.8    882.22043   -7907.1385    9.7615981 
  153000    3387.6476    20320.161    515079.77    896.35637   -7879.7498    9.8630314 
  154000    3375.1787    20481.575    490825.47    893.05716    -7908.998    9.7853013 
  155000    3365.6627    20371.262    505081.89    890.53925    -7904.112    9.8382901 
  156000    3437.0621    20391.889    497975.77    909.43122   -7931.4359    9.8283385 
  157000    3317.4073    20389.517    505643.72     877.7711   -7881.8085    9.8294819 
  158000    3313.9161    20458.943    489992.75    876.84735   -7922.5899    9.7961262 
  159000    3422.4724    20381.074     507007.1    905.57084   -7887.2464    9.8335536 
  160000    3308.2707    20369.387    503687.06    875.35359   -7903.1359    9.8391956 
  161000    3407.1833    20515.467    485395.92    901.52542   -7921.3341    9.7691362 
  162000    3474.1044    20340.106    509209.72    919.23244   -7908.0431    9.8533598 
  163000    3340.3427    20439.178    494982.53    883.83971   -7907.2341    9.8055993 
  164000    3486.7407    20428.295    501547.44    922.57595   -7892.0697    9.8108229 
  165000    3379.6208    20477.816    493058.73    894.23252   -7900.4858    9.7870978 
  166000    3391.2012    20401.994    498080.17    897.29665   -7918.0945    9.8234704 
  167000    3446.1668     20414.11    500766.06     911.8403   -7898.5507    9.8176402 
  168000    3479.5467    20391.392    501941.97    920.67246   -7911.3586     9.828578 
  169000    3403.1767    20506.496    482737.28     900.4653   -7931.1661    9.7734099 
  170000     3498.258    20372.314    506554.67    925.62339   -7901.5908     9.837782 
  171000    3361.7512    20486.418    488182.13     889.5043   -7916.4607    9.7829882 
  172000    3473.2393    20370.749    513902.27    919.00355   -7862.4124     9.838538 
  173000    3312.0034    20505.528    484703.71    876.34126    -7923.179    9.7738708 
  174000    3399.1311    20337.321    518207.95    899.39484   -7853.7377    9.8547094 
  175000    3345.5453    20498.031    483373.74    885.21629   -7935.2443    9.7774458 
  176000    3476.5469     20408.76    502865.44    919.87872   -7894.8094    9.8202136 
  177000    3434.5158    20522.559    486265.16    908.75747   -7915.5879    9.7657601 
  178000    3458.3226    20364.165    507582.74    915.05664    -7898.057    9.8417189 
  179000    3410.6827    20401.714    502663.57    902.45136   -7894.7087    9.8236053 
  180000    3422.9741    20434.827    494508.91     905.7036   -7922.3587    9.8076869 
  181000     3360.848    20332.979    511538.45    889.26531   -7889.0191    9.8568139 
  182000    3334.7404    20426.703    498467.65    882.35735   -7898.1232    9.8115876 
  183000    3407.0889    20442.151    498843.38    901.50044   -7892.7689     9.804173 
  184000    3388.1983    20313.808    510841.18    896.50208    -7908.474     9.866116 
  185000    3370.7863    20505.109    484707.43    891.89493    -7924.574    9.7740709 
  186000    3518.0593    20393.104    504014.22    930.86271     -7905.34    9.8277529 
  187000    3349.9023    20355.854    506348.67    886.36912   -7900.3855    9.8457371 
  188000    3429.6229    20454.048    499468.75    907.46285   -7884.9391    9.7984703 
  189000    3336.5052    20424.816    499298.98    882.82433   -7896.6876    9.8124941 
  190000     3392.184    20356.908    507437.47    897.55667   -7901.1474    9.8452275 
  191000    3495.8974    20494.793    492708.94    924.99878    -7902.064    9.7789906 
  192000    3412.5069    20351.033    507899.78    902.93404   -7901.5723    9.8480693 
  193000    3471.1152    20434.652    502856.84    918.44153    -7882.945    9.8077707 
  194000    3266.8087    20502.945    484030.82    864.38295   -7916.4238    9.7751021 
  195000     3413.565    20384.167     507031.4      903.214   -7888.6442    9.8320615 
  196000    3442.4662    20393.044     502348.9    910.86112   -7908.8806    9.8277817 
  197000    3336.2291     20465.63    490104.15    882.75125   -7920.0284    9.7929253 
  198000    3465.1204    20440.129    502609.47    916.85533   -7877.3979    9.8051429 
  199000    3298.8038    20332.489    507337.58    872.84868   -7907.1204    9.8570513 
  200000    3331.1167    20553.528    482933.68    881.39853   -7903.0694    9.7510453 
  201000    3530.0761    20358.207    504492.72    934.04231   -7922.0629    9.8445993 
  202000    3475.4559    20422.019    499256.64    919.59004   -7906.9932    9.8138381 
  203000    3399.7305    20483.235    485366.27    899.55346   -7938.0506    9.7845083 
  204000    3479.0423    20398.277    507002.79      920.539   -7883.3191    9.8252605 
  205000    3408.1384    20449.782    494922.05    901.77815   -7909.2532    9.8005145 
  206000    3417.2265    20382.689     505636.2    904.18281   -7891.7129    9.8327744 
  207000    3461.9983    20473.338    499183.64    916.02922    -7874.673    9.7892386 
  208000     3359.215    20455.348    489534.02    888.83322   -7926.5549     9.797848 
  209000    3396.9682    20341.761    516464.51    898.82257   -7860.6933    9.8525585 
  210000     3423.221    20482.078    489250.96    905.76894   -7920.2957    9.7850611 
  211000    3440.7725    20370.546    508352.27    910.41297   -7887.8478    9.8386359 
  212000    3302.5965    20405.473    497798.87    873.85223   -7916.7637    9.8217958 
  213000    3299.1221    20352.924    509717.95    872.93293   -7883.0902    9.8471545 
  214000    3435.1256    20438.828    501522.27    908.91883     -7883.59    9.8057673 
  215000    3413.2262    20401.845    501978.23    903.12435   -7901.2138    9.8235423 
  216000    3315.1013    20427.314    494757.85    877.16093   -7915.5262     9.811294 
  217000    3389.6683    20425.727    503148.59    896.89102   -7880.8669    9.8120562 
  218000    3358.9266    20440.024     499032.1    888.75693   -7888.6987    9.8051931 
  219000    3368.3772    20405.678    505620.59    891.25751   -7879.5264    9.8216968 
  220000     3427.627    20467.623    491822.13    906.93474    -7915.459    9.7919718 
  221000    3482.3767     20385.83    502882.53    921.42127   -7910.5231    9.8312598 
  222000    3410.1306    20562.388    484804.78    902.30527    -7891.909     9.746844 
  223000    3448.6807    20325.607    516221.66    912.50544   -7876.6193    9.8603889 
  224000    3404.2606    20436.195    490780.73     900.7521   -7938.1441    9.8070305 
  225000    3384.6656    20458.238     501130.1    895.56735   -7871.6547    9.7964636 
  226000    3383.3525    20355.776    509092.33    895.21991   -7890.6725    9.8457749 
  227000    3251.8672    20389.114    501316.58    860.42948   -7900.9256    9.8296762 
  228000    3418.4466    20367.824    507660.51    904.50566   -7888.9259    9.8399507 
  229000    3379.5556    20534.657    486477.32    894.21526   -7902.3432    9.7600063 
  230000    3469.0113    20338.659     509913.7    917.88484   -7900.2426    9.8540608 
  231000    3276.3226    20375.986    500817.49    866.90028    -7914.691     9.836009 
  232000    3358.0563    20521.486    487291.82    888.52663   -7901.9254    9.7662706 
  233000    3485.6915    20361.114    517501.42    922.29835   -7852.7295    9.8431935 
  234000    3359.0567    20518.705    481140.78    888.79135   -7936.1305    9.7675942 
  235000    3401.1764     20370.66    509590.78    899.93602   -7880.7975    9.8385807 
  236000    3356.1943    20395.057    497086.66    888.03397   -7927.3221    9.8268116 
  237000    3437.6995    20418.045    499441.76    909.59987   -7905.6437    9.8157483 
  238000    3361.3722    20380.366     501290.6    889.40401   -7915.1611    9.8338954 
  239000     3471.509    20466.921    489425.62    918.54573   -7930.5973    9.7923077 
  240000    3481.0393    20431.767    500174.42    921.06738   -7893.2999    9.8091557 
  241000    3345.6728    20435.209    493334.97    885.25001   -7921.1808    9.8075035 
  242000    3477.9508    20388.214    503995.69    920.25018    -7904.315    9.8301101 
  243000    3369.6378    20361.909     505224.7    891.59107   -7901.3258    9.8428091 
  244000     3322.607    20403.357    503820.74     879.1469   -7884.7497    9.8228145 
  245000    3463.4319    20395.375    496406.27    916.40856   -7935.5457    9.8266584 
  246000    3447.8672    20471.137    494091.19    912.29022   -7903.4571    9.7902911 
  247000    3233.6808    20443.894    493801.49    855.61744   -7903.9695    9.8033374 
  248000    3428.3117    20328.652    515052.16     907.1159   -7883.1359    9.8589119 
  249000    3403.6072    20443.647    500738.92    900.57921   -7879.7473    9.8034557 
  250000    3429.3435    20409.124    498591.97    907.38893    -7917.926    9.8200387 
Loop time of 526.557 on 8 procs for 250000 steps with 2048 atoms

Performance: 41.021 ns/day, 0.585 hours/ns, 474.783 timesteps/s
123.4% CPU use with 4 MPI tasks x 2 OpenMP threads

MPI task timing breakdown:
Section |  min time  |  avg time  |  max time  |%varavg| %total
---------------------------------------------------------------
Pair    | 316.45     | 322.53     | 327.73     |  22.4 | 61.25
Neigh   | 5.2874     | 5.4584     | 5.5689     |   4.5 |  1.04
Comm    | 23.598     | 28.938     | 35.083     |  76.2 |  5.50
Output  | 0.0059555  | 0.011307   | 0.013093   |   2.9 |  0.00
Modify  | 168.56     | 168.66     | 168.78     |   0.6 | 32.03
Other   |            | 0.9579     |            |       |  0.18

Nlocal:        512.000 ave         522 max         489 min
Histogram: 1 0 0 0 0 0 0 0 1 2
Nghost:        3100.00 ave        3122 max        3091 min
Histogram: 3 0 0 0 0 0 0 0 0 1
Neighs:        46988.0 ave       49860 max       43848 min
Histogram: 1 0 1 0 0 0 0 0 1 1

Total # of neighbors = 187952
Ave neighs/atom = 91.773438
Neighbor list builds = 5649
Dangerous builds = 0


# fix 132 all momentum 100 linear 1 1 1 angular
fix out_file_1 all print 1000 "$(step) $(temp) $(press) ${sys_press} $(vol) $(ke) $(pe) $(density)" file one_phase_${sim}_press_$P_$T_.txt screen no title  "step temp press pressGiga vol ke pe density"
fix out_file_1 all print 1000 "$(step) $(temp) $(press) ${sys_press} $(vol) $(ke) $(pe) $(density)" file one_phase_heating_press_$P_$T_.txt screen no title  "step temp press pressGiga vol ke pe density"
fix out_file_1 all print 1000 "$(step) $(temp) $(press) ${sys_press} $(vol) $(ke) $(pe) $(density)" file one_phase_heating_press_500000_$T_.txt screen no title  "step temp press pressGiga vol ke pe density"
fix out_file_1 all print 1000 "$(step) $(temp) $(press) ${sys_press} $(vol) $(ke) $(pe) $(density)" file one_phase_heating_press_500000_3400_.txt screen no title  "step temp press pressGiga vol ke pe density"

# dump 3 all custom 1000 traj_npt_new.lammpstrj id type x y z
run 50000
Last active /omp style is pair_style eam/alloy/omp
Per MPI rank memory allocation (min/avg/max) = 4.354 | 4.354 | 4.354 Mbytes
Step Temp Volume Press KinEng PotEng Density 
  250000    3429.3435    20409.124    498591.97    907.38893    -7917.926    9.8200387 
  251000    3374.4482    20381.802    503924.09    892.86387   -7899.8343    9.8332025 
  252000    3415.0471    20517.161    488925.28    903.60614   -7899.8943    9.7683292 
  253000    3353.8968    20343.874    509239.29    887.42606   -7895.7434    9.8515348 
  254000    3414.4947    20412.006    502165.55    903.45999   -7897.1201    9.8186519 
  255000    3505.0601    20483.917    491188.03    927.42318   -7909.3741    9.7841826 
  256000    3227.3724    20318.631    507371.73    853.94828    -7906.266    9.8637743 
  257000    3480.9342    20473.759    488712.26     921.0396   -7933.5857    9.7890369 
  258000    3487.4181    20388.524    507807.33    922.75519   -7883.5762    9.8299606 
  259000    3386.6617    20403.977    501234.39    896.09549   -7901.1956    9.8225156 
  260000    3443.6651    20502.668    488379.08    911.17836   -7916.0095    9.7752346 
  261000     3398.986    20397.684    507563.04    899.35646   -7872.5599    9.8255464 
  262000    3410.2352    20491.281    486443.52    902.33295    -7925.708    9.7806663 
  263000    3425.0488    20407.361    510708.59    906.25255   -7855.5538     9.820887 
  264000    3447.9239    20530.682    480819.35     912.3052   -7937.2048    9.7618961 
  265000     3364.093    20397.052    499401.37    890.12392   -7909.4524    9.8258507 
  266000    3419.5603    20412.162    500368.81    904.80034   -7904.1389    9.8185772 
  267000    3518.8638     20458.16    493051.92    931.07558   -7920.9894    9.7965009 
  268000    3447.4828    20325.606    508044.27     912.1885   -7913.2373    9.8603893 
  269000    3313.3589    20489.483    490140.77    876.69991   -7904.7918     9.781525 
  270000    3479.3317    20421.608    501489.64    920.61557   -7896.7533    9.8140353 
  271000    3479.1879    20444.163    495647.89    920.57752    -7912.851    9.8032081 
  272000     3356.551    20423.774    494503.57    888.12835   -7922.5214    9.8129947 
  273000    3394.8202    20435.273    502593.41     898.2542   -7879.2854    9.8074729 
  274000     3342.444    20482.759    490741.51    884.39569    -7907.052    9.7847358 
  275000    3426.6644    20328.632    513859.12    906.68003   -7884.9388    9.8589215 
  276000    3324.8526    20439.958    494839.31     879.7411   -7906.6818     9.805225 
  277000    3400.0505     20470.46    493738.23    899.63812   -7902.0044    9.7906147 
  278000     3472.089     20414.69     506443.7    918.69918   -7875.6786    9.8173612 
  279000    3425.4536    20438.249    493471.54    906.35967   -7925.9801    9.8060446 
  280000    3326.2225    20419.149    497615.36    880.10356   -7909.5883    9.8152173 
  281000    3389.5004    20401.661    508302.36    896.84661   -7862.7576     9.823631 
  282000    3333.1505    20460.014    492411.27    881.93667   -7913.8172    9.7956135 
  283000    3488.0488    20440.795    494342.68    922.92207   -7926.0933    9.8048234 
  284000    3403.0312    20364.673     508942.2     900.4268   -7889.7566    9.8414736 
  285000    3346.9588    20416.991    499471.09    885.59028   -7900.2255    9.8162546 
  286000     3471.954    20365.218    507903.92    918.66347   -7899.5919    9.8412098 
  287000    3315.6241    20431.727    497242.01    877.29928   -7899.3458    9.8091748 
  288000    3385.5782    20352.028    509078.04    895.80882   -7893.5548    9.8475881 
  289000    3383.0773    20452.043    492214.14    895.14708   -7920.1292    9.7994312 
  290000    3364.3834    20391.462     504176.2    890.20078   -7886.2224    9.8285444 
  291000    3382.4397    20414.451    494586.43    894.97839   -7926.5094     9.817476 
  292000    3439.0739    20468.269    503641.81    909.96354   -7853.6343    9.7916625 
  293000    3355.8152     20431.54    497391.46    887.93366   -7901.2402    9.8092648 
  294000    3418.8478    20400.871    505333.03    904.61181   -7886.9445    9.8240111 
  295000    3385.0895    20431.269    492393.04    895.67951   -7934.4193    9.8093947 
  296000    3447.6211    20389.087    509320.25    912.22508   -7877.4135    9.8296892 
  297000    3370.9687    20523.335    481944.25    891.94322   -7928.8049    9.7653908 
  298000    3508.0388    20280.168    516419.73    928.21135   -7903.7088    9.8824817 
  299000    3413.4888    20461.271    493694.94    903.19385   -7906.0505    9.7950117 
  300000    3307.7714    20354.779    504937.51    875.22147   -7904.2113    9.8462569 
Loop time of 108.847 on 8 procs for 50000 steps with 2048 atoms

Performance: 39.689 ns/day, 0.605 hours/ns, 459.360 timesteps/s
125.0% CPU use with 4 MPI tasks x 2 OpenMP threads

MPI task timing breakdown:
Section |  min time  |  avg time  |  max time  |%varavg| %total
---------------------------------------------------------------
Pair    | 65.699     | 66.778     | 67.714     |   8.9 | 61.35
Neigh   | 1.0922     | 1.1306     | 1.1541     |   2.2 |  1.04
Comm    | 4.6936     | 5.6589     | 6.7631     |  31.3 |  5.20
Output  | 0.0011303  | 0.0018253  | 0.0020587  |   0.9 |  0.00
Modify  | 35.057     | 35.08      | 35.095     |   0.2 | 32.23
Other   |            | 0.198      |            |       |  0.18

Nlocal:        512.000 ave         523 max         501 min
Histogram: 1 0 0 1 0 0 1 0 0 1
Nghost:        3099.00 ave        3109 max        3087 min
Histogram: 1 0 0 0 1 0 0 1 0 1
Neighs:        47053.5 ave       49061 max       45321 min
Histogram: 1 0 1 0 0 0 1 0 0 1

Total # of neighbors = 188214
Ave neighs/atom = 91.901367
Neighbor list builds = 1130
Dangerous builds = 0

unfix temp
unfix out_file_1


write_data after_${sim}_press_$P_$T.in
write_data after_heating_press_$P_$T.in
write_data after_heating_press_500000_$T.in
write_data after_heating_press_500000_3400.in
System init for write_data ...
Last active /omp style is pair_style eam/alloy/omp
write_restart after_${sim}_press_$P_$T.lmp
write_restart after_heating_press_$P_$T.lmp
write_restart after_heating_press_500000_$T.lmp
write_restart after_heating_press_500000_3400.lmp
System init for write_restart ...
Last active /omp style is pair_style eam/alloy/omp

next loopVar  #<----->
jump in.lmp ensemble

print """
Label pachadi solti, hos garam.
"""

Label pachadi solti, hos garam.

variable T equal 3300+${loopVar}*100  #<----->
variable T equal 3300+2*100  
# variable T equal 1850


reset_timestep 0
fix 1 all npt temp $T $T $(dt*100) iso $P $P $(dt*1000)
fix 1 all npt temp 3500 $T $(dt*100) iso $P $P $(dt*1000)
fix 1 all npt temp 3500 3500 $(dt*100) iso $P $P $(dt*1000)
fix 1 all npt temp 3500 3500 0.10000000000000000555 iso $P $P $(dt*1000)
fix 1 all npt temp 3500 3500 0.10000000000000000555 iso 500000 $P $(dt*1000)
fix 1 all npt temp 3500 3500 0.10000000000000000555 iso 500000 500000 $(dt*1000)
fix 1 all npt temp 3500 3500 0.10000000000000000555 iso 500000 500000 1
print """
<--------------------------------------------------------------------->
<------------------ Equilibrating at temperature $T ----------------->
<--------------------------------------------------------------------->
"""

<--------------------------------------------------------------------->
<------------------ Equilibrating at temperature 3500 ----------------->
<--------------------------------------------------------------------->

fix temp all print 1000 "$(step) $(temp) $(press) ${sys_press} $(vol) $(ke) $(pe) $(density)" file temp_${sim}.txt screen no title  "step temp press pressGiga vol ke pe density"
fix temp all print 1000 "$(step) $(temp) $(press) ${sys_press} $(vol) $(ke) $(pe) $(density)" file temp_heating.txt screen no title  "step temp press pressGiga vol ke pe density"
run 250000
Last active /omp style is pair_style eam/alloy/omp
Per MPI rank memory allocation (min/avg/max) = 4.354 | 4.354 | 4.354 Mbytes
Step Temp Volume Press KinEng PotEng Density 
       0    3307.7714    20354.779    504937.51    875.22147   -7904.2113    9.8462569 
    1000    3483.3771    20473.971    499013.62    921.68595   -7875.7645    9.7889356 
    2000    3683.1897    20476.074    504207.03    974.55549   -7865.5464    9.7879303 
    3000    3369.3038    20453.133    503903.58    891.50267   -7859.8935    9.7989087 
    4000    3571.9369    20500.867    501650.61    945.11848   -7858.5913    9.7760932 
    5000    3418.9148    20435.181    508537.96    904.62954    -7846.826     9.807517 
    6000    3477.1309    20434.613    506357.55    920.03324   -7863.6785    9.8077898 
    7000     3428.004    20503.181    490714.19    907.03449   -7901.3691    9.7749901 
    8000    3505.5907    20396.844    514498.59    927.56359   -7842.5785    9.8259509 
    9000    3438.1537    20461.805    498830.84    909.72006   -7882.2448    9.7947562 
   10000    3446.8721    20496.043    491967.13    912.02691   -7897.5356    9.7783942 
   11000    3598.3841    20493.318    498768.67    952.11631   -7876.5761    9.7796944 
   12000    3522.0147    20512.881    496361.21     931.9093     -7878.14    9.7703675 
   13000     3511.921    20406.668    503995.36    929.23856   -7895.0499    9.8212206 
   14000      3465.91    20521.504    491511.08    917.06426   -7887.6726    9.7662619 
   15000    3475.4508    20414.546    507366.05    919.58871   -7870.8305    9.8174303 
   16000    3652.0063    20432.644    505603.19    966.30449   -7880.3136    9.8087349 
   17000    3542.5217    20457.003    500630.67    937.33535   -7883.2961    9.7970553 
   18000    3481.0136    20578.596    488329.53    921.06059   -7869.7598    9.7391672 
   19000    3454.6521    20458.395     501830.2    914.08546   -7868.2342    9.7963886 
   20000    3531.0906    20459.414    507394.08    934.31074   -7851.5284    9.7959005 
   21000    3487.4301    20492.541    497443.73    922.75837   -7877.0026    9.7800653 
   22000    3560.1736     20480.83    494557.07    942.00598   -7899.0448    9.7856574 
   23000    3543.4273    20369.974    511346.32    937.57499   -7878.9837    9.8389123 
   24000    3317.0157    20526.935    490938.37    877.66748   -7876.8066    9.7636779 
   25000    3509.0466    20381.623    515073.08    928.47799   -7851.3666    9.8332887 
   26000    3381.3527     20483.72     491426.3    894.69076   -7904.2746    9.7842769 
   27000    3532.6791    20525.656    493202.52    934.73104   -7879.7679    9.7642865 
   28000    3486.3665    20410.875    505433.97    922.47695   -7884.9423    9.8191962 
   29000    3523.9074    20459.331    511444.88     932.4101   -7831.2852    9.7959403 
   30000     3511.905    20551.363    484274.78    929.23433   -7911.9961    9.7520727 
   31000    3440.6635    20387.168    507242.65    910.38415   -7887.4716    9.8306141 
   32000    3634.5995    20485.816    498245.24    961.69873   -7887.8336    9.7832759 
   33000    3451.2107    20573.587    483857.58    913.17489   -7900.0167    9.7415382 
   34000    3502.2586    20414.441    512651.43    926.68193    -7844.347     9.817481 
   35000    3487.3152    20495.543    498740.74    922.72796   -7869.0112    9.7786329 
   36000    3496.1472     20488.84    499529.59    925.06489   -7870.3323    9.7818318 
   37000    3369.7494    20437.808    502564.64    891.62057   -7879.8155    9.8062566 
   38000    3524.2641    20523.327    492684.04    932.50447   -7882.9403    9.7653946 
   39000     3496.101    20504.983    502588.47    925.05266   -7847.7386    9.7741308 
   40000     3510.826     20386.78    510878.16    928.94882   -7873.7061    9.8308016 
   41000     3452.277    20495.182    494759.06    913.45702   -7881.5706     9.778805 
   42000    3428.7342    20429.065    505120.02    907.22771   -7867.6124    9.8104531 
   43000    3556.2145    20469.477    503719.76     940.9584    -7863.337    9.7910846 
   44000    3408.8597    20498.396    495480.43      901.969   -7876.2589    9.7772716 
   45000     3503.695    20485.206       505981    927.06198    -7842.326    9.7835673 
   46000    3431.3991    20499.722    494464.56    907.93282   -7883.6903    9.7766393 
   47000    3488.2246    20468.468    498566.65    922.96859   -7888.1473    9.7915676 
   48000    3419.2777     20453.85    494259.35    904.72555    -7909.459    9.7985654 
   49000    3561.1989    20391.278    512517.79    942.27728   -7861.2642    9.8286331 
   50000     3555.579    20564.925    487052.53    940.79026   -7894.1729    9.7456417 
   51000    3451.5957    20430.207    503775.36    913.27674   -7884.0902    9.8099046 
   52000    3462.8783    20443.001    498780.29    916.26207   -7895.1937    9.8037652 
   53000    3526.3037    20492.485     496619.6    933.04416   -7883.6114     9.780092 
   54000     3580.314    20508.347    496605.01    947.33503   -7877.2352    9.7725278 
   55000    3523.9554    20367.882    512222.74     932.4228   -7872.3749    9.8399228 
   56000    3566.3934    20570.818    482749.61     943.6517    -7911.253    9.7428498 
   57000    3434.9047    20408.038    507177.98    908.86038   -7873.9154    9.8205612 
   58000    3592.8686    20452.038    505984.54    950.65693   -7864.9071    9.7994336 
   59000    3429.2251    20506.386    497717.72    907.35759   -7865.2344    9.7734619 
   60000     3603.406     20506.51    496060.44    953.44506   -7883.9598    9.7734029 
   61000    3520.4595    20425.468    508729.24     931.4978   -7858.9331    9.8121807 
   62000     3443.389    20449.336     501127.6    911.10528    -7876.993    9.8007283 
   63000     3464.244    20490.085    501345.04    916.62342   -7855.1847    9.7812373 
   64000    3468.2787    20367.299    512398.68      917.691   -7871.8494    9.8402043 
   65000    3325.0943    20526.524    493689.17    879.80503   -7864.9324    9.7638735 
   66000    3609.3237    20513.122    494882.59    955.01087    -7882.801    9.7702525 
   67000    3566.6659    20499.801    499783.22    943.72379   -7866.0306    9.7766014 
   68000    3602.6742    20497.456     497330.8    953.25145   -7880.4464    9.7777202 
   69000    3557.2203     20524.84    492815.34    941.22454   -7888.4479    9.7646746 
   70000    3471.2089    20460.327    496735.35    918.46632   -7901.1397    9.7954636 
   71000    3472.0778    20406.475    512238.14    918.69623    -7851.438    9.8213134 
   72000    3388.4352    20561.202    487726.88    896.56476     -7881.51     9.747406 
   73000    3565.2233    20426.055     507176.9    943.34209   -7870.8717    9.8118988 
   74000    3445.2543    20461.355    500392.57    911.59883   -7878.2984    9.7949714 
   75000    3507.6031    20496.542    499010.81    928.09606   -7866.7944    9.7781563 
   76000    3485.7619    20449.009    497204.56    922.31698   -7900.9424     9.800885 
   77000    3496.8699    20530.093    493423.67    925.25609   -7874.4828    9.7621762 
   78000    3453.3801    20439.392    506041.13     913.7489   -7860.3188    9.8054963 
   79000    3514.7944    20522.241    492374.05    929.99885   -7887.2142    9.7659112 
   80000    3467.7167    20414.668    509673.31    917.54228   -7858.6285     9.817372 
   81000    3533.1811    20453.801    501271.94    934.86388   -7880.3187    9.7985886 
   82000     3543.296    20573.001    489871.01    937.54025   -7873.6668    9.7418158 
   83000    3461.2096    20326.179    523029.56    915.82055   -7839.9009    9.8601114 
   84000    3498.8957    20549.821    494246.66    925.79213   -7858.2102    9.7528044 
   85000    3469.6356    20474.517    500659.96    918.05002   -7869.3189    9.7886745 
   86000    3474.4253    20460.632    501351.64    919.31735   -7873.3234    9.7953177 
   87000     3498.311    20583.252    489385.43     925.6374   -7865.7681    9.7369641 
   88000    3494.5046    20315.667    522944.76    924.63026   -7850.6989    9.8652131 
   89000    3548.0744    20570.221    488996.61    938.80457   -7877.2471    9.7431322 
   90000    3560.2711    20515.988    498299.01    942.03176   -7861.5291    9.7688877 
   91000    3427.1977    20404.171    502933.87    906.82114   -7894.2944    9.8224224 
   92000    3559.1561    20459.217    501501.87    941.73675   -7880.7851    9.7959948 
   93000     3563.606    20461.831    499939.64    942.91418   -7889.6144    9.7947435 
   94000    3495.6153    20563.629    486608.93    924.92414   -7896.6057    9.7462558 
   95000    3543.1769    20409.901     508593.3    937.50872    -7871.453     9.819665 
   96000     3469.082    20473.478    504394.78    917.90356   -7857.5549    9.7891715 
   97000     3420.803     20429.78     503816.4    905.12912   -7877.2748    9.8101099 
   98000    3594.8206     20522.35     498963.5    951.17341   -7861.3406    9.7658594 
   99000    3546.2671    20547.344    489458.91    938.32638   -7891.8985      9.75398 
  100000    3501.2087    20414.834    503385.76    926.40413   -7894.6564    9.8172919 
  101000    3408.2335    20401.372    502631.95    901.80329    -7896.539    9.8237702 
  102000    3474.1317    20466.646    504948.45    919.23968   -7851.0833    9.7924392 
  103000    3548.0712    20507.805    496272.28    938.80373   -7880.9912    9.7727861 
  104000    3492.2155    20462.033    497857.04    924.02456   -7890.5346    9.7946468 
  105000    3492.1863    20363.961    519173.84    924.01684   -7844.8787    9.8418173 
  106000    3486.2116    20568.178    482653.76    922.43595   -7909.7905    9.7441001 
  107000    3474.9552    20405.342    511668.54    919.45757   -7850.7128    9.8218589 
  108000    3484.5202    20418.821       510742    921.98842   -7850.7114    9.8153753 
  109000    3575.6693    20493.095    487478.58    946.10608   -7932.1594    9.7798008 
  110000    3553.7166    20454.843    502945.69    940.29747   -7874.4336    9.7980895 
  111000    3568.7778    20477.652     496984.4     944.2826   -7894.2842     9.787176 
  112000    3476.6462    20428.949    503271.18      919.905   -7882.9576    9.8105088 
  113000    3486.3893    20403.269    511459.12    922.48298   -7856.6439    9.8228565 
  114000     3481.788    20609.803    474530.19     921.2655   -7927.9259    9.7244204 
  115000    3561.9061    20348.423    515550.54     942.4644   -7873.9639    9.8493326 
  116000    3470.8695    20506.651     494101.6     918.3765   -7885.7984     9.773336 
  117000    3461.7701    20361.412    515672.97    915.96885   -7860.5523    9.8430494 
  118000    3638.1059    20489.562    498302.85    962.62651   -7884.9941     9.781487 
  119000    3475.2069    20446.227     501781.2    919.52416   -7884.2675    9.8022186 
  120000    3420.8769    20464.681    498885.18     905.1487   -7881.9842    9.7933796 
  121000     3560.588     20513.32    500333.04    942.11562   -7857.8806    9.7701586 
  122000    3454.3692    20515.133    493013.85    914.01059   -7881.0596    9.7692948 
  123000    3528.9423    20410.319    511698.21    933.74231   -7856.0238    9.8194637 
  124000    3501.2696    20544.301    487000.35    926.42025   -7903.7737    9.7554249 
  125000    3408.0315    20423.548    505575.16    901.74986   -7869.3451    9.8131035 
  126000    3545.8981    20442.571    506349.15    938.22873   -7862.9729    9.8039716 
  127000    3478.7055     20584.66    478332.85    920.44989   -7916.5107    9.7362981 
  128000    3544.2512      20408.6    511187.53    937.79298   -7861.2915    9.8202906 
  129000    3483.6967    20457.524    501474.98    921.77053   -7878.8199    9.7968056 
  130000      3468.08    20562.472     489438.6    917.63842   -7876.5607    9.7468039 
  131000    3516.3841    20415.427    509487.17    930.41947   -7862.3161    9.8170066 
  132000    3492.0798    20619.595    479016.29    923.98865   -7895.3001    9.7198022 
  133000    3593.7498     20366.03    513419.83    950.89008   -7874.5243    9.8408174 
  134000    3452.6622    20506.796    492045.95    913.55894   -7891.6145    9.7732667 
  135000    3537.6334    20474.641    496892.33    936.04193   -7891.1726    9.7886156 
  136000    3542.3268    20411.823    502417.16    937.28378   -7901.6444    9.8187403 
  137000     3434.982    20528.781    491232.67    908.88084   -7880.2655    9.7628003 
  138000    3490.3459    20346.178    513988.74    923.52988   -7884.2671    9.8504196 
  139000    3606.0863    20440.595    500199.95    954.15427   -7897.1915    9.8049193 
  140000    3505.6043    20524.151    490486.56    927.56717   -7895.4504    9.7650028 
  141000    3430.9555    20409.016    509171.12    907.81544   -7862.7917    9.8200904 
  142000    3533.3354    20402.096     504461.2     934.9047   -7893.1009    9.8234212 
  143000    3435.7411    20518.247    493265.64    909.08168    -7876.109    9.7678123 
  144000    3514.3675    20509.583    500745.43    929.88588    -7851.358    9.7719384 
  145000     3507.674    20435.661    503245.24    928.11482   -7876.3315    9.8072867 
  146000    3584.5911     20545.75    482331.87    948.46674   -7929.0613    9.7547371 
  147000    3457.9337    20448.578    507531.01    914.95376   -7848.5372    9.8010916 
  148000    3463.8482    20460.969    500093.43     916.5187   -7876.8257     9.795156 
  149000    3407.4455    20477.634    496921.16    901.59481   -7881.0231    9.7871846 
  150000    3506.5783     20476.06    498087.87     927.8249   -7886.5676     9.787937 
  151000    3525.0399    20383.274    511044.62    932.70975   -7874.3041    9.8324926 
  152000     3368.001    20471.326    499075.42    891.15797   -7870.8965    9.7902006 
  153000    3568.2592    20432.828     505384.6     944.1454   -7879.8087    9.8086463 
  154000     3464.421    20398.055    504671.41    916.67025   -7892.3555    9.8253675 
  155000    3506.6474    20473.215    497412.36    927.84317   -7888.8105    9.7892974 
  156000    3533.9962    20450.456    510701.74    935.07954   -7834.9699    9.8001914 
  157000    3520.7857    20558.637     488869.4    931.58412   -7883.9815    9.7486223 
  158000    3508.2549    20466.684    503389.28    928.26853   -7861.5282    9.7924209 
  159000     3482.484    20431.561    505253.85    921.44966   -7869.6731    9.8092548 
  160000    3550.7618    20629.619    479720.43    939.51564    -7892.496    9.7150792 
  161000    3411.3646    20384.053    511453.47    902.63178   -7864.0715    9.8321164 
  162000    3513.2389    20513.805    499291.03    929.58726   -7855.2049    9.7699273 
  163000     3492.596    20465.026    500203.85    924.12525   -7877.9414    9.7932144 
  164000    3603.1415    20569.431    486225.95    953.37508   -7898.5446    9.7435068 
  165000    3506.3713     20434.86    503721.08    927.77012   -7879.3014     9.807671 
  166000    3563.5199    20497.197    503093.84    942.89139   -7851.9284    9.7778436 
  167000     3359.572    20515.479    496211.57     888.9277   -7865.2898    9.7691305 
  168000    3463.8174    20398.657    512358.14    916.51055   -7852.9781    9.8250777 
  169000      3448.57    20481.155    490441.48    912.47617   -7914.1674     9.785502 
  170000    3538.7175    20406.699    514485.47    936.32879   -7842.7787    9.8212057 
  171000    3458.1738    20488.104    498289.26    915.01729   -7875.8975    9.7821833 
  172000    3538.3939    20558.988    488940.53    936.24317    -7885.464    9.7484559 
  173000    3514.7333    20370.869     509187.5    929.98267   -7889.3336    9.8384801 
  174000    3499.4113     20542.17    488192.03    925.92854   -7897.8786    9.7564371 
  175000    3500.1228    20423.191    502294.53    926.11679   -7893.9455    9.8132751 
  176000     3411.216    20437.256    504469.27    902.59246   -7866.9336    9.8065213 
  177000    3516.0708    20563.485    486127.75    930.33658   -7894.8909    9.7463239 
  178000    3605.4186    20405.021    505319.42     953.9776   -7897.4242     9.822013 
  179000    3489.2777    20461.653    497954.36    923.24723   -7891.3323    9.7948287 
  180000    3486.4593    20485.916    496586.24    922.50149   -7885.3024     9.783228 
  181000    3642.5907    20402.055    512420.23    963.81317   -7865.6274    9.8234413 
  182000    3440.7928     20531.49     488954.1    910.41836   -7893.7044    9.7615119 
  183000    3564.3485     20435.94    508110.17    943.11064   -7857.6517    9.8071527 
  184000    3545.6147    20533.927    491241.35    938.15374   -7890.9458    9.7603537 
  185000    3474.0457    20403.612    509893.74    919.21693   -7864.2664    9.8226917 
  186000    3424.1641    20526.766    489645.86    906.01846   -7891.6794    9.7637585 
  187000    3478.4503     20457.94    504696.47    920.38235   -7858.8707    9.7966064 
  188000    3535.1989     20463.87    502995.14    935.39778   -7868.1032    9.7937675 
  189000    3465.2122    20441.946    502356.91    916.87962   -7883.4175    9.8042716 
  190000    3573.5217     20462.27    505707.44    945.53781   -7857.9833    9.7945336 
  191000    3506.9234    20516.094    497535.74    927.91622     -7862.79    9.7688375 
  192000     3478.335    20440.482    500939.23    920.35185   -7886.1162    9.8049735 
  193000    3567.1058    20422.215    509236.85    943.84019   -7859.4064     9.813744 
  194000     3350.494    20493.571     492157.1    886.52569   -7890.4864    9.7795736 
  195000    3488.8742    20459.816    509721.12    923.14048   -7832.9932    9.7957082 
  196000    3559.1918    20470.781    502168.34    941.74621   -7869.6492     9.790461 
  197000    3436.9166    20544.529    484529.29    909.39273   -7907.4713    9.7553167 
  198000    3498.6667    20463.753    505136.56    925.73153   -7854.0535    9.7938233 
  199000    3433.4072    20397.203    508151.21    908.46416   -7873.0184    9.8257777 
  200000     3455.922    20531.928    497128.92    914.42147   -7853.3637    9.7613039 
  201000    3444.8369    20501.976     497109.1    911.48841   -7866.2741    9.7755642 
  202000    3601.4738    20408.003    514230.37    952.93383   -7847.9592     9.820578 
  203000     3386.844    20538.494    490609.73    896.14374   -7879.5209    9.7581831 
  204000    3452.4824    20468.221    506443.59    913.51137   -7840.1839    9.7916859 
  205000    3490.0238     20525.09    494673.54    923.44464   -7873.9792    9.7645556 
  206000    3558.7098    20473.859    491533.51    941.61866   -7921.3987    9.7889892 
  207000    3553.3581     20445.85     511602.1    940.20264   -7839.8879    9.8023995 
  208000    3485.8348    20542.296    489642.57    922.33627   -7890.2182    9.7563773 
  209000    3526.5302    20481.636    498191.08    933.10409   -7878.0113    9.7852725 
  210000         3492    20430.441    512161.13    923.96754   -7837.8431    9.8097924 
  211000    3425.1608    20585.037    480931.24     906.2822    -7900.167    9.7361197 
  212000    3552.7124    20438.411    509487.84    940.03177   -7852.3398    9.8059673 
  213000    3451.9295    20502.222    495804.32    913.36506   -7872.5035    9.7754473 
  214000    3492.5622    20500.791    495824.76    924.11629   -7880.2965    9.7761294 
  215000    3438.0651    20323.767    519148.62    909.69662   -7859.7499    9.8612812 
  216000    3544.4472    20464.506     497636.9    937.84483   -7895.6908     9.793463 
  217000    3533.1424    20554.422    490955.59    934.85365   -7876.0394    9.7506212 
  218000    3530.4272    20353.807    514516.41     934.1352   -7873.6658    9.8467272 
  219000    3582.4409    20530.403    490737.99     947.8978   -7896.6615     9.762029 
  220000    3663.4198    20467.004    504107.38    969.32445   -7871.8256    9.7922678 
  221000    3468.1907    20487.352    496043.46    917.66771   -7886.0771    9.7825423 
  222000    3429.2334    20423.203    508640.92    907.35979   -7860.0038    9.8132689 
  223000    3510.0473    20491.679    497580.89    928.74279   -7878.0936    9.7804766 
  224000    3458.1474     20516.31    487449.79     915.0103   -7914.8996    9.7687343 
  225000    3529.2906    20381.322    512850.99    933.83447   -7864.5198    9.8334339 
  226000    3598.4414    20537.191    492464.79    952.13147   -7885.0851    9.7588025 
  227000    3547.5148    20489.381    494889.32     938.6565   -7893.5215    9.7815737 
  228000    3393.1909    20459.241    496413.55    897.82311   -7892.2716    9.7959837 
  229000    3568.7698    20398.478    509140.47     944.2805   -7876.5781    9.8251637 
  230000    3557.1374    20513.787    497299.83    941.20261   -7873.9636    9.7699361 
  231000    3584.5577    20469.432    500525.37    948.45789    -7880.137    9.7911062 
  232000    3447.1464    20428.948    506555.97    912.09949   -7866.2164    9.8105095 
  233000    3456.3574    20453.105    496955.31    914.53668   -7899.7511    9.7989221 
  234000    3466.4122     20560.08    493063.69    917.19713   -7862.8752     9.747938 
  235000    3496.5983    20420.843    509593.47    925.18423   -7857.0936    9.8144031 
  236000    3503.7442    20574.851     483740.9    927.07501   -7898.9577    9.7409399 
  237000    3594.5668     20380.52    516138.07    951.10626    -7854.204    9.8338212 
  238000      3406.67    20516.992    484030.35     901.3896   -7925.9129    9.7684097 
  239000    3576.1961    20411.974    508564.63    946.24546   -7875.4629    9.8186676 
  240000    3441.0627     20416.83    506240.04    910.48976   -7872.7349    9.8163324 
  241000    3487.5891    20537.322    485569.08    922.80045    -7911.832    9.7587399 
  242000    3510.5612    20404.691    512142.79    928.87875   -7849.7731    9.8221719 
  243000    3539.4476    20456.527    496459.25    936.52196   -7905.2435    9.7972832 
  244000    3492.5462    20468.789    499278.72    924.11207   -7877.7564     9.791414 
  245000    3558.2003    20448.213    502471.07    941.48385    -7885.108    9.8012665 
  246000    3555.7821    20448.451    498758.81    940.84401   -7899.1822    9.8011526 
  247000    3518.4975    20528.586    488356.89    930.97867     -7902.68     9.762893 
  248000    3532.8239    20506.153    501907.29    934.76937   -7845.1902    9.7735731 
  249000    3438.6091      20367.8     513906.6    909.84055   -7861.6896    9.8399624 
  250000    3377.2829    20490.474    497414.21    893.61392   -7867.7181    9.7810518 
Loop time of 530.966 on 8 procs for 250000 steps with 2048 atoms

Performance: 40.681 ns/day, 0.590 hours/ns, 470.840 timesteps/s
123.7% CPU use with 4 MPI tasks x 2 OpenMP threads

MPI task timing breakdown:
Section |  min time  |  avg time  |  max time  |%varavg| %total
---------------------------------------------------------------
Pair    | 318.24     | 323.65     | 329.14     |  22.0 | 60.95
Neigh   | 5.5457     | 5.7126     | 5.8219     |   4.3 |  1.08
Comm    | 21.735     | 27.374     | 32.9       |  77.3 |  5.16
Output  | 0.0057875  | 0.011484   | 0.013391   |   3.1 |  0.00
Modify  | 173.19     | 173.25     | 173.31     |   0.3 | 32.63
Other   |            | 0.9735     |            |       |  0.18

Nlocal:        512.000 ave         518 max         506 min
Histogram: 1 0 1 0 0 0 0 1 0 1
Nghost:        3100.00 ave        3107 max        3093 min
Histogram: 1 0 1 0 0 0 0 1 0 1
Neighs:        46847.2 ave       48523 max       45308 min
Histogram: 1 0 0 1 0 1 0 0 0 1

Total # of neighbors = 187389
Ave neighs/atom = 91.498535
Neighbor list builds = 5783
Dangerous builds = 0


# fix 132 all momentum 100 linear 1 1 1 angular
fix out_file_1 all print 1000 "$(step) $(temp) $(press) ${sys_press} $(vol) $(ke) $(pe) $(density)" file one_phase_${sim}_press_$P_$T_.txt screen no title  "step temp press pressGiga vol ke pe density"
fix out_file_1 all print 1000 "$(step) $(temp) $(press) ${sys_press} $(vol) $(ke) $(pe) $(density)" file one_phase_heating_press_$P_$T_.txt screen no title  "step temp press pressGiga vol ke pe density"
fix out_file_1 all print 1000 "$(step) $(temp) $(press) ${sys_press} $(vol) $(ke) $(pe) $(density)" file one_phase_heating_press_500000_$T_.txt screen no title  "step temp press pressGiga vol ke pe density"
fix out_file_1 all print 1000 "$(step) $(temp) $(press) ${sys_press} $(vol) $(ke) $(pe) $(density)" file one_phase_heating_press_500000_3500_.txt screen no title  "step temp press pressGiga vol ke pe density"

# dump 3 all custom 1000 traj_npt_new.lammpstrj id type x y z
run 50000
Last active /omp style is pair_style eam/alloy/omp
Per MPI rank memory allocation (min/avg/max) = 4.354 | 4.354 | 4.354 Mbytes
Step Temp Volume Press KinEng PotEng Density 
  250000    3377.2829    20490.474    497414.21    893.61392   -7867.7181    9.7810518 
  251000    3592.3154    20486.874    495909.44    950.51054    -7895.553    9.7827707 
  252000    3567.5025    20500.127    496445.15    943.94516   -7884.1186    9.7764461 
  253000    3507.1238    20543.557    481836.04    927.96923   -7927.9695    9.7557782 
  254000    3570.3276    20381.206    518434.85    944.69268   -7839.6517    9.8334901 
  255000     3530.183    20483.291    496411.99     934.0706   -7891.4889    9.7844818 
  256000    3519.9919    20427.587    500751.02    931.37409    -7900.241     9.811163 
  257000    3528.5233    20455.991    504123.95    933.63144   -7866.7605      9.79754 
  258000    3475.2856    20524.571    488728.98      919.545   -7900.9931    9.7648028 
  259000    3605.1413    20455.052    507364.91    953.90422   -7861.1248    9.7979894 
  260000     3452.569    20497.733    501352.01    913.53429   -7851.9806     9.777588 
  261000    3478.6074     20509.75    494330.83    920.42392   -7878.3345    9.7718589 
  262000    3422.5134    20343.189    518160.24    905.58171    -7853.382    9.8518669 
  263000    3497.1848    20522.637    491591.38    925.33943   -7891.0849    9.7657227 
  264000    3557.1522    20431.726    505577.76    941.20651   -7873.5318    9.8091755 
  265000     3422.927    20573.445     482354.3    905.69114   -7900.9553    9.7416054 
  266000    3604.9599    20313.059    527088.45    953.85623   -7840.2798    9.8664797 
  267000    3502.0628    20509.547    492868.11    926.63012   -7891.1504    9.7719556 
  268000    3468.0681    20405.314    511650.96    917.63528   -7853.4653     9.821872 
  269000    3454.0615    20478.588    495815.37    913.92919   -7889.8174    9.7867286 
  270000    3608.0025     20555.61    491765.99    954.66129   -7877.2486    9.7500579 
  271000    3466.5032    20512.409     498126.6    917.22121   -7858.6676    9.7705922 
  272000    3444.2827    20408.661    505210.64    911.34177   -7884.4291    9.8202612 
  273000    3485.7881    20409.316    505971.69    922.32391   -7880.2768     9.819946 
  274000    3485.1339    20464.091    499860.17    922.15082   -7882.4531    9.7936619 
  275000    3543.1057     20404.59    509115.45    937.48988   -7865.7732    9.8222206 
  276000    3562.3497    20627.704    481539.45    942.58177   -7883.2187    9.7159811 
  277000    3509.7811    20433.239    501692.24    928.67233   -7889.5412    9.8084491 
  278000    3561.1118     20475.54    497293.57    942.25422   -7892.8816    9.7881857 
  279000    3476.5711    20479.926    492286.56    919.88512   -7907.5794    9.7860892 
  280000    3477.0348    20468.506    505521.24    920.00783   -7848.9208    9.7915493 
  281000     3425.897    20449.845    501626.94    906.47699   -7877.8752    9.8004846 
  282000       3473.9    20449.937    501247.44    919.17837    -7883.649    9.8004404 
  283000    3479.4668    20513.361    493255.25    920.65131    -7883.144    9.7701389 
  284000    3477.7614    20412.319    520467.37    920.20008   -7805.7962    9.8185014 
  285000     3433.163    20549.266    489963.17    908.39954   -7876.4254    9.7530679 
  286000    3421.3004    20436.995    504276.07    905.26075   -7871.5751    9.8066464 
  287000    3452.4588    20422.288    509626.85    913.50512   -7855.0301    9.8137088 
  288000    3631.0226    20549.344    488446.68     960.7523   -7902.9273    9.7530307 
  289000    3475.8193     20437.09    503900.43    919.68621   -7874.9192    9.8066009 
  290000    3423.8091    20455.754    502253.49    905.92455   -7870.0964    9.7976531 
  291000    3447.1222    20474.926    495728.03    912.09309   -7893.6905    9.7884793 
  292000    3450.7914    20402.843    514206.26    913.06394   -7843.1721    9.8230615 
  293000    3532.0517      20531.7    498329.92    934.56505   -7850.4602    9.7614123 
  294000    3484.0857     20515.04    490351.48    921.87345   -7897.8341    9.7693393 
  295000    3592.4196     20442.26    511049.97    950.53812   -7841.6708    9.8041208 
  296000    3506.1659    20509.643    486508.67    927.71577    -7925.135    9.7719103 
  297000    3500.2693    20397.571     511781.3    926.15557   -7862.0791    9.8256007 
  298000    3576.3413    20606.412    483048.99    946.28389   -7886.8982    9.7260207 
  299000    3503.1067     20447.09    503090.19    926.90632   -7876.7088    9.8018049 
  300000    3479.5593    20416.459    502775.17    920.67579   -7890.1756    9.8165104 
Loop time of 106.299 on 8 procs for 50000 steps with 2048 atoms

Performance: 40.640 ns/day, 0.591 hours/ns, 470.373 timesteps/s
124.0% CPU use with 4 MPI tasks x 2 OpenMP threads

MPI task timing breakdown:
Section |  min time  |  avg time  |  max time  |%varavg| %total
---------------------------------------------------------------
Pair    | 63.847     | 65.022     | 66.173     |  10.8 | 61.17
Neigh   | 1.1033     | 1.1343     | 1.1533     |   1.8 |  1.07
Comm    | 4.2387     | 5.4119     | 6.6106     |  37.9 |  5.09
Output  | 0.001104   | 0.0017432  | 0.0019583  |   0.9 |  0.00
Modify  | 34.527     | 34.536     | 34.545     |   0.1 | 32.49
Other   |            | 0.1931     |            |       |  0.18

Nlocal:        512.000 ave         521 max         506 min
Histogram: 1 1 0 0 1 0 0 0 0 1
Nghost:        3100.50 ave        3107 max        3091 min
Histogram: 1 0 0 0 0 1 0 0 1 1
Neighs:        46908.0 ave       49684 max       44434 min
Histogram: 1 0 1 0 0 0 1 0 0 1

Total # of neighbors = 187632
Ave neighs/atom = 91.617188
Neighbor list builds = 1155
Dangerous builds = 0

unfix temp
unfix out_file_1


write_data after_${sim}_press_$P_$T.in
write_data after_heating_press_$P_$T.in
write_data after_heating_press_500000_$T.in
write_data after_heating_press_500000_3500.in
System init for write_data ...
Last active /omp style is pair_style eam/alloy/omp
write_restart after_${sim}_press_$P_$T.lmp
write_restart after_heating_press_$P_$T.lmp
write_restart after_heating_press_500000_$T.lmp
write_restart after_heating_press_500000_3500.lmp
System init for write_restart ...
Last active /omp style is pair_style eam/alloy/omp

next loopVar  #<----->
jump in.lmp ensemble

print """
Label pachadi solti, hos garam.
"""

Label pachadi solti, hos garam.

variable T equal 3300+${loopVar}*100  #<----->
variable T equal 3300+3*100  
# variable T equal 1850


reset_timestep 0
fix 1 all npt temp $T $T $(dt*100) iso $P $P $(dt*1000)
fix 1 all npt temp 3600 $T $(dt*100) iso $P $P $(dt*1000)
fix 1 all npt temp 3600 3600 $(dt*100) iso $P $P $(dt*1000)
fix 1 all npt temp 3600 3600 0.10000000000000000555 iso $P $P $(dt*1000)
fix 1 all npt temp 3600 3600 0.10000000000000000555 iso 500000 $P $(dt*1000)
fix 1 all npt temp 3600 3600 0.10000000000000000555 iso 500000 500000 $(dt*1000)
fix 1 all npt temp 3600 3600 0.10000000000000000555 iso 500000 500000 1
print """
<--------------------------------------------------------------------->
<------------------ Equilibrating at temperature $T ----------------->
<--------------------------------------------------------------------->
"""

<--------------------------------------------------------------------->
<------------------ Equilibrating at temperature 3600 ----------------->
<--------------------------------------------------------------------->

fix temp all print 1000 "$(step) $(temp) $(press) ${sys_press} $(vol) $(ke) $(pe) $(density)" file temp_${sim}.txt screen no title  "step temp press pressGiga vol ke pe density"
fix temp all print 1000 "$(step) $(temp) $(press) ${sys_press} $(vol) $(ke) $(pe) $(density)" file temp_heating.txt screen no title  "step temp press pressGiga vol ke pe density"
run 250000
Last active /omp style is pair_style eam/alloy/omp
Per MPI rank memory allocation (min/avg/max) = 4.354 | 4.354 | 4.354 Mbytes
Step Temp Volume Press KinEng PotEng Density 
       0    3479.5593    20416.459    502775.17    920.67579   -7890.1756    9.8165104 
    1000    3479.4549    20423.703    508278.52    920.64816   -7855.9101    9.8130288 
    2000    3516.8304     20593.09    485182.31    930.53756   -7881.7308    9.7323125 
    3000    3646.1882    20465.339    513389.91    964.76504   -7822.7035    9.7930644 
    4000    3543.2539    20510.309    502364.45     937.5291   -7845.9221    9.7715927 
    5000    3641.3386    20562.888    489938.21    963.48186   -7882.9553    9.7466067 
    6000    3619.7768    20485.994    509534.34     957.7767   -7825.8817    9.7831905 
    7000    3522.0896     20506.52    503668.41    931.92911   -7835.8815    9.7733981 
    8000      3465.04    20504.473    501421.31    916.83405   -7846.5599    9.7743738 
    9000    3489.1736    20505.919    506271.47     923.2197   -7824.3493    9.7736847 
   10000    3533.1262    20537.588    489592.78    934.84935   -7893.2998    9.7586134 
   11000    3728.0197    20406.631    521878.66     986.4173   -7818.0428    9.8212381 
   12000    3638.7661    20607.284    483812.02     962.8012   -7892.0022    9.7256088 
   13000    3621.6036    20530.465     498341.1    958.26008   -7862.0892    9.7619993 
   14000    3664.0493    20529.161    500678.97    969.49102   -7853.1816    9.7626195 
   15000    3625.1511    20515.936    496715.34    959.19874   -7870.5651    9.7689125 
   16000    3729.2076    20439.866    518355.66     986.7316   -7815.2668    9.8052691 
   17000    3587.8065    20635.315    480916.84    949.31752    -7883.909    9.7123976 
   18000    3575.3684    20545.777       491091    946.02646    -7884.809    9.7547243 
   19000    3695.2135    20532.457    501331.24    977.73692   -7848.5042    9.7610523 
   20000    3456.2909    20491.928    503198.23    914.51907   -7848.0964    9.7803576 
   21000    3622.4654    20500.542     504876.5     958.4881   -7846.0389     9.776248 
   22000    3557.7608    20569.937    493192.52    941.36756   -7861.2934     9.743267 
   23000    3573.2574    20527.106    497150.16    945.46788   -7860.7919     9.763597 
   24000    3541.1452    20393.763     520421.7    936.97114   -7823.4057    9.8274351 
   25000    3581.1937    20561.775    492951.36     947.5678    -7867.829    9.7471347 
   26000    3552.4562    20567.851    497508.05    939.96398   -7841.0627     9.744255 
   27000    3697.0338    20452.742    511068.38    978.21857   -7843.1039    9.7990961 
   28000    3597.3149    20517.931    500831.48    951.83338   -7853.4635    9.7679626 
   29000    3612.8215    20559.912    486850.99    955.93636   -7898.7699    9.7480178 
   30000    3539.3977    20501.451    508266.68    936.50876   -7822.1783    9.7758146 
   31000    3516.6526    20466.731    501053.97    930.49051   -7875.2517    9.7923984 
   32000    3592.2767    20584.769    491822.31     950.5003   -7859.5913    9.7362467 
   33000    3621.8753    20473.572    510801.47    958.33198   -7830.0307    9.7891267 
   34000    3499.7881    20581.515    485601.62    926.02824   -7884.6201    9.7377858 
   35000    3625.3669    20462.643     506919.9    959.25584   -7853.0594    9.7943548 
   36000    3637.2266    20620.305    490867.49    962.39385   -7852.5809    9.7194676 
   37000    3630.1664    20555.764    494718.83    960.52575   -7865.8962    9.7499848 
   38000    3674.8408    20417.208    516293.59     972.3464   -7838.8432    9.8161505 
   39000    3557.3782    20541.318    497374.98    941.26632   -7853.6065    9.7568417 
   40000    3600.5215    20522.781    496915.57    952.68184   -7865.9171    9.7656543 
   41000    3506.5224    20437.535    511383.09     927.8101   -7836.8618    9.8063875 
   42000    3593.2969    20564.945    495606.24    950.77025   -7852.9251    9.7456319 
   43000    3644.1121    20506.885    504907.57    964.21572   -7838.5944    9.7732244 
   44000    3723.5882    20481.477    502997.53    985.24474   -7871.3943    9.7853484 
   45000    3622.3216     20529.79    495218.11    958.45005   -7880.2375    9.7623204 
   46000     3617.422    20515.398    504175.85    957.15366   -7838.8182    9.7691688 
   47000    3595.9744    20528.247    499567.94    951.47872   -7851.4886    9.7630541 
   48000    3504.7313    20576.274    500422.06    927.33619   -7819.2797    9.7402662 
   49000    3589.0767    20501.644    500904.94     949.6536   -7862.7363    9.7757225 
   50000     3594.452    20506.199    499948.52    951.07589   -7861.9118    9.7735515 
   51000    3633.8627    20644.998    484507.65    961.50377   -7864.9229    9.7078422 
   52000    3630.4908    20364.605    528962.47    960.61158   -7805.0736     9.841506 
   53000    3509.1989    20614.009    485754.89     928.5183   -7871.6992    9.7224364 
   54000    3548.5936     20598.13    489599.86    938.94196   -7854.3556    9.7299312 
   55000    3729.0609    20493.429    509697.98     986.6928   -7831.8365    9.7796416 
   56000    3467.8999    20504.473    503976.22    917.59077   -7840.0692     9.774374 
   57000    3517.2709     20515.18    504615.06    930.65411   -7825.5572    9.7692725 
   58000    3575.0696    20611.151    494238.07    945.94738   -7826.9936    9.7237844 
   59000    3490.3205    20650.665    484758.52    923.52317    -7850.465    9.7051781 
   60000    3746.8161    20428.204    513684.57    991.39074   -7844.0181    9.8108667 
   61000    3617.2977    20524.188     497691.8    957.12076   -7866.2397    9.7649849 
   62000    3507.0448    20473.443    507076.44    927.94832   -7839.1256    9.7891883 
   63000    3654.2364    20488.007    504453.26    966.89457   -7858.5445    9.7822296 
   64000    3599.9957    20559.796    493435.37    952.54272   -7866.3446    9.7480726 
   65000    3604.7876    20493.131    501605.97    953.81065   -7858.3858    9.7797837 
   66000    3657.4885    20484.036    505717.71    967.75506   -7851.9381    9.7841258 
   67000    3699.4731    20556.634    496468.44    978.86401   -7860.2543    9.7495722 
   68000     3613.104    20423.344    512926.35    956.01112   -7843.2241    9.8132014 
   69000    3488.6676    20609.477     480212.3     923.0858   -7901.2477    9.7245742 
   70000    3559.6434    20394.716    525708.78    941.86569   -7792.0152    9.8269759 
   71000    3546.1419    20546.078    494976.31    938.29325   -7865.7949    9.7545813 
   72000      3595.23    20528.313     499430.2    951.28175   -7856.7201    9.7630229 
   73000    3594.0578     20471.46    504656.86    950.97157   -7856.7032    9.7901363 
   74000     3617.513    20601.136    488903.56    957.17772   -7866.8455    9.7285113 
   75000    3577.4983    20535.507    500001.77    946.59002   -7845.9739    9.7596024 
   76000    3723.6148    20475.263    510176.32    985.25177    -7838.693    9.7883178 
   77000    3615.5445    20539.392    494014.15    956.65686   -7878.0464    9.7577566 
   78000    3577.9138    20480.448    507700.27    946.69994   -7837.2542    9.7858399 
   79000    3495.5319    20485.775    500186.34    924.90206   -7868.2026    9.7832952 
   80000    3565.2089    20541.372    501976.33     943.3383   -7835.2801    9.7568161 
   81000    3538.9821    20487.506    502048.03    936.39879   -7858.3929    9.7824688 
   82000    3580.0854    20459.992    511516.29    947.27454   -7833.3434     9.795624 
   83000    3480.0509     20560.56     497973.8    920.80586   -7829.5359    9.7477105 
   84000    3573.2582    20463.112    504362.67    945.46809   -7861.0999    9.7941306 
   85000    3690.3077    20485.432    506837.08    976.43887    -7843.354     9.783459 
   86000    3624.9324    20602.758    488458.84    959.14085   -7870.2359    9.7277454 
   87000     3634.208    20409.112     516921.7    961.59515     -7836.84    9.8200443 
   88000    3520.1491    20516.768    495811.67    931.41568   -7873.9058    9.7685167 
   89000    3675.2658     20536.51    502434.45    972.45885   -7839.9187     9.759126 
   90000    3613.3989    20525.492     497474.2    956.08916   -7861.7816    9.7643644 
   91000    3629.7651    20492.656    502928.47    960.41956   -7857.3788    9.7800105 
   92000    3480.6525    20571.487     495437.5    920.96505   -7842.3053    9.7425328 
   93000    3670.9936    20509.088    507212.45    971.32846   -7827.6565    9.7721743 
   94000    3641.5874    20629.906    489155.64    963.54769   -7852.2455    9.7149443 
   95000    3619.3928    20536.477    498354.47     957.6751   -7857.9246    9.7591417 
   96000    3576.3485    20685.845    485837.21    946.28577   -7831.2324    9.6886729 
   97000    3673.4887      20532.1    499379.42    971.98864   -7858.2497    9.7612219 
   98000    3653.6255    20530.414    498917.56    966.73293   -7859.0825    9.7620234 
   99000    3580.3931    20648.883    484210.57    947.35597   -7862.4204     9.706016 
  100000    3589.2042     20416.93    516315.49    949.68735   -7831.0055     9.816284 
  101000    3505.2635    20476.959    508048.17      927.477   -7836.8268    9.7875075 
  102000    3620.2237     20593.37    496789.64    957.89496   -7832.8987    9.7321803 
  103000    3694.3686    20524.805    500387.61    977.51337   -7857.0398    9.7646916 
  104000    3552.3001    20503.163    501195.19    939.92268   -7856.4988    9.7749982 
  105000    3569.5115    20498.854    502088.98    944.47674   -7858.8782    9.7770534 
  106000    3721.1725    20541.686     504605.1    984.60556   -7831.4492    9.7566667 
  107000    3529.9467    20556.666    496154.66    934.00806   -7850.2317    9.7495568 
  108000    3775.9611    20562.292    496753.97    999.10239   -7861.9609    9.7468893 
  109000    3704.6327    20517.663    500535.76     980.2292    -7860.437    9.7680905 
  110000    3471.8563    20700.953    473264.08     918.6376   -7878.3749     9.681602 
  111000    3639.1686    20526.203    501668.27     962.9077   -7849.0414    9.7640265 
  112000    3720.7217    20570.946    499347.95    984.48629   -7835.1836    9.7427888 
  113000    3634.3307    20559.754    491785.87    961.62761   -7875.9256    9.7480926 
  114000    3598.0207    20424.232    515977.52    952.02013    -7828.644    9.8127747 
  115000    3710.6955    20631.986    483851.56     981.8334   -7882.8694    9.7139647 
  116000    3521.1759    20584.665    493169.48    931.68736   -7850.4676    9.7362956 
  117000    3676.7938    20565.622    505761.67    972.86316    -7803.749    9.7453111 
  118000    3598.3089    20515.216    502119.62    952.09639   -7845.6608    9.7692557 
  119000    3617.9184    20488.028    500798.98    957.28499   -7872.6596    9.7822193 
  120000     3526.663     20516.06    508801.93    933.13922   -7805.7172    9.7688534 
  121000    3626.3378    20566.228    494752.53    959.51271   -7861.5687    9.7450243 
  122000    3635.2656    20426.916    513650.37    961.87498    -7840.931    9.8114852 
  123000     3682.928    20592.325    497956.62    974.48624   -7823.7682    9.7326742 
  124000    3557.0204    20629.533    485670.05    941.17165   -7866.2152    9.7151201 
  125000    3531.8383    20382.168    520229.56    934.50858    -7831.188    9.8330258 
  126000    3630.5872    20608.624    492053.47    960.63709   -7849.4196    9.7249766 
  127000    3562.4075    20500.162    502146.39    942.59705   -7858.9053    9.7764292 
  128000    3755.1188    20541.846    501101.45     993.5876     -7847.11     9.756591 
  129000    3591.0218    20503.278     501185.7    950.16828   -7857.9935    9.7749437 
  130000    3568.7265    20506.637    508139.04    944.26904   -7819.1052    9.7733423 
  131000    3579.2927    20670.895    487670.94    947.06479   -7831.1038    9.6956799 
  132000    3551.2798    20479.839     506099.6    939.65271   -7843.2667    9.7861308 
  133000    3634.1899    20513.065    507745.08    961.59035   -7826.1945      9.77028 
  134000    3601.8143    20593.467    492559.61    953.02391     -7852.02    9.7321341 
  135000    3612.2373    20438.156    511289.26    955.78179   -7844.7989    9.8060893 
  136000    3641.6763    20481.629    512416.15    963.57122   -7824.8644    9.7852755 
  137000    3646.6038    20548.346    492593.67    964.87501   -7878.8361    9.7535043 
[...]
  269000    3942.7462    21212.648    507014.96     1043.233   -7472.4453    9.4480605 
  270000    3790.1689    21107.938    509334.23    1002.8617    -7499.702    9.4949297 
  271000    3759.3156    21223.703    495208.74    994.69806   -7514.5744    9.4431395 
  272000    3642.0811    21087.747    513302.39    963.67834   -7480.8103     9.504021 
  273000    3740.8348    21072.949    508179.87    989.80812    -7517.463     9.510695 
  274000    3726.5217    21282.793    485573.86    986.02095   -7518.1192    9.4169213 
  275000    3855.5594     21229.03    503033.77    1020.1637   -7468.6295    9.4407698 
  276000    3714.4119     21074.79    512784.44    982.81674   -7500.1714    9.5098639 
  277000    3766.6104    21223.496    491389.45    996.62822   -7524.1297    9.4432316 
  278000    3748.6895    21210.505    499256.31    991.88644   -7492.3135    9.4490155 
  279000    3837.1859     21174.14    505465.27    1015.3022   -7480.8612    9.4652434 
  280000    3899.5008    21229.429    497702.33    1031.7904   -7511.3112    9.4405923 
  281000    3797.5323     21148.05    503049.23      1004.81   -7506.8402    9.4769206 
  282000    3818.1106     21199.99    495914.26    1010.2549    -7519.271    9.4537018 
  283000     3677.419    21103.429    510155.66    973.02858   -7486.3087    9.4969585 
  284000    3748.6625    21185.125    504799.37    991.87929   -7479.6526    9.4603355 
  285000    3760.0603    21237.759    487789.93    994.89511   -7536.3338    9.4368897 
  286000    3875.7225    21188.978    505468.34    1025.4988   -7481.2731    9.4586152 
  287000    3852.6638    21200.806    499989.74    1019.3976   -7494.7788    9.4533379 
  288000    3678.1873    21220.291    495725.42    973.23188   -7502.0791    9.4446576 
  289000    3776.7562    21184.525    500850.05    999.31276   -7506.4438    9.4606033 
  290000    3883.4324     21206.55    504952.44    1027.5388   -7478.0779    9.4507776 
  291000    3742.5437    21209.985    495653.64    990.26028    -7509.311    9.4492468 
  292000    3870.4754    21171.825    508132.67    1024.1104   -7473.1078    9.4662782 
  293000    3715.2509    21093.829    504140.66    983.03873   -7526.0327    9.5012804 
  294000    3722.4145    21214.743    502300.39    984.93418    -7477.664    9.4471279 
  295000    3850.5886    21231.829    488595.62    1018.8485   -7538.7068    9.4395254 
  296000    3858.2208    21264.791    486519.44    1020.8679   -7544.7102    9.4248934 
  297000    3793.8638     21170.63     502056.8    1003.8393   -7498.2435    9.4668125 
  298000    3884.1381    21061.504    519463.35    1027.7255   -7480.0778     9.515863 
  299000    3711.5078    21199.866    495867.29    982.04832   -7510.2043    9.4537573 
  300000    3750.9868    21178.232    505059.84     992.4943   -7481.1212    9.4634145 
Loop time of 107.263 on 8 procs for 50000 steps with 2048 atoms

Performance: 40.275 ns/day, 0.596 hours/ns, 466.143 timesteps/s
125.8% CPU use with 4 MPI tasks x 2 OpenMP threads

MPI task timing breakdown:
Section |  min time  |  avg time  |  max time  |%varavg| %total
---------------------------------------------------------------
Pair    | 63.937     | 64.849     | 65.775     |   8.5 | 60.46
Neigh   | 1.1978     | 1.2253     | 1.2408     |   1.5 |  1.14
Comm    | 4.841      | 5.7974     | 6.7226     |  29.0 |  5.40
Output  | 0.0010812  | 0.0013949  | 0.0015053  |   0.5 |  0.00
Modify  | 35.148     | 35.182     | 35.201     |   0.3 | 32.80
Other   |            | 0.2081     |            |       |  0.19

Nlocal:        512.000 ave         522 max         501 min
Histogram: 1 0 0 0 1 0 1 0 0 1
Nghost:        2987.25 ave        2997 max        2974 min
Histogram: 1 0 0 0 0 1 0 1 0 1
Neighs:        45081.8 ave       46303 max       42327 min
Histogram: 1 0 0 0 0 0 0 0 1 2

Total # of neighbors = 180327
Ave neighs/atom = 88.050293
Neighbor list builds = 1235
Dangerous builds = 0

unfix temp
unfix out_file_1


write_data after_${sim}_press_$P_$T.in
write_data after_heating_press_$P_$T.in
write_data after_heating_press_500000_$T.in
write_data after_heating_press_500000_3800.in
System init for write_data ...
Last active /omp style is pair_style eam/alloy/omp
write_restart after_${sim}_press_$P_$T.lmp
write_restart after_heating_press_$P_$T.lmp
write_restart after_heating_press_500000_$T.lmp
write_restart after_heating_press_500000_3800.lmp
System init for write_restart ...
Last active /omp style is pair_style eam/alloy/omp

next loopVar  #<----->
jump in.lmp ensemble

print """
Label pachadi solti, hos garam.
"""

Label pachadi solti, hos garam.

variable T equal 3300+${loopVar}*100  #<----->
variable T equal 3300+6*100  
# variable T equal 1850


reset_timestep 0
fix 1 all npt temp $T $T $(dt*100) iso $P $P $(dt*1000)
fix 1 all npt temp 3900 $T $(dt*100) iso $P $P $(dt*1000)
fix 1 all npt temp 3900 3900 $(dt*100) iso $P $P $(dt*1000)
fix 1 all npt temp 3900 3900 0.10000000000000000555 iso $P $P $(dt*1000)
fix 1 all npt temp 3900 3900 0.10000000000000000555 iso 500000 $P $(dt*1000)
fix 1 all npt temp 3900 3900 0.10000000000000000555 iso 500000 500000 $(dt*1000)
fix 1 all npt temp 3900 3900 0.10000000000000000555 iso 500000 500000 1
print """
<--------------------------------------------------------------------->
<------------------ Equilibrating at temperature $T ----------------->
<--------------------------------------------------------------------->
"""

<--------------------------------------------------------------------->
<------------------ Equilibrating at temperature 3900 ----------------->
<--------------------------------------------------------------------->

fix temp all print 1000 "$(step) $(temp) $(press) ${sys_press} $(vol) $(ke) $(pe) $(density)" file temp_${sim}.txt screen no title  "step temp press pressGiga vol ke pe density"
fix temp all print 1000 "$(step) $(temp) $(press) ${sys_press} $(vol) $(ke) $(pe) $(density)" file temp_heating.txt screen no title  "step temp press pressGiga vol ke pe density"
run 250000
Last active /omp style is pair_style eam/alloy/omp
Per MPI rank memory allocation (min/avg/max) = 4.354 | 4.354 | 4.354 Mbytes
Step Temp Volume Press KinEng PotEng Density 
       0    3750.9868    21178.232    505059.84     992.4943   -7481.1212    9.4634145 
    1000    3983.4735    21270.371    495462.72    1054.0092   -7497.6069     9.422421 
    2000    3782.2762    21127.276    512444.45    1000.7733   -7473.3305    9.4862388 
    3000    3955.8795    21262.968    500726.45     1046.708   -7470.5032    9.4257013 
    4000    3962.2108      21266.4    492975.61    1048.3832   -7509.9338    9.4241802 
    5000    3793.2176     21278.85    497543.38    1003.6684   -7473.8622    9.4186665 
    6000    3971.7926    21117.753    513318.71    1050.9185    -7488.873    9.4905166 
    7000    3996.7052    21221.695    505292.87    1057.5103   -7470.4652     9.444033 
    8000     3792.192    21299.425    490255.33     1003.397   -7497.3234     9.409568 
    9000    3908.5288    21117.176    513990.15    1034.1792   -7475.4398    9.4907762 
   10000    3932.4203    21271.676     494473.4    1040.5008   -7490.7536    9.4218428 
   11000    3838.6822    21206.775    505863.83    1015.6981   -7470.4216    9.4506774 
   12000    4026.3521    21194.921    510750.59    1065.3547   -7454.2465     9.455963 
   13000     3921.098    21269.352    492792.35    1037.5049   -7505.5728    9.4228723 
   14000    3766.3608     21240.36    500665.89    996.56218   -7468.0138    9.4357341 
   15000     3903.712    21285.011    499163.45    1032.9047   -7465.9303    9.4159401 
   16000    3684.3542    21280.707    494705.01    974.86361   -7476.4182    9.4178444 
   17000    3972.9291    21205.659    504256.45    1051.2192   -7486.7687    9.4511746 
   18000    3920.4163    21168.782    512198.65    1037.3246   -7459.1064    9.4676388 
   19000    3809.8842    21282.026    495014.26    1008.0783   -7478.4918    9.4172606 
   20000    3973.0551     21346.69    484894.77    1051.2526   -7513.7763    9.3887338 
   21000    3912.3742    21246.073    499749.72    1035.1967   -7485.4052    9.4331966 
   22000    4127.6061    21260.912    495159.67    1092.1461   -7510.0204    9.4266129 
   23000    3973.6845    21248.656    497533.51    1051.4191   -7497.4703    9.4320499 
   24000     3830.477    21268.024    498065.09    1013.5271   -7478.4729    9.4234604 
   25000    3986.8227    21215.959    510721.68    1054.8954   -7448.8155    9.4465863 
   26000    4047.9459     21251.69    504161.31    1071.0683   -7463.9441    9.4307036 
   27000    3850.9714    21278.753    490427.71    1018.9498   -7507.2073    9.4187094 
   28000    3795.8166    21268.046    496059.29     1004.356    -7486.966    9.4234509 
   29000    3837.1499    21252.635    504723.96    1015.2927   -7457.6156    9.4302841 
   30000     3858.225    21190.685    500221.26    1020.8691   -7506.1406    9.4578532 
   31000    3917.9002    21316.908    487432.46    1036.6588   -7513.7985    9.4018507 
   32000    3891.5003    21203.381    501727.02    1029.6735   -7494.6584    9.4521902 
   33000    3924.9363     21235.07    497949.66    1038.5205   -7496.6708    9.4380844 
   34000    3944.4338    21393.739    479073.44    1043.6795   -7524.6395    9.3680858 
   35000    3862.8977    21288.426    494614.73    1022.1054   -7486.2755    9.4144294 
   36000    3834.7491    21081.211    524442.81    1014.6574   -7439.3255    9.5069675 
   37000    3841.9763    21260.319    498864.49    1016.5697    -7478.889     9.426876 
   38000    3915.5515    21358.811    482245.41    1036.0374   -7513.5984    9.3834056 
   39000    3890.7487    21196.698     508993.5    1029.4747   -7464.5868      9.45517 
   40000    3891.5609    21195.976    503789.23    1029.6896   -7486.8732    9.4554924 
   41000    3871.7356    21370.586    483207.43    1024.4439   -7495.3137    9.3782352 
   42000    3869.4084    21177.701    509831.65    1023.8281   -7463.5616    9.4636518 
   43000    3946.6584     21175.28    504256.97    1044.2681   -7503.4361    9.4647339 
   44000    3870.6385    21259.426    491100.27    1024.1536   -7516.6525    9.4272718 
   45000    3926.4391    21306.555    494063.22    1038.9182   -7491.0997    9.4064193 
   46000    3897.3282    21111.118    510159.06    1031.2156   -7495.4237    9.4934996 
   47000    3952.0742    21161.427     513755.5    1045.7011   -7459.1047    9.4709298 
   48000    3937.8164    21288.102    494992.96    1041.9286   -7487.7964    9.4145729 
   49000    3921.6826    21346.954    485768.04    1037.6596   -7507.5462    9.3886174 
   50000    3856.4957    21242.098    494318.55    1020.4115   -7515.8639    9.4349621 
   51000    4038.7799    21186.708     510073.5     1068.643   -7469.6881    9.4596284 
   52000    3893.9858    21169.235     508266.3    1030.3312   -7469.7201    9.4674363 
   53000    3811.8973    21228.588    499211.61    1008.6109   -7491.0455    9.4409662 
   54000     3865.912    21247.575    500800.66     1022.903    -7470.861      9.43253 
   55000    3891.2504    21173.942    513377.83    1029.6074   -7448.1502    9.4653317 
   56000    3851.3797    21240.931    498361.42    1019.0578   -7488.3162    9.4354803 
   57000    3991.2137    21270.193    498972.79    1056.0573   -7481.6326    9.4224997 
   58000    3909.8389    21275.059    494831.26    1034.5259   -7496.1798    9.4203446 
   59000    3910.9272    21294.494    488104.49    1034.8138    -7521.022    9.4117467 
   60000    3946.5743    21183.188    507926.11    1044.2459   -7474.7057    9.4612004 
   61000     3871.178    21210.165    510719.46    1024.2964   -7441.6985    9.4491668 
   62000    4005.6873     21328.72    490640.64    1059.8869   -7495.9639    9.3966439 
   63000    3981.9553    21265.117    498022.41    1053.6075   -7485.5443    9.4247489 
   64000    3986.8344    21152.684    511669.83    1054.8985   -7481.8246    9.4748442 
   65000    3788.5791    21417.904    477797.94     1002.441    -7494.731    9.3575162 
   66000    3979.6148    21293.688     487646.7    1052.9882   -7523.6941    9.4121032 
   67000    4029.9676    21180.694     510385.5    1066.3114   -7469.5434    9.4623146 
   68000    3957.7987    21319.189    492216.35    1047.2158   -7484.9629    9.4008448 
   69000    3816.6082    21221.532    499260.87    1009.8574   -7491.4083    9.4441056 
   70000    3959.4008    21295.035    490953.75    1047.6397   -7500.0633    9.4115078 
   71000    3940.3999    21190.363    516150.56    1042.6122    -7430.906    9.4579968 
   72000    4004.0959     21281.35    486148.07    1059.4658   -7539.2583    9.4175596 
   73000    3819.6601    21333.768    487468.41    1010.6649   -7492.2075    9.3944207 
   74000    3918.4948    21182.736    510539.77    1036.8161   -7463.2954    9.4614022 
   75000    3978.0514    21362.752     487148.6    1052.5746   -7495.0403    9.3816744 
   76000    3945.5738    21333.595    491356.87    1043.9811   -7481.2962    9.3944965 
   77000    3936.1953    21231.086    497423.89    1041.4996   -7502.7737    9.4398557 
   78000    3829.8484    21148.438    511010.93    1013.3607   -7467.6667    9.4767465 
   79000    3703.9641    21148.994    507362.68    980.05231   -7480.4017    9.4764975 
   80000    3859.7852    21321.535    490989.53    1021.2819   -7493.9358    9.3998103 
   81000    3858.7834    21269.182    492847.12    1021.0168   -7509.0411    9.4229476 
   82000     3905.524     21176.95    508376.26    1033.3841   -7472.7102    9.4639875 
   83000    3952.5242    21267.957    496675.39    1045.8202   -7487.3451    9.4234902 
   84000    3808.8696    21197.403    504727.84    1007.8098     -7478.85    9.4548557 
   85000    3884.6949    21120.354    518512.26    1027.8728   -7450.5233     9.489348 
   86000    3933.3052    21215.007    503924.58    1040.7349   -7476.7383      9.44701 
   87000    3897.5007        21336    485054.44    1031.2612   -7509.0898    9.3934375 
   88000    3903.8606    21264.035       493639     1032.944   -7502.5931    9.4252285 
   89000    4073.3575    21222.304    504014.57    1077.7921   -7481.0894    9.4437619 
   90000    3954.9168    21293.188    497828.78    1046.4533   -7471.6365    9.4123241 
   91000    3854.4087    21213.908    498749.67    1019.8593   -7502.7532    9.4474996 
   92000    3872.4224    21217.464    499662.14    1024.6256   -7494.3768    9.4459163 
   93000    3883.6304     21392.87    485393.37    1027.5912   -7480.7335    9.3684667 
   94000    3954.1801    21231.883    502722.42    1046.2583    -7483.742    9.4395013 
   95000    3971.0259    21216.057    507469.79    1050.7157   -7469.2609    9.4465427 
   96000    3846.1664    21305.136     489239.4    1017.6784   -7500.7203    9.4070456 
   97000    3869.3141    21288.172    493619.37    1023.8032   -7484.5247    9.4145419 
   98000    3886.6203    21286.806    502435.76    1028.3823   -7445.6204    9.4151461 
   99000    3902.7022    21240.072    501493.73    1032.6375    -7478.332     9.435862 
  100000    3916.1094    21283.858    496872.71     1036.185   -7476.2286    9.4164501 
  101000    3887.7272    21199.151    511666.39    1028.6752    -7453.616     9.454076 
  102000    3926.8748    21380.794    483394.62    1039.0335   -7494.9176    9.3737577 
  103000    3899.7907    21284.643    489705.01    1031.8671   -7518.9898    9.4161027 
  104000    3895.7877    21305.351    492042.03     1030.808    -7493.772    9.4069508 
  105000    4069.9416    21223.093    502520.46    1076.8883   -7492.3651     9.443411 
  106000    3904.7961    21311.918    490751.65    1033.1915   -7494.2406    9.4040519 
  107000    3791.4805    21265.525    497455.26    1003.2087   -7483.4593    9.4245679 
  108000     4022.987    21219.619    503932.13    1064.4643     -7477.55    9.4449567 
  109000    4032.2512    21264.079       493729    1066.9156   -7504.0368    9.4252089 
  110000    3768.2699    21295.242    492047.14    997.06732   -7494.5438    9.4114163 
  111000    3973.2111    21250.275    500888.02    1051.2938   -7483.3159    9.4313316 
  112000    3976.0606    21234.604    501670.54    1052.0478   -7480.0573    9.4382918 
  113000    3855.1667    21181.241     503381.2    1020.0598   -7497.0017    9.4620701 
  114000    3857.4908    21319.942    492575.64    1020.6748   -7477.1304    9.4005128 
  115000    3881.5518    21210.268    501991.86    1027.0412   -7481.9411    9.4491207 
  116000    3986.0392    21254.693    499608.83    1054.6881   -7482.3327     9.429371 
  117000    3911.0454     21185.81    503812.42    1034.8451   -7495.4669    9.4600296 
  118000    3926.1772    21240.606    490019.35    1038.8489   -7535.6394    9.4356249 
  119000     3672.733    21159.012    505979.81    971.78868   -7477.9544    9.4720108 
  120000    4039.8841    21187.912    508437.31    1068.9352   -7472.8924    9.4590908 
  121000    3827.7793    21329.902    496931.78    1012.8133   -7446.0608    9.3961232 
  122000    3932.8089    21256.833    495717.07    1040.6036   -7497.9652    9.4284219 
  123000     3890.512    21250.882    497300.93     1029.412   -7494.2719    9.4310622 
  124000    3968.0891     21259.33    500261.89    1049.9386   -7478.9189    9.4273145 
  125000    3847.5986    21211.203    509571.13    1018.0574   -7452.4812    9.4487044 
  126000    3899.6312    21290.801    496112.83    1031.8249   -7476.8845    9.4133792 
  127000    3796.1926    21204.596    507006.63    1004.4555   -7455.5421    9.4516484 
  128000    4025.3281    21230.188    491062.36    1065.0838   -7545.6117     9.440255 
  129000    3865.4684    21253.589       496100    1022.7856    -7494.844     9.429861 
  130000    3858.1274    21202.498    509648.87    1020.8432   -7444.9659    9.4525835 
  131000    3896.4554    21118.739    516406.84    1030.9846   -7461.7165    9.4900737 
  132000    3841.9995    21400.775    477015.23    1016.5758   -7513.2928    9.3650059 
  133000    3798.7515    21258.333     498805.3    1005.1326   -7476.4597    9.4277567 
  134000    3864.0543    21129.873    515387.78    1022.4115    -7460.809     9.485073 
  135000     3848.617    21263.148     502242.1    1018.3268   -7452.2146    9.4256214 
  136000    3911.2388    21376.542    479734.06    1034.8963   -7514.8018    9.3756222 
  137000    3860.9681    21277.574    501121.95    1021.5948   -7460.2919    9.4192312 
  138000    3888.2505    21185.377    509290.08    1028.8136   -7471.4648     9.460223 
  139000    3987.8508     21247.52    499841.36    1055.1674   -7486.7401    9.4325544 
  140000    3806.2893    21184.985    504950.48    1007.1271   -7480.5982    9.4603979 
  141000    3924.8137    21281.908    494539.92    1038.4881   -7495.2454    9.4173129 
  142000    3984.4344    21281.127    499603.28    1054.2635   -7471.2381    9.4176583 
  143000    3881.5808    21216.778    501299.45    1027.0489   -7490.0519    9.4462214 
  144000    3923.9679    21290.858    498615.79    1038.2643   -7470.0691    9.4133539 
  145000     3915.129    21091.032    516763.84    1035.9256   -7475.8649    9.5025406 
  146000    3983.8253    21166.487     506619.9    1054.1023   -7495.4718    9.4686657 
  147000    3805.0756    21277.262    492570.68    1006.8059   -7492.2616    9.4193694 
  148000    3886.9363    21192.795    501700.68    1028.4659   -7497.0117    9.4569113 
  149000    3892.6772    21316.808    491997.48    1029.9849   -7476.0407    9.4018947 
  150000    3913.3473    21296.814    492647.23    1035.4542   -7501.4844    9.4107215 
  151000    3832.3012    21219.085     502188.8    1014.0097   -7477.8194    9.4451945 
  152000    3773.1567    21170.047    504638.28    998.36034   -7483.7609    9.4670734 
  153000    3966.9673    21220.313    505507.67    1049.6418   -7467.4773    9.4446479 
  154000    3942.5097    21147.342    518018.74    1043.1704   -7444.2205    9.4772378 
  155000    3862.1128    21321.079    483239.76    1021.8977   -7524.9741    9.4000115 
  156000    3858.0676    21261.247    492442.84    1020.8274   -7502.9574    9.4264642 
