LAMMPS (29 Oct 2020)
OMP_NUM_THREADS environment is not set. Defaulting to 1 thread. (src/comm.cpp:94)
  using 1 OpenMP thread(s) per MPI task
package omp 0
using multi-threaded neighbor list subroutines
package omp 2
set 2 OpenMP thread(s) per MPI task
using multi-threaded neighbor list subroutines
units metal  #<----->
dimension 3
boundary p p p

lattice fcc 3.5440
Lattice spacing in x,y,z = 3.5440000 3.5440000 3.5440000
region box block 0 8 0 8 0 8 units lattice
create_box 1 box
Created orthogonal box = (0.0000000 0.0000000 0.0000000) to (28.352000 28.352000 28.352000)
  1 by 2 by 2 MPI processor grid
create_atoms 1 box
Created 2048 atoms
  create_atoms CPU = 0.001 seconds

# # read_restart after_heating_press_300000_3600.lmp  #<----->
# read_restart after_cooling_press_300000_1850.lmp

variable P equal 500000
variable dt equal 0.001
variable loopVar loop 6
variable sys_press equal "press/10000"

variable sim string "heating"  #<----->
# variable sim string "cooling"



pair_style eam/alloy
pair_coeff * * Co_Zhou04.eam.alloy Co
Reading eam/alloy potential file Co_Zhou04.eam.alloy with DATE: 2018-03-30




neighbor 2 bin
neigh_modify every 10 check yes

thermo 1000
thermo_style custom step temp vol press ke pe density

timestep $(dt)
timestep 0.0010000000000000000208



velocity all create 3800 123123 #<----->

print """
yo aagadi
"""

yo aagadi

label ensemble

print """
Label pachadi solti, hos garam.
"""

Label pachadi solti, hos garam.

variable T equal 3700+${loopVar}*100  #<----->
variable T equal 3700+1*100  
# variable T equal 1850


reset_timestep 0
fix 1 all npt temp $T $T $(dt*100) iso $P $P $(dt*1000)
fix 1 all npt temp 3800 $T $(dt*100) iso $P $P $(dt*1000)
fix 1 all npt temp 3800 3800 $(dt*100) iso $P $P $(dt*1000)
fix 1 all npt temp 3800 3800 0.10000000000000000555 iso $P $P $(dt*1000)
fix 1 all npt temp 3800 3800 0.10000000000000000555 iso 500000 $P $(dt*1000)
fix 1 all npt temp 3800 3800 0.10000000000000000555 iso 500000 500000 $(dt*1000)
fix 1 all npt temp 3800 3800 0.10000000000000000555 iso 500000 500000 1
print """
<--------------------------------------------------------------------->
<------------------ Equilibrating at temperature $T ----------------->
<--------------------------------------------------------------------->
"""

<--------------------------------------------------------------------->
<------------------ Equilibrating at temperature 3800 ----------------->
<--------------------------------------------------------------------->

fix temp all print 1000 "$(step) $(temp) $(press) ${sys_press} $(vol) $(ke) $(pe) $(density)" file temp_${sim}.txt screen no title  "step temp press pressGiga vol ke pe density"
fix temp all print 1000 "$(step) $(temp) $(press) ${sys_press} $(vol) $(ke) $(pe) $(density)" file temp_heating.txt screen no title  "step temp press pressGiga vol ke pe density"
run 250000
Last active /omp style is pair_style eam/alloy/omp
Neighbor list info ...
  update every 10 steps, delay 10 steps, check yes
  max neighbors/atom: 2000, page size: 100000
  master list distance cutoff = 7.6035394
  ghost atom cutoff = 7.6035394
  binsize = 3.8017697, bins = 8 8 8
  1 neighbor lists, perpetual/occasional/extra = 1 0 0
  (1) pair eam/alloy/omp, perpetual
      attributes: half, newton on, omp
      pair build: half/bin/atomonly/newton/omp
      stencil: half/bin/3d/newton
      bin: standard
Per MPI rank memory allocation (min/avg/max) = 4.354 | 4.354 | 4.354 Mbytes
Step Temp Volume Press KinEng PotEng Density 
       0         3800    22790.356    54803.331     1005.463    -9015.757        8.794 
    1000    3703.5503    20687.413    493839.89    979.94281   -7797.5698    9.6879384 
    2000    3755.8433    20611.134    503762.41     993.7793   -7794.1877    9.7237923 
    3000    3813.0861    20638.748    499532.43    1008.9255   -7805.0427     9.710782 
    4000    3781.4036    20690.173    497786.62    1000.5424   -7781.4665    9.6866463 
    5000    3770.3007     20659.47    497227.57    997.60467   -7800.7216    9.7010419 
    6000    3820.3938    20745.869    492493.57    1010.8591   -7779.3003    9.6606406 
    7000    3759.1052    20582.059    512071.11    994.64239   -7771.5776    9.7375287 
    8000    3733.6957    20632.166    500014.53    987.91914   -7796.1482    9.7138801 
    9000    3872.3466    20733.748    493875.55    1024.6055   -7786.2904    9.6662884 
   10000    3798.9674    20597.548    507131.11    1005.1897   -7787.0587    9.7302059 
   11000    3762.5793     20713.33    487864.03    995.56163   -7818.8824    9.6758167 
   12000    3825.0115    20662.656    493911.76    1012.0809   -7822.9376    9.6995464 
   13000     3878.437    20658.506     500379.2     1026.217   -7791.5953    9.7014946 
   14000    3851.4724    20608.343    506260.31    1019.0823   -7795.8654     9.725109 
   15000    3771.1589      20787.9    477054.25    997.83174   -7829.0519    9.6411077 
   16000    3706.6039    20696.874    492557.64    980.75079   -7798.6926    9.6835102 
   17000    3809.7895    20577.803    506358.43    1008.0532   -7803.8228    9.7395425 
   18000    3812.1778    20685.678    500554.74    1008.6852   -7769.8588    9.6887514 
   19000    3740.2927    20623.022    502110.66    989.66467   -7796.9898     9.718187 
   20000    3786.8157      20693.2    495706.58    1001.9744   -7792.0048    9.6852293 
   21000    3771.2162    20543.621    510121.45    997.84689    -7805.319    9.7557478 
   22000    3767.1658     20586.72    508782.43    996.77517    -7784.409    9.7353237 
   23000    3698.7932    20749.109    483869.83    978.68411    -7813.542    9.6591322 
   24000     3868.323    20522.366    510564.47    1023.5409    -7821.427    9.7658519 
   25000    3760.9375     20621.83    502881.85     995.1272   -7794.2618    9.7187487 
   26000    3789.1446    20600.221    501750.51    1002.5907   -7813.5629    9.7289437 
   27000    3826.4913    20702.022    497666.52    1012.4724   -7778.1656     9.681102 
   28000    3765.6791    20690.421    485112.94    996.38182   -7847.0369    9.6865302 
   29000    3758.9615    20628.639    510747.51    994.60435   -7749.5415    9.7155411 
   30000    3815.7726    20587.242    504777.29    1009.6363   -7807.0828    9.7350772 
   31000     3762.257    20617.257    500592.93    995.47634   -7811.1722    9.7209046 
   32000    3746.8467    20747.274     487232.3    991.39884    -7802.925    9.6599866 
   33000    3801.7553     20618.86    507979.52    1005.9274   -7772.0789    9.7201488 
   34000    3806.9338     20627.99    505485.28    1007.2976   -7783.0796    9.7158466 
   35000    3809.6375    20644.009    501462.09     1008.013   -7790.9766    9.7083073 
   36000    3736.1532    20757.406    490681.63    988.56938   -7770.7752    9.6552711 
   37000    3748.1244    20697.585    501971.81     991.7369   -7749.6575    9.6831776 
   38000    3783.5885    20604.183    515343.58    1001.1206   -7747.0156    9.7270729 
   39000    3741.4725    20778.171    485011.11    989.97684   -7791.1816    9.6456222 
   40000    3790.6018    20721.149    499824.06    1002.9762   -7755.5308    9.6721658 
   41000    3655.9037    20531.208    523802.35    967.33572   -7730.0036     9.761646 
   42000    3869.8719    20697.676    489726.43    1023.9508   -7822.0722    9.6831347 
   43000    3760.1856    20644.945    502197.66    994.92824   -7789.4012    9.7078671 
   44000    3757.5157     20761.61    492119.35     994.2218   -7770.8243    9.6533164 
   45000    3819.1161     20631.94    506706.15     1010.521   -7772.8296    9.7139864 
   46000     3692.139    20764.443       478512    976.92343   -7830.1371     9.651999 
   47000    3748.1975    20679.835     497282.1    991.75626   -7787.5065    9.6914888 
   48000    3900.9089    20603.064    516829.84     1032.163   -7741.0574    9.7276012 
   49000    3730.8334    20677.697    496703.36    987.16179   -7791.6566    9.6924909 
   50000    3669.8603    20747.736    491259.65    971.02857   -7779.7889    9.6597715 
   51000    3841.8212    20631.958    506680.12    1016.5287   -7778.7134    9.7139778 
   52000    3826.0317    20629.112    500682.85    1012.3508   -7804.6017    9.7153182 
   53000    3871.0277    20669.667    491963.95    1024.2566   -7829.5025     9.696256 
   54000    3901.5895    20764.111    478168.92    1032.3431   -7846.4289    9.6521534 
   55000    3801.3564    20553.827    519763.06    1005.8219   -7747.8849    9.7509037 
   56000    3854.6506    20674.478    496742.72    1019.9233   -7802.9482    9.6939997 
   57000     3827.508     20756.86    490014.94    1012.7415    -7787.694    9.6555251 
   58000    3840.1403    20676.568    504780.43    1016.0839   -7760.3398    9.6930199 
   59000    3865.5487    20725.561     487545.6    1022.8069   -7823.4186    9.6701067 
   60000    3694.8977    20654.595    498194.02    977.65337   -7793.4663    9.7033316 
   61000    3900.3315    20647.839    496041.42    1032.0102   -7824.3664    9.7065069 
   62000     3777.526    20610.057    505746.34    999.51644    -7784.517    9.7243004 
   63000    3729.6567    20682.924    502448.15    986.85044   -7754.2068     9.690041 
   64000    3717.4584    20634.196     503412.3    983.62284   -7781.2435    9.7129243 
   65000    3827.6306    20608.604    513989.48    1012.7739   -7754.5667    9.7249862 
   66000     3739.386    20632.736    498161.62    989.42478   -7811.6184    9.7136116 
   67000     3784.731    20625.091    497826.92    1001.4229   -7820.8666    9.7172123 
   68000    3936.6922    20660.481    497786.97    1041.6311   -7807.9728    9.7005671 
   69000     3700.235    20751.627    488609.84     979.0656   -7793.4008    9.6579602 
   70000    3843.5346      20636.6    509725.34     1016.982   -7754.1961    9.7117931 
   71000    3774.4495    20683.166    502582.03    998.70241   -7757.3763    9.6899278 
   72000    3787.4007    20719.744    498258.96    1002.1292   -7766.1222    9.6728215 
   73000    3720.0619    20627.191    506072.38     984.3117   -7772.3719    9.7162227 
   74000    3722.9567    20633.469    504157.47    985.07764   -7776.9596    9.7132668 
   75000    3775.8373    20749.607    494255.98    999.06961   -7766.5411    9.6589006 
   76000    3887.2774    20696.976     506821.6    1028.5562   -7740.5532    9.6834624 
   77000    3731.4543    20731.982    498699.44    987.32608   -7748.5027    9.6671116 
   78000    3709.4793    20750.319    492585.02    981.51159    -7768.379     9.658569 
   79000    3802.2949    20711.163     498301.5    1006.0702   -7770.7223     9.676829 
   80000    3782.4458    20744.795    504583.81    1000.8182   -7716.9686    9.6611409 
   81000    3816.4265    20901.432    501307.68    1009.8093   -7648.2802    9.5887393 
   82000    3719.6963    21113.439    499014.86    984.21498   -7545.3612    9.4924556 
   83000    3934.4581    21170.558    498188.85      1041.04   -7534.3482    9.4668446 
   84000    3869.7564    21203.376    495139.31    1023.9202   -7521.6082    9.4521921 
   85000    3741.2591    21207.034    492781.39    989.92039   -7524.4251    9.4505617 
   86000    3757.9484    21150.122    505594.88     994.3363   -7496.6808     9.475992 
   87000    3880.2813    21197.003    502491.31     1026.705   -7489.9299    9.4550342 
   88000    3868.4761    21312.022    481132.15    1023.5814   -7537.6499    9.4040064 
   89000    3838.8511    21120.762     518227.2    1015.7428   -7448.7487    9.4891645 
   90000    3862.6675    21205.689     499984.8    1022.0445   -7498.8199    9.4511611 
   91000    3722.8642    21238.714    489521.46    985.05318   -7532.9767    9.4364651 
   92000    3770.4896    21180.033    497841.78    997.65464   -7513.1517    9.4626096 
   93000    3841.1065    21171.903    505165.98    1016.3396    -7489.074    9.4662434 
   94000     3683.795     21122.45    507930.41    974.71563   -7489.7993    9.4884064 
   95000    3832.1058    21192.578     496938.6     1013.958   -7519.7716    9.4570085 
   96000    3822.3871    21169.923    504943.43    1011.3865   -7491.5981    9.4671286 
   97000    3945.2658    21268.133    489279.65    1043.8996   -7528.2912    9.4234122 
   98000    3780.5785    21175.965       499446    1000.3241   -7512.3972    9.4644277 
   99000    3828.2651    21108.389    512904.14    1012.9418   -7481.4966    9.4947269 
  100000    3677.7256    21082.275    515035.42    973.10969   -7473.2168    9.5064878 
  101000    3779.4667    21184.386    501434.23    1000.0299   -7500.2728    9.4606654 
  102000    3797.6362    21131.838    504751.87    1004.8375   -7509.8114    9.4841909 
  103000    3898.2065    21259.329    495646.57     1031.448   -7491.1501    9.4273146 
  104000    3841.9422    21337.826    479208.08    1016.5607   -7536.6611     9.392634 
  105000    3818.6475    21105.096     519755.7     1010.397   -7452.1327    9.4962081 
  106000    3814.7149    21217.708    492710.68    1009.3565   -7525.8363    9.4458074 
  107000    3710.7516    21245.524    487983.12    981.84822   -7527.6247    9.4334405 
  108000    3818.8016    21105.795    521341.12    1010.4378   -7440.5458    9.4958939 
  109000    3732.4334    21183.745    501016.78    987.58514   -7498.0414    9.4609518 
  110000    3868.1252     21278.12     490791.5    1023.4886   -7509.5307    9.4189896 
  111000    3738.2418    21125.674    507371.42    989.12203   -7499.3721    9.4869581 
  112000    3664.3942     21147.91    512078.94    969.58227   -7451.7465     9.476983 
  113000    3689.3708    21240.265    495840.41    976.19096   -7490.2491    9.4357764 
  114000     3786.237    21040.506    517512.07    1001.8213   -7487.6699    9.5253598 
  115000    3885.0638    21164.694    507252.06    1027.9705   -7479.0213    9.4694675 
  116000    3842.4858    21295.868     485876.7    1016.7045   -7527.5631    9.4111394 
  117000    3775.2876    21198.117    491258.86    998.92418   -7540.4937    9.4545373 
  118000    3844.5916    21231.253    495662.35    1017.2617   -7504.9434    9.4397816 
  119000     3698.961    21196.387    498895.18     978.7285   -7498.8321    9.4553091 
  120000    3788.9051    21183.568    500700.59    1002.5273   -7502.0483    9.4610307 
  121000    3743.3075    21194.188    504250.97    990.46239   -7476.3588    9.4562901 
  122000    3697.7824    21085.718    508367.98    978.41664    -7515.334    9.5049355 
  123000    3791.2882    21260.879     491709.4    1003.1579   -7504.2728    9.4266274 
  124000    3704.9952    21220.525    497291.48    980.32513   -7491.2361    9.4445538 
  125000    3886.0823    21223.205     501189.5      1028.24   -7488.2182    9.4433609 
  126000     3813.274    21160.096    501539.61    1008.9752    -7509.208    9.4715256 
  127000    3819.4725    21235.335    494812.14    1010.6153   -7509.3625    9.4379667 
  128000    3867.3405    21157.351    505447.92     1023.281   -7495.4202    9.4727543 
  129000    3794.2783     21210.04    499936.48     1003.949   -7489.9148    9.4492224 
  130000    4011.1615    21244.127     492239.3    1061.3354   -7530.8046    9.4340607 
  131000    3710.4032    21232.092    490791.84    981.75605   -7521.6624    9.4394084 
  132000    3773.9198    21167.976    503127.85    998.56225   -7498.1488    9.4679997 
  133000    3970.3644    21135.055    509370.58    1050.5406   -7496.5329    9.4827475 
  134000    3806.2456    21192.894    498144.36    1007.1155   -7508.0788    9.4568671 
  135000    3901.6908     21292.96    485481.61    1032.3699   -7531.1876    9.4124247 
  136000    3756.9964    21171.827     503838.4    994.08441   -7493.5074    9.4662773 
  137000    3845.0421    21178.372    505319.51    1017.3809   -7482.8642    9.4633518 
  138000    3758.1261    21257.773    488973.72    994.38332   -7525.9892    9.4280047 
  139000    3723.1237    21120.766    506274.22    985.12185   -7505.6636    9.4891629 
  140000    3865.7568    21143.428    506893.32    1022.8619   -7497.5326    9.4789923 
  141000    3814.5658    21186.127    497829.74     1009.317   -7522.5896    9.4598881 
  142000    3689.0863     21297.83    479754.55    976.11569   -7543.2746    9.4102726 
  143000      3869.12    21144.686    504492.89    1023.7518   -7507.3114    9.4784282 
  144000    3863.0248    21104.803    509630.62     1022.139   -7506.4507    9.4963399 
  145000    3782.2763    21293.527    488935.15    1000.7733    -7508.877    9.4121743 
  146000    3749.3587    21128.588    501235.65     992.0635   -7522.1263    9.4856499 
  147000    3839.7008    21117.306    513620.81    1015.9676   -7477.6291    9.4907177 
  148000    3831.0752    21182.399    499851.18    1013.6853   -7511.1701    9.4615528 
  149000    3888.7158    21298.201    494940.08    1028.9368   -7478.8879    9.4101087 
  150000    3783.2951    21166.166    505388.36    1001.0429   -7489.3306     9.468809 
  151000    3952.3232    21030.918    513553.37     1045.767   -7526.0545    9.5297021 
  152000    3837.0395    21275.491     489450.8    1015.2635   -7516.9746    9.4201533 
  153000    3789.0285    21217.742    494614.07      1002.56   -7512.7747    9.4457926 
  154000    3831.5267    21111.075    504819.25    1013.8048   -7519.8952    9.4935189 
  155000    3834.1347    21145.586    511102.88    1014.4949   -7476.1567    9.4780245 
  156000    3794.1722     21166.51    502010.96    1003.9209   -7505.6221    9.4686551 
  157000    3797.2221    21284.848    491527.72    1004.7279   -7492.4281    9.4160122 
  158000    3878.5357    21139.406     503906.9    1026.2432   -7513.1832    9.4807956 
  159000    3661.5097    21236.983    503220.85    968.81904   -7455.3293    9.4372344 
  160000    3799.5936    21138.532    501451.25    1005.3554   -7518.2723    9.4811876 
  161000    3860.7669    21190.763    500738.96    1021.5416   -7496.0022    9.4578182 
  162000    3735.7222    21201.982    494022.68    988.45535   -7519.4868    9.4528138 
  163000    3836.7126    21213.385    497865.65     1015.177   -7498.8201    9.4477324 
  164000    3842.7034    21169.955    503227.28    1016.7621   -7495.7887    9.4671146 
  165000    3729.2523    21281.544    482344.27    986.74343   -7539.5886     9.417474 
  166000    3949.4122    21155.603    506930.45    1044.9968   -7495.7605    9.4735371 
  167000    3840.5252    21091.746    504426.08    1016.1857   -7531.1771    9.5022189 
  168000    3812.2526    21219.255     493440.8    1008.7049   -7519.3741     9.445119 
  169000    3757.0775    21169.317    505167.85    994.10586   -7490.3083    9.4673997 
  170000    3844.9829    21227.518    501590.43    1017.3652   -7474.6556    9.4414421 
  171000     3812.481    21238.139    498452.27    1008.7654   -7498.6939    9.4367209 
  172000    3822.6134    21282.411    489757.78    1011.4464   -7507.8529    9.4170903 
  173000    3744.3141    21106.743    515803.07    990.72873   -7466.0925    9.4954671 
  174000    3678.9407    21179.454    505599.47    973.43121   -7473.3338    9.4628685 
  175000    3684.6379    21181.252    498627.87    974.93868   -7503.0232    9.4620651 
  176000    3764.1602    21217.997    502297.17    995.97992   -7477.8823     9.445679 
  177000    3905.9405     21262.25    487318.27    1033.4943   -7536.2414    9.4260195 
  178000     3762.664    21021.159     520183.6    995.58402   -7489.9453    9.5341264 
  179000    3842.9142    21212.416    498538.15    1016.8179   -7502.8146     9.448164 
  180000     3730.611    21266.968    485933.22    987.10295   -7530.8858    9.4239284 
  181000    3799.9418     21109.56     505379.2    1005.4476   -7517.3154    9.4942001 
  182000    3875.2008    21214.758    494898.94    1025.3608   -7521.7157    9.4471209 
  183000    3870.8097    21197.028    499974.65    1024.1989   -7496.5482    9.4550228 
  184000     3931.344    21212.539    498211.22     1040.216   -7507.4079    9.4481093 
  185000    3783.2684    21090.639    513622.41    1001.0359   -7490.0028    9.5027174 
  186000    3739.4041    21298.922    491642.05    989.42956   -7489.5328    9.4097901 
  187000    3766.1718    21183.356    500631.51    996.51217   -7501.7683    9.4611253 
  188000    3745.4908     21014.76    523981.46    991.04007   -7468.3809    9.5370296 
  189000    3867.6486    21253.949    491567.29    1023.3625   -7518.0943    9.4297009 
  190000    3793.5737    21163.053    498195.52    1003.7626   -7528.2867    9.4702018 
  191000     3890.084    21069.043    514180.32    1029.2988   -7506.0753    9.5124579 
  192000    3970.2339    21213.127    499417.39    1050.5061   -7504.4724    9.4478474 
  193000    3786.7739    21174.457    498377.78    1001.9634   -7517.8967    9.4651014 
  194000    3958.7035    21164.699    503469.92    1047.4552   -7509.9171    9.4694656 
  195000    3826.8087    21256.402    493009.51    1012.5564   -7507.2266     9.428613 
  196000    3768.8453    21180.709    503608.33    997.21958   -7488.9788    9.4623079 
  197000    3845.1329    21180.276    500872.28    1017.4049   -7510.1433     9.462501 
  198000    3853.0751     21204.68     493193.5    1019.5064   -7534.1782    9.4516109 
  199000    3928.1037    21195.797    501199.07    1039.3586    -7504.585    9.4555723 
  200000    3735.5737    21175.447    501843.79    988.41607   -7500.5154    9.4646592 
  201000    3773.2475    21244.235    487816.44    998.38438   -7531.5472    9.4340128 
  202000    3782.2851    21135.658     507788.9    1000.7757   -7482.3476     9.482477 
  203000    3775.9788    21140.622    507917.67    999.10707   -7483.2763    9.4802503 
  204000    3783.6887     21276.41    487636.59    1001.1471   -7520.1274    9.4197465 
  205000    3823.1778    21228.715    493028.51    1011.5957   -7517.1125    9.4409098 
  206000    3810.7428    21180.971    505663.56    1008.3055    -7482.123    9.4621907 
  207000    3798.8282    21212.935    497590.99    1005.1529   -7499.6154     9.447933 
  208000    3726.7602    21289.129     492897.2    986.08405   -7490.3117    9.4141189 
  209000    3796.7878    21138.913     509826.4     1004.613   -7479.1082    9.4810165 
  210000    3876.1018    21186.786    497163.06    1025.5992   -7524.5363    9.4595935 
  211000    3847.2296        21191    493355.08    1017.9597    -7538.403    9.4577123 
  212000    3849.0753    21325.879    480333.71    1018.4481   -7534.8847    9.3978956 
  213000    3936.6336    21110.886     508562.1    1041.6156    -7514.111    9.4936037 
  214000      3859.98    21127.612    507808.95    1021.3334    -7503.073     9.486088 
  215000    3682.5224    21173.562     497210.2    974.37892   -7520.2706    9.4655017 
  216000    3901.1013     21238.63    492948.77    1032.2139   -7516.4912    9.4365024 
  217000     3745.935    21172.842    507702.71    991.15762   -7472.4787    9.4658236 
  218000    3710.5892    21336.979    482861.93    981.80526   -7512.0972    9.3930067 
  219000    3836.0687    21162.548    502627.94    1015.0066   -7506.2952     9.470428 
  220000    3852.8152    21171.548    502465.81    1019.4376   -7499.0283    9.4664021 
  221000    3742.2963    21162.857    508366.51    990.19482   -7478.8234    9.4702897 
  222000    3885.6856    21178.369    503034.27     1028.135   -7503.1353    9.4633531 
  223000    3915.6726    21192.636    495619.56    1036.0694   -7533.6253    9.4569826 
  224000     3752.801    21204.271    499670.34    992.97431   -7495.5939    9.4517931 
  225000    3785.2762    21219.268    497664.36    1001.5671   -7506.1514     9.445113 
  226000    3858.0634     21053.27    522692.02    1020.8263    -7461.112    9.5195849 
  227000    3697.2992    21207.497    493058.27    978.28879   -7521.3813    9.4503556 
  228000    3749.9775    21295.193    491439.31    992.22723   -7491.8509    9.4114378 
  229000     3903.048    21244.898    494288.51     1032.729   -7508.1852    9.4337183 
  230000    3680.9777    21096.645     511760.9    973.97021   -7486.0533    9.5000122 
  231000    3879.7565    21116.712    509465.21    1026.5662   -7500.7262    9.4909847 
  232000    3698.6828    21273.029    485857.36    978.65488   -7530.5219    9.4212434 
  233000    3896.7993    21108.977    513455.88    1031.0756    -7484.264    9.4944623 
  234000     3861.672     21221.83    498978.94    1021.7811   -7497.9474    9.4439729 
  235000    3810.3611    21164.958    502170.64    1008.2045   -7511.7606    9.4693498 
  236000    3773.9354    21212.289    499077.83    998.56638   -7498.1408    9.4482207 
  237000    3808.7605    21115.338    500893.91     1007.781   -7539.6031    9.4916019 
  238000    3725.6268    21080.246    512086.99    985.78415   -7485.8758    9.5074025 
  239000    3935.4201    21186.752    501020.69    1041.2945   -7504.3087    9.4596089 
  240000    3730.2481    21258.243    493850.13    987.00692    -7494.546    9.4277964 
  241000    3661.0401    21152.385    499758.19    968.69479    -7515.354    9.4749781 
  242000    3793.7368    21139.269    504486.19    1003.8057   -7512.4955    9.4808569 
  243000    3805.4364    21173.887    502052.74    1006.9014   -7504.9384    9.4653565 
  244000    3785.6697    21092.033    510017.52    1001.6712   -7509.1491    9.5020897 
  245000    3786.0479    21283.473    484314.48    1001.7713    -7532.824    9.4166203 
  246000    3856.0026     21167.75    506014.45     1020.281   -7486.6143    9.4681008 
  247000    3771.1207    21176.531    506161.91    997.82163   -7478.1821    9.4641747 
  248000    3808.9094    21220.325    497392.78    1007.8203   -7498.7378    9.4446427 
  249000    3792.6816    21128.957    504747.05    1003.5265   -7515.3577     9.485484 
  250000    3748.8413    21193.319    499318.94    991.92659   -7502.7368    9.4566778 
Loop time of 519.07 on 8 procs for 250000 steps with 2048 atoms

Performance: 41.613 ns/day, 0.577 hours/ns, 481.630 timesteps/s
124.8% CPU use with 4 MPI tasks x 2 OpenMP threads

MPI task timing breakdown:
Section |  min time  |  avg time  |  max time  |%varavg| %total
---------------------------------------------------------------
Pair    | 309.69     | 314.88     | 318.31     |  18.6 | 60.66
Neigh   | 5.9239     | 5.9935     | 6.0614     |   2.8 |  1.15
Comm    | 22.692     | 25.981     | 31.198     |  65.3 |  5.01
Output  | 0.0060134  | 0.011789   | 0.013735   |   3.1 |  0.00
Modify  | 170.99     | 171.23     | 171.47     |   1.4 | 32.99
Other   |            | 0.9774     |            |       |  0.19

Nlocal:        512.000 ave         518 max         506 min
Histogram: 1 1 0 0 0 0 0 0 1 1
Nghost:        2983.00 ave        2997 max        2973 min
Histogram: 1 1 0 0 0 1 0 0 0 1
Neighs:        44999.0 ave       46714 max       43879 min
Histogram: 2 0 0 0 0 1 0 0 0 1

Total # of neighbors = 179996
Ave neighs/atom = 87.888672
Neighbor list builds = 6164
Dangerous builds = 0


# fix 132 all momentum 100 linear 1 1 1 angular
fix out_file_1 all print 1000 "$(step) $(temp) $(press) ${sys_press} $(vol) $(ke) $(pe) $(density)" file one_phase_${sim}_press_$P_$T_.txt screen no title  "step temp press pressGiga vol ke pe density"
fix out_file_1 all print 1000 "$(step) $(temp) $(press) ${sys_press} $(vol) $(ke) $(pe) $(density)" file one_phase_heating_press_$P_$T_.txt screen no title  "step temp press pressGiga vol ke pe density"
fix out_file_1 all print 1000 "$(step) $(temp) $(press) ${sys_press} $(vol) $(ke) $(pe) $(density)" file one_phase_heating_press_500000_$T_.txt screen no title  "step temp press pressGiga vol ke pe density"
fix out_file_1 all print 1000 "$(step) $(temp) $(press) ${sys_press} $(vol) $(ke) $(pe) $(density)" file one_phase_heating_press_500000_3800_.txt screen no title  "step temp press pressGiga vol ke pe density"

# dump 3 all custom 1000 traj_npt_new.lammpstrj id type x y z
run 50000
Last active /omp style is pair_style eam/alloy/omp
Per MPI rank memory allocation (min/avg/max) = 4.354 | 4.354 | 4.354 Mbytes
Step Temp Volume Press KinEng PotEng Density 
  250000    3748.8413    21193.319    499318.94    991.92659   -7502.7368    9.4566778 
  251000    3788.3998    21155.416    506660.68    1002.3936   -7485.1782    9.4736208 
  252000    3666.2914    21163.946    501950.28    970.08426   -7500.0571    9.4698023 
  253000    3937.3879     21223.96    495383.91    1041.8152   -7520.7129    9.4430252 
  254000    3756.7873    21060.686    522456.43    994.02907   -7451.6514    9.5162327 
  255000    3733.5776    21140.547    507251.51    987.88789   -7484.0572    9.4802838 
  256000    3831.0178    21225.381    490742.41    1013.6701   -7537.3954     9.442393 
  257000    3822.1575     21289.48    487166.55    1011.3257   -7517.7014    9.4139636 
  258000     3758.009    21177.964    498197.99    994.35234   -7512.5367    9.4635343 
  259000    3920.6281        21193    498463.53    1037.3806   -7516.0052    9.4568202 
  260000    3784.3417    21092.973    511143.71    1001.3198   -7492.8057    9.5016661 
  261000     3738.448    21340.589    476790.38    989.17658   -7540.3137    9.3914176 
  262000    3861.1292    21163.803    501669.64    1021.6375   -7512.6044    9.4698666 
  263000    3845.2068    21126.817    503951.02    1017.4245   -7517.4093     9.486445 
  264000    3779.8257    21213.268    495844.45    1000.1249   -7509.6606    9.4477847 
  265000    3762.9994    21161.694    501889.57    995.67277   -7507.4113      9.47081 
  266000    3829.5347    21145.394     515001.4    1013.2777   -7451.2103    9.4781105 
  267000    3799.0834    21143.139    503427.17    1005.2204   -7513.7439    9.4791216 
  268000      3719.64    21257.077    498535.53    984.20007   -7467.7411    9.4283136 
  269000    3841.9246    21175.571    499127.98     1016.556   -7512.7372    9.4646034 
  270000    3790.6482    21204.091    494372.31    1002.9885   -7526.6382    9.4518735 
  271000    3961.3279    21195.426    501189.01    1048.1496   -7505.9447    9.4557375 
  272000    3885.4916    21239.675    500875.99    1028.0837   -7475.6588    9.4360383 
  273000     3739.186    21251.725    488571.76    989.37186   -7529.5582    9.4306881 
  274000    3731.5821    21134.682    506683.65    987.35989   -7497.1705    9.4829148 
  275000    3811.9343    21127.347    504717.15    1008.6207   -7515.3566    9.4862071 
  276000    3927.9404    21222.184     495101.7    1039.3154   -7522.0653    9.4438153 
  277000     3763.284    21174.361     506500.1    995.74808   -7469.5229    9.4651443 
  278000    3743.6048    21242.999    494518.04    990.54106   -7497.9792    9.4345616 
  279000    3833.9651    21262.442    480540.22      1014.45   -7569.8099    9.4259344 
  280000    3764.0064     21162.86    506294.97    995.93922   -7481.8545    9.4702883 
  281000    3749.6583    21132.513    504428.87    992.14277    -7508.121    9.4838878 
  282000    3899.2727    21304.048    484949.77    1031.7301   -7530.3768    9.4075259 
  283000     3722.201    21145.172    505651.28    984.87769   -7496.8214    9.4782105 
  284000    3691.5156    21154.042    506882.86    976.75847   -7476.0138    9.4742362 
  285000    3865.7545    21304.886    487703.08    1022.8613   -7513.1982    9.4071562 
  286000    3766.0314    21173.691    505364.82    996.47501    -7488.059    9.4654441 
  287000    3853.6616     21217.43    498315.84    1019.6616   -7494.9022    9.4459314 
  288000    3711.4457    21132.501    502717.97    982.03189   -7515.5048    9.4838933 
  289000    3789.7614    21205.693    502761.77    1002.7539   -7481.7786    9.4511595 
  290000    3825.2679    21208.511    496712.64    1012.1487   -7511.1152    9.4499036 
  291000    3758.8784    21188.398    501679.41    994.58238   -7488.7269    9.4588741 
  292000    3867.8424    21269.121    493789.54    1023.4138   -7490.6338    9.4229744 
  293000    3809.5725    21215.864    492551.04    1007.9958   -7529.3064    9.4466287 
  294000    3729.3249    21093.356    517434.02    986.76264   -7461.6039    9.5014936 
  295000    3795.3522    21187.031     499997.2    1004.2332   -7501.4615    9.4594844 
  296000    3754.4379    21270.827     488912.1    993.40745   -7516.6612     9.422219 
  297000    3823.2214    21228.396    499979.36    1011.6073   -7489.7493     9.441052 
  298000    3703.4967    21175.805    502589.88    979.92863   -7486.5973     9.464499 
  299000    3691.1578    21140.828    504040.74     976.6638   -7502.6683     9.480158 
  300000     3727.995    21141.238    503949.03    986.41076   -7508.1999     9.479974 
Loop time of 107.269 on 8 procs for 50000 steps with 2048 atoms

Performance: 40.272 ns/day, 0.596 hours/ns, 466.116 timesteps/s
124.1% CPU use with 4 MPI tasks x 2 OpenMP threads

MPI task timing breakdown:
Section |  min time  |  avg time  |  max time  |%varavg| %total
---------------------------------------------------------------
Pair    | 63.839     | 64.733     | 65.568     |   8.3 | 60.35
Neigh   | 1.2363     | 1.2522     | 1.2647     |   1.1 |  1.17
Comm    | 4.5708     | 5.3732     | 6.2719     |  29.0 |  5.01
Output  | 0.0011063  | 0.0016253  | 0.001802   |   0.7 |  0.00
Modify  | 35.655     | 35.706     | 35.749     |   0.6 | 33.29
Other   |            | 0.2038     |            |       |  0.19

Nlocal:        512.000 ave         517 max         508 min
Histogram: 1 0 0 1 1 0 0 0 0 1
Nghost:        3007.00 ave        3022 max        2997 min
Histogram: 2 0 0 0 0 0 1 0 0 1
Neighs:        45155.2 ave       46028 max       44249 min
Histogram: 1 1 0 0 0 0 0 0 1 1

Total # of neighbors = 180621
Ave neighs/atom = 88.193848
Neighbor list builds = 1242
Dangerous builds = 0

unfix temp
unfix out_file_1


write_data after_${sim}_press_$P_$T.in
write_data after_heating_press_$P_$T.in
write_data after_heating_press_500000_$T.in
write_data after_heating_press_500000_3800.in
System init for write_data ...
Last active /omp style is pair_style eam/alloy/omp
write_restart after_${sim}_press_$P_$T.lmp
write_restart after_heating_press_$P_$T.lmp
write_restart after_heating_press_500000_$T.lmp
write_restart after_heating_press_500000_3800.lmp
System init for write_restart ...
Last active /omp style is pair_style eam/alloy/omp

next loopVar  #<----->
jump in.lmp ensemble

print """
Label pachadi solti, hos garam.
"""

Label pachadi solti, hos garam.

variable T equal 3700+${loopVar}*100  #<----->
variable T equal 3700+2*100  
# variable T equal 1850


reset_timestep 0
fix 1 all npt temp $T $T $(dt*100) iso $P $P $(dt*1000)
fix 1 all npt temp 3900 $T $(dt*100) iso $P $P $(dt*1000)
fix 1 all npt temp 3900 3900 $(dt*100) iso $P $P $(dt*1000)
fix 1 all npt temp 3900 3900 0.10000000000000000555 iso $P $P $(dt*1000)
fix 1 all npt temp 3900 3900 0.10000000000000000555 iso 500000 $P $(dt*1000)
fix 1 all npt temp 3900 3900 0.10000000000000000555 iso 500000 500000 $(dt*1000)
fix 1 all npt temp 3900 3900 0.10000000000000000555 iso 500000 500000 1
print """
<--------------------------------------------------------------------->
<------------------ Equilibrating at temperature $T ----------------->
<--------------------------------------------------------------------->
"""

<--------------------------------------------------------------------->
<------------------ Equilibrating at temperature 3900 ----------------->
<--------------------------------------------------------------------->

fix temp all print 1000 "$(step) $(temp) $(press) ${sys_press} $(vol) $(ke) $(pe) $(density)" file temp_${sim}.txt screen no title  "step temp press pressGiga vol ke pe density"
fix temp all print 1000 "$(step) $(temp) $(press) ${sys_press} $(vol) $(ke) $(pe) $(density)" file temp_heating.txt screen no title  "step temp press pressGiga vol ke pe density"
run 250000
Last active /omp style is pair_style eam/alloy/omp
Per MPI rank memory allocation (min/avg/max) = 4.354 | 4.354 | 4.354 Mbytes
Step Temp Volume Press KinEng PotEng Density 
       0     3727.995    21141.238    503949.03    986.41076   -7508.1999     9.479974 
    1000     3893.146    21266.473    501128.23     1030.109   -7462.9185     9.424148 
    2000    3939.8452    21242.743     500345.4    1042.4654   -7488.3667    9.4346755 
    3000    3920.9526     21212.41    505399.56    1037.4665   -7474.8916    9.4481668 
    4000     3818.732    21283.474    491646.04    1010.4194    -7493.488    9.4166201 
    5000    3831.0295    21232.616    490558.49    1013.6732   -7533.7521    9.4391754 
    6000     3981.293    21166.637    515669.38    1053.4323   -7443.4657    9.4685983 
    7000    3862.2096    21262.145    496914.61    1021.9233   -7482.1469     9.426066 
    8000    3885.4069     21298.31    491027.57    1028.0613   -7494.4949    9.4100605 
    9000    3950.2215    21165.862    513796.58    1045.2109   -7456.8605     9.468945 
   10000    3819.8876    21337.038    485588.22    1010.7251   -7494.8924    9.3929809 
   11000    3815.8255    21217.684    500848.49    1009.6503   -7486.0814    9.4458181 
   12000    3860.4004    21249.287     502202.7    1021.4446   -7466.5893    9.4317701 
   13000    4001.5614    21256.006    499361.47    1058.7952   -7479.3083    9.4287886 
   14000     3910.337    21260.839    496041.97    1034.6576   -7497.8333    9.4266451 
   15000    3946.7287    21189.913    499155.74    1044.2867   -7517.8202    9.4581979 
   16000     4037.516    21189.008    508500.58    1068.3086   -7480.3829    9.4586016 
   17000    3935.5617    21290.487    495485.81     1041.332   -7490.7577    9.4135182 
   18000    3957.0494    21374.911    486230.89    1047.0175   -7486.5897    9.3763376 
   19000    3841.0577     21226.26     504835.1    1016.3266   -7461.3066    9.4420021 
   20000    3900.8939    21177.062    510850.14     1032.159   -7468.3436    9.4639373 
   21000    3924.1223    21229.271    498960.94    1038.3052   -7500.5463    9.4406628 
   22000    3806.8664    21191.604    499316.55    1007.2798   -7509.0055    9.4574428 
   23000    4017.1515    21172.709    509665.18    1062.9203   -7473.5872    9.4658829 
   24000    3946.8446    21214.199    507461.76    1044.3174   -7463.7629    9.4473701 
   25000    3829.6631    21225.277    503499.42    1013.3117   -7470.7371    9.4424394 
   26000    3960.1945    21329.571     488852.2    1047.8497   -7495.8635    9.3962688 
   27000    4004.5812    21158.763    516266.38    1059.5942   -7447.1448    9.4721221 
   28000    3843.6721    21274.157    497124.09    1017.0184   -7475.6059    9.4207439 
   29000    3902.7452    21254.524    493797.98    1032.6489   -7512.5774    9.4294459 
   30000     3919.936    21301.296    495960.81    1037.1975   -7477.5778    9.4087414 
   31000    3949.6438    21169.868    512070.35    1045.0581   -7465.4325    9.4671532 
   32000    3954.3331     21292.79     495633.5    1046.2988   -7487.7542       9.4125 
   33000    3822.8579    21307.619    493944.97    1011.5111     -7481.68    9.4059494 
   34000    3882.7811    21167.716    511907.19    1027.3665   -7459.4777    9.4681157 
   35000    3989.7831    21219.431    501741.07    1055.6787   -7489.1542    9.4450405 
   36000    3977.9359    21296.639    486511.48     1052.544    -7525.668    9.4107987 
   37000    3933.2576    21216.608    505471.11    1040.7223   -7474.6434    9.4462971 
   38000    3876.9494    21221.126    511259.51    1025.8234    -7429.578    9.4442861 
   39000    3728.3249    21187.553    501907.77    986.49806     -7490.11    9.4592514 
   40000    3796.4214     21376.13    486684.29    1004.5161   -7476.8998     9.375803 
   41000    3949.3336    21216.912    500308.74     1044.976   -7505.8895    9.4461619 
   42000    3818.2685    21126.953    513678.34    1010.2967   -7470.9273     9.486384 
   43000     3902.002    21303.969    490902.14    1032.4522   -7494.5289     9.407561 
   44000    3894.2701    21319.489    486030.73    1030.4064   -7514.6603    9.4007125 
   45000    3962.6974    21181.095    514254.47     1048.512   -7443.9909    9.4621353 
   46000    3951.1907    21216.265    498773.27    1045.4673   -7505.8184      9.44645 
   47000    3833.8163    21228.966    497855.79    1014.4106   -7499.8843    9.4407982 
   48000     3919.215    21247.744    498587.01    1037.0067   -7489.6969     9.432455 
   49000    3841.2526    21170.262    514445.38    1016.3782   -7443.5032    9.4669771 
   50000      3844.86    21196.654    509239.67    1017.3327   -7453.7605    9.4551897 
   51000    3925.2898    21338.346    485552.96    1038.6141   -7508.2253    9.3924048 
   52000    3842.5075    21322.972    489197.41    1016.7103   -7498.3906     9.399177 
   53000    3935.0962     21247.48    503734.57    1041.2088   -7464.8363    9.4325719 
   54000    3939.0833     21269.11    499103.85    1042.2638   -7476.1695    9.4229796 
   55000    3839.7188    21268.024    489820.06    1015.9724   -7514.7902    9.4234606 
   56000    3974.1063    21404.803    478696.92    1051.5307   -7514.2375    9.3632438 
   57000    3932.7062    21198.948    510183.11    1040.5764   -7454.6237    9.4541666 
   58000    3832.6829    21084.645    514147.38    1014.1107   -7493.2586    9.5054192 
   59000     3887.795    21276.057    498395.03    1028.6931   -7473.5319    9.4199025 
   60000    3803.3531    21221.513    497080.44    1006.3502   -7499.8463    9.4441138 
   61000    3904.4101    21212.146    507422.65    1033.0894   -7460.6329    9.4482844 
   62000    3873.5434    21119.484    514013.41    1024.9222    -7476.528    9.4897387 
   63000    3848.3036     21245.05    499525.27    1018.2439   -7474.4109    9.4336508 
   64000    3855.6803    21367.449    488368.79    1020.1957   -7476.5876    9.3796121 
   65000    3907.0702    21203.657    502749.82    1033.7932   -7485.1004    9.4520668 
   66000    3904.1953    21274.968    499382.88    1033.0326   -7465.5435     9.420385 
   67000    3792.6088     21367.43    477076.48    1003.5073   -7526.1969    9.3796205 
   68000    3953.8173    21277.964    498203.19    1046.1623   -7480.6924    9.4190585 
   69000    3885.3808    21212.493    503197.31    1028.0543    -7482.707    9.4481297 
   70000    3839.6041    21194.501    501801.06     1015.942   -7489.9069    9.4561504 
   71000    3824.4064    21121.248    515283.34    1011.9208   -7464.3053     9.488946 
   72000    3988.6177    21285.448    495515.37    1055.3704   -7485.5363    9.4157467 
   73000     3907.683    21258.165    493582.83    1033.9554   -7506.8674    9.4278308 
   74000    3914.6728    21353.829    482930.14    1035.8049    -7518.289    9.3855949 
   75000    3983.7706    21179.541    510702.66    1054.0878   -7464.3904    9.4628295 
   76000    3898.7069    21264.402    503359.09    1031.5804   -7457.9752    9.4250656 
   77000    3850.3594    21269.925    495132.98    1018.7878   -7493.8115    9.4226183 
   78000    3812.3804    21192.642    503907.32    1008.7388   -7487.1277    9.4569799 
   79000    3927.9543    21234.573     502145.2    1039.3191   -7476.0615    9.4383055 
   80000    3858.2687    21085.891    517182.18    1020.8806   -7474.4397    9.5048573 
   81000    3915.0866    21289.138    493289.05    1035.9144    -7491.129    9.4141146 
   82000    3818.9542    21208.996     497240.1    1010.4782   -7511.3096    9.4496876 
   83000     3866.857    21252.695    497497.73     1023.153   -7484.9202    9.4302576 
   84000    3911.0491    21254.172    498250.08    1034.8461   -7484.9612    9.4296023 
   85000    3878.9813    21234.166     498842.7    1026.3611   -7494.4071    9.4384865 
   86000     3776.029     21315.44    485623.28    999.12034   -7510.1947     9.402498 
   87000    3887.8531     21150.91    513417.31    1028.7085   -7456.6422    9.4756392 
   88000     3857.577    21223.299    502406.11    1020.6976   -7472.8649    9.4433192 
   89000    3811.1637    21243.654    503704.77    1008.4168   -7460.5105    9.4342709 
   90000    3864.8362    21254.735    503798.42    1022.6183   -7457.4762    9.4293522 
   91000    3853.6704    21210.961    503803.17    1019.6639   -7476.9238    9.4488123 
   92000    3855.0064    21308.734    493980.84    1020.0174    -7477.851    9.4054573 
   93000    3976.8256    21249.299     502370.8    1052.2502   -7471.1636    9.4317647 
   94000    3781.9216    21157.865     506898.3    1000.6795   -7483.9432    9.4725241 
   95000    3843.3683    21310.668    495378.75     1016.938   -7466.9592    9.4046036 
   96000    3921.2964     21308.98    485226.69    1037.5574   -7522.5417    9.4053488 
   97000    3861.4908    21230.647    503723.19    1021.7331   -7458.8141    9.4400507 
   98000    3873.7423    21187.854    502644.84    1024.9749   -7495.8646    9.4591169 
   99000    3941.3917    21352.575    490134.11    1042.8746   -7479.4895     9.386146 
  100000    3885.8665    21246.789    498993.87    1028.1829   -7483.5811    9.4328788 
  101000    3882.2474    21201.319     507839.2    1027.2252   -7459.2549    9.4531093 
  102000    3866.4875    21241.408    505863.43    1023.0553   -7453.1232    9.4352684 
  103000    3810.1134    21264.726    493371.62    1008.1389   -7496.7148    9.4249222 
  104000    3822.0452    21276.226    491676.16     1011.296    -7499.334     9.419828 
  105000    4009.9021    21225.442    504641.15    1061.0021   -7473.4237    9.4423657 
  106000    3886.5867    21189.405    507158.57    1028.3734   -7471.5565    9.4584242 
  107000    3960.4386    21229.151    502681.92    1047.9143   -7481.2616    9.4407161 
  108000    3734.1807    21348.548     483597.1    988.04748    -7507.362    9.3879164 
  109000    4046.9658    21283.342    497945.57     1070.809   -7476.7372    9.4166783 
  110000    3883.0489    21153.639    510900.41    1027.4373    -7472.141    9.4744163 
  111000    3834.1241    21279.347    493619.82     1014.492   -7492.1224    9.4184461 
  112000    3814.7817    21227.242    503623.88    1009.3741   -7472.5884     9.441565 
  113000    3790.3075     21250.07    493779.01    1002.8984   -7504.0285    9.4314223 
  114000    3987.7593    21217.601    502954.58    1055.1432   -7484.1891    9.4458551 
  115000    3840.0704    21121.222    514398.47    1016.0654   -7467.6926     9.488958 
  116000    3996.4394    21280.118    493243.05    1057.4399   -7509.1755     9.418105 
  117000    3805.0335    21199.189    500489.88    1006.7948    -7496.821     9.454059 
  118000    3909.6203    21216.882    511078.92     1034.468   -7441.5846    9.4461751 
  119000    3901.0279    21235.389    502281.64    1032.1945   -7477.2178    9.4379427 
  120000    3865.3192    21321.217     492174.1    1022.7461   -7483.4324    9.3999507 
  121000    3818.8634    21213.399     503047.8    1010.4541   -7472.9487    9.4477262 
  122000    3992.5286    21328.933    492976.98    1056.4052   -7490.6178    9.3965502 
  123000    3873.0512    21196.902    504309.04     1024.792   -7482.7949    9.4550794 
  124000    3959.8262    21211.433    505600.44    1047.7523   -7472.1869    9.4486019 
  125000     3888.106    21184.725    507918.95    1028.7754   -7465.7993     9.460514 
  126000    3855.6596    21187.089    497210.74    1020.1903   -7522.4873    9.4594584 
  127000    3984.5584    21279.277    495231.36    1054.2963    -7494.182    9.4184772 
  128000    3884.6775    21370.309    485098.15    1027.8682   -7495.4778    9.3783569 
  129000    3842.7819    21282.174    494840.52    1016.7829   -7486.0939    9.4171953 
  130000     3927.667    21217.976    509865.85    1039.2431   -7446.7112    9.4456883 
  131000    3965.1698    21168.758    509721.63    1049.1661    -7478.242    9.4676496 
  132000    3870.7297     21098.49    513992.11    1024.1777   -7487.9728    9.4991817 
  133000    3784.3199    21287.125    491278.41    1001.3141   -7490.5782     9.415005 
  134000    3928.2081    21285.128    495980.05    1039.3863   -7490.4881    9.4158884 
  135000    3974.3596    21135.147     514705.2    1051.5977    -7464.228    9.4827059 
  136000     3953.193    21256.647    495556.38    1045.9971    -7494.651    9.4285042 
  137000    3899.1316    21299.937    482776.58    1031.6927   -7540.9443    9.4093415 
  138000    3956.7129    21211.276    504148.13    1046.9285   -7484.7454    9.4486717 
  139000    3794.5496    21182.154    501770.83    1004.0208   -7500.2226    9.4616624 
  140000    3898.3996    21264.589    498139.23    1031.4991   -7478.9303    9.4249827 
  141000    3832.0272    21140.472    523206.54    1013.9372   -7408.8086    9.4803173 
  142000    3808.9773    21295.683    486158.34    1007.8383   -7522.4514    9.4112213 
  143000    3948.5932    21358.693    489437.96    1044.7801   -7479.2347    9.3834574 
  144000    3819.2147    21140.137    511098.75    1010.5471   -7470.9781    9.4804678 
  145000    4020.6901    21253.069     498576.2    1063.8566   -7496.1728    9.4300914 
  146000     3905.773    21286.874    497966.37      1033.45   -7465.6636    9.4151161 
  147000    3869.6605    21270.965    490464.01    1023.8948   -7516.8397    9.4221579 
  148000    3909.5783    21181.857    512810.34    1034.4569   -7449.4369     9.461795 
  149000    4010.3211    21209.952    508053.74     1061.113   -7460.7962    9.4492615 
  150000    3944.6083    21326.019    491696.17    1043.7257   -7481.7909    9.3978342 
  151000    3801.0427    21227.663    496743.25    1005.7389   -7504.0842    9.4413777 
  152000    3941.6891     21264.08     499221.5    1042.9533   -7477.3498    9.4252085 
  153000    3904.0467    21317.886    489850.24    1032.9933   -7498.0127    9.4014192 
  154000    3950.3005    21246.929    496809.84    1045.2318   -7499.9601    9.4328168 
  155000    3909.0597     21197.45     507177.1    1034.3197    -7471.792    9.4548349 
  156000    3872.0847    21236.468    503379.03    1024.5363   -7466.2303    9.4374632 
  157000    3848.0443    21322.971    484199.07    1018.1753   -7516.4684    9.3991773 
  158000    3901.3137    21185.483    506647.94    1032.2701   -7473.7987    9.4601755 
  159000    4017.2721    21166.578    513717.27    1062.9522   -7461.2422     9.468625 
  160000    3856.8748    21245.233    498881.63    1020.5118   -7484.7378    9.4335697 
  161000    3924.6114    21272.966    499532.65    1038.4346   -7473.1419    9.4212713 
  162000    4035.9112    21206.284    506041.24     1067.884   -7478.3549    9.4508962 
  163000    3851.7588    21216.059    497035.53    1019.1581   -7512.4399    9.4465418 
  164000    3841.3041    21203.714    502352.98    1016.3918   -7488.1686    9.4520417 
  165000    3950.0552    21194.049    506498.41    1045.1669   -7482.4268    9.4563519 
  166000    3991.6035     21346.34    491313.66    1056.1604   -7484.5087    9.3888877 
  167000    3814.6141    21203.702    502150.08    1009.3298   -7486.2771    9.4520468 
  168000    3992.7548    21286.082    497703.95     1056.465   -7485.9506    9.4154663 
  169000    3864.1232     21226.42    503538.72    1022.4297   -7468.4208    9.4419307 
  170000    3949.0243    21161.569    511158.97    1044.8941   -7472.9708    9.4708659 
  171000    3849.3291     21332.36    487839.18    1018.5152   -7495.3356    9.3950405 
  172000    3822.2351    21322.488    485500.36    1011.3463   -7509.6833    9.3993903 
  173000     3937.029    21181.088    510567.73    1041.7202   -7466.0825    9.4621386 
  174000    4079.7727    21211.033    501936.91    1079.4896   -7500.8184    9.4487799 
  175000    3775.2752    21220.898    499883.31    998.92089   -7492.0618    9.4443878 
  176000    3950.4035    21357.065    486860.73    1045.2591   -7498.9199    9.3841727 
  177000    3966.8586    21135.008    521407.24     1049.613   -7436.5101    9.4827683 
  178000    3886.0367    21216.757    502145.85    1028.2279   -7481.4291    9.4462309 
  179000    3889.4779    21414.556    476195.37    1029.1384   -7513.6862    9.3589795 
  180000    3960.4114    21275.334    500135.86    1047.9071   -7471.0289    9.4202226 
  181000    3905.7763    21163.196    515649.07    1033.4509   -7446.5809    9.4701381 
  182000    3901.9122     21252.53    497080.03    1032.4285   -7490.6924    9.4303308 
  183000    3725.8969    21316.619    488944.45    985.85563    -7490.198     9.401978 
  184000    4071.8575    21132.138    519101.21    1077.3952   -7450.3025    9.4840562 
  185000    3876.6392    21241.857    501437.22    1025.7414   -7472.9076    9.4350691 
  186000    3838.2772    21297.878    496382.73    1015.5909   -7478.0411    9.4102516 
  187000    3853.0751     21174.69    516648.93    1019.5064   -7427.2824    9.4649976 
  188000    4009.1452    21246.543    497880.37    1060.8019   -7500.7029    9.4329882 
  189000     3743.419    21344.009    483985.42    990.49188   -7502.4584    9.3899128 
  190000    3856.7881    21328.229    488152.18    1020.4888   -7492.4277    9.3968603 
  191000    3731.8567    21141.246    506227.98    987.43254   -7490.8422    9.4799702 
  192000    3885.6796    21274.503    499022.78    1028.1334   -7470.2535    9.4205906 
  193000    3826.3559     21274.33    491885.14    1012.4366   -7499.7323    9.4206672 
  194000    3859.7439    21300.321    496761.46    1021.2709   -7465.0079    9.4091722 
  195000    3949.0935    21218.478    509782.27    1044.9124   -7451.5706    9.4454648 
  196000    3831.1271    21381.477    484605.53    1013.6991    -7485.239    9.3734586 
  197000    3716.3341    21235.688    501567.56    983.32535   -7467.9151    9.4378098 
  198000    3860.2376    21155.474    513031.95    1021.4016   -7458.0413    9.4735946 
  199000    3884.7728     21295.34     491438.8    1027.8935   -7495.6216    9.4113728 
  200000    3826.1709    21272.559    494574.57    1012.3877   -7494.7718    9.4214517 
  201000    3987.7937    21260.408    499997.26    1055.1523   -7481.6017    9.4268362 
  202000    3897.5751    21182.878    502368.94    1031.2809   -7497.5976    9.4613389 
  203000    3973.2822     21389.36    475783.15    1051.3127   -7532.9776    9.3700038 
  204000    3955.6912    21252.038    507781.37    1046.6582   -7436.6567     9.430549 
  205000    3837.8363    21258.749    496657.22    1015.4743   -7479.4208    9.4275719 
  206000    3797.6749    21295.127    497392.39    1004.8478   -7472.4872    9.4114671 
  207000    3821.8541    21315.369    498008.67    1011.2455   -7451.0383    9.4025294 
  208000    3895.0949    21213.187    499758.71    1030.6246   -7490.3023    9.4478208 
  209000    3827.2496    21169.148    502997.84    1012.6731   -7502.5222    9.4674751 
  210000    3851.4714    21155.852    506777.43    1019.0821   -7487.5759    9.4734256 
  211000    4026.4059    21209.792     505920.3     1065.369   -7474.6636    9.4493329 
  212000    3858.4893    21200.466    506194.97     1020.939   -7475.0625    9.4534896 
  213000    3918.8929    21347.284    484884.61    1036.9215    -7504.563    9.3884723 
  214000    3884.0511    21175.781    510480.76    1027.7025   -7466.7735    9.4645096 
  215000    3930.0636     21227.86    502638.62    1039.8772   -7477.6204    9.4412904 
  216000     3803.195    21262.948    494112.73    1006.3084   -7497.0542    9.4257104 
  217000    3994.6978    21236.057       508945    1056.9791   -7448.6922     9.437646 
  218000     3813.725     21289.32    495191.61    1009.0945   -7472.0559    9.4140341 
  219000    3823.9078    21284.723    493150.23    1011.7889   -7485.4702    9.4160675 
  220000     3912.405    21218.062    507638.87    1035.2048   -7447.2414    9.4456501 
  221000    3915.6123    21186.734    510252.36    1036.0534   -7449.8335    9.4596167 
  222000    3778.7654    21216.738    501407.88    999.84438   -7486.6104    9.4462394 
  223000    3952.7069    21280.293    496158.71    1045.8685   -7487.6183    9.4180276 
  224000    3811.7484    21164.583    506864.26    1008.5715    -7485.054    9.4695173 
  225000    3873.1735    21297.411    493256.66    1024.8244   -7486.6987    9.4104578 
  226000    3799.0295    21298.761    495860.01    1005.2062   -7469.9077    9.4098615 
  227000     3973.049    21200.457    505167.68     1051.251   -7483.3946    9.4534936 
  228000    3950.4731     21283.35    496661.42    1045.2775   -7480.5954    9.4166749 
  229000    3917.8019    21293.103     488983.2    1036.6328   -7515.6981    9.4123615 
  230000    4004.2139    21158.399    513929.83    1059.4971    -7460.955    9.4722853 
  231000    3893.3488    21224.393    501695.05    1030.1627   -7481.0276    9.4428324 
  232000    3947.8229    21259.492    494851.27    1044.5762   -7501.9488    9.4272427 
  233000    4012.6844    21266.873    502035.45    1061.7383   -7472.0796    9.4239706 
  234000     3851.394    21272.332    494060.11    1019.0616   -7500.2207     9.421552 
  235000    3791.6163    21257.678    503076.44    1003.2447   -7453.9026     9.428047 
  236000    3876.3878    21032.112    532393.45    1025.6748   -7426.5236    9.5291611 
  237000    3845.3646    21275.289    497195.37    1017.4662   -7478.5795    9.4202426 
  238000    3780.0517     21299.66    493828.83    1000.1847   -7477.9889    9.4094641 
  239000    3938.2235    21134.347    516251.99    1042.0363   -7464.5673     9.483065 
  240000    3766.9907    21155.335    505811.25    996.72885   -7491.8335    9.4736567 
  241000     3908.409    21315.531    490098.62    1034.1475   -7499.7933    9.4024579 
  242000    3884.2142    21217.534    502176.66    1027.7457   -7490.0089    9.4458851 
  243000    3857.2532    21170.386     513568.4    1020.6119   -7448.8197    9.4669219 
  244000    3780.9043    21166.844     514843.1    1000.4103   -7439.0593    9.4685059 
  245000    3919.9101    21246.459    489880.51    1037.1906   -7528.3602    9.4330252 
  246000    3924.7065    21284.772    495993.77    1038.4597   -7482.5169    9.4160455 
  247000    3884.5619    21242.963    499039.99    1027.8377   -7487.9552    9.4345778 
  248000    3850.6175    21310.409    486702.59    1018.8561   -7511.1131    9.4047181 
  249000    3841.0794     21223.49     501116.5    1016.3324   -7487.0295    9.4432341 
  250000    4039.2952    21254.289    504724.03    1068.7794   -7465.5223    9.4295501 
Loop time of 527.915 on 8 procs for 250000 steps with 2048 atoms

Performance: 40.916 ns/day, 0.587 hours/ns, 473.561 timesteps/s
125.1% CPU use with 4 MPI tasks x 2 OpenMP threads

MPI task timing breakdown:
Section |  min time  |  avg time  |  max time  |%varavg| %total
---------------------------------------------------------------
Pair    | 313.7      | 318.65     | 322.94     |  19.6 | 60.36
Neigh   | 6.1306     | 6.2229     | 6.2922     |   2.8 |  1.18
Comm    | 21.283     | 25.416     | 30.414     |  69.6 |  4.81
Output  | 0.0059129  | 0.011501   | 0.013391   |   3.0 |  0.00
Modify  | 176.37     | 176.61     | 176.79     |   1.2 | 33.45
Other   |            | 0.9984     |            |       |  0.19

Nlocal:        512.000 ave         514 max         509 min
Histogram: 1 0 0 0 0 0 1 0 1 1
Nghost:        2974.25 ave        2985 max        2967 min
Histogram: 2 0 0 0 0 0 1 0 0 1
Neighs:        44891.2 ave       46665 max       43172 min
Histogram: 1 0 0 1 0 0 1 0 0 1

Total # of neighbors = 179565
Ave neighs/atom = 87.678223
Neighbor list builds = 6256
Dangerous builds = 0


# fix 132 all momentum 100 linear 1 1 1 angular
fix out_file_1 all print 1000 "$(step) $(temp) $(press) ${sys_press} $(vol) $(ke) $(pe) $(density)" file one_phase_${sim}_press_$P_$T_.txt screen no title  "step temp press pressGiga vol ke pe density"
fix out_file_1 all print 1000 "$(step) $(temp) $(press) ${sys_press} $(vol) $(ke) $(pe) $(density)" file one_phase_heating_press_$P_$T_.txt screen no title  "step temp press pressGiga vol ke pe density"
fix out_file_1 all print 1000 "$(step) $(temp) $(press) ${sys_press} $(vol) $(ke) $(pe) $(density)" file one_phase_heating_press_500000_$T_.txt screen no title  "step temp press pressGiga vol ke pe density"
fix out_file_1 all print 1000 "$(step) $(temp) $(press) ${sys_press} $(vol) $(ke) $(pe) $(density)" file one_phase_heating_press_500000_3900_.txt screen no title  "step temp press pressGiga vol ke pe density"

# dump 3 all custom 1000 traj_npt_new.lammpstrj id type x y z
run 50000
Last active /omp style is pair_style eam/alloy/omp
Per MPI rank memory allocation (min/avg/max) = 4.354 | 4.354 | 4.354 Mbytes
Step Temp Volume Press KinEng PotEng Density 
  250000    4039.2952    21254.289    504724.03    1068.7794   -7465.5223    9.4295501 
  251000    3978.6274    21427.803    476446.06     1052.727   -7518.9875    9.3531933 
  252000    3901.7087     21250.34    495988.14    1032.3746   -7504.8047    9.4313027 
  253000    3977.0333    21158.145    514432.23    1052.3052   -7451.5765    9.4723988 
  254000    3977.8775    21207.986    498692.17    1052.5286   -7513.4503    9.4501376 
  255000    3939.2637    21323.973    488767.78    1042.3115   -7496.2232    9.3987355 
  256000     3922.406    21237.637    502770.83     1037.851   -7474.9363    9.4369437 
  257000     3848.135    21128.447       515809    1018.1993   -7455.5305    9.4857131 
  258000    3975.6132    21305.679    488783.37    1051.9294   -7509.4505    9.4068057 
  259000    3802.3885    21322.842    490538.88     1006.095    -7484.447    9.3992343 
  260000    3916.4506    21255.624    502817.73    1036.2753   -7467.4298    9.4289582 
  261000    3875.7337    21151.845     505393.4    1025.5018   -7499.5797    9.4752199 
  262000    3744.7023    21379.619     483699.3    990.83143   -7486.4518    9.3742729 
  263000    3885.3468    21320.446    487894.69    1028.0454   -7499.2161    9.4002906 
  264000    3943.1911    21203.557    508851.08    1043.3507   -7460.9268    9.4521117 
  265000    3841.1182    21161.043    513861.87    1016.3427   -7457.6318    9.4711014 
  266000     3832.427    21221.632    506590.05     1014.043   -7452.6983     9.444061 
  267000    3775.9685    21279.828     496432.5    999.10435   -7478.7191    9.4182333 
  268000    3886.7977    21250.431    498237.29    1028.4292   -7484.0345     9.431262 
  269000    3925.1125    21163.589    507448.93    1038.5672    -7486.014    9.4699622 
  270000    3953.2844    21275.913    492986.22    1046.0213   -7500.3306    9.4199666 
  271000     3911.684    21153.721       503673    1035.0141   -7509.8017    9.4743798 
  272000    3906.3911    21140.666    516959.72    1033.6136   -7447.7201    9.4802304 
  273000    3877.5964    21270.518    485601.93    1025.9946   -7535.5874    9.4223558 
  274000    3885.4764    21258.092    497977.94    1028.0796   -7488.7927    9.4278632 
  275000    4058.3937    21255.183    504954.02    1073.8328    -7461.402    9.4291538 
  276000    3886.2123    21303.713    487690.87    1028.2744   -7518.9618    9.4076739 
  277000    3945.4152    21227.597    508213.48    1043.9392   -7452.6992    9.4414073 
  278000    3837.6883    21089.223    521027.84    1015.4351   -7444.2802    9.5033557 
  279000    3838.5475    21309.879     493314.9    1015.6625   -7482.7933    9.4049517 
  280000    3911.1582    21200.211    500302.19    1034.8749   -7504.4491    9.4536034 
  281000    3923.1456    21324.428    491349.56    1038.0467   -7483.6311    9.3985351 
  282000    3782.6311    21266.402    494363.65    1000.8672   -7486.4972    9.4241795 
  283000    3964.4298    21139.821    521307.18    1048.9704   -7431.7157    9.4806095 
  284000    3843.0653    21192.366    504252.26    1016.8579   -7480.0046    9.4571027 
  285000    3881.5399    21260.544    497379.87    1027.0381   -7493.4461    9.4267761 
  286000     3834.143    21261.373    496101.53    1014.4971   -7486.4459    9.4264087 
  287000    3954.8017    21277.867    501292.75    1046.4228    -7464.963    9.4191013 
  288000    3828.0577    21192.128    508993.19    1012.8869   -7466.3525    9.4572089 
  289000    3923.9629     21254.28    500480.32     1038.263    -7472.684    9.4295541 
  290000    3770.4871    21188.063     509552.9    997.65398   -7449.0836    9.4590236 
  291000    3921.4153    21297.476    494587.43    1037.5889   -7477.8629     9.410429 
  292000    3761.9957    21263.849    501153.86    995.40719   -7457.1315    9.4253109 
  293000    3860.3448    21176.238    511715.33    1021.4299   -7452.7479    9.4643054 
  294000    3875.0462    21260.364    497637.58    1025.3198   -7482.3052     9.426856 
  295000    3844.6722    21392.532    475365.92     1017.283   -7525.0559    9.3686144 
  296000    4003.5059    21192.234    512523.04    1059.3097   -7454.9609    9.4571616 
  297000    3897.0099    21244.194    497050.08    1031.1314    -7493.458    9.4340313 
  298000    3885.7101    21307.887     485910.8    1028.1415   -7520.2557    9.4058309 
  299000    3846.3101     21294.04    496241.05    1017.7164   -7469.4152    9.4119474 
  300000    3978.5606    21308.176    493928.59    1052.7093   -7492.1123    9.4057036 
Loop time of 110.446 on 8 procs for 50000 steps with 2048 atoms

Performance: 39.114 ns/day, 0.614 hours/ns, 452.710 timesteps/s
121.5% CPU use with 4 MPI tasks x 2 OpenMP threads

MPI task timing breakdown:
Section |  min time  |  avg time  |  max time  |%varavg| %total
---------------------------------------------------------------
Pair    | 65.947     | 66.903     | 67.701     |   8.5 | 60.57
Neigh   | 1.2785     | 1.2886     | 1.2943     |   0.5 |  1.17
Comm    | 6.2134     | 6.9659     | 7.9029     |  25.9 |  6.31
Output  | 0.0011456  | 0.001804   | 0.0020265  |   0.9 |  0.00
Modify  | 35.025     | 35.082     | 35.115     |   0.6 | 31.76
Other   |            | 0.2054     |            |       |  0.19

Nlocal:        512.000 ave         517 max         506 min
Histogram: 1 0 0 1 0 0 0 0 1 1
Nghost:        2970.50 ave        2985 max        2959 min
Histogram: 2 0 0 0 0 0 0 1 0 1
Neighs:        44830.2 ave       46598 max       43699 min
Histogram: 2 0 0 0 1 0 0 0 0 1

Total # of neighbors = 179321
Ave neighs/atom = 87.559082
Neighbor list builds = 1252
Dangerous builds = 0

unfix temp
unfix out_file_1


write_data after_${sim}_press_$P_$T.in
write_data after_heating_press_$P_$T.in
write_data after_heating_press_500000_$T.in
write_data after_heating_press_500000_3900.in
System init for write_data ...
Last active /omp style is pair_style eam/alloy/omp
write_restart after_${sim}_press_$P_$T.lmp
write_restart after_heating_press_$P_$T.lmp
write_restart after_heating_press_500000_$T.lmp
write_restart after_heating_press_500000_3900.lmp
System init for write_restart ...
Last active /omp style is pair_style eam/alloy/omp

next loopVar  #<----->
jump in.lmp ensemble

print """
Label pachadi solti, hos garam.
"""

Label pachadi solti, hos garam.

variable T equal 3700+${loopVar}*100  #<----->
variable T equal 3700+3*100  
# variable T equal 1850


reset_timestep 0
fix 1 all npt temp $T $T $(dt*100) iso $P $P $(dt*1000)
fix 1 all npt temp 4000 $T $(dt*100) iso $P $P $(dt*1000)
fix 1 all npt temp 4000 4000 $(dt*100) iso $P $P $(dt*1000)
fix 1 all npt temp 4000 4000 0.10000000000000000555 iso $P $P $(dt*1000)
fix 1 all npt temp 4000 4000 0.10000000000000000555 iso 500000 $P $(dt*1000)
fix 1 all npt temp 4000 4000 0.10000000000000000555 iso 500000 500000 $(dt*1000)
fix 1 all npt temp 4000 4000 0.10000000000000000555 iso 500000 500000 1
print """
<--------------------------------------------------------------------->
<------------------ Equilibrating at temperature $T ----------------->
<--------------------------------------------------------------------->
"""

<--------------------------------------------------------------------->
<------------------ Equilibrating at temperature 4000 ----------------->
<--------------------------------------------------------------------->

fix temp all print 1000 "$(step) $(temp) $(press) ${sys_press} $(vol) $(ke) $(pe) $(density)" file temp_${sim}.txt screen no title  "step temp press pressGiga vol ke pe density"
fix temp all print 1000 "$(step) $(temp) $(press) ${sys_press} $(vol) $(ke) $(pe) $(density)" file temp_heating.txt screen no title  "step temp press pressGiga vol ke pe density"
run 250000
Last active /omp style is pair_style eam/alloy/omp
Per MPI rank memory allocation (min/avg/max) = 4.354 | 4.354 | 4.354 Mbytes
Step Temp Volume Press KinEng PotEng Density 
       0    3978.5606    21308.176    493928.59    1052.7093   -7492.1123    9.4057036 
    1000    4140.8684    21285.145    509155.18    1095.6552   -7425.3083    9.4158807 
    2000     3951.722    21271.276    504989.84    1045.6079   -7444.1746      9.42202 
    3000    4008.3466    21284.442    501618.04    1060.5905   -7463.1191    9.4161915 
    4000    3935.1369    21288.575    496222.21    1041.2196   -7485.9807    9.4143635 
    5000    3945.6277    21170.897    519355.57    1043.9954   -7423.4997    9.4666934 
    6000    4066.3653    21379.945     489764.6     1075.942   -7478.7613    9.3741299 
    7000    3885.5599    21259.874    499407.47    1028.1017   -7478.4014    9.4270733 
    8000    4012.5857     21342.11    494427.21    1061.7122   -7473.0244    9.3907484 
    9000    3858.3071    21218.717    505252.81    1020.8908   -7463.9157    9.4453584 
   10000    4127.7457    21290.513    501102.69     1092.183   -7461.8244    9.4135066 
   11000    4010.9067    21351.819    487450.25    1061.2679   -7497.4531    9.3864783 
   12000    3926.0335    21326.381    489181.93    1038.8109   -7486.8775    9.3976743 
   13000    4145.3548     21285.24     501875.5    1096.8423   -7468.8106    9.4158385 
   14000    4081.3152    21173.257    517481.27    1079.8977   -7439.9207     9.465638 
   15000    3925.0204    21342.415    495546.47    1038.5428   -7455.9208    9.3906142 
   16000     3901.491    21318.649    486671.89     1032.317   -7507.9192    9.4010828 
   17000    3976.3863    21243.285    505316.21     1052.134   -7461.0029    9.4344348 
   18000    4111.5381     21331.88    505127.52    1087.8946   -7425.6273    9.3952521 
   19000    4014.5881    21285.243    505787.22     1062.242   -7440.4779    9.4158375 
   20000    3878.3965    21277.106    500570.83    1026.2063   -7464.3421    9.4194381 
   21000    4009.3958    21321.109    487458.21    1060.8682   -7516.4937    9.3999983 
   22000    4010.2613    21256.022    502855.47    1061.0972   -7469.4386    9.4287814 
   23000    4001.2314    21361.286    493628.02    1058.7079   -7459.3234    9.3823184 
   24000    3994.8045    21364.238    486775.87    1057.0074   -7499.5353    9.3810222 
   25000    4117.7439    21204.791    519117.01    1089.5366   -7417.3745    9.4515616 
   26000    4063.4255    21303.809    496727.93    1075.1642   -7480.3946    9.4076317 
   27000    3957.3452    21381.086    486874.57    1047.0958   -7482.0604      9.37363 
   28000    3868.8938    21358.755    485134.48    1023.6919   -7498.4167    9.3834304 
   29000    4060.5678    21287.356    501257.95     1074.408   -7463.2639    9.4149027 
   30000    3944.1297    21262.853    508684.95     1043.599   -7425.2893    9.4257524 
   31000    4143.2743     21298.38     493991.6    1096.2918   -7498.8742    9.4100294 
   32000    3943.1582    21296.552    498034.65     1043.342    -7477.354    9.4108375 
   33000    4022.5025    21410.976     481564.9    1064.3361    -7499.798    9.3605443 
   34000    3977.6712    21267.462    506057.39     1052.474    -7444.141    9.4237097 
   35000    4083.3307    21284.625    501750.64     1080.431    -7464.368    9.4161105 
   36000    3942.9726     21253.46    503429.48    1043.2929   -7459.6912     9.429918 
   37000    3849.6255    21390.383    491479.18    1018.5937   -7455.4635    9.3695559 
   38000    3919.6277    21415.092    481890.98    1037.1159    -7488.187    9.3587452 
   39000    3995.2979    21280.849    509211.76    1057.1379   -7426.9346    9.4177815 
   40000    4092.9708    21195.487    510251.78    1082.9817   -7464.8481    9.4557106 
   41000    3889.1507    21230.213    494869.44    1029.0518   -7508.4094     9.440244 
   42000    4067.0239    21321.307    500584.11    1076.1163   -7449.9988    9.3999109 
   43000    4021.7609    21365.214    491110.99    1064.1399   -7467.3947    9.3805933 
   44000    3937.1229    21320.955    495081.93    1041.7451   -7466.9491     9.400066 
   45000    3986.3944    21239.718    513386.06    1054.7821   -7420.2068    9.4360191 
   46000    4027.4982    21276.289     505874.5     1065.658   -7448.3332       9.4198 
   47000      3920.23    21300.471    489793.99    1037.2753   -7498.0804    9.4091057 
   48000    4091.7313    21304.737    505825.08    1082.6538   -7437.3771    9.4072218 
   49000    4058.0979    21257.224    510525.71    1073.7545   -7435.5493    9.4282485 
   50000    4101.5061    21229.702    505518.34    1085.2401   -7479.9215     9.440471 
   51000    3933.4266    21287.324    495150.76    1040.7671   -7487.4662    9.4149169 
   52000    4051.8911    21276.557    504434.57    1072.1122     -7450.73    9.4196815 
   53000    4053.7296    21328.635    494614.64    1072.5987   -7479.1513    9.3966813 
   54000    4063.7746    21293.412    505987.99    1075.2565   -7436.6112    9.4122249 
   55000    3947.9318    21212.851    505171.86    1044.6051   -7477.9813    9.4479703 
   56000    4077.5273    21376.712    485875.68    1078.8954   -7496.4581    9.3755479 
   57000    4040.7271     21271.97    499112.78    1069.1583   -7486.1912    9.4217125 
   58000    3979.8812    21303.868    500333.88    1053.0587   -7457.2787    9.4076055 
   59000    4045.5426    21289.074    493800.19    1070.4324   -7504.0988     9.414143 
   60000    4074.6129    21376.456    489751.23    1078.1243   -7478.5527      9.37566 
   61000     4005.061    21246.401    510038.21    1059.7212    -7438.356    9.4330513 
   62000    4126.9089    21276.932    498872.15    1091.9616   -7482.4952    9.4195154 
   63000    4002.8623    21262.918    500824.37    1059.1394   -7476.0555    9.4257236 
   64000    4026.4352    21353.209    498126.71    1065.3767   -7449.1508    9.3858673 
   65000    3901.0673    21302.136    497727.04    1032.2049   -7462.4414    9.4083705 
   66000    3924.9298    21257.865    506203.69    1038.5188   -7447.7647    9.4279642 
   67000     4058.737    21249.778    507036.72    1073.9236   -7454.5018     9.431552 
   68000    4028.1295    21240.252    505652.82     1065.825   -7464.0413    9.4357819 
   69000    3958.8639    21470.798       473106    1047.4976   -7514.4358    9.3344638 
   70000    4043.8542    21314.575    497491.54    1069.9857   -7467.3449    9.4028797 
   71000    4114.1423    21269.958    507928.16    1088.5836    -7444.701    9.4226036 
   72000    3986.2409    21354.031    489984.71    1054.7415   -7486.6709    9.3855058 
   73000    3992.4288    21379.027     485092.7    1056.3788   -7494.3682    9.3745328 
   74000    4099.1324     21373.32    495188.59    1084.6121   -7454.5226    9.3770356 
   75000    3981.2684    21297.516    495500.63    1053.4258   -7486.4136    9.4104112 
   76000    4130.0655    21338.805    494198.56    1092.7968   -7477.4829     9.392203 
   77000    4092.6528    21268.974    502421.36    1082.8976   -7462.9118    9.4230397 
   78000    3987.4224    21233.184    497994.19    1055.0541   -7503.8729    9.4389229 
   79000    4023.1096    21320.521    487552.91    1064.4968   -7509.7739    9.4002576 
   80000    3948.6434    21288.286    500144.66    1044.7933   -7457.9813    9.4144917 
   81000    4172.0679    21197.476    514070.24    1103.9105   -7453.5725     9.454823 
   82000    3984.6736    21218.947    510311.58    1054.3268   -7448.0565    9.4452559 
   83000    3821.9648     21405.15    486281.87    1011.2747   -7467.9851    9.3630917 
   84000    4043.9809    21361.572    484967.88    1070.0192   -7507.6367    9.3821927 
   85000    4041.2354    21362.159    489278.27    1069.2928   -7494.0728    9.3819348 
   86000    3931.0226    21265.143     499809.4     1040.131   -7476.9296    9.4247372 
   87000    3968.5461    21280.814    500522.43    1050.0595    -7463.501    9.4177972 
   88000    4094.9039     21220.76    509799.91    1083.4932   -7453.3836     9.444449 
   89000    4029.0895    21313.507    502336.29     1066.079   -7443.7213    9.4033508 
   90000    3958.0008    21362.599    489493.13    1047.2693   -7478.7807    9.3817417 
   91000    3969.7608    21415.377    489701.82    1050.3809   -7454.5495    9.3586206 
   92000    3981.3162    21224.684    510411.86    1053.4384   -7445.6287    9.4427031 
   93000    3929.9493    21357.669    489502.33     1039.847   -7476.6873    9.3839074 
   94000    3889.7197    21335.295    491266.14    1029.2024   -7474.7114    9.3937482 
   95000    4038.5245    21225.997    503791.41    1068.5755   -7483.6773    9.4421188 
   96000    4023.4701    21284.179     504967.7    1064.5922   -7439.3966    9.4163081 
   97000    4114.6432    21182.007    513972.45    1088.7162   -7451.8272    9.4617278 
   98000    3951.4326    21338.492    495575.58    1045.5313   -7463.4702    9.3923405 
   99000    3909.3899    21216.942    505685.16    1034.4071   -7461.4111    9.4461485 
  100000    3949.8833    21271.492    496879.22    1045.1214   -7482.6909    9.4219243 
  101000    3997.9555    21292.488    500190.92    1057.8411   -7458.6431    9.4126334 
  102000    4010.7391    21256.298    504203.44    1061.2236   -7465.8683     9.428659 
  103000    4004.9018    21279.503    493290.89    1059.6791   -7502.9011    9.4183772 
  104000    3987.1073    21293.133    495860.76    1054.9707   -7488.0364    9.4123486 
  105000    4172.6649    21226.026    511301.22    1104.0684   -7448.2526    9.4421061 
  106000    4064.0699    21259.652     500899.4    1075.3347   -7476.2458    9.4271716 
  107000    3921.9577    21279.038    504229.92    1037.7324   -7446.0021    9.4185832 
  108000    3966.3667    21182.503    514255.44    1049.4829   -7440.8307    9.4615061 
  109000    4086.2797    21237.542    507964.81    1081.2113   -7456.4661     9.436986 
  110000    4030.5937    21336.857    500098.34     1066.477   -7443.4389    9.3930606 
  111000    4069.1006    21290.279    502277.89    1076.6658   -7455.2861      9.41361 
  112000    4065.5377     21226.21    507365.33    1075.7231   -7456.8494    9.4420243 
  113000    3890.0852    21274.654    494060.57    1029.2991   -7497.8223     9.420524 
  114000    4017.5675    21374.162    489822.73    1063.0304      -7472.2    9.3766664 
  115000    4095.8532    21287.211    500315.61    1083.7444   -7468.4788    9.4149667 
  116000    3943.9438    21268.907    503527.09    1043.5499   -7459.3392    9.4230694 
  117000    4071.6794    21412.635    481752.36    1077.3481   -7499.8751    9.3598187 
  118000    4015.6087    21249.345    505164.19    1062.5121   -7456.9186     9.431744 
  119000    4087.8871    21192.355    519113.78    1081.6366   -7422.4425    9.4571077 
  120000    4090.2586    21486.377    477041.95    1082.2641    -7489.346    9.3276958 
  121000    3976.8467    21306.387    495761.24    1052.2558   -7476.0819    9.4064933 
  122000    4057.1545      21239.8    508201.53    1073.5049   -7454.5547    9.4359826 
  123000    3937.4475    21305.566    501200.97     1041.831   -7448.1343    9.4068557 
  124000    3937.4834     21347.14    488229.27    1041.8405   -7492.5403    9.3885355 
  125000    4008.4894    21250.042    507132.33    1060.6283   -7446.3382    9.4314348 
  126000    4057.0627    21267.675    507473.38    1073.4806   -7445.1598    9.4236153 
  127000    3960.6015    21280.532    502316.23    1047.9574   -7453.5706    9.4179218 
  128000    3986.8255    21368.807    486865.59    1054.8961   -7488.4162    9.3790162 
  129000    3996.1818    21345.609    492106.64    1057.3718   -7482.0889     9.389209 
  130000    3895.6483    21239.742    506976.73    1030.7711   -7449.6483    9.4360087 
  131000    3915.6733     21252.39    507044.11    1036.0696   -7443.2484     9.430393 
  132000    3994.7222    21228.332    503874.23    1056.9856   -7469.6554    9.4410801 
  133000    3890.3322    21219.287    513844.17    1029.3645   -7421.2277    9.4451047 
  134000     4021.011    21301.182    500880.82    1063.9415   -7454.9638    9.4087918 
  135000    3943.0872    21326.745    498832.72    1043.3232   -7451.2584    9.3975143 
  136000    4031.1245    21352.565    488115.25    1066.6175    -7496.685    9.3861506 
  137000    3967.8952    21295.613    499111.14    1049.8873   -7464.5764    9.4112522 
[...]
  120000    4395.7685    21477.547    492281.51    1163.1006   -7437.6674    9.3315305 
  121000    4310.5642    21483.844    499915.14     1140.556   -7389.0713    9.3287954 
  122000    4084.8033    21361.411    503731.66    1080.8207   -7412.8067    9.3822636 
  123000    4281.4474     21521.84    496434.46    1132.8518   -7382.7961    9.3123256 
  124000    4223.0906    21387.823    505433.84    1117.4108   -7406.2832    9.3706773 
  125000     4323.358    21569.351    485674.56    1143.9411   -7420.2382    9.2918134 
  126000    4276.8041    21514.297     492531.7    1131.6232   -7403.2906    9.3155908 
  127000     4333.956    21350.328    512614.63    1146.7453   -7391.4159     9.387134 
  128000    4437.8396    21450.639    502330.88    1174.2325   -7405.8866    9.3432363 
  129000    4190.9662    21443.476     498388.9    1108.9109   -7399.6627     9.346357 
  130000    4297.9944    21520.652    490697.34    1137.2301   -7418.8634    9.3128399 
  131000    4264.1039    21374.427    503971.24    1128.2628   -7416.4661      9.37655 
  132000    4176.4966    21361.937     508149.1    1105.0823   -7394.6266    9.3820324 
  133000    4276.6055     21432.31    506547.57    1131.5706   -7371.9773    9.3512267 
  134000     4354.715    21429.459    503322.16    1152.2381   -7401.9295    9.3524705 
  135000    4307.6331    21342.379    515946.71    1139.7804   -7374.6369    9.3906299 
  136000    4274.7669    21464.927    501525.58    1131.0842   -7386.4089    9.3370169 
  137000    4384.5431     21535.97    483951.96    1160.1305   -7444.7073    9.3062161 
  138000    4165.6261    21435.453    493758.83     1102.206   -7431.8712    9.3498552 
  139000    4302.5822     21367.46    509474.75     1138.444   -7388.0914    9.3796074 
  140000    4325.7317    21257.548    525333.63    1144.5692   -7380.0688    9.4281047 
  141000    4376.5966    21450.974    503733.94    1158.0278    -7386.744    9.3430901 
  142000    4259.7072    21510.318    494261.43    1127.0994   -7403.5319    9.3173141 
  143000    4361.0807      21428.1    504294.98    1153.9224   -7394.5886     9.353064 
  144000    4262.9136    21470.257    502363.37    1127.9478   -7385.1028     9.334699 
  145000    4335.4906    21316.721    516438.13    1147.1514   -7391.5829     9.401933 
  146000    4329.0518    21468.431    501688.34    1145.4477   -7380.3624    9.3354929 
  147000    4272.1549    21438.653    502249.37     1130.393   -7401.2656    9.3484597 
  148000    4269.9955    21423.913    501274.81    1129.8217   -7400.2982    9.3548918 
  149000    4230.5854    21363.753     512018.8    1119.3939   -7384.5831    9.3812349 
  150000    4432.8238    21453.249    501192.39    1172.9053   -7401.3868    9.3420995 
  151000    4403.9644    21446.955    498714.64    1165.2692   -7418.2604     9.344841 
  152000    4231.2838    21401.837    510995.92    1119.5787   -7365.5037    9.3645412 
  153000    4328.4334    21416.566    512938.08    1145.2841    -7353.399    9.3581011 
  154000     4310.012    21504.571    488673.98    1140.4099    -7434.161    9.3198042 
  155000    4186.0007    21531.642    485659.16     1107.597   -7432.0859    9.3080867 
  156000     4387.382    21480.326    501281.94    1160.8816   -7378.2729    9.3303232 
  157000    4325.6368    21490.844    497407.39    1144.5441   -7396.6106    9.3257569 
  158000    4289.8171    21485.993    495269.91    1135.0664   -7408.6527    9.3278623 
  159000    4320.8128    21693.468    478267.98    1143.2677   -7398.5121    9.2386511 
  160000    4258.2973    21510.198    490186.46    1126.7264   -7413.6394     9.317366 
  161000    4404.4034     21469.01    495981.53    1165.3854   -7414.9623    9.3352411 
  162000    4375.0285    21490.663     499133.1    1157.6129   -7396.9663    9.3258352 
  163000    4238.4025    21358.379    506951.42    1121.4623   -7411.2083    9.3835954 
  164000    4195.9453    21475.862    494267.42    1110.2283   -7410.2427    9.3322629 
  165000    4302.6298    21538.056     487105.1    1138.4565   -7427.4082    9.3053146 
  166000    4219.5098    21430.427    504759.47    1116.4634   -7388.4035    9.3520481 
  167000    4398.3395    21316.511    512649.05    1163.7809    -7408.734    9.4020256 
  168000    4260.1255    21373.542    513478.77    1127.2101   -7367.1572    9.3769385 
  169000    4413.8171    21467.053    499037.42    1167.8762   -7410.9776    9.3360924 
  170000    4303.4851    21481.386    489981.75    1138.6829   -7438.9297    9.3298628 
  171000    4310.4785    21350.565    511789.67    1140.5333   -7388.3191    9.3870295 
  172000    4305.0161     21434.88       507941     1139.088    -7365.851    9.3501053 
  173000    4375.8591    21476.324    500870.46    1157.8327   -7399.7541    9.3320618 
  174000    4244.6381     21470.69    492486.28    1123.1122   -7424.4012    9.3345106 
  175000    4252.8512    21465.295    493259.43    1125.2854   -7430.1162    9.3368569 
  176000    4266.2663    21529.049    494265.91    1128.8349    -7392.421    9.3092074 
  177000    4387.8694    21488.316    494181.11    1161.0106   -7426.4992    9.3268539 
  178000    4260.2121     21391.73    505684.94     1127.233   -7395.2855     9.368966 
  179000    4442.0994    21473.952    499404.71    1175.3596   -7407.3851    9.3330929 
  180000    4370.0257     21490.02    499673.46    1156.2892   -7388.6111    9.3261145 
  181000    4356.1318    21466.218    498915.62    1152.6129   -7409.5555    9.3364554 
  182000    4158.2717    21523.985    491000.56      1100.26   -7408.0605    9.3113979 
  183000    4276.4949        21652    476067.39    1131.5414   -7428.0171    9.2563452 
  184000    4373.4256    21513.704     485630.3    1157.1888   -7447.5418    9.3158474 
  185000    4375.4929    21488.897    501801.05    1157.7358   -7379.1191    9.3266017 
  186000    4295.2108    21553.538    495891.47    1136.4935   -7377.6027    9.2986303 
  187000    4185.6945    21381.939     505272.7     1107.516   -7399.6104     9.373256 
  188000     4322.678    21333.309    515047.17    1143.7612   -7387.1566    9.3946227 
  189000    4343.9385    21346.809    514135.84    1149.3867   -7378.3958    9.3886812 
  190000    4234.0271    21448.604    499974.04    1120.3046    -7395.271    9.3441228 
  191000    4206.3304    21545.121    487207.45    1112.9762   -7414.1277    9.3022632 
  192000    4332.1357    21463.767    495267.95    1146.2637   -7422.2239    9.3375216 
  193000    4210.4931    21447.803    492334.39    1114.0776    -7443.873    9.3444716 
  194000    4250.2837    21543.325    483893.34     1124.606   -7436.7167    9.3030387 
  195000    4190.7369    21482.447     488789.4    1108.8502   -7439.9622    9.3294023 
  196000    4309.4992    21545.004    486128.07    1140.2742   -7425.7866    9.3023138 
  197000    4264.8542    21384.166    506897.27    1128.4613   -7406.3124    9.3722796 
  198000    4450.6497    21438.293    508863.35     1177.622   -7369.8432     9.348617 
  199000    4259.9082    21327.886    513019.58    1127.1526   -7396.7268    9.3970113 
  200000    4335.3516    21501.787    489951.29    1147.1146   -7432.5059    9.3210105 
  201000    4245.5874     21451.62    495717.47    1123.3634   -7420.4822    9.3428089 
  202000    4276.8847    21574.269    483909.04    1131.6445   -7421.1914    9.2896954 
  203000    4306.5087    21413.953    507605.62    1139.4829    -7383.316    9.3592428 
  204000    4285.6554    21368.557    515675.17    1133.9652   -7361.7545    9.3791259 
  205000    4170.4229    21467.645    499591.12    1103.4752   -7390.4106    9.3358349 
  206000    4305.5964    21513.749    486521.04    1139.2415   -7447.2407    9.3158279 
  207000    4242.4543    21317.881    513913.84    1122.5344   -7396.5204    9.4014217 
  208000    4215.9539    21428.954    504740.75    1115.5225   -7377.5345    9.3526908 
  209000    4322.3839    21319.806    518113.65    1143.6834   -7373.4016    9.4005727 
  210000    4281.8302    21406.562       510121    1132.9531   -7371.1032    9.3624745 
  211000    4370.3729    21537.297    491913.05    1156.3811   -7403.3666    9.3056425 
  212000    4234.4395     21456.12    497130.71    1120.4137   -7406.2887    9.3408494 
  213000    4382.7311    21420.847    497801.92     1159.651   -7431.2395    9.3562306 
  214000    4409.6896    21383.654    511150.72    1166.7841   -7384.7407    9.3725043 
  215000    4219.6279    21357.168    509746.99    1116.4946   -7387.2886    9.3841275 
  216000    4337.0968    21383.488    504970.68    1147.5764   -7409.9134    9.3725771 
  217000     4369.029    21465.807    499016.18    1156.0255   -7409.5323    9.3366342 
  218000    4157.7377    21484.078    490762.57    1100.1188   -7426.1599    9.3286938 
  219000    4307.4416    21607.812    480195.39    1139.7297    -7424.626    9.2752744 
  220000    4338.9888    21443.317    498746.99     1148.077   -7415.6921    9.3464265 
  221000    4318.2405     21560.97    493764.37    1142.5871    -7385.243    9.2954254 
  222000    4445.1078    21573.135    485379.43    1176.1556   -7422.4497    9.2901835 
  223000    4285.9853    21506.551       494768    1134.0525   -7406.4223    9.3189458 
  224000    4376.9863    21409.615    507828.71     1158.131   -7380.9517    9.3611393 
  225000    4350.2325    21452.796    501062.28     1151.052   -7400.9536    9.3422966 
  226000    4245.0261    21380.742    506071.25    1123.2149   -7407.6829    9.3737806 
  227000    4237.8125    21437.055    501673.96    1121.3062   -7388.4376    9.3491569 
  228000    4462.2134    21505.432    500503.38    1180.6817   -7391.7275    9.3194309 
  229000    4268.9476    21323.095    507676.93    1129.5444   -7422.9075    9.3991226 
  230000    4337.0451    21359.846    510970.58    1147.5627   -7394.1789    9.3829511 
  231000    4375.6071    21353.824    516580.33     1157.766   -7368.9188    9.3855971 
  232000    4275.6532    21563.107    488567.07    1131.3187   -7405.8675     9.294504 
  233000    4231.2983    21452.572    499223.18    1119.5826   -7411.4147    9.3423942 
  234000     4425.636    21342.584    508318.82    1171.0034   -7419.0331    9.3905398 
  235000    4377.0127    21417.399    508675.73    1158.1379   -7379.8105    9.3577371 
  236000    4371.8606     21529.58    489939.77    1156.7747   -7416.3667    9.3089778 
  237000    4324.7909    21526.581    491316.63    1144.3203   -7409.4761     9.310275 
  238000    4318.9634    21498.934    487358.54    1142.7784   -7446.4354    9.3222474 
  239000    4219.4874    21408.829    509129.26    1116.4575   -7373.0167     9.361483 
  240000     4271.396    21352.399    520063.47    1130.1922   -7353.6758    9.3862232 
  241000    4288.9445    21448.827    500921.51    1134.8355   -7399.4787    9.3440253 
  242000    4214.9931    21432.374    502358.82    1115.2683   -7391.7554    9.3511988 
  243000    4399.9244    21313.695    526441.47    1164.2003    -7343.171    9.4032679 
  244000    4294.1017    21450.278    500791.07    1136.2001   -7400.0577    9.3433932 
  245000    4403.7009    21592.522    482277.81    1165.1995   -7435.8882    9.2818422 
  246000    4349.3453    21548.944    489990.68    1150.8173   -7411.7988    9.3006129 
  247000    4133.1098    21401.555       511823    1093.6023   -7353.8062    9.3646645 
  248000    4336.8626     21447.21    500804.93    1147.5144   -7406.4326    9.3447301 
  249000    4235.1365    21362.266    509951.55    1120.5981   -7390.7165    9.3818879 
  250000    4312.6572    21459.625    496432.36    1141.1097   -7415.0631    9.3393239 
Loop time of 512.806 on 8 procs for 250000 steps with 2048 atoms

Performance: 42.121 ns/day, 0.570 hours/ns, 487.514 timesteps/s
124.5% CPU use with 4 MPI tasks x 2 OpenMP threads

MPI task timing breakdown:
Section |  min time  |  avg time  |  max time  |%varavg| %total
---------------------------------------------------------------
Pair    | 302.74     | 307.74     | 312.75     |  21.5 | 60.01
Neigh   | 6.2207     | 6.3349     | 6.4326     |   3.6 |  1.24
Comm    | 20.075     | 24.983     | 30.047     |  76.0 |  4.87
Output  | 0.0056977  | 0.011369   | 0.013271   |   3.1 |  0.00
Modify  | 172.53     | 172.76     | 172.93     |   1.1 | 33.69
Other   |            | 0.9837     |            |       |  0.19

Nlocal:        512.000 ave         518 max         508 min
Histogram: 1 1 0 0 0 1 0 0 0 1
Nghost:        2948.75 ave        2957 max        2935 min
Histogram: 1 0 0 0 0 1 0 0 0 2
Neighs:        44563.0 ave       46491 max       43251 min
Histogram: 1 1 0 0 1 0 0 0 0 1

Total # of neighbors = 178252
Ave neighs/atom = 87.037109
Neighbor list builds = 6469
Dangerous builds = 0


# fix 132 all momentum 100 linear 1 1 1 angular
fix out_file_1 all print 1000 "$(step) $(temp) $(press) ${sys_press} $(vol) $(ke) $(pe) $(density)" file one_phase_${sim}_press_$P_$T_.txt screen no title  "step temp press pressGiga vol ke pe density"
fix out_file_1 all print 1000 "$(step) $(temp) $(press) ${sys_press} $(vol) $(ke) $(pe) $(density)" file one_phase_heating_press_$P_$T_.txt screen no title  "step temp press pressGiga vol ke pe density"
fix out_file_1 all print 1000 "$(step) $(temp) $(press) ${sys_press} $(vol) $(ke) $(pe) $(density)" file one_phase_heating_press_500000_$T_.txt screen no title  "step temp press pressGiga vol ke pe density"
fix out_file_1 all print 1000 "$(step) $(temp) $(press) ${sys_press} $(vol) $(ke) $(pe) $(density)" file one_phase_heating_press_500000_4300_.txt screen no title  "step temp press pressGiga vol ke pe density"

# dump 3 all custom 1000 traj_npt_new.lammpstrj id type x y z
run 50000
Last active /omp style is pair_style eam/alloy/omp
Per MPI rank memory allocation (min/avg/max) = 4.354 | 4.354 | 4.354 Mbytes
Step Temp Volume Press KinEng PotEng Density 
  250000    4312.6572    21459.625    496432.36    1141.1097   -7415.0631    9.3393239 
  251000     4287.411    21561.523    481377.57    1134.4297   -7443.2834    9.2951868 
  252000    4148.7795    21370.984    506928.51    1097.7485   -7395.8281     9.378061 
  253000    4286.1221    21415.316    506104.18    1134.0887   -7381.8299    9.3586472 
  254000    4097.9377    21357.376    508070.93     1084.296   -7391.3726     9.384036 
  255000    4255.8984    21422.593    504001.94    1126.0916   -7392.9006    9.3554681 
  256000    4202.2795    21409.015    505495.35    1111.9043   -7389.2913    9.3614016 
  257000    4209.5966    21612.794    482861.06    1113.8404   -7402.0507    9.2731363 
  258000     4261.826     21472.55     496497.8    1127.6601   -7404.4418     9.333702 
  259000    4319.6708    21367.256    514622.38    1142.9655   -7376.1276     9.379697 
  260000    4242.7663     21344.57    505558.34     1122.617   -7420.3283    9.3896663 
  261000    4344.4482    21526.299       485865    1149.5215   -7437.8145    9.3103968 
  262000    4416.5129    21501.299    501651.04    1168.5895    -7381.126    9.3212224 
  263000    4337.7759    21396.883    505422.48    1147.7561   -7407.1944    9.3667093 
  264000    4301.7864    21583.285     489521.6    1138.2334   -7391.2748    9.2858148 
  265000    4346.2023    21531.584     482155.6    1149.9856   -7450.8361    9.3081117 
  266000    4227.3549    21360.572    505474.01    1118.5392   -7415.4801    9.3826319 
  267000    4371.4351    21395.703     507462.1    1156.6621   -7399.1725    9.3672259 
  268000    4250.8137    21539.672    492644.09    1124.7463   -7395.7774    9.3046165 
  269000    4284.4078    21467.526    498979.77    1133.6351   -7397.3139    9.3358867 
  270000    4363.0278    21541.274    485943.63    1154.4376   -7430.2353    9.3039246 
  271000    4249.4758    21449.485    500110.68    1124.3922   -7388.8978    9.3437387 
  272000    4324.0766    21631.063    479925.16    1144.1313   -7413.3388    9.2653045 
  273000    4277.7077    21536.555    482261.14    1131.8623   -7450.1175    9.3059633 
  274000    4290.3209    21480.144    501529.04    1135.1997   -7378.4578    9.3304024 
  275000    4364.7003    21386.168    507349.62    1154.8801   -7409.4424    9.3714022 
  276000    4322.1722    21521.734    494824.88    1143.6274   -7398.1419    9.3123717 
  277000    4251.5587    21416.228    505038.12    1124.9434   -7392.6772    9.3582488 
  278000    4377.4671     21476.06    500720.79    1158.2582   -7396.4595    9.3321767 
  279000    4191.8381    21439.046    495014.93    1109.1416   -7424.3052    9.3482885 
  280000    4262.2389    21488.479    494821.93    1127.7693   -7405.8629    9.3267833 
  281000    4282.0236    21567.951    483279.98    1133.0042   -7427.6778    9.2924164 
  282000    4201.4038    21399.671    507104.58    1111.6726   -7378.7406    9.3654893 
  283000    4338.1233     21464.24    497515.12     1147.848   -7409.8111    9.3373159 
  284000    4287.4772     21398.31    502235.25    1134.4473   -7417.9191    9.3660846 
  285000     4302.382    21520.773       489327     1138.391   -7420.8292    9.3127874 
  286000    4316.6115    21579.722    488605.62     1142.156   -7395.8355    9.2873478 
  287000     4279.189    21428.982    504267.98    1132.2542   -7395.4593    9.3526789 
  288000    4051.1967    21424.058    499921.04    1071.9285   -7403.3012    9.3548283 
  289000    4352.1256    21370.346     515693.7    1151.5529   -7367.5197    9.3783406 
  290000    4306.3173    21421.414    507467.29    1139.4322   -7375.3446     9.355983 
  291000    4233.1251     21483.93     494927.1    1120.0659    -7410.458    9.3287583 
  292000    4274.0938    21563.651    485819.66     1130.906   -7418.7389    9.2942697 
  293000    4368.7953    21415.728    502525.74    1155.9636   -7411.6522    9.3584672 
  294000    4353.4477    21349.281     515123.9    1151.9027   -7374.2838    9.3875942 
  295000    4222.7003    21429.438    506431.71    1117.3076   -7380.4102    9.3524799 
  296000    4260.2367    21489.554    496473.29    1127.2395   -7404.7035    9.3263165 
  297000    4294.0453    21444.336    499879.04    1136.1851   -7397.2242    9.3459822 
  298000    4177.8397    21391.315    507028.93    1105.4377    -7388.222    9.3691475 
  299000    4241.4863    21571.167    487220.55    1122.2783   -7401.4678    9.2910311 
  300000    4200.7899    21504.412    486937.54    1111.5102   -7441.5174    9.3198728 
Loop time of 105.806 on 8 procs for 50000 steps with 2048 atoms

Performance: 40.830 ns/day, 0.588 hours/ns, 472.564 timesteps/s
125.1% CPU use with 4 MPI tasks x 2 OpenMP threads

MPI task timing breakdown:
Section |  min time  |  avg time  |  max time  |%varavg| %total
---------------------------------------------------------------
Pair    | 62.871     | 63.723     | 64.586     |   8.1 | 60.23
Neigh   | 1.2688     | 1.2921     | 1.3114     |   1.7 |  1.22
Comm    | 4.3757     | 5.2201     | 6.0849     |  28.8 |  4.93
Output  | 0.0011141  | 0.0017885  | 0.0020146  |   0.9 |  0.00
Modify  | 35.323     | 35.366     | 35.402     |   0.5 | 33.43
Other   |            | 0.2028     |            |       |  0.19

Nlocal:        512.000 ave         520 max         504 min
Histogram: 1 0 0 1 0 0 1 0 0 1
Nghost:        2960.75 ave        2973 max        2954 min
Histogram: 1 0 2 0 0 0 0 0 0 1
Neighs:        44437.8 ave       46064 max       42800 min
Histogram: 1 0 0 1 0 0 1 0 0 1

Total # of neighbors = 177751
Ave neighs/atom = 86.792480
Neighbor list builds = 1291
Dangerous builds = 0

unfix temp
unfix out_file_1


write_data after_${sim}_press_$P_$T.in
write_data after_heating_press_$P_$T.in
write_data after_heating_press_500000_$T.in
write_data after_heating_press_500000_4300.in
System init for write_data ...
Last active /omp style is pair_style eam/alloy/omp
write_restart after_${sim}_press_$P_$T.lmp
write_restart after_heating_press_$P_$T.lmp
write_restart after_heating_press_500000_$T.lmp
write_restart after_heating_press_500000_4300.lmp
System init for write_restart ...
Last active /omp style is pair_style eam/alloy/omp

next loopVar  #<----->
jump in.lmp ensemble
























Total wall time: 1:02:58
