LAMMPS data file via write_data, version 29 Oct 2020, timestep = 250000

2744 atoms
1 atom types

0.43592028222668944 24.37207971777479 xlo xhi
0.43592028222668944 24.37207971777479 ylo yhi
4.798192807838483 54.867704144893764 zlo zhi

Masses

1 58.933

Atoms # atomic

2120 1 2.8169640732404666 2.126267324678829 6.893112921260588 -2 -1 -1
1761 1 2.5474981349120465 3.7317080455687837 5.015833959325777 2 1 0
1880 1 1.1921893665741061 1.7016375431862643 8.451700978323064 1 0 1
8 1 1.04220929239553 3.900686121295254 7.230319700775879 0 0 0
757 1 1.1180507657690053 24.069950763353777 6.677292779349537 0 0 0
104 1 2.951961418470542 3.7073600890899314 8.932472914027404 0 0 0
7 1 4.318090960906271 3.9103417145776027 7.012657177187511 0 0 0
2122 1 0.8885474454329658 2.2708130466894634 5.389182698321242 2 1 0
1973 1 21.2399090907894 15.825660334065276 5.245935004943025 1 -2 2
135 1 5.971029465894325 3.859268378812386 5.419964908903705 0 0 0
107 1 5.8926091235061255 2.148964284680784 6.90876010569893 0 0 0
39 1 7.594168031626963 3.8231569447989524 7.26515602027958 0 0 0
975 1 18.12542964989555 21.43069829970825 13.818152312461743 0 0 0
2211 1 4.518210974359269 2.295695615322066 5.341976413031526 0 0 0
133 1 5.667937323630199 3.8984329941056957 8.71300235507777 0 0 0
108 1 7.594159641620699 2.05048509161801 8.645333043421736 0 0 0
2416 1 9.46323179449445 1.6481238215849767 7.2417422669154305 0 1 1
14 1 10.551068918350609 3.5720692373199654 7.078202837592547 0 0 0
139 1 9.427711763077857 3.8639878762235487 9.045936818640898 0 0 0
2501 1 9.122177689655244 3.8101419594246306 5.526202762534072 0 2 1
35 1 7.796070121889754 5.6382574085545745 5.063417806991127 0 0 0
765 1 9.565852783339396 0.4987669641426429 5.375692810746556 0 1 0
16 1 9.136223470718154 24.206596621961793 9.205102062059588 0 -1 0
1733 1 12.70426423594281 1.7976436057419938 7.150133714181042 1 0 2
75 1 14.529968744631097 3.7584007084977857 7.159277381488694 0 0 0
772 1 12.983365198699792 24.342068563598794 4.897297527871955 0 0 0
24 1 16.52319650777238 2.0919356882687685 7.1758751519655135 0 0 0
31 1 3.0695346282911977 24.069320616840503 5.4174041303609055 0 -1 0
19 1 16.476203587010957 0.5662830433852473 9.017569238152358 0 0 0
1532 1 14.920401810751617 0.5007413921663293 7.027223644744023 2 0 0
1595 1 16.2664324937176 4.101738468807841 8.591489131290679 -1 0 0
2362 1 12.998086367993663 3.723927471968097 5.407581002558696 0 2 0
56 1 16.30689510362014 3.8725253516347387 5.246454736701614 0 0 0
4 1 19.56938152754778 2.253680637529654 7.253781289180898 -1 0 0
152 1 18.045833355645 3.8287252790360973 7.0853107705769 0 0 0
780 1 17.871946201420943 1.9601060280289941 5.357156855598093 0 1 0
55 1 19.56149734207103 3.6304105116585648 5.722112146644593 0 0 0
23 1 19.592911946357077 24.104347759239655 8.869756248565453 0 -1 0
1707 1 19.681911045227228 0.7599068215244127 5.516577911929623 -1 0 0
20 1 18.022640958470053 0.45975624698682793 7.17831136985045 0 0 0
124 1 23.256923565203163 2.0389550447216367 7.195399606431591 0 0 0
127 1 21.412062511839824 4.2882119357359585 7.1119861456543925 -1 0 0
2149 1 21.495698494320045 2.2092149626303987 5.621164680388189 0 1 0
29 1 23.090019060293738 3.7906536940296505 5.640272188122021 -1 0 0
126 1 21.363860988424598 2.210764811964121 8.594083865884432 0 0 0
783 1 21.53325580370795 0.4785560685828898 7.02409962181849 0 1 0
2464 1 23.04450807867354 0.7526076698594033 5.401275215189205 -1 2 1
59 1 2.6594486779736344 5.585064573934037 6.953334612888508 0 0 0
1957 1 0.9576668446320994 7.480397047186187 6.927067842412647 -1 1 2
159 1 2.597221051473409 7.393116700985903 4.9521056271620125 0 0 0
1629 1 4.531631579134253 7.344122254784999 6.833603134424928 -1 1 0
2612 1 1.070048005984852 5.326333926695614 5.232110470584227 1 1 1
131 1 4.020606743260813 5.693067851622916 8.80764238806637 0 0 0
32 1 2.3500912596023973 7.488800017118879 8.974179734338938 0 0 0
40 1 5.982004657683167 5.471086222332203 7.170561022056393 0 0 0
163 1 7.726233792316527 7.7149631511839925 7.424025497766646 0 0 0
138 1 7.459486838495517 5.482236125965824 8.8130881371879 0 0 0
132 1 5.688757608905499 7.678824594536666 8.634040101020254 0 0 0
706 1 4.0877502828308545 15.643056005530283 5.37477121765194 0 0 0
2164 1 4.37718706167262 5.5550106588697234 5.122711850450851 0 0 0
2723 1 6.191937278858947 7.229105714831973 5.3478770878140205 -2 0 2
38 1 9.40996646365614 7.472477231181647 5.491471721115037 0 0 0
43 1 11.380584104533515 7.229351575712848 7.228155234662774 0 0 0
136 1 8.986115838339376 5.867289549327538 6.98657099586978 0 0 0
41 1 11.033410942450107 5.7921638989243345 5.1941842763662605 0 0 0
143 1 11.07172776724649 5.634692661737662 8.722117805849884 0 0 0
47 1 12.672634986643208 7.289340230981731 5.233117401756264 0 0 0
18 1 12.811953437518026 5.389063358045588 6.99829152199154 0 0 0
51 1 14.38963803710321 7.064268325503287 6.7224493291149585 0 0 0
144 1 13.339612001663717 7.328741868168931 8.602052475121138 0 0 0
151 1 16.38951291206709 5.556776493906916 7.154171233315624 0 0 0
73 1 16.420915178427776 6.812379979995391 5.185745432032374 0 0 0
1666 1 14.694317721493833 5.6721920156264645 5.125470264345534 -1 2 0
175 1 16.42453500774824 7.328512995486569 8.548259386024032 0 0 0
147 1 14.484170960809783 5.584720625769236 8.684650855405236 0 0 0
84 1 19.710219593315642 5.663146900301139 6.970623960360389 0 0 0
80 1 18.127811885319222 7.188167262581941 6.980652285435427 0 0 0
79 1 18.172922576515667 5.405648998067081 5.090063421477924 0 0 0
179 1 19.628772348769417 7.216846700094146 8.706084473680935 0 0 0
1949 1 19.728702019793047 7.277920902500368 5.25776687657798 -1 -1 0
148 1 18.05704368803726 5.911695278816721 8.831756933726842 0 0 0
1554 1 23.037696229345197 7.496441275988206 5.276872017060141 0 0 0
83 1 21.28148309283328 5.2613840599270665 5.190449719548598 0 0 0
100 1 23.18330105943164 5.919269121114952 6.892874944196236 -1 0 0
98 1 21.329276638341483 7.521905705338633 6.975793054201265 0 0 0
180 1 23.32026708338803 7.313723926428673 8.499992973193855 0 0 0
1535 1 1.1465947677177528 9.181557755900304 5.229557361293511 0 2 1
1777 1 2.4677109498216585 10.761462400771647 5.345544768428926 1 1 2
88 1 2.7126494519290567 8.802629182951506 7.150510385325871 0 0 0
1567 1 0.9370109170693556 10.82579446288747 6.841798126065134 1 0 -2
185 1 2.331680066127063 10.48353740553288 8.848691975298028 0 0 0
156 1 0.8108762330728745 9.063126558413233 8.82502955637918 0 0 0
61 1 4.599789974428648 8.904172584607581 4.913573614127997 0 0 0
1797 1 0.8069364284889939 12.526864062306032 5.291734869252488 2 0 1
799 1 2.517754784496433 12.265169328412703 7.013684324784433 0 0 0
785 1 0.7867723508454347 12.350870384543613 8.80122450109379 0 0 0
690 1 4.081247218277184 10.637875581892155 6.711940748694412 0 0 0
128 1 4.28213148754842 9.57868281470757 8.689758951818696 0 0 0
787 1 4.19723691851264 11.713345174091405 8.846433432003007 0 0 0
160 1 6.129500178360013 8.968620824900277 6.932740982768659 0 0 0
2499 1 7.910546394282941 10.725842662240348 7.098296059406943 -1 -1 0
1545 1 7.898678767851552 9.150523643630923 5.0952213840201175 -1 1 2
1971 1 5.964835656049266 10.547381591761358 4.897503371533682 0 -1 1
692 1 5.940263854753792 12.004105851380544 7.011586763107687 0 0 0
187 1 6.305644931493244 10.924947741142509 9.049284971616988 0 0 0
69 1 11.030690175107841 9.05002693599224 5.326113878868992 0 0 0
2148 1 9.502858213688318 9.074832042625548 7.578377215221598 1 0 0
1714 1 11.169061065708279 10.321740659146629 6.90277842003257 0 1 0
92 1 9.50298589017053 10.598842129138466 5.6040038447544855 0 0 0
71 1 14.58306804554397 8.765669497822309 5.230179562346109 0 0 0
67 1 12.853437392376135 10.241951996490055 5.115268633654796 0 0 0
48 1 12.878250315782799 8.851155437434647 7.139712466292756 0 0 0
76 1 14.447683963990533 10.812042818117325 7.064445382750273 0 0 0
172 1 15.026186260258257 8.996184945074207 8.57591363265057 0 0 0
171 1 16.502597726145854 9.104215527506494 6.86739665905462 0 0 0
793 1 14.64806234965362 12.259127996519473 8.771034144247274 0 0 0
1507 1 4.187775673359303 22.201439824342604 5.445691046231311 0 -3 2
1421 1 15.895259193247062 10.590811250386446 5.120482306243706 1 -1 -1
191 1 12.693514979411692 12.344097987272937 7.1924733162741035 0 0 0
698 1 15.930196965293774 12.56253233291755 6.677417631867996 0 0 0
57 1 17.99909732017728 9.145436267634437 5.229263706818049 -1 0 0
2146 1 19.59101850901473 8.874953346784991 7.500282056181657 1 1 1
96 1 18.15017758858844 10.754776385080966 7.246767098473978 0 0 0
699 1 19.61479908301842 10.5798297835327 8.698494494781679 0 0 0
176 1 17.860706921476883 8.972112799200803 8.887325143059261 0 0 0
696 1 19.770809168254427 10.63405615201122 5.7855507225877725 0 0 0
2373 1 23.421129651619317 9.075098808220126 6.949526394363316 0 -1 -1
2679 1 21.474072008689088 10.722321123357144 7.348894552419661 -2 0 1
1450 1 22.931151058709162 10.715243124816118 5.735562059675558 1 1 0
86 1 23.11187650752328 10.553040671841874 8.850743679674114 -1 0 0
183 1 21.514774511972384 8.962676835853914 8.903047115170047 -1 0 0
1513 1 21.348283417581097 9.055208303587516 5.147479987017532 1 0 1
687 1 23.204685482290394 12.528821651525602 7.238214367718895 -1 0 0
700 1 21.43495980475822 12.290226977131288 8.622258503054724 0 0 0
2019 1 4.520253517496735 12.366533770003587 5.08793988086285 -2 1 2
980 1 21.24787432562219 21.09971151841427 13.868793149545496 0 0 0
2736 1 2.543502635423693 15.479343028367714 7.169887145618492 0 0 0
703 1 0.7735116740309684 14.436265636795518 7.034580628788228 0 0 0
708 1 0.9183819942318099 15.945745688500864 5.249205921186805 0 0 0
803 1 2.701018456601807 13.570741289810712 8.817557969055784 0 0 0
709 1 4.484801433617307 13.67964603161248 7.181632451666504 0 0 0
1548 1 6.049878346445876 14.364777008611554 5.301942053461656 2 0 1
979 1 23.19983081608279 21.70115574038208 15.79623061042727 0 0 0
739 1 6.198711613603046 15.593771569956234 7.376029832013971 0 0 0
1729 1 7.859199383805294 15.563534366674983 5.090238413746289 1 0 -1
711 1 8.04949945026691 13.887411874672559 6.879830055396918 0 0 0
789 1 8.076060423348611 12.57159495243676 8.872670782339881 0 0 0
1469 1 7.434631662625595 12.385877866908793 5.319984994903793 2 0 0
808 1 8.062534133428487 15.456369334778454 8.670068270854948 0 0 0
807 1 5.840467411836113 13.764709578537271 8.680495587146318 0 0 0
66 1 9.4753335467298 13.584923775975016 4.896695671986538 0 0 0
189 1 9.849909388904708 12.449200629004135 7.212982654724354 0 0 0
2676 1 11.104854394364015 12.21910025767102 5.169644156444989 1 0 0
1488 1 11.27247589995803 14.17063900660591 7.338184363527563 0 -1 3
741 1 9.531189111042927 15.55291361902145 6.858480886829989 0 0 0
811 1 9.639497605960402 14.21813502983448 9.103178676384896 0 0 0
1990 1 11.502319008960093 15.824733541539 5.039735663146654 0 0 2
812 1 11.277799148978442 15.774197073895234 8.888175324311018 0 0 0
694 1 12.731216423034164 13.818684375856328 5.397111168721998 0 0 0
719 1 14.436474540379566 14.31371805127876 7.135037053295324 0 0 0
720 1 14.749632298346487 15.704874438760989 5.135645008917876 0 0 0
716 1 12.914890966227695 15.585208654357674 7.0455614302507605 0 0 0
2205 1 16.696339872936726 14.297005249390029 5.177316723725581 2 -1 -1
816 1 14.614221888683504 15.743054616142373 8.711430258079046 0 0 0
847 1 16.230475655149327 15.866388950730514 6.916987524851711 0 0 0
815 1 12.832397359947619 14.071275673027815 8.835001492275659 0 0 0
819 1 16.334312652207394 14.242527499787169 8.6819036688178 0 0 0
195 1 19.52636281421719 12.51184232284962 7.005461897562517 0 0 0
795 1 18.28017204786901 12.562527632325535 8.996016145144804 0 0 0
2704 1 18.00497255686871 12.309035981412867 5.173430439043134 -1 0 2
2707 1 19.521314516141704 14.303024131055398 5.157937124567932 1 0 2
1429 1 18.33300006553616 16.21770117710942 5.146873503419634 0 0 -3
820 1 18.001882571455933 14.416220276763358 7.032751157930328 0 0 0
728 1 19.813155797856137 15.857763226584265 6.995868558850523 0 0 0
823 1 19.650211366492268 14.481777367940069 8.806907703122697 0 0 0
749 1 17.98061019002624 15.695532342869328 8.92097234262908 0 0 0
688 1 21.16157889695491 12.339643992366321 5.144237704663172 -1 0 0
2530 1 2.5196530443692007 17.490554413545844 5.366522216752655 1 1 1
1412 1 22.929012531070207 14.059429912632213 5.355522814185505 -3 0 -1
797 1 21.523759355126767 13.933902065007242 7.144211629114708 0 0 0
727 1 22.853011776616988 15.675535264126285 6.822143619028598 0 0 0
824 1 21.257132839301565 16.0873886039915 8.889019119749662 0 0 0
827 1 23.060552362020182 14.22965942363994 8.813309858418407 -1 0 0
978 1 23.068634222465665 23.139873805530975 14.142639507337002 0 0 0
736 1 2.2707795694482487 18.977211211998135 7.146372287237796 0 0 0
2426 1 0.7504301986378433 17.263826537719662 7.300788893726778 1 2 1
831 1 2.34481241567883 17.411798161798814 8.795143484551154 0 0 0
735 1 4.30750302373757 17.223894121954014 6.820291998702478 0 0 0
2299 1 0.6871819724274939 18.993464794385197 5.073914108740808 0 1 0
828 1 0.7363025618393678 19.33722123596167 8.974567315768624 0 0 0
740 1 4.488340878536459 18.764635624290936 5.176004148972046 0 0 0
832 1 4.025397430341773 19.070548969257324 8.879555411678352 0 0 0
1856 1 7.967818905422152 19.287708113821697 5.46656591066526 -1 0 -1
836 1 6.162594843937509 18.99693237029464 7.121865741936917 0 0 0
744 1 7.819103910646925 17.31346912289477 6.959114284371611 0 0 0
737 1 5.987793491855524 16.90500281475557 5.628604706308216 0 0 0
835 1 5.785604633272414 17.554177673867656 8.709609165451479 0 0 0
771 1 9.329202341935762 19.010482243394556 6.928814710193762 0 0 0
743 1 11.031189342157694 17.150618438019162 7.1865530584584345 0 0 0
840 1 11.465734337493629 18.9876252466232 8.56489396107731 0 0 0
2364 1 11.457601655558067 19.028883355725025 5.537498493921277 1 0 1
2154 1 9.296936316403393 17.579222634612353 5.082499168174859 1 -1 -2
2213 1 16.55549638127656 17.777754372963003 5.244195879040525 0 -1 1
748 1 13.02042045361791 19.34182931243108 7.188805285860138 0 0 0
752 1 14.797203217255618 17.354872342688697 7.2127749524828495 0 0 0
843 1 12.893148083105121 17.415991546694446 8.833802800800854 0 0 0
1830 1 14.707723095461962 19.30390267931771 5.130800016806096 -1 -1 0
769 1 13.552795363836662 17.462751584427444 5.493273210233202 0 0 0
844 1 14.593921635527368 19.33263803392398 8.97278832445043 0 0 0
751 1 16.41541055381097 19.24599017425197 6.9450826179522895 0 0 0
2482 1 18.123033027373598 19.91872351351965 5.219918424203439 1 1 0
2289 1 17.884509423912988 17.45445371813638 7.286664389693781 1 0 -2
756 1 20.133229573358403 19.359337413571584 7.050957008493805 0 0 0
755 1 19.832520305747003 17.873167965325774 5.43968277144853 0 0 0
851 1 19.966275022201224 17.72081400251001 8.684653838123086 0 0 0
879 1 18.3545318845816 19.41623136270503 8.588930882377397 0 0 0
784 1 21.816761846865614 19.081164347707038 5.205361369981755 0 0 0
2151 1 23.10665452766173 17.272170360840825 5.285609109479752 1 3 2
1463 1 21.775170834882484 17.55713879338895 7.132968576265978 -1 0 -2
701 1 23.332668238167305 19.307490565980675 7.189056468240514 -1 0 0
852 1 21.487785863001072 19.394277921032234 9.03867219714591 0 0 0
764 1 2.7422277784009204 23.828214371860494 8.877444655102234 0 0 0
2412 1 4.575076347843399 0.4614611592198175 7.009583443536625 0 -1 -1
2118 1 1.1938298584384914 22.46472716093238 5.137507594004393 0 -1 -2
2709 1 2.660176990846726 20.46196118316306 5.395535541561281 1 -1 2
1872 1 0.7728488789069909 21.156208279886307 7.051183544501697 -1 -1 -1
856 1 2.615038172501766 22.58123257149865 7.122560189138225 0 0 0
782 1 0.6615440899324965 22.791305173938586 9.11684690359947 1 0 0
859 1 3.8949547066423102 20.669912544917096 7.06976932424842 0 0 0
1628 1 2.65009729942809 13.628198370964427 5.557797602855855 0 0 -1
12 1 7.500438281966104 24.295195171006327 7.043007827371104 0 -1 0
2508 1 5.950648046717424 24.225811997303058 5.290281763844986 -1 -1 0
860 1 4.554544564984406 22.208917622768244 9.09957969355927 0 0 0
1881 1 5.852387611004283 20.630815876595136 5.5404141686527275 2 0 0
2198 1 7.762118545299104 22.62136836062758 5.368916335126935 0 -2 1
763 1 5.897655554492257 22.728245897656215 6.958498402330031 0 0 0
767 1 7.7248195156139365 20.897921549137784 7.368846901855845 0 0 0
864 1 7.453072067188894 22.446809873462914 9.002502912284202 0 0 0
863 1 5.835884217153665 20.342353035031167 8.951888022107696 0 0 0
15 1 10.8425302561102 24.136063498701205 7.494409947967473 0 -1 0
11 1 11.161336401473621 22.71273339713588 5.296716174421164 0 -1 0
773 1 11.051031968390326 20.843167421649742 7.148501130269321 0 0 0
2242 1 9.33126251785067 22.36516163641264 6.695035094984299 1 0 1
2733 1 9.566897062523458 20.90955591624262 4.922757916361695 -1 -1 1
868 1 11.06283322212408 22.561858532891723 8.856095636923918 0 0 0
867 1 9.638290229375464 20.881514246046272 8.787022430406987 0 0 0
776 1 12.669712391030547 22.929278749375726 6.752740362497647 0 0 0
746 1 14.431793177664586 20.909894348869244 7.051493387709031 0 0 0
1466 1 12.80725796483353 21.002186000251584 5.172536732633 0 -1 1
775 1 16.118820363245185 21.03792026357813 5.358770584179087 0 0 0
777 1 16.158174133241985 22.62356863857365 7.203065576829677 0 0 0
871 1 12.924874675154584 20.988107228622447 8.732784329184277 0 0 0
875 1 16.39860609766024 20.627440982862936 8.631012084486219 0 0 0
1920 1 14.38768332025434 22.546471099850187 4.99276653880131 0 2 2
1765 1 16.21856528377099 23.946540266765332 5.364561946167966 -2 -3 1
1756 1 18.145960988006024 22.593212015881814 5.128540835272552 -1 0 0
753 1 20.11594310830897 21.14770793201379 5.294880764613971 0 0 0
1739 1 18.131453072307053 21.260285602755943 6.94644092631082 -1 -1 2
779 1 19.674954923243288 22.81059991310482 6.78292100607376 0 0 0
876 1 17.639329276474296 22.330726596497232 8.89988082701493 0 0 0
2394 1 21.710824451085905 22.76384540709441 5.098634834547983 -1 2 2
222 1 23.05974233834317 0.6083559040638229 9.1087078394836 0 0 0
2710 1 21.61073759442547 21.202381304945305 7.17538637475225 -1 1 2
1725 1 23.059401307050873 22.863787187226006 7.14393352358627 2 -3 0
1402 1 23.343115513435162 20.87389674527967 5.011762299182677 -3 0 2
28 1 21.5016053085956 22.65268810521182 8.825187509520484 0 -1 0
2029 1 23.287359336098582 21.117165192759863 9.038176843945438 0 2 2
5 1 2.6066487349209466 1.8529411852757065 10.56020591320885 0 0 0
102 1 1.1855412227451008 3.6365243922607493 9.953384687310887 0 0 0
198 1 2.81036011195584 4.081308362678842 12.634825579023357 0 0 0
199 1 1.2429851540424401 2.2132034166610435 12.578466308993285 0 0 0
202 1 4.125663746928071 2.1673386463793483 12.125540045517111 0 0 0
229 1 4.176214665618618 3.950213156031703 10.840158962557503 0 0 0
103 1 4.157374597124613 1.8058782948712637 8.967045682682318 0 0 0
101 1 0.9100263330703611 0.6969638773470765 10.511419172607493 0 0 0
110 1 5.813003622946371 2.351684409162327 10.315129823320992 0 0 0
206 1 7.205477511427336 2.214104153203891 12.249198947537405 0 0 0
233 1 5.715700225543079 4.227600110682319 12.420215075083586 0 0 0
137 1 7.3253846996289 3.8081358271417263 10.288897237501892 0 0 0
205 1 5.726895692926409 24.371151436667724 12.297630388105327 0 -1 0
109 1 7.183542604925305 24.23651241218398 10.627237667726542 0 -1 0
112 1 11.132059233595125 2.198398980859211 8.711549552309883 0 0 0
114 1 8.990384734008051 1.800232824416301 10.597454120786516 0 0 0
210 1 10.930162062959027 2.1563691080403355 12.374179278753061 0 0 0
237 1 9.28416893095207 3.728122604701419 12.23381014664471 0 0 0
141 1 11.274293990985871 3.5868237261433884 10.429878539922486 0 0 0
209 1 9.030923753004544 0.4412654755062291 12.496552486751845 0 0 0
774 1 13.057116610119577 3.7850096691210076 8.641376870427239 0 1 0
119 1 14.386496039775825 2.05165809458978 8.674707951298686 0 0 0
113 1 12.904046149266334 2.018006841462129 10.644497930350049 0 0 0
118 1 14.694955340453703 4.006588233931273 10.500127266226137 0 0 0
214 1 14.334462007217997 2.2418733889629854 12.231228666991342 0 0 0
241 1 12.600050828413615 3.995293094646078 12.284841458325344 0 0 0
122 1 16.184958506490016 2.4182799862973257 10.247197583563544 0 0 0
245 1 16.35707079557517 3.9574792922027733 12.472785259830758 0 0 0
116 1 18.25640713467973 2.051269955850196 9.0877635688336 0 0 0
153 1 19.71578265696754 4.186871980256088 8.741503167438871 0 0 0
120 1 19.845265170966872 2.8923024316905104 10.653542378411217 0 0 0
218 1 18.232456626670597 2.5968277709174754 12.199776388145692 0 0 0
249 1 19.934822394821175 4.296611927350449 12.497157139768449 0 0 0
149 1 18.05354298513938 4.145667182961633 10.47989231208707 0 0 0
121 1 18.59157917731583 0.654470210717784 10.661246382364268 0 0 0
27 1 23.218694325106856 3.9822941287911346 8.405188840805753 0 0 0
99 1 21.39880372615567 2.923102144182859 12.285569788385388 -1 0 0
181 1 21.861879904336707 3.8895730387271867 9.958494499546049 0 0 0
224 1 23.283232755610708 2.39639642708518 10.624670953180349 0 0 0
225 1 23.717789879616245 3.9831007688060485 12.547450767739303 -1 0 0
129 1 0.7909308715321823 5.841607033561636 8.724144081504727 0 0 0
134 1 2.293736405557806 5.481841590329531 10.54209758930564 0 0 0
257 1 2.4448469316675387 7.590108279607252 12.587736159747012 0 0 0
227 1 0.9831410217837234 5.850997211304956 12.547267016932043 0 0 0
157 1 0.7438321912189161 7.39627954251568 10.463053383032001 0 0 0
232 1 4.116869030655653 6.007825774936703 12.74062495058817 0 0 0
161 1 3.947664528635843 7.415240174388583 10.597788771519886 0 0 0
230 1 5.290527910345465 5.772724699320011 10.51970089285093 0 0 0
165 1 7.666755964763555 7.358241175740853 10.60044313337358 0 0 0
261 1 6.179607846185014 7.48898501093902 12.219349195585103 0 0 0
234 1 7.709421727628914 5.718208586203521 12.405931107628145 0 0 0
140 1 9.502239838184567 7.174999946130282 8.887348373685757 0 0 0
142 1 9.000246852880457 5.34109135120761 10.406502399595619 0 0 0
265 1 9.126205631584794 7.212254588398647 12.42020617123497 0 0 0
169 1 10.802465255839573 7.135917533064198 10.68787539112121 0 0 0
238 1 10.920259150885714 5.2924136819912295 12.089083080906635 0 0 0
146 1 12.769855147994402 5.389572525163374 10.54956501342877 0 0 0
269 1 12.537978356603048 7.298575102149883 12.130589474660745 0 0 0
173 1 14.359584388226896 7.2761300537376 10.634097742194756 0 0 0
242 1 14.399702921841143 5.599003084271733 12.449479714126927 0 0 0
145 1 16.45388979451345 5.899304965167443 10.41862211507841 0 0 0
273 1 16.307769441716424 7.292808859921457 12.213404622356508 0 0 0
246 1 17.990076333208474 5.6112342779605 12.236297058433287 0 0 0
177 1 18.08792992117554 7.450377820755409 10.425284618507611 0 0 0
150 1 19.831721944747038 5.808536402488126 10.510511572703187 0 0 0
277 1 19.86863467117047 7.0572492711920045 12.483771545955154 0 0 0
130 1 21.419981352208097 5.784231032549014 8.666806989233049 -1 0 0
226 1 23.514992106103403 5.380871266406103 10.696972646502719 -1 0 0
154 1 21.42185869223547 7.271480685036473 10.782482155341118 0 0 0
250 1 21.773936634043068 5.226924645987357 12.384013100661619 0 0 0
253 1 23.083791971807177 7.413976485884415 12.4872795039898 -1 0 0
254 1 0.8689653364700203 9.149122241642893 12.164800597439262 0 0 0
162 1 2.5010167345114946 9.10706543854957 10.500410951821301 0 0 0
283 1 2.5094701935127106 10.83654968092142 12.569131363215561 0 0 0
184 1 0.8386183335102027 10.965911877404524 10.757050537182959 0 0 0
258 1 4.421681624326651 8.975769699558857 12.67541798784331 0 0 0
883 1 0.9184105787495931 12.44162818337509 12.445393785429632 0 0 0
788 1 2.875643498306446 12.473705534323694 10.757583498951286 0 0 0
885 1 4.055284845630515 12.612772823591213 12.480095994641037 0 0 0
164 1 7.564413843195476 9.217979991056007 9.098863529511874 0 0 0
186 1 3.8910696162056513 10.524330340456537 10.926422780658877 0 0 0
166 1 5.885281245115272 9.013190898977307 10.5644623744868 0 0 0
285 1 6.133751207812437 10.364714071438561 12.470861680361585 0 0 0
188 1 7.802485757722373 10.828097695427687 10.90146760695128 0 0 0
262 1 7.912943349483136 9.083237479005327 12.282210105176887 0 0 0
790 1 6.032879543410608 12.268082812967188 10.915680797258034 0 0 0
887 1 7.942018085763528 12.81870213543873 12.121396381813025 0 0 0
167 1 11.463169143790335 8.824067240850235 8.764267737203511 0 0 0
90 1 9.574634988238351 10.619463368218451 8.783764834409684 0 0 0
266 1 10.898892180619798 8.982195597908174 12.26636711686131 0 0 0
170 1 9.47434514599119 9.00536188992336 10.564934243860154 0 0 0
190 1 11.41978747331571 10.363952287815971 10.654748810928194 0 0 0
287 1 9.431239129989004 11.111873319924975 12.364572012574953 0 0 0
168 1 12.955785066087948 10.522865130289077 8.812670696341929 0 0 0
174 1 12.993620930241955 8.748187745200674 10.404477423325911 0 0 0
289 1 13.075040029254195 10.469793685243515 12.423163170026047 0 0 0
270 1 14.71265220293743 8.883613603429481 12.328741074485258 0 0 0
192 1 14.523451747059463 10.66980167158435 10.503197754475 0 0 0
291 1 16.33402262157798 10.547579923250943 12.339700993164573 0 0 0
178 1 16.300859351127208 8.817157995026099 10.47416292875496 0 0 0
891 1 14.346323536064311 12.668908334155047 12.331941108086239 0 0 0
193 1 16.447010268444803 10.880811024036015 8.597645199355606 0 0 0
274 1 18.181761755312642 8.79726634783561 12.593324148392671 0 0 0
194 1 18.0345615778938 10.475883060562996 10.397801065866993 0 0 0
293 1 19.599759775148417 10.280986000807843 12.216658346087605 0 0 0
182 1 19.840835445391793 8.880436221204953 10.561169800039394 0 0 0
278 1 21.458764915638806 9.034391058882944 12.486529347437274 0 0 0
158 1 23.00525109612422 8.92981350386312 10.708300504505784 -1 0 0
196 1 21.50265921209478 10.75807261502511 10.610093597122951 0 0 0
281 1 23.041201967191967 10.814814979546956 12.279926343645919 -1 0 0
786 1 22.768027223473577 12.313706631686824 10.212815705832172 -1 0 0
804 1 4.076162707980747 15.598448605610443 8.767360709037089 0 0 0
800 1 1.0130945393828106 15.358314633218042 8.961734444272498 0 0 0
901 1 2.3792430311596977 14.266734954769724 12.81240893169827 0 0 0
806 1 2.6217295817836046 15.53712639394629 10.836994900431172 0 0 0
801 1 0.9783250094827629 13.547124723400282 10.636903250545906 0 0 0
805 1 4.343508716436375 14.001604529695335 10.73881465237218 0 0 0
898 1 0.9957149343513517 15.803885327917513 12.823359909117665 0 0 0
902 1 3.9735297106406633 15.98775694614669 12.447327777516607 0 0 0
905 1 5.981751085735315 14.3097062640409 11.987745903489598 0 0 0
810 1 6.263292884611358 15.753233754412648 10.145770540817853 0 0 0
809 1 7.881393799203986 13.999195386644038 10.531040378557492 0 0 0
906 1 7.824132890331291 15.57210262412467 12.241439362813225 0 0 0
791 1 11.419231146330272 12.392362887225174 8.919486029666299 0 0 0
889 1 11.426895318156452 12.263449473950365 12.31568493879504 0 0 0
792 1 9.951317763221976 12.109315980008146 10.426866396311315 0 0 0
813 1 11.443424188276358 13.967657458908835 10.662353304249304 0 0 0
909 1 9.651069530903447 14.165608416829444 12.45387510563749 0 0 0
814 1 9.440612669416767 15.829631844307501 10.666173523256502 0 0 0
910 1 11.07173579013321 15.867592240219661 11.918725798947477 0 0 0
796 1 16.285286195141133 12.235815289404902 10.70326381325317 0 0 0
794 1 12.94615443601418 11.959966619402248 10.761850862712985 0 0 0
818 1 13.204461444875669 15.748488871129643 10.57695224944143 0 0 0
913 1 12.707123209642898 14.480367082609721 12.474457610045906 0 0 0
817 1 14.851454662760348 13.956889178897201 10.481659944233549 0 0 0
914 1 14.610601433736553 15.495684058875298 12.43263517092122 0 0 0
917 1 16.15891099872543 14.009582922750088 12.688034517887674 0 0 0
822 1 16.08871612745598 15.839502320538442 10.587744860600221 0 0 0
798 1 19.922909086427318 12.658233034586742 10.263887181366979 0 0 0
893 1 17.877071048873788 12.275452519729361 12.164555186871818 0 0 0
821 1 17.668024550002336 14.160897444740105 10.701259966382 0 0 0
921 1 19.56058431048051 14.298464189817777 12.212546864088853 0 0 0
918 1 17.49866734431648 15.896223751351252 12.541754195716146 0 0 0
826 1 19.660191356071856 15.958320582688435 10.463368358054385 0 0 0
895 1 21.292681663502258 12.30085914494292 12.135563766376162 0 0 0
825 1 21.418342190338837 14.247498328415741 10.785102305330398 0 0 0
897 1 23.147615048372945 14.144095082878247 12.182693000772055 -1 0 0
922 1 21.4203174530691 15.766688706533525 12.41893432067155 0 0 0
802 1 23.33629874801463 15.676860119035627 10.636507451747647 -1 0 0
929 1 2.4942496258435654 17.459982291056296 12.646284335858779 0 0 0
834 1 2.400872532052177 19.037736838914334 10.722450278646189 0 0 0
829 1 0.8229093460038333 17.276347312534153 10.889165195657363 0 0 0
926 1 0.5930866694396854 19.089173255588406 12.60864973341388 0 0 0
930 1 4.402170718234203 18.741552658223245 12.469226177057035 0 0 0
833 1 4.226369006308359 17.470720992351684 10.675772280954739 0 0 0
766 1 7.821747313816064 18.839914365476144 8.678004176946523 0 0 0
933 1 5.947150835564637 17.153893696898773 12.333130538929602 0 0 0
838 1 5.966743320886903 18.91844657733817 10.722911449257367 0 0 0
934 1 7.343176515916581 18.90048698752931 12.312249431275598 0 0 0
837 1 7.722104503432862 17.28440153963527 10.486639450104487 0 0 0
839 1 9.197460166529016 17.189050253277028 8.615907618834456 0 0 0
842 1 9.19906548371112 18.864538319711748 10.471725388049926 0 0 0
937 1 9.549304452799687 17.601182912333417 12.27098444881039 0 0 0
841 1 11.044697558746488 17.50340252689593 10.252492867454563 0 0 0
938 1 10.976275623162453 19.489346893245052 12.458698066595069 0 0 0
848 1 16.226609793606887 17.461171558869882 8.889142826519318 0 0 0
846 1 12.875384682972097 19.094389088140822 11.09830486204465 0 0 0
941 1 12.729681824179051 17.345801371592742 12.26169792782267 0 0 0
845 1 14.58501489943153 17.7239400168681 10.36282219248949 0 0 0
942 1 14.759513378299316 19.419510259014316 12.595840537500091 0 0 0
850 1 16.57774931415978 19.391189460134772 10.331206653313558 0 0 0
945 1 16.206889414471625 17.576987793190618 12.308493042343311 0 0 0
849 1 17.884568520194403 17.546003700695298 10.65109906505765 0 0 0