LAMMPS data file via write_data, version 29 Oct 2020, timestep = 150000

2016 atoms
1 atom types

-0.046157188168844954 21.31015718816851 xlo xhi
-0.046157188168844954 21.31015718816851 ylo yhi
-0.10770010572622368 49.72370010572591 zlo zhi

Masses

1 58.933

Atoms # atomic

1432 1 2.152349529220511 0.35205351466346135 1.733826106335034 0 -2 1
1051 1 2.037771348257304 1.2205480007013367 4.310871891780998 0 1 1
419 1 3.0570102373492456 2.874368815111797 2.3383910864327624 -1 1 0
410 1 1.729291375956607 3.319479874101869 4.764969308390281 0 1 0
855 1 1.3960734546623692 1.9899337085243758 0.1170193682294649 1 1 0
1163 1 4.172453002438608 1.01459720347523 2.3192059070954323 -2 1 1
94 1 -0.03667999402708233 0.6899417753760165 2.3911697076243774 1 1 0
260 1 6.622355636303741 4.280012937657794 2.262970484739538 0 0 0
1625 1 6.2672862620599314 2.199671748896943 3.1107512408509104 1 3 1
1895 1 7.813991535433916 2.5703797741823315 0.2856455304367562 3 0 1
392 1 5.569650712667089 2.956663097100907 0.607849711844732 -1 0 0
144 1 5.870317449657166 0.7070665938160284 0.49295985734833714 0 0 0
119 1 8.608765647842885 2.725046042302365 3.927976891779352 0 0 0
1075 1 9.934580819370337 21.2250499227479 0.8756621433707219 -4 3 1
327 1 10.248211942933034 2.2093559028045635 1.2502873379203976 0 0 0
1722 1 11.973213032783013 0.7297329881669113 1.5145050692033841 2 0 1
73 1 12.467767528113944 3.0794973137807804 2.4968400862780955 -1 0 0
104 1 3.3350650505893826 10.416179985754033 0.9333202939704912 0 0 0
2002 1 13.637644798576444 2.092056577940143 0.9960616715403232 1 1 1
100 1 16.0467271250246 0.7902716872141701 0.4385747314347309 -1 1 0
72 1 15.654829556846444 3.088162464172033 1.4112658747213673 0 0 0
712 1 17.140070109644835 1.3855720042701005 2.4892403961073364 0 1 0
324 1 14.931846340793028 1.0442502860733665 2.602902097762703 -1 0 0
376 1 16.681258812148627 4.261298201995895 3.679420850356948 -1 0 0
1232 1 17.944393987699133 2.16950375729794 0.48453445804628414 -2 2 1
1374 1 20.47637986914338 2.4105286405579394 0.8613362664613232 1 3 1
689 1 -0.02985033777617925 1.843238748853479 4.444283630271849 1 1 0
158 1 18.897743782736413 3.2135860334191944 2.750344686431993 0 0 0
121 1 20.351875445659584 5.152158996305562 1.858379451326991 -1 0 0
1214 1 19.199799161460287 0.6984581895888222 2.115035041393528 -4 3 1
236 1 17.872766908140566 20.980783601748993 0.6147407463439896 0 -1 0
429 1 3.385432902215835 6.184932405717785 1.744992977142637 0 1 0
32 1 3.9955778073174386 8.806963923809949 2.2268301318377506 0 0 0
214 1 1.3131906877105286 5.091536142500311 2.776027467484125 1 0 0
1402 1 2.5178795033415735 7.718280306277597 3.473219192367204 -1 1 1
1944 1 1.0404026279442344 7.195676991296734 1.589447496585897 2 0 1
713 1 0.7876934028275061 2.7710615597604478 2.5531497025439607 0 1 0
391 1 21.033613521722792 6.293898977384248 3.8747933173250098 -1 0 0
455 1 13.137897175613947 13.918046588524575 0.12954439311127217 0 0 0
432 1 10.066539623542678 5.910858527263738 0.567250849182114 0 0 0
1123 1 5.460551946159443 5.263041336036858 0.5165462403545081 0 3 1
43 1 8.487214859278302 6.473686132548945 2.4006134735087374 1 0 0
1070 1 7.358276070654602 7.1226517023363085 0.4947782190032006 -1 3 1
84 1 5.823432486960299 7.050341306392934 2.197798943304746 0 0 0
306 1 7.716951182685321 4.787174259748122 0.19913065855300977 1 0 0
845 1 17.002172020113317 18.087714536983956 11.74014152516958 -1 0 0
1025 1 7.655752534736064 7.77381276972707 4.165374616381941 3 -2 1
243 1 4.481865154767742 4.62963970576547 2.8654175409467375 0 0 0
1801 1 9.170407545224123 3.9223295290128153 2.025715913503197 -4 0 1
1790 1 10.957246075337613 7.353415803097087 1.826784322592023 -2 0 1
1970 1 9.216072888619559 8.447776478591983 0.7333282639134797 0 1 1
526 1 1.4168004201996007 19.16439839432245 0.15265833778547866 0 -1 0
204 1 11.729373546618195 5.098903240406072 2.271329920740511 0 0 0
449 1 11.641557309958891 4.122595376416641 0.2406911987766958 0 0 0
686 1 17.65018359695618 4.732943509251933 1.5780615395935964 0 1 0
358 1 14.09137777571849 4.713945294824999 2.4449108640336656 0 0 0
67 1 13.82341958336905 6.757942280743088 3.541623727005057 0 0 0
244 1 16.000221016859417 6.4100826008682805 2.815628558201169 -1 0 0
1586 1 17.951105520799498 7.042210176096031 1.2181889946663502 -4 -1 1
148 1 15.922587388309413 5.86436085023572 0.5468279220641972 -1 0 0
1288 1 13.2409453048115 6.515060587466132 0.7700153750957082 1 0 1
223 1 4.917905957176688 12.395836641531087 0.8837350281321865 0 0 0
1654 1 5.465689025497702 10.419213741507805 0.6351442782524246 -2 0 1
383 1 17.5659705989425 8.007791720952946 3.2874019406195973 0 0 0
60 1 0.9133955427570106 4.274806864199085 0.739904035592492 0 0 0
638 1 19.822843249761796 9.116534369898613 0.48495283894804775 0 0 0
188 1 20.0724102679 7.822366876680335 2.642708737268449 0 0 0
1750 1 1.6527413365669894 10.508064150452642 3.730442213736872 2 5 1
1250 1 20.74448923974589 11.767917279250398 3.953887341734492 -2 2 1
1441 1 4.847983928886302 11.153413419378984 2.6426725464312164 -2 2 1
393 1 0.7037254083605559 9.255048593605771 1.7629700788183047 1 0 0
42 1 2.8944234712710712 12.677089020942086 2.4874647751132635 0 0 0
322 1 14.499403737057897 6.56840721795925 11.99877299207631 0 0 0
508 1 7.390843279717271 18.110051001106974 10.062666317479286 0 -1 0
1425 1 1.0240752743984876 11.460207363613558 1.4362193700030872 2 0 1
385 1 5.729602356618184 9.082913597993501 3.43003498514864 -1 0 0
1085 1 7.785248016588075 10.211539045725027 4.003557045870653 0 -4 0
328 1 7.313518427193863 8.878653820223423 2.0346445240122 0 1 0
375 1 7.389486322353795 11.444221623298413 1.688982224031326 0 0 0
1839 1 9.363743111786231 11.005951163321248 1.2602139007037547 2 2 1
265 1 7.3391227321628625 12.454789380118756 4.041691608546793 0 0 0
181 1 12.223225486200892 18.16672130300177 -0.028167131351002475 -1 -1 0
114 1 11.501161905420837 9.859558369750406 2.039062053197895 0 0 0
108 1 9.471453233146251 8.683355752936613 3.1812306326766144 0 0 0
310 1 10.826304272201957 10.293857859773022 4.297419434251541 1 -1 0
1880 1 10.845090871314662 11.970835462345502 2.6535321521917647 0 4 1
1148 1 12.985537371696244 11.305208131470373 4.1018127193955625 2 1 1
1925 1 19.794078656832458 14.173584169673008 -0.015578958563644926 1 4 1
974 1 15.622964126598058 8.59911759044051 1.7536045179441226 0 -1 0
523 1 13.696852255344734 10.416948249313688 1.46001971491477 0 -1 0
1452 1 13.514573378289628 8.29451515192346 1.9049857576838871 0 2 1
386 1 20.566154262575036 5.478204186303708 11.87668667482213 -1 0 0
3 1 14.328609982447288 9.56088015827411 3.789518314360391 -1 -1 0
1516 1 16.026760472422595 10.63123000651578 0.634304213503905 -2 1 1
297 1 16.382351794968947 10.484748955653293 3.395621624254483 0 -1 0
349 1 17.862086890883553 9.323113827283953 1.613564040897933 -1 0 0
1618 1 20.05802818420935 10.16325683088888 2.4484716551414696 -1 -1 1
123 1 20.498968665728196 11.37159799047518 0.3188946484669107 0 0 0
402 1 18.197518193583278 11.937816408543366 0.9580114763537644 0 0 0
248 1 18.014496144498104 11.99131831159161 3.425049815574199 -1 0 0
1561 1 17.984434277438396 9.591512566193078 4.548796746770412 -1 2 1
222 1 16.231059749966327 12.640885190862175 2.0579513369674594 0 0 0
521 1 1.3260174489562193 19.389195526635795 10.258638855456212 0 -1 0
460 1 1.0773525543776994 14.250002644625447 2.010979512121262 0 0 0
1439 1 4.763016907848135 14.900003435691024 1.951884269667989 3 1 1
169 1 0.6161660645896054 15.175765330117907 3.7941503057784147 0 0 0
1718 1 2.8926287860714495 16.235310354917484 2.429189928792598 -1 0 1
1813 1 5.941140677522416 15.779101312321608 4.105379376023838 -1 0 1
591 1 13.90690378992137 19.93775210088088 9.339833400651559 0 -1 0
273 1 6.884076641367888 13.705885569840195 1.9293196807256687 0 0 0
442 1 5.366383818444306 13.722603728917889 3.874155565028679 1 -1 0
1128 1 6.9781195708106045 14.541506960795692 5.973045691704818 -1 2 1
165 1 9.422192445890746 11.972270232498312 4.169958870267554 0 -1 0
396 1 5.76933661768475 17.965883849570965 0.5073357468632296 0 0 0
80 1 9.119465379838596 17.91969076321891 1.4651689256642646 0 0 0
61 1 7.654951928243398 17.23208376906607 3.0499853979832965 0 -1 0
1686 1 7.050327633867919 15.703786742325265 1.8113392729847986 0 3 1
254 1 9.001091783485263 13.301679633504968 2.4133063766318217 0 0 0
1908 1 10.912336485004712 14.022924011656665 3.8715613299276477 -4 2 1
1759 1 12.823105250370014 13.302062466099196 2.670854502654649 -4 1 1
262 1 12.937932178099654 15.184437250989198 3.730980675724761 0 0 0
681 1 8.112684989762919 14.931112440352631 3.7929114554572867 0 0 0
1890 1 10.18959493852732 16.027707676548488 3.05506511613218 -1 -1 1
239 1 11.364454496852574 14.535497780659325 1.513921927990175 -1 0 0
1413 1 8.6971342343933 15.360564499114597 0.5550355749333689 2 2 1
209 1 14.506129824856492 14.460276340163174 1.8808509720562656 0 -1 0
799 1 13.056019710748975 16.172695978827264 1.237032092636865 0 1 0
663 1 16.629775115147396 14.951543839937397 2.3407586676690237 -1 -1 0
58 1 15.27675049120258 14.42169728270743 4.546484552257208 -1 0 0
409 1 17.996353228725933 18.084296872276006 9.392051724021307 -1 0 0
1840 1 20.072234273949967 20.342506113252067 1.375898976296281 0 2 1
1609 1 20.357675651729327 13.358258405519608 2.0277604577932955 1 0 1
221 1 17.50719741977822 14.229062655416898 0.4998902581426624 0 0 0
1868 1 18.393028617013396 13.93842111671659 2.661717700141863 1 -1 1
1088 1 14.60225334208982 19.417532694795746 11.542599840151127 -1 -2 0
63 1 14.305049426296286 0.7069303385743427 10.789264771682086 0 0 0
938 1 7.033615602425452 20.290144221580576 8.699511670753168 0 0 0
157 1 2.853164838305977 20.37933739657001 3.643644652602582 0 -1 0
130 1 4.064030250348762 17.590819582161608 3.9303477450138447 0 0 0
1329 1 1.2689407639356847 16.989970895881477 1.0602382418568201 -1 3 1
856 1 6.428331537337035 20.045639921763126 11.256723244950003 0 0 0
235 1 3.0794408203105657 18.44192440887906 1.8018159438687622 0 -1 0
530 1 5.5264473503345615 18.862940951503447 3.0610849164029132 0 -1 0
718 1 5.073656356844838 8.120168764497935 0.21913688035201906 1 1 0
2000 1 12.655170400530281 9.382405720985457 0.131446930413177 1 -1 1
284 1 4.694092568060016 20.217894601047597 1.6626300662876683 1 0 0
1445 1 7.2839723371228375 20.20829985229311 1.4417544836545735 -2 -1 1
142 1 8.433181296631506 1.041493783090198 2.1244015584393834 1 1 0
1227 1 5.78897646137929 21.135260627493107 3.635530766332302 1 3 0
1957 1 9.356700440576512 19.909741758653926 2.7785529913637257 -2 0 1
1598 1 7.605505047109955 19.716877189919515 4.0430993868395655 0 -1 1
720 1 10.760116598246125 16.767831417099735 1.1216150592417184 0 0 0
1506 1 12.115673953611084 17.705048037808496 3.327340428125899 -3 -3 1
369 1 11.217696530038697 19.107890978539654 1.7772252767437662 0 -1 0
304 1 11.37592078118521 20.23379885285286 3.669260555660617 0 0 0
250 1 10.049020450146305 18.12484029589428 4.323562363389261 0 0 0
1249 1 13.401554927552603 20.0219629977557 3.1001545752619535 -2 0 1
360 1 14.080670953572566 20.580691159990778 1.0550094686633313 0 -1 0
53 1 14.152075910239482 18.107727386988145 2.2685997847756156 0 -1 0
1995 1 16.482815463777243 19.010358086124977 0.7101254322227806 1 4 1
1814 1 16.168167604132428 20.49836685544031 2.3278560171916998 0 4 1
1348 1 15.505034692049371 16.649409784853162 0.8343827482126784 1 0 1
238 1 15.045025866271175 16.284639307412107 3.1891331742678792 0 0 0
425 1 18.20950329542509 20.400855636562987 10.281681897077927 0 0 0
652 1 11.978087609224792 0.1843455126718674 9.259403775259393 0 1 0
467 1 12.469061501166486 20.767116042214518 11.827639973971973 0 0 0
1843 1 18.28251908213703 18.73095554218422 1.9527151029984875 0 -1 1
1797 1 18.356087240624134 16.12393988768166 1.5418712888818362 -2 1 1
390 1 20.656487187617678 15.444893725251204 1.6129153389384003 0 0 0
543 1 20.371058379576052 18.128750518270866 0.7140065374414363 0 0 0
573 1 1.0196708500525355 19.79695717922006 2.8063669670669684 1 0 0
818 1 0.547225388636167 21.101513197243392 11.457627586015725 0 0 0
610 1 0.9658009762949153 20.58722081930133 5.099047263348953 0 -1 0
1328 1 4.264735341932067 0.8512259066021478 4.344175779965514 -1 2 1
470 1 3.0519500677207643 20.94121533355946 6.133320996825898 0 0 0
814 1 2.365300847096294 4.972610738446804 8.8274990033853 1 1 0
365 1 3.1002717094978647 1.6945711672348922 6.42751049614582 0 1 0
1626 1 2.8992239668461917 4.327324565820701 6.449622542979955 1 -1 1
374 1 3.866174398065207 2.9282469623377008 4.535255877085339 0 0 0
422 1 7.675260380984062 2.075698085847608 6.59544638284336 0 1 0
414 1 6.187374883100661 1.581840641420566 5.180088135381981 0 1 0
370 1 8.289975345574135 21.242137747628107 7.165602862640334 0 0 0
1793 1 5.110133268253686 3.1509441348528524 6.711167633782018 0 1 1
47 1 8.106215902186273 0.5735575852179432 4.448866161525764 0 0 0
959 1 5.106789852076293 0.6549887487638201 6.880602133906479 1 0 0
613 1 8.910625812865083 3.0558686361427143 8.315264401067674 0 1 0
220 1 9.53394347797489 3.725932869554308 5.819775319877838 0 0 0
1498 1 10.69462755064299 1.0957173494204924 3.6029195369902323 -3 1 1
1265 1 11.671696565107272 2.5834696034902 5.1923605548100635 -2 -1 1
646 1 10.52537331752063 4.046854479782021 3.8380487439829434 0 0 0
630 1 13.660419960968296 4.482032247457666 6.55203309841625 0 0 0
590 1 9.808797185628299 1.3927291623948124 6.411593242419032 1 0 0
267 1 11.500770143585529 3.7270841983900445 7.503033626791497 0 1 0
1927 1 13.8857668850311 21.204259154772338 5.6267603746320685 0 3 1
1168 1 13.9843157036897 2.18182843151028 5.635550998544629 1 2 1
1261 1 16.75164767034496 2.0850996262296864 4.812627608062094 2 0 1
1183 1 12.932703856655468 0.9645146702189102 3.869343549097208 -4 -1 1
605 1 14.580934384306948 3.026862141326947 3.808064819532311 0 0 0
436 1 14.935194933976474 5.125387381571041 5.07227814203017 -1 -1 0
1343 1 17.95787914339439 21.109913668998605 6.063413245249319 1 -5 1
321 1 1.5908343854418732 2.7732164014915983 8.415047284683379 0 0 0
421 1 18.002604205803436 2.1500882218077257 6.878526029386286 0 2 0
572 1 20.60043970745089 3.942703582013988 4.016426553375355 -1 1 0
1985 1 20.77265890487157 3.0658011216418264 6.189733160283269 -2 1 1
395 1 16.112549562892614 3.510033890359794 6.376429204183283 -1 1 0
961 1 0.6143240211933072 4.594857762612493 7.434365655676307 0 1 0
1410 1 18.65804099843965 3.7543345105923778 5.057828267824449 -3 -1 1
706 1 19.014220837193207 1.2977432892213705 4.1851039780061345 0 1 0
343 1 4.282586807240375 7.124275419761964 4.280799094514137 0 1 0
691 1 2.955535634125264 5.355973715565345 4.244081029725371 1 1 0
277 1 1.3869844151519959 6.0626231651999625 5.421518296460671 1 1 0
1657 1 2.367373453781583 8.279044341315684 5.912983450608454 -1 1 1
986 1 4.200000846911186 6.4189767717125665 9.52611513781764 0 0 0
636 1 3.291250927547103 6.795446490882905 7.32102676176765 0 0 0
1842 1 1.5260921579092035 8.65902154135451 7.945348403801452 2 1 1
1440 1 5.083025997185993 8.011626567503022 6.159372802962455 0 3 1
1739 1 6.545064476756322 6.352329574814955 5.195590095760912 1 3 1
1082 1 4.812686614887286 5.379964165935444 5.943012419322542 -1 -1 1
99 1 6.184595848000783 3.7271177328913128 4.70956899070462 0 0 0
95 1 7.378200698955633 4.59340738879889 6.455830390758103 0 1 0
1752 1 8.786650451811184 6.59187249059466 5.830807641855811 -3 2 1
619 1 5.996334257024006 6.621192776003371 7.4706172373945705 1 0 0
439 1 8.1678055196534 4.940810903057993 4.24599443264396 0 0 0
33 1 9.340274432398589 5.108052565617414 7.452260186793919 0 0 0
315 1 11.340121547548652 5.312398518354519 5.73143927123005 0 0 0
1382 1 10.552760333556439 7.335222671517167 7.264741773602283 -4 -3 1
1166 1 10.357943282473986 6.676910718238353 3.944629085777981 3 3 1
133 1 12.712061346769723 4.348656344199091 4.373078833104429 0 0 0
253 1 12.281645575647714 7.0231621552168395 5.755805361556787 0 1 0
39 1 15.163726722008287 4.994698440961864 8.244464311925086 0 0 0
1405 1 16.051684756905527 7.40343076521127 7.503562581741807 2 3 0
2013 1 14.141396117258614 7.982620947930323 6.235912365293546 -3 0 1
308 1 15.49321708903446 7.618011860813918 4.670151966251391 0 0 0
1209 1 17.668838588265768 7.840616388132715 6.156901035083268 -2 0 1
335 1 18.607848050496393 6.033660464502076 3.579816878829006 0 0 0
203 1 17.341160560857844 5.706573352803982 5.719154845708817 0 0 0
1195 1 18.576054548790424 4.219814609084996 7.132184907299401 -5 -1 1
68 1 0.6034306695119895 8.6634873966484 3.9596978783336665 1 0 0
279 1 20.146914519299862 5.509658765745767 6.037538277361276 -1 0 0
314 1 19.547066077080455 7.924331873356919 4.713514880571883 -1 1 0
472 1 19.506347011116443 7.122958666290344 7.306215490400536 0 2 0
552 1 0.1994366398869018 7.769645507869016 5.998511367757353 1 0 0
276 1 3.3102258684385006 11.966038832320077 5.019800525711879 0 0 0
1837 1 3.779066974430124 8.491209397194703 8.256806558194 0 2 1
424 1 3.6042475343233504 9.831085301242734 4.313690684700431 0 0 0
113 1 3.799200489342845 12.133216722437405 8.301553409171147 1 0 0
1100 1 2.046644491468408 12.39265972724494 6.814869032519418 -2 2 0
445 1 1.0807279167277408 10.302772721531602 6.137884432883137 0 0 0
450 1 1.6008476557351854 11.072606183620067 8.331254751282012 0 0 0
1589 1 5.822592971373291 10.75666931648347 5.136494086241134 1 0 1
645 1 5.92901118474388 10.488035822381082 7.378069600400947 1 0 0
373 1 7.642834763616865 8.9847709154238 6.284883214240939 0 0 0
378 1 6.3523887831460275 8.808023210295298 8.557455655884754 0 0 0
1435 1 3.7766092998193828 10.464306902594648 6.89536714829548 -1 1 1
296 1 9.355796524108797 10.670548594757978 6.10653710623205 0 0 0
1285 1 8.766253250560144 10.926701388809583 8.340563028984567 -2 -3 1
943 1 3.7960193760099856 14.139777222430105 9.318470446092954 1 -1 0
311 1 10.015605017179453 8.436866984524599 5.317319113082428 0 -1 0
186 1 12.348132127719024 9.748871098280386 5.89777714060976 0 0 0
96 1 10.159626550512007 9.346917189149151 8.059427716735412 0 0 0
758 1 12.045021756714668 11.142643617501191 8.153159075902737 0 0 0
444 1 11.408640593301541 12.104901609018878 5.35331776468845 1 0 0
753 1 12.143189321806508 8.108937593688163 3.658952279056609 0 0 0
615 1 10.455930525106629 12.782752320636632 7.48932846305022 1 0 0
748 1 11.685433317296983 14.376556547708056 6.2468705888383305 0 0 0
263 1 12.896479429501651 13.163720762384486 7.354566888333113 1 0 0
259 1 16.01963784879616 9.553508694833589 6.22396767113066 0 0 0
189 1 14.61566193843777 11.365797725042423 6.036139039802661 0 -1 0
124 1 15.30137554877435 13.224392382354408 6.525682674415134 0 1 0
1304 1 16.62005215405074 11.511484646587588 5.170597731332237 0 0 1
661 1 15.130183296125402 11.727275950691828 8.693329240228907 0 0 0
437 1 16.875538506085668 10.31502783919988 8.399825204992906 0 0 0
357 1 18.41886282453132 9.822840136254534 7.001389406682616 0 0 0
1429 1 20.850153196775267 9.76065055373419 7.652467729648044 -1 4 0
576 1 20.247810090462195 9.713236190324537 5.486716839932885 0 1 0
1482 1 21.20660660821081 11.987283422637473 6.536830473588485 0 -1 1
1193 1 19.20381532452764 11.464826115310581 5.498387538480049 0 3 1
319 1 19.433450931423785 11.516097273007567 8.132730735730286 -1 0 0
666 1 3.1180213335639912 14.087618278102347 4.330163881945071 0 0 0
1911 1 5.0960784912615775 12.810732389545214 6.490045569781777 1 1 1
1294 1 1.0938735938044393 13.094754137863431 4.519486762509608 1 3 0
256 1 2.2477112812079327 16.109403449992847 5.612954260933561 1 0 0
690 1 0.4508536710090789 14.231829692885208 6.550232180604461 1 0 0
789 1 3.2717372539155947 14.250746952709234 6.7934959624900735 1 0 0
946 1 1.7708519533102187 15.31658277946286 8.136969794693027 0 0 0
529 1 20.649133564122394 13.735315529149739 8.694427118755703 0 0 0
278 1 9.436683631839303 13.927972121520211 5.807312679163646 0 0 0
285 1 3.743709091107299 17.778022099134432 6.579123996346002 1 0 0
6 1 4.777651754382747 15.896822005527618 5.888986343401466 0 -1 0
103 1 7.247205747195591 12.042774145682467 6.535620111979814 0 0 0
512 1 5.254584268731059 14.840932358940506 7.772440046683124 0 0 0
1703 1 6.985164073098101 16.64478403087751 6.959400489966925 -1 -4 1
293 1 7.783547744248909 14.579944519226345 8.088215445506032 0 -1 0
1989 1 8.63458944127857 16.462407861059138 5.324190260089578 -2 2 1
1404 1 10.193625291299117 15.710605614773717 7.095022214399071 -3 1 1
75 1 11.23193420059954 16.27137596471892 5.1956776331752135 -1 -1 0
783 1 12.421497844351197 16.87819820364478 7.11986341400331 0 0 0
1934 1 12.34944391703649 15.228662516316497 8.307062476237387 0 2 1
1732 1 13.549912295972268 13.322398971012584 5.1036297814856075 0 1 1
172 1 10.75233265298758 16.733869918802025 9.478537412804515 -1 0 0
664 1 14.219059648137609 14.675547422585634 9.113040635295654 0 0 0
447 1 17.903648081327322 13.45153443443925 5.078800317090783 -1 0 0
198 1 15.218681244408195 12.44030248153786 3.8034215292617923 -1 -1 0
234 1 14.4589959222411 15.335362954230872 6.319629010851638 0 -1 0
98 1 17.52123129108344 11.898644245185915 7.09593994828324 0 1 0
1795 1 17.620374007500274 17.579829902634117 7.1675892697578085 1 1 1
102 1 13.28957410887625 17.280087196253255 5.062049224090567 0 0 0
565 1 15.684322446890464 17.107551343603955 5.0877970888529305 0 0 0
388 1 20.102145050336713 14.233152620233636 4.632939377618877 -1 0 0
546 1 17.481270311062694 15.623270086043714 4.210724250657148 -1 0 0
241 1 16.88161754929175 15.40485471372427 6.164393504496495 -1 0 0
534 1 19.820277606153716 18.081432083666787 7.911621510050928 0 0 0
1969 1 19.241676678532315 16.36850011428206 6.038978052434686 -1 3 1
418 1 19.71478437973724 16.2474269857935 3.530459142544289 0 0 0
937 1 18.21753383523025 17.760411182866378 4.484899256436074 0 0 0
1731 1 19.25616749678372 13.820601487747238 6.754796021465899 -5 -2 1
669 1 4.5636599191820935 19.88666023077467 5.243732181150782 0 -1 0
1999 1 1.9931159850639704 18.398899630327655 4.954473049438142 0 1 1
52 1 21.263494643577225 18.381143480051538 5.889248912226779 -1 -1 0
453 1 1.469663441662052 17.438300123180458 7.365452088361858 0 -1 0
566 1 -0.01214536345564099 16.447766582778357 5.6696805428009664 0 0 0
166 1 6.558853497911937 20.535483152038807 5.953676048908552 1 -1 0
491 1 6.035406546470927 18.14663546617005 5.169339843634275 0 0 0
596 1 7.962575834141726 18.894880370245904 6.196540660070813 0 -1 0
90 1 8.622557659248516 16.75671628688678 8.569708748908905 1 -1 0
190 1 5.767097768966553 18.64017488717594 7.3207740121198475 0 -1 0
399 1 8.879788545247731 19.032168227589807 8.600814303225825 1 0 0
490 1 11.536752245872384 0.2839151341183959 5.750545244141255 0 1 0
299 1 10.066645378875995 18.153139838292546 6.739825121638569 0 -1 0
1820 1 9.726469548180514 20.48685542207931 5.039145806725669 3 1 1
828 1 11.880091968104669 1.6673335476177484 7.514249738953736 0 1 0
352 1 10.343762950811087 20.344681698661645 7.187285660447383 0 -1 0
356 1 11.405960932094985 18.80146984122524 8.54761476765503 1 0 0
980 1 11.980598893995415 19.070966305536622 5.510290614683244 0 0 0
183 1 16.2644133086895 18.465891655540492 3.5796872509123694 -1 0 0
2 1 18.299723657177132 20.28123195894704 3.575752241253747 -1 -1 0
468 1 14.702110874840706 19.13463135563546 5.072957608800334 0 -1 0
205 1 14.714602470969476 17.95453811804484 7.093613351238053 0 0 0
766 1 16.165940298632037 21.16258527874517 4.39760587891402 0 0 0
147 1 15.212239395326819 20.09607793104081 7.231837258523517 -1 -1 0
57 1 12.76005387209636 20.01211877421494 7.293450893395181 0 0 0
302 1 20.011035587670943 18.498807232688772 3.383781208397266 0 -1 0
174 1 0.5782905960660374 17.41846071076164 3.1791822393732687 0 -1 0
1959 1 18.51852159478527 19.851908228249982 8.065211708127832 -2 2 0
954 1 19.363830727987523 19.030409466655144 5.68252471392071 -1 0 0
255 1 17.16966556652483 19.223276296082542 5.789926395390757 0 -1 0
555 1 20.43046711165544 20.744202142346833 3.8631506500469985 0 0 0
724 1 20.316702064176496 0.5532856011428464 6.082623177951447 -1 0 0
294 1 2.9685095585347416 0.6829103258027189 8.398793516390935 0 0 0
516 1 1.8224990021074459 19.770461590285507 7.945019806226826 1 -1 0
745 1 0.2119390178596517 4.60955424181185 9.932954645805632 0 0 0
975 1 2.559103076962743 1.2289956522028533 10.463189999770037 1 1 0
173 1 0.08617172066302389 1.951051828351983 10.406838735589055 0 0 0
270 1 3.8127969303605767 3.0787048628674336 8.53912305392264 0 1 0
12 1 6.441499278169698 4.933436814025462 11.852035304477567 0 0 0
791 1 10.219842667596684 20.21663332310694 9.943330273211751 1 0 0
835 1 20.360687760530496 19.529443138112608 9.587146281877867 0 0 0
184 1 4.6011255315687105 2.160866148417978 10.368003922801217 1 0 0
1974 1 5.194126982011499 21.27065953820587 9.29187632712339 0 -1 0
589 1 8.541278632852109 1.995238837738154 10.405126626745227 0 0 0
493 1 6.716647471885364 3.7858216471000743 9.98962250987669 0 1 0
710 1 6.325982611256159 1.7883587079094623 8.385838611544497 0 1 0
655 1 5.264612963184142 18.807683151332405 9.766057978952604 0 0 0
1152 1 9.358671589924615 0.7003222387291044 8.829131813756305 -1 0 1
544 1 12.210670239327676 4.222351704481214 10.614044425397715 0 1 0
1899 1 10.88969753609288 2.4624159811134163 9.35399639851806 -1 2 0
17 1 12.61075186771553 1.70971786876813 11.560395311481212 0 0 0
1560 1 10.397748146960977 0.9151463448160976 11.26243537955679 0 4 0
1345 1 8.668942828385138 4.392590498104892 10.754692357722512 -1 1 0
1489 1 13.359226394098851 3.0813195032237335 8.73412633966354 -1 1 1
176 1 15.998169846961478 1.0906459346780915 6.760206471571531 -1 1 0
1588 1 14.61250452470788 2.7321470911419947 10.616113651629075 -1 -1 1
564 1 17.017197074450465 1.9685698615299714 10.95746467962512 1 1 0
722 1 15.99961739242164 2.567690415093793 8.729886408533572 -1 0 0
606 1 18.003499585474117 7.756238762102034 11.555542403636009 -1 0 0
275 1 18.078279937548345 2.932066638095821 9.01103965371137 0 1 0
869 1 19.481555820701328 1.0733477155541746 10.364874222282824 0 0 0
272 1 20.375436049161333 2.982413777960234 8.52148731407222 -1 1 0
1054 1 19.51099087807346 0.6068643891878698 8.248899010456645 -1 4 1
489 1 19.590347065291102 3.578645700707849 10.808298895671294 1 1 0
1141 1 8.322414013377028 21.009322471892453 10.393424098230941 -3 1 1
1827 1 2.133466633942593 7.019705471227065 9.466796759386002 2 2 1
642 1 1.8784972294815936 8.412910814945885 11.475798231178045 0 0 0
307 1 2.2372595220992144 3.817536235573341 10.82083282143406 1 0 0
1074 1 2.9382814430600117 8.040892377741054 0.3507961896422507 0 -2 1
1602 1 3.5468875328780465 4.1645827270367155 0.5607401198821461 0 0 1
699 1 11.966989246886792 18.720344430041056 10.96644588425744 0 1 0
1014 1 15.669869288786067 18.373105971096788 9.35428847155026 1 5 1
561 1 5.260511335210673 4.64974733493532 8.230498344342001 0 1 0
587 1 4.16403426656453 8.253447466361665 10.924601356847411 0 0 0
30 1 7.7438210131650225 5.256823685712259 9.013130526343499 0 0 0
1018 1 6.130442070107779 6.886808147688207 10.02091885566555 -1 3 1
764 1 8.321066075650744 6.92466783352414 10.447448062706744 0 0 0
78 1 4.51838592168101 4.479715993722443 10.773550699969443 0 1 0
372 1 8.089959941157744 7.1786823555736055 7.915812861056256 0 0 0
626 1 10.395559043190547 6.23884650098972 11.568349486499722 0 0 0
264 1 10.083064263322568 7.23029332992904 9.299376649145776 1 1 0
864 1 10.507001861729377 4.744121698756225 9.380142245819401 0 1 0
1040 1 12.165852431843764 6.000210366273777 8.175455910214156 -3 1 1
492 1 12.203430941045855 7.044517835692172 10.465740806581724 1 1 0
155 1 13.97784000025439 8.72945677969 11.081350216491817 1 0 0
112 1 14.068807207303028 9.80020849768874 7.602595904118848 0 0 0
857 1 16.397508943783116 4.280009808471184 10.389789124413001 0 1 0
570 1 13.692187294165569 5.290380885991286 9.895358938959644 0 1 0
1102 1 14.099279505360748 7.353857645798467 8.853141081020441 0 2 0
551 1 18.57440978395596 5.474386891251468 10.520956841431147 1 1 0
1590 1 16.068611880818885 6.810099787859523 10.313936557589242 -2 1 0
705 1 17.399291921101995 5.575813453855312 8.518199776288032 0 0 0
70 1 17.89357628598075 7.900173491871367 9.135009360057156 0 0 0
918 1 9.345284468512784 18.07432539302744 10.903209319352051 0 0 0
83 1 0.20637592735248744 6.817949177179319 7.983061107645147 0 0 0
295 1 1.192269104831773 6.4527755203198796 11.554365584698651 0 0 0
723 1 20.190912457615852 7.024782721983604 9.897633402490168 -1 0 0
427 1 0.07208504546490602 8.581860694744044 9.66505387629103 1 1 0
178 1 19.834763733792627 5.345326384067029 8.529839893289274 0 0 0
1938 1 -0.01621986704306705 11.081307947931196 9.712333282704163 2 1 1
93 1 3.1305437341938025 12.18172986282856 10.537374352157649 1 0 0
407 1 1.629035032081701 13.311431156134375 9.49199157392104 1 0 0
1649 1 11.48594302859021 12.04566907721624 0.5167836735548982 -1 0 1
97 1 2.4678218979816666 9.481498015834418 9.636269587204747 0 0 0
459 1 3.317637529076961 18.312324867820283 11.521624115059302 0 -1 0
164 1 4.689012633612742 10.290257169631435 9.287764506821514 0 -1 0
964 1 6.441684476207998 8.506027181276504 11.43033730807117 0 1 0
122 1 4.558801544860026 10.431624105899216 11.89860771307817 0 0 0
625 1 5.554203991054378 12.198346518484898 11.108567158127462 0 0 0
411 1 7.036492707529908 10.664140005219261 10.198410179812987 0 0 0
858 1 19.72813152228906 20.97518841394689 11.997700604109724 0 0 0
441 1 9.410815576441601 10.767062811889106 11.644912823974025 1 -1 0
401 1 6.062918299911398 12.827165798345051 8.891507957208985 0 0 0
562 1 15.538449402287675 12.958044045051865 0.09134852777740915 -1 0 0
684 1 17.310422207757096 0.35497510796831766 8.507841484372502 0 2 0
298 1 8.532651375293812 8.99309585595238 9.722711608568222 0 0 0
1559 1 12.16827839286376 8.644860243825473 8.014114903561758 -1 2 1
1629 1 10.467551823421458 11.784942962894656 9.719050782347985 2 0 1
433 1 11.157210719360386 9.447350970434956 10.235767427309431 -1 0 0
1021 1 12.435009527547322 13.056932895481367 9.764620184086088 2 1 0
397 1 12.85686735633909 11.03305943518722 10.401027515999369 0 0 0