LAMMPS data file via write_data, version 29 Oct 2020, timestep = 250000

2744 atoms
1 atom types

0.28803711283254785 24.519962887168806 xlo xhi
0.28803711283254785 24.519962887168806 ylo yhi
4.488851702116875 55.17704525061674 zlo zhi

Masses

1 58.933

Atoms # atomic

772 1 15.43018341589223 20.037179251784337 5.429990514840381 -1 0 0
826 1 4.322809855228171 3.3947365607654647 5.909766955524052 0 1 0
2303 1 2.795810530170004 1.9856723692822542 7.638784586559702 0 1 2
2293 1 2.0917470001691427 3.918708152902142 6.230723999863854 0 2 0
343 1 21.98515602450275 22.080468064232708 5.089007789336087 0 0 0
1707 1 0.5426276669383938 2.36444158714928 8.027907568105693 0 0 0
2642 1 5.2802164731410395 1.8506011586841686 7.491331365761367 1 2 1
492 1 6.222016241057101 3.812899197943474 7.479835059548355 0 0 0
2074 1 6.423483196891798 24.315952348199538 5.29232230331818 1 0 2
1064 1 6.635865555655786 2.5555128809604026 5.151343762581152 -1 1 0
2334 1 6.193533650909406 4.5953484017154596 10.170162491099127 -2 0 -1
994 1 7.559705309070262 1.802009808995884 7.348290322622389 1 1 0
723 1 10.216924098966906 2.0410180218518543 8.032687696239226 0 0 0
1398 1 9.353968583814673 1.0487830861876652 6.3154327114494215 2 -1 1
721 1 12.41286778371105 1.5810373418424766 7.9164119508740844 1 0 0
1479 1 8.530795868216677 24.17413287706989 8.224169579739648 2 -1 1
2593 1 10.162213082807499 3.1084615211726674 5.119508311995769 -2 0 2
849 1 14.156575530522856 2.094881388292452 5.076915138322123 0 1 0
1629 1 14.265187087082488 3.0170885787516846 7.330622939376976 -2 0 0
817 1 16.89658414160479 1.5870243767083008 6.614145459653705 0 1 0
1021 1 14.718823603071208 4.943801255557109 5.974733562714152 0 1 0
2063 1 16.215881236677767 3.1397374838484926 5.175003885069112 -2 0 0
1240 1 13.251322065684569 6.180565795414775 7.35532287441492 0 0 0
381 1 18.641276546959066 2.039075918978776 8.166642415725521 0 1 0
2591 1 18.975929142938785 0.9791809076168854 5.922473609386987 0 0 2
105 1 20.704801999225893 3.594518487644074 7.259063203765748 -1 -1 0
1560 1 18.505998243914938 3.3476935364417124 5.8936595079687315 -1 1 0
2520 1 16.779284579227767 3.9546491452783092 7.251242067275596 1 1 0
1118 1 22.286130920820582 23.190925471068788 16.764640167781142 0 0 0
1497 1 21.45041477488603 5.102240099176991 8.873257971020795 -1 1 1
2222 1 23.346761938262812 4.116605145908315 7.118333343303264 0 -2 1
1029 1 22.7196608098389 1.7474575210249619 6.845638376778543 0 0 0
843 1 22.820363887837974 2.5831108094995927 9.309584184845473 0 1 0
317 1 2.0701663153514094 4.105035240502174 8.64432204896082 1 1 0
988 1 23.329137462800972 24.234650746787583 5.600790858449441 -1 0 0
2173 1 2.9315808605517524 8.747343797138186 6.990231121395963 -3 0 -1
1500 1 4.491717467146231 5.3381845806196795 6.554129196094216 1 0 1
882 1 5.054143340240831 7.67748587351871 5.30189213627198 0 1 0
2581 1 4.310835079431516 3.5767045936047936 8.89494073757054 1 0 1
249 1 6.966319039153231 4.8384656600481675 5.742302779219331 0 0 0
942 1 8.089659720276414 4.0381619583180495 8.274978649342442 1 1 0
1187 1 23.378053910672488 22.93228687466474 14.317813157331566 0 0 0
2196 1 22.647722016132278 3.5497603324027356 4.8848660164883695 -2 1 -1
2175 1 8.702887875873731 5.8095214575100105 7.014509578739709 1 1 2
1288 1 5.1523726406232075 7.547364124648153 7.545634758578071 2 0 0
328 1 6.303332090599303 9.222922215768381 6.1475460357327165 0 1 0
2596 1 6.941580724071793 6.910871247295398 6.454323147131281 1 0 2
1758 1 9.015680604777387 7.815085961638583 7.437258770548254 0 -3 0
959 1 8.44799020325915 3.2723987803577743 6.2394372736833725 0 0 0
1829 1 10.904066266242125 7.757176050452596 5.268327609620476 -1 1 1
243 1 8.804373492659549 6.863828640936527 5.024701213997077 1 -1 0
231 1 10.611486946234743 4.206124775546322 7.251455543666454 0 -1 0
151 1 10.869793531078809 6.563765945389794 7.336120468738911 0 -1 0
2521 1 21.07531883377528 21.47244444639774 15.661125746740728 -1 0 1
2163 1 13.492724691825567 8.08359468895777 5.5088984349691 1 2 1
203 1 6.77802082009286 22.04178902200273 4.708398534278625 0 -1 0
2674 1 16.96494994366471 6.061174683631499 8.161330150645126 -2 2 0
233 1 15.553210050099194 9.252112406279679 7.7519813804133735 -1 0 0
614 1 18.367468869348723 4.470893015535263 8.80936123615514 1 -1 0
222 1 17.41895215683086 7.455386673880874 6.626169063445161 0 0 0
1345 1 19.566682728743174 5.402626089590929 7.065336607363323 0 1 0
1504 1 19.302647137539733 6.963335225818781 9.254767076502993 -1 0 -1
720 1 20.919533128117283 7.04472547783634 7.957149542979 0 0 0
2727 1 21.742534343743774 5.510319376932549 6.075989588515133 0 1 2
1588 1 2.760077843606398 6.55987819228008 5.524312191835625 -2 2 1
1764 1 0.5945420836234576 7.254432101530017 9.507373642941845 1 0 0
1841 1 23.352184443139443 6.171355191998941 7.893857283320909 -1 -1 2
1909 1 24.317248941258416 4.863008640575636 5.306068598512777 -2 1 0
2546 1 23.723527351545034 7.0032905288621325 5.8100141262842655 -1 2 -1
138 1 1.3763571066596683 6.439354985920969 7.471887564729523 0 0 0
2116 1 12.122418110884762 12.387854309981416 5.424748130696501 -1 1 -1
838 1 1.627725512393462 10.558791640616136 6.5752394740791456 0 0 0
2554 1 2.608086340682894 1.9425399267847545 5.052405874890852 2 2 4
1719 1 1.139021425148922 8.659999268242082 5.443735442783227 2 1 2
35 1 4.501501138340505 10.5937654231223 5.513621622741042 0 0 0
310 1 23.051875721874847 9.306559919011097 5.655445644576181 -1 0 0
1743 1 1.7164089195577896 12.519371658335551 7.9169899898431915 2 -1 2
374 1 0.735656407374632 8.743809950350027 7.934748850957444 1 0 0
97 1 6.352229081615203 11.143413979267041 8.340894008147462 0 0 0
2294 1 4.160174755993573 12.353942593562746 7.525118217395275 1 1 1
2362 1 6.029193792491145 13.305981724781049 7.281551366499151 0 2 0
1955 1 6.522322055882243 11.499471331083543 6.161439113832959 0 1 1
1423 1 17.110253066825354 12.171699348502942 5.241900422600971 0 -1 0
836 1 8.74556947700403 9.309071892470762 5.490950828765536 0 1 0
1592 1 9.490043657590642 11.496340772986166 5.702253372846017 -1 -1 1
31 1 8.53040927424678 12.14824134473367 7.915961399797596 -1 -1 0
1175 1 5.208244634623198 10.77323854663199 16.57740066401895 0 1 0
2523 1 10.806955610659033 10.024461263542051 7.102997406066283 1 1 1
951 1 11.164332765059855 10.044584951918246 5.029767404825873 0 1 0
749 1 21.229662161822574 23.94257447387815 14.590570571141386 1 -1 0
1447 1 15.139130679538146 24.36405337245737 5.95684823598142 0 -2 2
1655 1 12.923824977983957 10.265355890458343 6.175070318374717 -1 -1 1
1170 1 15.256976592471029 6.847613265350423 6.1801725375341805 1 1 0
1523 1 14.939853108187311 9.656606994141342 9.97352656240805 0 -3 -1
1542 1 14.701688494541347 11.485366692666652 6.11898211426029 -2 0 -1
1040 1 18.128797020058844 12.682344463519183 7.360969738630214 -1 1 0
997 1 16.354860181745504 11.757809450038623 8.047538836065264 0 0 0
2736 1 15.911044954899028 8.758295998547725 5.516815719388839 -1 0 0
2401 1 12.055206542264775 11.792266586523493 7.777009740680968 -1 0 2
2139 1 17.720820656129572 5.403734865265575 5.581476913360169 -1 0 0
1230 1 18.58623728566188 14.254998603119418 5.827445962224551 0 0 1
827 1 17.438716071718563 10.298429943986646 6.209600417462845 0 1 0
2562 1 13.875366116071431 14.897629095482916 5.175363536259424 3 0 1
745 1 19.202816389479022 8.284695261992058 7.601105332011837 0 0 -1
1535 1 18.955289413793235 10.683764463637313 7.895610618446231 -1 2 1
2571 1 22.763329699063007 8.106042488971916 8.4193224859425 -2 0 2
224 1 24.45945988206983 10.973227143841179 4.8173147674504175 0 0 0
1918 1 23.50533030298496 10.692138117245275 7.798762491890124 0 -2 0
206 1 20.32746163992161 9.642952022588426 5.919296956470924 0 0 0
84 1 21.36774489670391 7.754644774038797 6.107233352763107 -1 0 0
1415 1 2.2197577536176043 12.799760711016276 5.727783108434656 2 0 0
2615 1 2.827668115782401 14.805460353785257 4.880532187580567 1 -2 0
783 1 1.1518449952369516 14.701682076751913 7.619043368750479 0 0 0
1138 1 4.439033974202771 13.259385134674721 5.2987030256370975 1 0 0
2578 1 3.8253380834897905 14.486293418211318 7.200686041266936 1 0 3
579 1 5.110143157878988 16.16990701040469 6.5090273322423755 1 -1 0
2013 1 3.7789851178706555 2.7799172081559376 16.895911820452277 1 1 3
2215 1 6.428774672343979 14.556390987058181 5.576646372915066 2 0 -1
1586 1 5.903572887941181 15.135315601205637 8.503893687831482 0 -1 1
116 1 7.844696513357857 16.211729228374473 5.783938379169807 0 -1 0
2636 1 21.218398461969965 20.024913822853176 4.5396878181590195 1 0 -1
2145 1 8.299382655983543 14.355930361068847 7.396699959715255 0 -1 0
1810 1 10.31781180242812 13.15101199575257 6.86791532286594 -2 -2 1
1818 1 9.475631858525766 14.890184173073338 4.701287291586234 1 -2 1
777 1 9.91928138075485 15.97076250382895 6.953874708663899 1 -1 0
1926 1 13.553784153781638 13.29126803588266 6.755307928784396 -2 1 0
1776 1 16.10343996749027 13.89309616283966 6.220810170120563 2 0 1
179 1 16.04812181214401 15.983863277121653 5.540497905188072 1 0 0
879 1 11.870885282714307 14.881474766596956 6.2682440975271065 1 -1 0
732 1 14.054567969682108 11.301150576095473 8.443878350682825 -1 0 0
875 1 13.921746266293638 15.595101702374187 7.479297248538625 0 0 0
1680 1 15.953215001496126 14.113063061351431 8.631950601251049 0 0 1
1887 1 19.675277987230775 13.726866211621306 8.49240810372974 -1 -2 2
2281 1 17.752717458842653 15.353566735616996 7.48834205059176 -1 0 0
119 1 19.903359720276733 11.925210949436797 6.241763499600538 0 0 0
29 1 17.462094612786032 15.219522601172658 9.910120698132097 0 -1 0
1658 1 20.749741709095886 14.575239703515333 6.942591947527847 2 1 0
2049 1 23.998168562562785 18.82554309485907 16.59098596731701 1 1 0
51 1 0.5475977895057397 14.609718640761447 5.472202087700976 1 -1 0
1730 1 23.883385579358304 12.325209180278557 6.623667664722427 -2 -2 1
2399 1 21.75902421336508 12.356257714458291 7.72703614888177 1 -2 1
2300 1 21.81896999937475 13.1988554820235 9.927888912757089 -1 -2 2
1087 1 2.565784333303785 16.99964151627422 6.089721864315869 1 1 0
1808 1 22.893084926383462 14.830351307098164 7.371829759108268 1 0 1
1060 1 3.110602205632475 19.529281130080243 5.474108646952219 1 0 0
1765 1 1.5138837248736803 18.827671040627898 7.12637490771946 -2 -3 1
1673 1 23.945562484286942 20.211746272024776 6.187559798320605 -1 -2 1
2506 1 4.338074675390886 17.893827653795277 5.0897300369384135 1 -1 3
2449 1 3.919159574507605 18.26452341907504 7.652945390596578 0 2 2
45 1 3.726818510456984 20.31224893885734 7.442914960733167 0 -1 0
2012 1 2.527870610065128 16.473086764985272 8.138210031083325 0 0 1
1905 1 0.6723939302263795 18.530768029956402 5.163693847114281 -1 1 1
1563 1 5.409194120461259 19.7588383856693 5.380131131054532 -1 0 1
878 1 8.85597950922824 18.3332495204333 6.204388194495143 0 0 0
2287 1 6.497240826279986 17.94736197640983 7.018095415514223 2 1 2
411 1 19.479593159671 6.7333436089735255 5.0183298720856735 -1 0 0
1340 1 23.97478047798345 2.988368078373461 16.998386244726497 0 0 0
638 1 7.377182407125982 22.159391791948465 7.188613895420817 1 0 0
2304 1 5.865077670389987 20.036971328352838 8.079863724247176 -2 0 2
833 1 6.50459744359297 17.541414324447025 5.0038440355746925 0 0 0
387 1 9.823449294703865 18.461397683131977 8.330791625168574 0 0 0
284 1 10.762966484334425 16.93703946940017 4.938157425784825 0 0 0
1703 1 12.911655457428829 17.209841971297834 5.7385298119257735 1 0 2
266 1 13.545390892490808 19.88813536896292 6.312495255211803 -1 -1 0
69 1 11.444658064794787 19.1325407453343 7.245200266829948 0 -1 0
1567 1 12.047946805091772 21.623014241352944 7.264927416918344 0 0 -2
2419 1 17.983896283546287 17.6545640885098 7.067029156015984 -1 0 0
926 1 13.381376064298047 20.480590653798632 8.703654038356314 1 0 0
1124 1 15.830988990911367 17.835587487859666 6.63444206366193 0 0 0
378 1 15.771895933292214 16.557663553846748 8.687837329776604 -1 -1 0
755 1 15.397162760308428 20.63111725309892 7.683915422704766 0 0 0
881 1 14.019938090492856 18.456837946113854 8.046015380253989 0 0 0
1426 1 19.622467318201572 16.25984607691987 8.508368474352563 -1 0 0
4 1 18.109228026037993 16.781976652858514 5.1373402117487315 0 0 0
72 1 20.080870868815722 18.232785870349144 10.21302654071573 0 0 0
251 1 19.512391385167426 2.5660857743391206 17.134440087175633 0 0 0
2682 1 17.569101867696126 19.783858978540678 6.682469592202839 0 -2 2
2078 1 18.69474056162142 19.352006643006273 8.65981695629225 0 1 0
302 1 20.44423526618633 18.575396298040484 7.798338392016008 0 -1 0
1380 1 21.94915236135467 17.019279042177914 8.312219801889324 -3 1 -1
2470 1 22.29802597020239 18.182204003382033 6.077983468547168 1 0 1
1546 1 23.36348666926627 18.763759000137135 8.013060564086537 0 0 0
700 1 24.21504857811507 16.7422617981658 6.592739052044389 -1 0 0
1412 1 22.444093103248463 16.057553898499762 5.414254151404372 -4 0 -1
1741 1 20.31403386428086 16.46268279177495 6.259079079052055 0 0 0
1134 1 1.9925643769965886 21.17339246975229 6.757859009518491 1 0 0
2188 1 1.4266283047777188 24.239249118871875 6.728645557647672 1 0 0
984 1 1.0695934286103324 22.88831508078054 8.421040455419332 0 -2 0
792 1 23.874039524883706 22.3848426053768 6.60329563163225 -1 0 0
472 1 24.31455838551178 20.656842087549506 8.489560250236796 -1 0 0
2422 1 21.257207424789797 19.011114912978158 16.574731185442307 0 0 0
1595 1 4.244365189347302 0.9277349732528064 5.978627460447143 -1 0 0
2056 1 16.63285527980873 5.66883251465412 16.395982519311787 0 -3 2
724 1 3.572225764262025 23.95661957084091 8.0727398850027 0 -2 0
445 1 5.193533196457313 21.800793919376634 6.622995318624867 1 -1 0
1584 1 3.342631357914073 22.830914696526296 6.123843638668161 0 -1 0
99 1 8.739366046018663 23.18357948897389 5.134182308282769 -1 -2 0
1812 1 22.296317911894384 13.769932311456035 5.393065164037611 1 1 1
1006 1 7.598848207993746 19.903705404098886 5.446039090056942 0 0 0
2181 1 12.416233764531258 6.1704019089354905 4.879089089383824 -1 0 1
1960 1 9.943669954540391 20.361938872470155 6.258804497690933 2 -1 0
2323 1 9.947934777758226 22.785678243231622 7.205701401993505 2 -1 0
66 1 14.731578555167847 0.7562075694616477 8.002241001781222 0 1 0
214 1 14.26070506582831 22.266523801230086 6.318538873190763 0 0 0
1000 1 11.769562903185033 1.674611079282186 5.933737318612428 0 0 0
971 1 16.650313459660882 21.794562153459694 6.112447616987367 0 0 0
819 1 12.285734316046629 23.96748352901366 6.599778571824077 0 0 0
954 1 13.405919579796018 23.28470882828098 8.384909085174652 -1 0 0
1954 1 16.127055165872378 23.196980449171136 7.798931938140447 -3 -1 1
1039 1 19.325383943433433 22.589841457040546 16.18862250031718 -1 0 0
2431 1 17.28699133653903 23.660466398261246 5.069067266307776 1 -1 3
1481 1 19.356509973450944 22.431951506147815 6.0156833568081876 0 -1 1
469 1 19.384884780700407 20.978542850770147 9.78658124560198 0 0 0
187 1 17.66168198898624 21.433124711064174 7.928550274283289 -1 0 0
1404 1 18.44442660055167 23.637063051019723 7.554282625400658 -2 -1 0
2448 1 0.40102381709841606 2.298038163001479 5.547406149014535 3 2 2
2515 1 21.75918304741431 23.27374994402684 7.111790583128911 1 -1 2
1315 1 19.691610314698337 20.442896807297167 6.490004800062616 0 -1 0
2350 1 23.478778806302362 24.238864876708217 8.051416863768905 1 -1 -1
182 1 21.879599016859494 20.326700907858 7.1578350150084 0 -1 0
1179 1 20.186118370553647 22.234541251151555 8.211262615296413 -1 0 0
1483 1 20.49529201595314 0.6955610179496978 8.180981760231305 2 -2 2
764 1 2.604822167427969 1.0504470264726806 11.36541026280388 0 0 0
1368 1 0.4743454678883481 2.6010688634267836 10.47107607385556 0 1 0
2107 1 3.669730834838021 2.4294705198175315 13.29510720172314 2 1 -1
692 1 2.7538674669477197 3.056275138684103 11.110253378360419 0 0 0
323 1 23.62915744597177 4.453112666126654 9.381570425258754 -2 0 0
1982 1 1.82073313903 23.389734055671408 10.564512257440434 1 0 2
133 1 4.343571714498054 0.42682218707690467 13.910048273472036 1 0 0
2739 1 4.048327744053529 1.3896134924418255 9.519833857402428 1 0 1
1169 1 5.080064420080135 2.9406906999627234 11.222426802479964 1 1 0
1112 1 7.59897678998537 2.2729645063325354 11.733547843559904 0 0 0
1031 1 6.619199317043281 2.2970091502828707 9.682999651157413 -1 0 0
1038 1 6.643055106082648 4.483470477673762 12.258000361337178 0 1 0
1346 1 5.913150759751197 2.5145453766892065 13.390355343848523 1 1 0
1571 1 8.810455204537215 2.264776421343434 9.925395280732712 0 0 1
1359 1 11.188052141166038 1.8697627391198732 10.12635666117157 0 1 0
1018 1 10.096166077999184 1.974804093899203 12.23075884238797 0 1 0
1007 1 8.477251887517642 5.715996495863949 12.778396482504403 0 1 0
1465 1 10.460935184801016 4.33606985652597 11.853927244744728 1 -2 0
1077 1 7.895143935403524 24.256346645175427 10.330785528204101 0 0 0
525 1 12.509592776837337 4.2818277137216345 13.091305455283429 0 1 0
2576 1 11.397360494217974 24.04239498905763 8.873042502450279 -2 -2 1
1610 1 12.475486634718798 4.159531563901341 8.23839879756331 -1 -1 1
354 1 13.416758101530478 1.790236897620582 9.678666689495945 0 0 0
1791 1 12.50030916214105 2.204006357694785 12.152093087102397 1 0 2
207 1 15.442515796833034 24.219030908282253 10.263673441777737 -1 -1 0
2055 1 14.973256659096181 1.6412816560086503 11.431012802757733 -1 1 1
1093 1 13.198118851463608 23.877521408303153 10.720774623429236 -1 -1 0
1354 1 15.933598727827711 2.5081862313672088 9.15596681623268 1 0 0
893 1 16.966334561758877 0.7545982912999384 8.715875194837809 1 0 0
590 1 17.879543587735586 2.903571901625235 10.759284358801992 -1 1 0
861 1 17.363444865953678 0.6526677707237516 11.315930294332567 0 0 0
1373 1 16.025152821908343 0.8576313448076527 13.436769164165394 1 0 0
1893 1 16.503285416433222 3.538166246460053 12.901634566349095 0 3 1
1679 1 20.39265436399222 2.8040439749558703 9.711712145799014 -2 0 2
134 1 19.85159757690323 3.057653088195148 11.981344643129617 -1 0 0
350 1 21.91935669330113 4.205441514078823 11.317377683818481 0 1 0
2724 1 23.027262228142817 2.974547759514024 13.073208317158798 1 2 2
298 1 1.692856709126603 0.9954699248478693 9.399198774404914 0 -1 0
2029 1 21.89425452289686 1.920108434520918 11.253021166001261 0 3 2
1850 1 3.519189862832544 6.3838883664944035 8.89330781587283 -2 0 1
2477 1 3.852078500077215 5.020809302380242 10.63380324632705 0 1 0
164 1 1.2929430639349087 5.047440198421024 10.400888308321157 0 0 0
1713 1 2.7012472302235664 6.949647925371464 11.35588345370579 0 1 1
204 1 24.241557320409232 4.559506447464364 12.133024679376362 -1 0 0
93 1 0.6397371123824218 6.888821412599061 12.386062976240902 1 0 0
507 1 8.497600082524492 4.541845950190144 10.622678184587997 1 0 0
2689 1 4.738586003284351 7.712040774538474 10.162878748308724 1 1 2
2010 1 6.212406797868363 6.050265930811445 8.439538902977464 -2 0 1
189 1 6.692488772061581 9.25881657677474 11.145178398986962 1 0 0
578 1 8.332086673689755 6.496313400113299 9.088178009841293 -1 0 0
1386 1 7.296716902841966 6.767125532080211 11.164252835992158 0 -1 0
1725 1 6.951609248522602 8.740190575952855 8.670253348265373 2 -2 0
406 1 10.400462053295449 3.7152567290215686 9.401521357125686 0 0 0
1025 1 10.362612458534494 5.910969783349497 9.66999131365029 1 1 0
841 1 12.323085447115488 4.015007022976194 10.668642056807247 0 1 0
2203 1 10.961801550151991 8.19253051158832 9.072082492830956 0 1 1
245 1 11.804089360803358 6.222480039153865 12.039499648007752 0 1 0
1100 1 14.314542501129703 7.733207450521337 8.926952330279157 -1 0 0
1218 1 16.564579681452265 4.57980856472341 10.038032255186419 1 1 0
1397 1 12.794522683284258 8.656668654653485 7.476793913079821 1 0 -1
1020 1 14.462608557715303 3.8283453149580446 10.806225246218958 0 0 0
883 1 12.688606914054231 7.6791319007499945 10.617426375980717 0 0 0
102 1 17.278133841582715 8.541456532476786 8.678902040952352 0 0 0
763 1 13.3997807099479 5.887481502679526 9.792902886747129 0 0 0
859 1 17.7362924515242 8.61229644656646 11.025340609433817 -1 0 0
696 1 14.68182713427299 4.6986633674569385 8.739676445299963 0 0 0
2445 1 18.036365156604543 6.1851201285857345 10.832435323140237 0 1 2
2351 1 18.350437684948616 4.556650585644215 12.546999526447513 0 1 0
2510 1 15.829581990347268 6.658694894924 10.042433779952628 1 -2 2
450 1 19.97051977469696 8.459847393481912 11.807852245341621 -1 0 0
1874 1 17.998547606762926 7.086986669588289 12.809916550255812 -2 -1 1
990 1 19.85509492965434 5.040882594545312 10.468808153938387 -1 0 0
108 1 22.8891762874145 6.498573813104049 13.212927383067465 -1 0 0
272 1 22.988113865007875 6.103123549015749 10.96415176095412 -1 0 0
2394 1 21.22120356890368 7.341138855501758 10.157688613079173 -2 2 2
2261 1 22.723760179292526 8.268364522978997 11.654895497017137 1 -2 0
973 1 20.637106595017393 6.247357807673563 12.281041649982708 0 0 0
330 1 22.97992142883504 6.443665686611896 15.403440571573736 0 -1 0
1268 1 4.586831684807647 10.017983848373014 7.515617579656801 1 0 0
1042 1 2.3768596065360326 8.600847166406759 9.555334360225539 0 0 0
141 1 3.066780022021688 11.070679347891295 9.15239236573454 0 0 0
2352 1 3.777936961517557 9.550531335930106 11.117969613497198 1 1 1
1834 1 1.964568100459837 10.931164923464967 11.662967566830861 2 0 0
276 1 3.6124572978258644 12.295296036720654 11.491932406104555 1 0 0
174 1 4.919392747273843 8.642681930670834 13.102434927428067 0 1 0
610 1 5.447271599194709 10.674939499632025 12.435113603646226 1 0 0
743 1 5.180447448697879 10.818776030862542 10.101540335493382 0 0 0
914 1 5.532142516039741 13.191701631855455 9.849136806619534 0 0 0
907 1 7.970797051514023 11.095759649120277 10.321282403999392 0 0 0
2586 1 7.918475912087449 10.807340799313044 13.180363761315972 -1 2 0
2526 1 8.49025767019144 10.05308114474861 7.454296356487561 1 2 1
2606 1 8.982473594673378 8.739771231063537 9.628785339150786 1 1 2
888 1 11.669685333221581 9.71423818244431 11.431853530062194 0 0 0
2069 1 9.92312696796203 10.710754340023941 9.218617545623673 2 -1 -1
744 1 10.508176491974385 11.67207192480308 11.179205844026718 0 0 0
64 1 12.510236290354086 9.76532285340366 9.32087715431107 -2 0 0
2164 1 13.962609738492564 10.867214943477286 12.030881284225128 -1 0 0
1664 1 13.910631294201377 8.80212654115921 12.035658496977433 2 -2 2
1429 1 17.724166629265135 10.441901726636836 9.78336578288937 1 -1 -3
1072 1 21.19207347302028 10.305969514573412 8.54666213119983 0 1 0
1232 1 19.494011105517917 9.210238144120414 9.89316574362039 -1 0 0
702 1 17.47820629806335 12.752606567038377 11.504419570872017 -1 0 -1
2120 1 19.71780644931644 11.782996243002259 9.751927813010344 -3 -2 -1
1505 1 18.8329828188983 10.868368690214906 11.756843171092138 1 -3 -1
726 1 21.039556961051982 10.234729091122952 11.03874458460017 1 1 -1
2110 1 19.22753747835386 12.888238027715781 13.094531449703824 -2 0 2
131 1 21.75467940888488 9.333692340224326 13.282898423899493 -1 0 0
930 1 1.1319816835614986 8.877058344268475 11.387073520007322 1 0 0
181 1 23.05153017418004 11.336655920913547 10.207638764233597 0 -1 0
2373 1 23.62550229402405 9.388467016663657 9.926810384799321 0 -1 -1
601 1 0.8463287016796606 10.85424325628096 9.232628090206905 1 -1 0
1925 1 23.613121040626854 10.536466519586916 12.23513456939508 -3 0 0
1004 1 0.8944582949755465 12.785097489313864 10.35670010642163 0 0 0
188 1 1.664502931735798 15.082931912575193 10.51311856136209 0 -1 0
857 1 3.0813964903243174 13.845583571372668 9.420781244060464 0 1 0
1236 1 4.094378001357214 14.406508877434824 11.43940010018159 1 0 0
1499 1 6.83850131719386 12.366638033118285 11.645726802517604 0 0 0
2702 1 4.001502587880565 15.872881132189434 9.579354767204023 1 0 1
996 1 6.135674689988337 15.64493110613452 10.819983571960783 0 -1 0
128 1 5.99801808468234 14.167308143255537 12.88479105027775 -1 0 0
421 1 7.804226499534908 17.036185745885074 10.902008173305752 0 0 0
1782 1 7.8318990973640625 14.234556743140379 9.754808259591488 1 -1 1
408 1 8.054082850259473 14.884875097907395 12.134851668236635 0 0 0
348 1 7.6417412661771005 16.414472858776474 8.588645506288582 1 -1 0
1815 1 10.314377818932112 12.981927540414395 9.400567099576605 2 -1 1
1785 1 12.379263096170497 11.830641645583295 10.238868285211701 0 -1 1
1788 1 9.105718331857526 13.303907537273236 11.378508957023502 2 -1 1
1063 1 9.64455611136017 15.665006116453592 9.520763848103453 0 0 0
594 1 11.591156123793548 16.54776445465362 10.206643247453902 0 -1 0
370 1 11.32406551263048 14.376352719566183 10.831853260753057 1 -1 0
2274 1 11.432647037460093 14.793202126108229 8.588030337250208 0 0 1
1803 1 9.942207483131456 16.140425619562393 11.70929528411656 0 0 2
929 1 15.437807322198713 12.094622581089812 10.208945016890338 -1 0 0
1159 1 13.507293507695104 13.902040580976362 9.017522555169627 0 0 0
1369 1 13.77434243668313 13.806252415676372 11.446883343274639 1 0 0
1396 1 15.887693516291305 14.320489201487897 10.982709651016854 0 0 0
2661 1 19.790355697858892 13.415500105078653 11.174330618760141 -2 -1 4
807 1 17.767003942827845 12.721337013662268 9.274803038517813 -1 0 0
1515 1 18.02645328783568 14.94895658256753 12.11923044958152 -1 1 1
1043 1 20.103627011110003 14.925559091527845 13.262439457490883 0 0 0
877 1 16.894126579117035 14.062209271235911 13.611557106721838 0 0 0
1859 1 21.31185212607212 12.236780684417802 12.02866202735462 -1 -2 2
373 1 21.76957391140143 14.646946971511444 11.551654514626637 0 -1 0
1015 1 23.93309622352042 12.912240069273098 8.849515322111051 0 0 0
366 1 21.31333843749302 15.12806760535008 9.413190188442911 0 -1 0
1598 1 24.00011552631565 12.525255368367445 12.676601878525824 0 -1 2
495 1 21.7532232807462 11.791725020067746 14.134932204011347 -1 -2 0
59 1 23.86947523871555 14.460263356009387 11.832069564894905 -1 -1 0
395 1 22.732231565309068 16.246157676608107 12.738784100878027 -1 -1 0
648 1 2.1009807169093286 17.313623416690156 10.600686467399957 -1 0 0
756 1 1.4007254107910339 19.191784221252586 12.053728474041112 1 0 0
981 1 1.761406811433304 19.355258763531836 9.663353926862142 0 0 0
98 1 3.5042822344143856 19.14836981076006 11.45343874516856 1 0 0
1734 1 5.7923999291683135 17.32395804823614 9.335528289113956 1 -1 1
1166 1 5.945108573116231 18.984037258285795 10.894517072061436 0 0 0
82 1 7.202302443241523 21.085581305794427 10.203241792290353 1 -1 -1
896 1 7.591654736943607 18.82353694382833 9.395417294433278 1 0 0
60 1 4.614198098583118 16.972812051129853 11.406279917424147 0 -1 0
637 1 12.08920540126733 16.751913438009602 7.629626085909592 -1 0 0
20 1 8.432510163950298 19.580494675571682 11.803229817445036 0 -1 0
1869 1 8.461343349710294 20.50594516174942 8.111498298290892 -1 -2 -1
300 1 10.241662607730314 20.095144391577513 10.958804595518984 0 -1 0
1527 1 10.832660570810521 20.34712603160218 8.784174978381513 0 0 -1
715 1 9.909822898440126 18.699278552078948 13.126270944870956 0 -1 0
649 1 16.64863495576614 18.81189524919455 8.828581982647222 0 0 0
42 1 14.109150559230352 15.902228038589016 9.948505478808144 -1 0 0
1259 1 16.17795867649409 16.916541634324254 11.106562657669762 -1 1 0
241 1 11.960639263716931 18.524597627494 9.268907512956394 0 -1 0
441 1 14.171671017911972 18.185294794931217 10.48599393989991 0 0 0
467 1 11.971964702197374 18.05220633653832 11.786692521330576 0 0 0
2289 1 15.21655664206204 20.72513467126474 12.422983822711203 0 1 -2
952 1 12.002744440417338 19.971037680881473 13.051854281851394 0 -1 0
2683 1 21.66030530680705 19.9190277661331 9.373921398844496 0 -1 0
1066 1 17.407821318917737 20.21443285945981 10.49875613565278 0 0 0
2430 1 17.26974869864119 21.03662849291057 12.574830376511411 0 0 2
455 1 18.003276783069087 17.230246917333567 9.677894686154342 0 0 0
2696 1 18.07188245655734 18.249553591748334 11.485874070260953 0 1 3
1071 1 19.812009414042073 15.967550758983034 10.861529969030656 -1 0 0
2183 1 19.801970312687903 19.893217179849223 11.959771032362926 1 0 -1
227 1 15.88658104074229 18.56616175604561 12.6378966932463 -1 -2 0
1508 1 19.079289966760662 22.260393543439573 11.78242990900879 -1 -1 2
1914 1 21.127669640649888 22.20868441303698 10.730768895395467 1 0 0
711 1 0.3347976459963675 17.148568782320247 8.859733834238813 1 1 0
611 1 22.037471293793537 16.957018527270773 10.739968767468653 1 -1 0
2688 1 23.650300252522044 15.14569541199801 9.565927131928662 1 -1 2
2082 1 21.984304757338887 20.543716026888198 11.51887292889564 2 0 0
185 1 22.60750970811167 18.912051419262585 12.744094623235755 -1 0 0
928 1 24.2511606182278 16.980103553899635 11.205223718576189 -1 1 0
111 1 2.919137028025598 22.11581188263389 8.85586745533207 1 -1 0
921 1 2.6395885857718246 21.276591561501174 11.33679596879012 1 0 0
474 1 0.37172099065008934 21.25983990080383 10.894474649509608 1 0 0
14 1 4.214944465438254 23.20358088489416 10.707839693650183 1 0 0
892 1 1.0530291178179398 22.802402790053822 12.685431252892952 0 -1 0
2551 1 4.357984275935093 19.836339221232368 9.601227467777496 2 -2 1
558 1 5.140918122975596 21.342966827969033 11.078753032830498 -1 0 0
383 1 5.9162723836719415 23.839534712975542 7.212672807143889 1 -1 0
1280 1 5.2385392918136064 0.8836340787265339 11.916453514881514 -1 1 0
753 1 5.190264047906969 22.212820666042017 8.921471300033176 1 -1 0
733 1 5.718581097059592 24.393732268236537 9.263782231317709 1 -1 0
1266 1 5.286165053173165 22.467882699011717 13.848756023386777 1 0 0
2194 1 6.525834358813116 23.06063086663048 11.938749380991194 0 1 1
153 1 9.512279926057142 21.943171195283863 9.672423052230656 1 -2 0
529 1 9.653964996574256 21.029741029024095 13.499522387170384 1 -1 0
415 1 10.907151323568623 22.450379643354083 11.406362971326967 1 -1 0
318 1 9.784838876726514 24.0635044373954 10.515729429528712 1 0 0
806 1 8.715660964505116 22.05024532594602 11.795921249665115 0 0 0
2322 1 8.40965560329638 24.465989301237503 12.483613110180004 1 -2 2
218 1 13.312674263421536 22.277666122990002 12.396412098591835 1 -2 0
175 1 11.590225773960412 0.29812477543586624 12.216620976639737 1 0 0
2206 1 15.25547399970161 19.949689960525497 10.27837702552634 1 2 1
522 1 12.086143921554944 21.99802962937857 9.628098442865246 0 -1 0
2045 1 12.89190186113078 20.215465338403373 11.02404513795576 -2 -2 0