LAMMPS data file via write_data, version 19 Mar 2020, timestep = 500000

864 atoms
2 atom types

-2.6195748639244343e-01 1.7589369486392819e+01 xlo xhi
-2.6195748639244343e-01 1.7589369486392819e+01 ylo yhi
-5.2391497278488686e-01 3.5178738972785638e+01 zlo zhi

Masses

1 58.71
2 26.982

Atoms # atomic

862 2 3.9846230190185503e+00 1.7268049142280091e+01 7.9179444218809314e-01 1 1 1
1 1 1.3656203808403102e+00 1.7569790778784618e+01 3.4212283527609126e+00 -1 1 0
675 1 3.6331056522402094e+00 1.1470688146183694e-01 4.1427070689253007e+00 -1 1 1
74 2 2.9693561381689935e+00 1.6226159716242705e+01 2.6493330069708443e+00 2 1 0
844 2 5.7516898118383963e+00 1.1398192744509890e+00 4.7832770438294823e+00 -1 0 1
209 1 7.6159876082730662e+00 1.7408394234049446e+01 5.1045839959236909e+00 -2 -1 0
747 1 2.9330990786415567e+00 2.0625034842854340e+00 4.1309306513312531e+00 0 0 1
54 2 7.6330330331839287e+00 3.8066718582488301e-01 1.7362929341886448e+00 -1 -1 0
217 1 9.1789943660847086e+00 3.7527064423771188e+00 4.7592262647388992e+00 -2 0 0
696 2 1.0400443982439434e+01 2.8810109499719014e+00 2.2421857561618079e+00 0 5 1
223 1 6.6417173008762820e+00 1.7376484970034184e+01 -2.6278581492284825e-01 -1 0 0
856 2 5.9230688697025524e+00 1.9743404130524227e+00 1.9308812539925935e+00 0 2 1
791 1 1.5999052614272895e+01 3.9122146818947501e+00 3.5528697713487505e+00 0 1 1
707 1 1.2052436394670204e+01 3.3345270966545848e-01 3.1512988080696629e+00 0 0 1
84 2 1.4728427534873477e+01 3.9187740953325019e+00 5.5555960153517905e+00 1 1 0
204 2 1.3940497261532865e+01 3.0317999094942782e-01 9.6185173566854454e-01 -1 1 0
757 1 1.2386308115155227e+01 3.0326278744369697e+00 1.2425276247544723e+00 0 2 1
50 2 1.7365899798048105e+01 -1.5889243803925146e-01 9.0974592869506332e-01 -2 0 0
765 1 1.0527553475736104e+01 4.0741549235308980e+00 1.8921968003842782e-01 0 1 1
829 1 1.1818949131255499e+01 3.5605248636284448e-02 6.1864216439807027e+00 0 0 1
227 1 1.5806999690900184e+01 2.2810258009496835e+00 4.2035195774648608e+00 0 0 0
715 1 4.3930258905233126e+00 1.4606371314613799e+01 1.1158252373289312e+00 -1 -1 1
726 2 1.4360243553061052e+01 4.4751087210265776e+00 8.6185722740131943e-01 -1 2 1
779 1 1.8459832561438425e+00 1.6762529518356754e+01 1.1100944934049481e+00 0 0 1
420 2 1.6101758905326495e+01 1.3126537743196499e+01 1.5839801418933980e+01 0 0 0
833 1 1.3833560960457858e+01 1.7067211879715625e+01 4.3870280270077817e+00 -1 -1 1
148 2 1.7464745461672138e+01 6.7443456368075045e+00 3.2255836414766730e+00 -1 1 0
730 2 1.4228413102913464e+01 1.1114946206534242e+00 3.4236557211132803e+00 0 1 1
744 2 7.0577706703029488e+00 5.8740870582496019e+00 2.3819366504207800e+00 1 2 1
659 1 6.3516669962856787e-01 4.6978265573969482e+00 3.2162385636566708e+00 2 -1 1
418 2 1.3126537743196499e+01 1.3126537743196499e+01 1.5839801418933980e+01 0 0 0
753 1 1.6104972263199333e+01 8.3194553920968097e+00 -4.9155208592417576e-01 -1 0 1
704 2 1.6777124836285715e+01 4.5881355295672437e+00 1.3093480054274627e+00 -1 0 1
805 1 1.0573070105872043e+01 1.5590735841465239e+01 6.9518233396360962e-01 -1 0 1
796 2 1.7623944515235448e+00 5.3172883220705494e+00 7.9834033182577913e-01 0 2 1
767 1 3.3868237704145323e+00 9.0291956491458407e+00 2.0414484795400329e+00 0 1 1
763 1 6.9952548726939678e+00 7.4159255825546859e+00 4.8139194502414928e-01 0 1 1
745 1 6.7643590722940585e+00 4.6891594933659109e+00 5.1576854316065806e+00 0 0 1
782 2 8.5446635324628399e+00 5.8918852567506006e+00 -7.1287768638885751e-03 -3 0 1
742 2 4.3387887891653660e+00 3.9074857758158412e+00 2.8966356724449680e+00 1 0 1
360 2 1.6101758905326495e+01 1.6101758905326495e+01 1.2864580256804055e+01 0 0 0
761 1 8.2060130000946980e+00 1.0822613750028342e+01 8.1872593782177638e-01 1 0 1
149 1 9.5891035413357475e+00 5.5543969517657041e+00 2.5378324087515653e+00 0 1 0
772 2 4.5830955121390815e-01 7.1278096737147356e+00 9.1982564952680312e-02 0 1 1
109 1 3.7927902661124167e+00 1.8403087673223970e+00 1.3684120780904492e+00 -1 0 0
247 1 1.0746752932909079e+01 6.2815708701819792e+00 5.8221689763594089e+00 -1 1 0
59 1 1.0787439439255781e+01 9.6283959579218745e+00 1.7333952771507541e+00 -2 2 0
126 2 8.2808505704367974e+00 8.0281270377929470e+00 2.5025739971981369e+00 0 0 0
25 1 7.4892549443779433e-02 2.7634691942142733e+00 1.6127112025005130e-01 0 2 0
162 2 7.9248063218821603e+00 1.2935455892005098e+01 -6.2042910008920982e-02 -1 1 0
697 1 9.4542080579605852e+00 1.2519651918899875e+01 1.5464045040203178e+00 1 0 1
346 2 1.3126537743196499e+01 1.3126537743196499e+01 1.2864580256804055e+01 0 0 0
181 1 1.3998047244616128e+01 7.1410370587142058e+00 -3.6611587759816727e-01 -3 0 0
762 2 1.5069860111824646e+01 7.1989714669957774e+00 1.7693756490233188e+00 0 2 1
178 2 1.2915087261970882e+01 8.2623393023082770e+00 4.4180461544166878e+00 -2 0 0
677 1 1.2405355741362872e+01 7.6569019336769779e+00 1.1427058743480718e+00 0 1 1
87 1 1.7297860246645673e+01 1.1130016149177397e+01 -3.6537401359019978e-01 -1 0 0
358 2 1.3126537743196499e+01 1.6101758905326495e+01 1.2864580256804055e+01 0 0 0
122 2 1.8315724744755131e+00 1.0758943221137892e+01 7.2522971862960084e-01 -1 3 0
196 2 1.6257547837477719e+00 7.5254371835450007e+00 1.3809635047601303e+00 -3 0 0
735 1 1.1265860581868257e+00 9.4401482404992514e+00 1.5861001294063661e+00 -2 -1 1
29 1 4.7190279580308223e+00 1.1551263362782878e+01 5.8924355239154647e-01 1 0 0
672 2 5.0142289036799523e+00 9.0581359582242875e+00 5.3981044950137838e+00 1 1 1
72 2 1.5457809677328180e+01 2.1412665461671292e+00 1.9039792753025986e+00 -4 1 0
815 1 8.5523787666969362e+00 1.5243990505624904e+01 9.5012882004502619e-01 1 0 1
348 2 1.6101758905326495e+01 1.3126537743196499e+01 1.2864580256804055e+01 0 0 0
202 2 6.4316444718755532e+00 1.1231655976358390e+01 2.2738470297278854e+00 0 1 0
739 1 5.8229997404891227e+00 1.3238813071644302e+01 4.8578794748643683e-01 0 -1 1
431 1 1.4614148324261112e+01 1.4614148324261112e+01 1.4352190837868669e+01 0 0 0
725 1 5.7575789058687334e+00 8.1342740563248732e+00 3.0694018202645719e+00 0 0 1
180 2 4.0586198612142725e+00 1.0649097080264269e+01 3.4824390150854558e+00 -1 -1 0
653 1 1.3036887964259312e+00 1.4842086245481854e+01 2.5376126224843065e+00 0 0 1
665 1 1.3441147587981188e+01 1.4130042462659327e+01 1.9520313741191289e+00 -2 2 1
802 2 6.5135728813577529e+00 3.9408227869296253e+00 1.0663871420600675e+00 1 0 1
172 2 9.5082404039096193e+00 1.7064542184840409e+01 1.8544022482830114e+00 -1 -2 0
838 2 1.1261429164211876e+01 7.3557242734970671e+00 2.7401639052003590e+00 -1 0 1
666 2 1.1401218031382164e+01 1.2754051150669456e+01 2.9723248246229588e+00 0 -1 1
9 1 1.0106895697763025e+00 9.8173032717706654e+00 6.5749085554404871e+00 0 0 0
156 2 1.1961908997928138e+01 1.0501299927636444e+01 4.7508855221184243e+00 -1 0 0
233 1 1.3209129513398119e+01 9.3355553877361039e+00 2.6014779361310874e+00 -1 1 0
799 1 5.8270597064236651e-01 8.6185619944898040e+00 3.9789251837658810e+00 1 1 1
15 1 1.2553073862831802e+01 1.1382600522026754e+01 7.8681071399710456e-01 -1 -1 0
200 2 1.5778974329302947e+01 1.0208898384846998e+01 1.7997778356424337e+00 -2 1 0
671 1 1.4028964507898611e+00 1.3566820908921285e+01 4.2278522836525427e+00 -1 0 1
221 1 1.2566236917384172e+01 1.6715275125902302e+01 1.5912831093470223e+00 -2 0 0
710 2 1.3638661630233093e+01 9.3419512840661856e+00 7.1829375075923307e-01 -1 0 1
2 2 7.6479917161498845e+00 1.5581753475703596e+01 3.1459119044681065e+00 0 -1 0
174 2 6.1692223127727868e+00 1.5371666594362912e+01 6.5097114360214903e-01 -1 2 0
104 2 6.2630307155982994e+00 6.9915366646413313e-01 7.5178524453545688e+00 0 1 0
729 1 1.8021992441589791e+00 1.0313500905294872e+00 1.1958569356515119e+00 -1 -1 1
144 2 1.4313918573512833e+01 1.3052790660549395e+01 6.4575343002776755e+00 1 1 0
273 1 6.2764589123146628e+00 1.4205041570958292e+01 2.5391600866213588e+00 0 0 0
130 2 5.8294395766835869e+00 1.4821156947935775e+01 5.8547279270305053e+00 0 2 0
120 2 8.5813167903211180e+00 1.3120190455925700e+01 3.5217189740904598e+00 -1 -1 0
801 1 1.0489342425679878e+01 9.2747173045208342e-01 6.6947164507846257e-01 -2 -1 1
658 2 1.4826819456361147e+01 1.2022738999956628e+01 2.6694481158075241e+00 -1 0 1
89 1 1.0460157076761643e+01 1.0809494634024096e+01 -2.4111896716471343e-01 -1 -2 0
724 2 1.0089105022765054e+01 1.6950732648740782e+01 4.5226793913158243e+00 -1 0 1
794 2 1.5389880008221182e+01 1.5894458282605132e+01 2.2679305359873450e+00 1 -1 1
163 1 3.8610078091754492e+00 5.1288833413545731e+00 7.9801618491092352e-01 0 -1 0
860 2 1.5711886601519591e+01 1.3211697882172848e+01 3.7368451332127017e-01 0 2 1
117 1 1.4979877276181369e+01 1.5277630196759656e+01 6.1279971422671142e-01 1 1 0
503 1 1.4614148324261112e+01 1.4614148324261112e+01 1.7327412000000372e+01 0 0 0
176 2 -4.0323520898938175e-02 1.4016578442061800e+00 5.3453197928613330e+00 1 -1 0
803 1 1.5502423221880958e+01 8.8893902056099243e+00 3.5100256796742952e+00 -1 0 1
5 1 1.5667838991132563e+00 2.7771526202705612e+00 6.5462679105678134e+00 -1 1 0
708 2 5.7509475312338143e+00 1.7105487837165448e+01 3.3630347653633805e+00 -1 0 1
6 2 2.9394539646409434e+00 1.6694879281481512e+01 6.1329869908621815e+00 -1 0 0
737 1 5.0100090979602463e+00 -1.8701150774235842e-01 6.0304562830642174e+00 0 0 1
749 1 2.5752742614660922e+00 2.8931535866609472e+00 8.8224158718007963e+00 1 0 1
841 1 1.9568597030826060e+00 3.4221271920975855e+00 2.1792008851652973e+00 -2 1 1
62 2 4.0588446028621759e+00 3.8479393080700293e+00 7.3997327314067665e+00 0 2 0
839 1 2.6077269126388458e+00 -1.7432669275898671e-01 8.3545771607285158e+00 0 0 1
283 1 4.6817967615000136e+00 3.4803598336491470e+00 5.0455402948061518e+00 1 2 0
186 2 3.8615733704166564e+00 1.9698273279964611e+00 6.9042794148119047e+00 1 0 0
854 2 6.8933078337826243e+00 3.3421043422554502e+00 6.9410591577440846e+00 -1 1 1
820 2 1.1633302042308811e+01 2.3525739991561232e+00 4.1085451535116624e+00 -2 -1 1
107 1 1.0239414258548541e+01 1.6005626096650738e+00 6.4818062546915263e+00 0 1 0
249 1 5.4263886477161343e+00 2.8487222765433855e+00 8.1196811323946552e+00 0 1 0
267 1 7.6016001893674625e+00 2.0070051387081835e+00 5.4355151606950409e+00 0 1 0
187 1 1.4234527488503316e+01 5.8657284938278886e-01 5.6303130117205864e+00 -2 -2 0
688 2 6.9251217787736037e+00 7.0388990958055766e+00 6.5232821636235077e+00 0 1 1
736 2 1.3046246817984585e+01 6.2942454393229816e+00 2.5606340052879943e+00 -1 1 1
205 1 1.2547561101930476e+01 4.4762061747202733e+00 7.2952942729303247e+00 -1 3 0
116 2 1.1710649820297258e+01 1.7647459843054754e+00 7.8734627228502827e+00 0 0 0
152 2 1.5826505418301998e+01 1.5826051750303137e+01 5.2819449106986864e+00 1 0 0
44 2 1.5959075404113669e+01 2.0010371728569223e+00 6.4013174489777862e+00 0 0 0
239 1 1.4181051044555109e+00 4.9930142417336643e-01 6.6650539455877960e+00 1 -1 0
99 1 1.7560636391864481e+01 2.5830287132682677e+00 2.3492894110915299e+00 -1 1 0
746 2 1.6813445613821543e+01 1.1632194932487960e-02 3.2692181094761121e+00 0 1 1
680 2 2.6869156904276892e+00 4.9935089236117109e+00 4.8695625477789832e+00 1 -1 1
798 2 1.2178037149312071e+00 5.0537788391902456e+00 6.9683381642045497e+00 0 1 1
19 1 -1.4123493487737210e-01 3.5181474199176437e+00 5.5968660501684395e+00 -1 2 0
185 1 1.4003689153104062e+01 4.2329821225193587e-01 7.9168021897680365e+00 1 -1 0
784 2 5.5112222990004911e+00 6.3140786357358731e+00 4.6805099215453536e+00 -2 0 1
243 1 2.1453934877877887e+00 5.9754415671561150e+00 2.8937126258003198e+00 0 0 0
818 2 3.4765681476498376e+00 7.6611208085486062e+00 4.4521970549553176e+00 0 0 1
111 1 4.0952917299698059e+00 6.8627094265032413e+00 2.5791925834634841e+00 0 0 0
80 2 2.9468570296185663e+00 9.2728655781034401e+00 7.6460115939289555e+00 0 -1 0
14 2 3.8691327807939278e+00 6.6969048661187962e+00 6.4855258175852990e+00 0 0 0
245 1 1.1048553641712595e+00 6.6019019945341677e+00 5.1107134223734541e+00 0 1 0
214 2 5.5315995451115108e-01 7.5512386099668056e+00 7.2602858227958844e+00 0 0 0
702 2 2.4852741309763990e+00 9.7951479610994205e+00 4.8420347086051390e+00 0 2 1
168 2 7.5701165151860419e+00 3.5446254044890839e+00 3.2043709833843446e+00 2 0 0
668 2 8.5605673387619525e+00 8.6086582764856399e+00 5.5761380112906558e+00 0 2 1
225 1 7.4205260655422540e+00 8.8832369676728486e+00 7.8350309846488422e+00 -1 1 0
693 1 9.4787003217350208e+00 3.0485646509317821e+00 8.1204713453354955e+00 -1 2 1
66 2 5.3468133035297347e+00 8.6819482093337808e+00 8.3686428205370369e+00 0 1 0
194 2 9.5799903568658777e+00 1.0809163768389588e+01 3.1851252142592013e+00 0 2 0
720 2 1.4384118551725487e+01 2.7446655526844794e+00 8.2527581336134332e+00 0 -1 1
28 2 1.0353426146644178e+01 6.8267871563487841e+00 7.8511217612341921e-01 -1 1 0
823 1 1.2215622426990929e+01 7.8039151240094320e+00 7.9510395979773332e+00 0 0 1
808 2 1.3360434252122319e+01 6.2700307439822387e+00 6.2013429807010585e+00 0 -1 1
731 1 1.1422393476095362e+01 5.7896795268437167e+00 8.9683392371876351e+00 -1 -1 1
86 2 8.7555937180587158e+00 5.1058477482914197e+00 7.5027534629348107e+00 0 0 0
77 1 1.4787138550354074e+01 5.5949672836142055e+00 3.4326649090786030e+00 -1 1 0
208 2 1.5356668523850752e+01 7.1466379976341852e+00 4.8633650376031330e+00 -1 0 0
771 1 1.6921872864628007e+01 8.2415009841000479e+00 1.9626989523061726e+00 -2 0 1
93 1 1.3597587430307685e+01 3.9066699293055054e+00 3.4563542318576688e+00 0 2 0
727 1 1.4543792943680998e+01 9.1186052839215268e+00 5.8397762500214556e+00 0 0 1
864 2 1.6797950074329147e+01 8.4324568558374953e+00 5.4699364293685759e+00 0 0 1
203 1 5.7405504909601401e-01 1.3132260602197988e+01 -1.9941514328978110e-01 0 0 0
183 1 5.5066392574038039e+00 1.4840976255849524e+01 8.4292383610205022e+00 1 0 0
676 2 4.5742674773484451e+00 1.2970611469886331e+01 2.5906427159175389e+00 0 0 1
237 1 3.1864794806067089e+00 1.2945450697616064e+01 5.0812627988376127e+00 1 0 0
60 2 4.2226323408244815e+00 1.1065249163043141e+01 6.3233778102378144e+00 1 1 0
215 1 9.8109747746586939e-01 1.1318206824013091e+01 3.6715724820882114e+00 0 1 0
75 1 3.0372765554224741e+00 1.1629506782438479e+01 9.0712116571896591e+00 -1 -1 0
755 1 1.7418048271578286e+01 1.1753987772508179e+01 9.1815398436052931e+00 -2 -1 1
709 1 8.5042649311739691e+00 1.2769363217979338e+01 5.7163527896348203e+00 0 1 1
210 2 7.6516041261380536e+00 1.0291197284800869e+01 4.2149253681109196e+00 0 1 0
11 1 6.8803972119678649e+00 1.0687119150495660e+01 6.1795402387900022e+00 0 0 0
819 1 8.3465554208849273e+00 6.1254454759891042e+00 4.4456623568232851e+00 -2 0 1
664 2 5.2847919874327802e+00 1.2958829185493130e+01 4.9493517146149948e+00 0 1 1
68 2 4.7483028849583553e+00 7.6458293770125323e+00 5.4611766790767247e-01 -1 1 0
655 1 8.1653355431604897e+00 1.1205249631190989e+01 8.2806679358363340e+00 0 1 1
825 1 3.7385931195763717e+00 1.4558019760263750e+01 3.8810287406345347e+00 -1 1 1
119 1 5.2996746156715453e+00 1.1881749824173998e+01 8.4728089304838097e+00 0 0 0
158 2 1.6568693970021922e+01 1.2492369147636554e+01 4.5410257899280593e+00 0 0 0
859 1 1.3216272733529077e+01 1.2814055316241403e+01 4.3836259854205197e+00 0 0 1
112 2 1.0651246231554774e+01 1.3412125329241279e+01 5.6528168909461476e+00 0 0 0
115 1 1.1075414511080403e+01 8.8321672977046877e+00 5.7026266965644243e+00 -1 3 0
754 2 9.8668824755520372e+00 7.5125264819499122e+00 7.9535754939352437e+00 -2 1 1
153 1 1.4472920041223844e+01 1.1382735412745804e+01 5.8881045932331215e+00 0 1 0
848 2 1.0114341385840488e+01 1.1135467010254038e+01 6.6320177140130117e+00 -1 0 1
8 2 1.2974990632502747e+01 9.8373938865442714e+00 7.0242681046206750e+00 1 1 0
145 1 1.7587837224911006e+01 8.6991375273217937e+00 8.7435909379551884e+00 -3 0 0
3 1 1.6956365225108691e+01 1.0733812292322110e+01 4.5112524796799418e+00 0 -1 0
682 2 1.6457484181159693e+01 1.0536427538021076e+01 7.3164275546697697e+00 -2 1 1
255 1 1.5149312102665681e+01 7.6946433053517111e+00 8.2109667395145056e+00 0 0 0
103 1 9.4621339234554891e-01 1.4607029853670337e+01 6.3703884212985153e+00 0 0 0
182 2 1.7373252934950340e+01 1.5214448551512316e+01 4.0155235459935419e+00 -2 1 0
40 2 2.9969727197007305e+00 1.5030524598432311e+01 8.1487694906632804e+00 1 -1 0
281 1 1.6886432479084110e+00 1.6041114238115970e+01 4.8042673706567287e+00 1 -1 0
816 2 1.6302374462933740e+00 1.2250115170325119e+01 7.8220058539934687e+00 0 0 1
837 1 7.1456921826323718e+00 1.6441632338787521e+01 7.0554300347657604e+00 0 -2 1
857 1 3.7878857562051893e+00 1.3096025176199165e+01 7.2761036582721967e+00 0 1 1
685 1 1.0314078607513736e+01 1.4658175990994680e+01 3.4000190694129571e+00 0 0 1
690 2 9.6868061543710837e+00 1.7093144076622021e+01 7.2036020160591132e+00 -2 1 1
861 1 1.0786745212036751e+01 1.5658169789291417e+01 6.4744786443489879e+00 0 1 1
703 1 1.1968099024452149e+01 1.7137490610926665e+01 8.5658717276598395e+00 0 -1 1
277 1 9.3941812514698917e+00 1.1292027227368358e+00 3.2535208894045375e+00 0 1 0
154 2 8.3565638793836516e+00 1.4882380725576581e+01 5.9910001884395454e+00 -2 -2 0
832 2 1.3465235160955816e+01 1.5966457993621702e+01 6.2164845501895698e+00 -2 -1 1
114 2 1.1418916148552892e+01 1.4484916528596717e+01 7.9856887263449501e+00 -2 0 0
858 2 1.2158082167462716e+01 1.5413949253434829e+01 3.9898633526630958e+00 1 0 1
285 1 1.5195564986424635e+01 1.4339060641317303e+01 3.8328216158404160e+00 -2 1 0
57 1 9.3610734439639938e+00 1.3385644233741008e+01 7.7362923777084589e+00 -2 0 0
850 2 2.3230637070535981e-01 1.6119608516963130e+01 5.9956229769477609e+00 1 0 1
263 1 1.3524004742781930e+01 1.4900128372606225e+01 8.1849607940190108e+00 -1 0 0
18 2 1.7228203384609465e+01 1.2832792161974119e+01 7.0606380166278395e+00 0 0 0
216 2 -1.3223109289183815e-01 1.4845513597162439e+01 1.0023944912853373e+00 0 1 0
47 1 1.3266246152218650e+00 1.2080829343986910e+01 5.7056224745625759e+00 -2 -1 0
35 1 1.5765495358700871e+01 1.4684793943604449e+01 7.6481217241159722e+00 0 0 0
692 2 -2.6004925133675272e-01 1.2536888689954475e+01 2.1084201916829293e+00 0 0 1
673 1 2.6980690836472132e-01 3.2398305999219890e+00 8.1085839622514495e+00 -1 0 1
289 1 -2.6195748639244343e-01 -2.6195748639244343e-01 1.1376969675738227e+01 0 0 0
301 1 -2.6195748639244343e-01 2.7132636757383350e+00 1.1376969675738227e+01 0 0 0
291 1 2.7132636757383350e+00 -2.6195748639244343e-01 1.1376969675738227e+01 0 0 0
303 1 2.7132636757383350e+00 2.7132636757383350e+00 1.1376969675738227e+01 0 0 0
218 2 1.2256530946729458e+00 1.2256530946729458e+00 9.8893590946745036e+00 0 0 0
220 2 4.2008742568038713e+00 1.2256530946729458e+00 9.8893590946745036e+00 0 0 0
230 2 1.2256530946729458e+00 4.2008742568038713e+00 9.8893590946745036e+00 0 0 0
232 2 4.2008742568038713e+00 4.2008742568038713e+00 9.8893590946745036e+00 0 0 0
39 1 5.2857507489189182e+00 5.1988765993377273e+00 7.0596929558941213e+00 -2 1 0
293 1 5.6884848378691135e+00 -2.6195748639244343e-01 1.1376969675738227e+01 0 0 0
305 1 5.6884848378691135e+00 2.7132636757383350e+00 1.1376969675738227e+01 0 0 0
222 2 7.1760954189343344e+00 1.2256530946729458e+00 9.8893590946745036e+00 0 0 0
295 1 8.6637060000001860e+00 -2.6195748639244343e-01 1.1376969675738227e+01 0 0 0
307 1 8.6637060000001860e+00 2.7132636757383350e+00 1.1376969675738227e+01 0 0 0
234 2 7.1760954189343344e+00 4.2008742568038713e+00 9.8893590946745036e+00 0 0 0
212 2 1.1666816186491729e+01 4.4020674818942727e+00 5.3829733891306351e+00 -1 2 0
297 1 1.1638927162130670e+01 -2.6195748639244343e-01 1.1376969675738227e+01 0 0 0
309 1 1.1638927162130670e+01 2.7132636757383350e+00 1.1376969675738227e+01 0 0 0
224 2 1.0151316581066947e+01 1.2256530946729458e+00 9.8893590946745036e+00 0 0 0
236 2 1.0151316581066947e+01 4.2008742568038713e+00 9.8893590946745036e+00 0 0 0
679 1 1.3379219542386780e+01 2.6923084869910299e+00 5.8884611288872915e+00 0 2 1
226 2 1.3126537743196499e+01 1.2256530946729458e+00 9.8893590946745036e+00 0 0 0
238 2 1.3126537743196499e+01 4.2008742568038713e+00 9.8893590946745036e+00 0 0 0
299 1 1.4614148324261112e+01 -2.6195748639244343e-01 1.1376969675738227e+01 0 0 0
311 1 1.4614148324261112e+01 2.7132636757383350e+00 1.1376969675738227e+01 0 0 0
228 2 1.6101758905326495e+01 1.2256530946729458e+00 9.8893590946745036e+00 0 0 0
240 2 1.6101758905326495e+01 4.2008742568038713e+00 9.8893590946745036e+00 0 0 0
199 1 2.6270055090264699e+00 6.6006645494216505e+00 8.6146223588965221e+00 -1 0 0
313 1 -2.6195748639244343e-01 5.6884848378691135e+00 1.1376969675738227e+01 0 0 0
315 1 2.7132636757383350e+00 5.6884848378691135e+00 1.1376969675738227e+01 0 0 0
242 2 1.2256530946729458e+00 7.1760954189343344e+00 9.8893590946745036e+00 0 0 0
244 2 4.2008742568038713e+00 7.1760954189343344e+00 9.8893590946745036e+00 0 0 0
325 1 -2.6195748639244343e-01 8.6637060000001860e+00 1.1376969675738227e+01 0 0 0
327 1 2.7132636757383350e+00 8.6637060000001860e+00 1.1376969675738227e+01 0 0 0
41 1 5.9536490765962684e+00 6.1659365684013521e+00 8.7338097807293522e+00 -4 1 0
317 1 5.6884848378691135e+00 5.6884848378691135e+00 1.1376969675738227e+01 0 0 0
246 2 7.1760954189343344e+00 7.1760954189343344e+00 9.8893590946745036e+00 0 0 0
319 1 8.6637060000001860e+00 5.6884848378691135e+00 1.1376969675738227e+01 0 0 0
329 1 5.6884848378691135e+00 8.6637060000001860e+00 1.1376969675738227e+01 0 0 0
331 1 8.6637060000001860e+00 8.6637060000001860e+00 1.1376969675738227e+01 0 0 0
321 1 1.1638927162130670e+01 5.6884848378691135e+00 1.1376969675738227e+01 0 0 0
248 2 1.0151316581066947e+01 7.1760954189343344e+00 9.8893590946745036e+00 0 0 0
333 1 1.1638927162130670e+01 8.6637060000001860e+00 1.1376969675738227e+01 0 0 0
667 1 1.6588892949300166e-01 5.8688212430519444e+00 8.4106434915484964e+00 0 0 1
250 2 1.3126537743196499e+01 7.1760954189343344e+00 9.8893590946745036e+00 0 0 0
849 1 1.4456521635267480e+01 5.6486940345737588e+00 8.3554052027122374e+00 -2 1 1
323 1 1.4614148324261112e+01 5.6884848378691135e+00 1.1376969675738227e+01 0 0 0
252 2 1.6101758905326495e+01 7.1760954189343344e+00 9.8893590946745036e+00 0 0 0
335 1 1.4614148324261112e+01 8.6637060000001860e+00 1.1376969675738227e+01 0 0 0
738 2 6.8302805429154327e+00 1.2965415972114112e+01 7.2802391313002692e+00 0 1 1
337 1 -2.6195748639244343e-01 1.1638927162130670e+01 1.1376969675738227e+01 0 0 0
339 1 2.7132636757383350e+00 1.1638927162130670e+01 1.1376969675738227e+01 0 0 0
254 2 1.2256530946729458e+00 1.0151316581066947e+01 9.8893590946745036e+00 0 0 0
256 2 4.2008742568038713e+00 1.0151316581066947e+01 9.8893590946745036e+00 0 0 0
341 1 5.6884848378691135e+00 1.1638927162130670e+01 1.1376969675738227e+01 0 0 0
258 2 7.1760954189343344e+00 1.0151316581066947e+01 9.8893590946745036e+00 0 0 0
343 1 8.6637060000001860e+00 1.1638927162130670e+01 1.1376969675738227e+01 0 0 0
79 1 9.3869862875659962e+00 9.4371481727696054e+00 7.6404033797650701e+00 1 -1 0
123 1 1.1531923032050274e+01 1.1991393250724688e+01 8.3581461639681809e+00 -1 0 0
345 1 1.1638927162130670e+01 1.1638927162130670e+01 1.1376969675738227e+01 0 0 0
260 2 1.0151316581066947e+01 1.0151316581066947e+01 9.8893590946745036e+00 0 0 0
795 1 1.6864470482479614e+01 5.7236489152869412e+00 5.9951643619992003e+00 -1 -1 1
262 2 1.3126537743196499e+01 1.0151316581066947e+01 9.8893590946745036e+00 0 0 0
773 1 1.4508844517872184e+01 1.1562228182005342e+01 8.3492552606496488e+00 -1 1 1
347 1 1.4614148324261112e+01 1.1638927162130670e+01 1.1376969675738227e+01 0 0 0
264 2 1.6101758905326495e+01 1.0151316581066947e+01 9.8893590946745036e+00 0 0 0
266 2 1.2256530946729458e+00 1.3126537743196499e+01 9.8893590946745036e+00 0 0 0
268 2 4.2008742568038713e+00 1.3126537743196499e+01 9.8893590946745036e+00 0 0 0
349 1 -2.6195748639244343e-01 1.4614148324261112e+01 1.1376969675738227e+01 0 0 0
351 1 2.7132636757383350e+00 1.4614148324261112e+01 1.1376969675738227e+01 0 0 0
278 2 1.2256530946729458e+00 1.6101758905326495e+01 9.8893590946745036e+00 0 0 0
280 2 4.2008742568038713e+00 1.6101758905326495e+01 9.8893590946745036e+00 0 0 0
275 1 8.1483855539424983e+00 1.7544871313546185e+01 8.8264415764308009e+00 -1 1 0
270 2 7.1760954189343344e+00 1.3126537743196499e+01 9.8893590946745036e+00 0 0 0
133 1 4.8239805470613621e+00 1.7086245222071835e+01 7.9124818720507797e+00 -2 1 0
353 1 5.6884848378691135e+00 1.4614148324261112e+01 1.1376969675738227e+01 0 0 0
282 2 7.1760954189343344e+00 1.6101758905326495e+01 9.8893590946745036e+00 0 0 0
355 1 8.6637060000001860e+00 1.4614148324261112e+01 1.1376969675738227e+01 0 0 0
101 1 8.4962857363637525e+00 1.5089246003633361e+01 8.4170316316902998e+00 0 0 0
272 2 1.0151316581066947e+01 1.3126537743196499e+01 9.8893590946745036e+00 0 0 0
357 1 1.1638927162130670e+01 1.4614148324261112e+01 1.1376969675738227e+01 0 0 0
284 2 1.0151316581066947e+01 1.6101758905326495e+01 9.8893590946745036e+00 0 0 0
71 1 -3.2456743041786723e-02 1.7231221877833253e+01 8.3028837941288938e+00 -1 1 0
21 1 -1.0861402386319052e-02 1.5005708869482994e+01 8.5660014225306806e+00 1 -1 0
76 2 1.6042659684432380e+01 1.7265581207074440e+01 7.3551404581237403e+00 -1 0 0
274 2 1.3126537743196499e+01 1.3126537743196499e+01 9.8893590946745036e+00 0 0 0
276 2 1.6101758905326495e+01 1.3126537743196499e+01 9.8893590946745036e+00 0 0 0
286 2 1.3126537743196499e+01 1.6101758905326495e+01 9.8893590946745036e+00 0 0 0
359 1 1.4614148324261112e+01 1.4614148324261112e+01 1.1376969675738227e+01 0 0 0
288 2 1.6101758905326495e+01 1.6101758905326495e+01 9.8893590946745036e+00 0 0 0
290 2 1.2256530946729458e+00 1.2256530946729458e+00 1.2864580256804055e+01 0 0 0
292 2 4.2008742568038713e+00 1.2256530946729458e+00 1.2864580256804055e+01 0 0 0
302 2 1.2256530946729458e+00 4.2008742568038713e+00 1.2864580256804055e+01 0 0 0
304 2 4.2008742568038713e+00 4.2008742568038713e+00 1.2864580256804055e+01 0 0 0
361 1 -2.6195748639244343e-01 -2.6195748639244343e-01 1.4352190837868669e+01 0 0 0
373 1 -2.6195748639244343e-01 2.7132636757383350e+00 1.4352190837868669e+01 0 0 0
363 1 2.7132636757383350e+00 -2.6195748639244343e-01 1.4352190837868669e+01 0 0 0
375 1 2.7132636757383350e+00 2.7132636757383350e+00 1.4352190837868669e+01 0 0 0
362 2 1.2256530946729458e+00 1.2256530946729458e+00 1.5839801418933980e+01 0 0 0
364 2 4.2008742568038713e+00 1.2256530946729458e+00 1.5839801418933980e+01 0 0 0
374 2 1.2256530946729458e+00 4.2008742568038713e+00 1.5839801418933980e+01 0 0 0
376 2 4.2008742568038713e+00 4.2008742568038713e+00 1.5839801418933980e+01 0 0 0
433 1 -2.6195748639244343e-01 -2.6195748639244343e-01 1.7327412000000372e+01 0 0 0
445 1 -2.6195748639244343e-01 2.7132636757383350e+00 1.7327412000000372e+01 0 0 0
435 1 2.7132636757383350e+00 -2.6195748639244343e-01 1.7327412000000372e+01 0 0 0
447 1 2.7132636757383350e+00 2.7132636757383350e+00 1.7327412000000372e+01 0 0 0
294 2 7.1760954189343344e+00 1.2256530946729458e+00 1.2864580256804055e+01 0 0 0
306 2 7.1760954189343344e+00 4.2008742568038713e+00 1.2864580256804055e+01 0 0 0
365 1 5.6884848378691135e+00 -2.6195748639244343e-01 1.4352190837868669e+01 0 0 0
377 1 5.6884848378691135e+00 2.7132636757383350e+00 1.4352190837868669e+01 0 0 0
366 2 7.1760954189343344e+00 1.2256530946729458e+00 1.5839801418933980e+01 0 0 0
367 1 8.6637060000001860e+00 -2.6195748639244343e-01 1.4352190837868669e+01 0 0 0
379 1 8.6637060000001860e+00 2.7132636757383350e+00 1.4352190837868669e+01 0 0 0
378 2 7.1760954189343344e+00 4.2008742568038713e+00 1.5839801418933980e+01 0 0 0
437 1 5.6884848378691135e+00 -2.6195748639244343e-01 1.7327412000000372e+01 0 0 0
449 1 5.6884848378691135e+00 2.7132636757383350e+00 1.7327412000000372e+01 0 0 0
439 1 8.6637060000001860e+00 -2.6195748639244343e-01 1.7327412000000372e+01 0 0 0
451 1 8.6637060000001860e+00 2.7132636757383350e+00 1.7327412000000372e+01 0 0 0
296 2 1.0151316581066947e+01 1.2256530946729458e+00 1.2864580256804055e+01 0 0 0
308 2 1.0151316581066947e+01 4.2008742568038713e+00 1.2864580256804055e+01 0 0 0
369 1 1.1638927162130670e+01 -2.6195748639244343e-01 1.4352190837868669e+01 0 0 0
381 1 1.1638927162130670e+01 2.7132636757383350e+00 1.4352190837868669e+01 0 0 0
368 2 1.0151316581066947e+01 1.2256530946729458e+00 1.5839801418933980e+01 0 0 0
380 2 1.0151316581066947e+01 4.2008742568038713e+00 1.5839801418933980e+01 0 0 0
441 1 1.1638927162130670e+01 -2.6195748639244343e-01 1.7327412000000372e+01 0 0 0
453 1 1.1638927162130670e+01 2.7132636757383350e+00 1.7327412000000372e+01 0 0 0
298 2 1.3126537743196499e+01 1.2256530946729458e+00 1.2864580256804055e+01 0 0 0
310 2 1.3126537743196499e+01 4.2008742568038713e+00 1.2864580256804055e+01 0 0 0
300 2 1.6101758905326495e+01 1.2256530946729458e+00 1.2864580256804055e+01 0 0 0
312 2 1.6101758905326495e+01 4.2008742568038713e+00 1.2864580256804055e+01 0 0 0
370 2 1.3126537743196499e+01 1.2256530946729458e+00 1.5839801418933980e+01 0 0 0
382 2 1.3126537743196499e+01 4.2008742568038713e+00 1.5839801418933980e+01 0 0 0
371 1 1.4614148324261112e+01 -2.6195748639244343e-01 1.4352190837868669e+01 0 0 0
383 1 1.4614148324261112e+01 2.7132636757383350e+00 1.4352190837868669e+01 0 0 0
372 2 1.6101758905326495e+01 1.2256530946729458e+00 1.5839801418933980e+01 0 0 0
384 2 1.6101758905326495e+01 4.2008742568038713e+00 1.5839801418933980e+01 0 0 0
443 1 1.4614148324261112e+01 -2.6195748639244343e-01 1.7327412000000372e+01 0 0 0
455 1 1.4614148324261112e+01 2.7132636757383350e+00 1.7327412000000372e+01 0 0 0
314 2 1.2256530946729458e+00 7.1760954189343344e+00 1.2864580256804055e+01 0 0 0
316 2 4.2008742568038713e+00 7.1760954189343344e+00 1.2864580256804055e+01 0 0 0
385 1 -2.6195748639244343e-01 5.6884848378691135e+00 1.4352190837868669e+01 0 0 0
387 1 2.7132636757383350e+00 5.6884848378691135e+00 1.4352190837868669e+01 0 0 0
386 2 1.2256530946729458e+00 7.1760954189343344e+00 1.5839801418933980e+01 0 0 0
388 2 4.2008742568038713e+00 7.1760954189343344e+00 1.5839801418933980e+01 0 0 0
397 1 -2.6195748639244343e-01 8.6637060000001860e+00 1.4352190837868669e+01 0 0 0
399 1 2.7132636757383350e+00 8.6637060000001860e+00 1.4352190837868669e+01 0 0 0
457 1 -2.6195748639244343e-01 5.6884848378691135e+00 1.7327412000000372e+01 0 0 0
459 1 2.7132636757383350e+00 5.6884848378691135e+00 1.7327412000000372e+01 0 0 0