LAMMPS (19 Mar 2020)
OMP_NUM_THREADS environment is not set. Defaulting to 1 thread. (../comm.cpp:94)
  using 1 OpenMP thread(s) per MPI task
package omp 0
using multi-threaded neighbor list subroutines
package omp 4
set 4 OpenMP thread(s) per MPI task
using multi-threaded neighbor list subroutines

units metal
boundary p p p
atom_style atomic


lattice bcc 2.887902
Lattice spacing in x,y,z = 2.8879 2.8879 2.8879
read_data in.data
  orthogonal box = (0 0 0) to (2.8879 2.8879 2.8879)
  1 by 1 by 2 MPI processor grid
  reading atoms ...
  2 atoms
  read_data CPU = 0.0011428 secs

replicate 6 6 12
  orthogonal box = (0 0 0) to (17.3274 17.3274 34.6548)
  1 by 1 by 2 MPI processor grid
  864 atoms
  replicate CPU = 0.0018481 secs

# lattice bcc 2.887902
# region box block  3 0 3 0 8 units lattice
region left_hot block INF INF INF INF INF 3 units lattice
region right_hot block INF INF INF INF 9 INF units lattice
region middle_cold block INF INF INF INF 3 9 units lattice


#  2 6 units lattice
region hot union 2 left_hot right_hot
group hot_atoms region hot
468 atoms in group hot_atoms
group cold_atoms region middle_cold
468 atoms in group cold_atoms

variable dt equal 0.001


pair_style eam/alloy
pair_coeff * * Mishin-Ni-Al-2009.eam.alloy Ni Al

velocity all create 300 546445435 mom yes rot yes dist gaussian

neighbor 2 bin

neigh_modify every 10 check yes

fix 1 hot_atoms npt temp 300 2300 $(dt*100) iso 0 0 $(dt*1000) drag 1.0
fix 1 hot_atoms npt temp 300 2300 0.10000000000000000555 iso 0 0 $(dt*1000) drag 1.0
fix 1 hot_atoms npt temp 300 2300 0.10000000000000000555 iso 0 0 1 drag 1.0

thermo 1000
thermo_style custom step temp vol press ke pe density

fix temp all print 100 "$(step) $(temp) $(press) $(vol) $(ke) $(pe) $(density)" file temp.txt screen no title  "step temp press vol ke pe density"
# run 250000
fix out_file_1 all print 1000 "$(step) $(temp) $(press) $(vol) $(ke) $(pe) $(density)" file output.txt screen no title  "step temp press vol ke pe density"

dump 3 all custom 1000 traj_npt_new.lammpstrj id type x y z
dump_modify 3 element Ni Al

run 500000
Last active /omp style is pair_style eam/alloy/omp
Neighbor list info ...
  update every 10 steps, delay 10 steps, check yes
  max neighbors/atom: 2000, page size: 100000
  master list distance cutoff = 8.28721
  ghost atom cutoff = 8.28721
  binsize = 4.1436, bins = 5 5 9
  1 neighbor lists, perpetual/occasional/extra = 1 0 0
  (1) pair eam/alloy/omp, perpetual
      attributes: half, newton on, omp
      pair build: half/bin/atomonly/newton/omp
      stencil: half/bin/3d/newton
      bin: standard
Per MPI rank memory allocation (min/avg/max) = 7.342 | 7.342 | 7.342 Mbytes
Step Temp Volume Press KinEng PotEng Density 
       0          300    10404.737   -79187.926    33.465452   -3881.4006    5.9080204 
    1000    290.49376    9874.4337    40.691358    32.405016   -3883.0101    6.2253086 
    2000    303.18271    9889.3734    479.32022    33.820487   -3878.2702    6.2159042 
    3000    305.50502    9892.3572    644.24846    34.079545   -3877.2306    6.2140293 
    4000    314.46102    9906.7785   -1892.2789      35.0786   -3877.2662    6.2049835 
    5000    320.81191    9904.2001    -1288.669    35.787051   -3877.0535    6.2065989 
    6000    330.14544    9906.1365   -1448.2138    36.828221   -3877.1669    6.2053856 
    7000    330.19415    9902.0489   -508.20177    36.833655   -3876.2616    6.2079472 
    8000    336.45996    9908.0997   -1018.0664    37.532614   -3876.0588    6.2041561 
    9000    331.24998    9899.7479    761.38712    36.951434   -3874.6778    6.2093902 
   10000    340.19159    9902.1126    695.85525    37.948883   -3874.7527    6.2079073 
   11000    350.38339    9917.6235   -1932.9415    39.085794   -3874.8794    6.1981983 
   12000     347.2352    9917.4292   -1556.9803    38.734609   -3873.6302    6.1983198 
   13000    343.96391    9910.6864    409.51254    38.369692    -3872.371    6.2025368 
   14000    357.69805    9910.4013    376.24291    39.901755    -3872.979    6.2027153 
   15000    366.03333    9912.8169   -188.09901    40.831569   -3872.9892    6.2012037 
   16000     367.4098    9912.7014    209.01748    40.985116   -3872.2952     6.201276 
   17000    373.48537    9917.4069   -111.15548    41.662855   -3872.0455    6.1983337 
   18000    375.14682    9916.3099    292.08284    41.848192   -3871.3159    6.1990194 
   19000    382.66976    9921.6813   -691.00853    42.687388   -3871.2261    6.1956633 
   20000    381.11373    9916.4872     548.3186     42.51381   -3870.1546    6.1989085 
   21000    383.09339    9932.9126   -1203.5443    42.734644   -3869.4535    6.1886578 
   22000    383.85071    9922.0969    517.73088    42.819124   -3868.5953    6.1954038 
   23000    388.02911    9920.8409    960.60406    43.285231   -3868.1534    6.1961882 
   24000    395.53199    9936.9402   -1272.1727    44.122189   -3868.1191    6.1861495 
   25000    400.15801    9926.3971     237.3461    44.638228    -3867.658      6.19272 
   26000    408.07612    9921.6623    1165.0074    45.521505   -3867.6713    6.1956752 
   27000    404.28914    9931.0171    432.18035    45.099062    -3866.383    6.1898391 
   28000    410.66193     9939.661   -567.56208    45.809956   -3866.1821    6.1844561 
   29000    404.06961    9930.5863    1324.3723    45.074573   -3864.4636    6.1901076 
   30000    408.01977    9938.5063     266.5927    45.515219   -3864.0241    6.1851747 
   31000    414.97345    9937.5491    403.03284    46.290913    -3863.859    6.1857704 
   32000    429.25585    9934.2032    1129.0906    47.884136   -3864.4889    6.1878538 
   33000    428.72201    9938.3207    1286.1381    47.824586   -3863.5834    6.1852902 
   34000    446.69338    9936.8553    722.53764    49.829319   -3864.5945    6.1862023 
   35000    446.85559    9945.1091    150.35238    49.847414   -3863.7373    6.1810682 
   36000    465.56912    9947.1818   -598.92421    51.934936     -3864.79    6.1797802 
   37000    451.64959    9951.5831    -769.3964    50.382192   -3862.4006    6.1770471 
   38000    443.40335    9947.1005    1550.3158    49.462311   -3860.6274    6.1798308 
   39000    455.38058    9948.7907    783.50132     50.79839   -3861.0166    6.1787809 
   40000    458.47151    9957.9022   -565.36621    51.143186    -3860.416    6.1731272 
   41000    432.54192    9950.9061    2611.2477    48.250702    -3856.771    6.1774673 
   42000    467.73847    9946.5903     2291.662     52.17693   -3859.7738    6.1801477 
   43000    476.18687    9962.9883    -320.6769    53.119362   -3859.5734    6.1699758 
   44000    479.82515     9969.813   -1527.0839    53.525218   -3859.0729    6.1657523 
   45000    472.88147    9967.2074   -353.00668     52.75064   -3857.5025    6.1673641 
   46000    478.21035    9958.6109    1348.1754    53.345084   -3857.0394     6.172688 
   47000    484.12662    9960.0974    1082.0529    54.005053   -3856.8661    6.1717667 
   48000    487.65983    9978.1006   -1308.8213    54.399188   -3856.2385    6.1606312 
   49000    490.25638     9970.325    34.402259    54.688837   -3855.6223    6.1654357 
   50000     491.1589    9973.8029   -193.99195    54.789514   -3854.8057    6.1632858 
   51000    492.23619    9975.1247   -282.37499    54.909688   -3854.0911    6.1624691 
   52000    523.63427    9961.4652    1543.7134     58.41219   -3856.7056    6.1709193 
   53000    511.33021    9973.4057   -201.35837    57.039655   -3854.2809    6.1635312 
   54000     519.4692     9968.392     1057.572    57.947572   -3854.1855    6.1666312 
   55000    505.07176     9970.687    1510.0409    56.341515   -3851.7688    6.1652118 
   56000    523.78873    9969.1664    1999.4683    58.429421   -3852.8832    6.1661522 
   57000    537.34678    9982.5619   -349.85231    59.941842   -3853.4485    6.1578779 
   58000    520.21605    9988.7585   -839.32754    58.030884   -3850.7422    6.1540578 
   59000    547.92003    9977.9395     810.4082    61.121304   -3852.7589    6.1607306 
   60000    536.60888     9985.478     208.8393    59.859529   -3850.6624    6.1560796 
   61000    528.97803     9987.906    153.21312    59.008296   -3848.9489    6.1545831 
   62000    523.95328    9993.5405    665.51336    58.447777   -3847.4187    6.1511131 
   63000    546.77894    9997.9607   -652.15417    60.994014   -3848.9626    6.1483936 
   64000    537.64078    9986.6463    1859.3512    59.974638   -3847.1022    6.1553594 
   65000    572.46448    9982.4805    1454.3426    63.859274   -3849.9811    6.1579281 
   66000    554.73447    10005.182   -468.04383    61.881465   -3847.1962    6.1439556 
   67000    563.92355    9994.7644    783.25435    62.906521   -3847.1727    6.1503598 
   68000    573.21182    9989.0501    1918.4152    63.942642   -3847.2621    6.1538781 
   69000    588.12345    9995.7558    1326.2286    65.606057   -3848.1979    6.1497498 
   70000    565.81124    10008.033    58.508946    63.117095   -3844.6665    6.1422058 
   71000    577.54663    10018.692   -1893.5163    64.426195   -3844.8513    6.1356711 
   72000    565.92577    9999.7909    1685.8448    63.129871   -3842.7228    6.1472683 
   73000    592.19958    10002.159    1880.7282    66.060754   -3844.8285     6.145813 
   74000     586.0523    10008.971    361.97446    65.375016   -3843.3091    6.1416302 
   75000    609.69852    10014.446   -426.09099    68.012787   -3844.9737    6.1382726 
   76000    613.06293    10008.894    585.47486    68.388093   -3844.2707    6.1416771 
   77000    607.69862    9998.3524    3693.8633    67.789696   -3842.8214    6.1481527 
   78000    598.29815    10024.848   -267.30797    66.741059   -3840.9151    6.1319034 
   79000    614.16537    10038.953   -2998.2407    68.511071   -3841.6343    6.1232878 
   80000    607.81201    10005.431     2314.859    67.802344   -3840.2321    6.1438033 
   81000    663.23243    10026.187   -1415.5931    73.984576   -3845.0489    6.1310841 
   82000    628.72337    10033.741   -1541.0499    70.135038   -3840.4526    6.1264683 
   83000    629.87345    10018.553    1364.5286    70.263331   -3839.6992    6.1357561 
   84000     641.2187    10009.533    2090.1799    71.528911   -3839.9566    6.1412852 
   85000    652.53392    10043.954   -2654.4919    72.791141   -3840.2438    6.1202391 
   86000    635.81897    10006.353    3926.2063    70.926563   -3837.5498    6.1432371 
   87000    636.80739    10040.836   -880.64852    71.036823   -3836.6985    6.1221396 
   88000    661.35518     10015.13    2319.1254    73.775166   -3838.5036    6.1378532 
   89000     657.4786    10038.389   -607.44904    73.342727    -3837.031     6.123632 
   90000    655.08095     10049.21   -1349.4116    73.075266   -3835.9481    6.1170376 
   91000    682.25621     10020.97    2439.9353    76.106707   -3837.9702    6.1342765 
   92000    658.75589    10042.225   -344.55772    73.485211   -3834.4283    6.1212925 
   93000    667.41155    10029.081    1784.8305    74.450763   -3834.4774    6.1293149 
   94000    702.51196    10041.759   -667.19549    78.366266   -3837.4076    6.1215769 
   95000    665.75266    10015.776    5826.5948    74.265712    -3832.689    6.1374571 
   96000    668.48894    10036.933     2684.121    74.570947   -3831.9424    6.1245202 
   97000    699.35857    10036.601     1945.033    78.014501   -3834.3272    6.1247228 
   98000     684.5054    10079.023   -3126.7437    76.357607   -3831.8143    6.0989438 
   99000    716.65923    10022.628    4171.2113    79.944416   -3834.3194    6.1332613 
  100000    693.22616    10067.619   -1067.1203    77.330422   -3830.7219    6.1058523 
  101000    706.43769    10060.579   -158.42071    78.804187   -3831.3477    6.1101253 
  102000    700.52081    10050.684     1424.233     78.14415   -3829.5777    6.1161409 
  103000    711.14013    10084.792   -3311.2738    79.328752   -3830.0645    6.0954551 
  104000    715.00268    10041.307    3171.7302    79.759625   -3829.3456     6.121852 
  105000    752.23691    10084.052   -4180.8064     83.91316   -3832.8761    6.0959025 
  106000    715.06937    10060.082    968.32579    79.767064   -3827.7517    6.1104272 
  107000    715.62364    10086.518   -2572.1927    79.828894   -3826.8861    6.0944119 
  108000    726.11937    10042.144    4548.1358    80.999709   -3826.7415    6.1213419 
  109000    725.89304    10067.913    723.76615    80.974461   -3825.9819    6.1056745 
  110000    736.95483    10091.912   -3200.8997    82.208421    -3826.294    6.0911547 
  111000    739.62685    10064.733    1995.4123    82.506488   -3825.7971    6.1076032 
  112000    739.05732    10075.348   -92.156763    82.442957   -3824.6479    6.1011689 
  113000    753.02335    10080.466   -736.15539    84.000888   -3824.8953    6.0980708 
  114000    761.87013    10065.456   -1581.0895     84.98776   -3811.8647    6.1071647 
  115000    743.51341    10052.894    1682.8396    82.940039   -3809.0101     6.114796 
  116000    774.02943    10063.132   -198.55227    86.344148    -3811.199    6.1085753 
  117000    783.92877     10047.12    1814.7573    87.448435   -3811.4004    6.1183102 
  118000    771.85425    10075.942      -1469.4    86.101503   -3809.0424    6.1008092 
  119000    744.51705    10109.286   -1917.9617    83.051997    -3818.883    6.0806863 
  120000    806.63848      10064.1     2543.058    89.981737   -3824.0521    6.1079875 
  121000    779.50488    10105.663   -1653.6643    86.954942   -3820.7693    6.0828663 
  122000     828.7073    10076.011    789.22705    92.443546   -3824.7748    6.1007675 
  123000    787.04113    10130.461   -5283.6582    87.795623   -3819.3457    6.0679765 
  124000    767.70976    10065.814    5972.4586    85.639179   -3816.3961    6.1069474 
  125000    796.62739    10124.169   -3863.1728    88.864984   -3818.6967    6.0717475 
  126000    784.37932    10101.354    1259.8702    87.498693   -3816.6937    6.0854611 
  127000    821.43796    10088.607    954.64368    91.632641   -3819.7947    6.0931503 
  128000    771.64144    10120.025   -1487.8611    86.077764   -3813.3585    6.0742336 
  129000    833.26752     10098.27    917.82516    92.952246   -3818.9923    6.0873193 
  130000    818.04062    10125.936   -2094.8257    91.253662   -3816.2994     6.070688 
  131000    813.80893     10080.29    4196.1692    90.781611   -3814.8758    6.0981776 
  132000    830.63648    10083.037    3809.3477     92.65875   -3815.6493    6.0965163 
  133000    817.75083    10157.639    -6438.037    91.221336    -3813.539    6.0517409 
  134000    820.34385    10108.068    1312.1784    91.510591   -3812.7139    6.0814192 
  135000      820.778    10131.437   -1633.7488    91.559021   -3812.2634     6.067392 
  136000    852.16148    10121.147   -1363.0502    95.059896   -3814.3932    6.0735603 
  137000    863.42469    10113.826   -381.60736    96.316324   -3814.5121    6.0779569 
  138000    879.51029    10136.069   -2951.8744    98.110696   -3815.5805    6.0646192 
  139000    815.47877    10114.455    2438.3059    90.967884    -3807.574    6.0775786 
  140000    851.14157    10146.751    -3081.708    94.946123   -3810.4771    6.0582347 
  141000    842.44919    10147.992   -2955.7678    93.976475   -3808.7439     6.057494 
  142000    895.34222    10127.492   -539.97095    99.876772   -3813.4123    6.0697552 
  143000    895.28894    10140.452    -2247.693    99.870829   -3812.0743    6.0619976 
  144000    912.81384    10139.521   -2846.6672    101.82576    -3813.181    6.0625544 
  145000    899.71353    10144.945   -3107.8838     100.3644   -3811.0528    6.0593132 
  146000     889.3561    10097.847    6161.4867    99.209012   -3809.2369    6.0875745 
  147000    855.58912    10127.997     2018.969    95.442254   -3804.9873    6.0694526 
  148000    885.62741    10144.352   -868.67012    98.793071   -3806.8982    6.0596675 
  149000    878.82815    10157.853   -2451.4243    98.034603   -3804.9617    6.0516131 
  150000    885.98535    10146.321   -987.54427    98.832999    -3804.884    6.0584911 
  151000    910.15685    10117.535    385.79052    101.52937   -3792.6351    6.0757285 
  152000    903.99272      10105.5    5963.0453    100.84175   -3804.7637    6.0829644 
  153000    902.78089    10143.095    145.65358    100.70657   -3803.8833    6.0604184 
  154000    879.05179    10183.863   -3812.4973     98.05955   -3800.3651     6.036157 
  155000    934.98534    10136.281    703.92183    104.29902   -3805.2688    6.0644922 
  156000    944.57117     10169.06   -2717.0896    105.36834   -3805.7353    6.0449437 
  157000    887.82329    10169.405   -1842.9391    99.038024   -3798.5211    6.0447389 
  158000    963.21157    10129.613    2772.0261     107.4477   -3805.9137    6.0684845 
  159000    954.78522    10190.633   -4937.7248    106.50773   -3803.9563    6.0321472 
  160000    938.41487    10117.078    5942.7877    104.68159     -3801.12    6.0760033 
  161000    957.15279    10121.341    5405.0228    106.77183   -3802.3687    6.0734439 
  162000    942.36459    10150.474    2418.9391    105.12219   -3799.7614    6.0560126 
  163000    929.46075    10188.087   -3086.4555    103.68275   -3797.1376    6.0336543 
  164000    981.77582    10137.007     3161.293    109.51857    -3801.903    6.0640579 
  165000    987.69551    10144.229    2734.5692    110.17892   -3801.5357     6.059741 
  166000    931.27505    10169.601     1284.217    103.88513   -3794.6938    6.0446225 
  167000    1006.0481    10171.929   -2484.7736    112.22618   -3801.4944     6.043239 
  168000    982.68363    10152.228    2099.9936    109.61984   -3797.7112    6.0549661 
  169000    983.37359     10190.39   -2292.5987     109.6968   -3797.3858    6.0322912 
  170000    961.80986    10162.932    1440.6586    107.29134    -3794.153     6.048589 
  171000    969.88896    10163.349    2068.4432    108.19257   -3794.2196    6.0483408 
  172000    999.55437    10141.845    4660.8007    111.50179   -3796.6589    6.0611651 
  173000    1009.1048    10201.289    -3193.504    112.56715   -3796.1279     6.025846 
  174000    998.51574    10143.872    5929.9206    111.38593   -3794.5257    6.0599539 
  175000    966.53096    10191.182    210.55775    107.81798   -3790.0361    6.0318222 
  176000    996.39187    10215.189   -4025.3607    111.14901   -3792.1861    6.0176467 
  177000       999.22    10123.717    6817.4489     111.4645   -3777.6641    6.0720187 
  178000    1010.3256    10200.469   -2117.4858    112.70334   -3791.6305    6.0263307 
  179000     1012.034    10189.585    1351.0418    112.89391    -3790.803    6.0327677 
  180000    989.62731    10156.645    5482.2367    110.39442   -3787.1385    6.0523332 
  181000     1044.878    10196.627   -1091.6791    116.55772   -3791.7384    6.0286012 
  182000    1037.8071     10143.54    7086.7526    115.76894   -3791.0054    6.0601523 
  183000     1060.672    10226.363    -4951.017    118.31956   -3792.0602    6.0110712 
  184000    1028.7953    10174.874    3695.7964    114.76367    -3787.673    6.0414899 
  185000    1058.5813    10212.901   -2264.0195    118.08634   -3790.2195     6.018995 
  186000    1035.1115    10134.798    10353.236    115.46825   -3786.5394    6.0653794 
  187000     1059.186    10237.729   -4918.4944    118.15379   -3787.5847    6.0043979 
  188000    1035.9863    10212.675   -1249.4133    115.56583   -3785.1223    6.0191278 
  189000    1029.8981    10242.107   -4189.8936    114.88669   -3783.4971    6.0018312 
  190000    1073.7596    10184.416     3313.619     119.7795   -3786.9834    6.0358292 
  191000    1034.9328    10214.429    577.05333    115.44832   -3781.8551    6.0180941 
  192000    1103.9058    10167.054    5044.4181    123.14235   -3787.8239    6.0461364 
  193000    1028.9573    10189.278    4567.2423    114.78173   -3779.9184    6.0329491 
  194000    1046.9428    10218.549   -91.890541    116.78805   -3780.7143    6.0156677 
  195000    1104.7212    10210.364   -636.56394    123.23331   -3786.4063    6.0204902 
  196000    1127.8649    10222.482   -2500.6512    125.81503   -3787.2134    6.0133534 
  197000    1060.9304    10228.026   -218.61576    118.34839   -3778.9771    6.0100939 
  198000    1093.3694    10236.407   -1790.5221      121.967   -3780.7068    6.0051733 
  199000     1094.364    10217.673    141.19244    122.07795   -3780.3527    6.0161836 
  200000     1085.427    10217.094   -952.58506    121.08101   -3764.4197    6.0165245 
  201000    1102.2259    10233.795   -1561.8678    122.95496   -3779.3695    6.0067062 
  202000    1078.4425    10241.138   -2833.8675    120.30188   -3762.3533    6.0023989 
  203000    1069.5083    10241.856   -392.79142    119.30526   -3774.2532    6.0019783 
  204000    1098.2694    10214.588    4313.9061    122.51361   -3776.7989    6.0180006 
  205000    1104.2279    10234.553    713.29313    123.17828   -3776.5871    6.0062609 
  206000    1141.8162    10223.353     1797.656    127.37132   -3778.5583    6.0128409 
  207000    1180.1704    10258.958   -4408.8313    131.64979   -3781.4862    5.9919727 
  208000    1143.9927    10254.008   -2441.5215     127.6141   -3775.4813    5.9948654 
  209000    1116.6554    10263.407   -2074.8808    124.56459   -3772.6271    5.9893753 
  210000    1142.8861    10227.125    1604.2086    127.49066   -3774.9332    6.0106233 
  211000     1110.934    10225.122    4340.6692    123.92636   -3771.2215    6.0118009 
  212000    1153.2703    10195.154    4192.4854    128.64904   -3760.0897     6.029472 
  213000    1122.2395    10293.011   -3791.1197     125.1875   -3769.8851    5.9721493 
  214000    1156.3196    10258.827   -538.05802    128.98919   -3772.3392    5.9920491 
  215000    1128.9406     10273.33   -2314.5336    125.93503   -3768.6341    5.9835903 
  216000    1194.0949    10265.488   -3411.8799    133.20309   -3774.3572    5.9881612 
  217000       1183.1    10280.587   -4223.4792    131.97658    -3773.354    5.9793664 
  218000    1174.5991    10264.353   -755.52561     131.0283   -3770.7874    5.9888233 
  219000     1156.356    10298.397   -7708.8328    128.99325   -3753.1237    5.9690261 
  220000    1174.0989     10216.59    6970.5651     130.9725   -3768.2306    6.0168213 
  221000    1159.0203    10296.663   -3880.6517    129.29046     -3765.56    5.9700312 
  222000    1195.9981    10252.898    754.10584    133.41539   -3769.3533    5.9955145 
  223000    1170.9862    10339.985   -10227.531    130.62527   -3766.0298    5.9450181 
  224000    1194.7343    10265.415    819.99703    133.27441   -3767.0847    5.9882038 
  225000    1192.0476    10192.252    12603.993     132.9747   -3765.4797    6.0311888 
  226000    1190.3412    10277.898    499.51402    132.78435   -3764.9546    5.9809308 
  227000    1182.5586    10289.596   -2012.4544    131.91619   -3762.9912    5.9741314 
  228000    1177.6908    10298.485   -2474.6141    131.37318   -3761.4508    5.9689748 
  229000    1200.6407    10242.483    4327.4535    133.93328   -3762.0122    6.0016109 
  230000    1226.1446    10291.579   -2502.3665    136.77828   -3764.5139    5.9729802 
  231000    1223.7124    10290.928   -1279.5866    136.50696   -3763.1803    5.9733578 
  232000      1245.01    10279.696    212.64881    138.88273   -3765.2479    5.9798847 
  233000    1236.3549    10292.175   -965.60335    137.91725    -3762.351    5.9726344 
  234000    1239.8936    10271.262    2164.2661      138.312   -3762.4365    5.9847952 
  235000     1243.458    10303.742    -3022.573    138.70961   -3760.5583    5.9659296 
  236000    1206.8312    10263.623    4498.6752    134.62384   -3756.5339    5.9892494 
  237000    1220.9635    10262.771    5987.7844    136.20032   -3756.5245    5.9897466 
  238000    1252.0749    10315.803   -3357.1726    139.67084   -3758.5658    5.9589542 
  239000    1249.3714    10236.933    9197.4173    139.36926   -3757.3298    6.0048649 
  240000    1302.9758    10331.292   -5512.7655    145.34892   -3762.6513    5.9500202 
  241000    1222.8256    10261.394    7190.3286    136.40804   -3753.3407    5.9905506 
  242000    1249.1139    10343.807   -4863.1829    139.34053   -3753.9137    5.9428212 
  243000    1330.4904    10270.872     2200.202     148.4182   -3762.3119    5.9850221 
  244000    1301.3577    10335.478   -4095.8319    145.16841   -3759.0031    5.9476102 
  245000    1310.0621    10324.832   -4765.9429     146.1394   -3759.1011    5.9537433 
  246000    1317.9287     10277.72    3831.2082    147.01693   -3758.0914    5.9810343 
  247000    1363.7461    10362.897   -10810.237    152.12793   -3761.6255    5.9318741 
  248000    1378.1225    10289.127    1655.7441    153.73164   -3762.4793    5.9744036 
  249000    1302.2272    10337.256   -4111.4141    145.26541   -3753.8944    5.9465875 
  250000    1264.8577    10351.451   -3483.0815    141.09679   -3748.2532    5.9384328 
  251000     1282.637    10257.349    8062.3945    143.08009    -3748.742    5.9929129 
  252000      1301.88    10356.287   -4049.8438    145.22668   -3750.3636    5.9356599 
  253000    1332.3932    10327.594   -1057.0675    148.63046   -3753.5678    5.9521509 
  254000    1300.9091    10324.712    247.13822    145.11837   -3748.4428    5.9538123 
  255000      1296.72    10397.902   -9420.7561    144.65107   -3746.0635     5.911904 
  256000    1316.0866    10354.623   -2506.9734    146.81144     -3748.05    5.9366135 
  257000    1287.4445     10354.29   -5562.9644    143.61637   -3729.9169    5.9368046 
  258000      1335.28     10367.39   -5142.9208    148.95249   -3749.1405    5.9293031 
  259000    1310.7946    10289.827    8318.8414    146.22111   -3742.9571    5.9739974 
  260000    1304.7371    10342.073   -805.26541    145.54539   -3742.1037    5.9438175 
  261000    1345.8012     10302.01    5509.3761    150.12615   -3747.0561    5.9669323 
  262000    1370.3607     10289.89      4768.15     152.8658     -3748.01    5.9739603 
  263000    1372.3649    10347.468   -1696.3916    153.08937   -3747.3086    5.9407188 
  264000    1418.3768    10350.371   -3472.4622    158.22207   -3750.5722    5.9390525 
  265000    1368.3772    10293.706    6443.0701    152.64454   -3743.7708    5.9717459 
  266000    1382.6852    10343.782   -218.39868    154.24062    -3745.081    5.9428358 
  267000    1368.3132    10306.428    5105.2517     152.6374   -3728.1179    5.9643745 
  268000    1329.1894    10378.879   -2562.8328    148.27307   -3737.0142    5.9227393 
  269000    1406.5901    10355.677   -1253.2337    156.90725   -3744.8006    5.9360097 
  270000    1348.0295    10360.031    877.63423    150.37472   -3736.1032     5.933515 
  271000    1389.2997    10337.547    2248.2442    154.97847   -3740.8763    5.9464204 
  272000    1348.0764    10356.675   -1400.0773    150.37995   -3721.6346    5.9354373 
  273000      1385.44    10332.386    3673.7624    154.54791   -3738.6704    5.9493901 
  274000     1429.512     10348.82    1198.4291    159.46422   -3741.2888    5.9399427 
  275000    1355.8877    10380.358   -976.94857    151.25131   -3733.3212    5.9218956 
  276000    1454.9065    10299.409    7465.0082    162.29701    -3742.702    5.9684392 
  277000    1372.7513     10377.98   -380.23278    153.13247   -3732.6201    5.9232528 
  278000    1423.3492     10370.29    1980.3384    158.77674   -3736.1846    5.9276452 
  279000    1408.7247    10367.217     1208.586    157.14536   -3734.3787    5.9294019 
  280000     1430.678    10360.931    1863.8603    159.59429   -3735.1267    5.9329996 
  281000    1439.2328    10339.121    4119.8876    160.54858   -3736.4202    5.9455148 
  282000    1378.4813    10402.981   -1059.2689    153.77166   -3729.3058    5.9090175 
  283000    1468.2811    10390.528   -3427.2774    163.78896   -3738.5521    5.9160997 
  284000    1408.2803    10373.962    991.62873    157.09579   -3728.7003    5.9255465 
  285000    1489.3935    10387.721   -2523.1621    166.14409   -3736.7977    5.9176981 
  286000    1513.1536    10347.177    4003.1503    168.79456   -3738.2343    5.9408857 
  287000    1444.1816     10387.41   -985.11255    161.10063   -3731.0628    5.9178752 
  288000    1495.8084    10337.941    6452.4908    166.85968   -3733.8325    5.9461933 
  289000    1422.0751    10413.818   -2603.4908    158.63461   -3725.9556    5.9028686 
  290000    1420.8596     10378.39    3458.0795    158.49902   -3722.6807    5.9230187 
  291000    1465.6375    10361.941    5491.8315    163.49407   -3727.8129    5.9324212 
  292000    1391.4135    10355.629    8364.7018    155.21427   -3717.5358    5.9360368 
  293000    1481.9718    10400.264   -1111.6613    165.31618   -3726.5049    5.9105612 
  294000    1468.8842    10389.722     1682.632    163.85625   -3725.3396    5.9165582 
  295000    1488.8842    10469.345   -7176.0138    166.08728   -3724.4059     5.871561 
  296000    1482.8536    10347.375     8830.104    165.41455   -3724.9463     5.940772 
  297000    1548.7318    10420.726   -4623.3398    172.76336   -3730.6757    5.8989553 
  298000    1431.2726    10449.832   -3711.0526    159.66061    -3716.865    5.8825249 
  299000     1473.081    10437.406   -5414.7786     164.3244   -3722.0779    5.8895283 
  300000    1524.4213    10417.549   -1206.4725     170.0515   -3725.9131    5.9007541 
  301000    1598.2824    10439.648   -4719.2423     178.2908   -3730.7111    5.8882636 
  302000    1591.2706    10442.087   -5022.7166    177.50863   -3727.7897     5.886888 
  303000    1398.2633    10470.847   -4258.0351    155.97837    -3709.621    5.8707185 
  304000    1536.3214    10443.735   -5108.7208    171.37896   -3722.3699    5.8859593 
  305000    1522.8044    10402.571    1002.8608    169.87112   -3720.8297    5.9092502 
  306000    1518.5614    10416.255   -58.524865    169.39781   -3716.2507    5.9014874 
  307000    1531.7152    10437.775   -1349.8208    170.86513   -3717.6381      5.88932 
  308000    1478.4603    10446.915    362.76073    164.92447   -3709.8675    5.8841673 
  309000    1499.6621    10409.505    2225.6275    167.28957   -3713.9084    5.9053139 
  310000    1564.1885    10441.431   -2303.2536    174.48759    -3717.902    5.8872581 
  311000    1516.4225    10442.093   -576.48824    169.15922   -3711.6039    5.8868846 
  312000    1571.8406    10409.149    4576.0796    175.34119   -3713.8432    5.9055162 
  313000     1557.599     10441.56   -282.75053    173.75251   -3717.0664    5.8871852 
  314000    1609.8135     10444.42   -653.23227    179.57712    -3717.324     5.885573 
  315000     1528.468    10428.362    2895.3649     170.5029   -3709.3772    5.8946361 
  316000    1593.0567    10435.341    1227.0774    177.70787   -3714.7655    5.8906935 
  317000    1551.3491    10501.878   -5518.9902    173.05533   -3708.3847    5.8533719 
  318000     1572.111    10419.809      3645.46    175.37135   -3710.3895    5.8994746 
  319000    1611.5666    10387.378    9035.6723    179.77268   -3711.1967    5.9178936 
  320000     1628.525    10423.307    3277.0204    181.66441   -3714.1785    5.8974947 
  321000    1675.8474    10473.682   -5040.7167     186.9433   -3719.7096    5.8691294 
  322000    1516.1356     10491.41    -3180.488    169.12721   -3701.0959     5.859212 
  323000    1716.0844    10461.591   -1389.3891     191.4318   -3714.0442     5.875913 
  324000    1596.5379    10481.685   -4182.4235    178.09621    -3707.692    5.8646483 
  325000     1597.108    10444.964    1877.3227     178.1598   -3705.2644    5.8852666 
  326000    1666.3332    10503.268   -4330.4665    185.88197   -3709.0513    5.8525973 
  327000    1676.1811     10441.16    2464.2051    186.98053   -3709.8802    5.8874107 
  328000    1612.4742    10473.102   -1661.5045    179.87392   -3704.5874    5.8694544 
  329000    1612.0424     10445.36    6742.3883    179.82575   -3703.2042    5.8850437 
  330000    1671.4574    10529.257   -8935.3674    186.45359   -3707.0417    5.8381514 
  331000    1579.6618    10451.017    5102.0595    176.21365   -3691.9408    5.8818579 
  332000    1623.7125    10501.677   -633.41387    181.12758   -3700.0695    5.8534839 
  333000     1656.026     10536.73   -8372.9961    184.73219   -3704.0899    5.8340106 
  334000    1619.4175    10433.436     8441.789    180.64846   -3697.8957    5.8917693 
  335000     1673.417    10420.624    9146.5948    186.67218   -3703.8149     5.899013 
  336000    1599.1769    10527.396   -3276.2585    178.39059    -3692.492    5.8391835 
  337000    1637.4732    10507.733    -985.8198     182.6626    -3696.421    5.8501103 
  338000    1693.0466    10462.037    2046.7199     188.8619     -3701.33    5.8756622 
  339000     1619.677    10512.022   -2548.3541    180.67741   -3692.9715    5.8477232 
  340000      1656.15    10488.265     1175.876    184.74603   -3694.4201    5.8609693 
  341000    1660.1053    10510.896   -1870.0822    185.18725   -3695.2797    5.8483501 
  342000    1619.4715    10454.939    7126.5013    180.65448   -3688.9849    5.8796514 
  343000    1694.3392    10553.115   -6068.9712    189.00608   -3695.4604    5.8249528 
  344000    1749.5438    10485.518   -221.91437    195.16424   -3700.5196    5.8625043 
  345000    1773.2876    10493.218    1296.4874     197.8129   -3697.4275    5.8582028 
  346000    1693.0169    10479.897    3693.2371    188.85858   -3693.9536     5.865649 
  347000     1640.554    10554.834   -4571.3584    183.00627   -3683.8672    5.8240039 
  348000     1646.758    10500.919    4258.7755    183.69833    -3686.532    5.8539062 
  349000    1769.3213    10558.216   -6778.4903    197.37046   -3696.6253    5.8221387 
  350000    1720.7905    10482.867    4221.9991    191.95677   -3690.2822    5.8639874 
  351000    1668.9226    10496.544    3256.7275    186.17083   -3685.1256    5.8563462 
  352000    1603.2674    10576.441   -4444.4288    178.84689   -3679.4341    5.8121061 
  353000    1653.5008    10466.248    10806.124     184.4505   -3679.4242    5.8732985 
  354000    1734.1419    10566.943    -7492.299    193.44614   -3690.9031    5.8173305 
  355000    1673.9606    10540.429   -461.64854    186.73282   -3681.9539    5.8319635 
  356000     1794.468    10498.826    6766.4874    200.17561   -3687.5212    5.8550737 
  357000    1707.9972        10584   -5394.2202    190.52965   -3666.6997    5.8079552 
  358000    1713.0601     10533.91     3371.238    191.09443   -3679.6972    5.8355726 
  359000     1764.385    10511.584    2430.9456    196.81981   -3689.3084    5.8479671 
  360000    1781.3285    10526.225   -7.8274956    198.70988   -3671.9413    5.8398329 
  361000    1718.8575    10586.702   -2766.0994    191.74114   -3677.3767     5.806473 
  362000     1742.356    10572.185   -4261.4353    194.36243    -3681.496    5.8144456 
  363000    1719.2487    10542.581    -1982.342    191.78478   -3678.1103     5.830773 
  364000    1772.8047    10574.075    -3621.084    197.75903   -3681.5077    5.8134065 
  365000    1782.0283     10565.56   -2044.3034    198.78794   -3681.1874     5.818092 
  366000    1686.9444    10596.976   -167.60139    188.18118   -3662.4089    5.8008431 
  367000    1703.8636    10531.039    7659.3343    190.06855   -3666.5174    5.8371635 
  368000     1818.118    10575.113   -1078.4158     202.8138   -3679.4585    5.8128358 
  369000    1791.0497    10522.643    3298.9118    199.79429   -3678.6025    5.8418213 
  370000    1742.6366    10624.648   -5510.2558    194.39374   -3671.3558    5.7857348 
  371000    1782.5307    10598.382    -732.8912    198.84399   -3669.5734    5.8000737 
  372000    1775.3778    10630.345   -6960.9391    198.04606   -3671.8357    5.7826345 
  373000    1695.8123    10600.335    933.95895    189.17041    -3657.911     5.799005 
  374000    1771.4109    10640.936    2997.9779    197.60355   -3648.5267    5.7768787 
  375000    1807.6025    10613.194    5735.6376    201.64078   -3647.4661    5.7919789 
  376000    1790.9305    10607.412     8563.733    199.78099   -3640.3215    5.7951363 
  377000    1858.4061    10727.166    6211.3201    207.30799   -3618.2581    5.7304414 
  378000    1815.6802    10966.032   -7694.4908    202.54186   -3574.8195    5.6056188 
  379000    1827.9262    10936.225    6756.6549    203.90792   -3547.5903    5.6208973 
  380000    1781.6215    11054.122   -1285.0614    198.74256   -3526.2376    5.5609481 
  381000    1804.1665    11021.064    3563.1254    201.25749   -3530.0756    5.5776281 
  382000     1883.502    10981.696    3575.2692    210.10748   -3538.8403    5.5976233 
  383000    1865.7701    11059.883    -996.4035    208.12946   -3525.3939    5.5580515 
  384000    1803.3861    11067.202    716.46502    201.17044   -3521.5506    5.5543755 
  385000    1777.4542    11089.868   -336.17891    198.27769   -3515.1787    5.5430233 
  386000    1882.2357    11083.118    3439.5038    209.96623   -3514.8059    5.5463993 
  387000    1852.3128     11148.41   -3155.4582    206.62828   -3512.3143    5.5139159 
  388000    1859.7766    11010.234    5478.5855    207.46088   -3520.7169    5.5831147 
  389000    1806.3395    11170.207   -8392.5091    201.49989   -3507.6112    5.5031565 
  390000    1916.5012    11091.106   -838.68392    213.78859   -3515.8539    5.5424045 
  391000    1839.9247    11172.562   -3334.1847    205.24637   -3502.2713    5.5019967 
  392000    1841.9562    11158.819   -616.04349    205.47299   -3498.7049    5.5087726 
  393000    1920.0744    11130.701   -953.49697    214.18719   -3512.4393    5.5226887 
  394000    1816.3679    11223.118   -2367.2623    202.61858   -3490.6161    5.4772122 
  395000    1851.5961    11258.435   -10982.051    206.54833   -3496.2182    5.4600306 
  396000    1873.3814    11164.505    698.07773    208.97851   -3496.9932    5.5059672 
  397000    1967.2712    11260.295   -8170.2364    219.45206   -3495.1266    5.4591286 
  398000    1828.0649     11197.39   -1935.7878    203.92339   -3490.6715    5.4897969 
  399000    1799.2372    11110.503     3889.392    200.70762   -3490.5712    5.5327283 
  400000    1888.2192    11173.627     -684.844    210.63369   -3498.0848    5.5014723 
  401000    1824.9784    11236.616   -5225.8838    203.57909   -3487.7829    5.4706326 
  402000    1924.9001    11196.113   -4111.1975     214.7255   -3501.7648    5.4904229 
  403000    1917.0538    11250.964   -3071.2701    213.85024   -3486.6267    5.4636559 
  404000    2007.9244    11123.672    2394.1699    223.98699   -3503.2882    5.5261786 
  405000    1903.2141    11203.017   -1531.3136     212.3064   -3492.2125    5.4870393 
  406000    1894.2946    11208.575    949.13111    211.31141   -3489.4708    5.4843188 
  407000    1929.5766    11202.021   -2315.2507    215.24718   -3491.7843    5.4875274 
  408000    1966.1905    11214.806   -2839.6688    219.33151   -3491.2145    5.4812714 
  409000    2011.9783    11268.256   -4431.9899    224.43921   -3496.1046    5.4552716 
  410000     1914.121    11298.666   -7610.7501    213.52307   -3483.4287    5.4405891 
  411000    1919.5187    11201.621   -3431.9149     214.1252   -3483.8773    5.4877235 
  412000    1977.7955    11182.575    791.68455    220.62606   -3486.7726    5.4970701 
  413000    2049.7546    11075.044    6082.4444    228.65321   -3498.8622    5.5504426 
  414000    2043.0215    11195.914     2100.444    227.90212   -3493.9748    5.4905206 
  415000      1957.37    11153.915     3281.104    218.34757   -3483.9242    5.5111948 
  416000    1927.7627    11241.531   -2492.0095    215.04483   -3477.5901    5.4682406 
  417000    2002.0952    11216.302   -557.25957    223.33673   -3476.1996    5.4805406 
  418000    1967.5125    11220.647   -986.64749    219.47898   -3479.1214    5.4784181 
  419000    1953.4466    11273.595   -4010.6491    217.90991    -3475.138    5.4526881 
  420000    1960.9897    11244.091   -5198.7682    218.75136   -3474.0403    5.4669956 
  421000    2022.8847    11102.214    10953.647    225.65583   -3481.7681    5.5368593 
  422000    1999.6814    11163.288     1801.724    223.06747   -3482.1139    5.5065675 
  423000    1967.6394    11243.861   -1722.6748    219.49313   -3477.1087    5.4671077 
  424000     2014.704     11211.07   -641.23928    224.74327   -3483.7767    5.4830983 
  425000    2017.3992     11218.64    2262.0281    225.04392   -3473.1428    5.4793982 
  426000    2080.2688    11267.452   -1798.9182    232.05711   -3480.7245    5.4556609 
  427000    2021.3033    11250.304   -4930.8125    225.47943   -3480.2946    5.4639768 
  428000    2087.4283    11196.201   -1341.4493    232.85576   -3483.8721    5.4903797 
  429000    1927.0513    11326.712   -10119.069    214.96548   -3469.9847    5.4271175 
  430000    1993.7456    11145.226    5170.0882    222.40532   -3471.7544    5.5154912 
  431000    2001.8629    11258.814   -4853.7971    223.31082   -3477.5707    5.4598468 
  432000    1953.6815    11315.837   -4676.2878    217.93611   -3464.0347    5.4323334 
  433000    2126.5843    11214.324    1860.5982    237.22367   -3477.3455    5.4815072 
  434000    2052.9931    11188.538    5727.6004    229.01447   -3473.7694    5.4941404 
  435000     1991.313    11226.344   -2396.5114    222.13396   -3475.4232    5.4756384 
  436000    2081.6553    11207.592    3336.2948    232.21178   -3468.5952    5.4847995 
  437000    2100.4685    11234.074   -784.33184    234.31043     -3477.91    5.4718704 
  438000    2028.7445    11193.337    7320.6849     226.3095   -3466.7237    5.4917846 
  439000    2026.8152    11172.294    12899.188    226.09429   -3458.8301    5.5021287 
  440000    2056.3002    11316.018   -3447.7662    229.38338    -3465.865    5.4322465 
  441000    2026.5273    11279.186   -557.40115    226.06217   -3463.7466    5.4499852 
  442000    2090.5147     11211.25    1217.4353    233.20006   -3475.1097    5.4830099 
  443000    1927.6961    11315.597   -4313.0702     215.0374   -3455.4946    5.4324486 
  444000    2121.1635    11198.067    6502.7641    236.61899   -3465.8016    5.4894649 
  445000    2052.8571    11335.716   -2419.3843    228.99929   -3463.0225    5.4228067 
  446000    2111.8359    11243.173    1670.9881    235.57848   -3465.0329     5.467442 
  447000    2070.7121    11293.029   -873.60745    230.99105   -3459.6825    5.4433046 
  448000    2077.0401    11359.269   -7062.2831    231.69695   -3462.6741    5.4115628 
  449000    2071.1098      11278.2    5.3252597    231.03541   -3453.3974    5.4504619 
  450000    2071.7476    11298.564    1715.4222    231.10657   -3452.5966    5.4406379 
  451000    2035.0271    11291.337    1540.5847    227.01033   -3453.3337    5.4441204 
  452000    2034.9137    11364.094   -5718.5422    226.99768   -3452.1346    5.4092651 
  453000    2154.5212    11311.555   -3493.2254    240.34009   -3464.0181    5.4343896 
  454000    2140.6825     11331.03   -1688.6983    238.79635   -3458.9149    5.4250494 
  455000    2186.9426     11299.64   -4011.1075    243.95674   -3463.9751    5.4401201 
  456000    2128.4354    11363.357   -4951.1012    237.43017   -3458.9687    5.4096158 
  457000    2051.6787    11304.875    1301.8642    228.86785   -3442.6989    5.4376008 
  458000    2117.6825    11269.819    2139.8734    236.23067   -3455.7091     5.454515 
  459000     2117.302    11284.623   -1210.0213    236.18823   -3461.2833    5.4473596 
  460000     2075.334      11439.9   -10878.859    231.50663   -3450.5705    5.3734211 
  461000    2218.4706    11246.416   -370.33471    247.47373   -3452.6648    5.4658656 
  462000    2144.1245     11353.22   -2932.7388    239.18031   -3454.2377     5.414446 
  463000    2085.1111    11410.967   -8521.3276    232.59728   -3448.4878    5.3870453 
  464000     2142.281    11311.963    604.51015    238.97467    -3448.435    5.4341937 
  465000    2183.6629    11416.353   -8413.3256    243.59088   -3455.8572     5.384504 
  466000    2271.1208    11329.702   -1804.8044    253.34694   -3461.4408    5.4256855 
  467000    2255.4659    11246.235     8197.473    251.60061   -3442.0769    5.4659535 
  468000     2257.884    11319.999   -1996.8522    251.87036   -3460.0457     5.430336 
  469000    2158.7882    11317.617    635.23963    240.81607   -3440.0761    5.4314789 
  470000    2154.4407    11414.665    -6185.422    240.33111   -3450.1012    5.3853001 
  471000    2029.8699    11312.436    2202.3287    226.43504   -3441.5631    5.4339663 
  472000    2172.2277     11346.93   -1826.6355    242.31527   -3445.1051    5.4174473 
  473000    2078.7328    11450.512   -8453.8986    231.88577   -3432.7624    5.3684407 
  474000    2158.9366    11288.615    6880.9185    240.83262   -3432.9011    5.4454333 
  475000    2139.7387    11425.265    -9647.464    238.69107   -3427.3527     5.380304 
  476000    2158.4831    11360.593    366.33732    240.78204   -3433.5458    5.4109321 
  477000    2194.5953    11320.486    456.10684     244.8104   -3444.9137    5.4301024 
  478000    2230.1279     11408.33   -7209.5227    248.77413   -3448.9303    5.3882904 
  479000    2221.8636    11424.803   -7052.0853    247.85223    -3448.172    5.3805212 
  480000    2255.4986    11435.905   -13602.394    251.60427    -3444.361    5.3752979 
  481000    2224.2906    11348.364   -3253.0616    248.12297   -3451.8155    5.4167631 
  482000    2177.4032    11337.715    2137.2587     242.8926   -3430.6447    5.4218504 
  483000    2268.1153    11380.285   -4250.5775    253.01168   -3428.0144     5.401569 
  484000    2290.6196      11382.8   -4772.4671    255.52206   -3423.1048     5.400376 
  485000     2212.231     11357.27    2183.2565    246.77769   -3433.0867    5.4125153 
  486000    2275.4424    11420.202   -1974.0666    253.82903   -3438.3194     5.382689 
  487000    2114.5923    11413.796    4539.1203    235.88595   -3415.7437    5.3857103 
  488000    2224.7383    11512.882   -7901.7925    248.17291   -3423.9436     5.339358 
  489000    2142.7909    11405.894   -2224.7983    239.03155    -3431.628    5.3894413 
  490000    2275.2245    11429.858   -5780.5501    253.80472   -3441.5146     5.378142 
  491000    2202.9764    11353.364    986.34583    245.74533   -3433.6758    5.4143775 
  492000    2304.0719    11366.223    2368.0919    257.02269   -3429.4761    5.4082519 
  493000    2231.8428    11453.405    -2555.043    248.96542   -3423.3242    5.3670851 
  494000    2244.3958    11410.854   -3641.9972    250.36573   -3417.0976    5.3870988 
  495000    2214.6862    11312.969       5327.9    247.05158   -3425.1542    5.4337104 
  496000     2216.047    11333.734    12293.591    247.20338   -3418.0611     5.423755 
  497000    2287.3025    11418.248   -2122.5841    255.15203   -3432.8671    5.3836101 
  498000    2362.5798    11424.573   -2457.3957    263.54933   -3434.5031    5.3806297 
  499000    2182.1778    11422.801   -1689.9094    243.42522   -3418.7236    5.3814645 
  500000    2340.9726     11377.36    461.90202    261.13902   -3433.6163    5.4029578 
Loop time of 2007.25 on 8 procs for 500000 steps with 864 atoms

Performance: 21.522 ns/day, 1.115 hours/ns, 249.097 timesteps/s
123.0% CPU use with 2 MPI tasks x 4 OpenMP threads

MPI task timing breakdown:
Section |  min time  |  avg time  |  max time  |%varavg| %total
---------------------------------------------------------------
Pair    | 1311.3     | 1339.7     | 1368       |  77.5 | 66.74
Neigh   | 12.958     | 13.383     | 13.807     |  11.6 |  0.67
Comm    | 84.02      | 112.02     | 140.02     | 264.6 |  5.58
Output  | 1.1173     | 1.1199     | 1.1225     |   0.2 |  0.06
Modify  | 537.19     | 537.87     | 538.55     |   2.9 | 26.80
Other   |            | 3.192      |            |       |  0.16

Nlocal:    432 ave 448 max 416 min
Histogram: 1 0 0 0 0 0 0 0 0 1
Nghost:    2649.5 ave 2657 max 2642 min
Histogram: 1 0 0 0 0 0 0 0 0 1
Neighs:    37820 ave 38912 max 36728 min
Histogram: 1 0 0 0 0 0 0 0 0 1

Total # of neighbors = 75640
Ave neighs/atom = 87.5463
Neighbor list builds = 9285
Dangerous builds = 0

write_data after_two_phase_equil.in
Last active /omp style is pair_style eam/alloy/omp
write_restart after_two_phase_equil.lmp
Last active /omp style is pair_style eam/alloy/omp

# write_data temp.data
# create_box 1 box
# create_atoms 2 box args mol values


# # read_restart after_heating.lmp

# variable x equal

# variable P equal 0
# variable dt equal 0.001
# # variable loopVar loop 8

# region left_hot block 0 3 0 3 0 2 units lattic
# region cold block
# # print "step temp vol pe" file heating.txt screen no

# pair_style eam/alloy
# pair_coeff * * Mishin-Ni-Al-2009.eam.alloy Ni Al


# # velocity all create 300 123123

# # fix 2 all nve
# # run 1000
# # unfix 2

# neighbor 2 bin
# neigh_modify every 10 check yes

# timestep $(dt)

# # dump_modify 1 append yes
# dump 3 all custom 10000 traj_npt_new.lammpstrj id type x y z

# thermo 1000
# thermo_style custom step temp vol press ke pe density

# label ensemble
# reset_timestep 0
# variable T equal 2200+${loopVar}*50

# fix 1 all npt temp $T $T $(dt*100) iso 0 0 $(dt*1000)
# print """
# <--------------------------------------------------------------------->
# <------------------ Equilibrating at temperature $T ----------------->
# <--------------------------------------------------------------------->
# """
# fix temp all print 100 "$(step) $(temp) $(press) $(vol) $(ke) $(pe) $(density)" file temp.txt screen no title  "step temp press vol ke pe density"
# run 250000
# fix out_file_1 all print 1000 "$(step) $(temp) $(press) $(vol) $(ke) $(pe) $(density)" file heating_$T.txt screen no title  "step temp press vol ke pe density"

# run 100000
# unfix out_file_1
# unfix 1
# # # clear
# # next loopVar
# # # thermo_modify flush yes
# # jump in.lmp ensemble


# write_data after_two_phase_equil.in
# write_restart after_two_phase_equil.lmp






















Total wall time: 0:33:27
