LAMMPS data file via write_data, version 29 Oct 2020, timestep = 300000

2016 atoms
1 atom types

-0.6250114000292921 21.889011400028366 xlo xhi
-0.6250114000292921 21.889011400028366 ylo yhi
-1.4583599334016775 51.074359933401354 zlo zhi

Masses

1 58.933

Atoms # atomic

1 1 -0.5311603416185046 -0.5778071542029418 -1.4461068899269423 0 0 0
5 1 3.1707603083351636 -0.5741269531141968 -1.4248910118163403 0 0 0
8 1 2.959617761849884 1.3251184544868795 0.44322072359730846 0 0 0
27 1 1.2694985009555797 3.2538892391894323 0.46163466353287497 0 0 0
146 1 1.3494225786783147 1.0631672608023224 2.410258170114134 0 0 0
173 1 3.1910004532759118 3.1348502331171537 2.3602685799513683 0 0 0
4 1 -0.4899103876790087 1.3049528826087562 0.4379358398741271 0 0 0
169 1 -0.6234254769178317 3.0738501920331562 2.2690099909000963 0 0 0
12 1 6.784602776790787 1.2525418355109645 0.5109451980667703 0 0 0
31 1 5.068817000545037 3.0446349056265354 0.4309554954281325 0 0 0
150 1 4.842086498511095 1.189332575739597 2.374674968732577 0 0 0
153 1 6.735868291158517 -0.6249082017174886 2.347395871650779 0 0 0
177 1 6.9092252348475345 3.143161034487969 2.408797180334361 0 0 0
33 1 6.888543958125971 3.106204769866431 -1.382617189328868 0 0 0
10 1 8.610473068373544 1.147757381741771 -1.3670299477031829 0 0 0
14 1 12.566190090279644 1.2152884492111433 -1.457187268747319 0 0 0
16 1 10.570723930674841 1.083767092424375 0.5278197375408964 0 0 0
35 1 8.689785772448033 3.0473307499681965 0.5687122071124104 0 0 0
39 1 12.389831752463643 3.0449641425301586 0.5239206402702878 0 0 0
154 1 8.750023156351219 1.2240983054347834 2.2669771477302967 0 0 0
158 1 12.622524726674456 1.3025724863333548 2.344218136760712 0 0 0
181 1 10.644490894608124 3.1220000039298066 2.3742864406292403 0 0 0
15 1 12.598110672320148 -0.6022173172577732 0.41984397848945254 0 0 0
157 1 10.588647358263682 -0.5144537921351412 2.407864146505902 0 0 0
37 1 10.473168660047175 3.044322738664261 -1.3841995804647578 0 0 0
13 1 10.602750101267546 -0.5175643874497032 -1.361261500947986 0 0 0
17 1 14.476896644005125 -0.5647698258850404 -1.414727754096079 0 0 0
20 1 14.42762642018687 1.3451158076925445 0.4334649239566204 0 0 0
43 1 16.15376324073266 2.994691248019815 0.3855326511804267 0 0 0
162 1 16.452374573779956 1.1497432780965464 2.3183846174657576 0 0 0
185 1 14.437867900930646 3.030281629229831 2.367299278843446 0 0 0
18 1 16.336898431388406 1.1937072180035497 -1.444336978358458 0 0 0
25 1 21.822346316382927 3.2177203349570416 -1.342269558511673 -1 0 0
21 1 18.16553030068644 -0.6226871519541666 -1.395470446128243 0 0 0
24 1 18.100258583075686 1.2599157189053631 0.41708967847849987 0 0 0
47 1 19.93759621452986 3.2198772703139524 0.5067223511118486 0 0 0
166 1 20.00105221348025 1.232058939282768 2.3512755673419763 0 0 0
189 1 18.253781362019275 3.1299725480539276 2.3023017969710544 0 0 0
28 1 -0.6145150870345347 5.075750289988921 0.4823911052969938 0 0 0
32 1 3.228531978536553 4.97865141790765 0.3268258372582704 0 0 0
51 1 1.350508575588327 6.7992409269001035 0.2422376311191654 0 0 0
170 1 1.2615255705256623 5.078059077385323 2.2756493172380137 0 0 0
193 1 -0.5500123545256147 6.969437968883622 2.2561973734616334 0 0 0
197 1 3.235544974771133 7.0141309052350085 2.475616998736241 0 0 0
36 1 6.6954482699136095 5.085115785327814 0.4669635394785807 0 0 0
55 1 4.947147568137252 6.838709485815246 0.37168158366059845 0 0 0
174 1 4.816565919570483 5.054720091065163 2.3533431266603366 0 0 0
201 1 6.771882154476288 6.862791918542011 2.3928566500186172 0 0 0
34 1 8.591448969190635 4.900407882713994 -1.3028972123317741 0 0 0
40 1 10.588309368365927 4.971461642661494 0.5615495739114027 0 0 0
59 1 8.599367941311408 6.83064876768514 0.3997012117361938 0 0 0
61 1 10.559489927943591 6.857007469649841 -1.284448485884429 0 0 0
63 1 12.510457315802688 6.9438108595083055 0.5339979642540251 0 0 0
178 1 8.694174340794921 5.058463468610535 2.423188520759184 0 0 0
182 1 12.514427399332282 5.000408817383101 2.359979059491314 0 0 0
205 1 10.507562781677256 6.76280741276056 2.269493083055087 0 0 0
38 1 12.376460944029926 4.949280661704124 -1.2303468825095263 0 0 0
44 1 14.293435493915254 4.922768280041518 0.44321471531022927 0 0 0
65 1 14.256819221269991 6.879125907141634 -1.2621858927468352 0 0 0
67 1 16.22526995963267 6.855012184126585 0.4411367011042999 0 0 0
186 1 16.188703036144524 4.98567960977058 2.2422669938112563 0 0 0
209 1 14.373839397200062 6.823946938126658 2.283246178496635 0 0 0
42 1 16.251029921986124 4.985799876485259 -1.3837442978141874 0 0 0
48 1 18.13938453497721 5.068626174328963 0.5174940835145154 0 0 0
71 1 19.932837283255914 6.807351573751514 0.44388317788268195 0 0 0
190 1 20.170226964475795 5.1024470921030565 2.3612843226160996 0 0 0
213 1 18.172809706982278 6.91382415078579 2.3360595987858535 0 0 0
46 1 19.92904539331306 5.035324451150867 -1.3563133023965053 0 0 0
56 1 3.074762304212788 8.604069812899949 0.4420974020386961 0 0 0
75 1 1.254118508120882 10.572230904883446 0.48043029522765024 0 0 0
77 1 3.134084377906553 10.695871977875695 -1.4552949048702755 0 0 0
80 1 3.1609942626593908 12.52131927731108 0.20802099040871735 0 0 0
194 1 1.2619933812725435 8.729135188349566 2.3267269260896457 0 0 0
218 1 1.1609653126866348 12.620372743984062 2.2966461659964614 0 0 0
221 1 3.1318125280896445 10.704057688817388 2.3045094163067863 0 0 0
52 1 -0.4924545851851544 8.672237871171586 0.361788599979598 0 0 0
76 1 -0.5418637551553896 12.453525997803531 0.30798369946799786 0 0 0
217 1 -0.5415613699659175 10.551305862126169 2.2402311075655867 0 0 0
60 1 6.696896934623835 8.795556320096981 0.4098245158048681 0 0 0
78 1 5.072019663349322 12.4485750565316 -1.455647742180183 0 0 0
79 1 4.952357333456645 10.526186418132346 0.3755753383585927 0 0 0
84 1 6.851688119318357 12.571109552998639 0.37940352253984333 0 0 0
198 1 5.0038050400699206 8.668839563172664 2.225419760539264 0 0 0
222 1 4.888360827423474 12.514012785667017 2.2117393519383226 0 0 0
225 1 6.699172109367939 10.687401774470338 2.247908196040214 0 0 0
62 1 12.445818488460386 8.712111402194884 -1.2530163634595697 0 0 0
64 1 10.618047452463166 8.818994772516104 0.5072062364564014 0 0 0
82 1 8.628163336886612 12.514419940931232 -1.4380467321078816 0 0 0
83 1 8.749222365902234 10.667018747069983 0.44420883796569366 0 0 0
85 1 10.580804832581837 10.575510879423373 -1.3440794397957383 0 0 0
87 1 12.623115793082192 10.753707535223972 0.4559231160031203 0 0 0
88 1 10.63797511895328 12.603312015144363 0.29361041261311005 0 0 0
202 1 8.60344915253096 8.849608889455096 2.132043400266271 0 0 0
206 1 12.578897013121896 8.881388384653077 2.2889081814683725 0 0 0
226 1 8.82785262563168 12.641946124725937 2.2123736276485273 0 0 0
229 1 10.769743255040439 10.675880024278413 2.2320704285348225 0 0 0
230 1 12.659266886350562 12.468415056784517 2.2472183738651896 0 0 0
86 1 12.465989873258406 12.46662364146225 -1.4227336888791704 0 0 0
68 1 14.420487615569337 8.748924345767424 0.5160564451812615 0 0 0
91 1 16.281486751940413 10.584083302891363 0.5629673067335395 0 0 0
92 1 14.489622237730664 12.562139400402646 0.35006704847181647 0 0 0
210 1 16.399151938580204 8.779610587460496 2.38265127637971 0 0 0
233 1 14.431094844531563 10.549885384901872 2.320760270233051 0 0 0
234 1 16.24034800927854 12.464647795131066 2.2677062666515733 0 0 0
66 1 16.101293187118053 8.7225243724797 -1.4064148243515282 0 0 0
70 1 19.908619044855314 8.73951275210759 -1.2774119259359187 0 0 0
72 1 18.063037844151182 8.737233499594325 0.4842038177014931 0 0 0
95 1 20.09170212353606 10.645952554601765 0.31470081645306536 0 0 0
96 1 18.05568303304917 12.417487951201835 0.3662664398884581 0 0 0
214 1 20.035611321859406 8.671361361105777 2.2126315087594786 0 0 0
237 1 18.437494950375083 10.670740089988186 2.2708142005386027 0 0 0
238 1 20.123102982090607 12.462562548232787 2.2432760847176856 0 0 0
99 1 1.3050181454051224 14.412145320058169 0.40451004904176147 0 0 0
104 1 3.041253325948907 16.12738644402964 0.3394150796241451 0 0 0
242 1 1.122351227302141 16.022268081812783 2.28865654455841 0 0 0
245 1 3.114724876130449 14.381310995242952 2.13171285332972 0 0 0
103 1 4.964620422212778 14.35291624079195 0.4197903915865633 0 0 0
108 1 6.937594745528866 16.262905285527083 0.3857767927602358 0 0 0
246 1 5.09173083826465 16.21712963247191 2.2526846048746836 0 0 0
249 1 6.869935440900208 14.400887669656626 2.2280638350872457 0 0 0
107 1 8.684019631997616 14.412689852585958 0.31400482764857696 0 0 0
111 1 12.514342474715 14.36572163451181 0.32445319093268354 0 0 0
112 1 10.577511978131342 16.329080554518818 0.2961514147133044 0 0 0
250 1 8.703097948636364 16.143248437091586 2.4128272340017394 0 0 0
253 1 10.74403988674727 14.342143023053891 2.2769739536486346 0 0 0
254 1 12.42938596621877 16.262546828256433 2.277692519739577 0 0 0
113 1 14.397027927443443 14.338767652997454 -1.4300258350104602 0 0 0
115 1 16.311688416883953 14.408150800693056 0.3599349580460014 0 0 0
116 1 14.297856847401736 16.21283448821638 0.4038706137183943 0 0 0
257 1 14.428130164274654 14.206835356088238 2.3121569883062403 0 0 0
258 1 16.23367125471855 16.221623253451455 2.3877513987049874 0 0 0
97 1 21.75777947077519 14.40853076127581 -1.4094692250650753 -1 0 0
100 1 21.871829422141687 16.14997063565726 0.3193209222592741 -1 0 0
241 1 21.794680546452938 14.471500760790368 2.3723312168053563 -1 0 0
119 1 20.06648586036323 14.287202455292842 0.45169529617186543 0 0 0
120 1 18.108744534645005 16.35770401492521 0.4414969109969893 0 0 0
261 1 18.156531796243492 14.28276134501792 2.251881944823867 0 0 0
262 1 20.045449695986846 16.336515023525486 2.217147215170596 0 0 0
3 1 1.3917839557057659 21.879430345661014 0.5068390258426194 0 -1 0
149 1 3.1845252557190156 21.716122458962623 2.3110297534607938 0 -1 0
122 1 1.3361480012705134 20.0467001320999 -1.4521347711402444 0 0 0
123 1 1.1936426181671045 18.011147373425395 0.5834741975240636 0 0 0
124 1 -0.5527373267760078 19.89770909218018 0.30191577978626616 0 0 0
128 1 3.0993671011426356 19.77796956060007 0.5266987064304853 0 0 0
266 1 1.2742878074488317 19.897741714838055 2.2544079434077644 0 0 0
269 1 3.0884705552792187 17.898902094917133 2.4713640004780224 0 0 0
265 1 -0.5480628834512806 18.03447971971641 2.417733972203537 0 0 0
7 1 4.942836734473733 21.879018560382328 0.49155873412532936 0 -1 0
9 1 6.755151439569804 21.799605106580103 -1.3463441001774905 0 -1 0
126 1 4.971975486195262 19.947330138003892 -1.4170736640363812 0 0 0
127 1 4.801761115140807 17.978229981550612 0.544097914604388 0 0 0
129 1 6.810436970068291 18.257155421873122 -1.3883962485864738 0 0 0
132 1 6.64356127008312 20.004396729181032 0.5259845890138017 0 0 0
270 1 4.891191556195072 19.856742361745745 2.472287298819943 0 0 0
273 1 6.899315666063709 18.055548517916556 2.3357875719661276 0 0 0
11 1 8.620335809773987 21.883256916702564 0.587784621494774 0 -1 0
131 1 8.706562535322401 18.089635217579655 0.5916239965353371 0 0 0
134 1 12.38400460692991 20.156041942433184 -1.4005994518350602 0 0 0
135 1 12.47599887575272 18.197409754830467 0.25899079134139313 0 0 0
136 1 10.566305557684512 20.119095560873596 0.5600642939609028 0 0 0
274 1 8.685765810437575 20.069222477460443 2.342213047604171 0 0 0
277 1 10.511707928409148 18.126895771476185 2.289202100529806 0 0 0
278 1 12.568353145648684 20.03380254837454 2.180106616927382 0 0 0
133 1 10.630890287111445 18.271689658734672 -1.3567310520642641 0 0 0
130 1 8.885115750519079 19.990722767309833 -1.3640629556543085 0 0 0
19 1 16.42210112160442 21.826283470461675 0.4495994111686614 0 -1 0
161 1 14.264669152708343 21.826629307021562 2.1617723660138637 0 -1 0
139 1 16.26273458170025 18.053490527261857 0.33138555275586623 0 0 0
140 1 14.529407689445655 19.972080794670937 0.3422824717527275 0 0 0
281 1 14.453913709887312 18.070891916875354 2.2064508764250115 0 0 0
282 1 16.364955509156324 19.935703505858434 2.214585057270741 0 0 0
165 1 18.332587139743403 21.726334008561224 2.1029919284112246 0 -1 0
145 1 21.88859452701714 21.79135732881437 2.1893737900309596 -1 -1 0
23 1 20.138820214941305 21.885435286851234 0.3212078721849305 0 -1 0
143 1 20.062082561486918 18.11518611284719 0.3376406314000491 0 0 0
144 1 18.12842018178557 19.7394197628893 0.3692691069754106 0 0 0
285 1 18.198230080271998 18.041246117682242 2.2411844761132107 0 0 0
286 1 20.15399862349961 19.86227257807205 2.159540908317974 0 0 0
148 1 -0.5944920768091575 1.090938976934732 3.98119399182608 0 0 0
152 1 3.0847025177659386 0.9836950035900116 4.248722644663416 0 0 0
171 1 1.367875684739839 2.9867702460567123 4.163836432184429 0 0 0
290 1 1.2694064779017997 1.1390116881426895 6.070328468761674 0 0 0
317 1 3.144246838440769 3.0761004778682706 5.977210980160513 0 0 0
156 1 7.024235576005023 1.2889805009197164 4.155832281878344 0 0 0
175 1 5.0550288039263185 3.1249154236532024 4.214141211779997 0 0 0
294 1 5.0859568443715295 1.2731987098451416 6.055008567382341 0 0 0
321 1 6.812150879119704 3.0806807723571175 6.275667330576345 0 0 0
160 1 10.78180653994887 1.2410958521536684 4.264977042468261 0 0 0
179 1 8.75488012220502 3.1320055549862085 4.2661536578503325 0 0 0
183 1 12.690267607557589 3.087784818906822 4.2437123331888005 0 0 0
298 1 8.821235248817304 1.067249331019575 5.97093607451911 0 0 0
302 1 12.516896449419232 1.1663376055090144 6.08046499502286 0 0 0
325 1 10.764427203681668 3.0419772539085077 5.926461441849684 0 0 0
155 1 8.630591213910828 -0.6033046336267812 4.1006057186638225 0 0 0
164 1 14.538683882609122 1.219446634140415 4.248890676096193 0 0 0
187 1 16.277342157596223 3.1644994144159564 4.226182411633512 0 0 0
306 1 16.24340304277115 1.2274032988921366 6.050442606108378 0 0 0
329 1 14.47170827430776 3.126043034833398 6.077400482993434 0 0 0
313 1 21.838931434396976 3.1420715196691726 6.16958395545624 -1 0 0
168 1 18.334577270240374 1.2794502840775908 4.135042019573024 0 0 0
191 1 20.11292410923226 3.2059533144833123 4.287909135872819 0 0 0
310 1 20.19251850595723 1.2056872905968572 6.012606389361831 0 0 0
333 1 18.232641710106662 3.0017719081103826 6.206138150698476 0 0 0
309 1 18.27556355714998 -0.539256030669064 5.900511828396279 0 0 0
172 1 -0.5074116677135241 4.980199490755575 4.271758984955841 0 0 0
176 1 3.122109483957458 5.162296147184397 4.303482145834431 0 0 0
195 1 1.200917870531777 7.153762519695497 4.314773018044474 0 0 0
314 1 1.2016089665794605 4.975033084891039 6.058867019145012 0 0 0
337 1 -0.6175146074589731 6.990294526989374 6.0856029480944756 0 0 0
341 1 3.0723726205495283 6.88442840717266 6.099093921782544 0 0 0
180 1 6.874688361301998 4.973983578558349 4.314912624634905 0 0 0
199 1 4.976438003535326 6.897532361500115 4.29019760597911 0 0 0
318 1 5.1038062297871445 5.068633343648906 6.095557236854505 0 0 0
345 1 6.963919030022711 7.0301403572013195 6.01974419293016 0 0 0
184 1 10.687576881915424 5.0709500782817845 4.18473874814806 0 0 0
203 1 8.815263279926056 6.928473432939161 4.203297390479384 0 0 0
207 1 12.54863037651667 6.811299008601495 4.083084182409207 0 0 0
322 1 8.8309863156033 5.116703671323735 6.016444272203694 0 0 0
326 1 12.621218435556564 5.003645077012838 5.918662612996381 0 0 0
349 1 10.606422804422818 6.740793535210122 6.003291936982926 0 0 0
188 1 14.549706005553851 4.927162994747121 4.196548126939195 0 0 0
211 1 16.18653586798304 6.796262683012407 4.102673684489652 0 0 0
330 1 16.417574422322744 5.0869320960361515 6.103222959843034 0 0 0
353 1 14.309478592517417 6.944198825865994 6.01318154009324 0 0 0
192 1 18.215918400466286 4.988962012630449 4.2028654754338985 0 0 0
215 1 20.068722869367143 7.071709222515852 4.172591999139054 0 0 0
334 1 19.956861677215095 5.035128608988782 6.142267765345291 0 0 0
357 1 18.306318144712918 6.879133639570477 6.051713766011151 0 0 0
200 1 3.052365615873299 8.8524320663132 4.215144934169685 0 0 0
219 1 1.1492328400361185 10.774105903081438 4.160179876263705 0 0 0
224 1 3.224698697956608 12.6525469753308 4.1034317079034395 0 0 0
338 1 1.3359736741239392 8.817832125809797 6.209060561481373 0 0 0
362 1 1.3431115778542433 12.501443650189003 6.028586448612099 0 0 0
365 1 3.1362411350941084 10.549295866335822 6.047751677679819 0 0 0
361 1 -0.5144287535447347 10.629116378225651 6.245155428791506 0 0 0
204 1 6.959898981830532 8.866037366755508 4.125035002679535 0 0 0
223 1 4.999382649411455 10.59466131575338 4.053181242891854 0 0 0
228 1 6.794118803016936 12.468688478864383 4.0416800055916395 0 0 0
342 1 5.09466116163197 8.794393101583994 5.966413600630458 0 0 0
366 1 4.8769283140615105 12.548517914677678 5.984718405547827 0 0 0
369 1 6.982998450862937 10.69092203421999 5.898215269861274 0 0 0
208 1 10.720335766861574 8.635138219495222 4.056773047961597 0 0 0
227 1 8.792414792748326 10.536178824758611 4.0530099272451 0 0 0
231 1 12.507929256362138 10.500559073059172 4.201441220482344 0 0 0
232 1 10.8871369162686 12.539073157633663 4.149347538108962 0 0 0
346 1 8.826302287235505 8.880381807471874 5.871182147761287 0 0 0
350 1 12.583925800051162 8.562084648428394 5.959739797478877 0 0 0
370 1 8.802602737212695 12.455577714994579 5.963311124323064 0 0 0
373 1 10.65939443726439 10.666579682478861 5.862617928397719 0 0 0
374 1 12.592768255475539 12.389418711384165 6.167384827380992 0 0 0
212 1 14.42567475902782 8.812740193298461 4.185156284870981 0 0 0
235 1 16.367938600693314 10.567806229860285 4.246907780931456 0 0 0
236 1 14.398573070523883 12.419032970747638 4.274221508960209 0 0 0
354 1 16.382788183848604 8.581910418395134 6.024055247741645 0 0 0
377 1 14.437164818480412 10.721746041943709 6.06459573087561 0 0 0
378 1 16.421534641518704 12.505765890970983 6.090716585652072 0 0 0
196 1 21.851738043507012 8.922445182611767 4.348802392094209 -1 0 0
220 1 21.77941405604713 12.50133133750359 4.138869050065836 -1 0 0
216 1 18.23964749486253 8.828197590181622 4.143876944694421 0 0 0
239 1 20.093680438341032 10.736368134526368 4.380185690852411 0 0 0
240 1 18.160083757029703 12.478406654493787 4.132610356311703 0 0 0
358 1 19.91104464539982 8.772307608453234 6.293960734760536 0 0 0
381 1 18.100040388664112 10.551840218271588 6.252785650329149 0 0 0
382 1 20.03225347530733 12.460636202146889 6.254927047326951 0 0 0
243 1 1.1427136631887505 14.320325667764294 4.279182948305964 0 0 0
248 1 2.8824643915256005 16.128055197656387 4.298626818765519 0 0 0
386 1 1.207420043679472 16.165752644386238 6.2523414300714535 0 0 0
389 1 3.0216280895133636 14.412141866099983 6.356146369135296 0 0 0
247 1 4.788221141381671 14.443514066713483 4.188332852410424 0 0 0
252 1 6.803606378984649 16.11139686829936 4.246050379639013 0 0 0
390 1 5.109226482739268 16.138117763182812 6.072617937965801 0 0 0
393 1 7.0084818296036495 14.24556091794952 5.958922156836795 0 0 0
251 1 8.887000968149309 14.276520858554628 4.249635841282577 0 0 0
255 1 12.620539005381596 14.306948277091173 4.1136621646280505 0 0 0
256 1 10.648547712169533 16.35702574303361 4.16192257703765 0 0 0
394 1 8.904121401930706 16.193788532448416 6.13607205158127 0 0 0
397 1 10.80630580350977 14.2481468017602 5.974027395097847 0 0 0
398 1 12.50787037904713 16.247127520355768 5.992493646098261 0 0 0
259 1 16.401797116716736 14.36562798194226 4.194563305575556 0 0 0
260 1 14.497898361093583 16.302501622870842 4.214619719086189 0 0 0
401 1 14.315244384781138 14.45997974412013 6.013610622203004 0 0 0
402 1 16.394657293380533 16.262666016071428 5.913555757432642 0 0 0
244 1 21.87211925636189 16.217987646622326 4.291197224109843 -1 0 0
385 1 21.884583135790358 14.291949986119194 6.122593281167466 -1 0 0
263 1 20.04542576838861 14.306101795342716 4.09956403720061 0 0 0
264 1 18.126085296524444 16.19667750709739 4.109711820096612 0 0 0
405 1 18.261748955456184 14.389017113972326 6.005565770993314 0 0 0
406 1 19.992214423228774 16.279793527050934 5.976664611378635 0 0 0
147 1 1.1455325279121054 21.54207498206563 4.321973149511292 0 -1 0
293 1 3.2767068757475046 21.81372031945064 6.27463472065004 0 -1 0
267 1 1.2894374977144016 18.093319855008545 4.264432575413572 0 0 0
272 1 3.0514588592704874 20.065989647232648 4.3380657625097525 0 0 0
410 1 1.3808337840640292 19.811309625104357 6.174994538924204 0 0 0
413 1 3.1707566999066765 18.11244064919915 6.062705216697206 0 0 0
289 1 -0.5737622983728633 21.801309305461707 6.090243973000445 0 -1 0
151 1 5.015193082191637 21.701816889270795 4.336022387809788 0 -1 0
297 1 6.9207504016525005 21.844772256092327 6.027242301571471 0 -1 0
271 1 4.967522964945985 18.149048619424597 4.273084081691347 0 0 0
276 1 6.877650133105899 19.95179845172619 4.211938198427996 0 0 0
414 1 5.113257927350127 19.91859474152789 6.26248591340509 0 0 0
417 1 6.910492388093776 17.990754933152083 6.043823182152999 0 0 0
159 1 12.596835714395798 21.77711801190653 4.196793216018001 0 -1 0
301 1 10.757435470833764 21.728583263394107 5.885424800495475 0 -1 0
275 1 8.640362413168242 17.968297652609024 4.1439588111405135 0 0 0
279 1 12.505745912753039 18.161531886280457 4.163977139517568 0 0 0
280 1 10.592011133490406 19.92783816904469 4.15875071784365 0 0 0
418 1 8.773142304332254 20.099030944824165 5.916021253705881 0 0 0
421 1 10.645168892266353 18.05673630990757 6.072337571882338 0 0 0
422 1 12.4845718460799 19.969780347485923 5.840788212453774 0 0 0
163 1 16.329364452202 21.835152474437606 4.133143448452421 0 -1 0
305 1 14.393896549740326 21.803516742400355 5.959541267180367 0 -1 0
283 1 16.409569125775718 18.17248525007004 4.035749792181553 0 0 0
284 1 14.473954205425235 19.895249354369042 4.083218675339868 0 0 0
425 1 14.419145552121714 18.150938275773782 5.983332204322802 0 0 0
426 1 16.39268461591238 20.0334677266885 5.947809413987659 0 0 0
167 1 20.027035491876724 21.801408167127093 4.012282498582266 0 -1 0
268 1 21.77956791610181 19.963731925978017 4.1582497148590045 -1 0 0
409 1 21.85520167873741 18.0588576722594 6.045545147040379 -1 0 0
287 1 20.026498526958854 18.13527369002837 4.164399714321728 0 0 0
288 1 18.23292355345054 20.070942986045644 4.173076015241899 0 0 0
429 1 18.20651232084478 18.201548665841557 6.084005675261672 0 0 0
430 1 20.129853513090502 20.04206698844262 6.086136840815661 0 0 0
296 1 3.228222557468557 1.1746305158358858 7.92050834425182 0 0 0
315 1 1.2110872109019553 3.0899056236324656 7.808597146392826 0 0 0
434 1 1.3084788712662807 1.1073663609696611 9.685459456487202 0 0 0
445 1 -0.44663638223559093 3.041340293790864 9.884722183771737 0 0 0
447 1 3.021078670396235 3.0585341254016476 9.794924456256485 0 0 0
508 1 3.0899420802398234 1.1278051817848969 11.668392567680767 0 0 0
435 1 3.173179605593351 -0.6121129409954628 9.780514478372867 0 0 0
292 1 -0.4987858296546974 1.1534058392513702 7.993379183635877 0 0 0
295 1 5.101332510887531 -0.5365907566100733 8.019882067933096 0 0 0
300 1 7.0097872823788485 1.1932789445542913 7.919598948887202 0 0 0
319 1 4.851576367314087 3.095062844179329 8.056718208689455 0 0 0
436 1 5.038972209000497 1.3440517157161034 9.798751302242787 0 0 0
437 1 6.892013268966769 -0.6143614144654884 9.854679792394313 0 0 0
449 1 6.978274725077473 3.134978524125537 9.731809810520716 0 0 0
510 1 6.857725747026337 1.2289961584484614 11.64321460082599 0 0 0
519 1 5.006375850284314 3.0932554673946417 11.646664881685897 0 0 0
303 1 12.519197596662735 -0.6168483692249458 7.857571643961791 0 0 0
304 1 10.54633602777339 1.1120697718419406 7.890444438727309 0 0 0
323 1 8.775713385284241 3.1759697156191655 7.7019923233637435 0 0 0
327 1 12.667221980874718 3.088824127324174 7.912003210767944 0 0 0
438 1 8.892885857867467 1.2362235102391845 9.825944403078559 0 0 0
440 1 12.470314171216447 1.2415836267385199 9.703174956147532 0 0 0
451 1 10.598849537006918 3.006559145511428 9.715751950331404 0 0 0
512 1 10.751408330842002 1.1868056574356234 11.634578748771727 0 0 0
521 1 8.702359599154942 2.9901112899538917 11.670455068677123 0 0 0
523 1 12.681646898531314 3.155071944589904 11.504205197061033 0 0 0
308 1 14.51162138059836 1.1615551161169804 7.954909015848935 0 0 0
331 1 16.139089767478026 3.096578944486334 7.884771064306772 0 0 0
442 1 16.25159865816969 1.246453196857872 9.844210165052793 0 0 0
453 1 14.404705789248126 3.123573667488897 9.777174595798094 0 0 0
513 1 16.397795632741435 -0.5654288655497552 11.59169375270815 0 0 0
514 1 14.278703008902728 1.2629061625511802 11.601680476772787 0 0 0
311 1 19.92575467709826 -0.5752106194589881 7.936980074527833 0 0 0
312 1 18.161051494949824 1.1988199139538958 8.026824519355971 0 0 0
335 1 20.238055385540328 3.092748648291367 8.074652644110197 0 0 0
443 1 18.253327980628292 -0.6187513028772957 9.81045613007488 0 0 0
444 1 20.108901958540407 1.2277029344251456 9.83838966293697 0 0 0
455 1 18.112800468296662 3.013714116346089 9.753145350073636 0 0 0
316 1 -0.5830074159521994 5.023203447215574 8.120824318006788 0 0 0
320 1 3.166996435566239 4.99455927414246 8.021627175853643 0 0 0
339 1 1.2730728623216867 6.884281298748266 7.930825282699654 0 0 0
446 1 1.1844553593381473 4.9377462830633485 9.869636288404484 0 0 0
459 1 3.0161708684974164 6.835410092539367 9.722806375742028 0 0 0
520 1 3.144456627202035 5.0548915402125045 11.631888361927084 0 0 0
324 1 6.88864453764572 5.053576977376478 7.832430045159789 0 0 0
343 1 4.973742293595745 6.780908236133783 7.880965040367645 0 0 0
448 1 5.152118115512938 5.014973911628793 9.750901556626744 0 0 0
461 1 7.043426623934379 6.913444498765043 9.74429021145566 0 0 0
522 1 7.016548991200064 4.9352182877885955 11.494391215439613 0 0 0
531 1 4.982852018240564 6.847571122124044 11.530145398143533 0 0 0
328 1 10.758577121532236 4.92820000592803 7.84450101665994 0 0 0
347 1 8.863514127721974 6.991882893631615 7.855498395065407 0 0 0
351 1 12.517454196465497 6.843935966095748 7.897876791296127 0 0 0
450 1 8.840340073815455 5.066540668072078 9.605260894882509 0 0 0
452 1 12.4000180826899 5.010785413699802 9.794294289178612 0 0 0
463 1 10.650399916607688 7.002351589636769 9.745766586822404 0 0 0
533 1 8.9132823473901 6.759527729623389 11.62985204269651 0 0 0
524 1 10.613600709572664 4.887579488020176 11.540693215041701 0 0 0
332 1 14.441937826379332 5.048209674837814 7.893751113489891 0 0 0
355 1 16.362787793454366 6.8942726188410415 7.93398661818013 0 0 0
454 1 16.170230616164922 4.982674638149758 9.756472868932105 0 0 0
465 1 14.212511926570047 6.7862727289078535 9.836838699821566 0 0 0
526 1 14.354485197782564 5.008647974885232 11.572844481202585 0 0 0
537 1 16.12100290696386 6.693829372861338 11.66934572453012 0 0 0
457 1 21.785724706466205 6.793755868581049 9.8618650086994 -1 0 0
336 1 18.234007628883376 4.846420535633845 8.051420516187447 0 0 0
359 1 20.08326845325577 6.789130342174464 7.9949745585759775 0 0 0
456 1 20.1223004155621 4.791123802991811 9.820866542179838 0 0 0
467 1 18.322604258738274 6.759899814139272 9.861079356459172 0 0 0
528 1 18.191827145626227 4.9303870546946085 11.579706996787333 0 0 0
344 1 3.289830018023898 8.777347599562193 7.865707233552383 0 0 0
363 1 1.3103693918665753 10.584940033388552 8.012917884015007 0 0 0
364 1 -0.531723761395138 12.488566240408977 8.011308242743471 0 0 0
368 1 3.293128798755155 12.495888927286382 8.041966507441419 0 0 0
458 1 1.2797488440816887 8.661569208578312 9.877678709032235 0 0 0
469 1 -0.5250983404111117 10.688178540670549 9.908916436192579 0 0 0
470 1 1.3737268128137607 12.451312833280587 9.89658867145817 0 0 0
471 1 3.158705595377925 10.490906420302556 9.767952815741914 0 0 0
532 1 3.1278528269000203 8.720408517027154 11.627453190059434 0 0 0
530 1 -0.5396461795980324 8.673046019159592 11.665345762129178 0 0 0
542 1 -0.5006077349734305 12.553379560532393 11.6547065489371 0 0 0
348 1 7.038274021474076 8.804992389572213 7.850020249446143 0 0 0
367 1 5.0872721922478 10.64275805587172 7.813732940475353 0 0 0
372 1 6.889809135637638 12.460364419494708 7.824384237558306 0 0 0
460 1 5.152767178614088 8.673752935609317 9.824512819097322 0 0 0
472 1 5.141045725403444 12.436595189084663 9.795438571219563 0 0 0
473 1 7.077433457008662 10.554205788908448 9.915569379495034 0 0 0
534 1 7.064858705033722 8.669741190538257 11.627620235138044 0 0 0
352 1 10.719265447421902 8.87460404763381 7.831239442794674 0 0 0
371 1 8.91752719281101 10.714472970734612 7.937012796111254 0 0 0
375 1 12.512725775456568 10.628601964272661 7.92223119823435 0 0 0
376 1 10.738054252312882 12.426056029885611 7.9074530564406285 0 0 0
462 1 9.011853016929441 8.819404041867411 9.70581145874478 0 0 0
464 1 12.448537841661073 8.778574040896343 9.821541176943343 0 0 0
474 1 8.761308778567775 12.5046469192189 9.773236001197393 0 0 0
475 1 10.699821124637033 10.656986145294745 9.905758785179856 0 0 0
476 1 12.616171246860363 12.685837901085028 9.86688670012166 0 0 0
547 1 12.57133649843755 10.609903400079384 11.603533949955295 0 0 0
356 1 14.471995693238954 8.732167429447458 7.9699848438534815 0 0 0
379 1 16.203484192693445 10.497956810242641 7.9820612107227475 0 0 0
380 1 14.346478247124246 12.613717490161159 7.861807057182659 0 0 0
466 1 16.26744540460998 8.669982175360651 9.87523443727537 0 0 0
477 1 14.292630354036383 10.647033479224449 9.78629986554835 0 0 0
478 1 16.13322463099741 12.532810501093715 9.867665693513368 0 0 0
549 1 16.092416949143676 10.53450715555725 11.657999943340952 0 0 0
550 1 14.417567355920026 12.492247414236132 11.587178138721116 0 0 0
340 1 21.809834943288344 8.683794485181537 8.092964319554406 -1 0 0
360 1 18.169365081130188 8.695882666888737 7.999716736341316 0 0 0
383 1 20.117317929176906 10.673767708835063 8.015291676392483 0 0 0
384 1 18.139766549354434 12.58968323701798 7.9671163254608395 0 0 0
468 1 19.99541404845543 8.773731670936339 9.893111227876338 0 0 0
479 1 18.09604932644106 10.81637042435807 9.789044564658832 0 0 0
480 1 20.04874041740399 12.623705544070567 9.78227936679766 0 0 0
540 1 18.16592254945347 8.737991663577967 11.495700029826141 0 0 0
551 1 20.120328873533296 10.69123373532378 11.55108535570946 0 0 0
387 1 1.207225414108546 14.315885444459449 7.994977938435758 0 0 0
392 1 3.1715385136417447 16.21988940100978 7.929839821269589 0 0 0
482 1 1.3463165255077518 16.03456896386234 9.837640207898527 0 0 0