
units real
boundary p p p
atom_style full
pair_style  lj/cut 13
# pair_style mie/cut 20
pair_modify   mix arithmetic
# kspace_style     ewald 0.0001
bond_style      harmonic
angle_style     harmonic
dihedral_style opls



variable xs equal 4.3
variable ys equal 62.7

# read_data octane_graphene.data extra/atom/types 2 extra/bond/types 2 extra/angle/types 1 extra/dihedral/types 1 extra/bond/per/atom 2 extra/angle/per/atom 2 extra/dihedral/per/atom  12
read_data octane_graphene.data
Reading data file ...
  orthogonal box = (4.5676500 -18.197821 -12.059839) to (33.067650 73.563189 103.44016)
  1 by 1 by 1 MPI processor grid
  reading atoms ...
  4987 atoms
Finding 1-2 1-3 1-4 neighbors ...
  special bond factors lj:    0.0      0.0      0.0     
  special bond factors coul:  0.0      0.0      0.0     
     0 = max # of 1-2 neighbors
     0 = max # of 1-3 neighbors
     0 = max # of 1-4 neighbors
     1 = max # of special neighbors
  special bonds CPU = 0.000 seconds
  read_data CPU = 0.016 seconds
# replicate 1 1 2
read_data co2.data add append offset 3 1 1 1 1  shift 5.0 70 40
Reading data file ...
  orthogonal box = (4.5676500 -18.197821 -12.059839) to (33.067650 129.56319 103.44016)
  1 by 1 by 1 MPI processor grid
  reading atoms ...
  500 atoms
Finding 1-2 1-3 1-4 neighbors ...
  special bond factors lj:    0.0      0.0      0.0     
  special bond factors coul:  0.0      0.0      0.0     
     0 = max # of 1-2 neighbors
     0 = max # of 1-3 neighbors
     0 = max # of 1-4 neighbors
     1 = max # of special neighbors
  special bonds CPU = 0.016 seconds
  read_data CPU = 0.016 seconds
# read_data graphene_wall.in add append offset 4 1 2 2 1 shift ${xs} ${ys} -12.5
# read_data graphene_wall.in add append offset 4 1 2 2 1 shift ${xs} ${ys} 91.0


include  oil_graphene_0.ff
#Pair Coeffs # lj/cut/omp

pair_coeff 1 1 0.175 3.905 13.0 #CH3-CH3
pair_coeff 1 2 0.1437 3.905 13.0 #CH3-CH2
pair_coeff 1 3 0.1107 3.7275 13.0 #CH3-C
pair_coeff 1 4 0.2798 3.8475 13.0 #CH3-CO2
pair_coeff 1 5 1.0 1.0 1.1225 #CH3-Wall
pair_coeff 2 2 0.118 3.905 13.0 #CH2-CH2
pair_coeff 2 3 0.0909 3.7275 13.0 #CH2-C
pair_coeff 2 4 0.2298 3.8475 13.0 #CH2-CO2
pair_coeff 2 5 1.0 1.0 1.1225 #CH2-Wall
pair_coeff 3 3 0.0 0.0 0.0 #C-C
pair_coeff 3 4 0.177 3.67 13.0 #C-CO2
pair_coeff 3 5 0.0 0.0 0.0 #C-Wall
pair_coeff 4 4 0.4475 3.79 13.0 #CO2-CO2
pair_coeff 4 5 1.0 1.0 1.1225 #CO2-Wall
pair_coeff 5 5 0.0 0.0 0.0 #Wall-Wall

#Bond Coeffs # harmonic/omp

bond_coeff 1 260.0 1.526
ERROR: Numeric index 1 is out of bounds(1-0) (src/MOLECULE/bond_harmonic.cpp:127)
Last command: bond_coeff 1 260.0 1.526
