# LAMMPS data file written by OVITO Pro 3.3.5
4987 atoms
5 atom types
4.56765 33.06765 xlo xhi
-18.197821 73.563189 ylo yhi
-12.059839 103.440161 zlo zhi

Atoms  # full

6009 1005 5 0.0 4.79034 2.30218 -11.0298
6010 1005 5 0.0 6.02009 2.30218 -8.89983
6011 1005 5 0.0 4.79034 2.30218 -9.60983
6012 1005 5 0.0 6.02009 2.30218 -11.7398
6013 1005 5 0.0 7.24984 2.30218 -11.0298
6014 1005 5 0.0 8.47959 2.30218 -8.89983
6015 1005 5 0.0 7.24984 2.30218 -9.60983
6016 1005 5 0.0 8.47959 2.30218 -11.7398
6017 1005 5 0.0 9.70935 2.30218 -11.0298
6018 1005 5 0.0 10.9391 2.30218 -8.89983
6019 1005 5 0.0 9.70935 2.30218 -9.60983
6020 1005 5 0.0 10.9391 2.30218 -11.7398
6021 1005 5 0.0 12.1689 2.30218 -11.0298
6022 1005 5 0.0 13.3986 2.30218 -8.89983
6023 1005 5 0.0 12.1689 2.30218 -9.60983
6024 1005 5 0.0 13.3986 2.30218 -11.7398
6053 1005 5 0.0 4.79034 2.30218 -6.76984
6054 1005 5 0.0 6.02009 2.30218 -4.63984
6055 1005 5 0.0 4.79034 2.30218 -5.34984
6056 1005 5 0.0 6.02009 2.30218 -7.47984
6057 1005 5 0.0 7.24984 2.30218 -6.76984
6058 1005 5 0.0 8.47959 2.30218 -4.63984
6059 1005 5 0.0 7.24984 2.30218 -5.34984
6060 1005 5 0.0 8.47959 2.30218 -7.47984
6061 1005 5 0.0 9.70935 2.30218 -6.76984
6062 1005 5 0.0 10.9391 2.30218 -4.63984
6063 1005 5 0.0 9.70935 2.30218 -5.34984
6064 1005 5 0.0 10.9391 2.30218 -7.47984
6065 1005 5 0.0 12.1689 2.30218 -6.76984
6066 1005 5 0.0 13.3986 2.30218 -4.63984
6067 1005 5 0.0 12.1689 2.30218 -5.34984
6068 1005 5 0.0 13.3986 2.30218 -7.47984
6097 1005 5 0.0 4.79034 2.30218 -2.50984
6100 1005 5 0.0 6.02009 2.30218 -3.21984
6101 1005 5 0.0 7.24984 2.30218 -2.50984
6104 1005 5 0.0 8.47959 2.30218 -3.21984
6105 1005 5 0.0 9.70935 2.30218 -2.50984
6108 1005 5 0.0 10.9391 2.30218 -3.21984
6109 1005 5 0.0 12.1689 2.30218 -2.50984
6112 1005 5 0.0 13.3986 2.30218 -3.21984
6025 1005 5 0.0 14.6284 2.30218 -11.0298
6026 1005 5 0.0 15.8581 2.30218 -8.89983
6027 1005 5 0.0 14.6284 2.30218 -9.60983
6028 1005 5 0.0 15.8581 2.30218 -11.7398
6029 1005 5 0.0 17.0879 2.30218 -11.0298
6030 1005 5 0.0 18.3176 2.30218 -8.89983
6031 1005 5 0.0 17.0879 2.30218 -9.60983
6032 1005 5 0.0 18.3176 2.30218 -11.7398
6033 1005 5 0.0 19.5474 2.30218 -11.0298
6034 1005 5 0.0 20.7771 2.30218 -8.89983
6035 1005 5 0.0 19.5474 2.30218 -9.60983
6036 1005 5 0.0 20.7771 2.30218 -11.7398
6037 1005 5 0.0 22.0069 2.30218 -11.0298
6038 1005 5 0.0 23.2366 2.30218 -8.89983
6039 1005 5 0.0 22.0069 2.30218 -9.60983
6040 1005 5 0.0 23.2366 2.30218 -11.7398
6069 1005 5 0.0 14.6284 2.30218 -6.76984
6070 1005 5 0.0 15.8581 2.30218 -4.63984
6071 1005 5 0.0 14.6284 2.30218 -5.34984
6072 1005 5 0.0 15.8581 2.30218 -7.47984
6073 1005 5 0.0 17.0879 2.30218 -6.76984
6074 1005 5 0.0 18.3176 2.30218 -4.63984
6075 1005 5 0.0 17.0879 2.30218 -5.34984
6076 1005 5 0.0 18.3176 2.30218 -7.47984
6077 1005 5 0.0 19.5474 2.30218 -6.76984
6078 1005 5 0.0 20.7771 2.30218 -4.63984
6079 1005 5 0.0 19.5474 2.30218 -5.34984
6080 1005 5 0.0 20.7771 2.30218 -7.47984
6081 1005 5 0.0 22.0069 2.30218 -6.76984
6082 1005 5 0.0 23.2366 2.30218 -4.63984
6083 1005 5 0.0 22.0069 2.30218 -5.34984
6084 1005 5 0.0 23.2366 2.30218 -7.47984
6113 1005 5 0.0 14.6284 2.30218 -2.50984
6116 1005 5 0.0 15.8581 2.30218 -3.21984
6117 1005 5 0.0 17.0879 2.30218 -2.50984
6120 1005 5 0.0 18.3176 2.30218 -3.21984
6121 1005 5 0.0 19.5474 2.30218 -2.50984
6124 1005 5 0.0 20.7771 2.30218 -3.21984
6125 1005 5 0.0 22.0069 2.30218 -2.50984
6128 1005 5 0.0 23.2366 2.30218 -3.21984
6041 1005 5 0.0 24.4664 2.30218 -11.0298
6042 1005 5 0.0 25.6962 2.30218 -8.89983
6043 1005 5 0.0 24.4664 2.30218 -9.60983
6044 1005 5 0.0 25.6962 2.30218 -11.7398
6045 1005 5 0.0 26.9259 2.30218 -11.0298
6046 1005 5 0.0 28.1557 2.30218 -8.89983
6047 1005 5 0.0 26.9259 2.30218 -9.60983
6048 1005 5 0.0 28.1557 2.30218 -11.7398
6049 1005 5 0.0 29.3854 2.30218 -11.0298
6050 1005 5 0.0 30.6152 2.30218 -8.89983
6051 1005 5 0.0 29.3854 2.30218 -9.60983
6052 1005 5 0.0 30.6152 2.30218 -11.7398
6085 1005 5 0.0 24.4664 2.30218 -6.76984
6086 1005 5 0.0 25.6962 2.30218 -4.63984
6087 1005 5 0.0 24.4664 2.30218 -5.34984
6088 1005 5 0.0 25.6962 2.30218 -7.47984
6089 1005 5 0.0 26.9259 2.30218 -6.76984
6090 1005 5 0.0 28.1557 2.30218 -4.63984
6091 1005 5 0.0 26.9259 2.30218 -5.34984
6092 1005 5 0.0 28.1557 2.30218 -7.47984
6093 1005 5 0.0 29.3854 2.30218 -6.76984
6094 1005 5 0.0 30.6152 2.30218 -4.63984
6095 1005 5 0.0 29.3854 2.30218 -5.34984
6096 1005 5 0.0 30.6152 2.30218 -7.47984
6141 1005 5 0.0 31.845 2.30218 -11.0298
6142 1005 5 0.0 31.845 2.30218 -9.60983
6143 1005 5 0.0 31.845 2.30218 -6.76984
6144 1005 5 0.0 31.845 2.30218 -5.34984
6129 1005 5 0.0 24.4664 2.30218 -2.50984
6132 1005 5 0.0 25.6962 2.30218 -3.21984
6133 1005 5 0.0 26.9259 2.30218 -2.50984
6136 1005 5 0.0 28.1557 2.30218 -3.21984
6137 1005 5 0.0 29.3854 2.30218 -2.50984
6140 1005 5 0.0 30.6152 2.30218 -3.21984
6145 1005 5 0.0 31.845 2.30218 -2.50984
6099 1005 5 0.0 4.79034 2.30218 -1.08985
6103 1005 5 0.0 7.24984 2.30218 -1.08985
6107 1005 5 0.0 9.70935 2.30218 -1.08985
6111 1005 5 0.0 12.1689 2.30218 -1.08985
4013 501 3 0.0 12.8785 4.42 0.0
4012 501 3 0.0 11.6488 3.71 0.0
4009 501 3 0.0 10.419 4.42 0.0
4008 501 3 0.0 9.18926 3.71 0.0
4005 501 3 0.0 7.95951 4.42 0.0
4004 501 3 0.0 6.72975 3.71 0.0
4001 501 3 0.0 5.5 4.42 0.0
6098 1005 5 0.0 6.02009 2.30218 -0.379852
6102 1005 5 0.0 8.47959 2.30218 -0.379852
6106 1005 5 0.0 10.9391 2.30218 -0.379852
6110 1005 5 0.0 13.3986 2.30218 -0.379852
4015 501 3 0.0 12.8785 5.83999 0.0
4011 501 3 0.0 10.419 5.83999 0.0
4007 501 3 0.0 7.95951 5.83999 0.0
4003 501 3 0.0 5.5 5.83999 0.0
3954 495 2 0.0 7.97475 4.42424 3.64562
3956 495 2 0.0 5.49872 4.63314 3.62692
3955 495 2 0.0 6.79137 5.40612 3.58089
3957 495 2 0.0 32.7417 5.50658 3.61213
2193 275 1 0.0 11.7894 6.6117 8.22183
3959 495 2 0.0 31.0458 3.68107 3.78148
3958 495 2 0.0 31.642 4.91934 4.46499
6115 1005 5 0.0 14.6284 2.30218 -1.08985
6119 1005 5 0.0 17.0879 2.30218 -1.08985
6123 1005 5 0.0 19.5474 2.30218 -1.08985
6127 1005 5 0.0 22.0069 2.30218 -1.08985
4029 501 3 0.0 22.7165 4.42 0.0
4028 501 3 0.0 21.4868 3.71 0.0
4025 501 3 0.0 20.257 4.42 0.0
4024 501 3 0.0 19.0273 3.71 0.0
4021 501 3 0.0 17.7975 4.42 0.0
4020 501 3 0.0 16.5678 3.71 0.0
4017 501 3 0.0 15.338 4.42 0.0
4016 501 3 0.0 14.1083 3.71 0.0
6114 1005 5 0.0 15.8581 2.30218 -0.379852
6118 1005 5 0.0 18.3176 2.30218 -0.379852
6122 1005 5 0.0 20.7771 2.30218 -0.379852
6126 1005 5 0.0 23.2366 2.30218 -0.379852
4031 501 3 0.0 22.7165 5.83999 0.0
4027 501 3 0.0 20.257 5.83999 0.0
4023 501 3 0.0 17.7975 5.83999 0.0
4019 501 3 0.0 15.338 5.83999 0.0
1281 161 1 0.0 23.9837 5.14041 3.61666
3747 469 2 0.0 19.2323 4.6297 6.82119
3748 469 2 0.0 20.1149 4.42179 5.67202
3749 469 2 0.0 19.5506 4.97164 4.37361
3746 469 2 0.0 19.9508 4.29679 8.09734
3657 458 1 0.0 28.2517 12.2837 8.16766
3467 434 2 0.0 25.0529 6.24262 8.84505
4258 501 3 0.0 28.8653 27.8499 0.0
6131 1005 5 0.0 24.4664 2.30218 -1.08985
6135 1005 5 0.0 26.9259 2.30218 -1.08985
6139 1005 5 0.0 29.3854 2.30218 -1.08985
6146 1005 5 0.0 31.845 2.30218 -1.08985
4044 501 3 0.0 31.3248 3.71 0.0
4041 501 3 0.0 30.0951 4.42 0.0
4040 501 3 0.0 28.8653 3.71 0.0
4037 501 3 0.0 27.6356 4.42 0.0
4036 501 3 0.0 26.4058 3.71 0.0
4033 501 3 0.0 25.1761 4.42 0.0
4032 501 3 0.0 23.9463 3.71 0.0
6130 1005 5 0.0 25.6962 2.30218 -0.379852
6134 1005 5 0.0 28.1557 2.30218 -0.379852
6138 1005 5 0.0 30.6152 2.30218 -0.379852
4043 501 3 0.0 30.0951 5.83999 0.0
4039 501 3 0.0 27.6356 5.83999 0.0
4035 501 3 0.0 25.1761 5.83999 0.0
3468 434 2 0.0 24.521 7.47794 8.21654
3960 495 1 0.0 29.9769 2.93592 4.41215
1871 234 2 0.0 28.3023 6.84747 6.45155
1872 234 1 0.0 28.1472 5.37748 6.17771
2194 275 2 0.0 11.4021 6.4657 6.79408
2195 275 2 0.0 12.6305 6.56128 5.88504
2196 275 2 0.0 12.1712 7.12282 4.53118
2197 275 2 0.0 12.5216 8.60535 4.42628
1865 234 1 0.0 7.16332 7.62734 7.67964
517 65 2 0.0 10.187 10.8811 6.95954
4010 501 3 0.0 11.6488 6.54999 0.0
4006 501 3 0.0 9.18926 6.54999 0.0
4002 501 3 0.0 6.72975 6.54999 0.0
4056 501 3 0.0 11.6488 7.96999 0.0
4052 501 3 0.0 9.18926 7.96999 0.0
4048 501 3 0.0 6.72975 7.96999 0.0
4059 501 3 0.0 12.8785 10.1 0.0
4057 501 3 0.0 12.8785 8.67999 0.0
4055 501 3 0.0 10.419 10.1 0.0
4054 501 3 0.0 11.6488 10.81 0.0
4053 501 3 0.0 10.419 8.67999 0.0
4051 501 3 0.0 7.95951 10.1 0.0
4050 501 3 0.0 9.18926 10.81 0.0
4049 501 3 0.0 7.95951 8.67999 0.0
4047 501 3 0.0 5.5 10.1 0.0
4046 501 3 0.0 6.72975 10.81 0.0
4045 501 3 0.0 5.5 8.67999 0.0
4100 501 3 0.0 11.6488 12.23 0.0
4096 501 3 0.0 9.18926 12.23 0.0
4092 501 3 0.0 6.72975 12.23 0.0
4103 501 3 0.0 12.8785 14.36 0.0
4101 501 3 0.0 12.8785 12.94 0.0
4099 501 3 0.0 10.419 14.36 0.0
4097 501 3 0.0 10.419 12.94 0.0
4095 501 3 0.0 7.95951 14.36 0.0
4093 501 3 0.0 7.95951 12.94 0.0
4091 501 3 0.0 5.5 14.36 0.0
4089 501 3 0.0 5.5 12.94 0.0
32 4 1 0.0 8.89974 9.40039 3.80599
31 4 2 0.0 7.46294 8.9014 3.72714
1866 234 2 0.0 5.89336 7.33383 8.44942
1867 234 2 0.0 4.70941 7.47089 7.45264
2198 275 2 0.0 13.9118 9.02025 4.05411
30 4 2 0.0 6.34319 10.0558 3.83149
516 65 2 0.0 11.6282 10.5755 7.13009
3664 458 1 0.0 7.13948 12.9039 6.42666
3663 458 2 0.0 7.21651 13.7906 7.69424
1869 234 2 0.0 30.9019 7.0323 6.90133
1868 234 2 0.0 31.9047 7.08985 8.06598
515 65 2 0.0 12.1993 10.9942 8.55356
3752 469 1 0.0 16.4333 5.93874 3.84851
3751 469 2 0.0 17.7541 6.62 3.46014
3750 469 2 0.0 18.8376 6.28927 4.58152
1284 161 2 0.0 22.6027 7.98172 4.06016
2199 275 2 0.0 13.946 10.56 4.0146
1285 161 2 0.0 22.3166 9.51325 4.06066
1287 161 2 0.0 20.4907 11.2089 3.9305
1286 161 2 0.0 20.9457 9.82077 3.62116
2200 275 1 0.0 15.2425 11.1617 3.53234
1288 161 1 0.0 19.1131 11.4368 3.37795
4026 501 3 0.0 21.4868 6.54999 0.0
4022 501 3 0.0 19.0273 6.54999 0.0
4018 501 3 0.0 16.5678 6.54999 0.0
4014 501 3 0.0 14.1083 6.54999 0.0
4072 501 3 0.0 21.4868 7.96999 0.0
4068 501 3 0.0 19.0273 7.96999 0.0
4064 501 3 0.0 16.5678 7.96999 0.0
4060 501 3 0.0 14.1083 7.96999 0.0
4075 501 3 0.0 22.7165 10.1 0.0
4073 501 3 0.0 22.7165 8.67999 0.0
4071 501 3 0.0 20.257 10.1 0.0
4070 501 3 0.0 21.4868 10.81 0.0
4069 501 3 0.0 20.257 8.67999 0.0
4067 501 3 0.0 17.7975 10.1 0.0
4066 501 3 0.0 19.0273 10.81 0.0
4065 501 3 0.0 17.7975 8.67999 0.0
4063 501 3 0.0 15.338 10.1 0.0
4062 501 3 0.0 16.5678 10.81 0.0
4061 501 3 0.0 15.338 8.67999 0.0
4058 501 3 0.0 14.1083 10.81 0.0
4116 501 3 0.0 21.4868 12.23 0.0
4112 501 3 0.0 19.0273 12.23 0.0
4108 501 3 0.0 16.5678 12.23 0.0
4104 501 3 0.0 14.1083 12.23 0.0
4119 501 3 0.0 22.7165 14.36 0.0
4117 501 3 0.0 22.7165 12.94 0.0
4115 501 3 0.0 20.257 14.36 0.0
4113 501 3 0.0 20.257 12.94 0.0
4111 501 3 0.0 17.7975 14.36 0.0
4109 501 3 0.0 17.7975 12.94 0.0
4107 501 3 0.0 15.338 14.36 0.0
4105 501 3 0.0 15.338 12.94 0.0
2540 318 2 0.0 18.566 12.5469 8.35379
2542 318 2 0.0 17.8894 10.5282 6.79328
2543 318 2 0.0 16.7445 9.56899 6.35871
2541 318 2 0.0 17.4718 11.5082 7.92907
793 100 1 0.0 21.1038 16.5773 8.80011
2539 318 2 0.0 17.8161 13.687 9.02698
3469 434 2 0.0 23.3146 8.0405 9.03964
1282 161 2 0.0 24.2003 6.08392 4.72911
3662 458 2 0.0 6.04668 13.3565 8.67815
3470 434 2 0.0 22.9152 9.5127 8.84039
3471 434 2 0.0 21.3921 9.5183 8.92085
1283 161 2 0.0 24.0057 7.59878 4.50621
1979 248 2 0.0 24.2622 13.7518 5.25491
3660 458 2 0.0 32.1413 13.0037 8.88067
1977 248 1 0.0 25.2688 11.9623 3.93342
1978 248 2 0.0 24.7823 13.3281 3.8868
29 4 2 0.0 5.00552 9.50711 3.70615
26 4 2 0.0 30.1193 11.1588 3.87686
28 4 2 0.0 32.522 10.67 3.53587
25 4 1 0.0 28.6893 10.6734 3.88891
27 4 2 0.0 31.1195 10.1389 3.48081
3659 458 2 0.0 30.6885 12.9035 8.29253
4042 501 3 0.0 31.3248 6.54999 0.0
4038 501 3 0.0 28.8653 6.54999 0.0
4034 501 3 0.0 26.4058 6.54999 0.0
4030 501 3 0.0 23.9463 6.54999 0.0
4088 501 3 0.0 31.3248 7.96999 0.0
4084 501 3 0.0 28.8653 7.96999 0.0
4080 501 3 0.0 26.4058 7.96999 0.0
4076 501 3 0.0 23.9463 7.96999 0.0
4087 501 3 0.0 30.0951 10.1 0.0
4086 501 3 0.0 31.3248 10.81 0.0
4085 501 3 0.0 30.0951 8.67999 0.0
4083 501 3 0.0 27.6356 10.1 0.0
4082 501 3 0.0 28.8653 10.81 0.0
4081 501 3 0.0 27.6356 8.67999 0.0
4079 501 3 0.0 25.1761 10.1 0.0
4078 501 3 0.0 26.4058 10.81 0.0
4077 501 3 0.0 25.1761 8.67999 0.0
4074 501 3 0.0 23.9463 10.81 0.0
4132 501 3 0.0 31.3248 12.23 0.0
4128 501 3 0.0 28.8653 12.23 0.0
4124 501 3 0.0 26.4058 12.23 0.0
4120 501 3 0.0 23.9463 12.23 0.0
4131 501 3 0.0 30.0951 14.36 0.0
4129 501 3 0.0 30.0951 12.94 0.0
4127 501 3 0.0 27.6356 14.36 0.0
4125 501 3 0.0 27.6356 12.94 0.0
4123 501 3 0.0 25.1761 14.36 0.0
4121 501 3 0.0 25.1761 12.94 0.0
1268 159 2 0.0 29.8733 15.1653 4.88924
1870 234 2 0.0 29.4777 7.2043 7.4428
1265 159 1 0.0 27.1238 16.5177 4.40847
1267 159 2 0.0 28.7031 14.5262 4.13357
3661 458 2 0.0 4.72434 13.5886 7.99499
4253 501 3 0.0 25.1761 25.72 0.0
1270 159 2 0.0 32.0664 16.1932 4.47087
1980 248 2 0.0 23.6662 15.1576 5.11494
3658 458 2 0.0 29.5084 12.0552 8.90246
1703 213 2 0.0 10.9966 15.4693 4.14324
1702 213 2 0.0 12.3162 14.6556 4.16373
1271 159 2 0.0 32.9116 16.9247 3.48804
1704 213 1 0.0 9.77613 14.599 3.81654
1272 159 1 0.0 5.86448 16.9503 3.94892
2507 314 2 0.0 13.2535 15.9611 7.84523
1177 148 1 0.0 8.2536 21.0193 4.2781
1178 148 2 0.0 8.34255 19.6241 5.0458
4098 501 3 0.0 11.6488 15.07 0.0
4094 501 3 0.0 9.18926 15.07 0.0
4090 501 3 0.0 6.72975 15.07 0.0
4145 501 3 0.0 12.8785 17.2 0.0
4144 501 3 0.0 11.6488 16.49 0.0
4141 501 3 0.0 10.419 17.2 0.0
4140 501 3 0.0 9.18926 16.49 0.0
4137 501 3 0.0 7.95951 17.2 0.0
4136 501 3 0.0 6.72975 16.49 0.0
4133 501 3 0.0 5.5 17.2 0.0
4147 501 3 0.0 12.8785 18.62 0.0
4143 501 3 0.0 10.419 18.62 0.0
4142 501 3 0.0 11.6488 19.33 0.0
4139 501 3 0.0 7.95951 18.62 0.0
4138 501 3 0.0 9.18926 19.33 0.0
4135 501 3 0.0 5.5 18.62 0.0
4134 501 3 0.0 6.72975 19.33 0.0
4180 501 3 0.0 6.72975 20.75 0.0
4184 501 3 0.0 9.18926 20.75 0.0
4188 501 3 0.0 11.6488 20.75 0.0
4189 501 3 0.0 12.8785 21.46 0.0
4185 501 3 0.0 10.419 21.46 0.0
4181 501 3 0.0 7.95951 21.46 0.0
4177 501 3 0.0 5.5 21.46 0.0
1179 148 2 0.0 8.45691 19.6732 6.55256
1180 148 2 0.0 9.57684 20.6296 7.05244
1181 148 2 0.0 9.44937 21.0912 8.53343
3561 446 1 0.0 4.59857 24.2826 3.87696
3562 446 2 0.0 4.53566 22.8751 3.30751
1182 148 2 0.0 10.1923 20.1505 9.35044
2508 314 2 0.0 11.8317 15.7904 8.41358
1701 213 2 0.0 13.5288 15.5556 4.1328
2691 337 2 0.0 12.8883 22.1613 5.1248
313 40 1 0.0 23.7158 26.4164 8.01722
2597 325 2 0.0 32.8857 19.1374 9.14319
4263 501 3 0.0 30.0951 27.1399 0.0
2506 314 2 0.0 14.1117 17.0128 8.6794
3745 469 1 0.0 19.128 4.66502 9.28515
2505 314 1 0.0 15.5868 16.8265 8.46153
1697 213 1 0.0 18.4959 15.3109 3.38203
1700 213 2 0.0 14.7993 14.7213 3.98108
1699 213 2 0.0 16.0735 15.499 3.60701
1698 213 2 0.0 17.3058 14.6068 3.94942
2689 337 1 0.0 13.2355 19.7241 4.67148
4114 501 3 0.0 21.4868 15.07 0.0
4110 501 3 0.0 19.0273 15.07 0.0
4106 501 3 0.0 16.5678 15.07 0.0
4102 501 3 0.0 14.1083 15.07 0.0
4161 501 3 0.0 22.7165 17.2 0.0
4160 501 3 0.0 21.4868 16.49 0.0
4157 501 3 0.0 20.257 17.2 0.0
4156 501 3 0.0 19.0273 16.49 0.0
4153 501 3 0.0 17.7975 17.2 0.0
4152 501 3 0.0 16.5678 16.49 0.0
4149 501 3 0.0 15.338 17.2 0.0
4148 501 3 0.0 14.1083 16.49 0.0
4163 501 3 0.0 22.7165 18.62 0.0
4159 501 3 0.0 20.257 18.62 0.0
4158 501 3 0.0 21.4868 19.33 0.0
4155 501 3 0.0 17.7975 18.62 0.0
4154 501 3 0.0 19.0273 19.33 0.0
4151 501 3 0.0 15.338 18.62 0.0
4150 501 3 0.0 16.5678 19.33 0.0
4146 501 3 0.0 14.1083 19.33 0.0
4192 501 3 0.0 14.1083 20.75 0.0
4196 501 3 0.0 16.5678 20.75 0.0
4200 501 3 0.0 19.0273 20.75 0.0
4204 501 3 0.0 21.4868 20.75 0.0
4205 501 3 0.0 22.7165 21.46 0.0
4201 501 3 0.0 20.257 21.46 0.0
4197 501 3 0.0 17.7975 21.46 0.0
4193 501 3 0.0 15.338 21.46 0.0
2690 337 2 0.0 12.2405 20.8175 4.93425
1984 248 1 0.0 22.4429 19.2575 3.67895
1983 248 2 0.0 22.9544 17.7828 3.65737
320 40 1 0.0 20.0193 20.0536 7.05775
319 40 2 0.0 19.3901 20.9943 8.15057
1185 149 1 0.0 16.9935 19.6722 3.86356
1982 248 2 0.0 21.9835 16.735 4.04024
1186 149 2 0.0 18.0964 20.6519 3.6586
316 40 2 0.0 21.342 23.4373 9.00746
2596 325 2 0.0 31.6236 18.6594 8.5689
4260 501 3 0.0 28.8653 25.01 0.0
1269 159 2 0.0 30.7386 15.917 3.83734
3563 446 2 0.0 31.7911 22.0688 3.85136
1981 248 2 0.0 22.471 15.2921 4.22993
886 111 2 0.0 25.8995 17.0915 8.1971
2593 325 1 0.0 28.789 19.051 9.48006
2594 325 2 0.0 29.3411 19.5138 8.20923
2595 325 2 0.0 30.7592 19.9643 8.36559
888 111 1 0.0 24.5149 19.0516 7.50711
887 111 2 0.0 24.5064 17.6023 7.8469
3568 446 1 0.0 27.0702 21.2025 3.82741
1266 159 2 0.0 27.9017 15.5785 3.42841
3565 446 2 0.0 30.7283 20.0414 4.13391
4130 501 3 0.0 31.3248 15.07 0.0
4126 501 3 0.0 28.8653 15.07 0.0
4122 501 3 0.0 26.4058 15.07 0.0
4118 501 3 0.0 23.9463 15.07 0.0
4176 501 3 0.0 31.3248 16.49 0.0
4173 501 3 0.0 30.0951 17.2 0.0
4172 501 3 0.0 28.8653 16.49 0.0
4169 501 3 0.0 27.6356 17.2 0.0
4168 501 3 0.0 26.4058 16.49 0.0
4165 501 3 0.0 25.1761 17.2 0.0
4164 501 3 0.0 23.9463 16.49 0.0
4175 501 3 0.0 30.0951 18.62 0.0
4167 501 3 0.0 25.1761 18.62 0.0
4174 501 3 0.0 31.3248 19.33 0.0
4166 501 3 0.0 26.4058 19.33 0.0
4171 501 3 0.0 27.6356 18.62 0.0
4170 501 3 0.0 28.8653 19.33 0.0
4162 501 3 0.0 23.9463 19.33 0.0
4208 501 3 0.0 23.9463 20.75 0.0
4220 501 3 0.0 31.3248 20.75 0.0
4216 501 3 0.0 28.8653 20.75 0.0
4217 501 3 0.0 30.0951 21.46 0.0
4213 501 3 0.0 27.6356 21.46 0.0
4212 501 3 0.0 26.4058 20.75 0.0
4209 501 3 0.0 25.1761 21.46 0.0
3564 446 2 0.0 31.9477 20.6046 3.43639
3567 446 2 0.0 28.3844 20.6704 4.43545
3566 446 2 0.0 29.5073 20.5678 3.40254
885 111 2 0.0 26.1114 15.5711 8.35521
3160 395 1 0.0 13.4521 24.1616 8.91869
3344 418 1 0.0 4.8528 23.4174 8.27321
4206 501 3 0.0 23.9463 23.59 0.0
4210 501 3 0.0 26.4058 23.59 0.0
1882 236 2 0.0 7.91809 25.3478 5.35312
1881 236 1 0.0 8.77424 25.0326 4.1533
1883 236 2 0.0 7.20042 26.6571 5.1871
1884 236 2 0.0 6.33936 26.9986 6.34053
1885 236 2 0.0 5.83553 28.4099 6.31497
3729 467 1 0.0 10.9803 27.0902 7.52011
3731 467 2 0.0 9.29202 27.7351 9.30754
682 86 2 0.0 10.0476 29.9799 3.74848
681 86 1 0.0 10.4029 28.4874 3.87647
1886 236 2 0.0 5.32883 28.6942 4.89494
315 40 2 0.0 22.4629 24.1741 8.13476
4191 501 3 0.0 12.8785 22.88 0.0
4187 501 3 0.0 10.419 22.88 0.0
4186 501 3 0.0 11.6488 23.59 0.0
4183 501 3 0.0 7.95951 22.88 0.0
4182 501 3 0.0 9.18926 23.59 0.0
4179 501 3 0.0 5.5 22.88 0.0
4178 501 3 0.0 6.72975 23.59 0.0
4233 501 3 0.0 12.8785 25.72 0.0
4232 501 3 0.0 11.6488 25.01 0.0
4229 501 3 0.0 10.419 25.72 0.0
4228 501 3 0.0 9.18926 25.01 0.0
4225 501 3 0.0 7.95951 25.72 0.0
4224 501 3 0.0 6.72975 25.01 0.0
4221 501 3 0.0 5.5 25.72 0.0
4235 501 3 0.0 12.8785 27.1399 0.0
4231 501 3 0.0 10.419 27.1399 0.0
4227 501 3 0.0 7.95951 27.1399 0.0
4223 501 3 0.0 5.5 27.1399 0.0
4230 501 3 0.0 11.6488 27.8499 0.0
4226 501 3 0.0 9.18926 27.8499 0.0
4222 501 3 0.0 6.72975 27.8499 0.0
4276 501 3 0.0 11.6488 29.2699 0.0
4272 501 3 0.0 9.18926 29.2699 0.0
4268 501 3 0.0 6.72975 29.2699 0.0
4277 501 3 0.0 12.8785 29.9799 0.0
4273 501 3 0.0 10.419 29.9799 0.0
4269 501 3 0.0 7.95951 29.9799 0.0
4265 501 3 0.0 5.5 29.9799 0.0
3730 467 2 0.0 10.5307 28.156 8.56187
2695 337 2 0.0 13.6611 26.4172 4.6703
1887 236 2 0.0 32.8746 29.9478 4.80583
2694 337 2 0.0 14.0019 24.9117 4.89121
3343 418 2 0.0 31.8382 23.6073 8.40349
1192 149 1 0.0 19.2568 28.1913 3.6204
3976 497 1 0.0 17.5712 25.895 7.33169
2692 337 2 0.0 13.375 22.688 3.78264
2693 337 2 0.0 13.3006 24.2396 3.65414
697 88 1 0.0 15.313 29.209 7.11082
1187 149 2 0.0 17.517 22.0959 3.66512
2696 337 1 0.0 14.5244 27.1521 3.6974
1188 149 2 0.0 18.5866 23.1483 3.85409
1191 149 2 0.0 18.3131 27.0547 3.78765
1190 149 2 0.0 18.8731 25.6988 3.57833
1189 149 2 0.0 17.9657 24.4961 3.70089
4207 501 3 0.0 22.7165 22.88 0.0
4203 501 3 0.0 20.257 22.88 0.0
4202 501 3 0.0 21.4868 23.59 0.0
4199 501 3 0.0 17.7975 22.88 0.0
4198 501 3 0.0 19.0273 23.59 0.0
4195 501 3 0.0 15.338 22.88 0.0
4194 501 3 0.0 16.5678 23.59 0.0
4190 501 3 0.0 14.1083 23.59 0.0
4249 501 3 0.0 22.7165 25.72 0.0
4248 501 3 0.0 21.4868 25.01 0.0
4245 501 3 0.0 20.257 25.72 0.0
4244 501 3 0.0 19.0273 25.01 0.0
4241 501 3 0.0 17.7975 25.72 0.0
4240 501 3 0.0 16.5678 25.01 0.0
4237 501 3 0.0 15.338 25.72 0.0
4236 501 3 0.0 14.1083 25.01 0.0
4251 501 3 0.0 22.7165 27.1399 0.0
4247 501 3 0.0 20.257 27.1399 0.0
4243 501 3 0.0 17.7975 27.1399 0.0
4239 501 3 0.0 15.338 27.1399 0.0
4246 501 3 0.0 21.4868 27.8499 0.0
4242 501 3 0.0 19.0273 27.8499 0.0
4238 501 3 0.0 16.5678 27.8499 0.0
4234 501 3 0.0 14.1083 27.8499 0.0
4292 501 3 0.0 21.4868 29.2699 0.0
4288 501 3 0.0 19.0273 29.2699 0.0
4284 501 3 0.0 16.5678 29.2699 0.0
4280 501 3 0.0 14.1083 29.2699 0.0
4293 501 3 0.0 22.7165 29.9799 0.0
4289 501 3 0.0 20.257 29.9799 0.0
4285 501 3 0.0 17.7975 29.9799 0.0
4281 501 3 0.0 15.338 29.9799 0.0
3974 497 2 0.0 19.2347 27.6763 8.15596
3972 497 2 0.0 20.8935 29.3926 8.65801
3975 497 2 0.0 17.8889 27.0119 8.38746
350 44 2 0.0 22.9727 24.9389 4.47915
348 44 2 0.0 22.7527 27.3624 4.23636
3973 497 2 0.0 19.5543 28.8107 9.09855
352 44 1 0.0 23.1338 22.4136 4.7182
3970 497 2 0.0 22.1115 30.2405 6.57494
3971 497 2 0.0 20.8011 29.7562 7.15398
314 40 2 0.0 22.6149 25.6136 8.71282
1198 150 2 0.0 25.9941 23.0133 9.23484
1199 150 2 0.0 27.3854 23.3632 8.70079
4211 501 3 0.0 25.1761 22.88 0.0
2544 318 1 0.0 16.3891 8.58182 7.41782
347 44 2 0.0 23.3326 28.5748 3.52514
4256 501 3 0.0 26.4058 25.01 0.0
349 44 2 0.0 23.7193 26.1819 4.04305
351 44 2 0.0 23.9253 23.6764 4.46009
4215 501 3 0.0 27.6356 22.88 0.0
4264 501 3 0.0 31.3248 25.01 0.0
1327 166 2 0.0 29.0133 25.3412 4.2824
4308 501 3 0.0 31.3248 29.2699 0.0
4305 501 3 0.0 30.0951 29.9799 0.0
4252 501 3 0.0 23.9463 25.01 0.0
4219 501 3 0.0 30.0951 22.88 0.0
1325 166 2 0.0 29.1836 27.823 3.98965
4254 501 3 0.0 26.4058 27.8499 0.0
4304 501 3 0.0 28.8653 29.2699 0.0
346 44 2 0.0 24.5967 29.1329 4.20593
1200 150 1 0.0 27.6452 22.8238 7.31665
4257 501 3 0.0 27.6356 25.72 0.0
4261 501 3 0.0 30.0951 25.72 0.0
1326 166 2 0.0 29.121 26.6606 4.96571
4218 501 3 0.0 31.3248 23.59 0.0
4259 501 3 0.0 27.6356 27.1399 0.0
4296 501 3 0.0 23.9463 29.2699 0.0
345 44 1 0.0 25.0066 30.4503 3.50203
1328 166 1 0.0 27.6197 25.212 3.68805
1323 166 2 0.0 29.0265 30.2763 3.75072
4255 501 3 0.0 25.1761 27.1399 0.0
4300 501 3 0.0 26.4058 29.2699 0.0
4214 501 3 0.0 28.8653 23.59 0.0
1324 166 2 0.0 28.5009 29.1047 4.58285
4297 501 3 0.0 25.1761 29.9799 0.0
4301 501 3 0.0 27.6356 29.9799 0.0
4250 501 3 0.0 23.9463 27.8499 0.0
4262 501 3 0.0 31.3248 27.8499 0.0
514 65 2 0.0 13.6635 11.0235 8.55779
698 88 2 0.0 14.6144 30.16 8.13658
317 40 2 0.0 21.6006 21.9322 9.14108
318 40 2 0.0 20.3424 21.1733 9.32772
2509 314 2 0.0 11.8089 14.7823 9.52042
2448 306 1 0.0 24.277 6.08033 14.1724
2446 306 2 0.0 25.3323 8.31986 14.8168
2447 306 2 0.0 24.527 7.50114 13.7611
430 54 2 0.0 20.649 29.7885 28.9402
3688 461 1 0.0 11.9365 13.851 18.8894
513 65 1 0.0 14.1952 11.115 9.9612
678 85 2 0.0 13.5348 29.7684 38.3728
233 30 1 0.0 16.2436 11.3223 14.5279
234 30 2 0.0 16.0578 12.1889 15.7006
337 43 1 0.0 9.51854 11.9766 16.9768
339 43 2 0.0 7.336 13.3101 17.1876
237 30 2 0.0 16.9656 14.4616 17.6978
235 30 2 0.0 16.6047 13.5177 15.4543
236 30 2 0.0 16.017 14.4257 16.4834
2538 318 2 0.0 16.9851 13.1566 10.1746
3553 445 1 0.0 15.6083 29.9441 41.3673
2441 306 1 0.0 29.8863 8.41983 12.1794
2442 306 2 0.0 28.3408 8.69325 11.9824
2443 306 2 0.0 27.7362 9.19705 13.2476
2444 306 2 0.0 26.3726 9.80791 13.0572
2445 306 2 0.0 25.5069 9.76179 14.3602
338 43 2 0.0 8.0114 11.8781 17.1447
340 43 2 0.0 5.84284 13.2432 16.9263
677 85 2 0.0 12.6806 28.6256 39.0059
3472 434 1 0.0 21.0114 8.71414 10.1541
3685 461 2 0.0 10.3682 16.9424 16.9933
3686 461 2 0.0 11.5094 15.9871 17.2471
3687 461 2 0.0 10.9696 15.0255 18.3512
341 43 2 0.0 5.27564 14.6383 17.0853
342 43 2 0.0 5.91375 15.6201 16.1336
3684 461 2 0.0 10.0286 17.9417 18.1887
123 16 2 0.0 21.6815 30.51 35.9446
2512 314 1 0.0 9.60715 13.9247 12.4237
2511 314 2 0.0 10.6418 13.9283 11.3881
2510 314 2 0.0 10.5155 15.0157 10.3685
344 43 1 0.0 5.63189 18.0572 15.3961
343 43 2 0.0 5.07195 16.9133 16.2834
2600 325 1 0.0 7.31502 17.3964 11.2416
3683 461 2 0.0 8.56421 18.3124 18.0989
3681 461 1 0.0 6.78853 19.4708 19.1767
2599 325 2 0.0 6.58413 18.439 10.3583
3682 461 2 0.0 8.29056 19.4138 18.945
1184 148 1 0.0 11.1509 19.9418 11.6356
2273 285 1 0.0 7.01706 22.3025 12.72
2598 325 2 0.0 5.19381 17.9947 9.81501
3833 480 1 0.0 11.2989 20.7986 15.7571
2274 285 2 0.0 8.20693 22.2889 13.6231
3834 480 2 0.0 12.3862 21.7076 16.2527
1249 157 1 0.0 22.2213 12.1325 16.1521
1250 157 2 0.0 22.5641 12.7382 17.4835
2537 318 1 0.0 16.5067 14.3289 11.046
798 100 2 0.0 22.2828 18.9309 13.8595
799 100 2 0.0 22.9047 17.8993 14.829
796 100 2 0.0 20.9351 17.124 12.7758
797 100 2 0.0 20.8577 18.4554 13.5827
795 100 2 0.0 20.9813 17.3934 11.2193
1509 189 2 0.0 18.0604 20.9769 16.2293
1508 189 2 0.0 19.5882 21.2754 16.5465
1620 203 2 0.0 16.2891 20.2024 12.0765
1621 203 2 0.0 16.7148 18.937 12.8736
1623 203 2 0.0 14.5301 18.0161 13.7468
1622 203 2 0.0 15.8006 17.7095 13.0196
1624 203 1 0.0 13.5965 16.7617 13.9083
1507 189 2 0.0 20.234 22.2005 15.4874
1506 189 2 0.0 21.6632 22.5899 15.8868
1505 189 1 0.0 22.4824 23.3358 14.8166
1619 203 2 0.0 17.3413 21.3353 12.2519
1251 157 2 0.0 21.2827 13.3364 18.0912
1510 189 2 0.0 17.4659 20.0964 17.2897
676 85 2 0.0 11.2339 29.1183 39.3451
3465 434 1 0.0 25.8724 5.19029 10.95
1511 189 2 0.0 16.1043 20.5051 17.8664
800 100 1 0.0 22.1903 17.9913 16.2381
1926 241 2 0.0 29.2367 16.3499 16.7576
1928 241 1 0.0 28.2649 16.6357 19.0147
1927 241 2 0.0 28.249 17.1216 17.5965
1925 241 2 0.0 29.2884 16.8568 15.2799
882 111 2 0.0 25.1184 13.1941 11.4309
1924 241 2 0.0 30.1988 16.0843 14.3565
1923 241 2 0.0 30.3773 16.822 13.0012
3338 418 2 0.0 30.9913 22.3193 14.7124
3337 418 1 0.0 32.2146 23.0725 15.2794
3339 418 2 0.0 31.0287 21.8141 13.2658
1194 150 2 0.0 26.2786 20.2532 12.9213
1195 150 2 0.0 25.3093 21.4368 12.8082
3340 418 2 0.0 31.0108 22.96 12.2516
1922 241 2 0.0 30.0299 15.8134 11.8273
1193 150 1 0.0 26.6107 19.8482 14.302
1921 241 1 0.0 30.7751 14.4669 11.7351
3978 498 2 0.0 27.4995 22.3251 17.6799
3979 498 2 0.0 27.1649 23.7007 17.0105
3977 498 1 0.0 26.3842 21.3333 17.4749
883 111 2 0.0 25.555 13.6239 9.97316
3980 498 2 0.0 27.0587 23.5891 15.5181
3341 418 2 0.0 31.2815 22.5478 10.8162
2586 324 2 0.0 9.99673 29.9072 18.0202
2275 285 2 0.0 8.82735 23.5813 14.0292
3158 395 2 0.0 12.9777 25.6983 10.8407
2276 285 2 0.0 8.48397 24.1888 15.3416
3835 480 2 0.0 13.4266 21.8959 15.177
2277 285 2 0.0 9.31745 25.3641 15.933
3157 395 2 0.0 12.7951 25.6706 12.3129
3836 480 2 0.0 14.3861 23.1422 15.4319
2279 285 2 0.0 7.54097 26.1813 17.531
2278 285 2 0.0 8.93296 25.5182 17.3429
3156 395 2 0.0 12.2912 26.9677 12.9838
3342 418 2 0.0 31.3561 23.7896 9.9208
3154 395 2 0.0 12.3887 29.508 12.9989
3735 467 2 0.0 6.80123 28.1827 13.5637
3155 395 2 0.0 13.0377 28.23 12.4541
3734 467 2 0.0 8.05355 28.73 12.8861
3736 467 1 0.0 6.11605 29.1586 14.5129
3733 467 2 0.0 8.44378 27.9236 11.5776
2585 324 1 0.0 10.4699 29.2773 16.7969
3159 395 2 0.0 12.8831 24.2372 10.3687
2280 285 1 0.0 7.0278 25.9608 18.968
80 10 1 0.0 29.2347 30.4224 22.0716
3837 480 2 0.0 13.6956 24.5298 15.4372
1340 168 2 0.0 27.9741 28.1351 45.2341
3838 480 2 0.0 14.6788 25.6099 15.932
3839 480 2 0.0 13.9642 26.9542 16.1945
1618 203 2 0.0 16.9844 22.4718 11.3703
1617 203 1 0.0 17.3871 23.8548 11.9723
1386 174 2 0.0 20.3075 26.3938 13.2101
1385 174 1 0.0 21.271 26.86 12.1135
3105 389 1 0.0 16.7612 28.0397 13.0614
3106 389 2 0.0 16.8309 29.0442 11.9902
1387 174 2 0.0 20.7581 26.958 14.4941
3840 480 1 0.0 14.8888 28.0835 16.4658
1388 174 2 0.0 19.7337 26.6753 15.4944
1390 174 2 0.0 21.5207 26.3308 17.2072
3108 389 2 0.0 18.8509 30.2725 13.0727
911 114 2 0.0 24.9803 27.7475 39.0057
1183 148 2 0.0 10.0851 20.6236 10.7724
1389 174 2 0.0 20.2782 27.1891 16.8504
1391 174 2 0.0 22.236 26.8742 18.4234
3004 376 2 0.0 12.524 16.7186 44.1447
675 85 2 0.0 10.8296 28.5862 40.7166
1197 150 2 0.0 26.2625 22.5688 10.6813
1196 150 2 0.0 24.9989 21.9813 11.4512
2529 317 1 0.0 31.0059 27.5629 15.2372
1339 168 2 0.0 26.9449 27.068 45.1908
1338 168 2 0.0 25.6161 27.5864 44.7426
1636 205 2 0.0 23.9693 29.8746 11.1136
2588 324 2 0.0 7.99331 30.1312 19.5017
1637 205 2 0.0 24.7042 28.4526 11.0916
1638 205 2 0.0 26.2188 28.5804 11.1953
1639 205 2 0.0 26.8831 27.0914 11.0961
1640 205 1 0.0 28.2113 26.9594 11.7171
3982 498 2 0.0 26.067 25.9393 15.4141
3981 498 2 0.0 26.9641 24.8986 14.7573
3983 498 2 0.0 26.1129 27.3351 14.7282
3984 498 1 0.0 24.9481 28.2594 15.2745
2530 317 2 0.0 31.6747 27.5861 16.6157
1464 183 1 0.0 28.1392 30.1876 17.7081
1515 190 2 0.0 7.73594 10.2046 21.4618
1516 190 2 0.0 7.56178 11.6125 20.8087
1514 190 2 0.0 7.06005 9.0537 20.8565
1513 190 1 0.0 7.66112 7.65833 21.0135
1517 190 2 0.0 8.11082 12.7484 21.6475
238 30 2 0.0 16.4202 15.3959 18.7373
3024 378 1 0.0 26.4076 12.3191 22.1057
3023 378 2 0.0 24.9155 12.7766 22.0118
3022 378 2 0.0 24.3974 13.2746 23.37
3019 378 2 0.0 22.0821 14.2647 25.3949
3018 378 2 0.0 20.8627 14.8294 26.07
1553 195 1 0.0 18.2067 10.8908 20.9759
1554 195 2 0.0 19.6181 10.9251 20.3374
1556 195 2 0.0 20.5765 10.715 22.6201
1555 195 2 0.0 20.6659 10.2618 21.2017
1557 195 2 0.0 21.6035 9.94733 23.511
1558 195 2 0.0 21.4707 10.343 24.9439
3021 378 2 0.0 23.1431 14.0 22.9958
3020 378 2 0.0 22.3768 14.9205 24.0253
1559 195 2 0.0 22.2419 9.31979 25.7305
16 2 1 0.0 26.4999 12.7141 27.0991
1518 190 2 0.0 7.99409 14.0835 20.8718
1520 190 1 0.0 7.56792 14.7091 23.1309
1519 190 2 0.0 8.23608 15.2495 21.8716
2190 274 2 0.0 7.67443 21.9037 24.8834
2188 274 2 0.0 9.38926 20.6194 23.6902
2187 274 2 0.0 10.4329 21.7588 23.5126
2186 274 2 0.0 10.224 22.8458 22.3224
2185 274 1 0.0 10.7156 22.3258 21.0167
1743 218 2 0.0 11.9882 16.3483 29.3894
1742 218 2 0.0 11.9554 17.7957 29.0358
2189 274 2 0.0 7.93463 21.0945 23.6509
1741 218 2 0.0 11.0174 18.0194 27.9093
1740 218 2 0.0 10.8349 19.6038 27.8145
1158 145 2 0.0 33.0032 17.4485 26.6431
1156 145 2 0.0 32.3371 17.3304 24.1364
2192 274 1 0.0 5.4555 22.4613 23.79
2191 274 2 0.0 6.2025 22.0553 25.0592
1739 218 2 0.0 12.1627 20.2246 27.3769
240 30 1 0.0 15.6471 15.667 21.1127