LAMMPS data file via write_data, version 29 Oct 2020, timestep = 300000

2048 atoms
1 atom types

-0.15046025830921295 28.502460258311125 xlo xhi
-0.15046025830921295 28.502460258311125 ylo yhi
-0.15046025830921295 28.502460258311125 zlo zhi

Masses

1 58.933

Atoms # atomic

254 1 1.7352071710092398 2.018444365828748 1.951161941730231 4 2 0
1965 1 3.698261956182809 4.047848040826162 1.6027273177022157 1 0 0
738 1 1.107490465548312 0.32263794929059775 3.526847529870114 1 2 1
792 1 -0.049525667208246915 0.14048456399853643 0.8579661964599719 3 4 1
1050 1 3.6255617240847124 3.69320898701086 4.118848567710649 0 -1 -2
532 1 1.1491170619418094 4.234613553361282 1.938382900362205 0 0 0
1314 1 0.9007126321066763 4.365614054849465 4.274206582873727 -2 0 1
703 1 1.8733552326141534 3.3783004927423725 -0.11406547688546634 1 -2 0
375 1 3.6582540170432636 1.7303293933752493 0.8070226002608328 -2 1 0
395 1 1.986526913960971 2.235814454300665 4.433030164984866 -1 0 2
1522 1 4.314145584271734 1.5874845373362827 3.1548777139084283 3 0 0
528 1 5.695806464137059 3.525114680472733 2.56270184059335 -1 0 -1
746 1 6.12391384677794 1.358971580660066 1.0163656650234845 -1 0 -1
516 1 6.785762436248097 1.5342545572794382 3.2638341685977785 0 2 -1
695 1 5.694414636061478 3.7329993283897456 0.2448821945852993 2 0 1
22 1 7.9501108277973795 3.8060666665866485 3.465925877425366 0 -1 1
508 1 7.769025946505427 3.1816759200380695 0.6741977145434006 0 0 3
1569 1 8.885037758998578 1.4040269502287483 1.785174510988086 -2 -1 0
1949 1 10.526335571733485 0.3716531351587513 2.991750030656822 1 2 2
341 1 9.748277117282326 3.9911270380449784 2.0136654254333424 2 -1 1
1054 1 8.42171804527497 -0.03895896268826925 3.9670352553932124 3 1 1
1739 1 9.594191866449597 2.4153491860856966 4.277686550182893 1 -2 3
808 1 11.601815153449744 2.9178598289714746 2.8313930436956682 -1 1 -1
1794 1 12.019051584979636 1.6388439775212749 1.251188933955921 -2 1 3
845 1 12.114196745106037 4.02289352603862 0.8634581774895542 0 1 1
458 1 10.138372004106433 2.5767254182343637 -0.054121375505440744 -1 0 1
1837 1 13.321704794806761 0.7662651275116514 2.8184004606604116 1 1 1
825 1 14.227519992788691 3.036794562105154 1.330688762462847 -1 0 1
928 1 15.51119320526142 1.541779556440021 2.304841448739589 1 1 0
1998 1 13.886793426479333 2.812558912688654 3.657016966188035 0 2 2
1989 1 14.052941716888006 0.39804231805532064 0.6619443951276099 1 3 1
1497 1 16.21311235107946 4.210953042421451 0.5585264793740208 1 1 1
1919 1 16.250382499004747 3.7319032420940474 2.956673835662929 -1 1 -1
179 1 17.617377442094583 2.5215512949652124 1.5318441858676317 -1 -1 0
61 1 18.06960774821278 2.6230029842182003 3.773397434298788 0 1 1
339 1 17.6820896625473 0.4219003382432762 2.7773311934029525 -1 1 0
308 1 19.75994367296321 1.364887593223045 2.376664521533494 -1 1 -1
484 1 20.033779399994877 3.8010051329148946 0.774077844285262 1 0 1
945 1 17.333997182982912 0.07506974811814363 0.622728702274477 1 0 2
1154 1 19.409623616115784 1.4682146754125478 0.16588533084177826 -2 0 0
753 1 21.9629166167664 -0.05254804879507802 2.7388965941981347 0 2 1
1397 1 24.0873740489648 1.921239026012493 0.46111501208596395 -3 1 0
472 1 23.62265214240698 0.1277619546081899 4.25136713868748 -2 -2 0
985 1 21.643360122671268 1.4926032510439244 0.6268061191172637 2 -2 1
1784 1 21.733254357617195 1.9836667352857722 3.8790121135916564 -1 0 0
1828 1 22.138914447274654 3.3414611917919967 1.5667353240521256 1 0 4
533 1 23.86312007024945 2.508860641479767 2.7361304936724165 0 3 1
430 1 20.702248322588854 4.017344038197756 3.292024143763153 1 1 -2
1906 1 24.135976260754394 4.555879694191526 1.178885079598101 0 -1 -2
334 1 24.085174814952477 0.1595084532069464 1.966087918975162 3 -1 2
65 1 28.176277113761856 2.4027724610768573 2.6046277855610653 1 1 0
1377 1 26.080779697372172 1.9635774954705205 3.6018375352762737 -1 2 1
1332 1 26.17638155776606 3.557931449607306 1.7658819539888007 0 -2 -1
293 1 26.117635741413597 1.2390748229591084 1.3720614350344698 -1 -2 0
971 1 28.430620414077538 2.6556017467302238 0.31617553778986157 -1 0 3
1376 1 2.8076206218513855 5.991581285061133 3.056524960376117 0 0 1
1423 1 2.3080656759042384 8.641141861823922 0.9511237819254319 0 2 3
1975 1 3.13190120057137 8.139635588433366 4.283196579066398 0 -1 1
1041 1 0.7048070481565714 6.779158719834482 4.0425669639913275 1 0 -2
1770 1 0.5867282528452185 6.590350132937436 1.5018057818773933 -1 1 1
39 1 0.9679051089748172 8.836817763401383 2.765203775670973 0 0 0
704 1 2.5265408977991752 6.110211959167073 0.5678237222784915 0 0 0
2007 1 7.166967812562265 5.355121153227855 1.8039341229712804 0 0 2
1226 1 5.009862901300408 6.0886788910076515 0.9458111907187401 0 1 -1
355 1 4.917452433945022 5.562681959996706 3.628383356658815 0 4 -1
1500 1 6.855366658283639 7.615258120334897 2.509554071912711 -1 2 -1
1470 1 3.957308483067961 7.762996526249069 2.1111462074199854 0 -1 1
1748 1 7.45877982963939 8.286927477355542 4.622821828630559 0 1 3
1800 1 6.656486697299938 7.312163667312915 0.08500564385602943 0 -3 1
950 1 8.64334005189918 8.791792059292874 0.9453717895548028 0 2 2
1177 1 8.400552087724362 6.22650940654726 3.9093095958509734 0 0 -1
795 1 10.764664047722148 6.051115813482389 2.503203036554242 1 -1 2
1810 1 9.639559814991948 8.216273166379956 3.111892306461231 3 2 0
2010 1 9.21344683314234 6.531040679988155 0.9406027786545947 -1 1 0
1043 1 10.945343171109904 8.254366581535795 1.1994977148580759 -1 0 3
1246 1 10.412783724464147 4.755680029584076 4.359111258153049 1 1 0
1960 1 12.233124508262117 7.723676769446281 3.2766815762022032 -3 2 1
253 1 12.783804700994395 5.137295762284921 3.236318299031276 1 -3 -2
1781 1 12.767085121464905 6.352554600980399 1.143088254255506 -2 0 0
1820 1 14.27259749436298 7.149779911898198 3.5762974997536645 1 1 2
288 1 14.776806207599982 5.242406070061968 2.140024353492274 0 -2 -1
145 1 14.700770024926593 8.422079423303282 1.9058428651961954 -1 0 -1
1129 1 14.847734548791578 5.131000213704105 4.461710749163362 -1 1 1
1697 1 13.141669088785589 8.497427577160353 0.15809223537726186 1 2 1
1576 1 15.30875334087618 6.566579530178551 0.46308589530390254 -1 1 1
728 1 17.007004965778627 7.864073463508264 1.1923072243786386 1 -2 1
1155 1 18.42596965212943 4.6351559823018 2.1138393502556205 -1 0 1
789 1 18.46224934237632 5.353174991159518 4.305032715057182 0 2 -2
1130 1 16.86932165738384 6.238921307547875 2.844131561325744 1 -1 1
1698 1 16.654533779548082 8.381476745201923 3.575471870492005 -2 1 2
352 1 19.377081978501337 8.284043669911455 4.211291892578972 -1 3 1
1416 1 18.859536759701502 9.042558624973944 2.0956232043012175 -1 -2 2
509 1 19.323471083735345 6.673419503323504 2.503599248120564 0 1 1
639 1 19.27590912471524 7.1851474106626565 0.38103163731239165 1 0 1
783 1 17.82611075755175 5.614865755883577 0.11793865217446625 -1 1 1
1476 1 22.749379546833723 5.348514322193679 2.9180919434521106 -1 -1 2
1981 1 21.687248145677327 7.253179280608528 2.946164127382103 -1 0 0
1279 1 21.60078301478728 8.400413508222814 1.0094270076302327 -1 -1 1
368 1 24.292033949604463 7.364669454631896 3.8080090113413414 0 -1 1
1991 1 23.59629773459186 7.133320211863961 1.386611509759317 -1 1 0
1471 1 21.05942270145297 5.685465546112243 0.9855853970980342 0 -1 1
761 1 23.367587777346063 9.329710104843375 2.5404853414977553 -1 0 2
1728 1 25.021941337364243 4.679249123048347 3.7972282247519926 0 2 1
1162 1 27.630441439881153 5.095671862270538 2.806950627161739 0 2 0
187 1 28.291368622516156 9.231889165507202 0.7015239548227061 1 -3 1
670 1 27.566999765956293 7.726877950110246 2.507398603499291 0 -1 2
818 1 25.698785423785846 6.038025672038618 1.8601343579386382 -1 1 -1
1812 1 25.42017218827774 8.600703262956221 1.7543539336194867 -2 -2 1
309 1 26.94485488230892 7.220737133159122 0.18396153270460647 -1 1 1
1001 1 26.441933499802616 8.153872805122438 4.198544138832096 -1 -1 -1
2002 1 27.617387339625115 5.302218135317172 0.507581735484016 1 2 -1
170 1 0.9896791806811032 10.894065061265891 1.6880701828725357 0 -2 1
267 1 1.659368591326938 12.71905035662958 2.841395691828299 0 -3 2
882 1 1.5224731451638225 12.678646982547194 0.47609559978686544 -1 -1 3
1163 1 -0.023599378116493597 11.57654225105324 4.085369029085488 1 1 1
664 1 3.075669044601461 10.498356115590525 2.768839653574955 2 1 -1
1801 1 3.591104526703803 12.0336513021114 1.247580163890186 1 -1 0
1994 1 3.8349850087516315 12.48110337192241 3.6078944655659346 -1 -2 -2
184 1 4.515030063020394 9.711257165447917 0.48230207892374743 1 -1 1
512 1 6.581297596235663 9.678970695613131 0.984736017495329 2 0 0
1692 1 5.4110160632939905 9.420839104110508 3.071721214771297 2 1 0
603 1 5.725104862267073 11.662664545874776 2.1580726556328313 -1 0 0
1561 1 4.5951689935395725 13.913106877611792 1.0066426154048924 -1 1 0
2035 1 5.76994103269022 13.759882618360312 3.4703199768789874 0 0 1
255 1 7.784762864791521 10.182022738223946 2.839062509441902 0 0 1
1098 1 7.7535119711271125 12.477133234735618 3.336257718996493 -2 0 2
1977 1 7.713263374378447 12.411669380965668 0.8208037684945186 1 1 0
589 1 12.100669758150504 14.071127635139419 3.1687771797600415 0 1 -2
926 1 9.568691536094937 10.852526473132537 1.4593148642779836 3 0 2
171 1 9.780889274894847 12.988432548221827 2.8305871618981167 0 -1 2
1290 1 9.726703454482621 10.994738167336841 3.768564522205542 0 -1 2
918 1 11.50895111163911 12.447078234531489 1.3897878292459902 3 -2 2
132 1 11.594088182149198 10.221344065167191 2.4847799779293145 0 -2 0
1804 1 9.445034792245666 14.081592495846893 0.9606452313509128 1 -2 0
1394 1 11.657987905158087 10.55193559711656 0.1654662114617267 1 3 0
1424 1 14.707967547024825 14.042891664915834 2.713795444537062 -2 1 0
1661 1 13.716382210458523 9.574482472312445 3.480764772022623 0 -2 -1
1210 1 14.048465967168704 13.622684938518603 0.39752502675203905 1 0 3
405 1 13.660955552001203 10.677477970633003 1.1514864507384224 0 0 1
443 1 13.257272923776046 11.86673062582398 3.34528611047536 3 -1 0
999 1 15.705211289557035 10.983869002582768 3.811266326896623 0 -1 1
178 1 15.40790216343403 12.189717893767401 1.6350227182372625 -1 1 -1
996 1 15.79992228634928 13.239152414428167 4.582041960477063 -1 1 -1
2040 1 17.424528440292377 13.092581493258733 2.886558250737775 0 0 1
705 1 16.575316383997425 10.017729665864788 1.6641973941173869 1 -2 -1
1908 1 18.355838338738252 10.91823956996867 3.2440340464037685 1 1 0
369 1 19.37933818915625 13.254047237160428 3.7670047861513 -2 3 1
412 1 17.92217373216713 12.285146952228072 0.6310896903686717 -1 3 -1
1243 1 19.842504024744887 10.361201159171452 0.5029248856359919 -1 2 2
1491 1 16.429439677084627 13.946643986381021 0.5372763438334216 1 4 3
1307 1 21.141364163059613 9.588908817732573 3.0380631029907637 0 1 2
94 1 20.39958051287895 11.861675122829384 2.1434450204933273 0 1 0
1694 1 21.4854164940603 12.605570019509008 4.474166310875801 0 0 2
485 1 22.36566027574126 10.703827484667023 1.3665663399866017 -1 0 4
224 1 23.15042080129196 12.503925068184024 3.018848724091724 -1 0 0
944 1 22.725025387110176 13.150993792451782 0.6846199217415316 -1 -1 -1
1606 1 22.582017844450164 10.474111177088211 4.60811460141601 -2 0 -1
969 1 24.74886833836155 9.413974375924463 4.480743777038926 0 4 2
347 1 27.64310289594154 13.828633618668235 3.0201633255124194 -1 1 -1
1421 1 27.21490399270894 10.129741547102094 3.034574761674265 -2 -2 0
1884 1 27.54643926186497 11.828829792300048 1.1249858724294042 -2 1 2
1779 1 24.740197698145426 10.92318722315746 1.514444771682602 0 -1 0
514 1 25.53641942547023 11.598320885691951 3.725268953082299 -1 -2 1
564 1 25.757531100241614 13.227050396415914 1.6474364896845213 1 2 1
78 1 25.63712103274077 14.017112235665618 4.11397205249375 0 2 1
574 1 0.5516089363537399 0.5367449434307123 8.47936987934417 1 3 -1
504 1 0.8483146464043798 0.21348424627827833 6.081807694568931 1 1 2
230 1 2.572628513178838 4.256568802637599 5.897436905550019 2 -1 2
1679 1 1.799735200291882 2.187263339698976 7.168862546000461 -2 1 -2
523 1 3.6895525435633156 2.1802344211439646 9.140691634359802 -1 -2 2
868 1 2.7558107485030057 4.099074467392439 8.219089646281184 0 2 0
12 1 3.061939970986932 0.005331703851382069 7.6728841603882945 0 -2 -2
1446 1 3.346978754116199 0.9656742398125493 5.645054267455899 -2 -2 0
787 1 0.1610106466521008 3.7894051747710455 6.5758661724069025 1 -2 0
1349 1 4.151665549338085 2.8239782542369833 6.811294464304718 0 1 -2
933 1 5.887249043265153 3.4012183190789864 4.756916496706268 -1 1 3
1107 1 5.480264267813086 1.2633602548556402 5.3942144964329914 4 1 1
1858 1 5.743341853489812 0.6482250900839531 7.738193032990254 0 1 1
905 1 7.598938100670697 1.8854726211888835 5.415072527436422 -1 1 1
109 1 6.657582002880505 3.2193821216305136 7.3158762221164 0 0 2
1904 1 5.255703370007668 4.372021540826607 8.894077572993814 0 0 3
9 1 8.183859504782323 1.513842542863852 7.872895184279514 -2 0 -1
1172 1 8.976503304836179 4.260589975005168 8.007640172209488 -2 1 0
852 1 11.76810137423697 1.2010008353875108 4.642499535857923 0 2 2
1278 1 10.185734855636099 2.8586211747875527 6.43728718799649 0 2 -1
1678 1 9.76864675223092 0.16989072638058317 5.8312777392244195 2 -1 1
394 1 10.271771913449863 2.022151673005772 9.36070008996436 0 -2 -1
1772 1 11.142107491110444 0.7682990399162696 7.8016382614587565 1 2 -1
863 1 11.781094621287743 3.1575152276959533 8.0802904369047 1 1 1
424 1 8.374639308009291 4.185290874326266 5.750269213692986 -1 -1 1
1022 1 12.197429460212636 3.6051451410613375 5.324165482341726 0 -2 2
1080 1 13.698618929702846 1.190037672346317 5.976201179801532 -1 0 -1
204 1 14.233438031927504 3.412709196135089 6.392894166784247 0 -2 -1
1328 1 13.688837991431697 2.0733860821048786 8.321978720488334 -2 0 1
1826 1 15.76456554239036 1.9426151638385822 7.058911042476014 -2 1 0
1834 1 15.040381675935334 4.352174826759241 8.535642817841715 -2 1 1
883 1 15.759635586858648 -0.030622954947249967 8.530891192167427 2 -1 -1
1774 1 16.008866604115767 1.8338576514577034 4.731514430695691 0 2 2
1285 1 19.995890890483192 1.282909347675246 4.805091492111157 -1 0 2
490 1 17.585366087751655 1.012729844282585 7.7589818391075065 0 2 -1
2020 1 16.75897506950493 4.1905310061478325 5.713643022957542 -1 -2 0
820 1 17.441489779883288 3.499187580923141 8.025367810194377 -1 1 1
1029 1 17.921230199021952 2.1198656040130386 5.911064286912817 1 -2 -1
910 1 19.88385776111395 3.5504254812170033 5.175904622626249 0 -1 -1
390 1 19.800015814455325 0.33456440150807387 7.083602722200856 -2 -2 -2
1200 1 18.06451471865283 0.08127168244259775 4.933749291196832 1 1 1
1528 1 19.90671220273874 2.6834995940942776 7.371910027784481 -1 1 0
1493 1 16.23861301253576 2.0276820068307195 9.389614519738782 0 -1 -1
1211 1 22.672122715857874 3.8562297567591166 4.817698223155604 -2 1 0
397 1 23.950783811578372 2.017582004568706 5.0888284893187485 -4 -1 1
618 1 21.887412381907467 2.0636874686064988 6.14803458078176 -1 3 2
596 1 22.955968382502704 2.548858362110656 8.459381097979984 0 0 1
1311 1 23.22695359635096 0.4931264791231871 7.1071831762213495 0 2 1
1869 1 23.771668530485062 3.7381077626434225 6.900468779483113 0 -1 0
982 1 21.39765285865953 4.2797577377783105 6.839186900553563 1 1 -1
794 1 20.85493979863748 1.135681705485131 9.008825412566097 -1 0 3
392 1 23.6056973510507 0.46578847134814183 9.328423014437202 -2 -3 2
1711 1 28.234681358062858 1.9719235507776744 4.937243827042852 0 -1 -1
1214 1 25.769441359807644 0.12589778977927635 5.247508492636021 2 1 -1
2019 1 25.880792954490317 3.4771014736632946 5.544465596271751 -2 -1 0
289 1 25.504560035024166 3.9094272027227115 8.474542336630709 -1 1 0
1021 1 27.56070317975973 2.0012044139343366 7.4374691456604465 1 2 0
1912 1 25.083348841264353 1.686683085011557 7.165422692251801 -1 1 2
1406 1 26.099072288816185 0.8182619236653293 9.180654477385291 -2 2 0
297 1 2.912614348345002 6.357010023335044 5.528609602025127 2 1 1
1507 1 1.6222942740927577 8.405023524219194 6.294051075855831 4 3 0
613 1 0.7374930019997467 5.907186811109901 6.303535576560415 -2 0 0
1852 1 3.833640010366559 8.602811228983057 6.781197015459588 2 1 2
1982 1 2.7382013007607253 6.506732552759908 7.8350993109081335 0 -1 0
1934 1 3.3749711296443836 8.279608107539893 9.249841236647098 -2 0 0
1971 1 0.8755296851938166 9.026272824041646 8.861074184116934 1 -1 2
1730 1 0.4029408207178714 4.664674775456 8.894078086076222 1 1 -2
661 1 -0.12178656951365951 9.245349347282835 4.8392452374606645 -1 1 3
28 1 6.598140750802736 5.870946569615571 5.278938021086542 2 0 1
1680 1 5.205052842382095 7.882015489418114 5.04880234786188 1 1 0
1020 1 4.7122025388404305 5.17789802296817 6.482153310548548 -1 0 1
777 1 7.090740155053485 5.606151519398809 7.54740374335479 0 -3 1
1352 1 5.122373475686017 7.085974258807329 7.3285062282865825 1 0 0
300 1 5.920678073019281 6.603297710378554 9.27567319481132 1 -2 -2
653 1 7.639640461449972 7.979265198801631 7.344081471172102 1 0 0
1950 1 5.921861447530424 9.04551300261943 8.537452795091264 -1 -2 0
1346 1 9.155947959045777 6.486793039913678 8.550140462566796 -2 0 0
1638 1 8.862850955742154 6.47750531857063 6.2434670920321045 -1 -1 2
1427 1 10.740590240908757 7.0068527207545825 4.927833032643194 2 1 1
1718 1 10.85269290853544 4.9923200437447095 6.717294877043898 0 1 0
870 1 11.038736354257974 7.527819023807064 7.10877241249234 1 0 0
1944 1 9.207204016895192 9.017576633965813 5.792951161925157 0 3 -1
779 1 9.82161307092098 8.872663946908526 8.662598478645082 0 1 0
1844 1 11.532424819393801 5.74135652506587 8.929007289406824 1 -2 1
1584 1 13.060043765745982 5.216781272311387 7.51518631045143 -3 1 1
1990 1 12.764591035888587 5.863105817926978 5.283895114243894 0 2 1
1183 1 13.131992283204077 7.97672020289893 6.4296163255944405 -2 2 0
1618 1 15.229875848728813 8.89787831842426 5.389728790526401 2 -1 1
323 1 14.650148345030352 6.371310056781315 6.425892985255112 0 -1 1
1957 1 14.530760570209205 7.337023879107968 8.58951152253473 1 2 3
492 1 12.372543654318825 8.31900270589076 8.655662038739692 -1 1 2
186 1 16.70416823196395 5.736582048642621 7.724313802661905 -2 1 -1
436 1 18.99345186300809 4.897953837822111 6.836548685959489 -2 -2 -1
1862 1 18.221629579951248 6.2380434689504005 9.283357005335079 0 0 2
356 1 18.80239259344286 7.145412056608927 6.709071958899479 -2 1 -3
1659 1 16.65756867713586 6.62687938685197 5.284143475763499 1 1 0
1980 1 16.663294824703083 8.384766075740108 7.270903679332935 1 3 2
1808 1 20.172924748232834 5.398065881575134 8.55097522136529 -1 1 0
1297 1 17.534367601003236 9.395846747693087 5.395084923058272 0 1 1
2028 1 19.02265061426241 9.09464447177402 8.454404611685352 -1 0 0
691 1 20.535907945409583 5.895328349123703 4.853601953539992 0 0 1
1434 1 22.85253290837054 4.744212207840417 9.093573608926333 2 -1 -1
1386 1 23.020176151108856 5.9143665993876855 5.712904478637591 -1 0 2
684 1 21.889975185011767 8.120081512742576 5.104704518745119 0 1 -1
1475 1 21.392171414701455 6.895713243922322 7.365581021991924 0 2 -1
1413 1 23.52414413587972 7.963115459501173 6.750922797724511 -2 1 -1
755 1 20.358272623367693 9.279390628333267 6.527351928102428 -2 1 0
74 1 22.116610938553567 9.293810107892499 8.234499053154673 0 -1 -1
1460 1 24.274372548290696 9.217719615116605 8.754607224853356 0 -1 1
165 1 24.58000730857305 6.07162316452388 7.975089642811115 -1 2 -3
1581 1 25.54537487001388 6.2920762363366585 5.661472289042115 -1 0 -1
1759 1 27.339943352385056 5.040507944346488 5.153067085727282 -1 0 0
957 1 26.345598751071044 7.978592823301549 8.629415074479734 1 0 -1
121 1 27.03210644249544 5.162935759231048 7.468896091151603 -1 -2 0
1472 1 27.679881903693804 7.309415367360985 5.925708551412134 -1 -1 1
1363 1 28.47796124813442 6.975033440853865 8.368975044028522 -1 1 2
1538 1 25.935486971475417 8.729222153670218 6.5388821057529976 -3 0 2
1714 1 28.11226595993808 9.20989690383281 7.2285211916296355 0 0 0
1843 1 1.9616712626088955 10.12370508516594 4.833571127699699 0 -2 0
280 1 1.9023293951643692 12.349281089878742 5.152095478990434 -1 0 -1
1490 1 2.3061430146383968 10.346537603728814 7.3984983990493856 0 -1 0
88 1 0.46766112571881036 11.136728615984397 6.565747787282303 0 0 -1
710 1 3.7641011311931094 12.56539199050449 6.367448568303418 0 0 -1
1194 1 2.7165331578226657 12.863595883135362 8.257157414652523 1 1 -1
1536 1 0.9087160501042617 11.565320593500148 9.035731359010525 1 0 -2
5 1 7.891153574290431 10.947257061005361 5.177960398563434 -2 -2 0
1788 1 7.2566674800382325 14.133761851043468 5.076918636797007 0 1 0
1502 1 4.337041471959997 10.61472123017049 7.8964118584141545 -1 0 0
595 1 4.30552864235557 10.39050402578541 5.047031774602669 2 -1 1
115 1 6.318396928577528 9.66751541432059 6.1655206370454785 1 -2 -1
332 1 5.949802034621626 12.019371514982593 5.398184354359253 0 0 -1
909 1 6.32101811311526 11.604546881435603 7.7357200965686355 1 1 -1
457 1 4.730040910775371 13.156471982204675 8.637656419614487 -1 2 0
1340 1 7.592678491878597 12.992461102460583 9.342792610523214 1 1 1
199 1 5.619088313318672 14.028779336413567 6.668701140977158 -1 0 0
666 1 11.33915620678581 9.466544222559582 4.70953680083784 2 -1 -1
219 1 8.13884712017481 12.881078879113364 6.935058582763649 0 -1 2
558 1 9.728844731372757 13.538124824864743 4.811448442856147 1 -2 -1
470 1 9.861844585241151 11.3086529502998 5.959783126607799 2 0 1
1259 1 9.813949555960575 11.935119484882792 8.77900412128099 1 1 -2
1712 1 8.282548502274695 10.248799837522132 7.471095845454099 -2 -2 -1
1521 1 10.329476742751806 13.352288661610558 6.972680940206527 1 -1 0
1298 1 11.531425273963738 10.040376192143562 7.009556538677197 -2 0 1
860 1 11.66157462211327 11.974287571534662 5.0743750465556055 1 1 0
1503 1 13.89671039258163 9.711348441617442 7.78795062837986 1 1 1
1289 1 12.303850999043709 12.0935104470447 7.629551038943924 -1 1 1
393 1 13.563837819559119 10.40323769573343 5.564951156536805 1 1 1
328 1 13.85508905305835 12.800814502860968 5.800802371321241 -2 -1 -2
2013 1 14.792536725809283 12.22585502485089 8.039207738248196 -1 2 0
637 1 16.051451991123106 11.205567685350685 6.241725776063731 0 -2 1
1974 1 16.183208117712265 10.377471788600197 8.687160728573227 2 -1 0
432 1 20.010130071877647 13.319473169820778 6.115730140200762 3 0 1
810 1 17.736983429900846 12.040478464767475 5.0583209975572885 0 -1 -1
911 1 18.727946284991898 11.095516716271163 6.936797937982852 -2 -2 1
849 1 17.11613367945647 12.966423152905458 7.286264054681966 0 2 1
1519 1 19.423992951489954 13.197967779076118 8.429118785144437 -1 2 -1
1923 1 20.285755665720135 10.970453840838559 8.650437184482968 -1 0 1
1053 1 20.275372657872342 10.871385358262835 4.831555650528261 -1 -1 1
1254 1 17.918065970876707 11.477254629397033 9.260841905260305 0 0 0
1222 1 22.89210034849716 11.240473156321627 9.1654180557988 -1 1 -1
741 1 24.16103638639918 12.66602014539611 7.805317664010587 -1 -1 1
1976 1 21.689321029440382 11.223628614602452 6.810634413671779 1 1 1
1405 1 24.005078016612284 10.606079014283187 6.619381259233874 4 3 1
1221 1 23.902398845057988 12.4969192189866 5.397155651539237 0 0 -1
240 1 21.659872822483425 13.35166544398785 8.280739223196344 -1 0 2
454 1 28.154474521620262 12.840775542409878 7.637843300201009 0 0 -1
991 1 28.19865331260906 13.851718399965437 5.037121598063626 2 -2 -1
1147 1 25.928521149188224 11.231620018656843 7.844824196139053 -2 3 0
1175 1 26.64851098237202 10.70788796769106 5.629220591112715 0 0 -1
373 1 27.26321519500878 9.846708649957412 9.084003564809306 -3 -1 -1
1135 1 26.133771189665456 12.948646077269402 5.977506093444201 2 0 0
924 1 26.218617556416678 13.613915717773603 8.560853241043738 1 -1 1
1651 1 1.113560260868661 0.14978738885030374 12.210927350308863 1 0 -1
1741 1 2.558577875024172 2.259135567449089 11.577433098311998 0 2 0
107 1 0.9367624673614032 2.449928860971301 9.605487314525254 0 -2 -1
273 1 1.6883141402731296 4.023936003108116 13.1735764740344 -2 -2 -2
1419 1 0.027752458889573006 2.6280592084923264 11.765014474646943 -1 0 0
1084 1 1.9513042532623253 4.322847839556036 10.411414214708568 1 0 1
206 1 3.9393902873621487 3.6923353411137434 10.970243967982015 0 0 0
1554 1 3.196977918770047 0.6966955609590062 13.547682612472274 2 1 2
410 1 2.306204164285 0.4319257917626603 10.264263251297931 0 1 -3
896 1 0.7900373085131515 2.022557391314626 13.865343293146696 -1 -1 -1
1535 1 4.8403162263912 0.09247827838469291 9.88938008728271 -1 2 0
500 1 6.072049051665569 2.317793910549936 9.499869663980748 0 -1 -1
1947 1 6.847065739256489 3.1134905990159067 13.48770156856447 0 0 1
1464 1 4.072604583578561 3.021036351126765 13.127386680151 2 0 -3
734 1 7.43858763844212 0.4008246970730801 9.853139412458734 -1 0 -1
252 1 5.47939718118029 1.469978196352023 12.010518463405745 0 -1 -1
1151 1 6.4117162028795365 4.10574114361935 11.336258114911853 1 1 0
1851 1 7.178960754524326 0.5938870402317806 13.942183686577547 3 -1 0
1609 1 10.008238747627754 4.344680241159319 10.072352899514495 -1 0 0
1331 1 9.427965795155362 1.6525607830368654 13.709359922257839 1 2 0
383 1 8.042360293816133 1.569649413662272 11.8023274244167 -1 -1 -2
617 1 8.300047262811756 3.050017855494288 10.074987977330839 0 -1 -2
168 1 9.091292224275335 4.03528560212533 12.3853843311954 -2 2 0
1961 1 11.628242588535466 3.160298079368178 13.51147738528758 0 -2 0
1133 1 10.631645011548716 2.5816692779094543 11.588491148036796 0 1 -1
1372 1 9.906469908592014 0.12065216555906888 10.4034567561286 0 3 0
1255 1 11.113272570233473 0.3702855009746966 12.49613320911764 1 -1 -2
677 1 15.038393123861388 0.2564591160800176 13.689491049040685 0 0 1
248 1 12.482801871530175 3.738679591773481 10.195671106254899 1 -1 -3
1096 1 14.377663621260895 3.192112036918468 14.103578367938038 -2 -2 1
421 1 12.222975533253303 0.9451765185033827 10.149236815576401 -1 2 0
473 1 14.521770300609283 0.8472989220508165 10.477723568390797 2 2 -1
226 1 13.181818579011074 1.9944851261098822 11.859625324239394 -3 2 -2
36 1 14.897526990058601 3.2708227144557527 10.60587210768315 0 2 -2
2041 1 12.864788829316396 1.103683519122452 13.930886987438834 1 -1 2
529 1 16.6043103310723 2.8677269890135917 13.82574350017196 0 0 1
185 1 16.302903582075928 1.697983838435185 12.000139258699603 -2 0 -2
34 1 19.242781496202646 2.2770123853325672 14.007509495668957 1 1 -1
1253 1 18.472776150543442 0.830223270449058 10.374006763318162 -1 1 1
1261 1 17.985174408413553 0.591440496845915 12.833798193568324 -1 1 1
2022 1 18.9007286032131 2.8719747263197477 9.506071595501778 -2 1 2
567 1 16.989045483179044 4.524623133450278 10.42970912268051 1 -1 -3
164 1 18.396306391542392 2.883747945052666 11.769696825082052 -2 1 1
282 1 20.42025069900725 1.3530554692539007 11.575926704130902 1 2 1
527 1 21.031337414644373 3.382817485156614 9.995669530784681 1 0 0
723 1 20.727565652429842 3.8013160966929957 12.696137461133057 1 0 1
1978 1 22.072443032107792 2.133391299576869 13.393773866381933 -1 1 2
541 1 22.58893464195907 1.6808073884209893 10.970351089601301 2 0 0
559 1 23.029998601179 3.8479073378090916 11.628123093303065 0 -2 1
377 1 27.46292316204214 1.2217412610718703 13.534890144643889 2 -1 0
743 1 24.736360891749417 2.7723458760541355 12.574350022951196 -3 1 -1
455 1 24.75626376867959 2.6372503408744516 10.144457765289276 1 1 -4
295 1 28.154751526838513 0.6400851766962062 10.536326852278702 -1 1 0
419 1 26.0924845132775 1.4236012039387806 11.522175191474954 0 1 0
1481 1 27.16146495727941 2.717622529782082 9.634443049681893 0 1 -2
326 1 26.46178207160016 3.875734539638766 11.635749370333098 -2 -1 1
1727 1 27.856337051421544 3.9786351899845513 13.61503550428906 -2 2 0
840 1 1.4568441624302702 6.653090343978438 9.959080070694196 -1 2 -1
1744 1 0.19605516302679887 7.35871164496686 12.158505276427167 -1 3 0
141 1 2.1841023325038247 6.069210180611403 12.137955325196424 -1 0 0
42 1 0.44642536719428716 5.90700371201253 14.142666048146568 1 0 -1
855 1 3.7014747738804252 5.919236521857111 10.20221149863473 1 1 2
278 1 1.6374194654372765 8.155073880250669 13.762194457130565 1 0 0
1866 1 2.1325869537994597 8.354937087800382 11.032765267155929 -1 -1 -1
1031 1 0.008304268802335701 5.029469372575657 11.224641607443107 1 0 0
1227 1 7.633987898771686 5.113775900083779 9.620676667940055 -2 1 -2
737 1 3.9980865293750183 7.48654886266573 12.355935797025504 -2 3 -1
742 1 4.90417567055578 5.176585389406149 12.466302756109155 0 -3 1
268 1 5.144583743448554 9.241319981879403 10.749476923385616 -1 -1 1
848 1 7.165781106479217 5.58316857030444 13.496481185346896 2 -2 -1
1833 1 6.586047137889723 6.651611673230698 11.73547173947822 -1 1 0
1056 1 7.730333235266169 7.8708791860107965 9.94895423191132 1 0 -2
2026 1 6.0230823054701865 7.812621627275871 13.570478431104654 0 0 0
1892 1 8.418953692390776 7.997885921640396 12.73176669891805 -2 2 0
645 1 10.448429829573179 7.278060459816619 10.39456081186993 0 0 0
1600 1 10.879278440016963 5.074425727089862 12.108301397558376 1 1 1
1938 1 8.767298800191822 6.10254052085451 11.379154015067922 0 1 -1
646 1 10.922090714915672 7.333300851016124 12.731533794204992 0 1 0
520 1 11.944267851853573 8.934055519494706 11.276431494846406 0 -4 1
1220 1 11.656082852968057 5.570388595075518 14.093592497878198 0 0 -2
1765 1 9.561991613164421 6.234676138640794 14.077029805297403 0 0 1
1878 1 13.514569982042401 7.244986852195365 13.160159379776063 1 2 -1
350 1 15.89256264784322 7.047901744857239 13.750579943747319 -1 2 1
1354 1 13.333429697610214 4.652846678744687 12.403880841313642 0 0 0
891 1 15.518748204659836 4.813609880732601 12.627268874759123 0 1 -2
1897 1 12.201129435768252 9.006741399744842 13.761415012156588 -1 4 1
1262 1 12.443448151477607 6.723844716903597 11.042067735325805 0 0 0
1199 1 14.535609148987753 8.36884830439858 10.606376875874592 -1 0 1
1543 1 14.396195872383142 5.441321921730893 10.414118920847047 1 0 2
1225 1 16.095919958409546 6.577711260358999 11.26081155836358 3 0 -3
966 1 15.081013778114926 9.240319608164231 12.80062455443664 1 -3 0
1350 1 17.948137569403602 7.4333006530227115 13.820324032163795 0 0 -2
38 1 19.34008570200218 4.980073632587626 10.875515816093085 1 -1 0
1293 1 18.994197066040623 7.4063760962647756 11.143457916081374 -2 1 -1
1260 1 17.092121057937256 8.51850870530502 11.826242822658912 -1 1 0