LAMMPS data file via write_data, version 29 Oct 2020, timestep = 300000

2048 atoms
1 atom types

0.0018456514131237611 28.35015434858889 xlo xhi
0.0018456514131237611 28.35015434858889 ylo yhi
0.0018456514131237611 28.35015434858889 zlo zhi

Masses

1 58.933

Atoms # atomic

1522 1 1.421726910872307 1.251249890638808 3.2394488375682884 3 0 0
1213 1 2.693318540294598 2.640960324057393 1.4845000875556897 1 2 -1
158 1 0.41157948229504476 1.9951684542203685 1.146858737217638 1 0 -1
2002 1 1.2286919810916528 3.753064430680636 3.201457959982392 2 2 -1
1215 1 2.9427453045060172 0.263108854378108 1.538989676207042 -1 2 1
516 1 3.608616490186212 2.1512920628011827 3.571634672731568 0 2 -1
790 1 0.33028954870326066 4.134453908977863 0.49074815052983267 0 0 0
1770 1 3.5468856266594457 4.529589977903851 3.4375616041537613 -1 1 1
1265 1 5.031864755329046 1.1713082107250266 1.923698531460816 2 1 0
1678 1 5.860633760601532 3.336924110419345 3.8055533553973775 2 -1 1
53 1 5.907106837612844 0.9451890445020122 3.990267118314223 1 -1 2
1065 1 7.3611106748151585 2.309614947228978 1.9959138024580467 -2 1 1
478 1 5.098155099161218 3.7907980312202443 1.7606284516198267 1 1 -1
528 1 7.950868354478301 4.706072414459074 3.6562501476113156 -1 0 -1
363 1 8.192232556019654 1.9677335335403028 3.9961886878307333 0 2 3
905 1 9.57513215272472 3.293777691605597 2.154982912472447 -1 1 1
880 1 9.64279325709341 0.9810619815009411 2.573679407805177 1 1 0
2009 1 10.61460233166712 2.6626959830516537 4.1488205968228815 -1 0 3
1054 1 10.982480735762861 2.618968618697785 0.19943681183883807 3 1 1
398 1 27.510223802945287 14.14079969597615 14.079402817007123 -1 0 -3
1366 1 10.624040390657958 0.3079041018676112 4.614941971310919 2 -1 0
1427 1 11.96599917558838 4.369945330013213 2.2806614939861616 2 1 1
852 1 12.263508503411346 2.013200049429012 2.532490447351104 0 2 2
1949 1 14.170054844474215 3.1372081596250614 2.6739376127923076 1 2 2
1153 1 12.992305888246939 3.6541311008924637 0.2754663230538695 -1 -1 -1
808 1 15.704088829299081 2.174073794908 0.8436896167408932 -1 1 -1
1820 1 11.558074014571693 14.030153244884447 1.0394824999053711 1 1 2
1073 1 14.310027248937354 0.6772577150841739 2.809223904237705 -1 0 1
1584 1 15.086460971481271 5.1448610196396585 4.388384751066584 -3 1 1
1774 1 15.174562395689605 4.610299252290871 0.3924713165444705 0 2 2
928 1 12.916427634303822 4.021261030504898 4.368818911818001 1 1 0
747 1 12.724400484939384 1.5246534409950487 5.0643290174261075 -1 0 2
1739 1 16.360888503591255 1.7566217271252755 3.100708337988444 1 -2 3
2020 1 16.447487269227665 3.944228510308107 2.5919496311859316 -1 -2 0
1990 1 17.91090626654343 0.7375607297212748 1.210413579957716 0 2 1
1029 1 18.051107932585484 3.1344716255700846 0.7979027579147498 1 -2 -1
883 1 18.69534911104589 2.448218940761155 2.8521794810993266 2 -1 -1
1834 1 19.184687692877098 3.790424752898117 4.615584510194663 -2 1 1
1471 1 20.23615639642872 1.3910706863549152 1.4667113963239886 0 -1 1
1997 1 11.09855737282772 5.252337633623939 0.1361234196347489 0 1 2
1867 1 20.58950985075727 3.9279540187973994 1.289057050286635 -3 4 0
61 1 21.062267127555184 3.0164746652813617 3.336415991084878 0 1 1
618 1 22.493891398226896 2.3596359088901644 1.4493756041260246 -1 3 2
1214 1 23.355632001172832 1.7884708068151787 3.4235654498174055 2 1 -1
533 1 23.307655881603893 4.057118488223313 3.146684511603601 0 3 1
862 1 21.294448632888248 0.6360155437134339 3.58821293228577 2 1 1
1736 1 9.870415494806318 7.220253797540381 14.027661378656282 -1 2 0
334 1 24.870791898259114 2.74078310231159 1.7154784089171797 3 -1 2
1386 1 27.077005718697425 0.9989874253705308 2.678162910644548 -1 0 2
246 1 27.21409336743158 3.3310538547487236 2.498480867029231 0 1 3
1061 1 26.274383866486662 1.4354359584635188 0.49341915995632946 -1 1 1
1821 1 25.772779765801786 2.08979137882952 4.320063873104649 -1 -1 -2
472 1 24.961520240016842 0.2858358295703062 2.4109207839360205 -2 -2 0
1856 1 14.37608586207212 13.947421729549607 13.583079556618875 0 0 0
670 1 25.56891363042889 4.39599320722676 3.7109289900004185 0 -1 2
615 1 13.242432731145739 1.007790845957508 0.753632110109678 1 -1 0
1050 1 2.7153945963702153 4.913425445507412 1.0673916694839964 0 -1 -2
1548 1 1.6196117184730994 6.17241014572799 2.7745770311908986 1 2 1
958 1 2.847895496129437 7.457825073123333 0.7970640623013143 2 -1 1
342 1 1.3348178520324143 8.699424708272433 2.234367662853151 1 -3 3
197 1 3.8908347356357655 6.846222561285317 2.921340405002429 0 1 0
137 1 0.629103725584168 6.83402093281478 0.6536336124777775 -3 -1 1
1507 1 2.187923975671848 7.6562441943224435 4.38433429961592 4 3 0
1376 1 3.388248130628089 9.321917402528332 3.1386056956801824 0 0 1
508 1 7.2891838185785 4.567182945870145 1.4249778513179392 0 0 3
355 1 4.883008130924916 6.043425163400576 1.0463622028364936 0 4 -1
2007 1 5.8415922097643 7.846787478070653 3.561794508381223 0 0 2
777 1 5.931091069229397 5.5760649371345945 3.34232830183233 0 -3 1
1550 1 7.0894820840232695 7.239077379321107 1.5437694075276656 -4 2 2
1379 1 5.084864603780098 8.55056879746587 0.9715457503885465 -1 1 -1
1944 1 8.14309305100755 6.839940086867935 3.5354804590270645 0 3 -1
1810 1 7.989809822264496 9.109027103467685 3.527225017554537 3 2 0
825 1 10.290914850573985 5.048109953684005 3.9556252168188575 -1 0 1
458 1 9.378535341575928 5.779576120881341 2.0314968596626963 -1 0 1
1043 1 9.365629921048438 8.318836388652986 1.6683953803989542 -1 0 3
863 1 10.298467157327643 7.4253211113317725 3.819360466216305 1 1 1
1000 1 11.69641841465609 9.123518116096696 1.5684996240301172 1 0 -1
1998 1 11.451574382995572 6.886213505249026 2.025455186627858 0 2 2
2031 1 21.92075273340482 9.964597612142517 0.11408352132990154 -1 -1 1
1794 1 14.03397697505481 5.4697512645911965 2.107517179106936 -2 1 3
1129 1 13.772140260626223 7.939142058438116 1.9350011195087748 -1 1 1
845 1 12.845929160303466 6.423546093798322 4.143828325729924 0 1 1
795 1 12.856427397435628 8.68357833366203 3.791572014826675 1 -1 2
393 1 14.941532256856215 7.424762299998323 3.996051550613769 1 1 1
1751 1 16.354113016216385 8.596780534816263 1.8924764842975637 2 0 0
204 1 16.114436257155095 6.286024353911027 2.3169659483558207 0 -2 -1
885 1 21.047041013541357 0.26185624638332805 9.326267794940472 1 0 2
1779 1 19.944790876031274 13.630369813029649 0.2611145705206083 0 -1 0
1983 1 23.257433022165387 10.01493893865032 13.890886386890097 -1 0 1
436 1 18.814326154258385 4.934725719370409 2.5119356306701888 -2 -2 -1
1279 1 18.48103313968759 7.334256181560436 2.156085988955303 -1 -1 1
1618 1 17.212395012972014 7.978856390863624 3.800409758208903 2 -1 1
1698 1 19.20863809180246 8.870163607992392 4.691133401771261 -2 1 2
1130 1 17.300657962574167 5.682104717833328 4.304396753722821 1 -1 1
1659 1 19.503380894177013 6.557223595997996 4.400489248972743 1 1 0
145 1 17.656776317418032 5.428676296355734 0.5638726527383647 -1 0 -1
1155 1 20.00452213126628 8.581930875963858 0.6918216616623124 -1 0 1
1431 1 17.91002794950927 0.012089370929893812 11.959022085192585 -3 0 1
1991 1 20.138093002521774 6.068342484529077 0.8515280480073654 -1 1 0
818 1 22.582919467687937 4.721725404638662 0.7918730888553308 -1 1 -1
1211 1 21.019634612485984 5.564908035442635 3.0538013839141946 -2 1 0
1243 1 20.54060344051469 8.000508557454701 3.048745573324547 -1 2 2
309 1 23.22689097191902 6.483830947620033 2.652460917719167 -1 1 1
1619 1 22.006184778180845 7.529315704922788 0.9578980305838027 1 0 2
1606 1 22.830587761074703 9.183261038741591 2.3862693229052327 -2 0 -1
78 1 24.01212140793348 8.108177106634466 4.7038602866490615 0 2 1
352 1 21.825019311690387 7.178639202172629 4.65604959684151 -1 3 1
1581 1 23.99744883916287 5.776306539951247 4.968030451205594 -1 0 -1
1162 1 28.007478495000136 5.0636639060338045 4.006846190828203 0 2 0
932 1 24.618240502248824 7.661904635028753 1.1481560660943135 -1 -2 2
761 1 24.826840261479013 5.259010844221848 1.5417604126466458 -1 0 2
1975 1 27.948796765864955 7.355782164459445 3.6346690070439474 -1 -1 1
187 1 27.24638087995964 5.648698222513935 1.7078570807752176 1 -3 1
1421 1 26.98424668862751 8.03165223851129 1.7544218504722222 -2 -2 0
969 1 25.610470980291723 6.784783420370542 3.2571240035195936 0 4 2
603 1 1.7022139231770652 13.340756259701982 3.3877707819550307 -1 0 0
744 1 3.030212584877431 9.789028457000654 0.934148093909319 -1 0 0
882 1 1.1812661627486472 10.960420357426448 1.3666908646910552 -1 -1 3
1423 1 1.6987086995041245 10.861276083050992 3.6638382097950544 0 2 3
1197 1 3.6463423064594127 11.715317739812887 2.6436873813276613 0 0 2
1801 1 1.070568557358824 13.812500627965042 1.322537610250387 1 -1 0
749 1 2.9118650650508533 12.3173793234929 0.4763380767028274 -1 -1 0
147 1 2.4185591471490318 0.39688028864651903 11.269838644746365 2 -1 3
867 1 4.146692041251388 13.736762158393205 4.367710722702697 -2 -2 0
1800 1 7.276905723024634 9.585150371028847 1.1092953542087183 0 -3 1
1699 1 5.730057048934667 10.132775112856075 3.244510277293573 0 1 2
2037 1 7.230875104645871 12.075732517110191 1.0512856885290545 3 0 0
1671 1 5.826388464828807 12.98884999834535 2.5928742967335614 -1 -1 3
859 1 5.0813733399519565 10.98863072374519 0.9545535385578026 1 -2 0
717 1 4.902393317247125 13.690542891125267 0.49999549098733964 -1 -1 0
924 1 24.660690585684097 13.740763288754023 12.21201143052358 1 -1 1
1703 1 12.09507493106284 8.173238587713824 14.08117614870621 0 1 -1
1873 1 8.115427629367495 11.214709081622944 3.2272457821550837 0 0 -1
926 1 10.407965667973505 9.938355174431674 3.4850093495734105 3 0 2
1629 1 9.302067972214159 10.659879047610268 1.3174838775103286 2 1 3
2027 1 9.447846240440201 13.07695919704379 1.1844258057524573 1 1 3
1788 1 10.082148231181785 12.569149964098711 3.481270778642889 0 1 0
1977 1 11.519828994523017 11.748549494171776 1.681830948817639 1 1 0
1075 1 17.52708219616132 10.244053785128987 0.02482222370708031 1 -1 1
935 1 15.121186392439585 9.554547196141481 3.6433056844111897 2 -1 0
558 1 12.513737037168635 11.25744206737706 3.6189860052466556 1 -2 -1
1142 1 13.96008996276977 10.214651754328298 1.9327574037189965 -1 1 1
1888 1 13.734111012169551 12.705756399364018 1.6185363046135604 0 2 1
996 1 14.985270762750536 11.968337782990366 3.846470778367879 -1 1 -1
328 1 12.06343095273247 13.483811615951204 3.260260906371212 -2 -1 -2
592 1 16.39508264845415 10.985434461393172 2.0784484049534835 -2 0 3
918 1 16.232521746921098 13.501340820632956 1.807739241806473 3 -2 2
728 1 18.534927334599182 9.840188224510161 2.467289254374931 1 -2 1
412 1 18.481355935130868 12.270712617883468 1.7472772224087905 -1 3 -1
1908 1 19.37838517853086 11.594686328204594 4.071376592620466 1 1 0
1491 1 17.169675814432885 12.516288533780724 4.168312741704011 1 4 3
1416 1 19.93875207995793 11.125003508195332 0.07226551023529569 -1 -2 2
178 1 18.93514481999489 14.089711197192807 3.53800134066388 -1 1 -1
1053 1 21.612530048109633 9.569460518168622 4.234860405383652 -1 -1 1
485 1 20.907210996402387 12.84787063821606 2.268574592003057 -1 0 4
1297 1 20.676218430418754 10.513147018864831 2.2767448687986747 0 1 1
509 1 22.962275510448183 11.528402268772378 2.1030459408286033 0 1 1
684 1 24.032974373506622 13.23401651270156 3.693017459592642 0 1 -1
824 1 21.89462178725104 11.939736392947589 4.150241507070676 -2 -1 2
1981 1 23.985043641934244 10.394123163472496 4.298906973204288 -1 0 0
1869 1 25.140039401300054 0.015875958692345166 7.768599690444231 0 -1 0
2039 1 26.885855502326475 12.479379011154307 12.305747726304112 1 1 0
1994 1 7.947296013075298 13.705803443314531 2.825308524618599 -1 -2 -2
52 1 24.460405610447786 12.856960050844632 0.7249789991147976 1 -1 0
224 1 25.35483459530947 9.348330557483791 2.6677384507860573 -1 0 0
1884 1 24.544183646765056 10.453918195596735 0.9342220983255117 -2 1 2
1662 1 27.144169031424298 13.220476299911654 0.6466706849797496 1 2 -1
353 1 27.909645808201375 12.352583608225006 2.8770040955468508 0 2 0
39 1 27.74196326525189 10.045847845351906 2.9221695036847857 -1 0 0
1562 1 25.670447597170238 11.914904137320482 2.6776538183611702 1 1 -2
1357 1 26.962642844423637 10.930011529732045 0.8608110884016047 -2 0 -1
1047 1 26.11317570342136 13.653448076634426 4.377034434544046 -1 -1 2
787 1 2.189216862393046 2.878622429370237 5.240384855595742 1 -2 0
868 1 2.16172615182982 0.5220577252609919 5.732765149234779 0 2 0
1679 1 1.5149510448712535 3.562532046710802 8.87788482100895 -2 1 -2
933 1 3.302283155936145 2.276048932695191 7.668270010035015 -1 1 3
1759 1 0.4736853765759066 1.8499952627106946 6.749175486144496 0 0 0
297 1 0.33494764086847867 4.433581580084384 6.280684303793181 2 1 1
1406 1 1.352669240772724 1.142998523453272 9.018468963791099 -1 2 0
1345 1 26.23470830854451 10.924549187048608 10.376196586361154 -1 -1 1
1965 1 4.339953953309633 3.8960495021406594 5.51888914229571 1 0 0
230 1 4.598675733748303 1.6546028685621998 5.859394823487918 2 -1 2
633 1 6.920780790231249 2.4486875438574582 5.971306845527052 2 -2 0
109 1 5.528568010079163 3.4535917960943996 7.779321753209304 0 0 2
938 1 5.247302053700175 0.7430296530337243 8.040783596903205 0 -2 3
1904 1 7.72998252035659 1.9556857554900196 8.025583592513517 0 0 3
22 1 7.794391803290462 4.251968971903774 7.7325885781648624 0 -1 1
82 1 27.111037931308932 10.227334516596056 12.38913392880418 -2 2 0
1805 1 13.85810906205327 0.09936937940188884 13.071442867234918 0 2 2
2010 1 8.926267643836686 3.5406133753049835 5.957219409613862 -1 1 0
826 1 9.130712788401558 1.2740013908040675 6.120286818901379 3 1 1
341 1 11.227584101801657 2.010951662792974 6.541599981118393 2 -1 1
1278 1 9.864475270867503 2.9535191830387397 8.219655245311014 0 2 -1
1638 1 11.375864314707126 4.2499256019937715 6.128132003089241 -1 -1 2
1844 1 12.026795825122054 4.11582898694662 8.513695822921585 1 -2 1
604 1 12.232270500297872 1.5809773926842081 8.685264398399704 0 -1 3
1815 1 14.99822328005724 2.0849465564743768 5.2602432715877026 0 3 -3
1169 1 13.41674992981156 3.217433054916243 6.927057637365327 -1 -2 1
1018 1 14.404405488313762 2.4891027602579783 9.043729391299317 0 -1 -1
1372 1 13.437211292021187 0.5794737358118304 6.945802820083791 0 3 0
394 1 15.641710139048941 4.0044892066516775 6.909104920263359 0 -2 -1
248 1 15.678028520200161 1.2365536375439279 7.387126934486595 1 -1 -3
1080 1 17.032469259000443 3.4097543793142298 4.831470854742743 -1 0 -1
1246 1 17.123942414789482 0.6987584782236921 4.951288751285514 1 1 0
910 1 19.38799528864663 1.404828516775598 5.033036203746495 0 -1 -1
473 1 17.74982605272101 2.3493085654311208 6.9120734864258635 2 2 -1
36 1 18.76704519269781 1.9260140393226244 8.882206377756365 0 2 -2
567 1 18.727474475356285 4.468041563653085 8.761551037510444 1 -1 -3
1293 1 16.63304581826124 3.181236460080298 9.216493207968025 -2 1 -1
1493 1 19.752016599094286 3.457735297892644 6.647400448416457 0 -1 -1
2017 1 20.385058975015554 1.1526019224339137 7.165949740861384 1 0 2
490 1 22.646335948604822 1.5462382112861104 7.756372030026836 0 2 -1
390 1 22.045587857385854 2.026685671191977 5.446030396043277 -2 -2 -2
1826 1 22.766233105896486 4.035638367577152 7.484083425395869 -2 1 0
282 1 20.980087839186183 2.98641211109162 8.89331500683842 1 2 1
596 1 23.954715279227212 3.328458016027304 5.283807164925567 0 0 1
1377 1 24.248299399158668 0.8259196249221462 5.718598924247456 -1 2 1
1332 1 28.20815997831171 2.5696868750436686 4.5809816912980805 0 -2 -1
982 1 24.97631529990594 2.5325510589879676 7.350295997876751 1 1 -1
957 1 27.361467847885415 3.0452337974877994 7.86368722142659 1 0 -1
2019 1 26.82816211182254 1.2135263173504338 6.251984670659591 -2 -1 0
1141 1 26.41116229109969 3.7872097822574733 5.683070221313148 -2 0 0
165 1 25.742139110686328 4.3022412244009685 9.043665259461099 -1 2 -3
397 1 27.55062269487875 0.3093022070765395 8.294863900083655 -4 -1 1
1314 1 2.1305069780662262 5.3267530778728 5.294991722200761 -2 0 1
28 1 2.7680835127271246 4.495292625337734 7.19687064323431 2 0 1
840 1 1.0557750540798114 6.166751336776894 7.8069039239396005 -1 2 -1
1843 1 2.8811191394727276 7.11406738163236 6.7253776541431645 0 -2 0
1538 1 1.0900784896683458 8.773035088659238 7.242971556635918 -2 0 2
1472 1 0.3614977743402652 6.844043082670773 5.836824925480632 0 -1 1
130 1 3.811169087775461 6.743656742668816 8.843847967778952 2 -3 0
280 1 3.2716436045647863 9.495908081713093 7.713620691754299 -1 0 -1
1177 1 6.755036908828197 4.8598808454703635 5.594268952027986 0 0 -1
512 1 4.12780595675039 8.621357178508138 5.447652807869856 2 0 0
1680 1 4.501763966224191 6.023521597411741 5.14849907501531 1 1 0
950 1 6.786711641450112 7.4086907432093785 5.696532874641661 0 2 2
1020 1 5.352379350689953 5.6901602993874825 7.491973144335972 -1 0 1
1500 1 5.266915843527893 8.057688297612978 7.642049640851139 -1 2 -1
1934 1 7.719410113508563 6.749208827712274 7.783149427964419 -2 0 0
1227 1 7.565214883701911 9.150991988008968 7.577499244353745 -2 1 -2
1346 1 9.93054760277851 5.454517252658684 8.161400589294567 -2 0 0
666 1 9.106289622694215 5.953555187771984 5.808780675114305 2 -1 -1
1960 1 8.948879451992397 8.378693571030029 5.661916505444998 -3 2 1
1056 1 11.39480369624304 6.787266865351237 5.908073498874622 1 0 -2
1298 1 9.8780024967078 8.003930138657157 7.939897927308476 -2 0 1
645 1 12.040793742141872 8.85322908321929 7.709377968968248 0 0 0
779 1 8.681440914054434 8.967536758200833 9.744699641457307 0 1 0
870 1 12.081824572881914 6.558473144518577 7.88222190141895 1 0 0
1259 1 11.029776507475184 9.093988992802814 5.707048987552064 1 1 -2
693 1 14.440663540771226 4.706697368345368 8.6605758741192 2 3 0
1661 1 13.307071090395018 5.585975295964637 6.334818383975287 0 -2 -1
698 1 13.582990925376423 8.035697983146862 5.933342309372679 1 1 1
132 1 14.429338627870639 7.363749999353128 8.144994981360036 0 -2 0
860 1 15.606896464710887 6.5040199474376115 6.471424590141425 1 1 0
171 1 16.0194032754344 8.81814528864604 5.917316761078304 0 -1 2
1328 1 17.963139772119916 4.959737761201296 6.468900337917945 -2 0 1
561 1 16.861922065399146 8.265599902976177 8.172502703001648 -2 -1 -1
1980 1 17.85564748039337 7.252674327856298 5.975015210615211 1 3 2
1111 1 18.556408553640633 6.759951458699688 8.107871579630068 -1 -2 -3
1862 1 16.598393668092775 5.604245571218981 8.547319925767786 0 0 2
1808 1 20.39092453130836 8.40885168054216 6.557294187708675 -1 1 0
186 1 21.548746919106822 4.682294336393848 5.134537283155482 -2 1 -1
323 1 20.23083176527668 6.051763910031743 6.722809642935674 0 -1 1
356 1 21.13216224971886 5.273744872416615 8.654557346975096 -2 1 -3
2028 1 22.784053234882908 6.479857612034759 6.9091640494737705 -1 0 0
911 1 21.280682083682606 7.716857743355606 8.406967400181095 -2 -2 1
1460 1 23.52901656536568 7.703187041884943 8.678826018518794 0 -1 1
755 1 22.703248402568708 8.849765553219019 6.504296193056685 -2 1 0
1475 1 23.55020849244956 5.535125770443961 9.416146685005364 0 2 -1
1728 1 24.833874058124895 4.95996560085224 7.098082459415182 0 2 1
1147 1 26.244390683370597 8.597153328513079 4.977315001346786 -2 3 0
613 1 26.492394261066003 6.090872784165009 5.385277846992915 -3 0 0
368 1 25.067157154534385 7.2410765958302346 6.700114035890024 0 -1 1
1041 1 27.02600342491603 5.622359836591162 7.571788752314656 0 0 -2
661 1 27.214894572712204 8.170016768816117 6.986315836806952 -2 1 3
1413 1 25.579159632014655 6.9118974685504755 8.876732547480001 -2 1 -1
140 1 25.792231713024403 9.323830700799075 8.649943903349573 2 -1 -2
1405 1 0.10813972494685586 9.361879336110112 4.9609214740359935 5 3 1
1363 1 27.77475473192524 7.167079640814797 9.162076250618655 -1 1 2
1107 1 9.801649805280322 0.4144276014774241 8.410665516825349 4 1 1
170 1 2.2865382484422203 12.29017989562546 5.261831499733961 0 -2 1
664 1 2.1844926459905207 9.779542325193699 5.660542163851369 2 1 -1
267 1 1.0950640609006972 11.10111327123733 7.226523839814776 0 -3 2
927 1 3.519047345394958 11.555928845675378 7.010176693258823 0 -2 -1
991 1 0.8234400754355865 13.461007075372084 6.787537577090299 3 -2 -1
454 1 1.844495627363827 12.967034016203268 8.897733695760058 1 0 -1
1340 1 4.20919597727812 13.649819507743693 9.08042486466123 1 1 1
1163 1 28.273393444072187 11.801786545556414 5.198455020712184 0 1 1
1490 1 1.9126303205851658 10.656127276415459 9.32829181485201 0 -1 0
1536 1 4.380771529545348 11.3436640563143 9.224703845974863 1 0 -2
255 1 6.536745365747492 12.196968510281126 4.830037135588203 0 0 1
184 1 4.3184522592813375 10.880784738530135 4.864550004862279 1 -1 1
457 1 6.667327371486331 9.516157979823248 5.269523102248063 -1 2 0
595 1 5.281265085381009 13.134297772130788 6.774050470872896 2 -1 1
1577 1 5.575272624331397 10.410810838546574 7.083622869754274 -1 1 -1
115 1 7.418336229025647 11.83907744902557 6.9419249001026815 1 -2 -1
1194 1 6.287630365305515 12.459376422970877 8.797813151412534 1 1 -1
361 1 22.866263805797246 14.139729774673587 1.7248290543647926 0 -2 2
227 1 8.363091684797629 13.711354700853292 8.971226784502575 -1 1 0
1504 1 8.473112628588396 11.22046485341729 9.211662207192111 0 -1 0
1098 1 8.517540628645992 13.107869807333909 5.036301888185766 -2 0 2
1290 1 8.978110325470686 10.757037796175853 5.402879187017902 0 -1 2
1748 1 9.858226957534674 10.234093715382953 7.309858206126848 0 1 3
909 1 9.578961444549773 12.864552046258714 7.065677801164219 1 1 -1
219 1 10.918911233206972 11.825239170995154 5.25904393798838 0 -1 2
1712 1 12.06551241390133 13.573039070849536 7.368822483012386 -2 -2 -1
1183 1 11.901487981644824 11.463664082955024 7.263228886081501 -2 2 0
998 1 26.251073823377588 13.326132248482399 9.878344079273818 -1 0 3
1289 1 14.710058954082623 9.729606278415236 7.624501710170386 -1 1 1
843 1 15.433698058354338 13.616599670168391 5.468205606758018 1 0 -1
1503 1 13.356142835191816 10.29709715730214 5.698503321634791 1 1 1
1521 1 13.140973080529296 12.703727345339622 5.15918836138146 1 -1 0
386 1 14.11862124132862 12.170499435112346 7.410395709328017 1 2 2
705 1 15.738124733919525 11.1384502197676 6.022009268682473 1 -2 -1
405 1 17.240972507061713 10.272802271384704 4.405327937954134 0 0 1
810 1 18.115419055718437 9.429854443681721 6.775575378464806 0 -1 -1
1763 1 16.322904969106457 13.144443220219442 7.828129764494499 0 0 0
1758 1 18.70883846353558 13.898738347343603 7.987495853270789 0 1 1
637 1 16.712165352447006 10.61744176601489 8.30053134134978 0 -2 1
706 1 18.188176618959563 11.896442526372399 6.581282225125602 1 1 0
369 1 19.28499091773119 11.45521776025859 9.037994193033597 -2 3 1
1221 1 19.96207190061328 13.14514110188459 5.64443396210922 0 0 -1
432 1 20.29173478186983 10.757571861160583 6.124182929468111 3 0 1
1315 1 20.74406995917106 12.555278708675006 7.68799055447057 -1 -1 0
514 1 22.189432891250593 13.535202057425003 6.063458594842458 -1 -2 1
1923 1 21.335873299310638 10.149550962496638 8.07846683554652 -1 0 1
1307 1 22.63604456185016 11.211158459977582 6.436804318291139 0 1 2
1519 1 23.1529610730575 13.037952015410553 8.191841574436141 -1 2 -1
1347 1 23.52416466298336 10.256419368071708 8.44666118844214 -2 0 -1
1175 1 26.121473646900082 11.040913546037595 4.638919965690539 0 0 -1
1976 1 24.49936013334367 12.64177736619264 6.344894190443922 1 1 1
74 1 24.803916816550146 9.969910354728148 6.53593934583236 0 -1 -1
1971 1 28.159657461503063 9.519158930582968 9.00878544491557 0 -1 2
88 1 25.559683415838094 11.601618369744358 8.209535110596748 -1 0 -1
599 1 27.1352705674671 10.546175716028474 6.8619532808773 -3 -1 -1
917 1 26.772699267411436 13.013753197720959 6.735007885945133 0 0 2
1950 1 28.04394681687618 12.004320748727249 8.891658077002448 -2 -2 0
841 1 14.396197765103794 0.17779177325890166 9.110023215296223 1 1 0
347 1 28.224648696989227 14.118959998996822 4.939893504939045 -1 1 -1
1741 1 3.908178169892473 1.7751091240117298 9.683814024331456 0 2 0
107 1 3.945977094559957 4.232839081799801 9.387966392369218 0 -2 -1
1184 1 1.1620855386377928 3.4771557193899 13.778881652786241 3 1 -1
1084 1 2.030077684746515 2.6602355451800546 11.01039439715967 1 0 1
742 1 3.117686783558809 2.0275617719018073 13.287086387812536 0 -3 1
890 1 0.5315942021367605 1.3877395280739764 12.314983652099986 2 1 -1
1481 1 0.1391058539459929 4.096176828708033 11.710530296881373 1 1 -2
1954 1 5.392721717671111 0.2658328605134921 13.890517842092066 -1 3 2
912 1 22.16846737740663 13.17006555542614 11.550516813577339 -2 0 0
1858 1 4.959538193623531 3.3406369286676107 11.602976879477495 0 1 1
278 1 6.205342074074669 2.309792087474872 9.843083578633106 1 0 0
1947 1 4.704288483538007 0.9561423446180659 11.835821882946748 0 0 1
500 1 6.951892658260888 1.7525988720563086 11.928060053028613 0 -1 -1
737 1 6.959089117352837 4.177260139341173 11.860684438400359 -2 3 -1
1979 1 11.179103053041036 0.15964648845345875 0.5194796962206812 0 2 -1
1508 1 7.63875629198423 3.5035948381376993 14.008248146770233 -1 0 -2
1271 1 8.27997866143132 1.311658684712341 10.26695295050757 0 -1 -2
1609 1 8.505359853374756 3.7930175815136056 10.008711267637254 -1 0 0
9 1 10.485746812782143 2.373238189503828 10.234976000527851 -2 0 -1
848 1 9.322423124601256 2.9836861517305064 12.113373482054937 2 -2 -1
869 1 11.241792075005359 1.4717228167217873 12.363361212427622 -2 0 2
1961 1 11.343569794355172 4.096299746141672 12.426848643679469 0 -2 0
1255 1 9.062546387006838 0.5115964155518739 12.496595008109265 1 -1 -2
1718 1 10.80205552050668 4.935607797053439 10.41460357048698 0 1 0
1650 1 27.103237673761054 0.575518541780194 14.028159640247184 -3 2 -1
513 1 12.993540150215475 0.6950574255220981 10.958518093164091 -1 -1 1
1172 1 12.857424013885412 3.256621524948672 10.609191161647065 -2 1 0
798 1 15.27377880789567 2.095933405718498 11.172966364624582 -2 0 -2
529 1 13.665375567353054 2.642863536882651 12.824408789136402 0 0 1
891 1 15.224410605822786 4.325344865809715 10.686479390857016 0 1 -2
164 1 15.98269868585635 3.7890255517855533 12.649295380231186 -2 1 1
1474 1 0.3498972847852443 11.565593270536027 10.906963495858847 0 1 -2
185 1 16.060987158281694 1.0024311141413853 13.273398985423153 -2 0 -2
864 1 16.782537092452607 0.8172571073197028 9.850392907193296 0 0 0
38 1 17.60972239445633 2.3724982732643127 11.556700332102286 1 -1 0
1761 1 18.52817484324323 3.9999382430257664 13.331212551626543 -2 2 2
2022 1 19.61057149743404 3.979945896940938 11.059215757104123 -2 1 2
1261 1 19.57769790716482 1.4205545206181682 10.783708579487616 -1 1 1
34 1 18.505741841306197 1.6445016086372084 13.809067828823027 1 1 -1
1260 1 20.61017417366439 2.811801787394837 12.581030783373954 -1 1 0
175 1 23.81448662523463 3.070355660292046 9.523183241519533 1 -3 1
1654 1 0.4247268321615727 9.084973135610495 0.15295500618551006 0 2 -1
1564 1 20.216807405054254 0.46565425742646055 12.58764395677343 -1 2 -1
1962 1 23.887406720448393 0.3385682868699159 9.98604651046478 0 1 1
1978 1 22.241560341312763 1.6097150710782127 10.848355433481297 -1 1 2
1479 1 22.793448562561345 3.2105703746578396 12.99546975924063 0 -1 -2
319 1 22.62439465816122 0.713593046545863 13.329434918859008 1 0 0
820 1 22.013309813118667 4.260872712476408 10.829486560396658 -1 1 1
628 1 26.07746984864749 1.7973699182513854 9.492413401390575 1 -3 1
295 1 28.14052722229014 2.396897810106245 10.037355140827248 -1 1 0
1110 1 24.89114493065894 11.242056265952376 12.413469119755602 1 0 0
743 1 24.352085843936862 2.1034933619911205 11.642070143261503 -3 1 -1
326 1 27.182893344291603 2.8968395281057684 13.575796880491158 -2 -1 1
1021 1 26.301728907947968 1.1100768043513995 11.904721109101859 1 2 0
1434 1 26.158654480187003 3.562448134746263 11.218775491917558 2 -1 -1
527 1 24.982555299432725 3.78528859826652 13.388821489590622 1 0 0
1823 1 28.027258192998683 4.8321443205880605 9.453950286971974 0 -2 -2
419 1 24.949212492412794 1.5741969744102362 14.063273666511792 0 1 0
141 1 3.0537823319788235 4.6523411226836116 11.808181244713737 -1 0 0
1852 1 1.9878277278550205 8.043308781520293 9.38812175301525 2 1 2
1349 1 1.801553991106891 5.700290755807245 10.07204680648882 0 1 -2
983 1 1.2985500862325994 5.767137118351005 13.364549731075979 1 0 0
1690 1 1.1049020581066302 8.050465542415887 13.28138752204612 2 1 0
1744 1 2.5839888792699437 7.105823365569647 11.534202286386238 -1 3 0
1235 1 3.2829983214801004 9.058480049815921 13.257140522912763 4 2 0
260 1 3.517721432341873 6.7396259760196315 13.645887996459633 0 -1 3
112 1 0.5243508330367773 8.768191711443384 11.245717800851931 -1 0 -3
1982 1 2.5970115920149985 9.725357663229225 11.184788547152577 0 -1 0
1749 1 5.535604096393345 7.418562097774021 13.60772723639448 4 1 1
1470 1 4.218989375009863 9.0718080836385 9.592986744265701 0 -1 1
252 1 6.543468966508277 5.003485521534138 9.458910247004441 0 -1 -1
653 1 6.264689643905923 7.360385748100638 9.60305871523658 1 0 0
1681 1 7.688145251753587 8.343637477088816 13.692182710835924 0 0 1
1730 1 5.462936509437352 5.120979946558792 13.686730018688323 1 1 -2
1031 1 5.00739085200922 5.740402761156398 11.116120099855431 1 0 0
206 1 7.02478240602433 6.594531068990059 11.62388243581002 0 0 0
1866 1 4.862839339453989 8.050049813042094 11.456337461456187 -1 -1 -1
767 1 6.885343378729417 9.168274266851732 11.611836019540505 0 -1 -1
1765 1 7.657767193033078 6.046501147110415 13.823606997564386 0 0 1
1833 1 8.540153657008775 6.1245835370274175 9.838756381010558 -1 1 0
1966 1 10.646344837019022 7.2147097669269655 9.918984490549208 1 2 0
1133 1 11.467468761641365 6.5152353295912215 12.177926244038154 0 1 -1
483 1 9.104587710365609 7.85087236226243 11.689335058158933 -1 1 2
617 1 9.019014212828246 5.461263609155087 12.056529679751236 0 -1 -2
1938 1 11.49459282187495 8.903101395306141 11.52509841273511 0 1 -1
1151 1 10.946873051546955 9.752207029464087 9.49247473674812 1 1 0
916 1 9.98838423569313 9.627006694551982 13.536588338731494 1 -1 0
723 1 13.69231299784747 5.107041071831507 12.179500897679505 1 0 1
1262 1 13.040018051478174 5.873877244523017 10.030894126871845 0 0 0
1600 1 13.132017526214842 8.1638089047701 9.984409670785796 1 1 1
1957 1 15.38656066693982 6.872764022676195 10.54588960334718 1 2 3
1199 1 13.571238803044636 7.586105542694893 12.242782239847047 -1 0 1
1302 1 15.262728249059977 9.055468852018945 10.171393824008858 1 0 -1