LAMMPS data file via write_data, version 29 Oct 2020, timestep = 300000

2048 atoms
1 atom types

-0.007747184792803452 28.35974718479507 xlo xhi
-0.007747184792803452 28.35974718479507 ylo yhi
-0.007747184792803452 28.35974718479507 zlo zhi

Masses

1 58.933

Atoms # atomic

2002 1 3.601942270750715 4.345439860641647 1.5676597914735895 2 2 -1
9 1 2.3348266383623395 2.7081572374524723 3.255548894664694 -2 0 -1
1569 1 3.182406573953288 1.9093083168397726 0.9402444493884956 -2 -1 0
1858 1 3.6750483341441567 0.5709426676715191 4.427688908488883 0 1 1
1279 1 0.44202135731729975 2.1194826953591694 1.4390408472494793 0 -1 1
1353 1 1.1027734141740728 4.587317162052544 1.937914912928075 0 0 1
915 1 22.42014939849416 0.5914923289680722 12.376098100412403 -1 2 -2
2009 1 1.3156331424518748 13.723137231122895 13.195062829898383 -1 -1 3
1580 1 4.498759065678174 2.105291380603881 2.7551759933656093 2 -1 1
359 1 5.843076701983196 3.899353858559714 1.1338112136480445 0 1 1
22 1 6.904919447912606 1.8535354223379845 2.3981522845592758 0 -1 1
777 1 6.965065814501562 4.145910484707572 3.251515217440741 0 -3 1
371 1 4.684360734426339 4.336218046129467 3.928809982542262 0 1 -1
21 1 0.688745305117385 13.880185292797155 0.23901739961342142 -1 -1 -1
698 1 7.961468111908319 3.5728985154839465 0.686383559812678 1 1 1
1490 1 28.23850244424071 13.809282962268044 11.255078432565563 -1 -1 0
5 1 7.119206673623168 13.931164208568529 1.5844049026578892 -2 -2 0
1624 1 5.70190392125373 1.5494754549322751 0.294635857721129 1 -1 2
768 1 8.998364029396473 1.5797958362251545 1.597835844074 0 1 0
928 1 9.363159433068645 3.6580893511431904 2.6493400873337087 1 1 0
526 1 11.729849878346549 3.582719740084537 2.2146014576792927 1 0 -1
1638 1 10.685441887507174 2.117588122431742 4.1008233764526985 -1 -1 2
516 1 11.457913964573287 1.4499241444665596 1.5290354452701738 0 2 -1
2010 1 8.059326821172252 2.419524025308975 4.528124500677988 -1 1 0
332 1 10.09567667081017 3.1935158465045497 0.3917253386179737 0 0 -1
716 1 18.714258767264504 0.29743352314428856 10.481194617277591 -2 1 0
999 1 12.990641346386978 2.0109265184392973 3.4425701611207575 0 -1 1
1657 1 13.764483298246203 1.5157877193323976 0.9832397825468419 -2 3 1
973 1 14.120575279233957 3.8206230686257987 2.040052287865566 2 0 1
1395 1 15.232347049153308 1.47614754739301 2.749361233862517 2 0 -1
178 1 15.052326645161273 3.840843827201937 4.351649414435018 -1 1 -1
1450 1 12.7920343661373 3.900631894862721 4.706785999327216 1 1 -1
476 1 10.262267162596375 13.863766116722516 3.463609772564787 1 1 -2
1766 1 16.125418755887146 0.9371471554946751 0.5573723051069871 1 1 1
852 1 16.373671724283817 3.2862035201779194 1.5470749934944708 0 2 2
436 1 17.12489138031087 3.632579901886453 3.731217169132176 -2 -2 -1
1528 1 17.820210739358743 1.2660751375729473 2.4207143077590128 -1 1 0
1155 1 18.728372448833703 3.0374750303171565 0.6512747331961084 -1 0 1
1480 1 19.412246854405595 3.2316548212110794 3.231125368046436 0 1 2
1570 1 20.127280154276157 0.8789848890322403 1.876801335580589 -1 0 1
1285 1 18.974178090590556 1.5769493634681016 4.609267606575344 -1 0 2
1875 1 14.410874166868364 0.000324093636912437 4.662832779251464 -2 -2 2
509 1 21.03909534354179 1.197352587876357 3.9752106228754727 0 1 1
1845 1 21.516553914347078 3.034928881089421 2.4651597528530975 -1 1 3
1377 1 23.847151631280347 0.9802149199629632 3.652137827935714 -1 2 1
51 1 22.35625955475696 0.9932355533555026 1.6013467348526944 -1 0 0
339 1 20.40611629028335 5.081048446489039 1.6389066518948436 -1 1 0
785 1 23.97760434424319 3.0163868569693464 2.196399288810955 -1 -1 1
1779 1 22.776355435777226 4.772957494833949 1.2508940221038496 0 -1 0
1226 1 28.33301339217703 0.5170177911756233 2.9104584290553683 -1 1 -1
203 1 24.79267849481237 0.7398159805211172 1.3958958795334473 0 0 -1
1862 1 10.570601272979545 0.15198247595938583 7.522492406903058 0 0 2
811 1 28.0436553951686 2.87473064241702 3.6825551072791294 -1 -1 1
1109 1 26.42289304995836 2.5565797838195072 1.8289782628677538 2 -1 1
317 1 26.17229650624759 0.8644554125421623 3.3154419007154727 1 3 1
484 1 25.640648345987707 3.117188841241262 4.059505472218665 1 0 1
309 1 25.14129630413877 4.1251497385603475 0.6120598312572466 -1 1 1
1812 1 26.835972355723953 4.680872254262804 2.754366296590802 -2 -2 1
472 1 28.303068000043638 5.119829665304091 4.789404452734117 -2 -2 0
988 1 26.824911645875574 0.3241112708655354 0.4787718113564728 1 0 4
300 1 2.2488247648397 4.612085548230149 4.431871657226491 1 -2 -2
1107 1 2.9701929026510405 6.181329190891867 2.7295996423318902 4 1 1
1050 1 1.7012907925599927 8.477361778495748 1.4961082082763153 0 -1 -2
840 1 2.7540518967114074 8.687067523875918 3.6233343184420814 -1 2 -1
787 1 2.0639577548170873 6.351016945206762 0.5173390489395815 1 -2 0
1349 1 0.923087465507686 6.887036417259422 2.9597895730558617 0 1 -2
1265 1 0.42891685137587204 8.636613981162634 4.424061286541699 2 1 0
2047 1 3.935380927213615 7.931403685448183 1.2754290831695212 0 0 1
432 1 20.355210396698887 10.783337085545462 0.3241809450044011 3 0 1
1566 1 5.02386807563312 8.017316309815971 3.717166215051539 0 2 1
950 1 5.316438877002361 6.090403002457534 2.264242188501244 0 2 2
393 1 7.245774335866609 7.700632492583556 3.164479446666756 1 1 1
1886 1 6.224042970409274 7.5470005351231215 0.5996428318737245 1 -1 1
585 1 7.718280692014886 5.782315543239638 1.716161687565535 0 0 1
1934 1 6.608267748530926 6.106775607176613 4.4557208497995875 -2 0 0
289 1 1.932104388624382 2.01183645024778 14.05486208059692 0 1 0
1916 1 8.930724887851103 5.836614239916544 3.93408010252078 1 0 0
1721 1 9.477520642126443 7.679157000655437 2.6187274475828954 -1 -1 0
644 1 10.21896669694195 5.77579746289584 1.5313918928066415 -2 3 0
1297 1 11.244934462761641 5.696488094422988 3.5418910380409736 0 1 1
200 1 14.326765951110003 13.978354073866194 4.3512980289622645 1 0 1
691 1 11.257554311567079 8.204510338324765 4.364478029195913 0 0 1
1129 1 15.17196049313969 5.403173886643177 0.2844217203390105 -1 1 1
328 1 12.008727308545932 7.632228611873883 2.2952065886260717 -2 -1 -2
1159 1 13.08702985548855 9.218389044280489 0.6483413819644661 3 2 0
28 1 12.565015721438852 5.6345440432557865 0.8847432824307179 2 0 1
356 1 13.721993361462534 8.312057317278711 4.119465538074383 -2 1 -3
789 1 13.528445835688876 5.814262037068064 3.3398289492465945 0 2 -2
1193 1 14.503393927832663 7.467549007105116 1.9102197532162946 0 1 -1
94 1 15.944030227322763 5.421117785240241 2.603366480031578 0 1 0
1359 1 15.834205713371334 7.571144413283452 3.9235922921789808 0 0 -1
1773 1 16.699287049507937 7.159610383807028 1.0688709022741756 1 2 -1
1659 1 18.25886888789578 4.9702978597522405 1.9621396359325292 1 1 0
1856 1 18.057374101696688 7.291455349689751 2.837093915942906 0 0 0
308 1 19.228062590449284 6.914330545364615 0.6019717888853677 -1 1 -1
1906 1 19.77352112995304 5.374852150901291 4.011133056230627 0 -1 -2
985 1 19.182852363934188 9.206731557158776 1.4918755688186975 2 -2 1
1145 1 16.721286124484173 9.49346558154236 1.8664274173648838 -2 2 2
1884 1 20.38980782223765 9.344882027241828 3.788745126731572 -2 1 2
1315 1 17.920964519593902 9.266644765098278 3.9524222562887386 -1 -1 0
659 1 17.332893217787245 5.863211770171088 4.82660451940734 1 1 1
1711 1 20.737662769875733 7.22680098343723 2.7866611099318925 0 -1 -1
397 1 22.291145829325906 5.251502889908484 3.468424544798651 -4 -1 1
517 1 23.041323921622116 7.332385618106303 2.0944110512979277 1 1 -1
1243 1 21.61976093320139 9.1052394891817 1.0652920956960306 -1 2 2
1695 1 22.733940239670652 9.364710146501958 3.477851219347508 0 1 1
1175 1 24.0332409279021 8.704870611378137 0.5677714435165014 0 0 -1
1114 1 4.555526135111755 13.977617106996188 1.7346585738696456 0 2 1
1119 1 2.3222290177068765 0.2014118780783348 2.5636664355811893 1 1 -3
1405 1 24.403977622939102 7.362442181181523 4.182658849869415 4 3 1
1311 1 24.840921493316714 5.2239674101537 3.1007507885200254 0 2 1
695 1 27.468286229228113 8.607508956716597 2.2329958078994796 1 0 1
1163 1 25.611585243797933 6.569398583770503 1.4210829615658171 0 1 1
395 1 26.897656501393143 6.875740271693051 3.706888216140138 -2 0 2
254 1 27.927125911548274 6.408990311482634 0.9670671990663657 3 2 0
1472 1 25.181995916933303 8.83200340847952 2.4644641561544867 -1 -1 1
1631 1 1.2615820559454562 10.368767317677454 2.8916652221984833 0 -1 -1
115 1 2.279463233539826 11.868061049012416 1.1645266940530465 1 -2 -1
1801 1 1.2920311643843507 12.762964399096518 4.01706559858896 1 -1 0
1345 1 3.5627403257863914 12.448979791836683 3.3821806024111702 0 -1 1
704 1 3.453387068419261 10.277736489029712 2.4047879984120337 0 0 0
226 1 21.044641980239533 0.3944049502979683 9.935436189960248 -3 2 -2
909 1 0.16580719915386305 10.270552450412891 0.582409907123805 1 1 -1
219 1 0.16944097874155517 12.699866995682534 1.9172482060817517 0 -1 2
1661 1 7.063205197074315 11.675475645077753 0.8235322587174086 0 -2 -1
1491 1 5.819703713921611 9.612944906631638 2.039404423323851 1 4 3
2027 1 6.027113248001796 12.352065539233873 2.748179409374161 1 1 3
255 1 4.656925637084968 11.630971118225242 0.8232719477289002 0 0 1
98 1 7.454341693146766 9.964479882106131 4.10122055537982 0 0 0
95 1 4.796573644227709 10.296516943168577 4.071890533758435 1 0 -3
905 1 9.645009882989035 0.116616373791035 5.44116299783147 -1 1 1
806 1 27.775804352779446 9.449303102788692 11.504430098436162 0 1 -1
757 1 17.108415887340605 0.2320196167171864 8.665467957074663 0 -1 1
1960 1 10.44757493666233 9.537373873813964 1.3812729307982639 -3 2 1
155 1 8.818861209284128 7.642588814112705 0.5955911863589136 1 0 1
388 1 9.536982106848818 13.653558462385055 1.2695552935637615 -1 -1 2
554 1 8.12539881506965 9.44314416511718 1.6200794344338434 3 2 1
2038 1 8.57588279014022 11.938132387075058 2.7698070670976858 -3 2 2
1466 1 9.743346569016973 9.979313465288016 3.7254985502070035 1 1 0
352 1 10.776321678228802 11.947844858313779 2.1873713548498963 -1 3 1
944 1 11.55609476296911 12.092343054503129 4.456830114046982 -1 -1 -1
1698 1 12.34253802082068 10.069099894973744 3.226267629919589 -2 1 2
558 1 8.944501360671035 12.178947183660963 4.957198514773299 1 -2 -1
230 1 26.027007442663916 11.899523473271493 10.72630101837118 1 -1 2
935 1 11.651638763090926 13.52123974093038 0.33759020403466966 2 -1 0
639 1 14.593169408581792 9.780829310353043 2.5427139111063664 1 0 1
369 1 13.958511500086983 11.75949706509099 3.695655841562639 -2 3 1
989 1 13.157499546323859 11.715504457260215 1.1661249671904246 2 -1 3
186 1 15.019507589180565 13.376777767258737 1.9376038462431504 -2 1 -1
1606 1 15.34750962476878 11.285588614383013 0.8507199942466676 -2 0 -1
1053 1 12.648400128930785 13.676258827991445 2.438826016690307 -1 -1 1
1275 1 18.048046482953872 10.992589288500854 0.4970554210537612 -1 2 3
1694 1 16.33960812632155 11.57661207572422 3.0434933536131448 0 0 2
1116 1 17.24881839943931 12.715922923266495 1.4136645030843729 -2 -1 -1
1156 1 18.829841328607444 13.26064609962453 3.7956652694495614 -2 1 0
1316 1 18.857784895910633 11.17241198543566 2.709417817828146 0 1 -2
1863 1 16.479708499641646 14.105655729623095 3.9278046594761933 1 1 0
78 1 19.837692827308636 12.908327289244879 1.1809913094600548 0 2 1
224 1 20.387453538852448 11.45706781515683 4.866950029891298 -1 0 0
564 1 21.42853568110153 11.259772655071135 2.5731158696357563 1 2 1
1776 1 21.29830716548331 13.589888304389786 3.5706961821507583 -3 1 -1
52 1 23.415608862509103 12.827846666783865 2.7707975395874844 1 -1 0
1067 1 22.913995542271216 11.348874620593582 4.378960586655528 0 -2 -2
1619 1 23.37680807514375 10.80590886895147 1.6668790573592458 1 0 2
1831 1 22.05557770433372 12.882388788205247 0.8085303957326399 -2 0 1
582 1 9.303569108576044 11.480247369651527 0.31377461225346065 -2 1 0
1679 1 27.13059352478122 10.658745883770878 3.367779363383952 -3 1 -2
917 1 26.193587794835203 10.30077622011629 1.0027018222906234 0 0 2
415 1 24.878064033352523 10.788643952517914 3.434498145739623 1 -1 -1
749 1 26.08345881743547 12.416260761362025 2.3227744857886776 -2 -1 0
1852 1 27.16036063939127 12.93768272062166 4.3993397917923325 1 1 2
868 1 24.71564045779322 13.185950020953351 4.885697342637711 -1 2 0
293 1 1.2731320659438106 0.9118850339294297 5.0502676462113 0 -2 0
107 1 2.3368127459963453 3.404288254597279 8.069585932219958 0 -2 -1
574 1 2.819368258210065 1.1577071419256533 6.88580855756 1 3 -1
770 1 1.1407893088856786 2.997370687592597 5.862801968534349 -1 -1 -1
326 1 0.3725827285981798 1.0738267789720322 7.160738840871895 -1 -1 1
424 1 3.3787466738833194 2.7250602127104275 5.2582565707947255 -1 -1 1
613 1 28.19355945318677 3.370449833390189 7.76723443848499 -3 0 0
260 1 1.584551335190872 1.4318381545724919 9.447540448939742 0 -1 3
1177 1 5.8968656250098 2.2728422364514294 4.924264161160987 0 0 -1
995 1 3.8045505301363987 1.3556502513034867 9.143750135446359 0 0 1
12 1 7.136498133814627 0.35406585039418553 5.710721985738656 0 -2 -2
2019 1 4.581706851527325 2.688304366737667 7.4758922334513285 -1 -1 0
1478 1 7.13128581873059 2.4751804180886388 7.1962045500386065 0 2 -1
1031 1 6.2605958983568915 0.595219094441551 8.372896870598236 1 0 0
1965 1 4.856040426416797 0.7718824238633339 6.262247087475669 1 0 0
1697 1 8.148901656948443 4.333972232155043 5.695859365068974 1 2 1
268 1 5.874143834462728 4.326919807831046 6.202877668477813 -1 -1 1
1022 1 11.77006802322813 0.36595449677308295 4.770929103297901 0 -2 2
666 1 10.524347448240126 4.184512810216167 5.123319618687414 2 -1 -1
1718 1 9.576050572329697 2.302066277665506 6.5381288528249 0 1 0
863 1 10.850999436997494 2.2998924412522914 8.609896315700528 1 1 1
628 1 8.44823166498085 0.7385384285200978 7.9503537254740415 2 -3 1
1712 1 11.68246453739919 4.245375758849695 7.490555508174674 -2 -2 -1
101 1 9.710150771930559 13.631544898983313 13.772493518955288 1 -1 0
1828 1 12.048206948683392 2.2174201130538744 6.289280961433601 1 0 4
1290 1 2.308842406246578 14.14508423763328 2.0762962956964963 0 -1 2
1833 1 8.7000638264461 2.7523222743968434 9.28370754825135 -1 1 0
378 1 14.591777885234073 0.36304417560225405 9.054933696832537 0 1 1
1781 1 13.905988329186961 4.146575858595409 6.820182352657509 -2 0 0
458 1 14.603500350740045 2.2261031168980256 5.920700918432775 -1 0 1
1543 1 13.381425677077248 2.618758047644379 8.514390145286876 1 0 2
1496 1 15.344284922951468 4.490998264067667 8.923165760769342 -2 0 -2
1386 1 15.884882635124134 2.237748860595556 7.816119461129131 -1 0 2
748 1 13.227012644100876 4.750818589670811 9.56882168908111 -2 0 0
740 1 24.749225763185073 12.38679927442353 0.15816209502733125 -1 0 1
2043 1 27.673645408268406 4.189534279090827 0.2980451491335526 0 -2 1
752 1 16.468551489655106 3.945260979136938 6.454398160430759 0 1 1
910 1 16.812738403820354 2.011111179494191 5.401346454834174 0 -1 -1
821 1 17.95185017407583 2.1159943074111216 7.38095045911177 2 1 0
1581 1 18.85517165053151 3.7751475254254774 5.840718718557436 -1 0 -1
615 1 17.62435824278768 4.4892050430203945 8.459182823492428 1 -1 0
382 1 19.6107565114987 1.9692784459690251 9.050683318357766 1 2 -1
74 1 20.13687744989482 4.122689161922284 7.86799744728729 0 -1 -1
1080 1 20.295720908927834 1.7829674421455235 6.812631390303421 -1 0 -1
1021 1 23.32551177249121 3.2749757753561255 4.486139036127432 1 2 0
442 1 21.18688141952989 3.3452592680173723 5.404857330530183 0 -1 -1
866 1 22.637245831442016 1.5586759092628981 6.130357904034031 -2 -1 1
893 1 22.452110787854807 3.9111858981716083 7.24484690178526 1 2 -1
677 1 22.032630779295744 2.4431133745156908 8.685945231228134 0 0 1
596 1 23.78404330172212 4.029992206540793 9.327685371996768 0 0 1
978 1 24.091279985947274 1.8948747062675058 7.937028219623401 0 1 1
527 1 24.778408307414374 4.034049204934224 6.685363212222299 1 0 0
119 1 24.937592345097606 1.6175096702435303 5.544748774960176 -1 -3 1
522 1 26.454439210761628 1.677730823783605 7.300002341747642 0 0 -1
121 1 27.084818237420443 3.4877254264641735 5.986957692124343 -1 -2 0
1190 1 27.341329411098087 1.3542382838502953 5.098212592406141 -1 1 -3
490 1 26.168107895966905 3.9141174296465278 8.950269282686731 0 2 -1
1211 1 3.4196031485266323 4.992474937217906 6.6361739702144 -1 1 0
128 1 1.2090387150472537 5.202764389343548 6.858954912681747 1 0 -1
738 1 1.7761110601649723 6.956328023124287 5.270006302711076 1 2 1
855 1 3.2616705917358204 7.1444513083449115 7.208944106274568 1 1 2
1001 1 1.001634737719024 7.336580736373296 8.036149117646445 0 -1 -1
120 1 2.544865809718689 5.496517056522128 8.922373201391421 -1 -1 -1
287 1 2.870756809206216 9.300945553567894 8.709041046711791 1 0 0
1982 1 4.144637468987113 8.736893802603756 5.85248690851886 0 -1 0
1522 1 3.9314166182147723 6.368176721825276 4.797918182635745 3 0 0
589 1 7.244989738375857 4.932213762528193 7.944103925877594 0 1 -2
952 1 4.857500769839546 4.793094385495679 8.536350928995184 2 -2 -2
145 1 5.598446555089219 6.437016714101767 6.755609276309662 -1 0 -1
512 1 6.467662614580952 8.319635758844168 5.749621302855962 2 0 0
737 1 7.401859526928788 8.379301798484002 7.963752579664283 -2 3 -1
1172 1 6.900725839753605 6.849496555188532 9.267512223375881 -2 1 0
1427 1 7.965223283496635 6.644953803872172 6.398954033587423 2 1 1
1950 1 5.087468045874914 8.864954729791942 7.9797501656499135 -1 -2 0
1084 1 4.646880008512098 6.825235625741603 9.29414254869773 1 0 1
1957 1 9.537716228808709 4.545324404129952 7.782919824630091 1 2 3
1577 1 9.21642448004461 8.190380166578015 4.9270037319495685 -1 1 -1
1056 1 9.381994911387654 7.076439043201798 8.41935219413989 1 0 -2
1521 1 10.067517516379818 8.99063072182554 7.353859680559096 1 -1 0
61 1 10.178139854863904 6.2946181997234705 6.278889188718048 0 1 1
1618 1 11.829301375899378 6.726033101054635 8.536758491029019 2 -1 1
1254 1 11.18187917769435 8.828609983190946 9.365666732210359 0 0 0
1584 1 11.997519973489357 8.18588294601127 6.7067362610502865 -3 1 1
1475 1 14.752137527137213 5.840065490702567 5.495974966952839 0 2 -1
724 1 12.517042659618584 6.076602620641972 5.584902314945099 2 -1 1
1503 1 14.012524219006924 6.281909095109079 7.732476722312588 1 1 1
390 1 14.670176144338026 8.135823762637472 6.292326899935152 -2 -2 -2
421 1 13.516743557343563 8.346742411937457 8.755231703814534 -1 2 0
1298 1 16.021217784171064 8.30290362738988 8.414855618235952 -2 0 1
1139 1 16.445919245699137 6.263847332455747 7.3137691146832005 0 -1 -1
982 1 17.134954571961927 7.93939253502084 5.814792705769475 1 1 -1
1675 1 19.210178063534528 6.011934073290364 7.104796310420722 -2 2 0
773 1 18.317268844903197 8.078769102172572 8.084106716452018 1 -2 2
1991 1 19.56721873542871 7.624540736457536 5.170404078280669 -1 1 0
1519 1 19.80329275823062 5.994417277496141 9.176024686800458 -1 2 -1
1962 1 17.674113991364607 6.284776552991773 9.574822063633059 0 1 1
514 1 19.320912540795867 9.756683879518768 6.31839863761301 -1 -2 1
1728 1 21.957616542887536 7.615281603302699 5.029750121676724 0 2 1
1498 1 20.800175340910187 7.802113124295298 7.308897377921246 0 -1 1
1610 1 21.12097297614661 5.60183749197405 6.08874974217427 1 1 1
618 1 23.372566369188 5.653567390841292 5.700697278887624 -1 3 2
100 1 23.353729434313955 7.817330121792727 7.08910019403637 1 0 -1
1512 1 22.02414645087793 6.199591494503458 8.245234046001201 0 1 -3
170 1 24.149448911875496 9.35897907436086 5.422084088401244 -1 -2 1
206 1 24.701609340410073 8.108239062425278 9.257946044008378 -1 0 0
173 1 22.461729726737218 8.420217728772014 9.400459379222497 -2 1 -3
703 1 26.351362557145485 9.059022301937723 4.841083492896093 0 -2 0
588 1 27.898080244172412 7.21510193452623 5.995610933716667 -1 1 1
541 1 25.978902877244565 5.478065524334919 5.087168808915264 2 0 0
1869 1 24.301987454281758 5.8830452589984406 8.077204781204218 0 -1 0
1332 1 26.740858999630603 5.460155686315602 7.378299131015311 0 -2 -1
595 1 25.61318134076685 7.461960408816113 6.521539238947906 1 -1 1
1041 1 26.937409402330026 7.531742841619914 8.517538898215566 0 0 -2
1147 1 27.721667561935007 9.338128168376128 6.971302506392135 -2 3 0
2022 1 28.343486433065635 5.336390904061858 9.140686111062713 -2 1 2
1755 1 1.8250692234778871 9.131061027902454 6.50900558779068 1 0 2
281 1 0.48789435225278904 9.698855445135944 8.931516308872192 2 1 -1
1730 1 2.887146125369906 10.7689514773339 5.199217988696811 1 1 -2
1235 1 1.5487547555434908 11.373614610928739 7.575470090293036 4 2 0
1652 1 1.6257428510013607 13.704396846804084 8.653974248904603 1 2 1
795 1 2.1864944033559635 12.992043446990207 6.142344329641517 1 -1 2
39 1 0.5389242781959716 11.02103962667335 5.3424777342230465 0 0 0
1810 1 3.810517065921126 10.96279179222191 7.231762179648822 3 2 0
1020 1 3.8960069996163313 13.326593889099755 7.967430081461223 -1 0 1
1839 1 2.631240191621253 12.050461920043482 9.650154688018171 3 -1 1
1974 1 6.626849995704887 12.311702426457071 4.918586434174504 2 -1 0
1908 1 4.44586678832417 12.562864094312056 5.564481113629978 1 1 0
1680 1 7.413665663386654 11.106765127472379 8.332913403528174 1 1 0
338 1 5.890137302942994 12.617563704872675 7.381766551291211 0 1 1
1502 1 6.0729162773211405 10.515402959790412 6.334518279785691 -1 0 0
1340 1 5.122541560507134 11.230479098786823 9.105830881125705 1 1 1
1286 1 8.20296640536384 12.771298170536115 7.155406260577867 -1 0 0
1484 1 8.348223762396332 10.249630037003504 6.306798672017974 1 0 2
1504 1 9.732702181862505 11.017318030955606 8.510814696641381 0 -1 0
1860 1 10.676908197969656 12.543454885054155 6.386323853968141 -1 1 -1
637 1 10.878972150725136 10.256170293424885 5.575508223912372 0 -2 1
1486 1 12.077604455183295 12.767852616795604 8.753184744435844 0 1 -1
1944 1 9.811751581216093 13.280839752777368 8.967991131597008 0 3 -1
161 1 12.141262710104133 10.804587338500859 7.773361307585554 -1 -1 -3
755 1 15.667632844382002 9.809267363406953 4.7702562743413806 -2 1 0
561 1 13.308796898540509 10.200015463923947 5.769569168663837 -2 -1 -1
290 1 13.139680259000878 12.53275367136696 6.165562799261754 -1 -2 1
1820 1 14.870933266998147 10.499077520779943 7.529126905996806 1 1 2
1358 1 14.421636420531637 12.628197853391262 8.211977365310435 0 -1 -2
479 1 15.544882908000629 12.095468018643672 5.499881600241483 2 -2 0
491 1 25.593885773465523 9.872978603293376 12.369336033071862 -1 -2 -2
1423 1 4.4577139344851675 5.794305102468326 0.06591049169491615 0 2 3
849 1 16.751377449633324 12.093130632249835 7.608056536501437 0 2 1
1074 1 17.66197406178422 11.50656431288061 4.926531238094148 -1 -1 -1
1110 1 16.86183889252662 9.92109183772925 6.914165877537618 1 0 0
1310 1 18.498941103266624 10.211863931256348 8.747429307628678 1 3 0
533 1 18.901320793441165 12.103604591991504 7.171024215743754 0 3 1
1876 1 20.2404306490213 13.756295391509248 6.042347747193921 0 0 2
705 1 10.914755674176755 7.340820550953517 0.025465359036825452 1 -2 -1
1364 1 21.768403181573802 9.950180621032091 5.86914456439363 2 -1 1
2016 1 20.831547816120207 9.95198592743384 8.263961062936731 1 0 2
2028 1 23.00759591401672 10.173765364553738 8.05915811900427 -1 0 0
280 1 22.65781412468909 13.65518774200351 5.478963441344716 -2 0 -1
567 1 21.516404302794406 12.227363006262884 7.0706655578390825 1 -1 -3
1221 1 22.942121601509704 12.352252720390396 9.090988753590134 0 0 -1
1759 1 23.91442576272611 11.533774259038632 6.507748511172006 -1 0 0
1536 1 23.39034297067763 13.77151912104628 7.444797879209919 0 0 -2
355 1 2.6884813449178773 9.777199058960528 0.07989805894029123 0 4 -1
878 1 9.118642933113469 9.503678871115929 14.052786384073663 0 -2 0
1013 1 26.612715327077503 9.836267319305998 9.623884672061406 3 -3 0
185 1 25.3887945343332 9.53814243890389 7.573687771977988 -2 0 -2
267 1 28.09516261747644 13.08409943844197 6.43931481710953 -1 -3 2
741 1 27.292243943054842 13.653136192134772 9.018909189143407 -1 -1 1
591 1 27.610289354680923 11.469121769183877 7.818345919177605 -1 0 1
130 1 25.764334586280555 13.154248773106612 7.044678391378679 1 -3 0
140 1 24.996130576692785 11.72261911247358 8.41337026204156 2 -1 -2
20 1 26.160852316093795 11.164927828950605 5.957320938024468 0 -1 0
231 1 18.807098203129783 14.06107330133786 8.665226984424876 1 -1 1
500 1 2.901601368239298 1.8222775490419356 11.695662686203683 0 -1 -1
623 1 1.3322363926763707 3.536462210259873 10.45176995258036 -1 -1 0
1741 1 2.5574754769166597 3.770791562085067 12.633258112345862 0 2 0
899 1 0.44101990803785246 1.4903747955666191 11.948632276784672 1 0 1
1481 1 0.36815073961064015 3.890188235666546 13.159751596926805 1 1 -2
1446 1 3.691371383280818 3.5064290416111303 9.965391889655248 -2 -2 0
1255 1 6.25312350905838 2.744318814025167 9.272428034542822 1 -1 -2
1457 1 4.290790902821391 1.546508151754752 13.648375761201287 1 -2 -1
1772 1 4.944949213705034 3.2812089042016788 12.226743429808243 1 2 -1
835 1 5.072588511439575 1.291223172615688 11.200089709555202 1 2 0
2034 1 7.294934675768972 2.9629064966157976 11.442849986108106 2 1 1
1938 1 6.681198120101932 1.3530372609879464 13.142109693140107 0 1 -1
1372 1 7.53844338085477 0.9909054391169589 10.402036813318784 0 3 0
953 1 8.668356096434996 3.2083347830754754 13.420198144497679 3 3 -1
1739 1 9.142283979726082 1.0390614484981338 12.464665702156505 1 -2 3
1090 1 10.035441112434896 0.6288039881386845 9.95845270530411 -1 1 -2
682 1 11.136378615153143 3.2640144152786603 13.088005399998279 0 0 -1
1834 1 9.716362565935928 3.0362684337418058 11.280172598043006 -2 1 1
669 1 12.063573379676445 1.2120281105648016 12.446031972958949 0 1 0
747 1 12.381770624460104 0.8155565980645462 9.715530200770022 -1 0 2
1350 1 16.389883693751237 0.5777249552181284 11.083309051533483 0 0 -2
767 1 12.234880196001841 2.859156098807486 10.581819533003376 0 -1 -1
55 1 15.47462251520514 0.9744449998944698 14.029269010295117 0 3 0
846 1 14.331603263584114 0.560913180102755 11.706347164938387 -1 -1 -1
1923 1 14.6873383551491 2.183002375775117 10.395387659098258 -1 0 1
204 1 13.46582308060378 2.715015709702815 12.77210815530324 0 -2 -1
1029 1 14.426876643303604 4.654797238621019 11.520114212039227 1 -2 -1
81 1 15.91961128824394 2.8368582245375196 12.353236247985011 1 1 1
1762 1 25.010789168947014 12.513277065059933 13.33365821730005 -1 2 0
820 1 19.70264415984449 2.6776394690938323 13.79671918552151 -1 1 1
1443 1 17.034965275373814 2.5197399030385164 9.809027305845099 -1 0 2
104 1 17.711031952393206 0.9463328881460831 13.295034158564128 0 -2 -1
1260 1 18.357531712138034 2.2811381885713446 11.73824523245777 -1 1 0
1645 1 19.24538669398043 4.123324620645174 10.430809078602751 -1 -1 -1
180 1 17.008502478836576 4.5490945334890425 11.137560202768013 1 0 3
1081 1 18.11146772112086 4.62065013344524 13.179838232574227 -1 1 1
1382 1 27.062339244474508 11.543220044450239 12.922611896155836 -1 -1 0
1261 1 20.192627541146464 0.4974166697674489 12.517017314320489 -1 1 1
930 1 24.820638703560135 14.014066642250576 9.586724677846025 -2 -1 1
1633 1 23.311004798159637 10.360682956480881 12.544880591435973 -1 2 0
1434 1 21.78034180294965 4.262063056268467 9.913330457640997 2 -1 -1
1564 1 20.636255933441753 2.3973163028411792 11.117372207808458 -1 2 -1
36 1 22.068040900966942 2.7227864740747973 13.406739505735228 0 2 -2
455 1 23.183422856067956 2.0325064121052954 10.813490979914794 1 1 -4
743 1 23.128987095154777 4.27236465586907 11.987175655237843 -3 1 -1
573 1 20.938418713890414 10.759079523265248 13.202502564542767 0 2 0
1180 1 21.52568618476831 6.604097902019028 0.4078922410815751 -3 1 1
1200 1 15.749927554015816 0.15517760695342275 6.63648373650227 1 1 1
166 1 20.417038570988232 12.79791962899397 14.132103522361342 0 1 -1
1422 1 21.8018688208862 10.295314213945515 10.69963142347057 -1 1 2
377 1 24.377014768834243 2.0724952966617445 13.044372851473192 2 -1 0
559 1 27.546349088983852 1.4980413912216635 9.528491339553517 0 -2 1
46 1 25.34244477325585 1.7539103775551017 9.847223580366414 0 0 0
1708 1 25.31070650989848 3.6086795658058994 11.334739054726601 0 0 -4
1525 1 27.582943746911383 3.400316835170499 10.919592396486614 1 0 1
1447 1 26.479058120790178 1.566403830356986 12.303538600302504 -3 1 0
1406 1 26.280805053660877 3.9627008398510273 13.396452418172446 -2 2 0
1327 1 22.711125670999245 12.281013374558878 13.993184392619582 -2 -2 -1
665 1 3.6493713796016154 5.525026403907828 10.839930698877836 1 -1 -1
1278 1 1.2598909043566016 5.610057406052502 11.469728035384296 0 2 -1
969 1 1.9459887186471887 7.666846739035822 10.01845050006991 1 4 2
196 1 3.5349299882824603 7.7237172250157995 11.962888430460518 0 1 0
581 1 1.2204031724864013 7.8297515957462 12.3261026771316 2 0 0
896 1 2.3627088765258035 6.068418120983923 13.477404352045726 -1 -1 -1
848 1 7.316147611961151 7.207524809693612 13.43527037644188 2 -2 -1
394 1 6.07578262949419 4.818745290902075 10.582956800789145 0 -2 -1
1701 1 4.691842529645269 5.620204300086842 12.887542012949748 0 0 1
617 1 5.610153199699868 7.254773894137146 11.387279326406858 0 -1 -2
126 1 7.007579402279091 5.21198150765615 12.445853837652754 1 2 0
1043 1 8.048925977070885 7.049155463321139 11.282424558357235 -1 0 3
278 1 6.488299868676025 9.149581364821715 9.947104135554968 1 0 0
146 1 24.535561360372384 0.02766171723689386 11.655856670210666 0 2 -1
1904 1 10.905530060013671 4.715718264157419 9.716926845907272 0 0 3
1990 1 8.434003394371915 5.017001704163874 10.242690870420748 0 2 1
341 1 11.849041493276939 4.994271011561239 11.816903160799145 2 -1 1
1346 1 9.019109333323954 8.928022146591756 9.72991739343242 -2 0 0
1736 1 9.369321179255197 5.263855140323635 12.464819324729936 -1 2 0
645 1 10.463697187813876 6.802309525622473 10.71842574865398 0 0 0
634 1 9.481222467146884 7.42969882626816 12.94464100259111 0 1 0
1765 1 11.91491983598232 7.20367615295853 12.762046168730048 0 0 1
227 1 10.099836681682849 9.223304626600598 11.621248918089787 -1 1 0
235 1 24.07259910229842 4.342190771182595 14.068736533812226 -1 -3 1
735 1 21.655871701014874 12.54358148116317 11.555939547788816 -2 0 -1
1230 1 15.814363385013811 5.291227555108331 13.228229388515516 0 1 0
520 1 13.447404418298747 5.218058057664397 13.629752774590024 0 -4 1
1998 1 15.120489799217376 6.623764223399132 9.812369082900727 0 2 2
323 1 12.605373939554864 9.006169447070013 11.260470675312868 0 -1 1