LAMMPS data file via write_data, version 29 Oct 2020, timestep = 300000

2048 atoms
1 atom types

-0.009770768627987536 28.361770768628194 xlo xhi
-0.009770768627987536 28.361770768628194 ylo yhi
-0.009770768627987536 28.361770768628194 zlo zhi

Masses

1 58.933

Atoms # atomic

1522 1 1.5109138832788687 1.7802293324422211 3.440295024247543 3 0 0
1213 1 2.6210560607608384 3.0071770408260976 1.8696047402551006 1 2 -1
158 1 0.45872286885279057 2.63553092700433 1.3278141953285876 1 0 -1
2002 1 1.2549124252724302 4.598958876937246 3.094335599524992 2 2 -1
516 1 3.904620058720413 2.5424717350452664 3.851067384565161 0 2 -1
1215 1 3.2303511285753643 0.5350240311620144 1.9761035175738821 -1 2 1
1770 1 3.577911467822137 4.847114367746585 3.384895691596899 -1 1 1
1073 1 14.09357310184021 0.16845513865686712 2.5985707557190367 -1 0 1
1265 1 5.171324314284185 2.1762466972320382 1.7524899019242508 2 1 0
1678 1 5.851933396577467 3.780601809502549 3.508004199622263 2 -1 1
53 1 6.105313041435624 1.1615853012205355 3.7223512688764884 1 -1 2
1065 1 7.5596311181054645 2.50290811672982 2.2724794780225492 -2 1 1
478 1 4.563485693009957 4.516818985770407 1.3619893636532605 1 1 -1
375 1 7.0162523068403635 0.6779766382225118 0.5499862892548792 -2 1 0
508 1 7.20925317922383 4.824910716733079 1.860258166398904 0 0 3
1994 1 7.950432029701808 14.058017081613624 2.587035870671359 -1 -2 -2
998 1 25.476535193186553 14.168692665068455 8.928649674437134 -1 0 3
981 1 9.028866982196911 3.866543492820296 0.667494778232574 0 2 3
363 1 8.44083128794816 1.6286730211521847 4.302171302898076 0 2 3
528 1 8.18366313967974 4.30821027197825 3.887486080692404 -1 0 -1
905 1 9.964127578395942 3.0868807927781243 2.6066232971205836 -1 1 1
1054 1 11.57481842769331 1.7244123327853833 1.4841750133974223 3 1 1
880 1 10.21538629496528 0.5923300828722056 3.114536032039432 1 1 0
1569 1 9.227944187440377 1.4273000853293234 0.9874285287847062 -2 -1 0
1997 1 11.466181855784155 4.16707878068695 0.9767006842440039 0 1 2
852 1 12.358694013956399 1.1104296295866587 3.7268284264590883 0 2 2
1427 1 12.330904416490847 3.806853500241991 3.409425066600927 2 1 1
825 1 10.495349038504221 4.776443248318086 4.4053285816693535 -1 0 1
1107 1 10.133333038064396 0.24819638566855023 8.446557542080429 4 1 1
1949 1 14.144749648220534 2.5106031624783323 2.363709492592575 1 2 2
615 1 13.288677406281328 0.5541837335601305 0.37780605011592167 1 -1 0
1584 1 14.735278054563992 4.252936651374771 4.296551454596504 -3 1 1
1564 1 20.4770877146453 0.31059760719077867 13.11181170997996 -1 2 -1
2020 1 16.3418048352783 3.442594378598584 2.1538335005696916 -1 -2 0
808 1 15.360425934020201 1.7379974873187038 0.4465915932095001 -1 1 -1
1153 1 13.266127918318272 3.2890865720844493 0.14350827554442921 -1 -1 -1
1739 1 16.536420703155255 1.1378131055745688 2.888746753148072 1 -2 3
1029 1 17.800917938310963 2.611009893027402 0.7525041302715758 1 -2 -1
883 1 18.94394327723193 1.8994409915347754 3.029297901748614 2 -1 -1
1624 1 6.570448941384815 3.1646881888941305 0.12916510048282048 1 -1 2
1080 1 17.11039552070299 3.055902321781688 4.488280864090127 -1 0 -1
436 1 18.38471211275051 4.370388936472004 2.8108872571578862 -2 -2 -1
1867 1 20.102917341012372 3.624529742379264 1.1684476478807397 -3 4 0
1471 1 20.289906095757463 1.388803667039437 1.0565377757444046 0 -1 1
61 1 21.022328493123744 2.93872266612452 3.27926797029982 0 1 1
618 1 22.38623576136712 2.326730218220612 1.2983367678581832 -1 3 2
1214 1 23.049268828799473 1.767810550101681 3.373028227400854 2 1 -1
862 1 21.172259953581918 0.3496713800838549 3.461308306395375 2 1 1
533 1 23.01845832394788 4.053583954021781 2.870605848714246 0 3 1
818 1 22.604912459021527 4.856506105502289 0.8080345161089394 -1 1 -1
1332 1 27.851417364100048 2.9131237181097913 4.353013967775598 0 -2 -1
334 1 24.971043741382662 2.9540701635421716 1.884757266865425 3 -1 2
1386 1 27.123941752207884 1.437323466342881 2.567996951850296 -1 0 2
246 1 27.152487241802394 4.073721034760386 2.4262231599760864 0 1 3
1821 1 25.394264775587622 2.2414891840576567 4.0119219546766365 -1 -1 -2
472 1 24.792395507581073 0.6253185599551293 1.8718672827315102 -2 -2 0
670 1 25.43088727311095 4.804285580341346 3.659421538606577 0 -1 2
790 1 0.49008630923599045 5.241620925076894 0.8688971037782933 0 0 0
1050 1 2.8233144779454102 5.816951653837595 1.3798380482129509 0 -1 -2
1548 1 1.1568847224506749 7.045542729527542 2.6341357200279996 1 2 1
958 1 2.76519414712373 8.435052551870815 0.7809363310638286 2 -1 1
1507 1 1.7862595387251614 8.747306604512758 4.289693345516835 4 3 0
197 1 3.544333270806412 7.608065548104138 2.915735377326826 0 1 0
342 1 1.0786476408149503 9.671840030699395 1.9952924412605375 1 -3 3
137 1 0.31071415025514093 7.899257799099792 0.28994581111259404 -3 -1 1
355 1 4.631280647968672 6.94239831091167 1.0657726356045647 0 4 -1
2007 1 5.562371875377854 8.896015720853656 2.6790256535461165 0 0 2
777 1 5.453430088915465 6.175488675453255 3.1889684176364037 0 -3 1
1550 1 7.075837541853679 7.416266418252032 1.5176228196896389 -4 2 2
512 1 4.224590483942456 9.159607815153871 5.033485912014845 2 0 0
1810 1 7.8706236054444565 8.680686689810841 3.399384089286729 3 2 0
1944 1 8.054654976651463 6.608899010927344 3.5883550024216566 0 3 -1
458 1 9.488149671849296 5.545211621482058 2.4730992396854163 -1 0 1
1043 1 9.806787645106487 7.751523693730537 2.0340782467021428 -1 0 3
863 1 10.254383296165988 7.286025491711747 4.209186089947029 1 1 1
1998 1 12.058037050629885 6.062370875032438 2.696256514746072 0 2 2
1000 1 12.302586438794549 8.509675264192966 2.225623740633363 1 0 -1
1879 1 11.45301678040663 6.735536646080669 0.5086723596880941 0 2 -1
1794 1 13.853328126445687 4.990156203508922 1.915754800967334 -2 1 3
393 1 14.75153015789493 6.687910617061786 3.8955967860633454 1 1 1
1129 1 14.052679414879432 7.202283306965546 1.5113913676377853 -1 1 1
795 1 12.731073953092457 7.908712783695106 4.438927946180598 1 -1 2
935 1 14.951153342390702 9.177685626451773 3.5451837653029856 2 -1 0
845 1 12.705363765436886 5.395654526864899 4.663335604061685 0 1 1
145 1 18.054678777406483 4.8356101364430195 0.25623822384211775 -1 0 -1
1751 1 16.43379419974336 8.15436126429467 1.7826172200298205 2 0 0
1155 1 20.130891539026088 8.831306950198433 0.5322525105483003 -1 0 1
204 1 16.176473880648405 6.0087474675310215 1.9385443911596547 0 -2 -1
1279 1 18.636536766632855 7.0677886285040925 2.138065312192782 -1 -1 1
1618 1 17.166187602503825 7.7459138331506265 3.785310085084635 2 -1 1
1698 1 19.54894429358238 8.799900092494118 4.429097402872558 -2 1 2
1130 1 17.014279794295387 5.506583255480283 4.465232846490592 1 -1 1
1659 1 19.323714901424232 6.487120749011109 4.348876845632176 1 1 0
522 1 24.54091262814866 0.23719516936295781 11.85333385132747 0 0 -1
1991 1 20.046621671099363 6.308828177876159 0.542482420431701 -1 1 0
1211 1 20.89501375481645 5.5106972652697825 2.6786246999297982 -2 1 0
1619 1 22.481216511849095 7.1832150151520935 0.8969640047571084 1 0 2
1243 1 20.994025024693872 7.991015801975072 2.666768544901048 -1 2 2
309 1 23.05019290978228 6.562135567517427 2.973484548398595 -1 1 1
1606 1 23.353677823400506 8.993556831643923 2.7085790817209396 -2 0 -1
78 1 23.759777469250547 8.200695383272997 4.998326025511051 0 2 1
2031 1 22.255876842937276 9.57726463717721 0.6447916776183641 -1 -1 1
352 1 21.695555623099597 7.5327982047436 4.579109965880461 -1 3 1
1162 1 27.66710910644703 5.682743899080483 3.8855287163280776 0 2 0
932 1 24.66411326763021 7.712284862956089 1.3992465855075855 -1 -2 2
761 1 24.90977018766783 5.39148510277783 1.3817118208786172 -1 0 2
1975 1 27.697751763733173 8.253280992855524 3.748773234413136 -1 -1 1
187 1 27.075421190700077 6.833153300776553 1.787007326434945 1 -3 1
1421 1 26.76838030103328 9.201818158947363 1.453589735490237 -2 -2 0
969 1 25.501286135444033 7.287982792680351 3.575130961066673 0 4 2
1376 1 3.432012248495342 9.919436372813905 2.683909912043448 0 0 1
603 1 1.6701272644109866 13.527165165564472 3.537852736125203 -1 0 0
1197 1 3.297478405436536 12.395198901095288 2.397601944019005 0 0 2
882 1 0.7329565483195435 11.980946759426864 1.6511877338340217 -1 -1 3
1423 1 1.8496608907889451 11.091922935022577 4.034828302953092 0 2 3
744 1 2.526417764159049 10.957192450807156 0.3312288110396311 -1 0 0
1869 1 24.98153815984964 0.45060322103671346 7.6603039913142235 0 -1 0
1379 1 4.816235023439962 9.77835376745194 0.6667434420400639 -1 1 -1
184 1 4.075852335858488 11.76853253426095 4.5731244092487975 1 -1 1
1800 1 7.177119512203212 10.142701088794222 1.245491752486901 0 -3 1
1699 1 5.529079068971268 11.301603446133674 2.3976300658458003 0 1 2
2037 1 6.89268200371122 12.371059462500481 0.5628597561100758 3 0 0
1671 1 5.510982178114048 13.576724635651503 1.966840250172927 -1 -1 3
255 1 6.373177592899007 13.025936063109157 4.125149668689305 0 0 1
457 1 6.316699979981114 10.472835296402916 4.694289581602889 -1 2 0
1873 1 8.134080957660753 11.575005483278007 2.926968885758072 0 0 -1
1071 1 16.388063875194515 14.124682825832622 13.855569369624078 0 -1 1
859 1 4.593074453363133 12.12037917074212 0.10763568386698957 1 -2 0
926 1 10.578948814977537 9.608363138033862 3.854541899304499 3 0 2
1629 1 9.828748730314533 10.142739376303723 1.397692253717057 2 1 3
2027 1 9.59147104167257 12.550387647298107 1.2982729389912895 1 1 3
1788 1 10.54104627087506 12.097166769282193 3.3013100867094924 0 1 0
1820 1 11.730849258039452 13.57225394436476 1.517176763076217 1 1 2
1977 1 12.014739347986843 10.975530058658837 1.7620041571726366 1 1 0
746 1 4.006134140878884 0.08640259681955832 4.336383756768688 -1 0 -1
328 1 12.758219913152162 12.721223542431092 3.658505332405476 -2 -1 -2
1142 1 14.08673028631209 9.43294903759178 1.257342362331855 -1 1 1
1888 1 14.22992082532324 12.047616760065065 1.5127187941257936 0 2 1
996 1 14.913772036596606 11.472917677529251 3.360008938261172 -1 1 -1
558 1 12.900523393242063 10.26853891085258 3.8862943734526683 1 -2 -1
592 1 16.41532634558633 10.53026256828296 1.858766096941812 -2 0 3
728 1 18.656257294549388 9.388293598995359 2.2020853279400407 1 -2 1
918 1 16.37112934565499 13.006677329780757 1.8312674598500476 3 -2 2
1491 1 16.956732646955345 12.342663392972595 3.9506501131652128 1 4 3
412 1 18.385721148925537 11.886816820331617 2.3963661906822993 -1 3 -1
1908 1 19.48551564062279 11.232557541280501 4.4071824969585585 1 1 0
405 1 17.318105580581832 10.18897164722161 3.920577430902152 0 0 1
178 1 18.915119965424505 13.645974834083237 4.153865363762027 -1 1 -1
268 1 5.639237322142219 11.828868036362026 13.936011191047813 -1 -1 1
1053 1 21.713925746480488 9.814353598396965 4.6821525196523215 -1 -1 1
485 1 20.693020741219957 12.993774158829224 2.0801195430790673 -1 0 4
1297 1 20.78503839540634 10.526437102174938 2.5512131932408746 0 1 1
509 1 23.10644874133157 11.575605150173635 2.506486795308109 0 1 1
824 1 21.508516534966308 12.13848819008125 4.249160059879156 -2 -1 2
684 1 23.908273291839922 13.10439998928077 4.474552056909535 0 1 -1
94 1 22.37573720363195 12.049223019904941 0.43214146665432984 0 1 0
361 1 22.943386983631346 13.832764620216068 2.1927860562313666 0 -2 2
1981 1 23.689963269332026 10.960439829526646 4.868505762537461 -1 0 0
1662 1 26.95001780099982 13.798564659138783 0.751700862944916 1 2 -1
52 1 24.6230094508568 12.72526200352255 0.6887863332959316 1 -1 0
224 1 25.277018351202948 9.99595151204774 3.3667347861722514 -1 0 0
1884 1 24.48864883932416 10.311034684698061 0.9623028400052333 -2 1 2
353 1 27.483472201725938 13.489713799401505 3.033277200538806 0 2 0
39 1 27.47655783485424 10.837962896005184 3.419411081386587 -1 0 0
1562 1 25.440136804113145 12.407826664918392 2.9760524300241795 1 1 -2
1357 1 26.927337458302773 11.361539385869204 1.1159954016009517 -2 0 -1
1446 1 3.294152949441488 0.10806850494451936 7.613693418368881 -2 -2 0
787 1 2.0981113516646377 3.5661781544367757 4.981475402883058 1 -2 0
868 1 2.379254040737416 1.3004040036956288 5.527770093931688 0 2 0
1679 1 1.1404224997849086 4.199612094034131 8.748977226890355 -2 1 -2
933 1 2.69146459323001 3.0223770067388136 7.296695724204453 -1 1 3
1406 1 1.284276551142377 1.6736990161400207 8.75439865466715 -1 2 0
1759 1 0.6103568673328027 2.3926594983107217 6.538061591638266 0 0 0
107 1 3.5063437779315936 4.677876977483306 8.9578138987107 0 -2 -1
1711 1 28.307427187912815 0.5737850575409102 4.837125593813799 0 -1 -1
1965 1 4.489757606313258 4.051504507687807 5.818338918606062 1 0 0
230 1 4.520537662809083 1.791241739240656 5.889841983686684 2 -1 2
633 1 6.745837910678612 2.8033801681095554 5.492913698556716 2 -2 0
109 1 5.111133821954981 3.301883344391606 7.885964060418638 0 0 2
938 1 5.400646750042805 0.7658673047220463 8.116775097060664 0 -2 3
1904 1 7.5069470824275415 1.9147794987182056 7.759077749790164 0 0 3
22 1 7.337807417904246 4.145601513681184 7.285311051331103 0 -1 1
90 1 6.6774998232987866 0.521632387899328 6.049765515325514 -1 0 0
2009 1 10.664144007117839 2.345295689545157 4.785920826832155 -1 0 3
2010 1 8.996214462868158 3.2328714848651585 6.150692991832344 -1 1 0
826 1 9.248800847137234 0.8987005699199687 6.458713885019204 3 1 1
341 1 11.603888144793581 1.4757194566785024 6.913693685557917 2 -1 1
1278 1 9.830226989182583 2.5539444455743348 8.017717988373299 0 2 -1
1638 1 11.044529090067314 4.118726716719703 6.621597468002236 -1 -1 2
1346 1 9.56303450677385 5.026984949277142 7.994148479491605 -2 0 0
1844 1 12.066438059575354 3.0876525166142748 8.58596809093806 1 -2 1
928 1 12.807163057632119 2.907343376204769 5.326553146252264 1 1 0
604 1 12.37703688293876 0.8752981019922687 8.968159751169033 0 -1 3
747 1 13.418946375963575 0.3909667982862141 5.619528163140062 -1 0 2
1815 1 14.983271629757581 1.6626870258782531 4.402489291607618 0 3 -3
1169 1 13.891603022024157 2.2456290279947444 7.1280695568828625 -1 -2 1
1018 1 14.720402423623131 1.3555682408756988 9.41131689111745 0 -1 -1
693 1 14.448465986268385 4.082946453988375 8.712545742662302 2 3 0
248 1 15.837265791108003 1.2710822804434896 6.581020824941986 1 -1 -3
394 1 15.979531058737228 3.692221770206689 6.504538083585613 0 -2 -1
867 1 4.088841911563757 14.12417709359407 4.240051225342623 -2 -2 0
1834 1 19.573309112311723 3.771986669649702 4.80983076385797 -2 1 1
1246 1 17.351023361906734 0.44255142607289466 5.049582665337391 1 1 0
910 1 19.708020366941607 1.451128381152075 5.239487559375352 0 -1 -1
473 1 17.95578364596599 2.1971345943636025 6.813043368013163 2 2 -1
567 1 18.818023794318332 3.803344248192594 8.558415390397668 1 -1 -3
1293 1 16.43198242613413 2.820231675561968 8.694494542521815 -2 1 -1
36 1 18.846154145193893 1.3949816834255293 8.580886591171591 0 2 -2
864 1 16.652094971472007 0.29860398855970316 8.904819832885744 0 0 0
1493 1 20.205067339272407 3.00781466757431 7.168635635496091 0 -1 -1
2017 1 20.473205362052635 0.6073293720595361 7.051141176680133 1 0 2
490 1 22.772235791897792 1.801204080055683 7.576481821958926 0 2 -1
390 1 21.639865457885126 2.7516763333964422 5.448324858513342 -2 -2 -2
1826 1 22.70702281556964 4.377777998752837 7.080382417687044 -2 1 0
282 1 21.26108861749182 2.567179256605502 9.114991006792318 1 2 1
596 1 23.901143262065073 3.477481955082884 5.080473972964445 0 0 1
1377 1 24.06251035857471 1.1141790509685903 5.518067762363717 -1 2 1
957 1 27.47623533177928 3.39530376588611 7.840063305802744 1 0 -1
1141 1 26.447228669358527 4.001805909006088 5.756145288165349 -2 0 0
982 1 24.64326642699159 2.826902067387989 7.162276736797757 1 1 -1
2019 1 26.51933444565294 1.590437709857519 6.050056711673546 -2 -1 0
397 1 27.148783390063254 1.1061809879049291 8.244154424371677 -4 -1 1
1061 1 26.30905387505472 2.7948651641120557 0.34072424924583444 -1 1 1
1314 1 2.130723658675968 6.344014139907644 4.554891066700458 -2 0 1
297 1 0.38583744894357397 4.75576456532412 6.180853762588249 2 1 1
28 1 2.5898232072337652 5.415650188379469 6.841113966614472 2 0 1
840 1 1.089652720223408 6.677410357711616 8.101592795211811 -1 2 -1
1843 1 2.6633182820019394 8.074348367911197 6.380005357838598 0 -2 0
1538 1 0.9292930964343231 9.330694408824941 7.579560253161589 -2 0 2
130 1 3.258480578128589 7.421713599180178 8.481963724085862 2 -3 0
1472 1 0.3142723035098004 7.646158034743537 5.837127584001413 0 -1 1
950 1 6.169313801665055 7.792659830636675 4.947577831594826 0 2 2
1177 1 6.547195469182694 5.377238904012393 5.284675797812585 0 0 -1
1680 1 4.133307724570858 6.3039625485745026 5.329148595294764 1 1 0
1020 1 5.115322811877854 5.821371682102924 7.378801901634133 -1 0 1
1500 1 5.036726581704823 8.289683623872037 7.065945875496 -1 2 -1
1934 1 7.216166461028692 6.942021653779168 7.233021158508798 -2 0 0
653 1 6.04132227233565 7.296448181648967 9.256094016351957 1 0 0
779 1 8.337831765619399 8.562772190096688 8.758451239541097 0 1 0
666 1 8.871482791299313 5.882684501107086 5.713206398656268 2 -1 -1
1960 1 8.972665548082947 8.243607034252856 5.583022969651144 -3 2 1
1056 1 11.506234767820434 6.38580644520048 6.039207698995852 1 0 -2
1298 1 9.769353329322975 7.353585874176165 7.41687329813984 -2 0 1
1259 1 11.45005692734458 9.024403876143458 6.133573032590489 1 1 -2
870 1 12.092095815856528 5.7106000007293165 8.163741814769821 1 0 0
1833 1 8.15647671249055 5.958012238724563 9.159299208200384 -1 1 0
645 1 12.415931924120159 8.199753979522349 8.17529830731968 0 0 0
1661 1 13.708976349531312 4.809856308597669 6.800971607178817 0 -2 -1
698 1 13.703319653147009 7.351744753284844 6.408276429831433 1 1 1
132 1 14.546206432136856 6.605147454433167 8.46389309183973 0 -2 0
171 1 15.53183493068974 8.601715882799983 6.1069435121799165 0 -1 2
860 1 15.762833044485607 5.937201375199602 6.244760107724885 1 1 0
1328 1 18.13839865156497 4.757754860542662 6.375055848520181 -2 0 1
561 1 16.77925117362596 7.774974757262119 8.138942040309473 -2 -1 -1
1862 1 16.520817648869624 5.2103209673355435 8.533157809446164 0 0 2
1980 1 17.935148869955466 7.399630939060613 6.1288791697877105 1 3 2
1111 1 18.791346575690643 6.083698472557179 8.229335721843869 -1 -2 -3
1633 1 19.198475940155983 8.770326100564024 8.752916268677778 -1 2 0
1808 1 20.14161243800018 8.066453108675539 6.525963989701339 -1 1 0
1581 1 23.926624344194224 5.687603174510417 5.024055972864168 -1 0 -1
323 1 20.38447972904219 5.617737562189184 6.691470049002985 0 -1 1
186 1 21.75127360384385 5.160592063222739 4.726230097445989 -2 1 -1
356 1 21.195205617928938 4.869376577002339 8.95551316626013 -2 1 -3
2028 1 22.83040999079506 6.639248243927807 6.967175656752541 -1 0 0
911 1 21.373919130164566 7.346256881017247 8.73280852614951 -2 -2 1
1460 1 23.621193657417013 8.173801227636725 8.797630391208044 0 -1 1
755 1 22.39047486084764 9.029824320018328 6.522014835343338 -2 1 0
1475 1 23.47315383747501 5.823353030833227 9.322956018586266 0 2 -1
1147 1 26.19970843208184 8.980305866504299 5.056124684320927 -2 3 0
1728 1 24.880888976315127 5.217641205252328 7.488057126140959 0 2 1
368 1 25.05321180722212 7.522552345789657 7.026324419192244 0 -1 1
1041 1 27.36046295971456 5.891977167829745 7.691987304657174 0 0 -2
613 1 26.256466143492073 6.378098233238993 5.574270226263885 -3 0 0
661 1 27.11287427372915 8.456521437662367 7.132921235818387 -2 1 3
1413 1 25.61318109716105 6.854997315430474 9.522747008978879 -2 1 -1
1363 1 27.909780618763588 7.869148143616393 9.352490900036134 -1 1 2
165 1 25.90339667517 4.4812326831113145 9.428957306062852 -1 2 -3
532 1 0.7902386938558057 0.29446439396495616 1.6424582965674088 0 0 0
280 1 3.4007667896226508 9.64953126358247 8.307545707825676 -1 0 -1
664 1 2.6561509871917632 10.547434118565329 6.290659767431418 2 1 -1
170 1 2.616348728171084 12.91528847414811 5.747464171526699 0 -2 1
267 1 0.7042674768331851 11.917184684599633 7.188063712944666 0 -3 2
927 1 3.416097470264679 12.317867490015804 7.8516518680184 0 -2 -1
1405 1 0.030058860225242456 10.105508178436887 5.5199002754762825 5 3 1
454 1 1.668551604941459 13.393753819454055 8.863434894285817 1 0 -1
1490 1 1.8256807722763202 11.113104673889643 9.121476765727063 0 -1 0
1227 1 7.1131672412974085 9.379142803672332 6.805166546806599 -2 1 -2
595 1 5.378946552737646 13.150472933192418 6.2970940558995165 2 -1 1
1577 1 5.264032497117643 10.731795836978163 6.718738247992773 -1 1 -1
115 1 7.289033582677177 11.77234103088422 6.590162090451261 1 -2 -1
1194 1 5.685340306220444 12.418239417197881 8.377463015480188 1 1 -1
300 1 5.771074400365175 9.845270223187876 8.944197923155354 1 -2 -2
1504 1 7.949922793568168 11.011021655070616 8.448815613920674 0 -1 0
477 1 11.401237063571028 13.774830694424319 5.303009417110065 2 0 2
1098 1 8.663616579933633 13.090467477826081 4.698383117694413 -2 0 2
227 1 7.731332501422748 13.63459929061156 8.398142811108798 -1 1 0
1290 1 8.488040064535017 10.570458427995971 5.200963337568165 0 -1 2
1748 1 9.690716774534874 9.963100488032664 7.179985988285764 0 1 3
909 1 9.714455057409262 12.345265250573519 7.136609930807982 1 1 -1
219 1 11.184591146768236 11.395597053637994 5.369538378270978 0 -1 2
470 1 10.66587879754855 11.734554841915815 9.225152549559873 2 0 1
1416 1 20.132785338628526 11.152736154056088 0.16895503698935352 -1 -2 2
1712 1 12.145555615683293 12.992586283871015 7.122612973178007 -2 -2 -1
82 1 27.227811581060383 10.405717186660338 12.78773523175063 -2 2 0
1289 1 14.471294384691554 8.913888217444844 8.519506770072928 -1 1 1
1183 1 12.044673507233343 10.559068704348965 7.775884016164045 -2 2 0
1503 1 13.624438174465888 9.94467068021681 6.1718384692858015 1 1 1
1521 1 13.751958544561331 12.077130043229523 5.714656263304916 1 -1 0
386 1 14.377539526068073 11.409714359716707 8.0832762884407 1 2 2
705 1 15.888993897108612 10.974835069000495 5.826561586873821 1 -2 -1
843 1 15.770948908048569 13.170873452437288 5.869196414271924 1 0 -1
1758 1 19.134775912678133 13.62927291335815 8.022929873444724 0 1 1
1763 1 16.78790895587194 12.197028231156237 7.935784570176018 0 0 0
637 1 16.734248796353675 10.104810487408967 8.271164857399425 0 -2 1
810 1 17.90344027657298 9.701103044827457 6.346166504777102 0 -1 -1
706 1 18.076780852799576 12.055464958672326 6.135345809011997 1 1 0
369 1 18.84382812968329 11.298981626723233 8.264295485039314 -2 3 1
749 1 2.475629861912977 13.263879618788351 0.26699655818941614 -1 -1 0
514 1 22.50261144074227 14.059166513234635 6.382872987562225 -1 -2 1
1221 1 20.272212424345884 12.977303575487015 6.011516618393856 0 0 -1
432 1 20.254365498246976 10.396272313814755 6.581107947629889 3 0 1
1923 1 21.259915681828264 9.607141366684093 8.576262918445824 -1 0 1
1315 1 20.992106364654305 12.212286614571823 8.530655419415606 -1 -1 0
1307 1 22.296666067326434 11.685476092554627 6.512492743357371 0 1 2
1519 1 23.168937395725262 13.234166878945212 8.726755675035248 -1 2 -1
1347 1 23.293366029481515 10.9286995175839 8.41479971787158 -2 0 -1
1990 1 17.96692190915583 0.45581479474615777 1.243186172787193 0 2 1
1163 1 28.290540649757794 12.501457518201676 4.956051698422312 0 1 1
1976 1 24.6785548276937 12.81708589663844 6.673910729108685 1 1 1
1175 1 26.029646418693005 11.32590734175875 5.039063814017043 0 0 -1
140 1 25.675084225640116 9.485841565249657 8.788049600479678 2 -1 -2
74 1 24.827648192433305 10.152022404847491 6.810887646514104 0 -1 -1
1950 1 27.701636166512642 12.740528619431775 9.080743847106952 -2 -2 0
88 1 25.497396977049583 11.757181625713761 8.576984964244263 -1 0 -1
599 1 27.106554357446534 10.944828657700565 7.199316337341218 -3 -1 -1
917 1 27.016551383967617 13.56196478626287 6.862738369344833 0 0 2
1971 1 27.903447717260605 10.20304182236125 9.343079693349289 0 -1 2
260 1 3.746774285229871 6.611727282920921 13.968843508892274 0 -1 3
1741 1 3.7581588724651236 2.0013362810935202 9.299386453291778 0 2 0
147 1 2.3897588050760383 1.0218325910756723 10.903274620762096 2 -1 3
1084 1 2.1648052974974314 3.3288313897085913 10.423536520965703 1 0 1
742 1 3.1513751118867868 2.5943548742501172 12.770130091732334 0 -3 1
890 1 0.7322206286451198 2.288505921544082 12.41211138310877 2 1 -1
1481 1 0.5672509188068887 4.56521136579119 11.979263942223206 1 1 -2
1508 1 8.179580493900675 3.935330501375131 13.684447940111392 -1 0 -2
1954 1 5.685722730889188 0.27033866767194303 13.587172986990216 -1 3 2
383 1 5.401892133393089 3.0054872530882837 13.63403825188962 -1 -1 -2
1858 1 4.625810344655915 3.7902470386858567 11.261331744163796 0 1 1
278 1 6.32110323522995 2.286994638290187 9.75542486702393 1 0 0
1947 1 4.651379994671378 1.1686161086667417 11.655969521709453 0 0 1
500 1 6.789957150959097 1.5849187553909971 11.97835012665878 0 -1 -1
737 1 7.0350971615862505 3.9753209947781585 11.47275876197715 -2 3 -1
1255 1 9.174275907361809 0.40336198036183274 12.067443432758123 1 -1 -2
1609 1 8.29662358152381 3.5806893111418447 9.48138087972263 -1 0 0
1271 1 8.151651524531921 1.048496020969797 9.84477723103179 0 -1 -2
9 1 10.62844810755643 1.818232616909325 10.454158903232068 -2 0 -1
848 1 9.12467152932794 3.028257495791997 11.79836371831695 2 -2 -1
869 1 11.514763835780956 1.2812317748395365 12.552830667415128 -2 0 2
1961 1 11.290363438486017 3.776577175752738 12.128867348444324 0 -2 0
1718 1 10.676677149267412 4.395843172654459 9.927549329144213 0 1 0
513 1 12.989089208084831 -0.0032964581776505396 11.094269428449817 -1 -1 1
627 1 6.244235192772655 14.142236452520498 10.10975192712434 2 0 2
1172 1 12.862517780769322 2.5896441655642977 10.918666264443216 -2 1 0
798 1 15.319851877945476 0.8309767363649354 11.50347503971853 -2 0 -2
891 1 15.198415227222977 3.254674719351295 10.871557003126624 0 1 -2
529 1 13.927381660892635 1.774096705536464 13.117879754461061 0 0 1
723 1 13.593612278165825 4.269375814493095 12.814967931403265 1 0 1
164 1 16.032732199275987 2.7706271780145144 12.918866673271934 -2 1 1
185 1 16.291212925634877 0.3351121512092178 13.5123308054423 -2 0 -2
34 1 18.435386663645936 1.4787584503977311 12.930169543543126 1 1 -1
38 1 17.47183602472066 2.0953471657606335 10.741686045825134 1 -1 0
1761 1 18.49493977640365 3.708461995751915 12.781809070628345 -2 2 2
2022 1 19.7683983414607 3.239288150591779 10.847583784771636 -2 1 2
1261 1 19.718822016791822 0.973691935961625 10.750913387484633 -1 1 1
1260 1 20.556184121725536 2.574552376050596 13.06534315132154 -1 1 0
175 1 23.650905385276754 3.383084163176021 9.180717932822686 1 -3 1
70 1 11.410395484270476 8.878894811889616 0.16029668093423155 -1 1 0
1962 1 23.667171032172735 1.0125771532406405 9.708013026534095 0 1 1
1978 1 21.874482853957193 1.5935631145394304 11.366894016728361 -1 1 2
1479 1 22.838922579934316 3.4812972716050394 13.23380077497764 0 -1 -2
319 1 23.125652796050584 1.133309278266756 13.359893843919767 1 0 0
820 1 22.20626051013452 4.219550537428755 11.068949748654017 -1 1 1
270 1 10.243841065535559 14.09116023055156 8.753850044361501 -1 -2 0
404 1 14.422450377664681 13.606833569993883 7.665878640794683 0 0 -2
743 1 24.24863561515879 2.799405852941434 11.32982336514161 -3 1 -1
574 1 0.15933746582303504 0.3582550403964998 10.504003363818635 1 3 -1
628 1 25.7110462003468 2.15712813664412 9.557967462742985 1 -3 1
326 1 27.358860406032647 2.9421852211824806 13.768931135818447 -2 -1 1
419 1 25.46299735797845 1.9722422898927963 13.51209858761834 0 1 0
295 1 28.09955484144323 2.851919704554369 10.156659566310614 -1 1 0
1021 1 26.758337320573172 1.416900091912854 11.514015864481214 1 2 0
1434 1 26.37706849216783 3.771545010295887 11.55497150870396 2 -1 -1
527 1 25.13377343207989 4.423024794197049 13.387686604428595 1 0 0
951 1 8.897096025882286 6.359194416643725 0.13753526611606193 1 1 -2
1235 1 3.2933816287315043 9.186305366736839 14.03584805392449 4 2 0
141 1 2.6921740535215775 5.323252141594746 12.160212035856814 -1 0 0
1852 1 1.689710612881792 8.77798623380991 9.573873404517842 2 1 2
983 1 1.1696717132589984 6.040085252700994 13.9208695466824 1 0 0
1349 1 1.9721733763072353 6.161374013999847 10.305361147540067 0 1 -2
1690 1 1.0071981700873935 8.755608729438269 13.469434368832696 2 1 0
1744 1 2.958948464648816 7.986639950976211 11.86079404197854 -1 3 0
1352 1 0.4380284161525302 6.878341718190769 11.839653667698332 1 0 0
1031 1 4.271375211093863 6.205885658020462 10.78740741574471 1 0 0
1470 1 4.373697805952925 8.560935633833424 10.30357446301265 0 -1 1
252 1 5.892566374326647 4.931109350497434 9.689924778203979 0 -1 -1
1730 1 5.632075214457237 5.3828672243509965 12.80604636396095 1 1 -2
206 1 6.966264428828484 6.691227548279051 11.348394744334788 0 0 0
1866 1 5.165310072977799 7.909737711449245 12.444392097950168 -1 -1 -1
1681 1 7.3158783283113555 8.588801896644824 13.064506901204792 0 0 1
767 1 6.719063599965525 9.011823127083643 10.788641445595049 0 -1 -1
1765 1 7.8123693603544435 6.209104772326967 13.391772491149315 0 0 1
1220 1 10.075138375390889 5.061735050928202 13.655671542335758 0 0 -2
1151 1 10.65731448996493 9.166845145387573 9.361859208762002 1 1 0
1966 1 10.416641070077066 6.904741967062927 9.628746257560584 1 2 0
1133 1 11.34900176527642 6.130572293847165 12.111555824503316 0 1 -1
483 1 8.843033616679227 7.946329534938966 11.249539160798943 -1 1 2
617 1 9.144250536333397 5.593550217356876 11.695076670415775 0 -1 -2
1938 1 11.462777752130151 8.59752898998755 11.569992796434967 0 1 -1
1736 1 9.778811256198487 7.327692554676699 13.484277980137769 -1 2 0
916 1 9.391974703758361 9.94584873715261 12.981621597691234 1 -1 0
1110 1 24.77678630170742 11.740472807053052 12.823475995220683 1 0 0
1703 1 12.446847285811032 7.869135745233031 13.889340924595198 0 1 -1
1262 1 12.97510674135538 4.774099495543458 10.332274664870527 0 0 0
1600 1 12.756593926830725 7.225503490413076 10.232078326840442 1 1 1
1957 1 15.330125157306956 5.6691751890201125 10.591745842654584 1 2 3
1199 1 13.835288338966771 6.723429022114009 12.416858788616949 -1 0 1
1302 1 15.176751194515521 8.03140408155218 10.434084419498515 1 0 -1
520 1 13.54655668729766 9.30969846940105 11.927744032863005 0 -4 1
350 1 16.00368421748216 4.895746171601257 12.624635897767494 -1 2 1
966 1 16.042232602174 7.333989764384477 12.435289276461557 1 -3 0
1543 1 17.45960652217269 4.316114940709281 10.692250637724289 1 0 2
161 1 19.66045638852888 7.926177902153235 10.95456707981196 -1 -1 -3