LAMMPS data file via write_data, version 29 Oct 2020, timestep = 300000

2048 atoms
1 atom types

-0.1746200702444618 28.526620070245322 xlo xhi
-0.1746200702444618 28.526620070245322 ylo yhi
-0.1746200702444618 28.526620070245322 zlo zhi

Masses

1 58.933

Atoms # atomic

440 1 1.1587120169552403 2.0980003165861443 2.9069810117006387 2 0 -1
1134 1 0.4032348664486023 0.8014804088643674 0.8299760215471166 2 1 2
1555 1 2.387492853735701 0.45354046707951123 2.047784068898207 0 2 2
31 1 0.9981426844761023 4.1790338500892945 1.6321360310860415 0 -2 -2
458 1 4.547947219489915 1.0618924125435603 1.3176743254947376 -1 0 1
652 1 1.967108381304313 3.2238409750620134 4.651048283422632 2 -1 -1
352 1 23.31096185638173 -0.12454469728537676 2.123841887607727 -1 3 1
508 1 4.203389260343521 2.120034424756042 4.164528393693377 0 0 3
1624 1 6.917540805446191 1.284036560814258 1.4698118843785029 1 -1 2
205 1 5.670554452046854 3.1363567104092995 2.4764394297874808 -1 2 0
1027 1 5.995880680380249 0.7018692312114782 3.624873455429956 -1 1 0
1781 1 7.653025490793009 3.512679297488407 1.0122180381544674 -2 0 0
883 1 6.475804535849038 2.72582591088906 5.263546484412222 2 -1 -1
1198 1 1.697623817074599 2.4846628857758444 0.17877151543900272 2 1 1
30 1 8.098722241102397 2.402389770084031 3.3682301891226256 1 0 -1
905 1 10.898199991225823 3.5620910460313895 3.358630560990506 -1 1 1
190 1 20.42105181142983 14.164057365958927 7.671727777215055 1 -1 1
1503 1 9.689109859844 1.5722411840798878 1.7742611882243977 1 1 1
1115 1 9.236038788474074 4.0760900318994056 4.828995721393521 -1 -1 3
1337 1 11.847610433730312 2.612721318290819 1.0694890550692908 0 2 0
522 1 11.72889967510014 4.177556482162929 5.225021313855054 0 0 -1
328 1 10.004665779950255 1.510936501288118 4.784889203585282 -2 -1 -2
1667 1 10.005771358135586 12.49503324556539 0.2251141976985721 0 -1 -1
159 1 13.772520935609606 0.729760478685053 1.1030879392860056 0 2 1
1470 1 12.243325567848025 1.3895780755589886 2.941035410424927 0 -1 1
1197 1 13.102279747760058 2.359877408440836 4.8951592859963435 -1 1 2
1746 1 14.738891907298061 1.5876359535363946 3.2093434379192 2 0 0
629 1 15.982252494692819 1.0228711377553958 0.8616915136809509 -2 2 1
1755 1 13.429097541094512 3.4885438258250043 2.7065542567422174 1 0 2
506 1 15.592076492160347 3.9149250000246756 3.7626449412229497 0 -1 1
1522 1 25.391068194083747 0.05855381568404994 2.872895431454811 2 0 0
90 1 22.95459099824306 0.24356004134423315 4.388960209128776 -1 0 0
731 1 19.791232689326044 0.5802360495366307 2.2306789186744935 0 -1 -1
274 1 15.765550046673194 3.440632291358438 1.360294679950491 -1 -1 0
566 1 17.093923759014 2.1479267458507576 3.485467229017234 -1 0 -2
656 1 18.626905842413667 2.0238053260300974 0.6055591841288173 0 -1 1
1794 1 17.89984288983592 3.9564526581610266 1.928572886796442 -2 1 3
1726 1 19.622778719238415 2.943105199509129 2.9395382541846935 -1 1 1
416 1 17.87220163540878 3.5004755713761146 4.958214152805928 1 2 0
1222 1 19.21140139949729 5.267828053158592 3.816200298205036 -1 1 -1
179 1 20.975925026728845 3.1069958098490353 0.7445724638722208 -1 -1 0
729 1 23.25298234720342 2.606907443662136 1.1411639010106835 2 0 2
119 1 21.846957899781945 1.7399777439330133 2.957479560046868 -1 -3 1
1774 1 21.580747254395163 3.9795859259461164 2.8370837717206423 0 2 2
1403 1 7.194859847418669 -0.07406335356713001 13.039804960625768 0 -1 -1
1636 1 24.14198999775373 1.9603863696693669 3.234656583254179 -3 1 1
1418 1 23.79372742118009 4.171290859689176 3.4360611677011734 0 0 1
520 1 2.309501970323379 13.188166452646891 -0.0037310306198155285 0 -4 1
1779 1 25.017948731590334 5.07373038107382 1.2489844200947957 0 -1 0
2007 1 21.80983136793 0.8472188729367893 0.4842573660225141 -1 0 2
1861 1 26.90217215740661 0.8808554154124992 -0.001734686614703107 0 2 2
19 1 28.41605935442057 3.470540821330506 3.7538536953089126 0 1 -1
1189 1 11.478418817972564 13.84924511737888 1.6336401950783965 1 -2 1
726 1 25.827007569118074 3.285885587084945 2.268495267671052 -3 1 0
971 1 25.928465605560397 4.970142205816858 4.1246927322947755 -1 0 3
702 1 0.4481891807586228 4.660821386817296 5.73689012169075 1 -1 0
2025 1 27.759199187921023 2.9272955930559874 1.108210125789245 1 0 0
1981 1 27.325148482168267 1.385859252864024 2.5099908179594097 -1 0 0
1899 1 27.559061424792027 5.230485963264842 1.7690223378379228 0 1 3
615 1 2.0451855529391585 5.315348401195642 4.144477943730855 2 -1 0
674 1 1.5199752812451086 6.237248999746061 2.194901070477608 -1 -1 2
1155 1 3.480073418557826 7.979599054012093 2.750201632149112 0 0 1
1761 1 1.717747590928251 7.655285828238299 4.315592451421904 -1 2 2
1410 1 3.281735711688016 9.186303873474262 0.6448305083336299 1 0 -2
1548 1 4.2701682026109085 4.395862658157468 4.415778434721358 1 2 1
1873 1 3.899779254208992 5.761227514585694 2.868764537435781 0 0 -1
1241 1 3.082634175331292 3.37544362625246 1.913081450209897 3 0 2
2009 1 6.16629846946192 5.442348545628403 1.815867171015852 -1 0 3
1239 1 5.803770733667148 7.764603105851772 2.035348180369938 3 2 -1
637 1 7.059728400285885 4.594989180301521 3.882976952740811 0 -2 1
1496 1 5.968200318015765 6.949109557208671 4.314183550824637 -1 0 -2
958 1 7.845193589477239 8.985097892870991 2.421915998295532 2 -1 1
661 1 9.74700495957386 3.667269883279204 0.3088628443203309 -1 1 3
1474 1 8.181855651586218 5.6225439371492945 0.12423808871323577 0 1 -2
39 1 7.353958881932468 9.369514528719227 0.2774204545591556 0 0 0
1169 1 7.964752990291537 6.451056616704953 2.5836666497426566 0 -2 1
933 1 8.93644374929631 4.3222741993423694 2.4455770739090825 -1 1 3
1919 1 10.007472461899859 7.257255313432512 1.8224980667198905 -1 1 -1
635 1 10.387529937365983 5.967591172303189 3.9709800395166006 0 2 0
1998 1 11.405588317558681 5.172487286755791 1.7616081003724384 0 2 2
4 1 9.78573850783684 10.207059686896372 1.376054369256238 1 1 -1
1820 1 9.421844200562793 8.629315012700847 3.76079843685853 1 1 2
617 1 12.00624471972042 8.236269778858201 3.7838116451933796 0 -1 -2
1971 1 14.567145268265765 5.354114756713784 2.1572229987855316 0 -1 2
1529 1 12.512557593682764 7.03558168022708 1.7216998082864 -2 -1 2
1354 1 13.780169334809761 8.038139923282296 5.198780466453778 0 0 0
1001 1 12.674631241743818 5.812263100328958 3.6773104321086962 -1 -1 -1
1549 1 14.53931431773898 7.887679740874235 3.036895665704203 0 -3 0
1072 1 15.280395931741396 6.193253846925048 4.715442860199951 -1 -1 -1
298 1 15.05046865812412 9.808557819952796 0.09447198963344033 0 1 0
1846 1 18.456008303370133 6.175200080469777 -0.04382986099017758 0 2 1
1269 1 16.99047595470782 7.9130689149518965 4.2036815818295565 0 3 -1
878 1 16.94801052843927 5.514227870540887 3.2950441951702083 0 -2 0
1420 1 18.114822580195113 6.967461955429076 2.111387189779061 -1 1 0
1611 1 16.744199203198878 8.94984696336493 1.9078286431258755 -3 1 1
1893 1 19.726969105562393 7.725608939085141 4.484092490940867 -1 1 1
1832 1 5.477214915634067 13.934046121170276 2.3724394178015484 -3 1 1
253 1 19.985829374211985 5.058830983177026 1.4537112551695626 0 -3 -2
426 1 23.963079632069434 7.837520720998485 0.4278387509856836 -1 -1 0
1137 1 23.876080076088044 6.725434996050672 3.1538351368791284 0 3 1
156 1 22.29028784145352 8.296176999429932 1.735629187776877 2 2 2
152 1 24.495318983755528 9.001954271930508 3.8517538608312636 1 0 0
623 1 21.514800688889693 6.496070299751614 3.4938879963978424 -2 -1 0
275 1 20.17323105932729 7.475948029589542 1.4230531070597803 -3 1 2
195 1 28.32943319597406 6.080176820474541 3.679014387722807 0 0 0
1528 1 26.174949034795127 6.895189526726482 2.7612704742695886 -1 1 0
618 1 25.708443389235907 9.138319266857286 1.9440111568689793 -1 3 2
336 1 28.156067044929983 8.174029305132162 2.861653171592713 1 0 1
1792 1 26.610470321882083 7.885830983075673 4.70956726174807 -1 1 0
438 1 27.68933745796609 8.997568373564645 0.38592498396563624 0 -1 1
219 1 26.899947656810376 10.052215792934502 3.786915687837275 -1 -1 2
1214 1 26.59293987234405 7.105766851200626 0.5965127645391701 2 1 -1
759 1 17.98100829368226 13.598797405283664 7.36664438809824 0 -3 1
223 1 25.399096582737844 3.555759739931236 -0.13694094864893736 0 1 2
180 1 1.3640392644539896 8.718428692733006 1.7847140284055947 2 0 3
912 1 2.7330928782854427 12.951080136257838 3.5158547740288086 -1 0 0
1201 1 3.246658704475763 10.133312953615675 2.691189364765798 2 1 -1
485 1 28.13094577768657 13.52460639632505 1.2863432704553104 -1 0 4
2035 1 1.4749545979585088 11.390368551467034 1.6312882120506575 0 0 1
1401 1 0.6604685776665321 -0.11663945925034101 7.002324210108644 -1 0 1
969 1 1.0704667468561495 10.15455999968383 3.811619991772386 1 4 2
1707 1 0.5649954496599177 12.436661187454238 3.3978400358807197 -1 0 3
1719 1 5.386967227051224 10.02990652330075 1.9114245125005556 0 0 2
704 1 5.331095848032714 11.101724609514593 0.08545396940644606 0 0 0
1579 1 5.029536615567808 11.734322784708313 3.734406935065582 0 1 2
1019 1 6.753718968806399 11.897356813603913 2.3350400491201064 1 -1 0
1042 1 4.010893779973682 12.115608119528005 1.7333571703036756 0 -1 1
1606 1 7.765104431451089 10.552728790298403 4.153269025914889 -1 0 -1
632 1 17.535740752580164 0.05770993755393464 2.56852593519306 3 0 1
1183 1 22.551656358694128 6.0181041980107794 1.314759946636985 -2 2 0
1314 1 3.992991249544633 6.7691369530486725 0.6973589203538512 -2 0 1
18 1 8.106633230693843 10.90498253530836 13.714780372509537 -1 -2 -2
1904 1 7.234505050192856 13.495845257964543 3.8169675374942673 0 0 3
1974 1 11.3290929320248 10.369876110635175 3.453949106987172 2 -1 0
606 1 17.355229349180682 13.859629351438102 4.93275202410865 0 -1 -1
965 1 9.258169177724263 12.160499250591124 2.5717198641207926 1 0 2
48 1 12.053669262846304 11.272386916227266 1.1146831761999625 -1 2 1
932 1 11.22728938775107 12.763479808830908 3.846160726136853 -1 -2 2
710 1 13.18367729049226 13.295037788430399 -0.1470248912095503 0 0 -1
177 1 20.983453584383987 2.1508171789429733 14.164601527833895 1 0 -1
843 1 15.187336853291887 10.458594392128077 2.8796625868715062 1 0 -1
810 1 13.222986143488493 9.517633666466939 1.7783935072162875 0 -1 -1
616 1 13.320723273222402 12.469551573811136 2.8218137177320886 0 -1 1
380 1 15.49166296665092 11.865377563025927 4.769628891813112 0 1 0
804 1 14.781095279416995 11.959920412949286 0.8906497747684881 1 -1 0
199 1 9.302258025401802 8.199064183479237 -0.15662715513910241 -1 0 0
838 1 17.837212209064976 13.401369290236277 0.2122239120713476 2 1 -2
1570 1 17.451762784960167 10.557644493446283 3.897637647982518 -1 0 1
343 1 19.109888704829444 9.240746931692836 2.398193512364512 1 0 2
802 1 16.55086624092944 12.748828307371088 2.8845300180309756 -1 2 1
1096 1 17.723402884955068 11.36187541729414 6.435174727965366 -2 -2 1
797 1 18.729028530307797 11.673091592117599 2.114280105716131 1 -1 1
747 1 24.988120716431673 1.187685411440929 0.9857723215939485 -2 0 2
863 1 19.18645808348102 12.369182206201133 4.390435088473403 0 1 1
1328 1 25.191380221246252 9.258772581006212 13.434051124044135 -2 0 1
442 1 16.99773379721821 11.026340795207624 0.8259039520450444 0 -1 0
984 1 20.937140199519824 9.402826911271157 0.14903370078820433 2 0 2
377 1 23.201581989899402 10.913928502100877 3.2812830357983573 2 -1 0
1386 1 21.006790865500037 10.962288685672787 1.960962261449453 -1 0 2
1285 1 20.22205911861689 13.18890352216262 1.2248121908911844 -1 0 2
823 1 22.82265105650982 12.7381617682739 1.6481712275747686 1 -2 0
1299 1 21.370292164639967 12.083296712943204 4.187530441100306 0 -2 2
61 1 23.471725981169744 10.256003813411704 1.205954610090665 0 1 1
752 1 20.017045781688385 10.168332110137557 4.533610467920803 0 1 1
957 1 23.338177265240944 10.485820318680846 10.212272703436295 1 0 -1
679 1 7.985804105901311 13.610100356895316 1.4644691364374873 -2 -2 -2
1200 1 27.748078254412256 11.275481577974109 1.931996424319443 1 1 1
1332 1 25.26946710533012 11.586371300657895 2.3697934811306225 0 -2 -1
757 1 23.977475469516648 13.084807341220651 4.145906331251921 0 -1 1
581 1 26.23081542187974 12.689091159370395 0.5367314572376699 1 0 0
1994 1 27.900662227339218 11.573234142475204 5.052223405337881 -2 -2 -2
1850 1 26.821360929488435 13.02844515318264 3.31637532321586 -1 1 2
419 1 2.1409795290649645 0.6145499214016023 4.6407515760182925 0 1 0
1600 1 3.0301427638002645 1.8308483658822432 6.493317829048373 1 1 1
1041 1 0.6550918748039034 2.291836319938217 7.210111754337922 1 0 -2
1978 1 0.9720219849335605 3.1118477148359824 9.798888065229624 0 1 2
1975 1 2.1147852741440816 1.0001308240052462 8.523342925088544 0 -1 1
1479 1 25.844332036745413 10.307747339052531 0.07541066425639575 0 -1 -1
43 1 -0.12056669705104639 1.4837929843634061 5.169382199235751 1 0 -2
1121 1 3.219532870003494 3.084174371415838 8.741603717626155 -1 1 0
316 1 27.484640923508614 3.3658879705699443 6.537967852748028 0 2 -1
1460 1 23.550048399196093 12.826670794948756 9.941148267965813 0 -1 1
378 1 5.3310936740587715 0.7368600378638632 5.917586313683151 0 1 1
1952 1 10.197324686808637 13.36307120193712 13.766593897034198 2 0 1
645 1 25.099433433581623 9.34183925869859 11.133320172106766 -1 0 0
976 1 4.66913634198304 1.4510173929376136 8.350983215220124 -1 0 -1
1107 1 4.463563671071456 3.5326618988795486 6.470820372859166 4 1 1
746 1 7.969091847767748 4.827577347685104 6.9747864060820195 -1 0 -2
870 1 5.611610334432862 4.008603666320552 8.51306366486697 1 0 0
220 1 23.06056905683929 9.771785089353763 12.17944974957199 1 0 -2
1316 1 6.8968477120956875 2.270460982539364 7.800360682907927 0 1 -2
1369 1 7.78591402242787 0.49719546448859697 4.987599975167976 -1 1 -2
541 1 12.903483147658244 4.584867893100959 0.26766597331719283 2 0 0
314 1 8.886266209888241 2.251763122506053 6.591595219588052 0 0 2
1833 1 11.787642477850872 1.4695123539738226 6.685039397445331 -1 1 0
1811 1 9.289832123947273 1.3133218216269782 8.978550906391279 -1 0 -1
1310 1 18.38642422950938 12.579171531518298 13.504302351053596 1 3 0
150 1 11.60056855203476 2.497207317615747 9.177248679239847 0 1 -1
906 1 9.135174747358665 3.8000213900645172 8.897889651649487 1 -1 -1
1466 1 15.475074919947252 1.8260002627894578 5.434532891719847 1 2 0
1612 1 13.059963843113643 -0.08262286225653144 4.626520590795213 -1 0 0
1807 1 13.98135092357837 0.8708184448175125 7.056402458661088 -3 2 -1
1519 1 13.364642454523285 3.2229456956420797 7.469144999049078 -1 2 -1
1143 1 15.600087692462026 2.2899122631070665 7.909560697882895 0 -1 -1
526 1 13.449396406137064 0.7761870810630692 9.23653779622581 1 0 -1
41 1 16.71241917925117 0.30052867460766636 7.21076227637039 0 0 -1
1834 1 18.54876138267647 2.0244188649116865 6.67883659238829 -2 1 1
381 1 17.79424396973645 1.594155149282016 9.036451181337126 0 0 1
97 1 17.481996660408527 4.014863199293568 8.654799777495437 -1 0 0
587 1 17.73786785023312 0.0830534564575991 5.371958332145283 0 1 1
367 1 19.794618669367637 3.0571876975755035 8.582018089710205 -1 0 -1
175 1 15.806818659494596 4.194257737273464 6.471844435298651 1 -3 1
1322 1 18.76954868884323 4.608782607735823 6.825103913347559 1 0 1
51 1 20.944699968471568 1.7156025614471413 6.985372343211702 -1 0 0
1678 1 20.437993880635393 3.4253477733068625 5.223388547601127 1 -1 1
1234 1 22.651538882599244 2.5026771667501437 5.02436531145346 0 1 -2
1352 1 21.79395207010415 2.1090762308464988 9.430024429371228 0 0 0
695 1 23.231462695349336 2.5657677119202593 7.218083901731292 1 0 1
2013 1 24.29586100007803 1.1927708638806815 9.020373428581967 -2 3 0
956 1 22.21335625124297 4.872236027188743 5.126694981088715 -1 -2 1
1622 1 23.725066865577546 3.780173471317246 9.412563847526473 1 2 1
125 1 22.22027630886224 0.07162833128824783 8.228655423164106 2 -1 0
1990 1 4.016719286790082 4.21323290864529 13.918847891918935 0 2 1
763 1 -0.059147174803544936 0.8829819507244274 9.000946293457623 1 1 1
54 1 24.47575143703914 4.09479175967186 5.436204618411258 -1 1 1
877 1 26.398497219233214 0.9063443398277884 9.041245221374428 0 -2 0
922 1 26.174856257934742 2.4009249843604645 4.64947264467405 -1 -1 1
211 1 24.86463067872982 0.6229344828462798 5.612591228415367 -1 1 -1
1965 1 27.4173523397056 3.0313239832651426 8.715773891077804 0 0 0
596 1 26.976355279023412 1.0795941723868863 6.793730928655583 0 0 1
482 1 25.45671281219599 2.8814716605259174 7.490109832196126 -1 0 3
913 1 3.702497402902111 6.193616143868387 5.748437699687544 1 0 2
703 1 0.20741083434610996 4.757810399297624 8.305108401944473 1 -2 0
1473 1 1.4637086681399756 6.33408027793036 6.974387573337858 -3 0 -1
268 1 4.08913231199066 8.64026751654641 5.2594936940364905 -1 -1 1
588 1 2.4191938225398677 4.821859886634664 9.445000423968729 0 1 1
1235 1 2.4494446243486054 4.274546519406121 6.83558825146574 4 2 0
1525 1 2.5882026860800096 7.688878146614339 8.393709604682838 2 0 1
1759 1 0.10980887643604076 8.426765940607778 7.899836026325634 0 0 0
78 1 3.867494292937711 5.7571799204873555 8.035550359858805 1 2 1
1163 1 5.979409007590554 5.167140002100662 5.71912730579307 1 1 1
1900 1 8.303584091618367 6.503532769919475 4.827694381643886 1 0 1
1741 1 4.95765557867809 5.83361713657629 9.984073651194137 0 2 0
1068 1 5.828103128625588 7.35300251726773 6.462219211533064 -1 1 -2
467 1 5.2171559249425075 7.8453347753991505 8.553112550187508 1 1 0
1772 1 6.859267266326655 6.115439839314686 8.58795937664132 1 2 -1
1054 1 4.239081913273803 9.369804523549046 7.4808428121795165 3 0 1
1211 1 7.679789308442557 8.669010785757907 5.210576382363004 -1 1 0
2000 1 10.99594767047531 5.0854307636622025 9.177426498643555 2 1 1
825 1 10.174286589232768 8.16505346432692 5.855432407168411 -1 0 1
1278 1 10.77319622425655 3.55515871137254 7.318841190353189 0 2 -1
1887 1 9.993125536534823 8.51412542305537 9.935278531839396 1 1 2
790 1 10.045188505380462 5.769454765770574 6.389944107096738 0 0 0
750 1 8.41660979294811 7.410566529604156 7.351925820109026 0 1 2
1267 1 11.982177772558938 9.677948217349593 6.002567554192132 1 0 1
1422 1 12.102941002119094 6.561473127571617 5.62233938464501 0 1 2
682 1 15.211538488291998 4.459177697862711 8.734385976245381 0 0 -1
711 1 13.952847675767057 4.455479873007605 5.391091302115729 0 3 0
351 1 12.458992803843264 5.332789728653723 7.466288850517487 1 -1 0
1375 1 14.392874251000041 6.326902542352878 6.851767043155707 0 0 -2
999 1 11.028868658272573 7.237474768909546 8.001025482434017 0 -1 1
115 1 14.94418014759203 6.944315287754722 9.26814690246506 1 -2 -1
340 1 14.128143552937319 8.47866519965286 7.606719965165518 -1 2 0
535 1 13.288575656065117 5.407780632888506 9.82782639648538 -2 0 1
552 1 17.98892025504826 6.252386057089551 5.461444270183072 -2 0 1
333 1 16.277230744555332 8.174038585122918 6.728256892230868 0 1 2
755 1 16.970809849052774 6.146154414482635 7.520962032555114 -2 1 0
1983 1 19.080393680136897 7.701918362223043 9.992582591483046 -1 0 1
52 1 19.41256244539598 5.492600376517427 9.338737541225939 1 -1 0
2017 1 18.710985746357018 7.348029740304254 7.2980471300021375 1 0 2
436 1 17.29149097050189 6.242384032332772 9.81877226271613 -2 -2 -1
486 1 16.866550897950013 8.54169280104397 9.230198330908584 -2 0 2
513 1 20.382825736309552 6.298949439154825 6.404180239764344 -1 -1 1
1271 1 21.634203442865275 4.283662420335256 7.610596584256189 -1 -1 -2
2002 1 24.446561344297763 6.798745807964964 5.30290480745196 1 2 -1
1888 1 22.367112416639745 8.909292347964913 4.509860226554324 -1 2 1
1475 1 22.545285676254622 7.23410724960006 6.534761799843321 0 2 -1
196 1 20.929069741533183 7.559289705875349 8.527327675429007 -1 1 0
650 1 24.438961705368857 9.070845417544739 6.573940778974476 1 0 1
585 1 20.710933201406448 8.848270484372716 6.4810504616172855 0 0 1
1363 1 22.927207160651218 9.1891273468948 8.300665742997225 -1 1 2
1838 1 22.562136541019154 6.184346571846494 9.132576448626672 0 0 1
1151 1 28.29220222058563 9.314059380886015 5.633575878496084 0 1 0
481 1 28.13190436903699 6.725533157992293 6.0945807985657705 -2 2 -1
1490 1 23.76931582987381 5.161815584329667 7.502714227577993 -1 -1 0
1062 1 26.004285292353334 5.463546730205392 6.628850932407154 1 1 0
95 1 27.23180526519943 6.224463692980048 8.41385330878697 0 0 -3
1843 1 26.57032090426181 8.170310581999246 6.996939020833894 -1 -2 0
1318 1 24.52507836353875 7.204813121737151 8.046068647474222 -2 2 0
787 1 25.265110281787127 5.17634670204285 9.195770491347423 0 -2 0
2027 1 2.65301023312987 13.44095556039103 7.555647128782527 1 1 3
1566 1 3.1922153404423597 10.813763802267014 4.871762506655489 0 2 1
1907 1 1.3536822416463352 12.251026598499978 5.620091287390929 0 -1 0
24 1 2.0560037298871343 9.363413409989317 6.4807785577874055 0 -1 1
982 1 0.6411721297728491 12.544687819847375 8.918572973787331 2 1 -1
1735 1 3.318040055294786 11.426636360054868 6.842605513744767 1 0 2
1036 1 -0.15069953819916898 13.603711007649846 6.995371872095924 0 -2 -1
578 1 5.116804225158834 13.32913727990411 7.690208452850828 0 0 0
887 1 6.970234534919731 9.119017499080991 7.781697305020209 -1 0 2
860 1 7.870651854770651 10.925675972730273 6.433569652928105 1 1 0
1634 1 4.09431440169529 13.053310764008325 5.468514154812367 0 1 -1
79 1 5.443357413818837 10.302633169162538 5.975261700750428 -2 0 -1
1448 1 6.443100921884643 12.529120406432007 5.580896828010846 1 1 0
944 1 5.648746571483273 9.444082386528798 4.0140683198751335 0 -1 -1
288 1 7.750303331802112 12.620408042843595 8.074920569623533 0 -2 -1
1638 1 28.408585333706455 11.826951447295508 10.99409464696587 -2 -1 2
1884 1 9.553913973515204 9.610582482112264 7.632733363808466 -1 1 2
208 1 9.708856686818688 10.429671412699724 5.232192385294481 -2 -1 -2
518 1 8.269302711991857 10.746346253909142 9.60106093399856 -1 0 0
1987 1 9.100701061868591 12.646491272127856 5.219882510336249 0 1 3
114 1 10.048750489137236 11.877012760495147 7.712084661651201 -1 -2 -1
2020 1 11.667181323725805 11.929935873495442 6.095581485389303 -1 -2 0
88 1 13.399310709894687 10.359250109226464 4.311570276544107 0 0 -1
610 1 15.880057621725744 13.007408248354926 6.610918464741242 -3 1 0
567 1 15.763557514630318 9.730366909970856 5.274383189570629 1 -1 -3
290 1 14.146859647074836 10.666844669737836 6.518549350447659 -1 -2 1
1881 1 13.466794546086065 12.71438397966772 5.157159123002899 0 1 2
888 1 11.937160440357017 9.59818018170099 8.355019461957585 -2 -3 1
1417 1 13.552771473908614 12.781780028341311 7.669122936254065 0 0 -1
1463 1 15.25012122383782 11.942688233327706 8.926525929108093 0 1 1
338 1 14.294875318901454 10.025747284274594 9.250122019668137 0 1 1
670 1 21.905060235502766 13.315869915958588 6.014613131878414 0 -1 2
461 1 16.005365008671845 10.22644689125006 7.612909793429921 -1 -1 -1
1195 1 18.404653687958508 9.663866579183837 8.096425432649728 -1 2 0
74 1 18.155353368872476 9.238130578563815 5.692819687043781 0 -1 -1
1260 1 16.69177394732309 10.29760894855961 10.438773069818932 -1 1 0
435 1 20.020390813018114 11.754947673722608 6.654114325363256 2 0 -1
1786 1 17.460335608247824 11.99775658480168 8.769608208399683 0 0 0
286 1 19.663489260331538 11.854691759001254 9.162952652924044 0 -2 0
1750 1 17.055815379982846 8.349417276580867 11.50210619476147 2 0 -1
192 1 11.247392885925466 0.20034362062044953 8.531357114903212 0 0 0
963 1 20.663429812842445 9.997942181469451 8.651899165583266 -1 0 1
556 1 21.981874941798655 12.16622771835529 8.495494465925361 0 0 -1
1185 1 22.25303322127689 10.650061494375784 6.301946595759174 -2 -1 2
1000 1 24.150388050150525 11.243454479869158 7.985107405800818 0 0 -1
1534 1 23.964765602253117 12.247965500322524 6.175153699325257 2 0 0
62 1 6.925233966571179 -0.04406632380150735 7.284268222270196 -1 0 -3
135 1 -0.08307053525328376 10.881695864464232 7.288736046417027 0 0 -1
1976 1 26.676717194736646 12.578090090004693 8.038715838397602 1 1 1
1730 1 25.44734816016097 9.422026139596301 8.731511662029103 0 0 -2
1013 1 25.22373365266714 10.887586413509743 4.939530689442412 3 -3 0
2045 1 26.351418423795568 13.262606113364267 5.739374188140791 -2 -2 0
1687 1 26.267616736511194 10.63085506738598 6.863776881123171 0 1 1
1084 1 27.573620208146707 10.63840113722465 9.085002377813812 0 0 1
930 1 3.9372812613165715 0.4080077762140617 10.570510237156043 -1 0 1
2041 1 1.4875929929305218 3.517928185510136 13.221462082863438 1 -1 2
1094 1 1.094033646388558 1.3355658391900065 13.34732941973559 -1 3 -1
751 1 28.280913218974586 5.74021093365846 13.372927604289217 2 -1 2
1334 1 4.490267886842101 4.5052048894048955 0.7052857673929789 4 0 0
1745 1 3.851261180308928 1.6621313957513888 13.283445636548619 1 1 3
1897 1 2.4979198601494343 2.6032310819885676 11.270611855267356 -1 4 1
864 1 6.434726058386104 0.8155924830957155 9.85916816617161 0 0 0
803 1 5.980742465374571 1.5855084790861473 12.193852373921272 -2 0 0
528 1 14.669604016366103 1.2624476928884814 13.666709687051924 -1 0 -1
1056 1 7.435569367873095 3.0229290275158984 10.368458794002652 1 0 -2
33 1 14.95088735298979 7.214318322259765 0.734832646149863 -2 1 1
1221 1 4.805255575316024 2.8416400182565518 10.665102175774235 1 0 -1
915 1 22.50164259247818 12.231505627090463 13.137675041204028 -1 1 -2
1912 1 9.615366271381411 0.3543092152666095 12.472237589142658 0 1 2
1416 1 18.15314881317965 9.319991545241852 -0.02291194521655232 -1 -2 2
1871 1 9.564914169361675 2.2139815542890546 11.043766252163998 4 3 -1
492 1 11.76401455608435 1.3354216030646118 10.987207971619176 -1 1 2
1103 1 8.201014395406263 2.8866900050080044 12.700695746200848 2 -1 -3
252 1 24.865171411753867 13.273928906719183 13.652729438321327 -1 -1 -1
122 1 11.82934764032087 3.907374241236801 11.071786760538869 0 -1 -2
471 1 10.42139130649596 3.958701564150714 13.27574026713808 3 2 -1
1477 1 21.07009220996341 13.931086330583552 9.938725412010223 -1 1 -1
707 1 26.61477150924519 13.297115301182405 11.849963227383867 1 -1 1
136 1 1.3132561056907732 0.21020386441659267 10.948199129551176 1 1 0
307 1 21.48321848908638 11.834728477720942 10.859112127877047 2 -1 0
102 1 12.591237876009316 2.646114823935603 12.936299901707605 2 1 -2
546 1 14.030227715160033 1.062468612382105 11.436846536005724 -1 3 2
334 1 16.085264152122992 3.0283397244592005 10.316849865959151 3 -2 2
1153 1 13.715543852457564 3.0563677942398093 9.843694399728022 -1 -1 -1
53 1 14.73338056724944 3.1251413509459627 12.165084883773709 1 -1 2
133 1 15.878047363439308 0.6055873069478674 9.890536023021882 0 0 0
2019 1 16.3512033024062 5.542057109284862 0.554351323228879 -2 -1 0
222 1 20.113927132204715 0.40233581700489407 9.71650757146816 0 1 0
1577 1 18.160521769382473 0.18164138359141718 11.237070087048908 -2 1 -1
1896 1 17.065232402953807 1.931875072063932 12.194593503796911 -3 1 1
580 1 19.119631627106006 0.8625568112388105 13.23922320674302 1 0 -1
738 1 18.71144935082011 2.547588363005685 10.636030560397367 0 2 1
23 1 18.9738731626195 3.293149769609654 13.400266299383008 -1 -1 -2
141 1 16.92638303125922 4.270485301877529 11.83299078349264 -2 0 0
137 1 24.8796595672225 14.100071493529411 2.211522822971052 -4 -1 1
1402 1 22.85553458723024 1.4732768571055213 12.784658681963597 1 1 0
1547 1 21.39410194601586 4.273972051111395 10.155170474463741 -2 0 1
1768 1 20.734182534106736 2.069768738953229 11.713164406952933 -2 3 0
1348 1 22.779585074323304 0.4987901845171746 10.817106376274273 1 -1 0
470 1 21.351879434240633 4.355925041402494 12.882464993582065 2 0 1
1798 1 24.9474548467582 0.7356375313292124 13.62055310901638 0 -2 2
854 1 18.88931229026953 13.831950462152449 9.632125334527323 -1 2 1
668 1 27.714947636663368 2.1685304909156073 10.723345273146634 -1 3 -1
978 1 24.952567987397344 1.1606280023381224 11.173043177625757 0 1 1
1910 1 27.623928430457774 3.4736676174752836 12.739772265343134 -2 1 2
560 1 25.217479283210423 3.147390500965152 12.69430658951495 -1 1 1
1423 1 27.31162994940963 1.2403889661836958 12.895293814663475 -1 2 2
1489 1 25.83163469504282 3.484533755405753 10.415713865719363 -2 -1 2
476 1 1.0039733029773166 9.76454525369429 12.482922895645366 1 1 -2
226 1 1.0802201894903805 5.099695801910691 11.23320317329351 -2 2 -2
147 1 27.867193241330984 7.037568224304962 11.310986061127524 1 -1 3
1308 1 1.4714690782120254 7.649678768355961 12.124983001575181 -2 0 -1
1924 1 0.6773919392130451 6.782809147101847 9.357276515827152 0 1 1
1775 1 0.5187323814393241 9.121975957005475 10.365826491949981 0 1 -1
1296 1 3.0944746419744282 6.7878660810242195 10.52240784146267 -1 -1 -1
573 1 3.6127469828720797 9.026036611311593 12.265099070833868 0 2 0
86 1 3.6057219523506694 4.573218717970834 11.476535902409765 1 0 -4
1464 1 4.409956923206702 6.495353278828299 12.797432860840548 2 0 -3
725 1 7.281232208094323 5.384810463570192 10.810639611342962 -1 -2 0
1119 1 5.870618932311343 4.538590794674646 12.330679506948533 1 1 -3
1484 1 5.219808262771857 7.970145731368438 11.238523246771468 1 0 2
732 1 7.693435937241427 8.128937770905557 10.172333487377877 1 0 2
1023 1 6.680358518385282 7.047160254737501 12.933496408886075 0 1 1
576 1 24.59967295208857 11.644285401391892 12.06178846988635 2 2 0
1776 1 5.995638940637868 9.781156540246936 9.953331777642092 -3 1 -1
1082 1 23.0702744669359 14.14203851687615 11.737544738071616 1 0 0
1039 1 9.492566546935057 8.208597850103743 13.416660457036752 0 -1 0
2010 1 9.563321515229003 4.58289106001887 11.033082305118947 -1 1 0
1908 1 9.112440342969416 6.007831702441491 9.241907746735025 1 1 0
891 1 11.484363480320834 6.411761276492055 10.858394893137461 0 1 -2
1419 1 11.141801981733723 6.387225071816043 13.436408538285646 -1 0 0
821 1 9.379246262682976 7.058947717246335 11.565473720221306 2 1 0
1668 1 15.243433758543727 5.480080514135018 13.527941140711704 -1 0 -1
633 1 13.022714509081643 5.086502848115689 12.36544580187429 2 -2 0
270 1 12.64941191405496 8.088457365407072 9.971441866812444 -1 -2 0
1718 1 15.42645820650263 5.741886519860446 11.160876999612247 0 1 0
322 1 13.617502254103641 7.142788223289172 11.93160404147079 0 2 -2
582 1 14.661074457268278 8.798234443110829 11.214363751885813 -2 1 0
1230 1 15.824380622144108 7.641683172479415 13.26400215539977 0 1 0
291 1 18.209444057787163 8.227489462545122 13.793109876784726 -1 -2 0
1376 1 0.30419580094923265 -0.038252099297204356 3.1523266729342123 0 0 1
929 1 17.753684557065142 6.395217657956192 12.523063119494596 -2 -2 0