LAMMPS data file via write_data, version 29 Oct 2020, timestep = 300000

2048 atoms
1 atom types

-0.21360479327494275 28.565604793274844 xlo xhi
-0.21360479327494275 28.565604793274844 ylo yhi
-0.21360479327494275 28.565604793274844 zlo zhi

Masses

1 58.933

Atoms # atomic

356 1 1.6075225233203745 3.664461204538851 2.9440355031819427 -1 2 -3
1400 1 0.3277638902045886 3.2286445697632007 0.8608462971974917 0 -1 -1
397 1 2.5876935766971494 3.8810722604928385 0.46159296148794493 -3 -1 1
1898 1 2.332945277036834 1.5132055146809569 1.564586016156236 -1 2 0
737 1 8.156467016214059 12.174885409732651 -0.19587650248616212 -2 3 -1
133 1 2.7567378623395253 1.9210684559374047 4.12846032429526 0 0 0
551 1 4.220102607095707 0.20817980128560581 4.549405228091535 0 1 1
591 1 4.144449347242369 3.0911507241312957 2.0757055957510264 0 1 1
532 1 4.89641015337779 0.16001753048609552 2.261813465412078 0 0 0
349 1 5.2422425080957975 4.573955767938701 0.534278994540749 3 0 0
1108 1 6.321611529570289 2.359248621987845 1.7340565485822088 1 0 -1
1617 1 5.55266132278877 2.055674122907321 3.77340043364684 0 0 1
1376 1 7.062465685615397 0.23693264953541565 3.189177554898064 0 0 1
516 1 7.941690871788975 2.9514961141302756 3.3145548358053714 0 2 -1
428 1 4.338260774226176 2.038388614097352 -0.04775415842398978 -1 0 0
970 1 9.712002564543932 3.4021222809636056 4.896718715836677 -2 -1 1
1703 1 9.301819857031994 0.9106647324831358 2.4786561568164656 0 2 -1
1562 1 12.526470712645748 2.593894443994337 0.4237952401240195 2 2 -2
290 1 10.412143400544256 4.292737811273834 3.2150315118806754 -1 -2 0
961 1 24.546234755927408 10.238872423220267 9.650149490269117 -1 1 1
1104 1 10.084524038875777 3.130409182120036 1.551742671749965 -1 1 -1
1195 1 21.808587285156335 11.223503502140321 8.632971240636751 -1 2 0
1287 1 8.281986806690899 1.837078743499962 0.6920552040612059 -2 2 2
109 1 11.349169097274258 2.092492104770315 2.9447565775538207 0 0 2
667 1 4.6624979558366695 4.368334117957616 14.154633757101138 1 0 1
625 1 15.043449846219213 1.415835787634629 0.49676686348637855 0 -1 0
10 1 12.630404339727502 4.049493445261494 2.2627691789564084 1 2 0
1470 1 13.593046783477002 2.0588255690424444 2.7564965202573983 0 -1 1
185 1 13.414221621428148 -0.1283752865135252 0.9728939435109845 -2 0 -2
510 1 14.491605664904945 3.907284182990896 0.735887948061632 -1 -2 0
895 1 15.700168527529282 2.8016613443572163 2.9341593572727 0 0 -2
1555 1 13.948516187174892 1.9096270019308204 4.903685114451638 0 2 2
1028 1 14.409962263883237 4.184868963734599 4.064890069694133 1 2 -1
996 1 21.275559356323782 12.996685335011943 10.48146754008399 -1 0 -1
581 1 17.061557555052293 1.3544919082244415 1.8127066937943543 1 0 0
1811 1 16.86981589672152 3.5573302320704614 0.7195196047468674 -1 0 -1
822 1 19.10292956111128 2.3671004073834636 1.2127744861699914 -1 1 -1
1205 1 18.39505347265762 2.319936836711724 4.876123792826512 -1 1 -1
703 1 18.213532518298617 0.5387393643643442 3.530538914609412 0 -2 0
1691 1 20.57074866308812 0.8903959507584751 2.1026007085786995 -1 2 1
378 1 17.939796504366477 3.947639472279885 2.9479674368584408 0 1 1
950 1 16.158862615924214 1.2802726398444912 4.739810548165395 0 2 2
317 1 15.300367348453548 13.069411798817454 0.5711579476171016 1 3 1
458 1 20.77704514541809 1.1009456039333 4.1775078522115034 -2 0 1
469 1 20.24230430152883 3.33359872022582 3.188492154280415 -1 0 2
1592 1 23.50220460613875 3.651850165725194 1.1363347193352293 0 0 0
1651 1 22.530539298886264 2.9102886250364532 3.196311002121611 0 0 0
174 1 22.73055076017904 1.5904847405891012 1.1027446019258615 1 0 1
1364 1 22.976651579320862 0.7349341144604027 3.369303282669591 2 -1 1
1196 1 -0.1671857787225408 0.4041647313811887 8.952688486209269 -1 0 1
142 1 0.01638584457759326 7.213721807778879 -0.012681458627963632 0 -1 0
940 1 24.791980915350738 2.2589602693942794 2.821502469470123 -1 -1 0
698 1 0.3797905926978685 1.5793907708284238 2.584439869300497 1 1 1
1251 1 26.13066844053049 3.786058602711981 4.083516550734171 -2 1 -2
1192 1 26.603471717367302 0.7347725428737822 2.1810733257241486 -1 0 2
1701 1 27.463793862270933 2.8979931463874347 2.4333766389105476 -1 -1 0
1226 1 24.202990675505756 4.64645779790762 3.0082010050225327 -1 2 -1
1307 1 2.431454261024384 7.849612544926977 0.0708570426578678 1 1 2
876 1 28.41522659788589 4.896594576746054 3.3870652016110605 0 -1 -1
845 1 1.6093737976080502 5.670659823149009 4.37936548506119 0 1 1
787 1 28.341105071827503 7.531887332744355 2.7065125235864835 0 -2 0
867 1 2.0616921313980865 7.617685514039562 3.125270195729379 -2 -1 0
1177 1 0.6541136000276077 9.13387130845228 3.9424692504679815 0 0 -1
535 1 1.655907767707945 5.747358778156593 1.603874561916456 -1 0 1
1917 1 3.9534971996877832 5.937423077566564 2.3376223275957924 0 2 0
1433 1 3.605280555212616 5.814142779555732 0.09180865949104616 -1 1 0
1534 1 5.760295888366577 4.603059159622706 3.1698169639057334 3 1 0
230 1 7.5755436654427655 4.204230880258387 1.539765353670063 2 -1 2
1473 1 4.337520539326172 8.357022588079861 2.1179925861457334 -3 0 -1
1293 1 3.8372465338660895 6.771340547925631 4.669178912591951 -1 1 0
1357 1 6.1504154959615756 7.01436989605375 3.4340468012157817 -1 0 -1
801 1 6.022748274595003 6.592466060899514 1.2630997162177369 0 1 -1
1837 1 6.3049479453146695 9.147770177881386 1.0938095891149318 1 1 1
1216 1 7.960928852309465 5.545770591591159 3.9848795803444244 2 0 2
1822 1 10.093373934548598 9.382620022018456 4.6395328137829654 2 0 0
559 1 10.20934432730495 7.2332631460923755 3.0813123904749142 0 -2 2
1738 1 9.35896894201549 5.67189222259168 1.5549790685110811 0 2 2
1934 1 12.08363455844344 8.425681276176903 3.5628860280850456 -2 0 0
528 1 8.395304051060265 7.728769878143357 1.4574801051921646 -1 0 0
1849 1 14.447597876898207 7.386795747551509 2.6903163443418 1 0 -2
1602 1 13.896318785230262 6.087990339689086 0.9204156461900037 -2 1 0
1517 1 11.761860420552292 6.829587144644863 1.587542361460696 -1 -1 2
1678 1 13.278987594805285 8.570522159372276 1.475326616626742 1 -1 1
1746 1 11.721010153107443 4.827083944675792 0.37733792859867743 2 0 0
1817 1 12.445518322454532 5.9674514748362375 3.5073806473616487 2 2 1
1472 1 15.928551740509423 8.47048360374595 4.565680410859814 -1 -1 1
1156 1 15.994730327625895 8.67810003656703 1.6055850447264541 -2 1 0
1526 1 15.707143550324952 5.14804331477529 2.366363998270299 1 0 0
1726 1 18.934436709762025 5.117436005981215 0.8379803920416005 -1 1 1
1975 1 16.951522369197086 7.104009151030406 2.9485649429569825 0 -1 1
1303 1 20.475102058200644 7.347159124504401 1.2211905904968516 0 -1 1
297 1 19.09674693637915 5.866526417211085 3.039630149687427 1 1 1
1278 1 17.98681934408077 8.420234691345456 0.5465289415583705 0 2 -1
725 1 17.037251692559572 6.268559785902628 0.48747149784593713 -1 -2 0
973 1 18.24783503645099 7.602763360151253 4.738792695094567 2 0 0
37 1 21.520522073885587 5.163816711857586 1.8793035311948763 -1 1 1
873 1 22.448962477243278 6.821755108799029 2.7193283700330046 1 -4 1
1774 1 21.814518758926617 5.101967850473238 4.24723440763038 0 2 2
2048 1 25.146065949465893 8.294282243486363 2.820058411130699 -1 2 1
34 1 24.739136029971664 6.134409763946848 1.3212787372315409 1 1 0
211 1 20.62582443135564 7.186123090162747 4.352964125712102 -1 1 -1
1921 1 26.621241866012333 7.638729366409848 0.9533629481703507 -1 1 1
520 1 28.146468218493474 5.181821188875622 0.9844225100599193 -1 -4 1
1420 1 23.97596744551847 8.289930018551752 0.6193127792628532 -1 1 0
838 1 26.42726628605717 6.20147096759581 3.0043310452893595 2 1 -2
1640 1 24.51778674361674 6.447732123438897 4.108490602847235 -1 0 1
1786 1 27.271319985817698 9.59767297429121 2.920054320250267 0 0 0
1632 1 25.872880606487847 4.183838780359469 1.276299990233906 0 0 -1
1268 1 26.57960000996188 8.137921548980518 4.632948140203548 2 2 0
258 1 3.7833077786950766 8.896435387819881 4.554811058065764 0 0 3
204 1 1.674068601516427 11.557469086869714 4.140693112612551 1 -2 -1
778 1 7.310768692474975 -0.12451753805458188 7.102190403803598 -1 1 -1
548 1 1.0571242603365645 11.089212926967619 0.06249003467680336 -1 -3 0
135 1 2.61378685609243 10.084092838243375 2.60425133045046 0 0 -1
1658 1 2.404431564595571 12.26378759335158 2.0433205855109047 2 3 0
1047 1 0.657971635467785 13.713993169559656 1.2459493672330593 0 -1 2
39 1 4.096039178538246 11.141525671283658 3.9885568052094094 0 0 0
1159 1 0.8864610919063132 13.786363898482346 3.5969527861710615 3 1 0
1341 1 5.952723154633274 10.128665489615335 3.361618139669465 0 2 -2
434 1 6.7542185518604105 13.658419286886279 1.1880930337681963 0 2 -1
351 1 4.3691485294714125 12.994608009774103 1.2981034897811454 1 -1 0
288 1 7.780794386424787 8.712541754931605 3.4886350912182498 0 -2 -1
319 1 7.480729722940781 11.306899531813382 1.7458961378593476 1 0 1
1252 1 4.782518798528127 10.755162123723824 1.5375766368761816 0 -1 2
662 1 6.115530146004289 12.598136927919974 3.3718625115288425 3 -1 1
1210 1 27.544936967929125 1.7687189153452385 0.29266255785522177 0 1 3
1103 1 7.893880752080454 12.852451954504769 4.943314461647952 2 -1 -2
1259 1 9.495515180997087 9.790355126815314 2.31477789720785 1 1 -2
941 1 9.421464329780552 12.764094878042764 2.6027071104802206 2 1 2
1015 1 10.576008838202961 11.767582987515752 4.207231891718979 3 -1 -1
542 1 16.682957228664318 10.86849444976398 12.135379598744962 1 2 0
522 1 11.047028084162637 9.113525391635623 0.5287992639557212 0 0 -1
2019 1 10.211517450188047 11.612784204433918 0.9631504551680004 -2 -1 0
682 1 6.283528007190873 10.676805932587586 13.7224444092712 0 0 -1
227 1 17.31069357431251 13.079494041131337 12.569564089880888 -1 1 0
1425 1 19.179739705997758 -0.1754903409204478 0.3122937215904019 0 -2 3
380 1 11.80143742437535 10.546619193439602 2.2772318242158924 0 1 0
978 1 21.282980006072272 3.2954445687485214 0.7050833212456566 0 1 1
302 1 14.208835965887426 9.8049692609603 3.2934614586982005 2 -1 1
844 1 12.674784156806624 11.59994018079475 0.4149692679785292 2 -1 -1
930 1 14.850315645179029 12.407286686342616 2.8703615213390363 -1 0 1
537 1 12.365957956910988 12.925838272745942 2.447992301896894 3 -2 1
795 1 14.546471989784884 10.270451706116239 0.760706326612879 1 -1 2
54 1 20.790992531329593 8.983913161070339 3.1622156142213127 -1 1 1
450 1 16.497710856924765 10.577568486018432 3.172563444690208 0 2 0
51 1 17.367801184124687 10.982662091504245 1.1844762776376003 -1 0 0
565 1 18.329087829971133 9.21538250594614 3.0025392568651776 2 -1 0
1444 1 17.043578440528492 13.170182230764926 2.28754164003718 -2 1 -1
607 1 18.63195421345449 12.109099704797076 6.335148966152476 2 0 0
1071 1 19.3473910811184 11.331329651999551 2.7809007116106534 0 -1 2
179 1 19.546203199969487 9.964198329179133 4.994200919693987 -1 -1 0
2037 1 7.056942556255148 0.05320166857380121 13.15496151821784 2 0 0
422 1 19.454247182632173 12.312342484888353 0.6814926981750925 0 0 2
951 1 26.126728415803285 13.068183343584918 8.427974195090776 1 1 -2
1550 1 19.983655312094164 9.991510548168717 0.8506032056770045 -4 2 2
1927 1 2.2577475514638983 2.4991151653810677 12.439789853816238 2 0 1
1449 1 13.827927673516935 -0.03187946242688999 7.227268255244886 -1 0 -1
1140 1 23.744618219897525 12.13408482403662 0.8771669285949537 1 -1 1
218 1 21.50422192390913 12.484547431570746 2.021787579553599 0 -1 0
1447 1 22.516134315639768 10.176159120511405 1.5528280653942999 -2 0 1
1537 1 23.639657198858192 11.596307316900468 3.1586745152045066 -3 -2 2
320 1 23.244857736990788 9.340899988986228 3.6465755889163645 -1 0 -1
1949 1 0.829578032421918 9.081376936454747 1.4555674338582623 1 1 2
1943 1 25.260831802278773 14.001346942096022 0.5223792026594893 -1 0 1
285 1 27.593479494294083 12.180698682729052 0.8316025084709422 2 -1 1
187 1 0.20821651895128407 11.463363425693538 2.4552628327775823 2 -3 1
1393 1 25.718365230689177 12.393158951243343 2.2137809490492915 1 -2 -1
615 1 25.47947377947007 10.571632607763437 4.011739832235662 1 -1 0
1145 1 25.127519407049377 10.34145687503643 1.5530316838238327 -2 2 2
798 1 27.344487039077084 12.626131652459025 4.0634064768506475 -2 -1 -1
2035 1 27.940410111252326 10.80067690997972 4.889475010722006 -1 0 1
623 1 27.18291257599234 9.905364261257793 0.4704896732422895 -2 -1 0
1544 1 2.2791208495565662 3.3167744247469106 6.135859559604281 0 1 0
1566 1 1.3824520878016964 1.081165094917967 5.626201594206456 0 2 1
1830 1 3.517245848138632 1.0169744535603786 6.6860465093656964 1 2 3
1235 1 0.35846150295708323 2.4352213189852896 7.405926191868189 4 2 0
181 1 0.0913807750371517 3.0331051952951573 4.644192494600202 2 1 0
899 1 3.360403704135623 3.2932484758577867 8.190642041253062 1 0 1
138 1 2.2314312895352 1.104223285207199 8.985239755709344 1 -1 -1
1988 1 4.548063199597192 2.9465376920134374 5.962439533740668 0 0 2
374 1 4.523566322129357 0.7147318717738077 8.608685524233508 0 0 0
1121 1 7.096697525831593 3.7183125623493862 5.34823002001614 -1 1 0
1232 1 5.765895790344048 0.8294443736430013 5.863483711558267 1 3 -2
1509 1 5.927205403354628 2.3052472340882315 7.5576319468111866 0 1 -2
652 1 7.883717209295728 1.2363168815576355 5.288037269442877 2 -1 -1
777 1 11.117027113483017 0.5594774080342377 1.229322264931024 0 -3 1
1743 1 10.100865685841034 0.7909467110199058 4.6926699771514375 0 0 0
1498 1 7.956933551147298 5.6323097929048265 6.4672529936467225 1 -1 1
1102 1 12.054390789372802 0.02689153768158581 8.76727763182174 1 1 0
1980 1 9.61936476321781 -0.08575688609548493 6.832595828052499 1 3 2
903 1 10.25720891988396 2.396293107223969 6.9859779435800045 -1 2 1
221 1 9.782823751232762 3.69510656541314 8.774492037027283 -2 2 -1
1496 1 8.130212321630466 3.4307937554898458 7.327164507725099 -1 0 -2
865 1 9.107453532485216 1.5319517070113693 8.798778132513016 0 3 1
130 1 7.448849522239318 3.1046815588308743 9.711708824867529 2 -3 0
1322 1 12.19410182533631 4.301875325048616 8.159760440505957 1 0 1
1064 1 12.344907304033114 4.471212685569766 5.813653518708803 0 2 -3
989 1 12.893973756252196 2.3091882146776257 7.318877383230008 2 -1 3
1942 1 11.74377616268072 2.222850035104384 5.1685020414752465 2 2 -1
192 1 15.107765023242568 1.88469841186699 6.683777041345315 0 0 0
630 1 14.727806080403838 4.056093013134278 7.399017977613049 -1 2 2
1829 1 13.362178953340562 0.9378432374763437 10.954826709414549 1 0 2
201 1 11.695809153817699 13.735837177996494 9.800584623146372 -1 -1 -1
43 1 14.385914454731603 1.9111767932397807 9.02638403896607 1 0 -2
1605 1 7.819607294726511 14.040424977708813 7.217184109634434 -2 -1 1
1074 1 18.160462345533038 0.3413876022724297 9.762876522592183 -1 0 -1
820 1 10.612064715454789 13.608865239178124 0.06144229815039487 0 0 1
316 1 17.640634612406608 1.418039353417685 6.762189452491066 1 2 -1
121 1 16.276830431951563 3.373804020041168 5.70931436852704 0 -2 0
125 1 16.847165988885052 2.799016432546475 8.118425973860505 2 -1 0
1762 1 19.431939623697954 1.7556691298606526 8.380541208168964 0 3 1
375 1 18.445483226338876 3.540641951308289 7.030141409806392 -2 1 0
1041 1 23.831908292991265 -0.16461221508131066 7.816553725510007 0 0 -2
1669 1 20.096075975502174 1.6219467511162733 6.082551503675664 -1 1 1
484 1 22.439443114077456 0.42229909823977463 5.783519116663642 0 1 0
1644 1 22.139140284285517 2.8108936895748413 5.572280531222984 0 2 1
1778 1 21.8400021318476 1.7541607452080556 8.329975253242191 0 3 1
1723 1 11.85723022257094 0.34946367300632564 6.290270999048013 0 2 1
33 1 19.645304749404946 4.343644060663541 5.202064042760478 -2 1 1
394 1 23.903271602654584 4.742966196004928 5.632707198657319 -1 -2 -1
1636 1 23.196907919513006 4.7887163439213225 7.8194650009597915 -3 1 1
557 1 21.562306677709277 5.540812477399681 9.090657112666566 0 1 -2
429 1 27.438664508466402 1.4144554538361227 4.41388993383918 -1 -1 1
1525 1 24.496926760130147 2.3613081590742184 5.297697870154565 1 0 1
1438 1 24.229133546640654 2.6220716175329786 7.7962016536601215 -1 -1 1
373 1 26.651542197502337 2.214880573347783 6.768804401456592 -3 0 -1
1353 1 27.86807295619615 0.20721391791220378 6.388355481556352 -1 0 1
1734 1 25.521373731158683 0.2649895324970219 6.251238058439122 0 1 -1
184 1 27.595281898843133 4.255681019913525 8.421531397460466 0 -1 0
1019 1 25.93490390726934 0.8867429393098856 8.80406023235802 1 -1 0
454 1 23.479542422950477 12.004848318742846 10.814489176999475 0 0 -1
1687 1 -0.01115305585401688 4.682216800232797 6.1572714003500195 1 1 1
1044 1 25.36831373468655 3.0425329274830135 9.531753710490548 1 0 0
550 1 2.1022627919733834 6.214248574926184 6.708970950610928 2 -1 0
1861 1 1.6906666867037803 8.005031283086216 5.718054758990517 1 2 2
1406 1 -0.209361879029629 6.93860594342338 5.256194612283114 0 1 0
908 1 1.3262453088314554 4.473094478715143 8.001514671268762 1 2 2
1923 1 0.6725901300051386 10.187485807245553 8.228516106026275 0 0 1
206 1 3.3860117123051015 6.751525462271589 8.6710407249862 0 0 0
108 1 28.35387153332125 5.537314139918818 9.957282837872356 -1 -2 -1
704 1 0.12453714967296015 6.7394073380133515 7.7772657683335575 0 0 0
95 1 3.6974672580832233 8.39146023325064 6.854832006150115 1 0 -3
225 1 1.7769930173671185 8.196377943276504 8.38495471772743 3 1 -1
1411 1 4.357309287686499 8.604077164218005 9.12848556238101 0 -2 0
1660 1 3.841524356510287 4.292837393557593 4.200532994808769 1 1 1
1732 1 4.131003949132811 5.284767880153481 6.679190281103047 2 -1 -1
928 1 5.862782437516348 5.530953093990377 5.315298919146014 1 1 0
958 1 6.228186199765628 8.367991722008332 5.132702787579248 2 -1 1
715 1 5.575200586161913 7.077297011422472 7.008161839164725 1 0 -1
1789 1 7.98055013342268 7.282290823721084 7.727345855874539 1 2 1
892 1 5.936018208004871 4.520935411092639 8.136989750327372 0 0 2
981 1 6.297958658109412 6.402245563407997 9.149329249798262 0 1 2
825 1 6.4181672427101 9.36535232973612 7.6273576195937185 -1 0 1
945 1 10.129368926433603 5.230973265904467 7.206200644456867 1 0 2
1350 1 8.327291795979416 5.370605070196632 9.044682481295833 0 1 -3
141 1 10.369831434346766 5.861022326774721 4.987619464671005 -1 0 0
831 1 8.495879743440893 7.473261225311655 5.316338772966413 0 0 0
371 1 10.14594727989795 8.087525852660566 7.3692573574328755 0 1 -1
334 1 8.774880435778266 9.779020881517773 8.249770510616115 3 -2 2
1391 1 11.244117262817724 7.7444041697097585 5.651754707371573 0 2 0
467 1 10.675117440394743 5.469622517848354 10.469960147896238 1 1 0
700 1 12.405709763185193 8.767885068354452 7.517708328733327 2 0 -1
418 1 13.509836520916187 8.605655036610727 5.341525898035593 0 -2 1
710 1 14.381832051560618 6.297687462736428 4.973999571593675 0 0 -1
1772 1 15.230321584183432 9.371440443142689 7.2467389997114005 1 2 -1
352 1 12.65189153830054 6.526073626486536 6.761739547485316 0 3 1
674 1 14.737595507593658 6.771184708424099 7.553491248901884 -1 -1 2
470 1 19.40542876719903 4.91923400648344 9.167738350392357 2 0 1
1737 1 16.43827153676759 8.892325171357603 9.272128343108005 -1 1 2
779 1 16.747739718771 5.227165111725361 5.027613309258702 0 1 0
298 1 16.917500261987755 5.12754086100525 7.784522188304291 0 1 0
414 1 16.89716364169327 7.730515336767664 6.8911095240854525 1 1 -2
1714 1 18.650983034813862 6.046142550435248 6.698923940067635 0 0 0
799 1 17.86834157915287 6.660665792107457 9.064253136486997 0 1 1
45 1 18.529694064814848 8.90891820337807 7.8605469252720805 0 0 0
1969 1 15.656635774057527 3.647742372884408 9.793976312357108 -1 0 1
1282 1 20.09017092630584 7.132282901328652 8.434090580738909 -2 -1 -1
328 1 19.887349562173227 8.11347825032558 6.14947008404476 -2 -1 -2
547 1 20.7983958111053 3.6488374745839662 7.402119376764601 -2 -1 -1
507 1 22.703196682187844 7.184579121334233 5.274754000816994 0 -3 2
564 1 21.058067169252283 5.94365593573657 6.377806354686133 1 2 1
1766 1 23.620663609750522 9.480295879068981 7.744119014659273 1 1 0
233 1 20.698549550840795 9.308703730737696 7.809060928449812 -1 0 0
1431 1 22.32559151037149 7.436139552982084 7.605174255185126 -3 -1 1
1484 1 25.74389205797905 4.5412161594102765 7.128442754451106 0 0 3
1850 1 24.358972879314543 6.888603335418006 6.7828164600513885 -1 1 2
119 1 28.46607470629914 9.108066269479473 6.475901974297428 -1 -3 1
2002 1 24.395155384793156 8.91497655009176 5.453061568533475 1 2 -1
1579 1 26.459370678117924 5.725212677408032 5.173882489642529 -1 1 2
1577 1 26.655128872402127 7.0070828327552315 7.034760028079645 -2 1 -1
1266 1 27.787498207370465 7.940537887584597 9.31301556523219 -2 0 -2
610 1 26.201617907514144 9.298434661301771 6.537513153260354 -3 1 0
1316 1 23.517338339409708 6.03253501238278 9.74732451224264 0 1 -2
389 1 20.45549979083371 10.262800108543221 10.311591348549227 -3 0 1
1271 1 1.7779861097700307 10.148172948709929 6.128391012191034 0 -1 -2
1349 1 2.6676964220114407 12.887369543218178 5.687111492078423 0 0 -2
209 1 1.410545104479162 12.395855293817819 7.532478149124057 1 0 1
1990 1 3.252522700885553 10.324637582700944 8.23020358919116 0 2 1
70 1 4.540017229250116 10.89030794130408 5.971121225887994 -1 0 0
907 1 6.583437336014036 11.136512645735825 5.465906346155604 1 0 -1
1542 1 5.344621675800394 13.489047340913057 5.6682488593919125 0 0 -1
1366 1 5.395527232469974 12.554827075710607 7.666083884640999 2 -1 0
944 1 7.673026602278543 11.83165265070984 7.6755309196675086 0 -1 -1
1877 1 10.128233863493001 6.754866795899631 -0.19044923054208956 1 -1 2
1371 1 26.38130580939486 9.072879216944159 10.952816314750113 1 1 0
1513 1 6.786919243639407 12.997161648895291 9.377526341562767 1 -1 2
1279 1 8.72751377126147 9.742777778726172 0.003982660314402031 -1 -1 1
719 1 8.23340452898582 9.590670067826606 6.266313280739309 1 -1 -2
1230 1 8.30704838633876 10.957711916236029 3.8738014073383304 0 1 0
1535 1 10.83858975574677 10.244319966968737 7.027289266289656 -1 1 0
572 1 9.639070900221578 11.99195778750428 6.101070369592351 0 0 2
343 1 11.984316093188216 11.339057666859507 8.646610643021928 1 0 2
1476 1 11.860595548059248 12.843932082541507 6.171212825593106 -1 -1 1
677 1 2.4266123947154505 13.999549633945096 11.091133972404611 1 0 1
964 1 15.320209773129465 11.02544561603726 5.382497994305467 -1 -1 1
1965 1 13.196078763076098 11.906196017260235 4.26484885531864 1 0 0
306 1 16.073366273767583 11.708854890454134 7.5851388693261015 0 1 -1
1421 1 12.080399587299434 10.061393281734164 5.142890555379179 -1 -2 0
1565 1 13.889722841474509 13.507193089704455 6.575734380740332 -1 0 1
887 1 13.391067680889307 10.956563131209533 6.662017693924358 -1 0 2
1573 1 27.427127231954252 -0.1754671726102508 10.802464574681347 -2 1 3
1466 1 28.126472673765715 9.772233840207374 13.100173825696876 0 2 0
1532 1 23.77682113665877 14.115908603426758 2.1822682694090543 0 1 1
1475 1 17.484753264374337 9.97374410300177 5.841943596407582 0 2 -1
2000 1 18.82626704416878 12.813810123297522 10.339239177938035 1 1 1
732 1 17.352178298160304 12.348351932333895 4.6907719323683885 0 0 2
1841 1 16.57607311228499 11.665220178289422 9.668845027850024 0 -1 -1
1840 1 18.88178145113473 11.00060235722498 8.519611182916314 1 0 0
1135 1 17.79572297774196 13.360388637244101 8.186451421366103 2 0 0
175 1 19.921223651508868 12.972261500856284 4.315986865240628 0 -3 1
1060 1 20.78754345659936 11.386734414346313 6.506452731503303 0 2 -1
708 1 21.444212291681655 11.296539677577949 3.984924862807162 -4 -1 0
664 1 23.653769082286498 10.968037994313564 5.700403241127324 1 1 -1
177 1 21.878271806111385 9.469552196920331 5.6446434684738245 1 0 -1
205 1 22.331177840707614 12.89168723992878 6.170838334357678 -2 1 0
90 1 21.825273337234584 11.014654951775057 11.960822989430293 -1 0 0
1247 1 19.98757140577442 0.9570498872476414 13.266199699270025 1 -1 1
856 1 0.13939259121390563 13.07020980598696 5.687314859666523 0 0 -1
444 1 24.244915979654436 11.801662645639356 7.881487353974995 0 -2 1
808 1 6.197240270826557 0.6488361208307103 0.06634457414011913 -1 1 0
370 1 27.958061810720668 11.737895690411245 7.148799739311799 2 1 0
1576 1 24.796849809174045 12.901019217224908 4.9156176476636135 -1 1 1
146 1 25.99141549878967 11.569303956189275 6.412884826959167 0 1 -1
1820 1 26.27586132681336 11.433123989463711 13.330658229867282 0 1 2
796 1 0.839318022304729 3.1097037600518775 9.549446369761318 1 -1 1
267 1 3.5147250456661396 0.5998309273203314 10.691312763956816 0 -2 1
1859 1 3.0828942592819524 2.954677191676587 10.516963524171222 1 0 0
570 1 0.46712499042035616 0.9023604081513654 11.56069086628018 0 1 1
878 1 4.269109607508711 1.5163625940460093 12.665621183138294 0 -2 0
252 1 8.363850009694504 6.368041370411402 14.0797631632284 0 -1 -1
740 1 25.388384723582693 -0.007902585312553223 3.88845186553959 -1 0 1
42 1 0.2522563592308324 3.287201503113599 11.719736436992779 1 0 -1
301 1 5.753171671095586 8.250614522669446 13.732781968573665 0 0 3
1461 1 6.883831441117872 0.6801164932794524 9.124733037146934 -1 -1 -3
155 1 5.73738212138504 0.7944759910513661 11.155406152705776 2 0 0
1397 1 5.246251153017991 2.592057313006873 9.77651655571854 -2 1 0
691 1 7.519307305247603 2.979143445400303 11.80948390577169 1 1 0
843 1 5.106505126177753 3.7127533846182206 11.826540222730312 1 0 -1
195 1 6.863102023188587 4.491007598720105 13.15555868580145 1 0 -1
1993 1 16.547935613016932 13.733080332641933 10.13800104056111 -3 0 2
587 1 10.886680761000825 0.6467390711845311 10.742269784783563 0 1 1
1874 1 9.948360156280055 3.182578971061534 11.062683938326549 2 2 1
1648 1 8.275841708030406 0.9275418644880671 11.196118430045221 2 2 1
1329 1 9.898989810054244 1.6156125813975422 12.971077017688977 1 0 -1
1334 1 9.569934879799634 3.768734061352157 13.556613470057572 4 0 0
975 1 11.791297352301255 4.489621438062034 14.115788769643476 -2 1 2
255 1 16.074229550924283 1.1104346612869287 10.80380790682444 -1 0 0
2022 1 13.959887480646495 1.3930631954906918 13.262421053044076 -2 1 2
63 1 11.952366492749595 2.644764464019623 9.846681453801756 -1 0 -2
1851 1 22.37568776443083 13.437441737930117 4.088495335407177 3 -1 1
1369 1 13.702524293306634 3.7544600981866028 13.55561880297156 -1 1 -2
1020 1 11.904950669122172 2.5725072364763455 12.383386571886524 -1 1 1
1501 1 13.885789035161233 3.318240300527245 10.999188564914844 1 0 1
314 1 14.867128830962805 5.01650400863482 11.826927463222415 0 0 2
1844 1 12.401332788754114 0.2583511929011202 3.4413702074469383 1 -1 1
1946 1 24.954568309771158 1.920753542968316 0.5808442566969749 3 0 2
1768 1 18.347117199380282 2.921517852274729 10.196159315453647 -2 3 0
1994 1 0.6471996385455211 1.3034787646815182 13.873339756468024 -1 -1 -2
929 1 15.7549583335488 2.9776562296277165 12.792748238792019 -2 -2 0
672 1 20.572215856153914 3.0996092224682017 10.383124430448412 3 0 1
455 1 17.5316181922213 1.3529213992219316 12.218237182267028 1 1 -4
1154 1 19.358151639761946 3.104408208894141 12.62455832093903 -2 0 -1
706 1 26.008810875826534 11.316327006068807 10.942382618750322 1 1 0
804 1 19.502689582905457 11.704118651663265 12.415878274355167 1 -1 0
1647 1 22.431316944151465 0.7380197762867335 14.15494645907954 -1 1 0
768 1 27.45814901299325 13.614063023263355 13.539962659539349 0 0 0
1105 1 23.69523055003473 1.2256567821004574 9.87674975472449 -1 0 -2
578 1 21.63508981979498 1.6807442431547015 11.736861363740642 -1 1 0
1950 1 22.88602168988147 3.5215257774531477 9.749440803636357 -2 -1 0
885 1 20.613980690044585 0.7308960513773682 9.864283522018138 1 0 2
1056 1 23.70760071818544 2.3977820124529665 12.095246386924199 0 0 -2
287 1 22.213256632386926 4.383779750217052 12.263926507784157 0 1 0
1463 1 22.576371628944177 13.255928671542108 8.612202918880538 0 1 1
1339 1 27.543575720862112 2.009543108590446 10.215284701361455 0 1 3
24 1 24.677831281261565 4.63944545428142 11.618056579052832 0 -1 1
1485 1 24.676513762439846 0.9370032416960656 13.641806328720984 -1 1 0
668 1 25.608581304016194 3.1669078293958837 13.283667635929612 -1 3 -1
277 1 25.378017618274235 1.2592754529984256 11.181554130963304 0 1 -1
194 1 26.7626919553752 3.8633021629317446 11.207819233464175 -1 0 2
1672 1 27.357552229894583 1.3180866729532124 12.79947666678245 -1 1 -1
592 1 27.12918447815738 10.158254011288957 8.801003490255217 -2 0 2
1193 1 1.0619846242388915 4.540946410033082 13.729011453715444 1 1 -1
312 1 28.2166806774395 7.610943961739135 12.192542785867772 -1 1 0
436 1 2.020848289628761 5.441831545924636 9.914583217537759 -1 -2 -1
1908 1 1.3483670861602848 7.679857786470899 10.461301468360947 2 1 0
1519 1 3.01267410535341 4.7878800384362235 12.55297232055359 -1 2 -1
526 1 1.827636255293057 6.729164023955344 12.576003894022001 2 0 -1
52 1 28.42830539016439 5.355377148637576 12.163667976015315 1 -1 0
1186 1 4.238917385249916 5.0233633280695145 10.018550805173078 -1 0 2
491 1 7.0596488203196195 8.911055225219696 9.571492102450927 0 -2 -2
628 1 12.072457530879653 0.00010978975817721448 12.586117313802701 2 -3 1
606 1 3.398004252745177 6.875313406317701 11.097351113217835 1 0 -1
1681 1 4.95186296876004 6.040443900662697 12.652779697693386 0 0 1
256 1 6.764819686549492 5.056097671086058 10.833480458817325 1 1 0
124 1 7.677245895688773 7.393041317260347 11.64452524985145 2 2 -3
2044 1 5.51365920921987 8.00470413859667 10.810339229333753 0 -1 -1
1413 1 3.4884806689936343 8.185379907339236 12.900570034764588 0 1 -1
912 1 12.394500028226474 4.863421912497405 11.815262508735168 -1 0 0
1067 1 20.07046054127307 13.104239617570531 8.228669812461296 1 -1 -2
1332 1 8.636305898937024 9.301357217388894 13.42617966868966 0 -2 -1
1781 1 8.916913575225255 5.208454532630516 11.710623130057602 -2 0 -1
1807 1 9.421306791044621 7.847555083121081 9.604238473308495 -3 2 -1
1209 1 11.911910995336774 6.718875050003982 9.068014639067725 2 1 2
746 1 10.555132926915393 6.029909134861183 13.23307742138247 -1 0 -2
635 1 13.58384491597194 5.335041681784392 9.860288084285397 0 2 0
100 1 10.85093001799926 7.762420049463391 11.932919553544275 1 0 -1
2029 1 11.997369249722762 8.800762303608465 14.053084626480192 1 1 0
1014 1 15.934228726854371 6.993583384435313 12.62124993704277 1 0 1
979 1 13.982979321985693 7.965213451847317 9.436035413708503 1 0 0
1315 1 13.125939159022659 7.218383053666604 11.63994898382621 -1 -1 0
1390 1 13.588183560700951 6.546411648304404 13.770509526279401 -1 -1 0
1571 1 14.182455146895204 8.733210347651115 13.675732963074992 0 -1 2