LAMMPS data file via write_data, version 29 Oct 2020, timestep = 300000

2048 atoms
1 atom types

0.039910872691896415 28.312089127308656 xlo xhi
0.039910872691896415 28.312089127308656 ylo yhi
0.039910872691896415 28.312089127308656 zlo zhi

Masses

1 58.933

Atoms # atomic

1522 1 1.5702571279865192 1.7989588270878556 3.331642912749391 3 0 0
1213 1 3.184687569251294 2.579914097908021 1.5470226930579383 1 2 -1
158 1 0.8060059630256442 2.6041338072747147 0.9948752792898528 1 0 -1
2002 1 1.4025614519342082 4.12720829572091 2.9856187845640347 2 2 -1
1215 1 2.9963685008611676 0.2448093282128243 1.8259409654284215 -1 2 1
516 1 3.9018658817200547 2.029667606219645 3.6243284174136967 0 2 -1
1770 1 3.6129159174106746 4.406624020560715 3.330941037808426 -1 1 1
790 1 0.6617063437231766 5.031011408947294 0.8476381952274773 0 0 0
1265 1 5.314626261166748 1.4858762302244888 1.3717257443260993 2 1 0
1678 1 5.690228343864803 3.3517912952594617 3.3223312588893363 2 -1 1
53 1 5.883915086811874 0.6822138167455535 3.8776778733807036 1 -1 2
1065 1 7.335534991692184 2.3877423191025615 2.098401666879509 -2 1 1
478 1 5.1885435472205454 3.762026570559245 0.8954299146641925 1 1 -1
508 1 7.1982226057199945 4.777542739915014 1.839335952060484 0 0 3
484 1 22.600341950982227 0.27672178820671867 1.8187237364978128 1 0 1
528 1 8.192104081968546 4.048500999278418 3.832698320189848 -1 0 -1
363 1 8.46870859553767 1.439809547330675 3.893838914355849 0 2 3
905 1 9.467508987457277 3.151432545724976 2.243448514806031 -1 1 1
880 1 9.824534427735962 0.6406700169142233 2.2893207918844527 1 1 0
1054 1 10.997212870359569 2.5363136087100258 0.4894521756211903 3 1 1
1569 1 9.189203156635468 1.2861183537380436 0.20767722164091368 -2 -1 0
1427 1 11.650981765677459 4.091655659527231 2.601031583991718 2 1 1
2009 1 10.450787085111003 2.574311571998433 4.216396381505077 -1 0 3
852 1 12.112821861108857 1.8054078387782848 2.4136722137014366 0 2 2
825 1 10.13671011890102 5.171684854390502 4.543906936014363 -1 0 1
1110 1 24.499624000459306 11.618500080320723 12.61914675071412 1 0 0
1366 1 10.6759927141223 0.09453450259733387 4.659143567982171 2 -1 0
1153 1 13.211769466521215 3.5293647022415247 0.672131986552008 -1 -1 -1
1949 1 14.16213244379841 2.862296516090856 2.6175073633722374 1 2 2
808 1 15.726624489625769 2.33528787451886 0.9914706129846702 -1 1 -1
615 1 13.347290068649938 1.102901063237268 0.6523359717895154 1 -1 0
1584 1 15.022975509655229 4.514800402191514 4.539743807092021 -3 1 1
928 1 12.818740727860872 3.393716363536163 4.568402734579717 1 1 0
1073 1 14.273973920152596 0.38781059306614607 2.659720280567209 -1 0 1
1815 1 14.906467147044564 2.139004876241993 4.728511207089541 0 3 -3
747 1 12.67933444823035 1.2489016910849955 4.742704740107017 -1 0 2
2020 1 16.376296481184987 3.931297693242394 2.8298009642131783 -1 -2 0
1739 1 16.385152401763044 1.5215230264360349 3.017932810171711 1 -2 3
1029 1 17.832886865837857 3.275025154413697 0.9239319323838402 1 -2 -1
883 1 18.61586646834664 2.691694851639572 3.047458151538878 2 -1 -1
1990 1 17.89625317933543 1.0341187682009658 1.2227592650820425 0 2 1
1867 1 20.260746357262576 3.8846843800404294 1.3658414611205674 -3 4 0
1471 1 20.252701368225416 1.5947457595826322 1.6532601535771234 0 -1 1
61 1 21.064979719998355 3.216615450422345 3.401076071354786 0 1 1
618 1 22.24665215792647 2.7618871755710317 1.472261917578186 -1 3 2
1214 1 23.452065676213998 2.1037079707223874 3.4651843180134843 2 1 -1
533 1 23.18070510643077 4.477265286592587 3.3103756554862698 0 3 1
862 1 21.04433013286269 0.7442257236491883 3.6825205698560124 2 1 1
1779 1 19.993154128698833 13.761995434094178 0.1380059097190229 0 -1 0
1784 1 24.029450578215737 1.5146380905496355 0.21791349983481456 -1 0 0
1061 1 26.664649751850895 2.1424269911131195 0.44580540142082115 -1 1 1
334 1 25.071460461816365 3.1147170797745405 1.8163187768800841 3 -1 2
1386 1 27.537906743503974 1.0636768799229468 2.767275743740414 -1 0 2
246 1 27.310565339978275 3.5831261028594112 2.5794986892735356 0 1 3
1821 1 25.859031815112054 2.3504475703851133 3.9349220225217607 -1 -1 -2
472 1 24.96912523713099 0.5562499329236709 2.09053312755828 -2 -2 0
1332 1 28.026387749770002 2.6558548637276305 4.564999035475505 0 -2 -1
1765 1 7.900658973076494 5.652925567443107 14.113338031563185 0 0 1
1050 1 3.222140096410064 5.1546394639671185 1.2291542046665807 0 -1 -2
1548 1 1.3719668733098602 6.500082540830831 2.694426815972999 1 2 1
958 1 3.1179081531285218 7.598885556388128 1.1145136800940831 2 -1 1
197 1 3.6840976371919907 7.088924053364866 3.139814212610605 0 1 0
1507 1 2.1771363657509895 8.43234886041161 4.156117674024675 4 3 0
342 1 1.3692224821674868 8.903923106735473 2.1357595928812216 1 -3 3
1162 1 28.18205894685375 5.256948279418976 4.178908289281142 0 2 0
137 1 0.5078776711632209 7.263664740181822 0.48560164644666076 -3 -1 1
355 1 5.263427920296967 6.233457331197421 1.0782802806738647 0 4 -1
2007 1 5.842026865394563 8.23514101010257 3.0732799651680387 0 0 2
777 1 5.756046695666253 5.912976342508706 3.4439010245809634 0 -3 1
1550 1 7.591922178820775 7.07780854227573 1.7948504404024264 -4 2 2
1379 1 4.944802278349475 8.758215614148446 0.9702098977071667 -1 1 -1
1800 1 7.3375096014949 9.50425493191154 1.1713515176514306 0 -3 1
1810 1 8.062938234199168 9.12105752578944 3.453720877664888 3 2 0
1944 1 7.9069236450658105 6.4393341626439 3.9074781335765434 0 3 -1
458 1 9.654344009957589 5.598532922715845 2.126549400352399 -1 0 1
1043 1 9.889664475422483 7.843904187856393 1.7586577825366128 -1 0 3
863 1 10.062857768340297 7.516339384165004 4.090124155976779 1 1 1
1000 1 11.80549140235803 9.14818272509724 1.5188747706852175 1 0 -1
1998 1 11.969624956531245 6.503172085090262 2.240129129832932 0 2 2
926 1 10.374003288477901 9.984330983325972 3.671499889843532 3 0 2
1997 1 11.248909366511597 4.933474867306443 0.40799723715922026 0 1 2
1774 1 15.713627914151536 4.562409139353975 0.532298856615983 0 2 2
1794 1 13.823367223911827 5.1235128867509525 2.616314815430809 -2 1 3
1129 1 14.273638607652627 7.610386956838391 1.8975289012916088 -1 1 1
795 1 12.386533715132819 8.305111710691047 3.7001733708619495 1 -1 2
845 1 12.325619644867025 5.747329518596518 4.582119633693514 0 1 1
393 1 14.627319378458113 6.8094114434339135 4.200379692598692 1 1 1
1751 1 16.286139189547562 8.562231428173135 1.7575008245943866 2 0 0
1711 1 28.1071340456677 0.3663212835476553 5.010323649886906 0 -1 -1
288 1 13.457060079560804 6.023037209668368 0.21745885376525395 0 -2 -1
204 1 16.210874811394227 6.310696575125655 2.2442020680691863 0 -2 -1
436 1 18.6308134351382 5.233064931458759 2.5830341109356634 -2 -2 -1
1155 1 19.965037348748787 8.764395671358177 0.41367486866121506 -1 0 1
145 1 17.755755526711752 5.647947514743646 0.4505408830628008 -1 0 -1
1279 1 18.152067165039803 7.484460553841288 2.5083589135817284 -1 -1 1
1618 1 16.78238441683751 7.799605278677014 4.4365181130862785 2 -1 1
1130 1 17.27177715980237 5.469050916623848 4.3116170764436434 1 -1 1
1698 1 19.06483006597567 9.200315361948205 4.301908050907683 -2 1 2
1659 1 19.06830119458116 6.957524321610663 4.565232502243604 1 1 0
1535 1 6.288542616215566 0.22875579979196883 9.855694889536174 -1 2 0
1991 1 20.104484385147153 6.395114476487114 0.710207500754794 -1 1 0
818 1 22.45739136100297 5.30350529526037 1.0648259890682914 -1 1 -1
1619 1 22.220816077293 7.608036575405114 0.5924338088650566 1 0 2
1211 1 20.878351749306965 5.682671581384847 3.0326633091619972 -2 1 0
1243 1 20.535507041301237 7.972958186951006 2.698057084644532 -1 2 2
309 1 22.92219096416715 6.789120624705024 2.631165886229014 -1 1 1
1606 1 22.809797022315784 9.079318095191582 2.4186411234175047 -2 0 -1
78 1 23.903503356413125 8.360558726744417 4.493710973334939 0 2 1
1975 1 28.02583463920648 7.857299041177839 3.8234162204269477 -1 -1 1
670 1 25.46399231698272 4.748718408925313 3.7032585844633625 0 -1 2
761 1 24.87825853937983 5.604327516611398 1.619106663453883 -1 0 2
932 1 24.706437305343286 7.895623665045401 1.2823078674285413 -1 -2 2
187 1 27.320130821592087 6.102911867390474 1.967436442501995 1 -3 1
1421 1 27.027042859726194 8.65470755150521 1.5433912227301754 -2 -2 0
969 1 25.619047480083537 7.3043912950484735 3.3695954063504368 0 4 2
90 1 7.287075460749665 0.23679384100144069 5.940791895397767 -1 0 0
2039 1 26.560674530757048 12.80851138420751 12.09150167622782 1 1 0
1376 1 3.812256413921291 9.626318943729803 2.7803731175301563 0 0 1
603 1 1.9753228113179684 12.9979046637257 3.4215553791066076 -1 0 0
744 1 2.8715106472435834 9.971818751556631 0.503709353668724 -1 0 0
882 1 1.0262890343789413 11.382760551698949 1.7589235469076516 -1 -1 3
1423 1 1.8062942381555214 10.684167882486092 3.7894271417760557 0 2 3
1197 1 3.632798132775435 11.792217438073736 2.469343576613064 0 0 2
749 1 2.6698664304720037 12.455519537789359 0.22951490867933974 -1 -1 0
2001 1 5.615660134141665 9.467761148421912 13.708077502684992 1 2 -2
1671 1 5.563604391811005 13.234309979777185 2.2459991996746016 -1 -1 3
1699 1 5.825208752634564 10.851928151926135 2.674855614602026 0 1 2
2037 1 7.157728238734925 11.925123195035232 1.0416760035712236 3 0 0
859 1 4.973470388996808 11.444803751718855 0.2953633358181542 1 -2 0
867 1 4.218814448420224 13.702953519514098 4.050717622271261 -2 -2 0
255 1 6.495287466744676 12.446878194240051 4.61698383899862 0 0 1
184 1 4.5274254584092715 11.348336355687145 4.64696066813848 1 -1 1
1873 1 8.360163760918038 11.583368958454226 2.8239755959316306 0 0 -1
1994 1 7.933409206427118 13.836864413217917 2.5921920504579905 -1 -2 -2
82 1 26.836879650780453 10.31520113411063 12.819696890681422 -2 2 0
1629 1 9.772003222666097 10.156132536936989 1.3924451686197326 2 1 3
2027 1 9.574930988515208 12.844640932137022 1.035342772775937 1 1 3
1788 1 10.388478895730083 12.43129195855042 3.1692268157309766 0 1 0
1820 1 11.658937904126889 13.872410778389144 0.8643635569326932 1 1 2
1977 1 11.581745227936132 11.529109325113273 1.4295834767836153 1 1 0
998 1 25.821712715280462 13.533239818110529 9.953334621439344 -1 0 3
935 1 14.638986497260372 9.363184151151762 3.817492493645512 2 -1 0
558 1 12.65992710006794 10.780088854171801 3.193363918269384 1 -2 -1
1142 1 14.084578208915751 9.934830198427342 1.5279659091780433 -1 1 1
1888 1 14.129691708886323 12.357461391013521 1.1515061588371176 0 2 1
996 1 15.130307140268181 11.755643270764692 3.259777858676346 -1 1 -1
328 1 12.561280923181041 13.27843759190472 2.981959285938891 -2 -1 -2
918 1 15.943244492395923 13.346859406114962 1.4334106413927494 3 -2 2
592 1 16.216291388201682 10.89684047572731 1.4309381197454931 -2 0 3
728 1 18.376743932233524 9.578058564850636 1.8459331940073933 1 -2 1
412 1 18.446035987839927 12.172094867561706 1.7647212731720165 -1 3 -1
1908 1 19.07220730002127 11.596968729847578 3.891935147774546 1 1 0
1491 1 17.125719427806082 13.007287077777848 3.61765141656279 1 4 3
405 1 17.022184737018037 10.038819350325985 3.7974298643587665 0 0 1
178 1 19.373101050307767 14.060278921808282 3.789738243169926 -1 1 -1
94 1 22.02234448128464 12.357304584381222 0.19967378158830712 0 1 0
485 1 20.599992726565226 12.738547875755849 2.19535017111707 -1 0 4
1297 1 20.812894546554887 10.31310769837701 2.328737425904435 0 1 1
509 1 23.13662238585031 11.592855646841388 2.2654730766088647 0 1 1
824 1 21.523724042797205 11.833764563384179 4.069708647035927 -2 -1 2
684 1 23.605501973148 13.277368777443792 4.103210438365158 0 1 -1
1981 1 23.642955196417027 10.82348769192347 4.517462717518125 -1 0 0
2031 1 21.963214632746492 9.81716200700522 0.406065420977209 -1 -1 1
1416 1 19.910589022243748 11.250135028546774 0.18871142149835554 -1 -2 2
894 1 7.840795561518211 1.0919425877838724 13.965900956524424 1 1 1
52 1 24.445944088294027 12.517149976888804 0.5648443154139088 1 -1 0
224 1 25.285352203831273 9.710320234349348 2.68175635857342 -1 0 0
1884 1 24.41424361356573 10.339397950218565 0.668010253691303 -2 1 2
353 1 27.76465032915491 12.76405118519306 3.1058511513791167 0 2 0
39 1 27.842053155242013 9.979901902818646 3.3580953605662343 -1 0 0
1562 1 25.26829966396108 12.259509434423759 2.8484840413804484 1 1 -2
1357 1 26.891702485103757 11.083043411170577 1.2678552464529524 -2 0 -1
1662 1 26.706946184223526 13.492543089492987 1.0955213860209652 1 2 -1
787 1 2.2276979844574756 3.4917571749517307 5.3180930997377684 1 -2 0
868 1 2.222310845225986 1.0567396360748054 5.729575318505343 0 2 0
933 1 3.0639565435488194 2.678148015431186 7.3597169800071205 -1 1 3
1759 1 0.5066208213239427 2.2684626347607413 6.63585445123138 0 0 0
1406 1 1.6212666835820697 1.327307900610554 8.93725725027801 -1 2 0
1679 1 1.215594962773179 3.9835206912974703 8.293733528934748 -2 1 -2
107 1 3.99865184524771 3.9365849876352903 9.224524241130146 0 -2 -1
297 1 0.3005271388574042 4.551838329976096 6.315876822213664 2 1 1
1741 1 4.197578185627888 1.4848889781971415 9.466753254449783 0 2 0
1965 1 4.511767923940574 4.074023267105541 5.470563846384392 1 0 0
230 1 4.486755635583179 1.7531366029540816 5.832307753547214 2 -1 2
633 1 6.729696093739218 2.4462196780078282 5.412702798186748 2 -2 0
109 1 5.55283126404623 2.992443850818744 7.397867549995878 0 0 2
938 1 5.7318094409739615 0.6972341836093079 7.760245178133388 0 -2 3
1904 1 7.955269510355 1.8415944944189457 8.00623760849718 0 0 3
22 1 7.489435844091985 4.404059370200913 7.481199527119046 0 -1 1
2010 1 8.953974152769433 3.2093041649645158 5.895895749232644 -1 1 0
826 1 9.264078303102922 0.9609505233083048 6.167220812524308 3 1 1
341 1 11.514559180390124 1.7254588981559629 6.557559489188797 2 -1 1
1278 1 10.17331492203114 2.8204860595963885 8.318262626888282 0 2 -1
1638 1 11.367492441136658 4.20759171572655 6.51088100714885 -1 -1 2
1844 1 12.464178373350064 3.562867180683276 8.578115401592528 1 -2 1
627 1 6.653172876160625 13.972035535798494 10.54406339409902 2 0 2
1372 1 13.579711390301856 0.27578501885560747 6.95852183873193 0 3 0
604 1 12.329231870363403 1.1896281063569678 8.655164351310532 0 -1 3
1169 1 13.563098909999608 2.8613037514199506 6.622338647462651 -1 -2 1
1018 1 14.436511887908903 1.986580186061948 8.828515719353337 0 -1 -1
394 1 15.912375706463301 4.11213891425364 6.8125354260741195 0 -2 -1
248 1 15.816899113823997 1.7428097605160577 6.714682519627207 1 -1 -3
693 1 14.512827170111594 4.464898289264495 8.581242041491398 2 3 0
1080 1 17.29831225837129 3.0276336290669925 5.007822293422686 -1 0 -1
1834 1 19.6000825219905 4.270449351257493 4.811113304495663 -2 1 1
1246 1 17.308665686166286 0.7271502586040883 5.143192722117947 1 1 0
910 1 19.531343346910766 1.8689131628020088 5.088277894204208 0 -1 -1
473 1 17.944601533721574 2.519375641706015 7.038324019646663 2 2 -1
36 1 19.32536151346757 1.7942900424295982 8.990025234676196 0 2 -2
567 1 18.90163117659766 4.137718896388236 8.846173446521393 1 -1 -3
1293 1 16.476576016592865 3.2366404820056895 9.073230641017771 -2 1 -1
864 1 17.20338095316169 1.033333267595164 8.875570198561034 0 0 0
1493 1 20.21213837973061 3.485631251956021 6.780584475483097 0 -1 -1
1345 1 26.088663479894862 11.21384305686556 10.502640206219239 -1 -1 1
2017 1 20.564575574776967 1.1223402617471627 7.124666503850224 1 0 2
490 1 22.78856637045996 1.5213295216334037 7.648550831978925 0 2 -1
390 1 21.77798283200554 2.2801323247948444 5.447708439300717 -2 -2 -2
1826 1 22.6069267670551 3.853084628394268 7.177494015462165 -2 1 0
282 1 21.19735392323696 2.970168960335407 8.95329198583742 1 2 1
596 1 24.165666539895717 3.628827561091871 5.709761047009016 0 0 1
1377 1 24.149976509270644 1.3074156227439253 5.812299412798497 -1 2 1
1869 1 24.75203542189263 0.45212017872083843 8.015391566380568 0 -1 0
982 1 24.945795674481857 2.7302753010483936 7.555025578361544 1 1 -1
957 1 27.244273124733155 3.2795362647069024 7.7888961747861005 1 0 -1
2019 1 26.52119976028702 1.5873547866737623 6.213942167324128 -2 -1 0
1141 1 26.358574258964225 4.0788166213120105 5.683565570823126 -2 0 0
397 1 27.195059601875073 1.0993084509962714 8.338090028126445 -4 -1 1
165 1 25.460346695514467 4.535020398283251 9.086791557553864 -1 2 -3
1314 1 2.1158087694787686 5.832070218634259 4.7078501562267885 -2 0 1
28 1 2.9704917044443238 5.054908789726055 7.060336561856535 2 0 1
840 1 0.9678661162424229 6.267029868141828 8.348131419802618 -1 2 -1
1843 1 2.951161743087217 7.5683885334199275 6.475588920056983 0 -2 0
1538 1 0.8342755865779127 8.90918819624071 7.748243418600744 -2 0 2
130 1 3.490563320896292 6.5815340108181575 8.954998397186309 2 -3 0
280 1 3.263066422409116 9.273881356375616 8.101610377499751 -1 0 -1
1472 1 0.7106216406976341 7.239984925451011 5.883915046109531 0 -1 1
512 1 4.539289826209595 8.756985055860182 5.050257633176726 2 0 0
1177 1 6.666781533803931 4.827174138081285 5.405951436062843 0 0 -1
1680 1 4.379333996206589 6.373869151175265 5.283030952058835 1 1 0
950 1 6.347133393858402 7.520382996837632 5.676437249424634 0 2 2
1020 1 5.187802283991878 5.526002592788241 7.46415277860712 -1 0 1
1500 1 5.1323510131722205 8.016343186809621 7.7111429405360505 -1 2 -1
1934 1 7.196369498297167 7.014553602475436 7.814022605478026 -2 0 0
1227 1 7.2130514644755905 9.449878796849836 7.26745043071506 -2 1 -2
300 1 5.793872238227665 9.901629148664798 9.35394365694474 1 -2 -2
653 1 6.120645558055547 7.500694204572402 9.950637709607642 1 0 0
1346 1 9.734847441095779 4.994035769234564 7.849803741167813 -2 0 0
779 1 8.147928245077303 8.795528167263864 9.427878756701823 0 1 0
666 1 8.527704840186962 6.036456024218347 6.084524995858228 2 -1 -1
1960 1 8.990955261276303 8.629968950171795 5.718155503470223 -3 2 1
1056 1 11.12770999029836 6.77117215578063 6.314186272920845 1 0 -2
1298 1 9.519819294995274 7.683792442928523 7.765903902628166 -2 0 1
1259 1 11.15644769108294 9.245194211098369 5.829694036591472 1 1 -2
870 1 12.136362557867795 6.0679103014037965 8.336444517895545 1 0 0
645 1 11.99986419692828 8.61630970279438 7.740354855711651 0 0 0
1661 1 13.63807236361104 5.195703017860411 6.480368693644045 0 -2 -1
698 1 13.342060329329591 7.586312194459953 5.980290854634827 1 1 1
132 1 14.45762779103445 6.958334276535835 8.37910517367917 0 -2 0
171 1 15.39680058685445 8.80991802939454 6.211338303405335 0 -1 2
860 1 15.71368787620042 6.47703505988457 6.335707656777871 1 1 0
1289 1 14.112992360531187 9.21323014610856 8.127736591826482 -1 1 1
1328 1 18.039523775879935 4.774853159444946 6.561375400933001 -2 0 1
1862 1 16.721080834371307 5.6319077140933524 8.5204551143702 0 0 2
561 1 16.434784663605676 8.229558795252252 8.146876221858307 -2 -1 -1
1980 1 18.067356610992732 7.179862060335552 6.665268370524352 1 3 2
1111 1 19.076508136887682 6.443099377255212 8.688093683539757 -1 -2 -3
1633 1 18.724627513964897 8.983679107923972 8.310815619656717 -1 2 0
323 1 20.22339203209723 6.093400212024326 6.315547399512547 0 -1 1
1808 1 20.181185968516097 8.411800814752908 6.371435045716398 -1 1 0
352 1 21.936675326485428 7.289055291328247 4.911533864299069 -1 3 1
186 1 21.835025647209136 4.81804762558426 5.11306975585896 -2 1 -1
1581 1 23.828696956984743 5.907756018987952 5.056140914822196 -1 0 -1
356 1 20.96461897177265 5.239514052782153 8.34981285452574 -2 1 -3
2028 1 22.628848482060576 6.445746692716928 7.044915339306123 -1 0 0
911 1 21.00332561459978 7.6062811067549285 8.507523223504466 -2 -2 1
1460 1 23.091630828222797 8.246595839232752 8.899243965908493 0 -1 1
755 1 22.570028265880154 8.977864192722281 6.48753887884228 -2 1 0
1475 1 23.062101928297352 5.415424244780412 9.126620543410295 0 2 -1
1147 1 26.298287090315796 9.010624771560092 4.870349849290822 -2 3 0
1728 1 24.7821965434672 5.170354031228145 7.0281420588664725 0 2 1
368 1 24.90648394851455 7.848692027839844 6.683291940856955 0 -1 1
613 1 26.484107391421034 6.592802905265951 5.568146439720574 -3 0 0
1041 1 27.009235720897628 6.088744164823535 7.631114759747377 0 0 -2
661 1 27.016055289281574 8.286223531350018 7.077702148361698 -2 1 3
1413 1 25.101687988467248 6.729335809314531 9.004320948375875 -2 1 -1
140 1 25.252310355333393 9.413285587573744 8.657931737026479 2 -1 -2
1363 1 27.644700623099006 7.73125374888976 9.45165722472773 -1 1 2
1405 1 0.3171058392536098 9.552799804040692 5.614542296098013 5 3 1
170 1 2.632757740767182 12.407575335550987 5.615740764917613 0 -2 1
664 1 2.7352617594153976 10.024700704420665 5.911504244821928 2 1 -1
267 1 0.9578584778368048 11.240736110609697 7.293472931335237 0 -3 2
927 1 3.3666279433587927 11.6615885688248 7.7907758569332275 0 -2 -1
454 1 1.824153235515186 12.860785491709214 9.128261140333692 1 0 -1
991 1 0.7184113248192419 13.593415502384374 6.825091155752809 3 -2 -1
1163 1 0.2177256077764518 11.963459153669591 5.318261938597987 1 1 1
1490 1 1.80897859702314 10.431898400716516 9.586853767928249 0 -1 0
457 1 6.670290488424254 9.893837775427444 5.032375929328666 -1 2 0
595 1 4.81456483078762 12.922658248535239 6.370595790561861 2 -1 1
1577 1 5.314456218335512 10.521961720795254 6.784800313548874 -1 1 -1
115 1 7.709039773770283 11.751193326514061 6.672063149517928 1 -2 -1
1194 1 6.145994335074713 12.509925935253818 8.654850540325079 1 1 -1
227 1 8.168683936248025 13.52111630350018 8.58035380411014 -1 1 0
1504 1 8.10621784214724 11.134032707392311 9.124881351555194 0 -1 0
1736 1 10.039175706911086 7.087302853710613 13.65136936264298 -1 2 0
1098 1 8.698224134538728 13.251431745078673 4.854552444679375 -2 0 2
1748 1 9.741297243142887 10.02210479648313 7.563585499920251 0 1 3
1290 1 8.966549014117321 10.874915905110823 5.150873677668875 0 -1 2
909 1 9.988584357251765 12.516540402902853 7.061508000241642 1 1 -1
219 1 11.165244555377091 11.517407972938289 5.411140497022792 0 -1 2
1712 1 12.59481295947508 13.377281285349028 7.014605544783176 -2 -2 -1
477 1 11.217783275662683 13.817309048412357 5.02475628903796 2 0 2
1183 1 12.37395730889776 10.837163959535035 7.341970574151838 -2 2 0
1503 1 13.19077137808451 9.884453016450847 5.495464411899383 1 1 1
1521 1 13.375150961592738 12.277127005395148 5.03080009961042 1 -1 0
386 1 14.534414358167542 11.794260218179671 7.395069349436437 1 2 2
705 1 15.725181053809303 10.90579803797361 5.744582089787196 1 -2 -1
843 1 15.627935201157833 13.269195490843527 5.497552724324275 1 0 -1
810 1 17.95775216086298 9.62433916493732 6.259805844707867 0 -1 -1
1758 1 18.757384661011855 13.802637336095954 7.723556180106513 0 1 1
637 1 16.44104370473785 10.632870283389474 7.92625335234538 0 -2 1
1763 1 16.773232683143846 12.800690498806782 7.635140053161225 0 0 0
706 1 17.913130825455617 11.93216954434957 5.758927242535592 1 1 0
369 1 18.750779531498594 11.35070275615637 8.235028073339244 -2 3 1
1221 1 20.172801571160143 13.157804125257119 5.6800952959727615 0 0 -1
432 1 20.15558392694225 10.736675727209754 5.998831271321827 3 0 1
1053 1 21.5178321011066 9.51573564905856 4.261141754864583 -1 -1 1
1923 1 21.033094345071305 9.97846494962053 8.271019319284052 -1 0 1
1315 1 20.970757522145178 12.516393363706396 7.868727760115717 -1 -1 0
1307 1 22.37506658727952 11.444826302439761 6.4876169929769505 0 1 2
1519 1 23.268100788063045 13.036222085083352 8.497465499316265 -1 2 -1
1347 1 23.264780586026646 10.550604693391064 8.518399414324769 -2 0 -1
514 1 22.449686992307065 13.74003177099951 6.239331987529992 -1 -2 1
1175 1 26.288555992188947 11.451489188523581 4.800049296279846 0 0 -1
1976 1 24.55773884010734 12.828025221821509 6.3142808833591015 1 1 1
74 1 24.753931743418192 10.34708505506216 6.44206024009964 0 -1 -1
1971 1 27.549424854279614 10.003730856285566 9.124736053983046 0 -1 2
88 1 25.29522471796161 11.789849586227936 8.347582214780235 -1 0 -1
599 1 26.90525032312224 10.722835841511902 6.7661559476761655 -3 -1 -1
917 1 26.744072492165863 13.32513928432887 6.582200522175604 0 0 2
1950 1 27.668604230865675 12.214159390842278 8.713865281123278 -2 -2 0
1220 1 9.943671811643812 4.534592975717456 13.976034986814879 0 0 -2
924 1 24.46587600109727 14.138366756096858 12.162962657926679 1 -1 1
1084 1 2.2091582761747395 2.8558947292079537 10.923727611166044 1 0 1
742 1 3.067101042137624 2.0329657527853753 12.923076263023237 0 -3 1
890 1 0.740260476435623 1.614310700397716 12.49819097637461 2 1 -1
1481 1 0.5909946182547522 4.3359064262618645 11.840078864007456 1 1 -2
147 1 2.2248122406459867 0.30046438968677236 11.310397862031854 2 -1 3
141 1 2.933648005521865 5.01728360808995 12.242163421626044 -1 0 0
1251 1 26.487783696757198 4.604551397220304 0.18983153094103053 -1 2 -2
1822 1 22.797339174202044 12.978989183603426 13.697340119617014 2 0 0
1508 1 7.5454378141373075 3.284879650680227 13.942436068197084 -1 0 -2
383 1 5.355937688864453 2.5428227814630944 13.803419662637952 -1 -1 -2
278 1 6.208369889038408 2.7814621700536515 10.03682850539491 1 0 0
1858 1 4.593322984331496 3.215846068532606 11.512964157419413 0 1 1
1947 1 4.822087702134935 0.7020247421504758 11.58942921108742 0 0 1
500 1 6.856294553123908 1.6801361664918868 11.867683597881443 0 -1 -1
737 1 7.107301833696503 4.29666200186779 11.56352726459199 -2 3 -1
1801 1 1.0534196606288198 13.822951909683523 1.3541151345779454 1 -1 0
1255 1 9.408080346355458 0.49345051177442617 12.332733111140898 1 -1 -2
1609 1 8.461024067891547 3.638729663918592 9.68434908176397 -1 0 0
1271 1 8.535616381563297 0.979234653868386 10.189814535448495 0 -1 -2
9 1 10.899293286939699 1.7817670530475032 10.51567325762173 -2 0 -1
848 1 9.19301671820576 2.706060605957527 11.906446838981125 2 -2 -1
869 1 11.99023373256795 1.2153521522910329 12.396592256046926 -2 0 2
1961 1 11.330935016700533 3.566337016951463 12.226133561601817 0 -2 0
1718 1 10.692113686979338 4.09757407499076 10.108498202359423 0 1 0
1107 1 10.117227646887269 0.39308388344493456 8.378127968262024 4 1 1
1172 1 13.022552094252266 2.875897665745749 10.596109815426713 -2 1 0
798 1 15.41338331196332 1.388301745876749 10.940655724058184 -2 0 -2
529 1 13.906146131692541 2.0901575048165983 12.73627364795603 0 0 1
891 1 15.125632162515014 3.72438737102268 10.920344826075711 0 1 -2
723 1 13.697660833158633 4.580585258843983 12.542461471209284 1 0 1
164 1 15.989439015527338 2.8636614746602005 13.012055150651877 -2 1 1
513 1 13.223596168449284 0.23210791754259671 10.565641538736326 -1 -1 1
185 1 16.055841202479726 0.4467015375707926 13.285955423138097 -2 0 -2
34 1 18.202930555805267 1.580163343986258 13.199948691942344 1 1 -1
38 1 17.690889397492633 2.552594758724819 11.035878370594318 1 -1 0
2022 1 19.725295583138333 3.482501648832034 10.959813205701899 -2 1 2
1261 1 19.573218950371945 1.1895357897134091 11.25776067662726 -1 1 1
1761 1 17.95796929037096 3.98227693382294 13.05413320111399 -2 2 2
885 1 21.18209257009361 0.5242750954056292 9.585372388200527 1 0 2
175 1 23.569290127950183 3.125548009589141 9.550838826168798 1 -3 1
1564 1 20.627586301161557 0.3127730862612892 13.323991315079374 -1 2 -1
1260 1 20.321928573330325 2.8483616422359153 13.120230969051944 -1 1 0
1978 1 21.968660233978518 2.210650772892055 11.291854085665967 -1 1 2
1479 1 22.562890470922923 3.789572887615665 13.12933232705805 0 -1 -2
319 1 22.720348182474112 1.5772713899384758 13.699606217266421 1 0 0
820 1 21.923567659103192 4.549010072604553 10.915860788031189 -1 1 1
1962 1 23.413649515817532 0.6940398689371032 10.085706321761652 0 1 1
743 1 24.35397246245521 2.674718390734566 11.868891231056013 -3 1 -1
419 1 25.31060836891291 1.5667534375977832 13.774905778078057 0 1 0
628 1 25.651199792207862 2.1117624119902496 9.881517933105918 1 -3 1
295 1 28.068442047152608 2.6484535085010132 10.261417413487843 -1 1 0
326 1 27.013835104066807 2.968095351811709 13.272075666264548 -2 -1 1
1021 1 26.416244098519236 1.1148807352441725 11.936737830389612 1 2 0
1434 1 26.452072707364835 4.0157035804401 11.390040826609232 2 -1 -1
527 1 24.84044533310462 4.358348739346221 13.485255278377757 1 0 0
1650 1 27.453648145071426 0.5300923008518357 14.077532051012764 -3 2 -1
1852 1 1.7052986978783597 7.924305610661631 9.704245673158864 2 1 2
1349 1 2.018932410732953 5.2359487911866855 10.206722627352248 0 1 -2
1235 1 3.1499482340928275 9.038913948808059 13.633978725672657 4 2 0
1690 1 0.9238365628968949 8.369651450824701 13.449471775849958 2 1 0
1744 1 2.637899868836722 7.444189637263218 11.855673092705189 -1 3 0
983 1 1.0519352752592823 5.944929681140714 13.749859883112379 1 0 0
1352 1 0.3482569950135369 6.7278435979505 11.215636731567415 1 0 0
112 1 0.3329692942656226 9.167253006928991 11.376480588640801 -1 0 -3
260 1 3.416045535543779 6.5765697419358755 14.068799402684109 0 -1 3
252 1 6.302978124668906 5.090737655526837 9.595336736891433 0 -1 -1
1470 1 3.9459408455663922 8.721877503812793 10.193631115296087 0 -1 1
1031 1 4.842816087877976 5.861070559368185 11.068857872081916 1 0 0
206 1 7.018120225382699 6.5577131808436215 11.978659871788201 0 0 0
1866 1 4.937062816241235 7.823430092577975 12.291431809465754 -1 -1 -1
1681 1 7.806767224748295 8.174939300791245 13.755100168254668 0 0 1
1730 1 5.267584673987182 5.019801831924392 13.175798948278333 1 1 -2
767 1 7.009305362732952 9.055284451771131 11.66238518339628 0 -1 -1
1851 1 9.994162298491066 2.1167511858139747 13.884015104508377 3 -1 0
1833 1 8.372425877402303 6.042316998335345 9.814361256471127 -1 1 0
1151 1 10.535665838500961 9.100149513548805 9.507751035083917 1 1 0
617 1 9.1726510372642 5.358398073087727 11.818970055211565 0 -1 -2
1966 1 10.491582809552739 6.62567503936954 10.026584933598421 1 2 0
1133 1 11.616901737220681 6.081203997404534 12.219448058421952 0 1 -1
483 1 9.243795722079987 7.86532184141712 11.562113908226745 -1 1 2
1938 1 11.601886567882646 8.427564645801878 11.967127706393722 0 1 -1
805 1 16.47823675224619 12.07070847514938 13.946473092194905 1 0 0
916 1 9.644316935384353 9.436970781838534 13.841404010963005 1 -1 0
1262 1 12.79649803737664 5.32492480288012 10.285789083061324 0 0 0
1600 1 12.590620550695919 7.884835264264272 9.923906196828687 1 1 1
1957 1 15.125085227751185 5.784371084378095 10.324112102656876 1 2 3
1199 1 13.801125303343913 7.036077682342981 12.186754269515891 -1 0 1
1302 1 14.821023977877049 8.245157123016673 10.291359144515612 1 0 -1
966 1 15.874764785536277 7.987466493088203 12.118475198400493 1 -3 0
520 1 13.540802898431254 9.459941267564053 12.05693078513678 0 -4 1