LAMMPS (29 Oct 2020)
OMP_NUM_THREADS environment is not set. Defaulting to 1 thread. (src/comm.cpp:94)
  using 1 OpenMP thread(s) per MPI task
package omp 0
using multi-threaded neighbor list subroutines
package omp 2
set 2 OpenMP thread(s) per MPI task
using multi-threaded neighbor list subroutines
# units metal
# dimension 3
# boundary p p p


# lattice fcc 3.5440
# region box block 0 8 0 8 0 8 units lattice
# create_box 1 box
# create_atoms 1 box

read_restart after_heating_press_100000_2800.lmp
Reading restart file ...
  restart file = 29 Oct 2020, LAMMPS = 29 Oct 2020
  restoring atom style atomic from restart
  orthogonal box = (-0.48929851 -0.48929851 -0.48929851) to (28.841299 28.841299 28.841299)
  1 by 2 by 2 MPI processor grid
  pair style eam/alloy/omp stores no restart info
  2048 atoms
  read_restart CPU = 0.001 seconds

variable P equal 100000
variable dt equal 0.001
variable loopVar loop 6
variable sys_press equal "press/10000"
variable sim string "cooling"
#variable temp_word equal "heating"

# print "step temp vol pe" file heating.txt screen no

pair_style eam/alloy
pair_coeff * * Co_Zhou04.eam.alloy Co
Reading eam/alloy potential file Co_Zhou04.eam.alloy with DATE: 2018-03-30




neighbor 2 bin
neigh_modify every 10 check yes

thermo 1000
thermo_style custom step temp vol press ke pe density

timestep $(dt)
timestep 0.0010000000000000000208



# velocity all create 2200 123123

print """
yo aagadi
"""

yo aagadi

label ensemble

print """
Label pachadi solti, hos garam.
"""

Label pachadi solti, hos garam.

variable T equal 1800-${loopVar}*100
variable T equal 1800-1*100
# variable T equal 2550


reset_timestep 0
fix 1 all npt temp $T $T $(dt*100) iso $P $P $(dt*1000)
fix 1 all npt temp 1700 $T $(dt*100) iso $P $P $(dt*1000)
fix 1 all npt temp 1700 1700 $(dt*100) iso $P $P $(dt*1000)
fix 1 all npt temp 1700 1700 0.10000000000000000555 iso $P $P $(dt*1000)
fix 1 all npt temp 1700 1700 0.10000000000000000555 iso 100000 $P $(dt*1000)
fix 1 all npt temp 1700 1700 0.10000000000000000555 iso 100000 100000 $(dt*1000)
fix 1 all npt temp 1700 1700 0.10000000000000000555 iso 100000 100000 1
Resetting global fix info from restart file:
  fix style: npt/omp, fix ID: 1
print """
<--------------------------------------------------------------------->
<------------------ Equilibrating at temperature $T ----------------->
<--------------------------------------------------------------------->
"""

<--------------------------------------------------------------------->
<------------------ Equilibrating at temperature 1700 ----------------->
<--------------------------------------------------------------------->

fix temp all print 1000 "$(step) $(temp) $(press) ${sys_press} $(vol) $(ke) $(pe) $(density)" file temp_${sim}.txt screen no title  "step temp press pressGiga vol ke pe density"
fix temp all print 1000 "$(step) $(temp) $(press) ${sys_press} $(vol) $(ke) $(pe) $(density)" file temp_cooling.txt screen no title  "step temp press pressGiga vol ke pe density"
run 250000
All restart file global fix info was re-assigned
Last active /omp style is pair_style eam/alloy/omp
Neighbor list info ...
  update every 10 steps, delay 10 steps, check yes
  max neighbors/atom: 2000, page size: 100000
  master list distance cutoff = 7.6035394
  ghost atom cutoff = 7.6035394
  binsize = 3.8017697, bins = 8 8 8
  1 neighbor lists, perpetual/occasional/extra = 1 0 0
  (1) pair eam/alloy/omp, perpetual
      attributes: half, newton on, omp
      pair build: half/bin/atomonly/newton/omp
      stencil: half/bin/3d/newton
      bin: standard
Per MPI rank memory allocation (min/avg/max) = 4.317 | 4.317 | 4.317 Mbytes
Step Temp Volume Press KinEng PotEng Density 
       0    2843.8185    25232.641    97740.071    752.46162   -7912.6998    7.9428224 
    1000    1717.1549    23818.214    100418.36    454.35148   -8280.9318    8.4145011 
    2000    1730.5699     23942.39     92789.27    457.90105   -8279.2988    8.3708597 
    3000    1663.5131    23766.762    102635.61    440.15811   -8286.6541    8.4327173 
    4000    1709.9407     23801.16    101237.12    452.44264   -8278.7008    8.4205302 
    5000    1693.5652     23838.44    96889.292    448.10975   -8290.5019    8.4073618 
    6000    1666.4697    23859.454    96481.002    440.94042   -8282.8608    8.3999569 
    7000    1727.5731    23702.265    108083.04     457.1081   -8284.4636    8.4556639 
    8000    1701.9941    23796.364    102117.33    450.34002   -8282.1769    8.4222274 
    9000    1696.0731     23852.17    96813.089    448.77335   -8288.8448    8.4025222 
   10000    1633.9313    23798.956    100597.54     432.3309   -8283.4406    8.4213101 
   11000    1727.0577    23757.111    102770.67    456.97172   -8291.0973    8.4361431 
   12000    1706.9755    23718.905    109876.77    451.65807   -8265.8937    8.4497317 
   13000    1695.9281    23801.037    98822.424    448.73496   -8289.8425    8.4205737 
   14000     1754.104    23823.287    100818.43    464.12806   -8284.1623    8.4127093 
   15000    1735.4721    23830.676    97693.989    459.19814   -8293.7645    8.4101006 
   16000    1632.5702    23790.556    99881.727    431.97077   -8290.2649    8.4242835 
   17000    1691.9621    23865.213    95950.485    447.68558   -8286.9812      8.39793 
   18000    1757.9263    23788.705    102772.58    465.13943    -8282.736     8.424939 
   19000    1719.4058    23699.898    107684.96    454.94706   -8286.3421    8.4565083 
   20000    1681.5445    23822.935    98744.302    444.92915   -8288.5575    8.4128334 
   21000     1711.271    23838.645     94972.86    452.79463   -8304.9042    8.4072893 
   22000    1668.6975    23767.994    102031.81    441.52988   -8289.7742    8.4322802 
   23000    1727.5916    23749.118    102266.45    457.11299   -8296.2442    8.4389823 
   24000    1718.2135    23786.085    100863.42    454.63158   -8289.8525    8.4258669 
   25000    1706.9959    23914.383    90814.884    451.66346   -8295.5335    8.3806632 
   26000    1718.2556    23732.571    108809.96    454.64272    -8272.299    8.4448661 
   27000    1736.5694    23827.066    99671.399    459.48848     -8285.41    8.4113749 
   28000    1640.0884    23850.965    95648.977    433.96004   -8288.4302    8.4029468 
   29000    1741.8102    23760.146    102187.29    460.87518   -8296.3898    8.4350653 
   30000    1746.4656    23809.928     96634.84    462.10698   -8304.3662    8.4174293 
   31000    1690.6642    23805.719    98407.695    447.34217   -8296.6075    8.4189175 
   32000    1738.9674    23705.491    110189.77    460.12297   -8277.4417    8.4545132 
   33000    1697.2579    23822.259    100860.82    449.08684   -8279.3611    8.4130722 
   34000    1724.8465    23816.805    99026.517    456.38666   -8290.4885    8.4149988 
   35000    1735.1149     23852.99    94837.611    459.10362   -8299.4868    8.4022331 
   36000    1674.2811    23927.178    90352.578    443.00727   -8289.0314    8.3761814 
   37000    1743.4695    23733.447    108495.25    461.31422   -8273.9271    8.4445546 
   38000    1721.1852    23799.424     101305.5    455.41789   -8286.9419    8.4211446 
   39000    1690.5979    23892.163    93187.453    447.32462   -8291.2305    8.3884571 
   40000    1686.7479    23694.503    106188.03    446.30592   -8294.1024    8.4584339 
   41000    1702.2588    23853.682    99238.698    450.41004   -8270.9946    8.4019894 
   42000    1714.5174     23815.19    98322.429    453.65363   -8291.3283    8.4155695 
   43000    1716.6157    23927.016    94476.971    454.20882   -8272.5354    8.3762382 
   44000    1690.5618    23671.011    106480.34    447.31506   -8300.0728    8.4668283 
   45000    1705.1061    23779.903    98932.898    451.16343   -8298.5631    8.4280575 
   46000    1657.4019    23804.952    97141.665    438.54112   -8303.3721    8.4191889 
   47000    1712.1429    23881.508    94615.348    453.02535   -8289.9665    8.3921998 
   48000    1717.1515    23791.509    99848.077    454.35058   -8291.8376    8.4239461 
   49000    1724.7731    23752.128    103231.85    456.36724   -8290.0042    8.4379128 
   50000    1693.3055    23814.005    100311.44    448.04104   -8283.8539    8.4159882 
   51000    1661.8307     23905.43     92612.78    439.71294   -8286.4566    8.3838018 
   52000    1686.2065    23766.226    101611.81    446.16268   -8293.6512    8.4329075 
   53000    1672.6214    23723.555    102833.05    442.56812   -8297.5344    8.4480757 
   54000    1715.9765    23936.569    93211.694    454.03969   -8279.0431    8.3728953 
   55000    1653.3194    23737.009    103654.19    437.46089   -8287.5479    8.4432872 
   56000    1703.3573    23778.655      99856.6    450.70071    -8295.033    8.4284998 
   57000    1715.1871    23790.497    101064.28    453.83082   -8285.0792    8.4243043 
   58000    1721.3903    23804.925    95284.731    455.47217    -8312.712    8.4191984 
   59000    1677.8549    23855.336    94928.732    443.95287   -8291.9391    8.4014069 
   60000    1711.0373    23717.279    106571.88     452.7328   -8290.3518     8.450311 
   61000    1736.0146    23740.859    107538.28    459.34168    -8275.828     8.441918 
   62000    1625.0516    23813.029    99735.496    429.98137    -8280.054    8.4163331 
   63000    1706.3123     23841.59    97318.683    451.48259   -8288.6672    8.4062508 
   64000    1740.6891    23782.298    100849.53    460.57853   -8293.4992    8.4272084 
   65000    1696.4134    23845.974    100136.16    448.86338   -8275.4437    8.4047054 
   66000    1750.5569    23795.891    104422.97     463.1895   -8271.3463    8.4223946 
   67000    1687.7898     23875.32    96605.463    446.58161    -8280.892    8.3943749 
   68000    1717.4475    23901.527     93688.12    454.42891   -8286.7817    8.3851706 
   69000    1727.8526     23723.26    104160.78    457.18206   -8296.4961    8.4481808 
   70000    1701.7086    23799.782    98260.122    450.26446   -8294.5919    8.4210178 
   71000     1747.781    23857.263    95439.692    462.45502   -8293.7472    8.4007283 
   72000    1669.3404    23800.161    99051.407    441.69998   -8294.6987    8.4208836 
   73000    1669.3716    23843.073    96793.611    441.70824   -8288.6621     8.405728 
   74000    1687.3627    23826.597    97432.981    446.46861   -8287.1317    8.4115406 
   75000    1758.5048    23768.347    104254.83    465.29248   -8283.4065    8.4321551 
   76000    1696.8931    23769.962    104704.72     448.9903   -8275.2862     8.431582 
   77000    1677.8937    23860.304    95776.758    443.96316   -8287.8977    8.3996576 
   78000    1678.9544    23816.513    100776.37    444.24381   -8279.0911    8.4151019 
   79000    1740.2708    23755.171    103978.92    460.46786   -8286.7372     8.436832 
   80000    1697.2952    23754.751    102672.61    449.09669   -8292.0929     8.436981 
   81000    1688.1738    23874.426    95829.478    446.68321   -8285.3138    8.3946891 
   82000     1686.017    23763.351    107410.56    446.11253   -8266.5725    8.4339278 
   83000     1711.836    23843.808    97829.099    452.94412   -8284.4732    8.4054689 
   84000    1653.1219    23872.384    97002.291    437.40864   -8277.4908    8.3954074 
   85000    1720.9672    23803.818    102254.14     455.3602   -8276.8996      8.41959 
   86000    1753.6122    23801.236    99208.656    463.99793   -8294.0435    8.4205032 
   87000    1701.3896     23735.62     102948.5    450.18007    -8298.013    8.4437813 
   88000    1682.8846    23887.119    95597.367    445.28373   -8280.4698    8.3902284 
   89000    1738.2867    23784.668    99786.316    459.94288   -8297.0377    8.4263689 
   90000    1691.5742    23806.248    103250.59    447.58295   -8271.5485    8.4187305 
   91000    1675.1125    23804.766    100438.16    443.22725    -8282.419    8.4192545 
   92000    1707.2693    23845.071     98685.49     451.7358   -8281.3915    8.4050238 
   93000    1667.8674     23874.87    91966.295    441.31024   -8300.6562    8.3945331 
   94000    1691.5851    23720.163    106784.28    447.58584   -8279.8743    8.4492836 
   95000    1707.9284    23747.554    102940.72    451.91019   -8292.1895     8.439538 
   96000    1730.0678    23803.262    97029.378    457.76819   -8301.6941    8.4197866 
   97000    1690.9901    23809.346    99746.094     447.4284   -8286.0681    8.4176351 
   98000    1683.5348    23746.991    105031.06    445.45576   -8281.6931    8.4397381 
   99000    1672.9154    23792.963    99433.306    442.64592   -8292.4772    8.4234313 
  100000    1713.2534    23890.098    92729.252    453.31918   -8296.1411    8.3891823 
  101000    1687.7208    23779.112    101135.05    446.56335   -8290.7592    8.4283377 
  102000    1706.5601    23727.261    102599.68    451.54815   -8301.5269    8.4467563 
  103000    1711.7156    23793.445    101909.26    452.91228   -8282.8319    8.4232606 
  104000    1713.8404    23757.955    103211.79    453.47449   -8288.1077    8.4358434 
  105000    1716.8763    23905.274    93229.981    454.27778   -8289.0947    8.3838565 
  106000     1732.443    23805.858    96585.217    458.39666   -8301.7459    8.4188684 
  107000    1667.9387    23794.148    105196.42    441.32909   -8265.9184    8.4230118 
  108000    1703.8162    23743.207    104070.31    450.82212   -8290.2121    8.4410834 
  109000    1735.8561    23865.508    98107.498    459.29973   -8277.3046    8.3978263 
  110000    1685.9397    23875.195    94260.647    446.09207   -8291.6494    8.3944189 
  111000    1792.4433    23892.426    95927.763    474.27247   -8283.2563    8.3883649 
  112000    1710.3768    23670.199    109687.07    452.55803   -8287.3448    8.4671187 
  113000    1680.2539    23778.493    99549.974    444.58765   -8297.6646    8.4285572 
  114000    1637.3816      23820.7    96391.641    433.24382   -8295.2742    8.4136229 
  115000    1707.2588    23741.884    102612.29    451.73302    -8298.139    8.4415536 
  116000    1757.0179    23772.332    104306.81    464.89905   -8282.6064    8.4307416 
  117000    1730.3395    23877.532    93619.414    457.84009   -8297.3205    8.3935973 
  118000    1647.3485    23866.211    97424.326    435.88102   -8278.0249    8.3975788 
  119000    1707.0112    23768.158    108466.57     451.6675   -8262.4299     8.432222 
  120000    1742.5923    23855.946     99588.23     461.0821    -8276.191    8.4011922 
  121000    1698.7214    23835.759    97347.911    449.47407   -8286.3198    8.4083071 
  122000    1715.3751    23817.837    98433.611    453.88056   -8292.2514    8.4146344 
  123000    1687.5447    23792.181    99331.527    446.51676   -8294.8782    8.4237081 
  124000    1685.5501     23712.53    106799.85      445.989   -8288.7958    8.4520035 
  125000    1691.1681    23838.431    98347.425    447.47551    -8286.532    8.4073648 
  126000    1714.9786    23838.021    99181.086    453.77565   -8285.7214    8.4075096 
  127000    1733.7166    23772.622    101120.92    458.73363   -8296.1688    8.4306387 
  128000    1646.8477    23779.574    99358.674    435.74851   -8293.2695     8.428174 
  129000    1682.6579    23882.656    93244.447    445.22375    -8289.071    8.3917962 
  130000    1707.7884    23783.213     104697.1    451.87316    -8275.568    8.4268844 
  131000    1732.9208     23776.31    101435.28    458.52309   -8287.9623    8.4293311 
  132000    1697.3308    23783.541    101526.58    449.10613    -8286.729     8.426768 
  133000    1745.8548    23801.873    100800.04    461.94536   -8286.9958    8.4202781 
  134000    1671.0179    23792.174    100381.25    442.14384   -8288.2103    8.4237106 
  135000    1706.9586    23785.095    103416.48     451.6536   -8277.9685    8.4262178 
  136000     1637.107    23813.815    99844.625    433.17117   -8282.2215    8.4160554 
  137000    1704.7113    23863.842    97108.722    451.05898   -8286.1044    8.3984125 
  138000    1715.7294    23667.646    108504.81    453.97429   -8292.9773    8.4680323 
  139000     1714.842    23753.061     102963.5    453.73951   -8293.6517    8.4375813 
  140000    1695.5208    23858.363     94167.75     448.6272   -8300.4511    8.4003409 
  141000    1705.5578    23872.682    98127.181    451.28295   -8277.6085    8.3953025 
  142000    1722.8905    23860.053    96768.926    455.86909   -8285.8445    8.3997461 
  143000    1715.3469    23938.447    92409.614    453.87309    -8278.057    8.3722384 
  144000    1668.7103     23784.57    102409.84    441.53327   -8282.0112    8.4264037 
  145000    1764.3064    23744.668    107126.05    466.82756   -8279.0499    8.4405639 
  146000    1751.9202    23948.528    90369.103    463.55023   -8291.3394    8.3687143 
  147000    1631.7611    23784.426    99975.423    431.75666    -8289.988    8.4264547 
  148000    1693.9551    23756.774    105256.72    448.21292   -8280.7079    8.4362625 
  149000     1730.106    23758.895    102870.24     457.7783   -8292.4093    8.4355096 
  150000    1762.2367    23887.292    98103.917    466.27993   -8271.7285    8.3901677 
  151000    1678.9424    23838.191    98282.748    444.24064   -8282.9103    8.4074495 
  152000     1683.669    23795.461    101627.69    445.49126   -8278.8497    8.4225468 
  153000    1721.1412    23752.607    105861.23    455.40625   -8279.9612    8.4377427 
  154000    1678.7214    23768.956    98628.798    444.18216   -8302.2541    8.4319389 
  155000    1702.2327    23822.487    95848.951    450.40315   -8302.6845    8.4129919 
  156000    1741.9735     23804.43    98807.875    460.91839   -8299.8161    8.4193733 
  157000    1736.6902    23862.715    93811.647    459.52043   -8298.5018     8.398809 
  158000    1740.1735     23769.23    100337.07     460.4421   -8299.3183    8.4318417 
  159000    1730.6357    23798.077    100933.19    457.91845   -8289.5039     8.421621 
  160000    1716.2298    23827.777    98649.315    454.10672   -8287.6838    8.4111241 
  161000    1740.5672    23827.914    97666.668    460.54628   -8295.0687    8.4110757 
  162000    1688.6539    23782.223    102842.84    446.81025   -8280.1046     8.427235 
  163000    1683.3775    23831.941    98680.698    445.41413   -8284.3436    8.4096545 
  164000    1645.3628    23800.981    102457.03    435.35561   -8271.3382    8.4205936 
  165000    1692.7357    23839.154    100902.38    447.89027   -8274.4007    8.4071097 
  166000    1692.9653    23716.572    105425.04    447.95103   -8293.5702    8.4505629 
  167000    1686.7853    23833.431    100432.21    446.31582   -8276.2794    8.4091286 
  168000    1643.2486    23784.083    101612.83    434.79622   -8282.2452    8.4265762 
  169000    1717.0191     23822.34    102508.56    454.31555   -8271.7071    8.4130438 
  170000    1682.9418    23739.576    104861.12    445.29887   -8281.9412    8.4423741 
  171000    1728.6348    23836.258    95844.709    457.38902   -8296.6545    8.4081313 
  172000    1697.7773    23839.243    101159.45    449.22427   -8270.6006    8.4070786 
  173000    1659.8441    23758.556    104400.28    439.18731   -8278.0784      8.43563 
  174000    1734.4199    23933.188    92091.721    458.91972   -8284.3032    8.3740781 
  175000      1681.72    23833.896    98153.237    444.97558   -8285.8004    8.4089645 
  176000    1694.3801    23788.637    103874.49    448.32538   -8275.0714    8.4249628 
  177000    1731.0092    23740.102    102552.66    458.01727   -8299.4204    8.4421871 
  178000    1683.0844    23875.139    98045.198    445.33658   -8268.9985    8.3944384 
  179000    1697.5327    23845.801    96631.213    449.15955   -8290.9399    8.4047664 
  180000    1673.6777    23679.382    109440.78    442.84761   -8284.2216    8.4638352 
  181000    1656.9025    23787.661     101766.3    438.40898   -8285.6492    8.4253086 
  182000    1730.5057    23919.664    92403.285    457.88405   -8285.0231    8.3788128 
  183000    1684.7557    23754.513    102302.11    445.77882   -8295.1396    8.4370659 
  184000    1665.0797    23827.335    99986.148    440.57262   -8283.7938    8.4112799 
  185000    1638.0496      23801.3    99821.344    433.42059   -8285.5544    8.4204807 
  186000    1699.1652    23772.475    102456.38    449.59149   -8287.5808    8.4306908 
  187000    1673.8904    23797.352    99635.404    442.90391   -8292.1818    8.4218775 
  188000    1686.4334    23940.073     91127.34    446.22272   -8283.4189    8.3716698 
  189000    1746.4205    23800.677    97322.323    462.09503    -8301.719    8.4207012 
  190000    1752.9691     23764.35    103481.32    463.82777   -8291.5917    8.4335733 
  191000    1715.5502    23821.307    99007.226    453.92688   -8287.2439    8.4134085 
  192000    1708.3003     23820.78    97261.913    452.00859   -8294.1023    8.4135945 
  193000    1637.3226    23768.485    103016.93    433.22821   -8280.0454    8.4321061 
  194000     1705.942    23724.317    107703.03     451.3846   -8276.3758    8.4478042 
  195000    1644.5467    23855.611    97437.835    435.13969   -8279.8442    8.4013102 
  196000    1707.0561    23952.834    90914.975    451.67938   -8282.5267    8.3672098 
  197000    1717.6034    23796.125     99321.44    454.47017   -8295.6899    8.4223118 
  198000    1692.7979    23815.337    100361.67    447.90675   -8287.4516    8.4155174 
  199000    1719.7466    23807.452    103067.56    455.03725   -8274.4715    8.4183046 
  200000    1743.9524    23897.397    95685.552    461.44199   -8282.6017    8.3866198 
  201000    1677.6707    23876.235    94416.243    443.90414    -8288.211    8.3940531 
  202000    1749.9816    23814.094    101108.25    463.03728   -8284.0342    8.4159567 
  203000    1731.1703    23782.055    104671.68    458.05991   -8274.7241    8.4272946 
  204000    1708.9762      23863.1    96014.681    452.18745   -8284.5363    8.3986734 
  205000    1668.5024    23744.754    104329.98    441.47825   -8286.4503    8.4405332 
  206000    1677.7697    23787.856    103588.96    443.93034   -8277.6686    8.4252398 
  207000    1704.6271    23863.962    92650.672     451.0367   -8303.6698      8.39837 
  208000    1681.3737    23687.205    106474.44    444.88393   -8296.2164      8.46104 
  209000    1670.4313    23831.116    99084.404    441.98864   -8278.8756    8.4099456 
  210000    1664.1723    23900.803    94459.244    440.33252   -8279.0742    8.3854249 
  211000    1732.3185    23788.139    104590.14    458.36371   -8277.8431    8.4251392 
  212000    1717.3946     23840.99    98672.506    454.41492   -8283.4549    8.4064626 
  213000    1682.5351    23845.932    95687.403    445.19125   -8295.0881    8.4047203 
  214000    1692.1742    23827.879    101637.27     447.7417   -8271.3279    8.4110881 
  215000    1753.4935      23849.3    99383.807    463.96653   -8275.5445    8.4035334 
  216000    1671.4096    23836.172    97508.084    442.24747   -8288.5252    8.4081615 
  217000    1729.2701    23813.588    100007.24    457.55712   -8282.5657    8.4161355 
  218000     1773.843     23752.79    108858.19     469.3509   -8267.6261    8.4376777 
  219000    1706.9854    23842.244    95680.977    451.66069   -8298.5568    8.4060202 
  220000    1680.6684    23800.419    99552.285    444.69733   -8290.1337    8.4207922 
  221000      1721.22     23723.82    103628.58     455.4271   -8301.6973    8.4479811 
  222000    1739.6773    23770.224    104686.56    460.31082   -8278.0284    8.4314892 
  223000     1630.286    23929.048    89994.095    431.36637   -8287.1629    8.3755269 
  224000    1666.5562    23839.594    97514.482    440.96329   -8286.4502    8.4069545 
  225000     1740.305    23814.983    97917.899    460.47691   -8296.2004    8.4156427 
  226000    1664.9946    23765.645     103693.3    440.55012   -8288.2973    8.4331136 
  227000    1649.6119    23778.883     101319.6    436.47993   -8287.6084    8.4284188 
  228000    1753.3164    23778.608     100602.3    463.91965   -8297.9689    8.4285162 
  229000    1738.0969    23781.029    100471.09    459.89264   -8296.4605    8.4276583 
  230000    1660.5436    23829.529    97622.663     439.3724   -8285.7133    8.4105057 
  231000    1686.4398    23798.205    102313.19     446.2244   -8278.0015    8.4215759 
  232000    1709.9027    23770.912    106653.68    452.43258   -8267.5036    8.4312451 
  233000    1707.9473    23826.992    96369.547     451.9152   -8296.9266    8.4114011 
  234000    1687.0354    23847.893    98329.546      446.382   -8284.5088    8.4040292 
  235000    1701.7042    23764.554    103245.79    450.26329   -8288.2994    8.4335008 
  236000    1739.1152    23700.094    109866.21    460.16208   -8278.6443    8.4564385 
  237000    1699.2718    23862.312    97036.455    449.61969   -8281.4944    8.3989508 
  238000    1648.4917    23840.272    94986.913    436.18352   -8296.3832    8.4067156 
  239000    1705.4967    23773.685    102693.36    451.26677   -8286.4022    8.4302618 
  240000    1700.5474     23804.24    99680.326    449.95721   -8290.0194    8.4194408 
  241000     1653.112    23939.596    90687.833    437.40602   -8285.5412    8.3718367 
  242000    1689.8523    23746.326     102587.4    447.12734   -8292.9456    8.4399746 
  243000    1697.5221    23732.403    108985.88    449.15674   -8272.6696    8.4449259 
  244000    1745.7939    23845.581     94348.93    461.92923   -8306.0971    8.4048439 
  245000    1719.9884    23903.082    93773.624    455.10123   -8287.3114    8.3846253 
  246000     1733.348    23785.015    101146.41    458.63611   -8291.5332    8.4262458 
  247000    1712.5957      23743.8    100994.62    453.14514   -8304.6906    8.4408724 
  248000    1706.7933    23842.059    98279.609    451.60986   -8282.5475    8.4060854 
  249000    1683.3931     23838.64    96538.573    445.41826   -8293.8881     8.407291 
  250000    1706.1536    23801.798    101341.98    451.44059   -8286.7783    8.4203046 
Loop time of 490.444 on 8 procs for 250000 steps with 2048 atoms

Performance: 44.042 ns/day, 0.545 hours/ns, 509.743 timesteps/s
119.3% CPU use with 4 MPI tasks x 2 OpenMP threads

MPI task timing breakdown:
Section |  min time  |  avg time  |  max time  |%varavg| %total
---------------------------------------------------------------
Pair    | 280.95     | 287.67     | 293.2      |  26.3 | 58.65
Neigh   | 3.6452     | 3.6805     | 3.7086     |   1.2 |  0.75
Comm    | 19.076     | 24.829     | 31.701     |  92.1 |  5.06
Output  | 0.0060209  | 0.011296   | 0.013076   |   2.9 |  0.00
Modify  | 173.31     | 173.42     | 173.63     |   0.9 | 35.36
Other   |            | 0.8361     |            |       |  0.17

Nlocal:        512.000 ave         516 max         504 min
Histogram: 1 0 0 0 0 0 0 1 0 2
Nghost:        2803.00 ave        2820 max        2781 min
Histogram: 1 0 0 0 1 0 0 0 1 1
Neighs:        40251.5 ave       42151 max       38259 min
Histogram: 1 0 0 1 0 0 1 0 0 1

Total # of neighbors = 161006
Ave neighs/atom = 78.616211
Neighbor list builds = 4050
Dangerous builds = 0


# fix 132 all momentum 100 linear 1 1 1 angular
fix out_file_1 all print 1000 "$(step) $(temp) $(press) ${sys_press} $(vol) $(ke) $(pe) $(density)" file one_phase_${sim}_press_$P_$T_.txt screen no title  "step temp press pressGiga vol ke pe density"
fix out_file_1 all print 1000 "$(step) $(temp) $(press) ${sys_press} $(vol) $(ke) $(pe) $(density)" file one_phase_cooling_press_$P_$T_.txt screen no title  "step temp press pressGiga vol ke pe density"
fix out_file_1 all print 1000 "$(step) $(temp) $(press) ${sys_press} $(vol) $(ke) $(pe) $(density)" file one_phase_cooling_press_100000_$T_.txt screen no title  "step temp press pressGiga vol ke pe density"
fix out_file_1 all print 1000 "$(step) $(temp) $(press) ${sys_press} $(vol) $(ke) $(pe) $(density)" file one_phase_cooling_press_100000_1700_.txt screen no title  "step temp press pressGiga vol ke pe density"

# dump 3 all custom 1000 traj_npt_new.lammpstrj id type x y z
run 50000
Last active /omp style is pair_style eam/alloy/omp
Per MPI rank memory allocation (min/avg/max) = 4.318 | 4.318 | 4.318 Mbytes
Step Temp Volume Press KinEng PotEng Density 
  250000    1706.1536    23801.798    101341.98    451.44059   -8286.7783    8.4203046 
  251000    1689.0485    23806.948    98948.896    446.91467   -8291.1064    8.4184829 
  252000    1662.1771    23849.621    98791.427     439.8046   -8275.9139    8.4034202 
  253000    1733.2704    23789.404    105066.72    458.61557   -8279.8857    8.4246913 
  254000    1694.7499    23795.313     101066.5    448.42322   -8284.0496    8.4225993 
  255000     1695.186    23901.192    90967.632    448.53861   -8297.8142    8.3852883 
  256000    1669.0986    23835.466    98237.717    441.63599    -8285.305    8.4084106 
  257000     1767.764    23825.402    98164.021    467.74243   -8290.8068    8.4119625 
  258000    1724.0637    23826.697     96899.36    456.17953   -8295.6859    8.4115053 
  259000    1720.1899    23804.661    101267.68    455.15455   -8282.1636    8.4192917 
  260000    1655.7459    23794.591    100441.71    438.10295   -8286.5084    8.4228547 
  261000    1680.2028    23895.397    91534.476    444.57412    -8296.473    8.3873219 
  262000    1785.1185    23872.728    97710.788    472.33435   -8283.6215    8.3952865 
  263000    1676.3712    23794.249    102506.19     443.5603   -8276.8208    8.4229758 
  264000    1745.4906    23840.394    99023.108    461.84899   -8283.9541    8.4066727 
  265000    1688.8719     23768.95    102220.66    446.86794   -8286.7164    8.4319412 
  266000    1654.3229    23667.838    106385.16    437.72643   -8299.6413    8.4679636 
  267000    1627.9213    23793.887    97445.654    430.74067   -8301.9917    8.4231041 
  268000    1698.2686    23840.604    99483.773    449.35425   -8280.1955    8.4065984 
  269000     1720.083    23792.981    102398.94    455.12624   -8280.3134    8.4234247 
  270000    1668.2539     23821.23    97907.052    441.41249   -8289.3691    8.4134356 
  271000     1694.838    23900.621     96140.07    448.44655   -8274.1629    8.3854887 
  272000    1663.8826    23834.458     97060.44    440.25587   -8290.0776    8.4087663 
  273000     1703.455    23754.017    104848.71    450.72656   -8280.8207    8.4372417 
  274000    1668.6933    23664.586    107675.46    441.52876   -8294.1667    8.4691273 
  275000    1709.3351    23877.603    96013.262     452.2824   -8283.3092    8.3935722 
  276000    1722.5731    23776.366    100707.04    455.78513   -8297.2827    8.4293112 
  277000    1764.4857    23796.655    100183.52    466.87501   -8291.3629    8.4221242 
  278000    1737.3886    23766.328    101468.48    459.70524   -8297.2755    8.4328712 
  279000    1701.9641    23866.453    99002.984    450.33208   -8270.0015    8.3974937 
  280000    1707.6576    23664.843    108345.66    451.83854    -8293.369    8.4690351 
  281000    1753.0582    23808.911    97994.563    463.85135   -8294.2127    8.4177889 
  282000    1707.4119    23865.862     96456.81    451.77354   -8284.9607    8.3977016 
  283000    1713.0488    23731.194    105648.91    453.26504    -8284.036    8.4453563 
  284000    1705.2037    23852.316    98643.745    451.18924   -8278.7886    8.4024708 
  285000     1609.431    23808.314    94668.557    425.84823    -8306.934    8.4180001 
  286000    1694.3148     23814.33    102120.43     448.3081   -8275.0414    8.4158733 
  287000    1738.9893    23748.361    103043.06    460.12878   -8295.1079    8.4392512 
  288000    1716.5309    23977.352    89095.094    454.18638   -8281.9884    8.3586539 
  289000    1680.7297    23836.681    99319.004    444.71355   -8279.5454    8.4079822 
  290000    1723.5628    23763.338    106373.46      456.047   -8273.2992    8.4339324 
  291000    1703.5598    23882.961    93133.201    450.75429   -8297.6974    8.3916893 
  292000    1685.3627    23730.193    103782.66    445.93941    -8295.974    8.4457125 
  293000    1681.5705    23774.174    103770.87    444.93601   -8281.2769    8.4300882 
  294000    1692.3035     23826.75    99195.335    447.77592   -8284.8914    8.4114864 
  295000    1677.3035    23759.245     99035.39      443.807    -8304.912    8.4353852 
  296000    1689.7913    23805.067    100887.41     447.1112   -8280.4925    8.4191482 
  297000    1660.7625    23714.154    105771.12    439.43031   -8289.2797    8.4514248 
  298000    1707.5622    23894.776    93188.488    451.81331    -8288.437      8.38754 
  299000    1668.5698    23857.041     95580.75     441.4961   -8290.7265    8.4008065 
  300000    1704.8483    23836.176    101214.13    451.09522   -8274.4857    8.4081602 
Loop time of 99.4172 on 8 procs for 50000 steps with 2048 atoms

Performance: 43.453 ns/day, 0.552 hours/ns, 502.931 timesteps/s
118.5% CPU use with 4 MPI tasks x 2 OpenMP threads

MPI task timing breakdown:
Section |  min time  |  avg time  |  max time  |%varavg| %total
---------------------------------------------------------------
Pair    | 56.948     | 58.117     | 59.145     |  10.6 | 58.46
Neigh   | 0.74318    | 0.75163    | 0.75923    |   0.7 |  0.76
Comm    | 3.5485     | 4.6205     | 5.8193     |  38.7 |  4.65
Output  | 0.0011924  | 0.0018525  | 0.0021043  |   0.9 |  0.00
Modify  | 35.74      | 35.761     | 35.797     |   0.4 | 35.97
Other   |            | 0.1652     |            |       |  0.17

Nlocal:        512.000 ave         517 max         508 min
Histogram: 1 1 0 0 0 0 1 0 0 1
Nghost:        2782.50 ave        2795 max        2768 min
Histogram: 1 0 0 1 0 0 0 1 0 1
Neighs:        40246.5 ave       41529 max       38545 min
Histogram: 1 0 0 0 0 1 0 1 0 1

Total # of neighbors = 160986
Ave neighs/atom = 78.606445
Neighbor list builds = 807
Dangerous builds = 0

unfix temp
unfix out_file_1


write_data after_${sim}_press_$P_$T.in
write_data after_cooling_press_$P_$T.in
write_data after_cooling_press_100000_$T.in
write_data after_cooling_press_100000_1700.in
System init for write_data ...
Last active /omp style is pair_style eam/alloy/omp
write_restart after_${sim}_press_$P_$T.lmp
write_restart after_cooling_press_$P_$T.lmp
write_restart after_cooling_press_100000_$T.lmp
write_restart after_cooling_press_100000_1700.lmp
System init for write_restart ...
Last active /omp style is pair_style eam/alloy/omp
next loopVar
jump in.lmp ensemble

print """
Label pachadi solti, hos garam.
"""

Label pachadi solti, hos garam.

variable T equal 1800-${loopVar}*100
variable T equal 1800-2*100
# variable T equal 2550


reset_timestep 0
fix 1 all npt temp $T $T $(dt*100) iso $P $P $(dt*1000)
fix 1 all npt temp 1600 $T $(dt*100) iso $P $P $(dt*1000)
fix 1 all npt temp 1600 1600 $(dt*100) iso $P $P $(dt*1000)
fix 1 all npt temp 1600 1600 0.10000000000000000555 iso $P $P $(dt*1000)
fix 1 all npt temp 1600 1600 0.10000000000000000555 iso 100000 $P $(dt*1000)
fix 1 all npt temp 1600 1600 0.10000000000000000555 iso 100000 100000 $(dt*1000)
fix 1 all npt temp 1600 1600 0.10000000000000000555 iso 100000 100000 1
print """
<--------------------------------------------------------------------->
<------------------ Equilibrating at temperature $T ----------------->
<--------------------------------------------------------------------->
"""

<--------------------------------------------------------------------->
<------------------ Equilibrating at temperature 1600 ----------------->
<--------------------------------------------------------------------->

fix temp all print 1000 "$(step) $(temp) $(press) ${sys_press} $(vol) $(ke) $(pe) $(density)" file temp_${sim}.txt screen no title  "step temp press pressGiga vol ke pe density"
fix temp all print 1000 "$(step) $(temp) $(press) ${sys_press} $(vol) $(ke) $(pe) $(density)" file temp_cooling.txt screen no title  "step temp press pressGiga vol ke pe density"
run 250000
Last active /omp style is pair_style eam/alloy/omp
Per MPI rank memory allocation (min/avg/max) = 4.318 | 4.318 | 4.318 Mbytes
Step Temp Volume Press KinEng PotEng Density 
       0    1704.8483    23836.176    101214.13    451.09522   -8274.4857    8.4081602 
    1000    1634.2535    23705.943    101224.41    432.41615   -8314.1257     8.454352 
    2000    1650.4102     23613.57    106217.99    436.69115   -8321.6764    8.4874242 
    3000    1558.8195    23742.866    95016.218    412.45664   -8325.2793    8.4412044 
    4000    1544.0892    23738.534    93448.435    408.55909   -8330.9172    8.4427447 
    5000    1585.8717    23623.605       102000    419.61455   -8332.3607    8.4838189 
    6000    1614.1765     23639.13    102830.08    427.10386   -8324.2411    8.4782472 
    7000    1574.9251     23606.75    104086.97    416.71813   -8328.1791    8.4898763 
    8000    1518.5694    23762.167     92346.41    401.80665   -8328.5648    8.4343482 
    9000    1616.9111    23758.056    91385.125    427.82743   -8337.9855    8.4358075 
   10000     1612.805    23710.141    98546.968    426.74097   -8324.2753    8.4528552 
   11000    1632.8103    23590.567    102413.44    432.03428   -8346.0913    8.4957004 
   12000    1619.2548      23711.4    98873.849    428.44757   -8319.2804    8.4524064 
   13000    1588.2833    23563.097    107694.08    420.25264   -8326.8857    8.5056047 
   14000    1598.1469    23712.736    97942.602     422.8625   -8322.9302    8.4519301 
   15000    1547.8319     23693.21    98973.824    409.54938   -8320.4674    8.4588954 
   16000    1593.4606    23706.452    97675.294    421.62253     -8327.62    8.4541703 
   17000    1578.5439    23644.528     101359.3    417.67565   -8325.6859    8.4763117 
   18000    1636.0316    23667.865    101351.21    432.88662   -8324.2263    8.4679538 
   19000    1638.9247    23616.565    105282.17    433.65212   -8320.1794     8.486348 
   20000    1581.6271    23647.487    100958.98    418.49145   -8328.4102    8.4752511 
   21000    1600.9305    23703.085    96822.808    423.59903    -8328.517    8.4553713 
   22000    1590.4797    23777.015    90573.804     420.8338    -8336.478    8.4290809 
   23000    1647.6848    23773.073    95138.882    435.97002   -8320.7835    8.4304788 
   24000    1615.2844    23619.935    103825.57      427.397   -8327.5509    8.4851371 
   25000     1610.414    23570.914    103985.58    426.10831   -8342.1861     8.502784 
   26000     1591.677    23716.545    96719.805    421.15061    -8327.396    8.4505727 
   27000    1608.0269    23741.321    93576.586     425.4767   -8332.8717    8.4417539 
   28000    1574.9942     23704.39    98905.058     416.7364   -8320.2289    8.4549059 
   29000    1609.0428     23693.91    102174.99     425.7455   -8315.3295    8.4586455 
   30000    1562.3495    23633.662    99267.958    413.39066   -8337.4235    8.4802087 
   31000    1595.6152    23730.765    94782.149    422.19264   -8329.1142    8.4455088 
   32000    1570.4568    23679.502    104924.88    415.53584   -8302.9566    8.4637922 
   33000    1618.1527    23631.222    104795.12    428.15595   -8319.9075    8.4810843 
   34000    1667.7149    23722.099    97188.658    441.26988   -8328.0914    8.4485941 
   35000    1588.9033    23762.005    95684.749     420.4167   -8315.5111    8.4344055 
   36000    1546.9822    23697.101     96210.09    409.32454   -8333.7601    8.4575064 
   37000    1582.1037    23629.697    101685.53    418.61755   -8333.5355    8.4816317 
   38000    1617.8822    23705.117    99875.137    428.08438   -8319.2301    8.4546467 
   39000    1654.4502    23576.774    104372.16    437.76012   -8338.6844    8.5006704 
   40000    1676.3341    23587.501     109312.9    443.55048   -8315.6796    8.4968045 
   41000    1624.6536    23621.966    100176.63    429.87606   -8343.1589    8.4844075 
   42000    1600.1669    23768.799    93656.468    423.39699   -8326.1161    8.4319947 
   43000    1599.1694    23779.002    96096.861    423.13306   -8307.3855    8.4283767 
   44000    1587.4248    23626.537    102114.83     420.0255   -8330.2919     8.482766 
   45000     1627.383    23663.797    101476.33    430.59823    -8323.331    8.4694096 
   46000    1624.9742    23660.483    99892.712    429.96089   -8334.2671    8.4705958 
   47000    1638.2551    23657.054    101781.74    433.47495   -8323.9356    8.4718234 
   48000    1591.7959    23648.906    104471.81    421.18205   -8314.5599    8.4747424 
   49000    1537.0867    23755.961    93960.644    406.70624   -8326.5101    8.4365515 
   50000    1625.2694    23701.298    98609.757    430.03901   -8325.6153     8.456009 
   51000    1579.5631    23613.205    105058.07    417.94533   -8323.4292    8.4875555 
   52000      1667.01    23684.664    102293.22    441.08336   -8316.2641    8.4619476 
   53000    1567.0418     23694.12    99569.942    414.63223    -8319.721    8.4585707 
   54000    1593.4836    23664.548    101249.75    421.62862   -8321.8363    8.4691408 
   55000    1620.6136    23725.677    95755.032     428.8071   -8329.9227    8.4473199 
   56000    1607.9012    23744.856    94886.837    425.44345   -8326.8237    8.4404969 
   57000    1620.0186    23682.527    100464.37    428.64966   -8322.7871    8.4627113 
   58000    1579.8407    23501.703    109836.14    418.01877   -8335.0225    8.5278238 
   59000    1579.1035    23611.296    102311.19     417.8237   -8329.8204    8.4882416 
   60000    1577.5948    23694.243    97386.209    417.42452   -8333.3985    8.4585266 
   61000    1590.3702     23730.67     98226.45    420.80483   -8315.7313    8.4455428 
   62000    1617.8609    23682.863    99339.378    428.07873   -8327.2398    8.4625911 
   63000    1577.8837    23665.267    96760.002    417.50094     -8343.14    8.4688835 
   64000    1581.0995    23747.331    94997.934    418.35184    -8324.253    8.4396173 
   65000    1592.9325    23751.448    94652.623    421.48281   -8323.8233    8.4381544 
   66000    1614.1726    23630.169    103664.16    427.10282   -8325.0625    8.4814624 
   67000    1617.8632    23544.533    107270.08    428.07935   -8336.1167    8.5123111 
   68000    1616.4784    23632.535    102520.44    427.71293   -8326.5976    8.4806131 
   69000    1625.5211    23709.093    98336.124     430.1056   -8320.7483    8.4532289 
   70000    1585.3264      23694.6    98099.059    419.47026   -8327.3203    8.4583992 
   71000    1574.0513     23580.23    107497.64    416.48692   -8324.6872    8.4994246 
   72000    1627.9431    23664.531    102928.12    430.74644   -8316.7616    8.4691468 
   73000    1581.5089    23703.533    98696.269    418.46016   -8318.4455    8.4552115 
   74000     1574.148    23769.689    94123.858     416.5125    -8322.338    8.4316788 
   75000    1632.4235     23710.38    97359.198    431.93193   -8328.4185    8.4527697 
   76000    1590.3165    23635.576    98836.447    420.79063    -8341.273     8.479522 
   77000    1601.7684    23782.295    91943.597    423.82075   -8328.5299    8.4272097 
   78000     1565.721    23663.943    98519.763    414.28276   -8335.6178    8.4693572 
   79000    1619.2093    23611.632    102823.42    428.43552   -8333.8617     8.488121 
   80000    1620.8324    23729.821    98443.928    428.86498   -8315.4869    8.4458449 
   81000    1604.1409    23665.242    100155.22    424.44849   -8329.9468    8.4688924 
   82000    1622.0959    23639.539    102302.11     429.1993   -8323.3892    8.4781005 
   83000    1600.8806    23687.481    101957.29    423.58583   -8310.3931    8.4609415 
   84000    1560.4569    23762.357    95685.129    412.88991   -8315.1904    8.4342807 
   85000    1629.5729    23752.995    96593.759    431.17768   -8315.3954    8.4376049 
   86000    1630.3061    23619.685    103375.78    431.37169   -8329.0291    8.4852268 
   87000    1583.5729    23621.617    100098.57    419.00629    -8341.253    8.4845329 
   88000    1620.3312    23774.048     92944.65    428.73236    -8326.094     8.430133 
   89000    1613.3737    23660.468    100882.47    426.89144   -8328.0761    8.4706011 
   90000    1654.4154    23688.772    101001.27     437.7509   -8318.4697    8.4604801 
   91000    1592.6094    23707.014    99030.785    421.39732   -8317.1603      8.45397 
   92000    1581.9487    23713.407    97936.507    418.57654   -8322.1935    8.4516908 
   93000    1572.1807    23684.993    100038.99    415.99196   -8319.2666      8.46183 
   94000    1639.4561    23556.327    110863.86    433.79274   -8316.3122    8.5080492 
   95000    1593.2991    23611.132     105782.2    421.57981   -8320.8268    8.4883005 
   96000    1679.0072    23716.602    98200.832    444.25777   -8326.1766    8.4505524 
   97000    1570.1998    23652.042    101397.13    415.46782   -8327.8421    8.4736187 
   98000    1637.6711    23740.019    96093.248    433.32043   -8323.3089    8.4422166 
   99000     1599.504    23627.288    103170.15    423.22158   -8327.2956    8.4824966 
  100000    1657.5926    23584.351     108951.8    438.59157   -8317.8637    8.4979394 
  101000    1635.7894    23683.654    100985.99    432.82255   -8321.0843    8.4623087 
  102000    1594.6639    23718.514     98604.59    421.94091   -8320.0154    8.4498709 
  103000    1619.2202    23740.693    95753.091    428.43841   -8320.7684    8.4419769 
  104000    1570.6782    23632.049    99159.556     415.5944    -8343.031    8.4807876 
  105000    1617.6465    23660.536    102481.86    428.02202    -8320.495    8.4705769 
  106000    1599.5195    23651.819    103840.17    423.22569   -8314.2816    8.4736988 
  107000    1612.8024     23752.84    93894.531    426.74027   -8326.2187    8.4376598 
  108000    1577.6367    23685.805    97884.172    417.43561   -8333.2475      8.46154 
  109000    1563.1814    23650.648    104332.58    413.61079   -8313.0652    8.4741183 
  110000    1653.1434    23627.233    102668.44    437.41434    -8332.197    8.4825161 
  111000    1583.9495    23715.749    95026.937    419.10594   -8332.9931    8.4508564 
  112000    1628.9069    23713.024    96992.391    431.00147   -8328.3043    8.4518274 
  113000    1575.8318    23644.498    102150.44    416.95802   -8320.6627    8.4763222 
  114000    1578.6002    23655.523    102999.55    417.69054   -8315.2249    8.4723717 
  115000    1536.2865    23734.663    96892.046    406.49453   -8315.4939     8.444122 
  116000    1580.9071    23692.913    97969.873    418.30093   -8328.9592    8.4590016 
  117000    1663.5802    23627.937    101027.08    440.17585   -8338.9596    8.4822633 
  118000    1622.4281    23704.847    95314.672     429.2872    -8341.396     8.454743 
  119000    1536.0189    23662.143    100106.69     406.4237   -8329.4242    8.4700015 
  120000    1598.0057    23615.047    105705.75    422.82515   -8314.2923    8.4868936 
  121000    1604.3158    23628.144    102130.23    424.49476   -8330.2804    8.4821892 
  122000    1584.0135    23678.689    99436.956    419.12288    -8329.466    8.4640829 
  123000    1607.3101    23739.037    92534.311    425.28705   -8340.1746    8.4425661 
  124000    1632.1783    23794.108    91674.775    431.86707   -8325.4954    8.4230258 
  125000    1594.5475    23613.817    101509.93    421.91013   -8340.5357    8.4873353 
  126000    1615.3088    23654.628     102443.1    427.40346   -8320.2475    8.4726923 
  127000    1590.7365    23672.748    101298.49    420.90174   -8317.9568    8.4662069 
  128000    1579.5002    23687.982    97664.688    417.92866   -8330.8662    8.4607623 
  129000    1598.1226    23674.922    96552.386    422.85606   -8343.2362    8.4654295 
  130000    1603.5825    23635.312    103499.84    424.30074   -8324.3911    8.4796167 
  131000    1633.6813     23596.76    108150.91    432.26474   -8316.6714    8.4934706 
  132000    1551.9245    23621.965    103996.12    410.63225   -8322.8179    8.4844077 
  133000    1608.5851    23745.642    96386.342    425.62441   -8319.2723    8.4402175 
  134000     1613.423      23715.2     97359.42     426.9045   -8323.7676    8.4510521 
  135000    1611.0168    23683.069    97559.948    426.26781   -8336.7704    8.4625175 
  136000     1647.627    23626.312    104961.06    435.95471   -8320.2359    8.4828469 
  137000    1628.6553    23723.933    100797.21    430.93488    -8307.137    8.4479409 
  138000    1524.4563    23714.832    96103.141    403.36431   -8323.7302    8.4511829 
  139000    1587.2016    23689.185    99559.574    419.96644   -8322.6737    8.4603327 
  140000    1633.2489    23614.621    106009.61    432.15034   -8322.2305    8.4870465 
  141000    1604.0808    23646.547    102598.39    424.43259   -8321.0877    8.4755877 
  142000    1600.9436    23707.884     94229.02     423.6025   -8339.5832      8.45366 
  143000      1568.83    23678.452    96434.067     415.1054   -8337.5627    8.4641676 
  144000    1579.4661     23683.94    98485.961    417.91966   -8326.7855    8.4622064 
  145000    1597.9436    23697.826    98996.566    422.80871   -8326.8038    8.4572477 
  146000     1578.078    23641.213    100651.69    417.55235    -8334.596    8.4775003 
  147000    1569.9305    23681.706    100806.58    415.39657   -8321.3411    8.4630044 
  148000    1655.5836    23642.192    98439.575       438.06    -8348.016    8.4771491 
  149000    1640.3399    23634.579    104547.09    434.02658   -8320.2368    8.4798796 
  150000    1628.2123    23610.931    107100.21    430.81767   -8315.0174    8.4883729 
  151000    1598.2235    23617.556    103560.66    422.88278   -8326.5933    8.4859917 
  152000    1600.4664    23756.135     94194.67    423.47624   -8327.7035    8.4364897 
  153000    1618.0825    23781.335    92920.098    428.13738   -8322.9028    8.4275498 
  154000    1607.6696    23719.182    99256.415    425.38216    -8311.078    8.4496331 
  155000    1575.1048    23618.832    104144.54    416.76566   -8323.4699    8.4855333 
  156000    1604.1711    23699.449    101554.86    424.45648   -8316.1702    8.4566684 
  157000    1618.7958    23752.856    97976.307    428.32612   -8312.2081    8.4376542 
  158000    1589.0524    23683.299    101029.59    420.45613   -8313.8088    8.4624355 
  159000    1573.6212    23636.153    102467.09    416.37312   -8323.5807    8.4793151 
  160000    1585.5462    23672.098    100140.59    419.52841   -8326.1731    8.4664394 
  161000    1563.7787    23726.264    94681.299    413.76883   -8329.1646    8.4471112 
  162000    1615.0742    23641.082    102644.26     427.3414   -8324.7077     8.477547 
  163000    1623.9652    23586.852    107964.26     429.6939   -8319.9114    8.4970385 
  164000    1658.1992     23694.51    97593.225    438.75208   -8334.0382    8.4584314 
  165000    1621.3151    23680.733    98811.108    428.99271   -8332.0631    8.4633522 
  166000    1660.0678    23739.709     95379.02    439.24649   -8331.2503    8.4423271 
  167000    1579.1862    23692.499    98774.843    417.84558   -8324.8412    8.4591491 
  168000    1561.0757    23646.986    101182.55    413.05364   -8329.8668    8.4754306 
  169000    1557.6471    23626.291    105908.22    412.14643   -8315.3674    8.4828545 
  170000    1700.6608    23689.542    101408.59    449.98722   -8322.6008    8.4602054 
  171000    1625.9791    23581.624     104663.4    430.22679   -8339.0513    8.4989221 
  172000    1592.0252    23609.115    104269.89    421.24272   -8329.4758    8.4890257 
  173000    1557.7989    23707.233    99133.798    412.18662   -8318.5427     8.453892 
  174000     1558.764    23695.132     92924.75    412.44195   -8347.0412    8.4582094 
  175000    1600.3456    23712.352    96235.726    423.44428   -8331.7658    8.4520669 
  176000    1576.5317    23641.303    102915.04    417.14321    -8322.182    8.4774679 
  177000    1648.4946    23645.111    103241.95    436.18427   -8322.6148    8.4761024 
  178000    1584.3634    23634.674    103103.94    419.21545   -8326.9029    8.4798457 
  179000    1613.8671    23765.364     93994.54    427.02199   -8324.4488    8.4332133 
  180000    1570.5128    23586.732    100766.16    415.55064   -8354.3428    8.4970817 
  181000    1538.2572    23686.456    99648.389    407.01596   -8320.1371    8.4613075 
  182000    1576.9003    23654.841    98689.584    417.24074   -8338.2154    8.4726162 
  183000    1646.4047    23641.693    101776.49     435.6313    -8330.654     8.477328 
  184000     1540.352    23573.063    110124.63    407.57024    -8312.689    8.5020088 
  185000    1579.8497    23635.769    104594.04    418.02114   -8318.2584    8.4794526 
  186000    1597.8914    23767.514     93838.63    422.79491   -8326.3577    8.4324507 
  187000    1570.1228     23751.03    91844.749    415.44745   -8335.4935    8.4383029 
  188000    1577.9413    23611.018    102387.48     417.5162   -8334.9285    8.4883416 
  189000    1615.2982    23612.999    103849.93    427.40066   -8330.6511    8.4876296 
  190000    1624.2975    23616.984     105581.4    429.78184   -8320.3131    8.4861974 
  191000    1559.2997    23622.556    98876.849     412.5837   -8346.4346    8.4841958 
  192000    1614.8606    23742.701     95040.31    427.28486   -8328.5454    8.4412633 
  193000      1578.76    23645.871    101686.15    417.73281   -8327.0994    8.4758302 
  194000    1596.6578    23682.622    99045.408     422.4685   -8328.6649    8.4626772 
  195000    1590.9387    23637.584    103057.56    420.95524   -8324.1354    8.4788018 
  196000    1588.5716    23603.402    105990.51    420.32893   -8320.4696    8.4910806 
  197000    1637.7711    23696.685    100451.46    433.34689   -8316.6646     8.457655 
  198000    1540.5582    23682.836    98683.925    407.62481   -8325.9136    8.4626009 
  199000    1579.2599    23758.576    91682.134     417.8651   -8333.9008     8.435623 
  200000    1603.4916    23608.058    103034.52    424.27669    -8332.683    8.4894057 
  201000    1614.6599    23692.758    102646.96    427.23176   -8311.7756     8.459057 
  202000    1621.7985    23703.642    95587.347    429.12061   -8334.4246    8.4551727 
  203000    1604.3994    23690.129    97805.787    424.51689   -8330.6571    8.4599955 
  204000    1609.3571    23574.561    105279.89    425.82867    -8334.334    8.5014685 
  205000    1632.5141    23701.154    99500.718    431.95593   -8318.8848    8.4560602 
  206000    1620.1916     23690.29    96075.162    428.69544   -8339.1001     8.459938 
  207000    1629.2785     23707.22    99500.018     431.0998   -8319.2408    8.4538966 
  208000    1577.5189     23665.27     100930.5    417.40443   -8325.9021    8.4688823 
  209000    1633.2537     23718.88    96833.051     432.1516   -8324.6213    8.4497409 
  210000     1593.306    23733.656    95611.122    421.58163   -8326.4085    8.4444801 
  211000    1539.9578     23614.36     101023.2    407.46592   -8337.5357    8.4871402 
  212000    1600.0913    23659.606    100787.28    423.37699   -8325.7986    8.4709097 
  213000    1621.8684    23657.448    103108.88    429.13911   -8318.2642    8.4716823 
  214000     1592.389    23707.576    98599.933    421.33898   -8322.3553    8.4537696 
  215000    1579.5819    23732.968    96492.102    417.95028    -8324.643    8.4447251 
  216000    1554.2432    23697.183    99658.143    411.24578   -8318.6348    8.4574772 
  217000    1616.9566    23648.618    102416.38    427.83946   -8323.9048    8.4748457 
  218000    1575.1795    23642.757    103764.62    416.78543   -8316.0976    8.4769464 
  219000    1643.2722    23649.555    103080.64    434.80245   -8325.2027    8.4745097 
  220000    1584.6799    23689.722    97762.101    419.29918   -8331.3118    8.4601408 
  221000    1566.1588    23740.778    95693.817     414.3986   -8320.7872    8.4419467 
  222000    1554.7811    23707.879    95287.792    411.38811   -8334.5338    8.4536618 
  223000     1619.958    23723.513    97470.094    428.63361    -8321.838    8.4480907 
  224000    1595.8913    23703.125    98576.216    422.26569   -8326.5827    8.4553571 
  225000    1590.4702    23709.506    100942.35    420.83129   -8311.1778    8.4530814 
  226000    1588.6173    23629.974    102953.34    420.34103   -8327.7571    8.4815322 
  227000    1646.1872    23649.877       105804    435.57374   -8311.3065    8.4743945 
  228000    1596.8729    23681.335    102771.37    422.52541   -8312.5614    8.4631372 
  229000    1536.5584    23673.579    97802.616    406.56646   -8334.5051    8.4659097 
  230000    1601.5788    23711.394    98483.765    423.77056    -8317.563    8.4524083 
  231000    1614.3814    23627.336    103705.42    427.15808   -8329.0544    8.4824793 
  232000    1618.1935    23648.671    102041.45    428.16674   -8323.0601    8.4748267 
  233000    1577.9897    23618.476    100953.59    417.52899   -8335.3104    8.4856614 
  234000    1579.5779    23629.158    104781.64    417.94923   -8321.7272    8.4818253 
  235000    1575.9025     23710.84    99144.252    416.97673   -8318.1509     8.452606 
  236000    1604.2973    23670.046    100687.15    424.48988   -8323.2444    8.4671734 
  237000    1607.9203    23540.247    109670.68    425.44851    -8323.175    8.5138608 
  238000    1540.0662    23632.559    103719.46    407.49461   -8318.5964    8.4806046 
  239000    1631.1508    23710.841    97677.135     431.5952   -8324.9118    8.4526054 
  240000    1614.6031    23713.861    94213.674    427.21674   -8336.6264     8.451529 
  241000    1567.0682     23610.09     102128.1    414.63922   -8332.2587    8.4886751 
  242000    1659.2205    23660.119    102068.13    439.02231   -8322.9033    8.4707261 
  243000    1621.5905    23659.119    99940.841    429.06556   -8333.0516    8.4710842 
  244000    1595.7995    23686.953    97109.951    422.24139   -8333.1948    8.4611298 
  245000     1580.797    23734.993    99468.297    418.27181   -8307.9654    8.4440044 
  246000    1609.8502    23639.771     102178.8    425.95914   -8327.5466    8.4780174 
  247000    1622.6818    23700.466    99555.304    429.35434    -8321.701    8.4563056 
  248000    1563.0659    23644.985    100525.95    413.58023   -8331.1837    8.4761479 
  249000    1560.2568    23677.097    99928.146    412.83696   -8323.0929    8.4646521 
  250000    1599.3782    23609.583    101104.96     423.1883   -8343.1678    8.4888576 
Loop time of 536.161 on 8 procs for 250000 steps with 2048 atoms

Performance: 40.286 ns/day, 0.596 hours/ns, 466.278 timesteps/s
117.9% CPU use with 4 MPI tasks x 2 OpenMP threads

MPI task timing breakdown:
Section |  min time  |  avg time  |  max time  |%varavg| %total
---------------------------------------------------------------
Pair    | 311.1      | 316.1      | 321.16     |  21.1 | 58.96
Neigh   | 3.7838     | 3.8689     | 3.9206     |   2.6 |  0.72
Comm    | 27.109     | 32.389     | 37.553     |  68.5 |  6.04
Output  | 0.0063215  | 0.0115     | 0.013234   |   2.8 |  0.00
Modify  | 182.72     | 182.83     | 183        |   0.8 | 34.10
Other   |            | 0.9567     |            |       |  0.18

Nlocal:        512.000 ave         516 max         509 min
Histogram: 1 0 1 0 1 0 0 0 0 1
Nghost:        2820.50 ave        2831 max        2815 min
Histogram: 1 2 0 0 0 0 0 0 0 1
Neighs:        40542.0 ave       42553 max       38815 min
Histogram: 1 0 1 0 0 1 0 0 0 1

Total # of neighbors = 162168
Ave neighs/atom = 79.183594
Neighbor list builds = 3859
Dangerous builds = 0


# fix 132 all momentum 100 linear 1 1 1 angular
fix out_file_1 all print 1000 "$(step) $(temp) $(press) ${sys_press} $(vol) $(ke) $(pe) $(density)" file one_phase_${sim}_press_$P_$T_.txt screen no title  "step temp press pressGiga vol ke pe density"
fix out_file_1 all print 1000 "$(step) $(temp) $(press) ${sys_press} $(vol) $(ke) $(pe) $(density)" file one_phase_cooling_press_$P_$T_.txt screen no title  "step temp press pressGiga vol ke pe density"
fix out_file_1 all print 1000 "$(step) $(temp) $(press) ${sys_press} $(vol) $(ke) $(pe) $(density)" file one_phase_cooling_press_100000_$T_.txt screen no title  "step temp press pressGiga vol ke pe density"
fix out_file_1 all print 1000 "$(step) $(temp) $(press) ${sys_press} $(vol) $(ke) $(pe) $(density)" file one_phase_cooling_press_100000_1600_.txt screen no title  "step temp press pressGiga vol ke pe density"

# dump 3 all custom 1000 traj_npt_new.lammpstrj id type x y z
run 50000
Last active /omp style is pair_style eam/alloy/omp
Per MPI rank memory allocation (min/avg/max) = 4.318 | 4.318 | 4.318 Mbytes
Step Temp Volume Press KinEng PotEng Density 
  250000    1599.3782    23609.583    101104.96     423.1883   -8343.1678    8.4888576 
  251000    1622.7595    23712.339    98818.118     429.3749   -8319.8758    8.4520715 
  252000    1593.9982     23679.53    101762.87    421.76478   -8318.8885    8.4637824 
  253000    1567.8078    23577.146    106858.75     414.8349   -8324.1554    8.5005362 
  254000    1606.3114    23784.724    93109.189     425.0228   -8322.3815    8.4263492 
  255000    1567.9502    23706.832    96945.268    414.87259   -8327.5958    8.4540351 
  256000    1656.8397    23645.965    101188.32    438.39236   -8334.5726    8.4757963 
  257000    1670.2504    23680.507     98358.66    441.94077   -8334.8099    8.4634332 
  258000    1550.6623    23687.843    96495.741     410.2983   -8334.4199    8.4608119 
  259000    1573.7201    23737.739    94972.415    416.39929    -8326.426    8.4430276 
  260000     1531.117    23651.926    102377.42     405.1267   -8318.3966    8.4736602 
  261000    1590.8153    23669.854    103784.25    420.92259   -8309.8917    8.4672421 
  262000    1571.9229    23679.806    95567.411    415.92376   -8341.1543    8.4636835 
  263000    1616.6253    23678.933    98328.077     427.7518     -8331.16    8.4639958 
  264000    1561.0348    23685.517    97343.645    413.04282   -8332.5963     8.461643 
  265000    1545.8132    23760.938    90701.056    409.01525   -8336.6427    8.4347843 
  266000    1621.4794    23772.702    94056.687    429.03618   -8317.7766    8.4306104 
  267000    1603.4623    23664.478    99080.114    424.26895   -8331.9439    8.4691656 
  268000    1620.8795     23656.19    102614.54    428.87745   -8320.0364     8.472133 
  269000      1619.82    23632.056    102076.35    428.59712   -8330.9931     8.480785 
  270000    1572.3074    23655.492    101873.86    416.02549   -8324.9167     8.472383 
  271000    1617.5971    23735.815    97604.771    428.00894   -8319.3755    8.4437121 
  272000    1597.7105    23725.996    96931.825    422.74703   -8324.2959    8.4472065 
  273000    1601.9598    23624.191    107559.67    423.87138   -8308.1319    8.4836086 
  274000    1636.9493    23623.546     105308.8    433.12946    -8318.655    8.4838402 
  275000    1588.5002    23668.702    101073.83    420.31004   -8321.0694    8.4676542 
  276000    1643.4076    23718.566    98761.354    434.83827   -8321.2223    8.4498528 
  277000    1597.3371    23749.666    95906.181    422.64824   -8318.5378    8.4387875 
  278000    1598.4398    23655.718    97645.227       422.94   -8342.1649     8.472302 
  279000    1643.1804    23636.254    104052.13    434.77816   -8322.4342    8.4792786 
  280000    1616.0704    23674.753    101955.23    427.60498   -8317.5132    8.4654902 
  281000    1567.5252    23672.976    99546.956    414.76014   -8326.2089    8.4661256 
  282000    1568.5431    23667.194    100453.07    415.02946    -8324.805    8.4681939 
  283000    1616.3007    23590.079    104733.55    427.66592   -8333.6576    8.4958759 
  284000    1664.4045    23586.522    104974.86    440.39396   -8331.2774    8.4971574 
  285000     1617.025    23670.911    99438.467    427.85756   -8331.2401     8.466864 
  286000    1585.8864    23648.645    102753.27    419.61843   -8321.0238    8.4748359 
  287000    1633.8843    23664.502    98716.826    432.31846   -8338.6723    8.4691571 
  288000    1583.3434    23833.295     90336.23    418.94557   -8318.4366    8.4091767 
  289000    1521.6992    23636.984    97373.543    402.63478   -8344.1326    8.4790169 
  290000    1582.8579    23672.711    104435.52    418.81709   -8304.3917    8.4662204 
  291000    1580.7638    23639.121    103812.92    418.26302   -8319.4053    8.4782502 
  292000     1563.889     23637.12    101626.13    413.79802    -8326.643    8.4789681 
  293000    1623.0487     23749.95    97177.365    429.45141   -8314.3437    8.4386868 
  294000    1603.0643    23653.037    104197.87    424.16362   -8313.3722    8.4732622 
  295000    1645.1557     23692.74    97338.042    435.30083   -8335.5842    8.4590633 
  296000    1594.4643    23738.641    93239.046    421.88811   -8337.6473    8.4427068 
  297000    1557.3826    23680.072    97457.209    412.07645   -8334.6091    8.4635886 
  298000    1595.9198    23634.938    103233.74    422.27322   -8321.8918    8.4797509 
  299000    1604.8123    23639.209    102050.31    424.62613   -8329.2782    8.4782189 
  300000    1631.4256    23642.968     101629.6    431.66789   -8333.1506     8.476871 
Loop time of 129.87 on 8 procs for 50000 steps with 2048 atoms

Performance: 33.264 ns/day, 0.721 hours/ns, 385.002 timesteps/s
109.6% CPU use with 4 MPI tasks x 2 OpenMP threads

MPI task timing breakdown:
Section |  min time  |  avg time  |  max time  |%varavg| %total
---------------------------------------------------------------
Pair    | 76.964     | 78.075     | 79.109     |   9.2 | 60.12
Neigh   | 0.89587    | 0.91263    | 0.92681    |   1.2 |  0.70
Comm    | 12.315     | 13.367     | 14.466     |  22.2 | 10.29
Output  | 0.0014593  | 0.0019919  | 0.0021982  |   0.7 |  0.00
Modify  | 37.232     | 37.264     | 37.299     |   0.4 | 28.69
Other   |            | 0.2489     |            |       |  0.19

Nlocal:        512.000 ave         517 max         508 min
Histogram: 1 1 0 0 0 0 1 0 0 1
Nghost:        2828.00 ave        2834 max        2822 min
Histogram: 1 1 0 0 0 0 0 0 1 1
Neighs:        40481.8 ave       41830 max       38843 min
Histogram: 1 0 1 0 0 0 0 0 0 2

Total # of neighbors = 161927
Ave neighs/atom = 79.065918
Neighbor list builds = 771
Dangerous builds = 0

unfix temp
unfix out_file_1


write_data after_${sim}_press_$P_$T.in
write_data after_cooling_press_$P_$T.in
write_data after_cooling_press_100000_$T.in
write_data after_cooling_press_100000_1600.in
System init for write_data ...
Last active /omp style is pair_style eam/alloy/omp
write_restart after_${sim}_press_$P_$T.lmp
write_restart after_cooling_press_$P_$T.lmp
write_restart after_cooling_press_100000_$T.lmp
write_restart after_cooling_press_100000_1600.lmp
System init for write_restart ...
Last active /omp style is pair_style eam/alloy/omp
next loopVar
jump in.lmp ensemble

print """
Label pachadi solti, hos garam.
"""

Label pachadi solti, hos garam.

variable T equal 1800-${loopVar}*100
variable T equal 1800-3*100
# variable T equal 2550


reset_timestep 0
fix 1 all npt temp $T $T $(dt*100) iso $P $P $(dt*1000)
fix 1 all npt temp 1500 $T $(dt*100) iso $P $P $(dt*1000)
fix 1 all npt temp 1500 1500 $(dt*100) iso $P $P $(dt*1000)
fix 1 all npt temp 1500 1500 0.10000000000000000555 iso $P $P $(dt*1000)
fix 1 all npt temp 1500 1500 0.10000000000000000555 iso 100000 $P $(dt*1000)
fix 1 all npt temp 1500 1500 0.10000000000000000555 iso 100000 100000 $(dt*1000)
fix 1 all npt temp 1500 1500 0.10000000000000000555 iso 100000 100000 1
print """
<--------------------------------------------------------------------->
<------------------ Equilibrating at temperature $T ----------------->
<--------------------------------------------------------------------->
"""

<--------------------------------------------------------------------->
<------------------ Equilibrating at temperature 1500 ----------------->
<--------------------------------------------------------------------->

fix temp all print 1000 "$(step) $(temp) $(press) ${sys_press} $(vol) $(ke) $(pe) $(density)" file temp_${sim}.txt screen no title  "step temp press pressGiga vol ke pe density"
fix temp all print 1000 "$(step) $(temp) $(press) ${sys_press} $(vol) $(ke) $(pe) $(density)" file temp_cooling.txt screen no title  "step temp press pressGiga vol ke pe density"
run 250000
Last active /omp style is pair_style eam/alloy/omp
Per MPI rank memory allocation (min/avg/max) = 4.318 | 4.318 | 4.318 Mbytes
Step Temp Volume Press KinEng PotEng Density 
       0    1631.4256    23642.968     101629.6    431.66789   -8333.1506     8.476871 
    1000    1514.0812    23467.728    103511.61     400.6191   -8371.5409    8.5401701 
    2000     1527.289    23518.081    105856.25    404.11382   -8347.3354    8.5218851 
    3000    1496.1912    23538.351    101164.74    395.88548   -8365.6706    8.5145465 
    4000    1517.6935    23644.506     96508.71    401.57489   -8350.7183    8.4763195 
    5000    1499.6125    23581.622    96733.874    396.79075   -8368.7193    8.4989227 
    6000    1485.9064    23546.179    97781.902    393.16418   -8371.9835    8.5117159 
    7000    1522.9801    23519.084     100346.6    402.97372    -8374.051    8.5215217 
    8000    1477.8309    23621.381    92483.665    391.02742   -8372.4006    8.4846176 
    9000    1548.2029    23668.085    91061.462    409.64754   -8366.4649    8.4678749 
   10000    1490.0504    23573.129    95804.682    394.26065   -8369.4478    8.5019849 
   11000    1475.0992    23569.686    95541.387    390.30464   -8375.5203     8.503227 
   12000    1484.7351    23643.469    93745.537    392.85424   -8358.9975    8.4766914 
   13000    1500.3741    23600.741    98270.955    396.99226     -8356.06    8.4920378 
   14000    1529.8824    23551.621    101381.85    404.80003   -8358.1937    8.5097491 
   15000     1512.616    23540.914    99459.223    400.23141   -8368.5059    8.5136195 
   16000    1480.4335    23440.478    103416.85    391.71606   -8385.3272    8.5500981 
   17000    1569.0008    23528.373    102369.65    415.15057   -8360.8033    8.5181576 
   18000    1489.6073    23568.262    98896.639    394.14342   -8360.1077    8.5037407 
   19000    1453.9361    23566.898    96706.208    384.70499   -8368.1671    8.5042327 
   20000    1521.8106    23670.162    92160.141    402.66426   -8361.1735     8.467132 
   21000    1470.5204    23531.695    100335.58     389.0931    -8366.227    8.5169551 
   22000      1525.49    23525.334    102449.64    403.63783   -8359.4546    8.5192577 
   23000    1507.3212    23466.879    106178.54    398.83043   -8362.5046    8.5404791 
   24000    1525.5253    23587.348    99271.877    403.64716   -8354.2496    8.4968597 
   25000    1472.6461    23564.978    97748.276    389.65555   -8365.6821    8.5049258 
   26000    1494.7053    23522.329    98709.797    395.49231   -8377.2805    8.5203463 
   27000    1495.1687    23485.628    104674.08    395.61493   -8360.7407     8.533661 
   28000    1476.8784    23442.931    105849.66    390.77542   -8368.8073    8.5492035 
   29000     1533.119    23548.446    99222.016    405.65642   -8369.8327    8.5108966 
   30000    1488.4597    23549.871    98187.158    393.83977    -8369.859    8.5103815 
   31000    1473.2119    23523.924     100921.3    389.80527   -8366.1151    8.5197683 
   32000    1538.8247    23644.681    96296.775    407.16613   -8354.8866    8.4762566 
   33000     1496.377    23526.031    101081.79    395.93465   -8367.6895    8.5190053 
   34000    1516.3665    23578.194    102008.66    401.22377   -8345.4292    8.5001586 
   35000    1523.9636    23531.358    98015.219    403.23395    -8379.299    8.5170771 
   36000    1539.7126    23541.585    102305.59    407.40106   -8355.6041    8.5133769 
   37000    1508.9369    23470.043    106192.97    399.25793   -8362.6418    8.5393275 
   38000    1567.2187    23532.043     102813.4    414.67904   -8357.3258    8.5168289 
   39000    1546.0918    23574.529    98431.155    409.08896   -8366.8493    8.5014799 
   40000    1450.6663    23635.036     93338.14    383.83979   -8363.3716    8.4797156 
   41000    1489.7131    23647.752    95747.827    394.17141   -8348.2913     8.475156 
   42000    1489.2634    23661.565    93906.086    394.05243   -8354.4081    8.4702085 
   43000    1496.2136    23595.059    93132.271     395.8914   -8377.9423    8.4940828 
   44000    1526.5613    23527.318     100054.5    403.92127   -8370.7323    8.5185393 
   45000    1502.1457     23538.97     103771.3    397.46101   -8350.5939    8.5143227 
   46000      1466.99      23494.5    105766.74    388.15897   -8353.5458    8.5304384 
   47000     1508.024    23560.944    102739.57     399.0164   -8347.2824    8.5063819 
   48000    1448.8027    23573.057    99028.275    383.34669   -8359.1141    8.5020109 
   49000    1482.1198    23575.772    94468.162    392.16225    -8377.623    8.5010318 
   50000    1469.8415    23549.722    98572.716    388.91348   -8367.4886    8.5104352 
   51000    1513.5494    23483.533    105656.37    400.47839   -8356.1434    8.5344224 
   52000    1447.8586    23439.514    106149.04    383.09691   -8371.4205    8.5504497 
   53000     1511.494    23544.528    99270.003    399.93455   -8367.4935    8.5123127 
   54000    1517.5238    23594.541    96617.182    401.52999   -8362.3437    8.4942694 
   55000    1488.2646    23582.962    97703.071    393.78815   -8362.4382    8.4984399 
   56000    1485.5996    23574.187    97563.517    393.08299   -8362.6451    8.5016031 
   57000     1506.007    23651.092    95420.757     398.4827   -8351.4607    8.4739591 
   58000    1492.5412    23622.905    97625.102    394.91971   -8349.8443    8.4840703 
   59000    1472.4322    23625.625    98664.326    389.59895   -8342.6476    8.4830934 
   60000    1499.1345     23581.52    96794.639    396.66426    -8368.549    8.4989597 
   61000    1522.3043    23528.993    100966.35     402.7949   -8366.1234    8.5179329 
   62000    1511.1053    23473.441    104955.77    399.83168   -8367.9173    8.5380913 
   63000    1534.6697    23506.916    98205.079    406.06671   -8384.8019     8.525933 
   64000    1492.2742    23556.005    98490.153    394.84905   -8367.7851    8.5081654 
   65000    1527.5415    23608.945    94016.903    404.18063   -8370.6716    8.4890871 
   66000      1499.43    23570.969    96331.025    396.74246   -8373.2715     8.502764 
   67000     1490.302    23583.381    97364.123    394.32722   -8364.6147    8.4982888 
   68000    1445.9394     23553.45    97931.657    382.58909   -8370.6392    8.5090882 
   69000     1492.935    23635.552    96214.999     395.0239   -8352.7692    8.4795307 
   70000    1526.5396    23539.668    99944.964    403.91554   -8366.6126    8.5140704 
   71000    1508.3702    23503.807    106464.65      399.108   -8346.9754    8.5270606 
   72000     1506.005    23509.806    103318.97    398.48217   -8361.9416    8.5248849 
   73000    1518.4647    23506.938     102181.8    401.77896   -8367.4046    8.5259247 
   74000    1493.7041    23564.956    100321.93     395.2274   -8356.4659    8.5049338 
   75000    1466.0157    23508.192    103989.59    387.90117   -8357.8636    8.5254702 
   76000    1505.7919    23464.653    104085.17    398.42577   -8373.4935    8.5412892 
   77000    1461.7001    23533.097     101550.1    386.75928   -8361.6065    8.5164474 
   78000    1497.5976    23606.943    94344.176    396.25762   -8369.9255    8.4898067 
   79000    1483.0745    23546.726    99252.139    392.41485   -8368.2536    8.5115183 
   80000    1496.6042    23518.689    104605.75    395.99476   -8348.3657    8.5216651 
   81000    1518.1238    23492.816    105086.11    401.68875   -8360.9719    8.5310499 
   82000    1499.8007    23528.288    103005.55    396.84054   -8357.3227    8.5181882 
   83000    1493.8796    23572.514    98025.874    395.27384   -8362.8521    8.5022067 
   84000    1472.3912      23569.9    98155.353    389.58812   -8366.2898    8.5031496 
   85000    1520.8813    23573.738    99366.753    402.41837   -8360.7919    8.5017651 
   86000    1473.2505    23565.871    98249.164    389.81548   -8365.9183    8.5046033 
   87000    1504.2004     23631.46    92720.576    398.00468   -8371.4307    8.4809989 
   88000    1499.5822    23603.741    95180.053    396.78272   -8368.4436    8.4909586 
   89000    1493.2679     23582.41    94413.213    395.11199   -8376.8085    8.4986387 
   90000    1507.8875     23537.63     100151.6    398.98029   -8361.5195    8.5148075 
   91000    1500.9991    23507.862    100524.12    397.15762   -8378.9273    8.5255897 
   92000    1491.6353    23569.061     98039.94    394.68001   -8362.0641    8.5034524 
   93000    1475.9892    23500.477     104011.8    390.54012   -8361.8802     8.528269 
   94000    1520.5903    23410.186    109454.11    402.34139   -8367.3707    8.5611615 
   95000    1474.3621    23482.527    104524.21     390.1096   -8362.7656     8.534788 
   96000    1501.7889    23508.799    98411.503    397.36661   -8385.6406    8.5252499 
   97000    1506.3845    23506.912    100972.23    398.58258   -8371.1272    8.5259343 
   98000    1512.7978    23516.826    102907.61     400.2795   -8359.8043    8.5223399 
   99000    1542.8918    23535.573    101169.24    408.24226   -8358.9474    8.5155515 
  100000    1503.3314    23611.916    98170.099    397.77476   -8351.9009    8.4880188 
  101000     1485.608     23552.76    99855.984    393.08522   -8363.3101    8.5093376 
  102000    1485.5529    23634.814    92470.808    393.07064   -8369.4613    8.4797952 
  103000    1491.6719    23703.413    87421.294     394.6897   -8369.5366    8.4552543 
  104000    1498.0023    23593.521    96246.583    396.36468   -8364.1503    8.4946367 
  105000    1506.3973    23553.923    100735.45    398.58596   -8359.6906    8.5089173 
  106000    1485.3266    23508.228    101413.56    393.01076   -8365.8307    8.5254569 
  107000    1487.9049    23467.273    104605.37    393.69296   -8364.9151    8.5403357 
  108000    1523.6989    23473.355    106630.37    403.16391   -8360.4599    8.5381226 
  109000    1489.4115    23582.957    99863.671    394.09159   -8351.5365    8.4984416 
  110000    1519.7293     23613.09    96779.757    402.11355   -8358.6802    8.4875967 
  111000    1521.1928    23621.605    96334.862     402.5008   -8359.2652    8.4845372 
  112000    1533.8535    23623.552    93304.324    405.85076    -8371.878    8.4838381 
  113000     1490.578    23585.282    96963.971    394.40026   -8362.6164     8.497604 
  114000    1487.9492    23637.498    94597.909    393.70469   -8357.4084    8.4788324 
  115000      1509.13    23570.636    98958.211    399.30904   -8360.2297     8.502884 
  116000    1548.4765    23546.265    99543.694    409.71994   -8370.1367     8.511685 
  117000    1473.3825     23441.35    107360.68     389.8504   -8364.9622    8.5497802 
  118000    1506.6898     23450.91    109992.76    398.66336   -8346.6552    8.5462948 
  119000    1486.0671    23492.982    104578.38    393.20668   -8360.1298    8.5309897 
  120000    1518.1491    23579.246    99651.559    401.69545   -8354.3828    8.4997793 
  121000    1515.2919    23580.683     97524.02    400.93944   -8364.4174    8.4992614 
  122000    1529.6926    23719.329     89064.87     404.7498   -8359.2555    8.4495809 
  123000    1515.1189    23610.905    94496.737    400.89367   -8370.0539    8.4883824 
  124000    1505.7636    23601.297    97155.109    398.41831   -8358.4619    8.4918377 
  125000    1495.7929    23552.003    100557.43    395.78009   -8358.3178     8.509611 
  126000    1464.1437    23485.703    102473.61    387.40587   -8368.5425    8.5336335 
  127000    1449.2678    23624.953     96703.26    383.46976    -8348.621    8.4833349 
  128000     1474.587    23602.313     91776.53    390.16911   -8382.5869    8.4914724 
  129000    1493.7558    23640.978    97924.531    395.24108   -8341.5041    8.4775844 
  130000    1486.3142    23503.613     104277.6    393.27208   -8359.1354    8.5271308 
  131000     1443.973    23514.416    104999.01    382.06879   -8348.7291    8.5232133 
  132000    1533.6272    23505.316    103307.46    405.79087    -8363.612    8.5265133 
  133000    1497.6264    23580.499    96513.401    396.26522   -8366.1204    8.4993277 
  134000    1459.5919    23590.901    95815.279    386.20149   -8363.0087      8.49558 
  135000    1562.4995    23596.321    98765.386    413.43038   -8355.6526    8.4936284 
[...]
  120000    1196.6453    22674.747    101757.31    316.62697    -8647.701    8.8388366 
  121000    1226.7755    22703.533    99849.703    324.59928   -8647.4298    8.8276299 
  122000     1185.803    22685.629    99176.005    313.75815   -8654.0873    8.8345968 
  123000     1169.334    22699.615    100025.27    309.40053   -8644.2448    8.8291537 
  124000    1237.9726     22729.02    96072.283    327.56201   -8652.7914    8.8177309 
  125000    1203.4304    22640.937    105198.36    318.42228   -8642.1095     8.852036 
  126000    1207.7083    22685.266    101022.99    319.55419   -8645.7048    8.8347382 
  127000    1202.2995    22726.064     97512.48    318.12307    -8646.168     8.818878 
  128000    1212.6318    22690.813     101450.6    320.85694    -8642.539    8.8325785 
  129000    1213.2712    22648.847     102068.5    321.02611   -8654.7636    8.8489443 
  130000    1207.9233    22786.548    92393.464    319.61108   -8647.5918    8.7954693 
  131000    1199.7765    22643.477    103016.92    317.45548   -8650.4867    8.8510428 
  132000    1273.4335     22673.99     101763.8     336.9448   -8650.5739    8.8391317 
  133000    1172.2729    22720.588     97671.04    310.17814   -8645.2832    8.8210035 
  134000    1206.4968    22710.397    99021.831    319.23364   -8644.3266    8.8249618 
  135000    1203.7986    22655.676    102678.56     318.5197   -8650.5008     8.846277 
  136000    1204.1941    22764.137    95561.583    318.62436    -8643.495    8.8041286 
  137000    1202.3411    22669.771    102008.96    318.13408   -8647.3442    8.8407768 
  138000    1206.8027    22629.545    106475.19    319.31459   -8644.9835    8.8564923 
  139000    1222.7744    22701.742    100122.55    323.54062    -8643.916    8.8283264 
  140000    1219.5188     22765.45    94823.572    322.67921   -8646.9917    8.8036207 
  141000    1192.1157    22678.695    100007.78    315.42846   -8651.1563     8.837298 
  142000    1217.5653    22683.084    104369.84    322.16231    -8632.563    8.8355879 
  143000    1167.4728    22752.307    94989.353    308.90807   -8645.7265     8.808706 
  144000    1181.9134    22696.798    100286.39      312.729   -8646.6025    8.8302495 
  145000    1204.5709    22669.176    102064.15    318.72405   -8647.7516    8.8410088 
  146000     1232.646    22752.557    96252.653    326.15261   -8645.0028    8.8086094 
  147000    1210.7691    22704.201     97919.05    320.36409   -8653.1437    8.8273704 
  148000    1207.2506    22740.765    96588.785    319.43309   -8647.0065    8.8131771 
  149000    1192.0388    22622.731    106855.18    315.40812   -8643.1668    8.8591597 
  150000    1236.9829    22681.625    102852.34    327.30014   -8640.6504    8.8361564 
  151000     1183.705    22724.361    95330.996    313.20304   -8656.9037    8.8195391 
  152000    1213.5746    22717.365    97750.617    321.10641   -8648.1065    8.8222551 
  153000    1175.1203    22623.329    104580.69    310.93155   -8653.3309    8.8589255 
  154000    1189.8455    22660.112    103911.83    314.82778   -8642.3527    8.8445451 
  155000    1189.9017    22735.063    96676.138    314.84267   -8647.7845    8.8153875 
  156000    1217.5282     22739.63    95601.908    322.15249   -8650.9008     8.813617 
  157000    1194.3759    22640.749    104710.43     316.0265   -8645.6538    8.8521095 
  158000    1182.6184    22655.758    104230.82    312.91552   -8641.7127     8.846245 
  159000    1199.6559    22739.755    94451.065    317.42356   -8654.5871    8.8135683 
  160000    1205.6534    22685.721    102504.33    319.01048   -8637.0306    8.8345608 
  161000     1182.811    22650.593    103407.67    312.96648   -8647.2955     8.848262 
  162000    1222.6734    22713.775    99312.919     323.5139   -8646.5061    8.8236493 
  163000    1192.2103    22710.345    100303.28    315.45349   -8639.7503    8.8249821 
  164000    1182.9566    22655.532    100196.54    313.00502   -8659.8748    8.8463334 
  165000    1202.4197    22676.721    104760.51    318.15487   -8633.7819    8.8380671 
  166000    1204.8247    22714.629    97436.262     318.7912   -8652.0784    8.8233176 
  167000    1156.7065    22741.685    96290.076    306.05937   -8645.1049    8.8128204 
  168000    1193.2623    22644.545    106269.65    315.73186   -8636.1874    8.8506256 
  169000    1214.0679    22671.218    100687.12    321.23691   -8653.7499    8.8402127 
  170000    1209.8703    22704.024    99456.915    320.12626   -8648.5174    8.8274389 
  171000    1210.9323     22693.75    99957.737    320.40725   -8646.8443    8.8314353 
  172000    1188.4006    22696.011    98823.178    314.44547   -8649.8652    8.8305557 
  173000    1194.0113     22672.28    103092.15    315.93004   -8642.0338    8.8397985 
  174000    1213.5224    22645.833    103880.86    321.09258   -8647.9403    8.8501222 
  175000     1170.938    22750.172    94573.479    309.82494   -8647.5046    8.8095329 
  176000    1174.1595    22694.033    99896.431    310.67735   -8646.6326    8.8313251 
  177000    1163.4715    22637.306    103737.35    307.84934    -8643.987    8.8534558 
  178000    1203.9859     22706.17    98479.443    318.56927   -8648.0514    8.8266048 
  179000    1216.0968    22729.308    99641.208    321.77375   -8637.6407    8.8176195 
  180000    1188.1487    22712.795    98707.898    314.37881   -8646.0435      8.82403 
  181000    1227.2173    22719.661    99459.303    324.71621   -8640.2833    8.8213633 
  182000    1203.6704    22668.989    101307.77     318.4858   -8650.4431    8.8410817 
  183000    1206.1238    22723.322    98020.353    319.13494    -8644.563    8.8199421 
  184000    1198.7467    22669.527    101593.55      317.183   -8650.5624    8.8408719 
  185000    1204.0123    22711.144    99847.164    318.57626   -8639.6458    8.8246717 
  186000    1206.5157    22741.605    93419.137    319.23864   -8661.1534    8.8128514 
  187000    1238.4533    22627.315    105625.98    327.68918   -8647.0893    8.8573649 
  188000    1160.2739    22643.926    104631.11    307.00327   -8640.3954    8.8508673 
  189000    1154.7607    22700.174    99583.369     305.5445   -8643.6074     8.828936 
  190000    1196.7264     22718.09    98280.045    316.64843   -8646.7399    8.8219735 
  191000    1235.3694    22665.361    102567.45    326.87322   -8646.8193    8.8424971 
  192000    1199.3153    22637.048     103533.7    317.33344   -8655.2043    8.8535567 
  193000    1171.4335    22779.226    93866.499    309.95605   -8644.4453    8.7982966 
  194000    1210.9808    22729.631     96929.52     320.4201   -8648.2092    8.8174939 
  195000    1189.8112    22618.669    104759.81     314.8187   -8655.4101    8.8607506 
  196000    1190.0179     22669.47    103491.07    314.87341   -8639.5508    8.8408944 
  197000    1188.0087    22714.943    97713.661    314.34177   -8649.2149    8.8231956 
  198000    1185.7694    22696.896    100023.95    313.74926   -8646.8186    8.8302112 
  199000    1214.8079    22624.266    104692.29    321.43273   -8649.7558    8.8585586 
  200000    1213.2945    22664.562    101859.27    321.03228   -8652.1241    8.8428088 
  201000    1188.5416    22748.404    95626.542    314.48277   -8647.3731    8.8102175 
  202000    1206.7871    22742.834    95591.914    319.31045     -8651.97    8.8123751 
  203000    1182.3369    22662.838    103643.64    312.84105   -8641.1317    8.8434813 
  204000    1208.7475    22646.889    105553.82    319.82917   -8640.6006    8.8497093 
  205000    1178.1613    22736.217    93825.371    311.73619   -8660.6977    8.8149401 
  206000     1194.482    22796.454    93508.532    316.05457   -8638.9415    8.7916473 
  207000     1204.617     22678.68    103291.79    318.73627   -8638.8534    8.8373038 
  208000    1183.0126    22687.739    101455.06    313.01982   -8643.8908    8.8337753 
  209000    1196.1148     22698.05    100711.21    316.48662   -8643.0175    8.8297624 
  210000    1191.5986     22775.89    92478.298    315.29164   -8650.5888    8.7995851 
  211000    1210.7942    22678.031    100648.69    320.37071   -8652.5377    8.8375568 
  212000    1208.8095    22629.303    105817.56    319.84557   -8644.9635    8.8565868 
  213000    1262.0622    22733.651    96503.554    333.93601    -8651.512    8.8159349 
  214000     1206.101    22721.016    97396.928    319.12893   -8649.4294    8.8208375 
  215000    1225.2854    22615.655     106916.2    324.20503   -8644.4177    8.8619314 
  216000    1206.7023    22649.376    103636.92    319.28801   -8645.9803    8.8487376 
  217000    1218.0538    22763.005    94299.545    322.29158   -8650.5165    8.8045664 
  218000    1192.0153    22676.862    100516.61     315.4019   -8652.3751    8.8380124 
  219000    1219.5155    22697.396    101233.67    322.67832   -8639.6403    8.8300168 
  220000    1174.5489    22765.155    92347.481    310.78038   -8656.2406    8.8037346 
  221000    1192.8282    22687.811    100796.45    315.61699   -8644.8679     8.833747 
  222000    1189.1154    22629.041    106296.22     314.6346   -8642.1265    8.8566892 
  223000     1223.869     22722.08    96262.801    323.83024   -8653.9601    8.8204244 
  224000    1226.6615    22745.537     96744.85    324.56914   -8641.3784    8.8113279 
  225000    1149.5318    22653.218    103752.86    304.16097   -8641.5113    8.8472369 
  226000    1231.0245    22627.209    103987.34    325.72357   -8655.1528    8.8574066 
  227000    1167.9477    22768.493    95665.266    309.03373    -8636.811    8.8024441 
  228000    1182.0969    22716.885    98128.968    312.77753   -8645.0105    8.8224414 
  229000    1208.6444    22678.246    102576.91     319.8019   -8643.8077    8.8374731 
  230000    1233.2672    22700.032    102397.38    326.31697    -8636.653    8.8289913 
  231000     1195.229        22650    102175.88    316.25224    -8650.993    8.8484939 
  232000    1174.5838    22768.656    94223.057     310.7896   -8648.0442    8.8023812 
  233000    1196.6187    22727.771    95708.339    316.61994   -8655.2303    8.8182155 
  234000    1191.8316    22636.216    104010.89    315.35329   -8649.8546    8.8538821 
  235000    1181.9608    22685.461    101855.19    312.74152   -8639.7343    8.8346624 
  236000    1190.9993    22698.399    101272.71    315.13308   -8638.7464    8.8296265 
  237000    1217.7107    22695.893    99196.359     322.2008   -8649.5076    8.8306017 
  238000    1175.8213    22716.132    97714.496    311.11704   -8651.9173    8.8227338 
  239000    1192.2613    22730.464    98331.746      315.467   -8642.1781     8.817171 
  240000    1192.2862    22620.546    106947.47    315.47357   -8642.3677    8.8600156 
  241000    1228.3283     22688.03    100520.27    325.01017    -8651.841    8.8336618 
  242000    1215.3531    22736.721    94552.216    321.57698   -8654.5948    8.8147447 
  243000    1226.8956    22707.513    100632.79    324.63108   -8639.7097    8.8260827 
  244000     1172.257    22729.282    98041.785    310.17394   -8641.3003    8.8176294 
  245000      1186.78    22748.881    93731.004    314.01667   -8653.5486    8.8100328 
  246000    1178.6543     22677.73    101206.15    311.86663   -8646.7996    8.8376739 
  247000    1212.2962    22685.935    103410.87    320.76813   -8633.0461    8.8344777 
  248000    1204.2058    22706.496    98886.407    318.62745   -8649.6189     8.826478 
  249000    1157.9191    22668.798    101278.95    306.38021   -8643.3325    8.8411563 
  250000    1235.3619    22662.395    103888.01    326.87122   -8645.0995    8.8436544 
Loop time of 625.902 on 8 procs for 250000 steps with 2048 atoms

Performance: 34.510 ns/day, 0.695 hours/ns, 399.424 timesteps/s
110.9% CPU use with 4 MPI tasks x 2 OpenMP threads

MPI task timing breakdown:
Section |  min time  |  avg time  |  max time  |%varavg| %total
---------------------------------------------------------------
Pair    | 370.08     | 376.32     | 381.77     |  23.4 | 60.12
Neigh   | 2.7238     | 2.7534     | 2.7859     |   1.3 |  0.44
Comm    | 55.686     | 61.301     | 67.431     |  58.1 |  9.79
Output  | 0.0076684  | 0.012141   | 0.013648   |   2.3 |  0.00
Modify  | 184.23     | 184.42     | 184.61     |   1.1 | 29.46
Other   |            | 1.095      |            |       |  0.17

Nlocal:        512.000 ave         516 max         507 min
Histogram: 1 0 0 0 1 0 0 1 0 1
Nghost:        2882.50 ave        2899 max        2867 min
Histogram: 1 0 0 0 2 0 0 0 0 1
Neighs:        41780.8 ave       43314 max       40588 min
Histogram: 2 0 0 0 0 0 0 1 0 1

Total # of neighbors = 167123
Ave neighs/atom = 81.603027
Neighbor list builds = 2462
Dangerous builds = 0


# fix 132 all momentum 100 linear 1 1 1 angular
fix out_file_1 all print 1000 "$(step) $(temp) $(press) ${sys_press} $(vol) $(ke) $(pe) $(density)" file one_phase_${sim}_press_$P_$T_.txt screen no title  "step temp press pressGiga vol ke pe density"
fix out_file_1 all print 1000 "$(step) $(temp) $(press) ${sys_press} $(vol) $(ke) $(pe) $(density)" file one_phase_cooling_press_$P_$T_.txt screen no title  "step temp press pressGiga vol ke pe density"
fix out_file_1 all print 1000 "$(step) $(temp) $(press) ${sys_press} $(vol) $(ke) $(pe) $(density)" file one_phase_cooling_press_100000_$T_.txt screen no title  "step temp press pressGiga vol ke pe density"
fix out_file_1 all print 1000 "$(step) $(temp) $(press) ${sys_press} $(vol) $(ke) $(pe) $(density)" file one_phase_cooling_press_100000_1200_.txt screen no title  "step temp press pressGiga vol ke pe density"

# dump 3 all custom 1000 traj_npt_new.lammpstrj id type x y z
run 50000
Last active /omp style is pair_style eam/alloy/omp
Per MPI rank memory allocation (min/avg/max) = 4.318 | 4.318 | 4.318 Mbytes
Step Temp Volume Press KinEng PotEng Density 
  250000    1235.3619    22662.395    103888.01    326.87122   -8645.0995    8.8436544 
  251000    1205.6304    22661.512    104153.26    319.00441   -8641.1672     8.843999 
  252000    1183.3143    22740.324    96613.173    313.09967   -8644.0965    8.8133479 
  253000    1172.1648    22739.709    95362.825    310.14956   -8649.4168    8.8135863 
  254000    1199.2603    22674.065    101446.37    317.31889   -8648.7555    8.8391026 
  255000    1201.8858    22723.089    97717.557    318.01358   -8647.0099    8.8200325 
  256000    1166.0045    22780.144    92637.113    308.51955   -8647.7699    8.7979419 
  257000    1221.8335    22705.421    100287.56    323.29167   -8642.8896    8.8268957 
  258000    1190.0536    22603.338    108217.99    314.88284   -8641.8808    8.8667607 
  259000    1208.0721    22693.744     100461.4    319.65047   -8647.2423    8.8314379 
  260000    1150.1469    22709.792    96905.832    304.32372   -8650.6831    8.8251969 
  261000    1203.1571     22669.62     102992.5    318.34998   -8641.3338    8.8408359 
  262000    1222.8581    22649.348    101237.94    323.56277   -8656.6076    8.8487486 
  263000    1198.6467    22706.084    99505.881    317.15655   -8645.9472    8.8266381 
  264000    1212.9869    22708.924    97742.938     320.9509   -8650.8534    8.8255342 
  265000    1178.6537    22606.374    107319.61    311.86649    -8643.943    8.8655698 
  266000    1217.8602    22737.775    95792.343    322.24035    -8650.164    8.8143359 
  267000    1171.0974    22724.152    96009.379    309.86711   -8651.2369    8.8196202 
  268000    1195.0925    22708.997    99794.861    316.21611   -8644.4287    8.8255057 
  269000    1214.3395    22674.835    103856.87    321.30879   -8640.4579    8.8388023 
  270000    1210.3874    22702.941    97340.784    320.26308   -8658.7183      8.82786 
  271000    1205.0641    22761.287    94807.118    318.85456   -8648.3164    8.8052307 
  272000    1192.4861    22637.734    106254.57    315.52647   -8640.2897    8.8532885 
  273000    1203.1375    22673.913    101726.64    318.34478   -8647.6407    8.8391617 
  274000    1156.1136    22737.356    96424.029    305.90248    -8646.594    8.8144983 
  275000    1207.3006    22692.801    100479.16    319.44633   -8646.7042    8.8318046 
  276000    1219.3648    22637.404    103566.87    322.63847   -8652.5411    8.8534175 
  277000    1209.3869    22721.959    98131.999    319.99835   -8648.8663    8.8204712 
  278000    1184.9519    22744.083    94722.163    313.53297    -8653.261    8.8118914 
  279000    1178.4907    22691.699    101802.14    311.82336   -8639.1696    8.8322337 
  280000    1226.8706    22678.675    101554.91    324.62446   -8647.9027     8.837306 
  281000    1171.7496    22735.042     96602.96    310.03969   -8650.7724    8.8153956 
  282000    1188.7273    22676.912    103213.32    314.53192    -8637.907     8.837993 
  283000    1203.1453    22648.685     104035.1    318.34686   -8648.5909    8.8490076 
  284000    1223.1724    22740.407    94970.093    323.64595    -8653.972    8.8133157 
  285000    1171.9577     22770.62    94107.252    310.09474   -8644.1943    8.8016217 
  286000    1174.0915    22673.304    103390.63    310.65935   -8639.4569    8.8393992 
  287000    1219.4198    22698.632    98705.249    322.65302   -8652.4941     8.829536 
  288000    1199.4013    22780.285    94829.135    317.35621   -8637.2422    8.7978874 
  289000    1164.1295    22703.677    100942.21    308.02343   -8640.1597     8.827574 
  290000    1214.2076    22648.716     102933.5    321.27388   -8649.7108    8.8489955 
  291000    1211.2934    22739.298    97381.736     320.5028   -8645.9753    8.8137457 
  292000    1202.5046    22701.377    98013.514    318.17733    -8651.063    8.8284684 
  293000    1210.6159    22628.685    107223.96    320.32355   -8637.5113    8.8568286 
  294000    1178.9349    22688.491     99607.67    311.94089   -8651.1294    8.8334823 
  295000    1229.0592    22734.569    95849.395    325.20356    -8652.548    8.8155787 
  296000    1217.6048    22677.666    100424.24    322.17277   -8652.3788     8.837699 
  297000    1203.9537    22704.332    99527.418    318.56074   -8646.3646    8.8273193 
  298000    1169.0607    22732.892    96154.832    309.32821   -8648.6401    8.8162291 
  299000    1212.6001    22724.054    99700.791    320.84854   -8639.4648     8.819658 
  300000    1175.4748    22598.406    107728.56    311.02537   -8645.4388    8.8686956 
Loop time of 103.58 on 8 procs for 50000 steps with 2048 atoms

Performance: 41.707 ns/day, 0.575 hours/ns, 482.720 timesteps/s
119.1% CPU use with 4 MPI tasks x 2 OpenMP threads

MPI task timing breakdown:
Section |  min time  |  avg time  |  max time  |%varavg| %total
---------------------------------------------------------------
Pair    | 59.662     | 60.977     | 62.051     |  12.1 | 58.87
Neigh   | 0.47255    | 0.47585    | 0.48233    |   0.6 |  0.46
Comm    | 4.0207     | 5.1304     | 6.4696     |  42.7 |  4.95
Output  | 0.0011179  | 0.0017723  | 0.0019927  |   0.9 |  0.00
Modify  | 36.815     | 36.835     | 36.873     |   0.4 | 35.56
Other   |            | 0.1591     |            |       |  0.15

Nlocal:        512.000 ave         517 max         509 min
Histogram: 1 0 2 0 0 0 0 0 0 1
Nghost:        2875.50 ave        2882 max        2867 min
Histogram: 1 0 0 0 1 0 0 0 1 1
Neighs:        41884.5 ave       43278 max       40546 min
Histogram: 2 0 0 0 0 0 0 0 1 1

Total # of neighbors = 167538
Ave neighs/atom = 81.805664
Neighbor list builds = 494
Dangerous builds = 0

unfix temp
unfix out_file_1


write_data after_${sim}_press_$P_$T.in
write_data after_cooling_press_$P_$T.in
write_data after_cooling_press_100000_$T.in
write_data after_cooling_press_100000_1200.in
System init for write_data ...
Last active /omp style is pair_style eam/alloy/omp
write_restart after_${sim}_press_$P_$T.lmp
write_restart after_cooling_press_$P_$T.lmp
write_restart after_cooling_press_100000_$T.lmp
write_restart after_cooling_press_100000_1200.lmp
System init for write_restart ...
Last active /omp style is pair_style eam/alloy/omp
next loopVar
jump in.lmp ensemble
























Total wall time: 1:04:44
