LAMMPS data file via write_data, version 29 Oct 2020, timestep = 300000

2048 atoms
1 atom types

0.022883818538455003 28.329116181461103 xlo xhi
0.022883818538455003 28.329116181461103 ylo yhi
0.022883818538455003 28.329116181461103 zlo zhi

Masses

1 58.933

Atoms # atomic

8 1 1.6888545801609003 4.183160632586393 2.0752795709721923 0 0 0
132 1 1.5792787381093245 1.835469298124556 4.039413393443063 0 0 0
165 1 3.196559563272068 3.8226338582623454 3.516477179005774 0 0 0
130 1 2.9844244522534713 1.7821156949246308 1.587430011917207 0 0 0
4 1 0.4952159648975943 1.9334387817244418 1.8210420382524521 0 0 0
161 1 0.44066775299087363 3.9289604040459305 3.908446602849414 0 0 0
143 1 12.606983661976484 0.5405550428958267 5.195303965555251 0 0 0
265 1 7.038695465454534 0.17617881043507785 6.940926785306531 0 0 0
1159 1 5.566456000132618 13.835732886487909 5.439224704748515 0 0 0
275 1 15.94687457028957 0.22475935617630918 9.025361626545001 0 0 0
1419 1 9.044612716512749 13.862802931967481 12.471928280573614 0 0 0
12 1 7.375389183796163 2.0154952023140815 1.5111787546718887 0 0 0
39 1 5.043152768815137 3.0384195074938627 1.6183338082190843 0 0 0
134 1 4.620017016121792 1.942904946930854 3.693023575769227 0 0 0
169 1 6.726296423620493 3.6234840644950923 3.3680115135861595 0 0 0
105 1 7.244261806243386 10.728579787443675 0.15547514155478595 0 0 0
509 1 24.556488807690236 11.01414859710405 11.043488536461227 0 0 0
129 1 26.661263449023608 0.39210113549434267 1.5396442439080662 -1 0 0
43 1 8.906946180028536 3.6772284562867483 1.7108247958778997 0 0 0
16 1 10.66169581554972 2.101116789279129 1.2252718256259978 0 0 0
138 1 8.53469831549338 1.4222188818668349 3.3880733102256353 0 0 0
173 1 10.898682520312496 3.576991892359215 3.0394852078445416 0 0 0
277 1 17.947136866000804 0.1407264487150609 6.9158943360407745 0 0 0
49 1 12.82564496901733 3.9029531131083814 1.6045521650898729 0 0 0
142 1 12.351856506695274 2.0727750209248463 2.8961690787553636 0 0 0
20 1 14.378234849109193 1.7932704820024006 1.440567060725615 0 0 0
177 1 14.202797551038008 3.4535427766467595 3.1814910376384398 0 0 0
146 1 16.20931300948699 1.7393580423005632 3.310689024464763 0 0 0
51 1 16.03171378012869 3.2827848359148373 1.3339886253617894 0 0 0
511 1 26.134340515045288 10.317256682026086 12.682881827003298 0 0 0
139 1 8.70114402577256 0.5501040518794834 5.434979992381362 0 0 0
24 1 17.98582520219702 1.7461777394831512 1.3830234996301416 0 0 0
150 1 19.411242539391196 1.753460186144431 3.3446790879879504 0 0 0
56 1 19.45588138268384 3.348472418732398 1.49643896510479 0 0 0
181 1 17.8645918355045 3.4558939809067524 2.936210374969114 0 0 0
510 1 26.375060665012832 12.162640890466797 10.800356392592812 0 0 0
1033 1 7.125271160030425 13.75300531730601 0.4833313009878807 0 0 0
59 1 22.97752477432141 3.4473133094789237 1.4642512757141022 0 0 0
154 1 23.15372094554597 1.7406918621390193 3.484885835410732 0 0 0
185 1 21.571073302726127 3.7047293843846036 3.1886370985414807 0 0 0
22 1 21.39199865328284 1.5097320003621115 1.777268898885889 0 0 0
110 1 12.393972665463368 12.23333340397801 0.10546308068111511 0 0 0
1027 1 1.5309661968188728 13.456317064469202 2.1095711938238426 0 0 0
1311 1 25.837550049712583 13.894237951398354 9.006550392503305 0 0 0
133 1 3.3604634247333793 0.03449918960173304 3.166173443798759 0 0 0
32 1 24.991006806893694 1.7284931146642721 1.7015286809971337 0 0 0
189 1 24.699942737052318 3.382143624996187 3.2351927179452855 0 0 0
33 1 27.04917630083135 3.758424008468206 2.3054295467311747 -1 0 0
157 1 26.650261099587517 1.5938113254802344 3.487754536074659 0 0 0
23 1 19.779645097440024 0.06189760977427519 1.7229037128959972 0 0 0
74 1 8.879139895503819 8.578600674177755 0.06298634019457483 0 0 0
162 1 1.7919570388013966 5.685574776766052 3.998043717957829 0 0 0
67 1 1.6412997432510863 7.362178546962257 1.9551350555802114 0 0 0
197 1 3.9032471538940596 7.259984386017139 3.9248076814861954 0 0 0
194 1 1.866329699971683 8.95411046179936 3.8428797179246654 0 0 0
40 1 3.5156021730333196 5.73413104260562 2.0078551389954153 0 0 0
36 1 0.037662324688608646 5.767454707980915 2.228170202099202 0 0 0
193 1 28.168250217110433 7.3828618491752955 3.805569253179542 -1 0 0
68 1 28.129302739583657 8.914314438668335 2.043227329580327 -1 0 0
166 1 5.147011217491994 5.1749142379326 3.6250058042914173 0 0 0
71 1 5.273486241185642 7.249136123249774 1.8851828220004143 0 0 0
201 1 7.344367548616689 7.214977212342461 3.636282254523873 0 0 0
44 1 6.956731851014528 5.571103806387382 1.9680177027997006 0 0 0
198 1 5.531640896159581 8.720139077704708 3.7892966464132116 0 0 0
76 1 7.333007078410872 8.919655218241807 1.7556077051572483 0 0 0
72 1 4.10301295057951 9.04417142516769 1.9438984459270345 0 0 0
170 1 8.77373448407117 5.303513348158422 3.510683387587529 0 0 0
47 1 10.745884383084885 5.364014033827079 1.9100736434998504 0 0 0
48 1 9.126324470404082 7.178937803856055 1.9912437212910108 0 0 0
205 1 11.120529055399913 7.016331345332722 3.2578099933148748 0 0 0
202 1 9.424966027236714 8.659621256658902 3.6490337432291082 0 0 0
80 1 10.78501967077019 8.57517628764747 1.7841036649981397 0 0 0
1179 1 21.295403801551664 13.703272102657268 7.60923303071229 0 0 0
241 1 12.903892405903584 8.81134517490385 3.284409877416023 0 0 0
174 1 12.67821098767774 5.3088541358904315 3.2753449973372586 0 0 0
206 1 12.788634134322205 7.109575186282022 1.856386456600374 0 0 0
178 1 14.7815825848597 5.3936787986245 1.4518139507623824 0 0 0
209 1 14.710892197045144 6.540377416818337 3.6322307661196995 0 0 0
46 1 14.751006881023105 8.427939718673468 1.7075924704624652 0 0 0
83 1 16.729655892219107 7.1236775453953305 1.685044953691598 0 0 0
213 1 16.50674249048403 4.9911405238572915 3.1906413699158325 0 0 0
210 1 16.252206790329822 8.945742842982577 3.599145366235886 0 0 0
1037 1 10.850286237235155 14.05250442663831 0.44401966200431714 0 0 0
122 1 22.94615285295547 12.564075236807405 0.2912123670010589 0 0 0
87 1 17.827726283159784 5.055197367230641 1.471987748024956 0 0 0
182 1 19.993648338663576 5.192242061834373 3.2357302007807607 0 0 0
54 1 17.909653924350458 7.289651268937517 3.815536750246048 0 0 0
249 1 19.629475955066084 7.285400911949689 1.831907441882791 0 0 0
373 1 19.619717607649214 8.830490609286715 3.124611943821736 0 0 0
88 1 17.8743470545539 8.866781632571108 1.4399111104950832 0 0 0
1039 1 12.474172362642872 14.031665934488919 2.0571196191247436 0 0 0
260 1 26.636531275471604 0.15720924974885586 9.120959206069232 -1 0 0
261 1 3.168262270157644 0.2232243421806387 7.004705386562917 0 0 0
186 1 23.252798101494207 5.388126354489585 3.3138554739564317 0 0 0
60 1 21.09015168167364 5.133213825721547 1.3987017585951873 0 0 0
91 1 22.801138853651395 7.148646996728501 1.2310489767662525 0 0 0
217 1 21.505616196968823 6.845333490188127 3.4255878088725535 0 0 0
92 1 21.455242090266125 8.995007556231002 1.338060279741205 0 0 0
218 1 22.771902634573493 8.854447093087737 3.5656894845166556 0 0 0
78 1 12.718516478392672 8.669402021835154 0.23111025309982777 0 0 0
64 1 24.828185272785973 5.754685093144269 1.6156600243937007 0 0 0
190 1 26.335973466307152 5.928310784418014 3.608337756526056 0 0 0
221 1 24.798112914625527 7.6103257901999575 3.5028189247859682 0 0 0
95 1 26.36818609731629 7.286871476782055 1.8106342641625786 0 0 0
222 1 26.373133638520933 9.109361187765723 3.3283896041268255 0 0 0
96 1 24.152324936116315 9.015178060489651 1.6773854897609162 0 0 0
99 1 1.7916729919152956 10.55361503887051 1.9942488274840446 0 0 0
226 1 1.9890245518484346 12.193149892536178 3.7946269707936247 0 0 0
1000 1 3.855142893693091 11.981423754387462 1.6358726951015832 0 0 1
104 1 3.7581604317215196 10.737495362188383 3.630134495728486 0 0 0
38 1 5.417569876393759 5.648744738701387 0.2488429872318948 0 0 0
100 1 28.093933491766514 12.473193646895991 1.7790515795391753 -1 0 0
225 1 0.1946093378182547 10.850523989723836 3.7857987162207887 0 0 0
257 1 27.68884851121019 0.05729505513600941 7.169723280478496 -1 0 0
506 1 22.785320266746496 13.98991469988288 12.81838075792332 0 0 0
256 1 22.898259199029994 13.864915451641144 5.4291134165526485 0 0 0
103 1 5.871525793221606 10.680462445510654 2.420082252531695 0 0 0
108 1 7.535722715179046 12.379586561823457 2.1291979236277023 0 0 0
230 1 5.562092402540783 12.376841772132604 3.6807554246289116 0 0 0
233 1 7.554290540711464 10.394531710657265 3.6865900484663046 0 0 0
512 1 24.58391810391992 12.391658365409073 12.863988177265787 0 0 0
1409 1 27.723926000326415 13.961764080773678 10.814205947582023 -1 0 0
1285 1 3.7321877879013763 13.89060336471846 7.089813264184717 0 0 0
107 1 9.135770250405894 10.230976122010178 1.8938109560152165 0 0 0
112 1 10.667031402480582 12.281118621186996 2.08838846126161 0 0 0
234 1 9.338848890196331 12.447725348192789 4.097492700659422 0 0 0
237 1 11.00834451975636 10.500493539463648 3.6318737097623695 0 0 0
238 1 12.30413795963362 12.338959615730161 3.505713368907239 0 0 0
481 1 28.0175393688977 12.224283447627444 12.578478671133864 -1 0 0
235 1 9.062662152300325 10.508819719928539 5.455598357837956 0 0 0
137 1 6.436281831211209 0.3797901718934215 3.284773728657947 0 0 0
1041 1 13.946271630319465 14.076040819340472 0.32200707619422286 0 0 0
1411 1 1.8796026852075716 13.874788519353581 12.386245051116784 0 0 0
582 1 5.8829800921506035 8.997786577081577 13.988803848577515 0 0 0
111 1 12.694904624015209 10.562163711989772 2.0111540951738913 0 0 0
116 1 14.258392739741488 12.45087098949241 2.0120972663620726 0 0 0
1043 1 14.808505220914409 10.680728758053906 3.6363620646307853 0 0 0
79 1 16.14270299856949 10.549039652594459 2.0301008199982977 0 0 0
242 1 16.058842865543852 12.60457749912129 3.31090550368655 0 0 0
283 1 23.46276792641636 0.22060325966472177 8.690257209214082 0 0 0
84 1 17.725154542294355 12.419561429201156 1.9159570812069413 0 0 0
245 1 18.122224030770077 10.484894812875417 3.7237439777284513 0 0 0
246 1 19.488231917853604 12.222006090001509 3.6664325224118333 0 0 0
119 1 19.452359860792562 10.878213361218624 1.793505453627446 0 0 0
1439 1 25.999254405312342 14.009583984829709 12.568680733379898 0 0 0
97 1 28.277827183319207 10.698591064265276 0.283235674406289 -1 0 0
1047 1 21.137212972003134 12.463025576897708 1.8092093126109532 0 0 0
118 1 21.202144999885185 10.550664366803234 3.137213495888294 0 0 0
123 1 23.159998357149675 11.086643030696672 2.0793181051640532 0 0 0
250 1 22.528041566352705 12.421134470343027 3.7254799767484443 0 0 0
1417 1 7.16620342103648 13.917602990371503 10.343829870647397 0 0 0
1421 1 10.705084478934861 13.968355741800728 10.707916209796583 0 0 0
1276 1 19.587480251532746 0.3339212693973056 5.0414569904069015 0 1 0
128 1 24.596997802916263 12.615158171356995 1.964397831133663 0 0 0
253 1 24.551614114067142 10.659228989986698 3.7989357046951358 0 0 0
127 1 26.342981009396617 10.773800064813727 1.9274655560849256 0 0 0
254 1 26.8927056714126 12.445065317724511 4.018063986121195 0 0 0
1153 1 0.16958501408985288 13.918281895372942 3.9388089840613003 0 0 0
269 1 10.462684912738869 0.10649391164628637 6.622419421063349 0 0 0
13 1 10.298604167621779 0.2679034066106638 0.027012994642978478 0 0 0
1413 1 3.544659941599818 14.13738174983105 10.724000503856868 0 0 0
164 1 1.663951065346635 3.76790528133334 5.758051386209208 0 0 0
389 1 3.596724396949084 1.6426328804992871 9.03143535233607 0 0 0
258 1 1.5253929266969004 1.8718778460600456 7.209071204257965 0 0 0
291 1 1.7056380229535018 3.256857072921025 9.05486526487191 0 0 0
264 1 3.5448748549646787 3.3835452342096977 7.5266936530694615 0 0 0
136 1 3.1403812263825825 1.8863905147041131 5.722421529293378 0 0 0
289 1 28.180713111069863 3.5857859206900295 7.310018566766507 -1 0 0
159 1 27.758881584621633 1.8151212066444025 5.354901664491721 0 0 0
1427 1 15.67325086857784 13.913374126784987 12.550262550400797 0 0 0
140 1 6.717502206978785 2.018126431677593 5.058733240694956 0 0 0
167 1 5.029774809033773 3.5091676088307127 5.231695330742948 0 0 0
262 1 5.377112364820442 1.5878380069278266 7.2551069272373745 0 0 0
297 1 6.837399635141334 3.448795591136217 6.798999559710404 0 0 0
295 1 5.4665382674154595 3.6552662978450026 8.932214731730562 0 0 0
268 1 7.030508989178264 2.069913348795746 8.658051906394016 0 0 0
171 1 8.844069866123807 3.1490306212729657 4.955249606297314 0 0 0
144 1 10.886731779824286 1.71416507046605 4.808399539013708 0 0 0
266 1 8.81227828632606 2.2347632140696594 7.2009031458051656 0 0 0
301 1 10.678204461630047 3.6490976983446006 7.140122454205143 0 0 0
299 1 8.873823523879485 3.651113982850369 8.838706819584603 0 0 0
270 1 12.4354115440303 1.4645559927190004 7.002905680522781 0 0 0
508 1 20.845565911698728 12.23118450579165 12.430944914249347 0 0 0
175 1 12.513166298283714 2.896543618278 5.462072985165816 0 0 0
303 1 12.443751272690777 3.3787779066809334 8.850825617016136 0 0 0
148 1 14.925846360324655 1.3290670177284667 5.12136984889537 0 0 0
305 1 14.386638361163804 2.6902327538837794 6.911838032283582 0 0 0
276 1 14.440848574959594 2.0237555300403356 9.126984863695856 0 0 0
309 1 16.169482535713968 3.4235842529393428 8.404103693113326 0 0 0
274 1 16.267208328596247 1.5540718871254506 7.19246877676518 0 0 0
179 1 16.30871518851771 3.556443803763849 4.97003207353703 0 0 0
282 1 19.648720814672878 3.57424055173189 4.970582461611204 0 0 0
151 1 17.767700758861203 1.7055322700678173 5.1286148814549115 0 0 0
280 1 17.70193477210158 1.740085670496226 9.055372304509484 0 0 0
183 1 18.166681395677415 3.538710297982015 6.958753689968851 0 0 0
311 1 19.419522962082517 3.3438484539637754 9.59177396149785 0 0 0
278 1 19.722662216902343 1.8755108440996004 7.152776777932278 0 0 0
507 1 22.80132028514207 10.54902259129473 12.374010224206751 0 0 0
156 1 21.399023167769613 1.6960849055030454 5.449811002432693 0 0 0
192 1 23.311917587556877 3.568070060107865 5.1724578359659805 0 0 0
281 1 23.461764613829715 1.7160189775084156 7.130939474291516 0 0 0
313 1 21.404508669352808 3.331709790753113 6.969467097711347 0 0 0
315 1 23.0221070323989 3.7625067987637437 8.820976664604437 0 0 0
284 1 21.116518645349856 1.746128952285711 9.156923087631524 0 0 0
259 1 28.098327052315696 1.8630873679460078 8.887261277376503 -1 0 0
160 1 24.908310578738096 1.6673937266436545 4.984666235449039 0 0 0
317 1 24.7467486246372 3.624717713436431 7.0871627304032225 0 0 0
288 1 24.97936015814669 2.067006452156306 9.153956955357398 0 0 0
191 1 26.225049601856682 3.7146690160310767 5.017876832201908 0 0 0
158 1 26.222071661914555 1.7709786364192934 7.122611598234978 0 0 0
319 1 26.588736233157604 3.5485891900170805 8.82431454264952 0 0 0
195 1 1.8905433224391446 7.530136143892344 5.37546348060771 0 0 0
293 1 1.327140833154972 5.6396902461853475 7.166444811320127 0 0 0
227 1 1.624006846102667 9.087286220722136 7.385008812461151 0 0 0
290 1 3.2553481799220267 7.343056867275803 7.257116741504912 0 0 0
328 1 3.7426064221345943 8.88788758735398 8.924190860433269 0 0 0
296 1 4.080486287644828 5.598887974554634 8.390864458493537 0 0 0
168 1 3.615754748331047 5.490429876422189 5.651746545513522 0 0 0
323 1 1.9746475024589114 7.28023337391203 9.116777019476508 0 0 0
200 1 3.4273913346486693 9.581233196105908 5.3511832545416835 0 0 0
292 1 28.0874423251472 5.1725519919686445 8.9670895173903 -1 0 0
321 1 27.89093829976936 5.934315173108255 5.422133860690127 -1 0 0
196 1 28.053478328871854 9.208594270183555 5.391580459233073 -1 0 0
325 1 28.1691610748453 7.560000471287029 7.247980241391097 -1 0 0
322 1 28.124026693932386 8.824522924573824 9.475575240670745 -1 0 0
204 1 7.334034822227111 8.857669102104378 5.495078319160645 0 0 0
199 1 5.47389847158274 7.390958102762094 5.696335656594214 0 0 0
294 1 5.779877904167954 5.380855164258528 6.919449456304436 0 0 0
172 1 6.9397927022026815 5.431796413853449 5.114527106072049 0 0 0
329 1 7.22544921550094 7.13963435512932 7.277196770572685 0 0 0
326 1 5.314676060249608 9.099253340957972 7.136497703329904 0 0 0
300 1 6.933543111122371 5.142395082785902 8.663050326110232 0 0 0
327 1 5.630852473885315 7.104768395584966 8.654067738182079 0 0 0
332 1 7.120700490116372 8.6887948859424 8.903079745627618 0 0 0
298 1 9.045175223105867 4.9567879776537715 6.7968670538164115 0 0 0
304 1 10.74162788326164 5.529870498229427 8.395263075613492 0 0 0
176 1 10.819968867100052 4.738364452707944 4.844302373304159 0 0 0
208 1 11.18360206037969 9.004553667015593 5.242467724610395 0 0 0
330 1 9.105571249806582 8.019428467675104 6.896542825760143 0 0 0
203 1 9.574500833777913 6.711873560601244 5.119590646328459 0 0 0
333 1 11.419676130882353 6.780477348566343 6.4437120806742305 0 0 0
331 1 8.6067793280346 6.539639557008335 8.745937541977863 0 0 0
336 1 10.67149839573681 8.254190276781024 8.337766557740212 0 0 0
334 1 12.909159227760608 8.537150442341293 7.141293867464021 0 0 0
302 1 12.892021792469075 4.898347008970506 6.892676474568292 0 0 0
308 1 14.332193620690552 4.866365207392431 8.616859810741309 0 0 0
335 1 12.530587915777817 6.752020274264316 8.655971645366023 0 0 0
207 1 13.080950793859097 7.303850927845091 4.856763167082692 0 0 0
180 1 14.400768153540483 4.597694329668728 5.32782633122688 0 0 0
212 1 14.411171803412337 8.97647168345598 5.544275670185352 0 0 0
211 1 14.194701523532823 6.696583927388964 6.536288111614706 0 0 0
340 1 14.901441343760844 8.69702680061272 8.980151173030555 0 0 0
339 1 16.016569512528697 6.505887496577488 8.727792826381993 0 0 0
216 1 15.997343957870571 6.947617011149182 5.2708424775988245 0 0 0
306 1 16.14160736385876 4.948932523400573 6.7546169565902225 0 0 0
337 1 16.272807795159828 8.590562008042847 7.212272519755493 0 0 0
214 1 19.582252302747165 7.088141641635678 5.174189137287686 0 0 0
184 1 18.03624051163552 5.235552760076518 4.9819870433216975 0 0 0
312 1 17.746781172298135 4.976306224862442 8.773431372367545 0 0 0
310 1 19.893491567176362 4.96870134885987 7.12619167330068 0 0 0
343 1 17.9179308297212 6.692130066090583 6.831050755101457 0 0 0
316 1 19.51643511711272 6.841093963203768 8.60520316118625 0 0 0
342 1 19.35650710861062 8.688445950862391 7.3148860262317585 0 0 0
338 1 17.514950368716633 8.657116741596715 8.969574259596072 0 0 0
341 1 17.96956033994298 8.749574242105037 5.563514539886109 0 0 0
187 1 21.357977000610788 5.380947927134793 5.183565761722973 0 0 0
220 1 20.796982724048725 9.205410004728261 5.377867891890492 0 0 0
215 1 23.01466205723291 7.290025862808945 5.91481748906394 0 0 0
314 1 22.735819274634217 5.235624227556705 7.518859705573376 0 0 0
345 1 21.116699241142612 7.236703051192557 6.967949565227686 0 0 0
347 1 22.518377663600525 6.867308991576775 9.343717726635138 0 0 0
247 1 22.716201720648804 9.12510531453903 7.4732273787628385 0 0 0
348 1 20.827975761087366 8.958216701818392 9.194494243567716 0 0 0
441 1 21.058929926394832 5.148757469160649 9.037504577815746 0 0 0
224 1 24.873977841669664 8.930251298092399 5.416122376069893 0 0 0
320 1 24.879061447935165 5.576293328007761 9.309245961800173 0 0 0
349 1 24.350878954831437 6.87888685027326 7.494719138868091 0 0 0
223 1 24.417264319621346 5.646153687137546 5.560896927136217 0 0 0
318 1 26.607793463246246 5.449185903286387 7.3542457388959885 0 0 0
350 1 26.014533368480414 7.233214047401637 5.713004617033278 0 0 0
219 1 26.124221477936352 8.688967944100177 7.5329630532052425 0 0 0
351 1 26.65775487305025 7.087670570842165 9.029864077494617 0 0 0
352 1 24.50581180029804 9.013458964886132 9.100926531543454 0 0 0
344 1 20.59095411595885 10.341119084230487 11.07844344538956 0 0 0
229 1 1.6441790061307222 10.815811883459725 5.574748317013279 0 0 0
354 1 1.94699536507027 12.266308058328633 7.151565811299235 0 0 0
355 1 1.8828896951836924 10.933350701828147 8.851206961484566 0 0 0
360 1 3.8169063790791427 12.729207446235943 9.004627369900014 0 0 0
357 1 3.8171572531299405 10.924577338139352 7.103926542963112 0 0 0
232 1 3.92245972688565 12.224060225451895 5.284865192221529 0 0 0
356 1 27.76556213524963 12.375314513968563 8.892269314510605 -1 0 0
505 1 22.807712884460997 12.282250821278494 10.862869865928927 0 0 0
231 1 5.696551473550302 10.555935789246714 5.481700520179523 0 0 0
236 1 7.278335593101534 12.238597542732226 5.345441256054969 0 0 0
358 1 5.845350933441683 12.433777309450576 7.4207540876532105 0 0 0
361 1 7.436281047356089 10.157401045664484 7.31415054284733 0 0 0
364 1 7.796184700074078 11.914608101850218 8.9655935318797 0 0 0
359 1 5.573252842340577 10.50096572752752 9.222579272706373 0 0 0
15 1 12.371455789366545 0.24951441353309314 1.1640574088734257 0 0 0
240 1 10.945961805831349 12.243830830408937 5.790971274549365 0 0 0
362 1 8.995782248643735 12.095219435043509 7.139850502717541 0 0 0
365 1 11.140013968343096 10.162271877108216 7.170363416270857 0 0 0
368 1 10.967016048234552 12.288845788796744 8.988502415639061 0 0 0
363 1 9.232279175595155 10.229436619730201 8.607945955215646 0 0 0
239 1 12.789016158201186 10.8940862162315 5.236416408990156 0 0 0
405 1 17.32672747844635 0.2864648035083098 10.503608284267896 0 0 0
367 1 12.678023608248116 10.789998665478683 8.95725301781029 0 0 0
366 1 12.86854349908108 12.136022897865358 7.147080078652451 0 0 0
244 1 14.462739739770692 12.789814416723964 4.947273529529387 0 0 0
369 1 14.55453585422288 10.34909874365404 7.221218663579827 0 0 0
372 1 14.250741663955997 12.780747039697447 8.857404592456744 0 0 0
371 1 16.077952011608517 12.61830868095598 6.911350881590183 0 0 0
243 1 16.259734090537023 10.767615211131462 5.352788121031136 0 0 0
1434 1 21.089199516480903 14.095995724184812 10.844895009793976 0 0 0
466 1 16.015076276401924 10.6602666513967 9.476914472186094 0 0 0
94 1 26.29661137790383 9.035215744573364 0.28656440112342224 0 0 0
393 1 6.648638918112584 0.2795430693468383 10.386488245496405 0 0 0
248 1 17.878608956734453 12.313171643690861 5.539321914445521 0 0 0
124 1 19.299690877419472 10.652494304532148 5.360319818164522 0 0 0
374 1 17.39216772139813 10.790860316302696 7.639264978880956 0 0 0
1175 1 19.181959767144143 12.54267670356883 7.354480727755269 0 0 0
375 1 19.165741720037154 10.625764797802693 9.147731052423131 0 0 0
376 1 17.24675389667673 12.847120691995974 9.303061861248759 0 0 0
7 1 5.0299023510553855 0.4764176208996594 1.4149176307092381 0 0 0
380 1 21.073629338022897 12.012735626344085 9.419744980465348 0 0 0
379 1 22.866344723966684 10.52674674349698 9.267411597628557 0 0 0
251 1 22.870563548475197 10.473866016573076 5.33435438289644 0 0 0
252 1 20.96215530490238 12.194000826146349 5.551136197593022 0 0 0
377 1 20.70442436381687 10.777843992129439 7.393569136217101 0 0 0
378 1 22.634947230598172 11.896100534021153 7.305401290819825 0 0 0
542 1 26.052255049603694 1.489136013307858 14.083844116706489 0 0 0
1042 1 16.065128339926446 14.038972659049465 1.559317524395312 0 0 0
228 1 28.32857626178428 12.648904404206577 5.881401621823081 -1 0 0
353 1 28.036809509929398 10.457240431259045 7.583843799120325 -1 0 0
384 1 24.589562919939937 12.164591163336459 9.228618173896875 0 0 0
346 1 24.4564911372997 10.545620262457682 7.341537028316264 0 0 0
383 1 26.31809121141459 10.312500277390942 9.086277081177071 0 0 0
381 1 24.413476292774156 12.262648319945463 5.548717285253437 0 0 0
255 1 26.343752415141275 10.72508206244547 5.055251228613453 0 0 0
382 1 26.361349614541766 12.48153915733946 7.036447235131815 0 0 0
400 1 9.128586069815626 2.3405833291709652 14.112778519020098 0 0 0
385 1 1.620188357780532 1.9679474022968733 10.549899539653445 0 0 0
546 1 1.5835380828890764 3.9739992068436205 12.099969697125275 0 0 0
386 1 3.264178632629874 1.5768626178037797 12.36690295844919 0 0 0
419 1 3.341593263767469 3.6745528760319948 10.641800409298494 0 0 0
518 1 5.040777609546134 0.1544183762922484 12.278154650650889 0 0 0
618 1 9.178754897503694 12.22507406162062 14.171263058141323 0 0 0
145 1 13.785724977836125 0.30758297946329066 2.9798773772544873 0 0 0
421 1 5.296919274468595 2.061286248782656 10.495317537243485 0 0 0
392 1 5.657885038558603 3.637402366710299 12.243546586162653 0 0 0
396 1 6.964296005231047 1.9334920186756488 12.428579525575659 0 0 0
425 1 7.342847818907808 3.2677452384025725 10.909876607130032 0 0 0
272 1 10.608508419802819 1.7795590139668993 8.546221349575475 0 0 0
427 1 8.99383567199586 3.959283441342703 12.52191492309331 0 0 0
394 1 8.978393249343208 1.8013217161637538 10.698171734364635 0 0 0
429 1 10.505573916693855 3.7737914339897674 10.794390111612763 0 0 0
398 1 10.672757936199076 1.504779196936847 12.86920846207108 0 0 0
562 1 15.761301526929454 5.280581680283449 14.065593818539682 0 0 0
113 1 14.546627653748445 10.490497404392398 0.25796408733401954 0 0 0
1281 1 28.27980827917755 14.129396130178755 7.567171029502853 -1 0 0
1031 1 5.260297123199377 13.835445755849664 1.9039026718834966 0 0 0
1181 1 24.551275697581268 14.09947295846874 3.9110609825214824 0 0 0
401 1 12.006979751115805 2.1620708360137963 11.025044105807583 0 0 0
431 1 12.60105337290652 3.7668506382098577 12.423153010736515 0 0 0
404 1 13.973494695192443 1.5943569311253574 12.871752461025382 0 0 0
433 1 14.06122138725311 3.697102196802315 10.783801286056322 0 0 0
402 1 15.679979326815186 1.7955500003707214 10.89978582190504 0 0 0
435 1 15.486957683592795 3.1575171182209782 12.736922032043411 0 0 0
267 1 8.43524315066294 0.03266580335375835 8.799834741981664 0 0 0
1524 1 13.971377969027278 0.4044595094108251 10.681593271261837 0 1 0
135 1 5.0652900769100535 0.5425566291237773 5.111508081898695 0 0 0
271 1 12.45694434433664 0.4340659795196948 9.15470825415967 0 0 0
66 1 1.842801878681526 9.00418965661453 0.06643902365082638 0 0 0
530 1 17.97833446723461 1.3241668895172602 12.707618899053898 0 0 0
437 1 17.64686481958295 3.077052998983828 10.906672649831245 0 0 0
439 1 19.693685493691156 4.082985885765984 12.665088344191776 0 0 0
408 1 19.667215570557474 1.6116885442248254 11.200035200030488 0 0 0
1309 1 24.355200558696325 13.891216345230733 7.237098989758639 0 0 0
406 1 21.39593069026722 3.6345144366321196 11.123476489157238 0 0 0
410 1 23.01630712247855 2.146431221296122 10.755772622227756 0 0 0
412 1 21.05639697553827 1.7176309356717385 12.826452698739436 0 0 0
443 1 23.01211875732605 3.2938060361043573 12.800911321903092 0 0 0
11 1 8.868796492658431 0.06742153294069197 1.4794470367494186 0 0 0
388 1 28.228794210977 1.7124404987485813 12.54850016691564 -1 0 0
417 1 28.221025984289753 3.6342750505667483 10.603440447163766 -1 0 0
445 1 25.1001707073359 3.8201046482060583 10.691500722231236 0 0 0
416 1 24.635360022304056 1.7294935460900775 12.301841156198632 0 0 0
414 1 26.7714681586693 1.6066184485862385 11.056830371179759 0 0 0
447 1 26.43565492215845 3.3212774407553645 12.24035420767451 0 0 0
114 1 16.17960161496012 12.154613232364564 0.03564967020901491 0 0 0
418 1 1.8476838533898363 5.046074594604332 10.139911533050748 0 0 0
451 1 2.1700579705121226 7.162084885906968 12.440824092883632 0 0 0
453 1 3.605270805143689 7.051929188750912 10.771779494445259 0 0 0
324 1 1.6114798445280352 8.778613324570578 10.819051539927816 0 0 0
424 1 3.696707165310327 5.084548627820242 12.474686297185519 0 0 0
456 1 3.606609225468864 9.008713942007606 12.458334710028858 0 0 0
449 1 0.25211476630678403 6.613734323191645 10.645947087522398 0 0 0
420 1 28.128964770504354 5.209387682353477 12.654065304138042 -1 0 0
452 1 28.30725390861825 8.629755827266015 12.515503028143078 -1 0 0
423 1 7.140872632753323 5.575944835213666 12.226198648096698 0 0 0
422 1 5.624945421695527 5.06977053564639 10.562010729742937 0 0 0
428 1 5.219949487911751 6.8924016353982065 12.58633842771952 0 0 0
457 1 7.142389208855283 7.019527928084162 10.447602922778366 0 0 0
454 1 5.559711218151811 8.855969509369155 10.924526518048728 0 0 0
460 1 7.352173268136047 8.490266537691545 12.20295836243265 0 0 0
459 1 9.219211393734453 6.7514816918199685 12.324357482608281 0 0 0
426 1 8.530845913911797 5.252113830216224 10.47296289024139 0 0 0
432 1 10.918037544853599 5.383063629564751 12.815806380091495 0 0 0
464 1 10.621642964289125 8.615168177027975 12.472687288958685 0 0 0
461 1 10.428508339521729 6.552367468354503 10.537768069013538 0 0 0
458 1 9.254271119134712 8.743139316162951 10.565507070029593 0 0 0
610 1 1.546368879634438 12.293813152582509 14.031763471985059 0 0 0
1029 1 3.729065507121465 14.022048281543109 0.40049708691822383 0 0 0
462 1 12.429874288533266 8.716283036853962 10.375566895186804 0 0 0
430 1 12.321780149577316 5.161516406231301 10.461233316111528 0 0 0
463 1 12.46280152986661 6.961765900308597 12.113694610876582 0 0 0
468 1 14.154817527639509 8.40744928664725 12.246027694916753 0 0 0
436 1 14.255224053542179 5.453045756938231 12.23673227894928 0 0 0
465 1 14.299998689293405 6.786518612285435 10.34807420696056 0 0 0
467 1 16.077349099088586 6.574918124892483 12.183509656683526 0 0 0
1437 1 24.429304271765503 14.065100363636551 10.905683472517126 0 0 0
434 1 15.89218493606958 4.953758625257888 10.585830846429385 0 0 0
438 1 19.29880813456151 5.097923496428073 10.763483377627434 0 0 0
501 1 16.10695495957377 8.584188905177964 10.980615749842828 0 0 0
470 1 18.96121550815657 8.825553911312007 10.641046750819829 0 0 0
472 1 17.686116955483463 8.64927673833736 12.486564240561385 0 0 0
440 1 17.691550849598592 4.526301600589438 12.395721305255691 0 0 0
471 1 19.308660791166645 6.708298310023929 12.450250795066783 0 0 0
469 1 17.840832344288785 6.872449659565518 10.50348930226509 0 0 0
1307 1 22.859450985135503 13.866611795558963 9.193857155488978 0 0 0
273 1 14.448050009684032 0.3474579410442834 7.259411154848386 0 0 0
19 1 16.094778781254988 0.2736239223262409 1.5897432283072221 0 0 0
442 1 22.98882505975363 5.254085312071889 10.970251808731543 0 0 0
476 1 20.864205329213853 8.683153168715405 12.731608895006369 0 0 0
473 1 20.825920188563167 6.880572121088721 10.694182645539936 0 0 0
444 1 21.383693093782767 5.575162131937032 12.527764402719342 0 0 0
475 1 22.969532832375606 7.318584659578826 12.573564220443625 0 0 0
474 1 22.62115347172019 9.00793927767412 10.948887456117912 0 0 0
65 1 0.19281658742138139 7.266288679469553 0.3733757599075737 0 0 0
395 1 8.756874858330473 0.057940164660152504 12.446321986378948 0 0 0