LAMMPS data file via write_data, version 29 Oct 2020, timestep = 300000

2048 atoms
1 atom types

0.0532906728958924 28.298709327104437 xlo xhi
0.0532906728958924 28.298709327104437 ylo yhi
0.0532906728958924 28.298709327104437 zlo zhi

Masses

1 58.933

Atoms # atomic

35 1 1.572223781799976 3.444687650435485 1.8243162074830563 0 0 0
130 1 1.670983337857868 1.8944260026419861 3.5628050673262686 0 0 0
8 1 3.5383617341712497 2.0775132444914295 2.223493794227456 0 0 0
165 1 3.177970760908115 3.459800103471589 3.824027800986411 0 0 0
605 1 24.839793173926623 7.30041935419574 13.802437412526421 0 0 0
12 1 7.130415927053397 1.5689207172087154 1.6833102348444366 0 0 0
39 1 5.203157795477472 3.8302220009195813 1.8491517953417715 0 0 0
134 1 5.358013071635763 1.8810449542106882 3.927489028509358 0 0 0
169 1 7.243860147237168 3.5311727589496846 3.375219436924893 0 0 0
45 1 10.780517170776976 3.7534780221709343 0.22347521838071308 0 0 0
106 1 8.961404697773327 12.415356241168427 0.3811889421722511 0 0 0
157 1 24.695589758163806 0.21432504634443397 3.802549891217763 0 0 0
16 1 10.58528179968077 1.5417708094065312 1.6500833537910455 0 0 0
43 1 9.028278692834881 3.463252115582533 1.910409260973457 0 0 0
138 1 8.89585996399688 1.427875567354676 3.350259479224385 0 0 0
173 1 10.439887511998752 2.9262103754753506 3.6604379232652584 0 0 0
1171 1 15.885387377388419 13.996518256000389 5.393057912557493 0 0 0
391 1 5.1214518980704735 0.2875889596660087 12.585605769656617 0 0 0
47 1 12.213488035567453 3.021891768898927 1.8736769058967782 0 0 0
517 1 2.996846375300068 0.12344781162374693 14.093400267125528 0 0 0
142 1 12.598131285992045 1.4797787667523543 3.5389975990061937 0 0 0
20 1 13.9744110661599 1.404894469202238 1.7652573957913062 0 0 0
177 1 14.430416405270519 3.1119531011441803 3.4486103516271327 0 0 0
146 1 15.668021619702792 1.333511305478712 3.9908250522699578 0 0 0
51 1 16.047929535200176 2.887730300851304 1.8577942040894708 0 0 0
273 1 14.40161499035134 0.2008692729173046 7.603105740518814 0 0 0
137 1 7.03756373743477 0.07053227720165167 3.56534375493079 0 0 0
131 1 1.7162129252885583 0.06276772361414373 5.508598137840666 0 0 0
1169 1 14.110121904405128 13.870313517231935 3.0294359577015495 0 0 0
24 1 18.229563892072868 1.648409347132665 2.1539685214752793 0 0 0
55 1 19.588232836557466 3.5264697480716323 1.4952083197124826 0 0 0
181 1 17.544561336998434 3.2692190580649707 3.5692177558552616 0 0 0
150 1 19.768827363857213 1.5273829441066789 3.72304440837031 0 0 0
1177 1 20.867065720857894 13.904032438084815 3.58551950172324 0 0 0
481 1 0.07433502389570634 10.582554959395472 10.651454009864361 0 0 0
1031 1 5.479860833550312 14.071304797275388 1.8350437333490237 0 0 0
28 1 21.665938827542156 1.662637280488235 1.999595066369938 0 0 0
59 1 23.021277357097823 3.119026453844763 1.6904914340846828 0 0 0
154 1 23.07399997199228 1.7521655261995082 3.9865275127269326 0 0 0
185 1 21.02005634648846 3.551426088603074 3.0489986787757264 0 0 0
1179 1 22.773939239816727 14.162646068664893 5.115607234251773 0 0 0
94 1 27.135027671262144 9.097510718025774 0.09010765392928351 0 0 0
1287 1 5.677809689967086 14.000730681781722 8.688628549070609 0 0 0
509 1 24.42890400558999 10.793984607840935 10.497904113575538 0 0 0
4 1 28.202983733361343 2.111797773843344 1.871569280992022 -1 0 0
161 1 28.293652559028914 3.6533709421329243 3.2913327957554643 -1 0 0
32 1 24.993522414880836 1.4898863524160417 2.0079582897722927 0 0 0
189 1 24.799828589906596 3.4563543938424197 3.543453580817523 0 0 0
63 1 26.588594554664766 3.596044825460682 1.7404220733404179 0 0 0
158 1 26.6650223705524 2.1616500809263623 3.7766997321777893 0 0 0
512 1 24.427309992843895 12.231015018054677 12.328992404643515 0 0 0
162 1 1.895760134966198 5.377648418862586 3.645584451780042 0 0 0
67 1 2.073882525540961 7.499657870088764 2.1337099014764442 0 0 0
194 1 1.9221487354850566 9.019915032141267 4.080753696111671 0 0 0
40 1 3.3165543123233023 5.351762485672478 1.9345179975567386 0 0 0
197 1 3.53542835203343 7.21669578525282 4.030294555047431 0 0 0
72 1 3.693308721065488 9.13739294799215 1.796979653474046 0 0 0
68 1 0.1899898939513472 8.861096840668024 1.813833185890675 0 0 0
193 1 0.14822757030958084 7.0115554339399715 3.7117526220042527 0 0 0
36 1 0.3765784102122858 5.448927366562603 1.929602233683761 0 0 0
399 1 12.378411800783956 0.3238965938706699 12.575458841620346 0 0 0
31 1 26.852746554481243 0.20930768857982715 2.1378672977049558 0 0 0
166 1 4.819057346308952 5.127129722977295 3.6020440739593313 0 0 0
44 1 6.988060588331234 4.95302219735059 1.7934213274352977 0 0 0
71 1 5.336123396978483 7.05123637240695 1.8709558187575892 0 0 0
201 1 7.009357375998281 6.430870204654746 3.7729543526593448 0 0 0
76 1 6.8185475839544765 8.963607514963392 2.38225724342035 0 0 0
198 1 5.4439391975381275 8.629043366023154 4.360333695283502 0 0 0
609 1 27.89269844943466 10.667468129182584 14.049886545212665 -1 0 0
170 1 9.402589522127812 4.9925604012873475 3.6128164845123987 0 0 0
48 1 10.576962140471133 5.160394105423 1.6004045557047022 0 0 0
75 1 8.49849342348694 6.618095792345303 2.1192666215869247 0 0 0
205 1 10.925142845976817 6.520740045073589 3.522829494190562 0 0 0
202 1 8.877586697488594 8.471526366151782 3.6427166354488887 0 0 0
80 1 10.792426375560344 8.456376207635293 2.158460452920507 0 0 0
19 1 15.928488196620755 0.2569618342227297 1.8002921920250297 0 0 0
206 1 12.409831039107907 8.423618643567654 3.3895950252629805 0 0 0
79 1 12.669552616931862 6.812964471250833 1.85529195834025 0 0 0
174 1 12.54927680161595 4.591732889593282 3.513907530503091 0 0 0
52 1 13.901546729917847 5.080353042548571 1.7229862269201577 0 0 0
209 1 14.56830344531276 6.824558296124291 3.2652710081405414 0 0 0
84 1 14.26113860076125 8.575541243387384 2.0456881545388264 0 0 0
178 1 15.975165395882312 4.989283300214194 3.5776997190420365 0 0 0
210 1 15.909597470964835 8.45517363277261 3.907762167444892 0 0 0
83 1 16.192568824395565 6.629641338757678 1.7516616598624222 0 0 0
133 1 3.2683331043065014 0.44678327947184626 3.6994371993682873 0 0 0
73 1 7.173681009403664 6.714002756970872 0.1715934895712959 0 0 0
182 1 19.235305112418935 4.965944052436343 3.7358754908740197 0 0 0
56 1 17.618247562129795 4.964334529548801 1.6473634310099303 0 0 0
87 1 19.319552216579694 6.606654762609889 1.8825739969721889 0 0 0
213 1 17.726133327145618 6.4806111260371635 3.6342147111936525 0 0 0
214 1 19.484696653788205 8.831820405761453 3.5073819959911012 0 0 0
88 1 17.854944605127443 8.889753235695226 1.7160306173097664 0 0 0
393 1 6.904746716794417 0.17120651981109086 10.887994515260566 0 0 0
60 1 21.595334831206543 5.343822245731421 1.574525986227233 0 0 0
186 1 22.920853929649667 5.461442444440411 3.5532538795777047 0 0 0
91 1 22.92318417525445 7.20017753645975 1.8362176364217606 0 0 0
217 1 21.150839501720483 6.89643807565014 3.302437804807749 0 0 0
218 1 22.961239152729384 8.975808120567974 3.313417246802958 0 0 0
92 1 21.051649261017424 8.895372124827404 1.627238286962682 0 0 0
126 1 26.49810084790665 12.964742039127772 0.1940432893751027 0 0 0
221 1 24.80145541106566 7.281789929986152 3.5041612994383886 0 0 0
64 1 24.93531833067393 5.573343394298858 2.054994314176078 0 0 0
190 1 26.625436754700402 5.448910789204617 3.3811074567755943 0 0 0
96 1 25.24629549084652 9.136389433488572 1.8941285084090276 0 0 0
95 1 26.90022528826711 7.4303820508470855 2.107422673960153 0 0 0
222 1 26.755093742278447 9.118272927895664 3.6522807294171753 0 0 0
1161 1 7.146523242965979 13.96948440773535 3.6287640151154013 0 0 0
1549 1 10.573209067939397 14.064642964291078 13.813508932938225 0 0 0
99 1 1.543857063763074 10.65204821343854 1.8474470654779058 0 0 0
226 1 2.0640627914226393 12.73693141084051 3.7935628729074984 0 0 0
229 1 3.670534067615413 10.561638420526474 3.8523382090069447 0 0 0
104 1 3.652276870887083 12.731651668926139 2.177379811979551 0 0 0
259 1 1.6840052271780817 0.06582701857048079 9.168086160980907 0 0 0
225 1 0.47352096451944536 11.187756495128502 4.121634297088834 0 0 0
1437 1 24.27621053750174 13.98717704041846 10.694506891278303 0 0 0
1435 1 22.72701167199375 14.162080466561298 12.559396221519016 0 0 0
411 1 23.237321860407548 0.3304462637240916 12.381143383900334 0 0 0
510 1 26.468022906778153 12.523685621591993 10.529993645544828 0 0 0
629 1 17.50757244465715 10.600014860913877 14.120589034126624 0 0 0
103 1 5.146596152626688 10.89062761215658 1.6344598206288024 0 0 0
108 1 7.132019219478514 12.503347696148808 1.9411132771553459 0 0 0
230 1 5.565710973856822 12.36034502638324 3.372474385064549 0 0 0
233 1 6.9924216618142205 10.595813210957674 3.9689093933363826 0 0 0
62 1 26.418060291454807 5.422224083233762 0.18461823613073539 0 0 0
626 1 16.02389627070783 12.135357128023477 13.96448153666584 0 0 0
5 1 3.36194645116616 0.38325928354206473 0.11912191892600155 0 0 0
41 1 7.134536092969699 3.5005644788995234 0.27262948778111423 0 0 0
1303 1 19.375170478698642 14.119881095664788 8.766406821013016 0 0 0
85 1 17.578580736057596 7.176702445378664 0.1207874856042306 0 0 0
107 1 8.649123007743855 10.373511608224787 1.775550631918645 0 0 0
112 1 10.758085469075809 12.098897212212439 1.72861501570285 0 0 0
234 1 8.990385867094322 12.362842112178477 3.327326606165251 0 0 0
237 1 10.957929793206896 10.695141430801785 3.819812589433838 0 0 0
238 1 12.433693020771367 12.601771418737975 3.504835763988584 0 0 0
111 1 12.441401580094896 10.413774260295245 1.9504645575646564 0 0 0
116 1 13.968128044989706 12.187760001949332 1.7332661455167504 0 0 0
241 1 13.583014301567596 10.36939870397852 3.595545177702668 0 0 0
242 1 15.472238169799736 12.16319117721774 3.55795918189552 0 0 0
115 1 15.902560176183338 10.525559273514258 1.6304871905647655 0 0 0
34 1 1.6240450167587916 5.409564640367303 0.20000068987216038 0 0 0
405 1 17.719964195865217 0.2803513779403951 10.890833171899796 0 0 0
119 1 19.43082463112154 10.614284251746737 1.6634729570434568 0 0 0
120 1 17.512195031627954 12.463120572042886 1.8820725528388977 0 0 0
245 1 17.339355516390874 10.404990790407933 3.5557639245124633 0 0 0
246 1 19.147859975913114 12.078747024079242 3.476294339192361 0 0 0
511 1 26.235570498705762 10.94209364497194 12.019255814358226 0 0 0
123 1 23.09827157529695 10.298368726808192 1.7230672908281313 0 0 0
124 1 21.114998381778904 12.468593159033304 1.4521867267663415 0 0 0
249 1 21.079661637510483 10.866397655379862 3.096865880503073 0 0 0
250 1 22.821120070341735 12.373472305990672 3.477491306963467 0 0 0
93 1 25.132282084282913 7.643640625861235 0.581741419096968 0 0 0
1291 1 9.197270506904834 13.889280797864998 8.432134642807148 0 0 0
100 1 0.2256468552233112 12.441645122888799 1.7086704991228128 0 0 0
253 1 24.484316640815678 10.533228396134453 3.938563979288448 0 0 0
128 1 24.845331221748417 12.196582176046661 1.7617488469100644 0 0 0
127 1 26.668843625783552 10.664378057060338 2.001128210002998 0 0 0
254 1 26.668896498590883 12.57954339259069 3.359430558228852 0 0 0
257 1 28.148511586220017 0.29968665858430255 7.00101477028326 -1 0 0
602 1 23.053191171302416 9.320451582308973 13.987472632697544 0 0 0
163 1 1.3308843209378662 3.613219900309937 5.185585349028032 0 0 0
258 1 1.7669917280333236 1.9909386469301222 7.149271042294176 0 0 0
264 1 3.609449639392244 1.5202493739184924 9.04669691634323 0 0 0
136 1 3.7321049346058772 1.7493843055090705 5.714226910764353 0 0 0
293 1 3.773937230297661 3.314194785616962 7.43903583115788 0 0 0
260 1 0.2401940567148942 2.020901751760909 8.930215064191874 0 0 0
132 1 27.864251142124758 1.8753600774622552 5.437891071681953 -1 0 0
6 1 5.280299911946689 1.8557396538156479 0.11574124438650812 0 0 0
291 1 1.9344446188150841 3.284921979208646 9.263366900117893 0 0 0
1431 1 19.602346442801704 14.078620573402922 12.445222258676438 0 0 0
122 1 22.962165651112464 12.543564713793236 0.3417271947565114 0 0 0
38 1 5.116878456190844 5.190969243548622 0.30570923537513467 0 0 0
167 1 5.233524553907664 3.474254618597778 5.162392819228596 0 0 0
140 1 6.660750087703424 1.0231685100032335 5.5810121539870945 0 0 0
262 1 5.123437849170759 1.1976579313291138 7.3460486292633576 0 0 0
297 1 6.525010463486984 3.508514028610332 7.20016008834119 0 0 0
268 1 6.738050324280153 1.759797504883411 9.160488432447115 0 0 0
295 1 5.27580065649888 3.373769472362942 9.233312390815586 0 0 0
49 1 14.279547427808208 3.144984854468521 0.39649418807846787 0 0 0
537 1 21.461240798576398 0.25955278235975876 14.01576158019449 0 0 0
171 1 8.482189385246286 2.910934040907572 4.955301575843038 0 0 0
144 1 10.777706466501936 1.404200779191976 5.284251699927409 0 0 0
266 1 8.193235334325552 1.5788209158674293 7.333310849112023 0 0 0
301 1 10.34420088303573 3.1429602345676386 7.019508764962443 0 0 0
272 1 10.709688416386548 1.6249355358838202 8.938264620914316 0 0 0
506 1 22.889886785693903 12.279572631695391 10.156153300099186 0 0 0
175 1 12.451245436686742 3.241596341156826 5.410744415898926 0 0 0
303 1 12.424971031592888 3.6057711829993413 8.957583049776062 0 0 0
270 1 12.50218545334247 1.878326339144626 7.518850169615226 0 0 0
148 1 14.08266121346677 1.6436677360017595 5.785210910206077 0 0 0
305 1 14.258088414219095 3.5510836666059538 7.134934133329542 0 0 0
276 1 14.275779416366097 1.8471134214619132 9.233414550771132 0 0 0
307 1 16.176683969482795 3.566717798907324 8.81845165848547 0 0 0
274 1 16.069793986925234 1.8845391745952524 6.973508101669917 0 0 0
179 1 15.794226368415185 3.453443996990033 5.340216176274053 0 0 0
613 1 3.3217433600358297 10.819060118514578 13.543525949462907 0 0 0
1423 1 12.445618947572289 13.96994960069186 11.961300343941689 0 0 0
78 1 12.129141001968101 8.421468831117378 0.1610745950489603 0 0 0
152 1 17.78367289885822 1.9193698663477485 5.264658427323925 0 0 0
183 1 19.515789349463724 3.305066292605189 5.33637502025039 0 0 0
309 1 17.726661459119825 3.6350683128117867 7.114944951468988 0 0 0
311 1 19.803058931295006 3.437908932570352 8.739970842263109 0 0 0
280 1 17.774225973698 2.25409111534266 9.014911512203522 0 0 0
278 1 19.399204373404487 1.8765544047391913 7.125434720275256 0 0 0
582 1 5.555961904064053 8.434056572617342 13.763568016925666 0 0 0
606 1 26.176635030723233 9.157431283422286 13.811549195782458 0 0 0
187 1 23.00199603041242 3.798282815013144 5.2464388650366995 0 0 0
156 1 21.024019005191157 1.6558573376802221 5.63902926362388 0 0 0
282 1 23.298514275237906 1.8433129179101584 6.93173580644956 0 0 0
313 1 21.35122809635761 3.524446943334262 6.857514363585392 0 0 0
315 1 23.211877737071447 3.7210758748824992 8.912980945079164 0 0 0
284 1 21.725042598244613 1.756778801773964 8.904512964200851 0 0 0
395 1 8.817842807293905 0.2245315625169937 12.502570100631397 0 0 0
508 1 21.30062158246197 12.543905385998036 12.603624705016923 0 0 0
285 1 24.934604158875956 0.19744372480685615 6.8137064199505755 0 0 0
86 1 19.311556536107517 8.778184828937022 0.09205561680798574 0 0 0
289 1 28.18728463053268 3.4957537970878523 7.3002816366205066 -1 0 0
288 1 24.759635727051318 2.0167690370913256 8.561155486152733 0 0 0
317 1 24.808428865651678 3.7906529029087492 7.096300389379672 0 0 0
160 1 24.917602250149216 1.7228409476231947 5.311917939835051 0 0 0
191 1 26.20419085957937 3.6511151544795957 5.341652151893282 0 0 0
286 1 26.657479131096366 2.0039698901948784 7.368884426354094 0 0 0
319 1 26.274612342591155 3.727473898354249 8.794877026382965 0 0 0
638 1 26.503464918355768 12.746329810761369 13.853507724309074 0 0 0
296 1 3.4027793179844714 5.1933581047875546 8.957676395434513 0 0 0
195 1 1.8212404035193204 6.990111301577927 5.650284082881767 0 0 0
168 1 3.550309819843269 5.154337456799218 5.596164529359904 0 0 0
290 1 1.829596598115979 4.886250847642866 7.081192101970697 0 0 0
200 1 3.530870534149059 9.189260637207859 5.83126336118118 0 0 0
322 1 1.7000889423437926 9.193094935399623 6.978109727684376 0 0 0
328 1 3.314375533332273 8.713218987555027 8.812316399051195 0 0 0
323 1 1.8294335835977689 7.335040792359395 8.181250496005884 0 0 0
321 1 28.147236709061225 6.8406931987752095 6.85921672135687 -1 0 0
196 1 0.15368293576371184 8.976714274863154 5.357651802754237 0 0 0
164 1 28.039261138476498 5.284446740623502 5.024379298763928 -1 0 0
325 1 3.7156173125536003 7.0081823014826075 7.166825015612977 0 0 0
204 1 7.1968334233950575 8.559256206790906 5.63404614763208 0 0 0
172 1 7.347283717385579 4.93283350697721 5.490342681723871 0 0 0
294 1 5.347336312154222 5.253692816660192 6.891483708985833 0 0 0
300 1 7.151518766947077 4.955874541825548 9.157654759463915 0 0 0
199 1 5.501735923737241 6.661406832654636 5.431188507488148 0 0 0
329 1 7.296325453884317 6.8092432747907345 6.992369346555064 0 0 0
327 1 5.583237759428829 6.740553416651165 9.015206841789002 0 0 0
326 1 5.621863331468101 8.639346847329225 7.000860672669889 0 0 0
332 1 7.254077430389762 8.861330029417012 8.649907025648114 0 0 0
176 1 10.532768032351976 4.648551974662259 5.422894938396991 0 0 0
298 1 8.738353431877037 4.815706002142882 7.297607930850654 0 0 0
304 1 10.588179160789705 4.6363938097552015 8.713581943672228 0 0 0
331 1 9.18613344822054 6.614415790249098 8.926019344788598 0 0 0
203 1 8.91619088777959 6.776503836219729 5.143015481674891 0 0 0
333 1 10.791247146084867 6.536092901575545 6.4622569423330365 0 0 0
330 1 8.979323288267118 8.749232591600688 7.054564703847065 0 0 0
336 1 10.630614611191808 8.185797194365326 8.635435892829136 0 0 0
208 1 10.93489484861498 8.555421139432303 4.910302552065449 0 0 0
335 1 12.277538122522186 6.336578376819637 8.731324867588366 0 0 0
207 1 12.471449491592622 6.822547167626505 5.113420445548611 0 0 0
334 1 12.413844072825492 8.760369417313154 7.08252271252871 0 0 0
302 1 12.505075085592802 5.1300177963754034 6.725580028322826 0 0 0
211 1 15.605195872690425 6.841411036806618 5.4342463764610285 0 0 0
180 1 14.211965377215309 5.078155453905123 4.989357894292452 0 0 0
308 1 14.266651295752041 5.092921599357691 8.860909257855376 0 0 0
337 1 13.85094317393651 6.5104982376342235 7.30838133680561 0 0 0
340 1 14.066750634875461 8.501339118359958 8.819891491702977 0 0 0
339 1 16.310723180828347 6.5926932375994625 8.718380796124334 0 0 0
212 1 14.006520696225069 8.637750284385573 5.408049745204248 0 0 0
306 1 15.772045125446056 5.252112051246525 7.001308797551897 0 0 0
338 1 16.12604108018987 8.885761875115076 7.425289568352972 0 0 0
184 1 17.677322047066085 5.171224946952535 5.338262385633031 0 0 0
312 1 18.271115428192395 4.852323364383832 9.193951894684659 0 0 0
215 1 19.693765259110506 7.249502262357195 4.963746526085054 0 0 0
310 1 19.568032936538515 5.432036076518454 6.571356404559901 0 0 0
341 1 17.48285740132208 6.869278823636485 7.013018362818936 0 0 0
344 1 18.093348196136205 8.793894148913395 8.620383341004802 0 0 0
216 1 17.537913493273507 8.662354922835966 5.3311184499782955 0 0 0
343 1 19.464696191431756 6.897937446810878 8.5110430758366 0 0 0
342 1 19.65637103714556 8.60950933896971 7.025596614197701 0 0 0
188 1 21.236473593677495 5.031516920146315 4.931899416926047 0 0 0
219 1 22.990410622860715 7.074553901381437 5.24487939744308 0 0 0
314 1 23.149112932381605 5.541031141942304 7.12099353230577 0 0 0
345 1 21.237869331213652 6.8028021219034125 6.95807321001656 0 0 0
347 1 22.83893661326197 7.330955796365041 8.59167240069136 0 0 0
348 1 21.049257346234107 8.977715064542863 8.822746524989393 0 0 0
316 1 21.49525516597094 5.335198854894488 8.728069749286092 0 0 0
346 1 23.02883513989447 9.07605346273278 6.764977257573029 0 0 0
220 1 21.155569119505223 9.070117480209822 5.150423921489368 0 0 0
324 1 0.25870780537476096 9.153203674819729 8.799192429397802 0 0 0
224 1 24.96050749375378 8.759878990499812 5.254196334675891 0 0 0
192 1 24.871271493081466 5.362132357916539 5.101546459748239 0 0 0
292 1 0.06501247425785331 5.471145134839905 8.95706253989925 0 0 0
320 1 24.673511386390643 5.592197951472278 8.848798555315566 0 0 0
318 1 26.439077627265988 5.5890031937317275 6.934446455825469 0 0 0
349 1 24.77259236985929 7.281368985885479 6.958689486805125 0 0 0
223 1 26.536998440788004 7.0420699089086165 4.98541966893456 0 0 0
351 1 26.556188918263103 7.2092366982798275 8.868154130383138 0 0 0
350 1 26.87885302791274 8.828014916609671 7.259167990310851 0 0 0
352 1 24.759868081675414 8.820452785504578 9.211001271870144 0 0 0
227 1 1.9894756405109273 11.178071139185594 5.705193362492725 0 0 0
354 1 1.6884405233505098 12.698773526024318 7.4027996040911646 0 0 0
357 1 3.511952756735834 10.920060926646283 7.218111010100117 0 0 0
355 1 1.944323081544337 10.997964999480333 9.068732146377235 0 0 0
232 1 3.9060182376267587 12.528989694662949 5.269568487426671 0 0 0
360 1 3.9406661445985 12.47852028279889 9.112061295251415 0 0 0
228 1 28.126274895800584 12.820387311725584 5.210404486435983 -1 0 0
353 1 0.1501495210374298 10.842439688773561 7.3467549867888 0 0 0
505 1 20.917125124184857 11.018076670155544 10.83464790930155 0 0 0
231 1 5.661126091511948 10.550159666188131 5.832582778942949 0 0 0
236 1 7.351975053253304 12.450788313604514 5.369548640460448 0 0 0
358 1 5.235713656979349 12.520664785240237 7.189645469480176 0 0 0
361 1 7.495526482474158 10.675129652982482 7.23991552005307 0 0 0
364 1 7.523592855333162 12.394282575531808 8.610480471195238 0 0 0
359 1 5.562961261949236 10.454200599400176 8.697937293979832 0 0 0
1283 1 1.9134005171765622 14.03781588359716 8.984802960791255 0 0 0
235 1 8.989213974923334 10.459823360712448 5.25306463400366 0 0 0
240 1 10.592064537813673 12.491851673751105 5.353546907893595 0 0 0
362 1 9.019207486492473 12.0799824839256 6.7996073014245955 0 0 0
365 1 10.467306828122704 10.282125139652182 6.85020566055962 0 0 0
368 1 10.543841917073262 12.169344517597237 8.59198919706763 0 0 0
363 1 8.945786918550228 10.529293062774979 9.285531439976426 0 0 0
77 1 10.58366152994128 6.946643546399158 0.0679432050437497 0 0 0
610 1 1.564206445323083 12.344235047743023 13.522488053721663 0 0 0
507 1 22.650352652739173 11.092615859644162 12.526201076209585 0 0 0
630 1 19.169611454058547 12.779011120970372 14.175149636323015 0 0 0
367 1 12.22579687702353 10.397639071624146 8.873382044451592 0 0 0
366 1 12.393548231097968 12.701449474658183 6.900905241204781 0 0 0
239 1 12.351463635934573 10.879707424272807 5.5959699658066455 0 0 0
244 1 14.07021211659327 12.426355362006765 5.284571403095756 0 0 0
369 1 14.423984181375294 10.27066614698932 7.3398982256352845 0 0 0
372 1 14.189779956172638 12.260699765027631 8.639618425748514 0 0 0
370 1 16.036948689700992 12.376681913231968 7.257269643258372 0 0 0
371 1 16.033686202264484 10.51926214614188 8.953600511611109 0 0 0
243 1 15.644216901210028 10.365779107321194 5.195628203053811 0 0 0
269 1 10.687349623021694 0.24471453367802537 7.337533609854822 0 0 0
37 1 3.5188879184038404 3.4385653675676853 0.1797946032532231 0 0 0
503 1 19.444209134159713 10.807741124615035 12.41920397759021 0 0 0
504 1 17.708661001159548 12.566311929811585 12.30559899411023 0 0 0
247 1 19.013605911037764 10.526104731618181 5.130578246317991 0 0 0
248 1 17.635686957816908 12.193788245985361 5.275368200448155 0 0 0
373 1 17.607392966662587 10.492979034144161 6.888277485121471 0 0 0
374 1 19.0519908774448 12.604864563983796 7.066731062068853 0 0 0
376 1 17.578776963044717 12.616364921394714 8.90892529904762 0 0 0
375 1 19.595228525208583 10.826694019524755 8.887126295424764 0 0 0
1175 1 19.146705406067937 13.988542766833637 5.255050205074635 0 0 0
252 1 20.836890650829496 12.22305690971982 5.267778074585207 0 0 0
380 1 20.983268750224198 12.458499716956124 8.710558341458857 0 0 0
251 1 23.019674768659577 10.917625566904576 5.506783932600639 0 0 0
379 1 22.845079239263768 10.413205934155226 8.688530480891403 0 0 0
377 1 21.08324126885988 10.634639069013954 7.149223822285549 0 0 0
378 1 23.08955235281543 12.86996632605012 6.805580014947961 0 0 0
69 1 3.73219972455912 7.308906861637909 0.1314823676143006 0 0 0
3 1 1.5569849768448119 0.2831547729787479 2.0937621974142973 0 0 0
356 1 28.131624764787524 12.433065226736714 8.979351919809629 -1 0 0
256 1 25.162531277852928 12.625991113591011 5.2998285436736605 0 0 0
381 1 24.719928023800527 10.67898652188918 7.078872226932121 0 0 0
255 1 26.59627259833656 10.718890038280323 5.255268344153357 0 0 0
384 1 24.60443578780999 12.332082960790014 8.536001923058114 0 0 0
383 1 26.1389557812235 10.607246842955757 8.750759117390176 0 0 0
382 1 26.72408403666809 12.526251403038701 7.316673213484302 0 0 0
1051 1 22.746377164864562 14.122298927043339 1.909247196643307 0 0 0
1425 1 14.028207286914062 13.871865343695939 10.480517492178125 0 0 0
386 1 1.576823262298988 1.6176492498222967 10.900598587813317 0 0 0
419 1 2.106596473018597 3.6879749978299325 12.509420501436932 0 0 0
392 1 3.36968545416015 1.6703393283083052 12.569962752668097 0 0 0
421 1 3.625981641424544 3.4440083431544815 10.61707924444974 0 0 0
388 1 0.10116544376879233 1.8693264893655854 12.631986446358482 0 0 0
417 1 28.089032770409005 3.779629492657608 10.501762573449925 -1 0 0
390 1 4.920405458714391 1.715283637343991 10.836182285101176 0 0 0
396 1 7.181214899004987 1.742604961874993 12.60597183116867 0 0 0
423 1 5.404744529632292 3.655240988665436 12.549599167564704 0 0 0
425 1 7.289417213549366 3.3109557546089516 10.664325087267361 0 0 0
1421 1 10.431656896419641 14.026294327084223 10.45786952593316 0 0 0
501 1 17.78934682181545 10.616205992445627 10.607702393821123 0 0 0
105 1 6.9327739687781715 10.602940663637128 0.1506358387215666 0 0 0
299 1 8.957599159034606 3.164276926522195 8.842544582708578 0 0 0
394 1 8.941910866595608 1.7494917737009843 10.78525597334121 0 0 0
400 1 10.403759481052456 1.7365469512885572 13.103900608242004 0 0 0
427 1 8.907658728777456 3.8141300311828026 12.582018379573684 0 0 0
429 1 10.668547921135538 3.160345657370272 11.259654144000498 0 0 0
1409 1 28.25160520004568 14.160931624414946 10.574909934451231 -1 0 0
431 1 12.58107486641764 3.442188635028217 12.774192832761159 0 0 0
398 1 12.387518619549809 2.093429817056582 10.540600782339405 0 0 0
404 1 14.08882925693277 1.9307082971638705 12.791041544021878 0 0 0
433 1 14.36666506261224 3.9930290820766947 10.95293285589726 0 0 0
402 1 15.75111284184373 2.137004877978601 10.998510077049657 0 0 0
435 1 15.916802520789401 3.7035377970037717 12.675063079202864 0 0 0
82 1 15.752078792137805 8.689788017341519 0.17324206210481805 0 0 0
500 1 14.168782564417905 12.195821126421418 11.743096924154612 0 0 0
406 1 19.52503417601698 1.9688893401654346 10.863290921349838 0 0 0
408 1 17.789452725234213 1.7731067150959394 12.697558655909456 0 0 0
437 1 17.769346743962096 3.285554500287746 11.058394015887451 0 0 0
439 1 19.43386040886284 4.024749455608506 12.780891556805749 0 0 0
493 1 10.74944847596056 10.459588357210553 10.460908593414297 0 0 0
410 1 23.598948854721066 1.769235422590349 10.556637264862434 0 0 0
412 1 21.41783114743918 1.7869940479953235 12.479626036685513 0 0 0
441 1 21.41138760815314 3.3266632882742817 10.680350570833136 0 0 0
443 1 23.150027094863304 3.5834260809586307 12.639017645634238 0 0 0
502 1 19.134153799354188 12.435747993224957 10.34593555516359 0 0 0
50 1 15.675058896475342 4.801407421093432 0.38187395314814077 0 0 0
1295 1 12.568479823634311 14.099016267787428 8.897359000305467 0 0 0
416 1 24.912048118565075 1.7337931291275344 12.528907082690282 0 0 0
1433 1 20.721828833943704 13.889862930510773 10.429203521581751 0 0 0
445 1 25.207237525547434 3.630571614387039 10.805203730275624 0 0 0
414 1 26.628896830269568 1.8610644502805835 10.540349462579009 0 0 0
447 1 26.808544082037265 3.796294724304486 12.37647826089652 0 0 0
499 1 15.863389147884863 10.655010597999446 12.177332756832298 0 0 0
495 1 12.481624005107264 10.465895100313663 12.250182968676464 0 0 0
1427 1 15.656876755660587 13.967777797440469 12.08062131359809 0 0 0
496 1 10.793214152202795 12.15011545761651 11.879402010444453 0 0 0
418 1 1.9456079298952664 5.407763181756079 10.509865240258652 0 0 0
451 1 1.7473346419084694 7.4041644899180925 12.387137922460232 0 0 0
453 1 3.4226327062407464 7.283891862588286 10.518675762902587 0 0 0
450 1 1.808578751581613 9.2587027207607 10.442689382103941 0 0 0
456 1 3.4948805877992415 8.84481269487962 12.168485168247157 0 0 0
424 1 3.4032646478657687 5.562915135006346 12.261417268305959 0 0 0
420 1 0.19258073640705903 5.372953801844512 12.555983511073752 0 0 0
277 1 17.65730593714708 0.10996557343811308 7.41957432785498 0 0 0
454 1 5.6680073455914295 8.86420808872682 10.399761950896439 0 0 0
422 1 5.090682902996428 5.075837264336056 10.731034331008624 0 0 0
428 1 7.150886394689484 5.401611747392177 12.315845791860506 0 0 0
455 1 5.209630573930564 7.050961868643191 11.866142456484802 0 0 0
457 1 7.252237172324515 6.888286976596662 10.701031406325596 0 0 0
460 1 7.408818501224551 8.796324486106215 12.184266270822418 0 0 0
458 1 8.977577646691074 8.533115822369254 10.339479993170896 0 0 0
464 1 10.682737172214065 8.777409453221887 12.67044677795687 0 0 0
459 1 8.994896405155183 7.081166050651618 12.343439504980733 0 0 0
426 1 9.259033329045437 4.960549148234846 10.827233325346214 0 0 0
432 1 11.005658287103417 5.290759607215576 13.021707286268812 0 0 0
461 1 10.957596292532589 6.834397016510584 10.518873043205739 0 0 0
463 1 12.533652524085058 7.2514646643966465 12.500124008399892 0 0 0
462 1 12.27109626721375 8.608578163341729 10.40770234451385 0 0 0
430 1 12.16275972667071 4.985112872477661 10.855206056043645 0 0 0
436 1 14.132102316720779 5.404372728605895 12.436399400629588 0 0 0
468 1 14.386680508871065 8.758276516591701 12.533671536800782 0 0 0
465 1 14.198274119635279 6.860086050872568 10.510527865032229 0 0 0
434 1 16.326296549700025 5.357762853579625 10.686161289665634 0 0 0
570 1 23.00904691632526 5.847726950174797 14.05876280541158 0 0 0
1285 1 3.591517427553752 13.816493553467891 7.192309311090383 0 0 0
573 1 24.684919019085925 4.126060219541536 14.158210176739683 0 0 0
1159 1 5.617058711682299 14.037934486253068 5.832468617803359 0 0 0
494 1 12.190532568076677 12.168303929596993 10.249876558050936 0 0 0
466 1 16.001567142369858 8.905665792870673 10.442315690974493 0 0 0
467 1 15.990370461563604 7.0992162023882415 12.149190559402035 0 0 0