LAMMPS data file via write_data, version 29 Oct 2020, timestep = 300000

2048 atoms
1 atom types

-0.16915826674034662 28.521158266738542 xlo xhi
-0.16915826674034662 28.521158266738542 ylo yhi
-0.16915826674034662 28.521158266738542 zlo zhi

Masses

1 58.933

Atoms # atomic

1545 1 2.803954725602212 2.8639031801612567 0.49299433865447306 1 0 0
957 1 0.8200683971403931 1.0455346752111823 3.6831695344504856 2 1 1
1089 1 2.1499791111338777 2.6930843763686334 3.139666846275374 1 1 1
1074 1 0.43709870708163967 4.575723947335241 0.12263961623579528 1 2 2
736 1 3.2653450010084915 0.9815843755107012 1.922356003148232 1 0 0
1753 1 -0.03648447807753338 2.963007908236801 2.068431515171199 0 1 2
577 1 0.11795585530379588 3.138087226024768 4.33221504460179 1 0 2
1633 1 2.8058401465864 0.34490738393821674 4.2977426359133215 -1 1 1
264 1 2.3161281218787724 0.26236055442835704 0.10652324074202824 0 0 2
436 1 0.4428611902955668 1.9002280074664188 0.18006698254216502 0 -1 -1
1179 1 4.954184284551115 2.7183117152491016 2.4657952965250614 0 1 0
1198 1 6.618126372451877 4.37187813808259 2.8050918117460637 0 1 1
1113 1 6.541298765875285 1.4337242889348503 2.2419286916760535 0 1 -1
1486 1 5.241294511451499 1.4245220704929051 0.4275390836139945 2 1 0
1165 1 4.892698975569521 0.0887453019729913 3.4003545122432133 -1 1 -1
1115 1 7.97516442466476 3.0197289183226856 1.586144011317662 -1 0 2
970 1 5.785587678073434 3.5038021866990263 0.34759808869930053 1 -1 2
1280 1 4.546320807803241 2.322189044046758 4.457528253231619 2 1 0
1601 1 7.335732686072041 2.55866609979275 4.228099913612092 -2 0 0
1874 1 11.967864714634768 4.1769217429869245 0.7553912865466701 1 1 2
1660 1 10.353030903534526 2.93531605991314 2.4113892015201976 0 0 1
342 1 8.756370489770564 0.8127212550042524 1.9357385520149224 1 1 0
1774 1 10.854467681698829 0.33009764784961576 2.59837974116512 -1 0 0
181 1 11.660760894516336 1.8951769064687247 0.4476694007484294 0 1 0
2013 1 8.943253833688106 4.089883336660544 3.770980251233392 0 1 0
1717 1 9.71295441255876 2.636413155765924 0.4124679070317121 0 1 1
405 1 9.321957609362936 1.2398791299508356 4.238736199940352 0 0 1
1317 1 12.712903101313856 2.8092488933716635 3.645153778276653 -1 0 0
708 1 14.159802148576151 3.1561576832006373 1.672333864842105 0 0 0
799 1 16.145203948954304 3.7693596942606584 3.7273695787607415 -2 0 0
1619 1 15.605492979708663 0.5040063712616214 2.0144936124777715 0 1 0
1266 1 14.76418259673632 1.7065431280500443 3.9546715408849487 -1 1 0
1930 1 16.07625774836653 2.6987518845056244 0.49832786195739776 -1 1 0
8 1 13.277833884561005 1.0274956956551935 2.0274240126168444 0 2 -1
121 1 17.32132636520384 1.771975612248218 2.655708918875452 -1 0 0
242 1 19.102996810739754 2.410606670153328 1.2988131989824523 -1 0 1
1611 1 18.584399911646663 3.901271147314344 3.4714344500620786 1 0 0
2000 1 17.506854054394662 0.8723519660319343 0.6706336258932731 -1 2 3
1829 1 19.074769604879634 0.33542320485649524 2.753365497792311 0 1 1
632 1 16.24024700021594 0.43491235846454823 4.311544540032522 1 2 0
231 1 20.912259897458355 2.0668190841915437 3.109381444716015 -1 2 -1
807 1 20.81142835367358 0.8784598514727961 0.9209736107075945 1 -2 0
733 1 22.84493595272817 1.245258042435595 2.6483387294098324 -1 2 0
416 1 20.611064999987097 4.126034098218812 2.220601521506541 0 0 1
1765 1 22.395805898197462 3.670143875363624 1.0319320461593025 0 3 1
34 1 22.92250649769505 3.3396078983105073 3.397061285060936 0 0 1
1050 1 23.34366222796998 0.7698467612746853 0.11524538616566687 1 0 0
279 1 25.50045999661947 0.30671055599864805 2.981963136057126 -1 0 2
124 1 27.015834149584787 3.1086133102958033 0.8347667241856516 1 -1 1
747 1 24.682310308429997 2.7371584669677542 1.4889041581871463 -2 1 1
1923 1 26.438977239690107 3.5913719285237446 2.9649728279706697 0 -1 1
1139 1 27.544711473351526 0.8703500026105657 2.1065281077243223 0 -1 1
313 1 25.632298455477823 0.6978883147335609 0.4362294678560278 -1 0 0
80 1 27.103633107932524 1.8093382519695316 4.187880937009425 0 1 0
1164 1 24.511351443208927 2.0485489152470056 4.252450727792557 -1 1 0
1448 1 2.14617051409283 4.712789632642363 2.156290486483699 1 1 -1
1222 1 0.9014167807787699 6.654460966999073 1.1715904904272658 0 1 -2
813 1 0.7946207447023902 6.246025090835118 3.3120789860791704 1 0 0
1821 1 2.7618451760818514 7.652318112324441 0.5082167559079661 -1 1 1
127 1 2.333971681217748 5.065720161694292 4.492142450828851 0 1 -1
1593 1 2.9566788693177903 7.244222933501412 3.114174844515014 1 0 1
1322 1 1.5251263831425474 9.221335752032536 3.2645573103246437 0 0 0
757 1 4.510000973479991 9.208969959433349 1.6670959616189718 2 0 1
39 1 4.923732728311233 7.165443697505055 0.1415836539376391 1 3 -1
1677 1 4.118146631465394 5.233870578267108 1.0890771252365556 1 0 1
815 1 6.608025900721547 5.811277694387688 0.9183469487747766 -1 0 0
941 1 6.755134206664778 8.3710464361988 2.0879919201990553 0 0 0
1238 1 4.574767768725478 9.244062401001809 4.283737368064786 2 1 0
1926 1 5.316741505288895 6.646131176945587 2.7495101509992335 -2 1 0
1558 1 6.893598503508494 8.636366895518702 4.265210336513921 -1 -1 -1
648 1 7.36621056097293 6.22280130191067 4.3693804601818025 -1 0 1
1248 1 4.666593313868407 4.720528416207141 4.1513306994125605 2 2 0
790 1 11.392968045197318 4.6420474889817545 3.5159630911914754 1 -1 2
345 1 9.077095891848067 5.876105357994597 2.170594764162608 0 0 0
516 1 11.460768862324331 8.56770796673592 3.62567589540568 1 -3 2
1650 1 10.16088518567887 6.360200758968751 3.9979142976377533 0 2 1
1969 1 9.785430597477587 4.84980743278817 0.12574923228519141 0 1 1
1734 1 8.983751276489821 7.9623890695133 3.1462848656586195 1 2 1
1628 1 10.828029783678442 8.669449253076577 1.38258401535279 -2 0 0
2030 1 11.568249069580238 6.370342172483933 1.7321529706645988 1 1 1
390 1 8.865302919234622 9.329699121972626 -0.07668022060959133 0 1 0
1252 1 8.838508128764563 6.9295949105455685 0.6122242203359772 0 0 -1
1590 1 13.851664620954537 5.1946744448813105 0.6417526371932865 0 1 0
232 1 13.781180467335398 5.130467087010336 2.8633729873401723 1 3 1
923 1 13.51355204518273 8.607937436591392 4.434720787844121 0 -1 1
1839 1 15.699253076749443 7.174891694585523 1.0882804287857264 0 0 0
536 1 12.573279099919652 6.565730965452249 4.158316767537689 0 1 0
1865 1 13.545888161286422 7.60740999911636 2.3600824586262057 -1 0 1
1383 1 15.312146430453364 5.822515516088786 4.590730402840738 2 1 0
1010 1 16.03354869938298 7.7868590925970755 3.5085495118414247 0 0 2
480 1 12.95612536790851 7.474564011074841 0.1446459261203189 1 -1 0
995 1 19.611356118268077 6.001825369454307 3.7958433192869037 1 0 2
1600 1 18.626300335837758 4.883823489835117 1.3048291521084838 0 1 1
1657 1 17.13766082732705 5.85529837815676 2.8609313216657375 0 1 0
897 1 20.254139663246352 6.7744386866415764 1.5815640503105108 0 -1 2
270 1 16.398034088229284 4.827258121242515 0.971704845732251 1 -2 1
57 1 20.263031454950788 8.331585932822316 3.113835571494949 0 -1 0
98 1 18.305990805714952 7.392946108864725 0.1975932681945059 1 0 1
884 1 20.104119695708167 8.793636515310489 0.22088829455320452 1 1 2
1981 1 18.11714242980869 7.587450904730743 2.2293794667073694 0 1 0
1605 1 17.0475598153723 9.34799658533715 0.19022120193971032 -2 0 1
1445 1 23.592431712413717 5.95353683803938 0.10450849921976735 0 1 2
94 1 22.689445792179022 5.7865049267925635 2.3377818019814036 0 0 0
1746 1 21.949933216762542 7.362165904250966 4.211673179232166 0 0 1
391 1 22.044122777159178 7.792004630452847 0.07522642302866 0 -1 0
361 1 23.773279572040792 7.751580195793349 1.7477033428858308 0 0 2
1517 1 24.28439203999218 6.6952891715464755 3.8596491538384887 1 1 -1
788 1 21.41321312236108 5.568700236840999 0.028512462986778786 1 -1 1
1166 1 28.138313616896568 8.181098976703295 1.939435436000795 0 2 0
602 1 27.823059088289348 5.296795965442114 2.3931085366008995 0 1 2
690 1 25.6719520462161 8.72487737560188 3.436804909686269 -3 -1 0
1503 1 25.83105355427714 6.6847046007148165 1.9485862623551728 1 2 1
1506 1 27.003886941209416 5.824955145647607 4.104476291882206 -1 2 1
766 1 24.56031292074441 4.831634356784321 2.0569340397499913 0 0 0
539 1 26.301451924494984 8.738614082545563 1.207786083724926 0 0 2
1175 1 24.664016016216408 4.736174987561857 4.3865814699031 0 1 0
1582 1 28.015501218907566 7.765535709332833 4.257768400705923 -1 0 1
1287 1 25.232905574011536 4.712230449238693 -0.05565723504809128 -1 0 0
1184 1 27.29270037630752 6.160008710252434 0.035830052580038796 -1 0 0
1221 1 0.7069561537163644 10.785381265258433 2.143984710758026 1 1 -1
666 1 2.1963433627537006 11.737145445111613 4.049741454658471 1 1 0
1388 1 0.6774774306255574 13.42996477728772 1.7627704216334346 -1 0 -1
937 1 2.932709938757943 12.852749302911093 2.345226352097228 0 -2 2
1547 1 2.6156022525511453 9.967695962544113 1.4854000778587293 1 2 0
250 1 0.36170169985883416 9.837536506379852 0.2215223374397745 2 0 0
1236 1 1.263004184881524 13.731282031249965 4.000989371127732 1 1 -1
1375 1 1.9608523226006227 11.644094717220653 -0.032032109499329664 0 0 -2
1137 1 4.68485638484486 14.039074332211598 1.395758505924099 1 0 -1
587 1 4.3805641364949865 11.292830377748475 3.6039250710466133 2 0 0
962 1 6.118907636217826 11.25832426335516 1.7338665388046413 -1 0 2
606 1 8.023742609022728 10.106630661065752 1.8468517502200146 2 -2 0
603 1 6.935448182509533 13.099804419825336 0.7525073142511283 1 -2 0
1171 1 6.356606463728792 10.538472695069817 3.7313624705032953 0 -2 -2
1684 1 4.1969883283067935 13.980428639791324 4.149398860795888 0 3 1
1702 1 5.956036980198157 12.865795378035715 3.093050645183082 0 2 0
1121 1 4.171439208759858 11.703712751977326 0.6680878151858378 1 1 0
180 1 9.03801618034363 11.841370981065293 1.0549215069610203 1 -2 0
952 1 8.512016104983084 12.605816496702339 3.1862963207602704 3 -2 2
676 1 11.307383486391982 13.265731023103262 0.5756917505914948 -1 1 0
475 1 10.373515676637027 10.879351017082119 3.1892130802786482 0 0 0
849 1 10.810102387833734 13.707079292210668 2.7442415191500897 1 0 0
2024 1 10.865442576206357 10.84588484560713 1.0790429324825555 0 1 0
1846 1 8.316002634996993 10.429153827277867 4.578312958813645 1 1 1
1218 1 14.553110037999927 9.622948605130766 2.799237984780742 1 2 0
1142 1 12.434478167506951 11.52061585904975 2.630153757376969 0 1 0
311 1 14.26286670174528 12.190156509902376 3.237107186947087 0 0 1
1176 1 13.96074749805058 13.098726797066965 1.0776234663891238 0 -1 1
591 1 16.133373751124335 13.682109165510608 2.306011874392109 -1 0 1
309 1 15.038124843977396 11.347496938366627 1.1265685028828545 -1 0 -1
268 1 13.328482614449925 9.984680570195053 0.8269478712613674 -2 1 0
1490 1 16.82376947592286 9.606648442423898 2.9093429948554004 0 2 2
887 1 18.991303809972415 10.474777765229591 1.758647615673809 2 2 1
1402 1 17.337528234910664 11.952881619726119 2.6840103435062113 2 0 0
1372 1 16.959002113614773 11.882354189212965 0.3393636390090592 0 1 0
146 1 18.07199554929522 13.692683399935985 1.0681723913598344 1 0 0
669 1 19.5866852418434 12.561098306891898 2.7842231800048474 0 0 2
1399 1 16.377725857729484 12.81768906917371 4.5865073489602795 1 0 -1
237 1 19.372867693799936 10.611959810949067 4.0630422893463 0 1 0
1426 1 23.14242190702645 9.652415032492085 2.8324025863163143 0 1 1
1837 1 23.349462892744064 9.58349575254363 0.1339316442939515 -1 -1 0
601 1 21.480889442820622 12.460416425839503 0.8278275288141596 1 -2 1
2016 1 21.289222710753613 10.370935869495339 2.1287294954390834 -1 1 0
1518 1 21.919759065304156 12.424981031620524 3.0706106392770067 -1 0 0
1444 1 23.87996575119518 13.44172351932085 2.6493200608838916 0 0 -1
816 1 23.590253449027365 11.609421489445223 1.4574304382206897 1 0 1
1735 1 23.959041981773694 11.291883099153603 4.3304957246537565 0 1 0
1219 1 23.93680098879601 13.688454973765905 0.12193227871365414 0 0 -1
1855 1 26.96659665142964 14.023257660766431 2.698078227306503 1 0 1
256 1 25.706335565600938 12.776808598340622 1.2384846112383023 0 1 1
319 1 27.602820402618548 9.956483127113483 2.9694976570738962 -1 0 0
930 1 27.398766352254395 13.766861456529352 0.26169540740731995 -2 0 1
1446 1 25.849982448473593 11.257373221621313 2.6064473044595857 0 1 0
1108 1 27.876148814661846 12.39901958438621 3.6813441343300974 -1 1 0
841 1 25.998771665225377 10.481958435339848 0.03340123253818064 -1 0 0
87 1 27.664123030160212 11.666827393973822 1.0750238565294508 1 1 -1
1686 1 25.168322198854455 14.101715032766158 4.196882878056503 0 0 1
1569 1 2.3190435960818725 0.686519388006406 8.364687320847944 -1 -1 0
370 1 3.3611008381369456 1.226986823982192 6.1834443257430625 -1 0 -1
490 1 -0.014121008893702852 0.4200629330843654 8.571559569723307 0 1 0
1649 1 1.5022913931367383 1.9164509221338624 5.764815366462922 2 1 0
906 1 3.380034307416165 3.4873302020975117 5.5291243850960345 1 1 2
967 1 0.3620145303050528 4.454090462605683 5.803881986417892 -1 1 1
1786 1 0.10068201537502314 2.857655392011575 7.949633173440876 1 1 1
459 1 2.394579794403946 3.068475910301929 7.559490044611302 1 0 2
478 1 1.1489625833640402 4.449102624838999 9.228787326656036 -1 0 1
1919 1 3.395599525765348 4.45332362218029 8.880186884978748 0 0 1
1816 1 7.343786498937015 0.31539229277049935 4.615774912192833 0 2 0
488 1 5.645768558450583 3.3537312000971387 8.557467690845812 -1 1 0
302 1 6.293798889496167 3.8595552909428985 5.384887708122805 1 0 0
152 1 4.157906966150818 2.009527414477745 8.094223814982714 2 0 -1
1110 1 6.632621483512805 0.7271841530403513 8.641348446223247 -2 0 0
1304 1 5.840958982276654 1.5880537752020172 6.003641320627225 1 0 0
607 1 7.631714449872393 3.13940576151891 7.711841930142608 0 1 0
997 1 8.247480933849078 1.6972198178535893 6.268586808339626 -1 2 0
1396 1 10.478132790973852 0.5240716320196531 6.293602268601317 0 1 1
365 1 9.064749986407023 3.708556231415359 6.008095554804701 1 1 0
433 1 11.041251411512333 2.4903964122790065 5.405887952251893 0 -1 -1
871 1 9.831475734925858 3.8961487561334938 8.136376369363914 0 -1 0
1182 1 11.019414425562085 2.046019797909003 8.047330403355353 0 0 -1
1131 1 8.846047525055257 1.7673128723327483 9.289448545584616 -1 2 0
1395 1 11.27125489795268 -0.0295229702699292 9.360772371951988 0 0 0
1106 1 14.952130713693228 -0.12482638171118962 5.999880614903668 2 1 0
1233 1 13.329759689556731 0.9850175098751957 7.864989078869176 -1 2 0
473 1 13.802182456433655 2.3673536262715076 5.926094794660689 1 -1 1
683 1 15.640225760018888 -0.06029965359806051 8.160230718463787 -1 2 0
511 1 12.331146797305472 3.789331824052869 7.794882219293303 -1 0 0
1512 1 15.476818210664145 4.041916135370003 6.130875838818843 0 2 0
645 1 14.568135011010904 2.988184298234143 8.375683465208525 0 1 1
879 1 12.386196901765382 0.3504178494982516 4.673790025391075 0 0 1
144 1 16.884508789841124 1.3056754656347385 6.62508077725707 0 0 2
1439 1 16.676606295717065 2.913102960971479 8.198229222678608 0 1 0
1884 1 19.460226251006656 0.32464955356735986 7.462978337241521 1 1 -1
704 1 18.547595963544563 1.342312256715654 4.72251858272069 0 1 1
1999 1 17.767363729202913 3.531423605509939 6.201047910790656 -1 2 3
1418 1 19.006590322956733 2.2644458793750726 8.607871959982576 0 2 0
367 1 19.332597141819296 4.339939983640961 7.924740539504699 -1 -1 0
1498 1 22.425990623150696 0.0734478705277084 7.333993280821 0 1 0
1325 1 20.681398805974478 4.261376345889851 4.728753743752144 1 0 1
1377 1 22.222643374801706 1.042327332342082 4.8508915228972755 -2 1 0
1172 1 20.338369756313533 2.187907452398998 5.780334667793823 -1 2 0
1986 1 21.223793397566457 3.767615366074997 9.21085224100964 -2 1 0
1953 1 21.211689499000435 1.7663682771708162 8.071019054041761 0 0 1
1472 1 22.517977874948755 2.9368495023968952 5.847956488755275 0 0 1
1379 1 23.41196487022244 4.535008371226881 7.368286974996952 -1 1 -1
908 1 21.07565600326906 4.382745075029773 6.911947484527073 0 0 0
793 1 23.795219166539983 1.615155318784549 8.274226894995591 -1 -1 0
674 1 26.32166355051676 1.5923214140887512 7.292465769043653 -1 0 1
33 1 24.631975400412337 3.3025240180193545 6.286305294363294 -2 -1 0
76 1 24.799087929326905 0.27043353259702047 5.79141828267283 -1 1 -1
1148 1 28.151785452372348 1.9899487787666148 6.1389113279513925 0 -1 0
1295 1 26.796442957992117 3.628086608682769 5.67143023933217 0 3 0
48 1 25.766791417270664 3.529799300459853 8.328913866936219 -1 0 -1
1045 1 26.71796815346922 1.09188117227017 9.373219806878037 0 1 0
1469 1 3.700731431130271 6.823847776432104 5.0533502432516215 1 0 -1
1602 1 1.6953426385163135 7.946653981507227 5.263572231635252 1 -1 -1
1791 1 0.9434669694570013 7.743860110500922 7.907558129064052 1 0 -2
143 1 2.2361839637233905 5.725054622086331 7.1668254592612035 0 2 -1
267 1 3.1169296688959545 7.245867287101981 8.868262105176264 1 -3 -2
284 1 2.567190823215125 9.191359436822568 8.3925983813707 2 -1 0
435 1 4.0635639438844615 8.268948810946572 6.859805870167097 -1 0 0
204 1 4.462276221881308 4.924774384716043 6.793718313121387 -1 0 -1
108 1 5.665943169759918 6.88021401186931 5.944885125856587 0 0 -2
1743 1 7.3689965486907125 7.87324118372435 7.14682205411791 1 0 0
574 1 5.37064130477949 6.413526679944721 8.287687061103451 0 0 0
981 1 7.759148917502584 5.293104401661039 6.521900641574094 2 0 -1
814 1 7.37069249566575 6.18286014241753 8.867938474821226 -1 1 -1
415 1 5.410432203590495 8.691814266715603 8.865463357921172 0 -1 0
327 1 11.388967020652842 7.689998726241536 5.62229131384462 0 1 1
1269 1 11.151505597075209 5.138325727807482 6.230625668923449 1 0 1
1927 1 8.984523401085168 7.956899311709215 5.6230744676301 -1 1 1
901 1 9.754785226188762 6.371489614758382 7.412845268915777 0 -1 0
1970 1 11.306986361866564 9.101427767720455 7.578857089928177 2 1 1
350 1 8.993348041916583 8.378149794431833 8.363299530531267 1 -1 0
889 1 11.982331649900518 5.975309286127878 8.486160169190136 0 0 -2
1812 1 13.469674271940098 4.863820590806448 5.702468193433749 0 2 0
1040 1 14.206729535046971 5.323391749554675 7.67479927832158 0 2 0
1226 1 13.567691801308339 7.415351058481123 6.756060117947112 0 3 0
1341 1 14.921901906342608 9.234843547815203 7.141815437287243 3 -1 0
600 1 15.111300250256688 7.330219736588981 8.615498078920696 1 0 0
219 1 17.796047330555798 5.481325006852428 5.1074512654016075 -1 0 -1
63 1 16.44289549146221 7.071267801693132 6.519191463982706 0 -1 0
362 1 16.938282735075223 8.970171858343253 5.398946491651998 0 0 2
1709 1 17.337034981504416 8.141374551065018 8.27685277353386 -1 1 0
1159 1 18.759233512266388 6.254131946204813 7.018716198796107 -2 1 0
582 1 18.311480958054375 7.547990727342114 5.015278031009443 0 0 2
2020 1 19.642139320202542 6.5569906585190525 9.287947796129284 -1 2 0
1939 1 19.23481152546611 8.852205971344512 6.578120492008792 0 1 1
636 1 16.859435514906522 5.170518707386359 7.609384373856044 -1 1 0
26 1 20.659310561012937 6.650773747105451 5.944654711781745 0 0 -1
30 1 21.668403853248076 6.218115430214209 7.980945361178717 0 -2 1
32 1 22.555198920241196 5.305243809619779 5.147888738703626 0 -1 -1
702 1 23.997578288108873 6.871162920533082 6.3958495890688996 0 -2 2
563 1 23.963386727004206 6.396032757298479 9.031042547408553 -1 0 1
308 1 22.232976717290782 8.181436533203826 6.71358954878058 -1 0 0
1583 1 21.035948176519824 8.382288130914931 8.691517919645628 -3 0 0
338 1 23.52522069353044 8.740720821978075 8.344714283946255 -1 -1 0
1037 1 23.807347465415198 8.650557069151285 4.836097058335403 1 2 1
1659 1 28.40151264196051 6.6378599198518025 6.2402782332882225 -1 2 0
1678 1 28.32251651103521 5.313510792975187 8.223329269196016 1 3 -1
29 1 26.12694122747259 7.622563261914439 5.1275451196466495 -1 -1 -1
1780 1 26.199905688336433 7.281836926482362 7.630798670965194 -1 -1 1
825 1 27.861522398534166 8.745481370938625 6.9506301079102215 0 -1 -1
1291 1 25.985893482722144 5.694898590346789 6.275831677643877 0 0 1
1046 1 25.60031794272022 9.13737090088998 7.099969149034063 0 0 0
1268 1 3.3923510751872454 13.052752454271081 5.875780089731023 0 1 3
202 1 0.5350427849373081 12.536864143795995 5.63878827761939 1 -1 1
593 1 2.0777226362546526 12.282434604224498 7.439805203422503 0 -2 1
1411 1 1.241886057142738 10.378620081337735 7.070225352407829 -1 0 0
452 1 3.196319651951324 10.173599663053277 5.778068552117507 -1 0 -1
1282 1 0.4107234619030734 10.006866472818473 4.773624041653664 2 2 0
875 1 1.316050964253669 13.471931500014506 9.128974139688125 1 -2 0
1827 1 4.850431436581606 13.85894040474742 7.875953558914009 1 1 1
1738 1 6.180304560512481 9.786432050672094 6.455434084536499 0 0 -1
1530 1 7.338253412326636 10.481543497214174 8.400388966161293 0 0 0
1881 1 7.665787359168134 11.742532702678453 6.244712048519287 2 -1 2
1382 1 6.404767350730841 13.90848994858798 5.249948800354346 -1 -1 -1
806 1 6.145093546089781 12.277450140289762 8.100751518966621 0 0 -1
1620 1 4.67311646536734 10.771471766910103 8.00836243584442 2 2 1
1306 1 5.246252408730135 11.723125722720065 5.550429958528348 0 1 0
852 1 11.812145145874043 13.044772359069185 4.752960350081241 0 0 2
1021 1 9.7335699525734 12.08462200460917 5.132631046836147 -1 0 1
13 1 9.051155063809265 12.624357440574869 8.164326739180671 3 -1 0
1548 1 9.098800656607992 10.299447423661928 6.950758510741978 1 -1 0
278 1 10.679136476074625 9.829330294672053 5.062853916145932 -2 0 -3
547 1 11.033915039523768 12.288135699780153 7.175334933139777 0 0 -2
1830 1 8.762857278020132 14.049751589442305 4.861002349645793 0 0 -1
519 1 12.64977789024324 11.14475613203834 5.274829070022087 -1 1 0
1847 1 15.19039803581389 10.840279868578776 5.075251821774723 0 0 1
741 1 13.553373149366848 10.735584156240881 7.489647418513862 -2 -1 1
805 1 13.357484479543075 12.776285152965896 7.186723896332342 -1 -1 0
586 1 15.769297838569875 12.830027065482621 6.579854110923249 1 0 1
1360 1 12.79047718308411 11.729468958915037 9.249590646028402 2 -1 0
862 1 15.27950080890152 11.881388522545437 9.032404307458451 0 0 0
1707 1 14.480858945881607 14.056468801430203 4.911174788452923 0 0 0
1068 1 16.499337048418482 10.144706403769646 8.53054273724633 1 1 -1
2001 1 18.914537791274302 9.514257565431699 8.822163529942188 0 2 2
819 1 16.692834150226105 14.053929563714401 8.96091318827278 0 0 1
1704 1 16.981520698887778 10.93471148710513 6.480483506192764 -1 1 1
1014 1 18.405577465912575 12.973929872623978 5.013094870337988 1 0 1
1145 1 19.24182596414403 11.345582075709173 6.544119174239519 0 0 0
1836 1 18.397391171369822 13.082941281000014 7.677418472568467 -1 2 1
323 1 19.799911916071732 11.826582507558987 8.996018645235447 0 -2 1
1967 1 23.155676490483202 13.457261179598834 5.180471667576849 -1 0 0
157 1 20.760027078280018 13.507354651617065 7.779106580567727 1 0 0
1766 1 21.73249848487566 11.523186163653852 5.60902026589467 0 1 0
97 1 21.02346238160585 10.052568064900186 7.463211213072291 -2 0 0
28 1 21.531969195844688 9.426040826837038 5.25815587842027 0 -3 0
1719 1 23.833719400983746 10.874752006730082 6.741948525606678 0 -1 0
1708 1 22.334705896370505 11.797575822402221 8.533572069941043 -1 0 -1
1333 1 23.394873726062404 13.589946742003312 7.534966341708695 1 0 1
9 1 24.41099303548052 10.681256591415288 9.225697224278644 0 -2 0
711 1 20.763161652873762 13.340791714607315 5.2867110467351335 -2 0 1
1960 1 26.19209685152417 13.578537223230763 9.369974619468566 -1 -1 1
1356 1 25.87630513966164 12.60844129768298 5.657715288357444 -2 0 -1
1961 1 27.37325465564804 14.01786061821582 5.368360711290994 -1 0 2
718 1 25.896570140711756 10.348726931902169 5.1160866845689315 -2 -2 1
500 1 27.654457253488655 10.98141839439611 6.553660566666033 -2 -1 0
595 1 28.470332041150645 11.024024039409216 8.487403934725744 -1 -1 -2
514 1 25.71732926508493 11.69639111294343 7.723760388582914 -3 -1 -1
99 1 27.928978471820393 13.427935759701422 7.786332438341438 0 0 -1
562 1 26.42229669790395 9.395848821953301 9.195548616065416 0 1 -1
960 1 3.8587755328119595 0.6731191683144718 10.205601002712894 1 0 0
1520 1 1.0598281119318946 0.06774498492014655 11.10572092304395 0 1 0
994 1 2.7585316304029153 2.7693011537246366 10.196633403547876 -1 0 1
1065 1 1.5836001483422417 4.049624201495705 11.76942125041433 -1 0 0
521 1 0.37494822439750153 0.933543522426753 13.129123215744634 0 0 0
1343 1 0.6694365554306442 2.378809033016731 10.300384324173063 1 0 0
389 1 2.7442985577277472 1.3240522558836423 12.333024837601632 0 -2 -1
1384 1 1.1625423415185678 3.055526604121479 13.862766435690066 0 1 -1
1987 1 5.162087959059027 1.1491858839335956 14.1334288511737 -1 2 1
1943 1 4.716357910448395 3.5987037333260923 10.778224778947717 0 1 2
1670 1 6.936370170086406 4.143585282096902 11.838203601099385 -1 1 -1
1682 1 5.39292379094982 2.0063718998633724 12.034621620523552 -3 0 1
1807 1 7.882949028957158 3.6248165734613824 9.799531392057018 0 2 2
980 1 6.965506571587543 1.0952054905761157 11.198624053642543 0 -1 0
763 1 7.437754561658355 2.6120762327276656 13.500269594808685 -1 0 -1
14 1 5.445179104612045 3.717065548932298 13.932187767725626 0 -1 -1
1286 1 10.536337870286438 0.5750411077943037 11.988423182426395 0 0 -1
1941 1 9.890981981276832 2.168128923750423 13.970128388146376 1 0 1
1817 1 8.760104807053674 0.1752475174843967 13.207138919509088 0 0 0
460 1 8.771372964493235 2.2413130936254198 11.612748151711708 2 1 0
998 1 10.78315599833196 2.1183976401516844 10.598753826584213 -2 0 -1
88 1 12.115774858149063 2.0498965559019755 12.773189522627352 0 0 -1
1461 1 9.353656652253585 3.9746780908726773 12.875493692637857 0 0 0
336 1 10.342444185762385 4.221628054832038 10.620868305628516 1 0 1
116 1 13.15907166216233 2.7129842952663124 9.78157538562159 1 0 1
1587 1 15.241092903810495 0.8305740059475331 10.037672808963423 1 0 0
1992 1 14.759591071688774 2.203007877761103 11.734974102260747 0 1 -1
1613 1 15.344239403656953 4.203162033885204 9.860903319405137 0 0 2
1365 1 14.22593454010142 1.17164305710963 13.830232081984366 0 2 -1
1603 1 13.27088011882758 3.870040093099445 12.41748805015876 0 1 1
102 1 12.804438402711908 0.9232458365337033 10.959043313040096 0 -1 0
386 1 16.214795467512797 2.628692365770896 13.85320767379787 -1 -1 0
834 1 18.520837936726736 -0.12061611426550503 11.314509431115013 -1 1 -2
1353 1 20.055920084460727 0.3004394883150933 9.839946091979177 0 1 1
883 1 16.282576258825724 0.7166701551952857 12.825322030322237 1 -1 0
1882 1 17.512508474625996 0.6787851271965084 9.52076902826586 0 2 1
1161 1 16.85174288060296 2.370631110947487 10.829182667321483 0 0 0
1181 1 20.168351929949722 4.363801095009084 10.941008996774016 1 0 0
621 1 18.65673915252753 1.2819375697010351 13.097724373736494 1 1 -1
584 1 18.02141857215489 3.6673653503440655 12.169481196646217 0 0 0
1920 1 19.028280744645972 2.3664869238999278 10.878525165024355 1 1 0
1044 1 22.743669864084495 -0.027379850233111236 9.43128487787596 1 1 1
111 1 20.577634028556375 1.0347917484411986 11.956698195981623 0 -1 0
809 1 20.804661957767077 2.6841162574291624 13.144564930053484 -1 -1 1
1237 1 22.616006236092304 1.3732613245978484 12.68371316666128 0 0 1
385 1 21.988268037828355 1.8652091476461745 10.306820724776374 1 1 1
780 1 22.468269709629087 4.2335791885478775 11.79178413323909 0 0 0
439 1 23.9812850640222 3.6566519324609925 9.721091507753139 0 -1 1
363 1 24.299811747349953 1.685825884379515 10.538849573619498 0 1 1
1049 1 24.316871449134283 3.436343846531947 12.442080280785813 -1 0 0
1144 1 27.40508477431115 0.9739855893517071 11.42988768036651 -2 2 -1
1675 1 25.967490052599874 2.9453023174688613 10.802531189272086 -1 2 0
808 1 27.93394484179558 3.1109169847426745 12.296088680257272 0 1 1
409 1 27.609481299636055 3.7255713638159116 10.168884818417288 -1 1 0
303 1 24.83584345484741 1.1649458280259217 13.17803843157542 0 1 0
1168 1 25.94786249147063 3.1177552368864827 14.086117475438094 1 0 0
1285 1 26.873978574996006 0.9881313602996562 14.134832431273786 -1 1 1
573 1 0.2018481961391304 7.446130978028228 13.718154230940245 1 0 1
663 1 2.3126273333964424 8.008292598273888 13.818107383357223 1 -1 0
1489 1 0.9325201272312273 9.271920836489272 9.871727965570892 0 -1 -1
1685 1 3.8852348698246075 4.6730566720464095 12.531701297098754 0 0 -1
1634 1 1.207647127810781 7.055643290212766 10.334875514331278 0 1 0
846 1 1.8959466467553563 6.085000764342641 12.736044269292364 0 0 -1
616 1 2.8017037829617726 5.441519317786882 10.77532480763925 0 2 0
1178 1 -0.015176578060234647 5.531199549493413 11.278829423019099 0 2 -1
355 1 3.4974195993563004 7.587959418780233 10.894019305103905 1 1 -1
317 1 1.8504601239396625 9.05391455965666 11.92089950423219 0 -1 1
444 1 5.944445589198418 8.24802921175413 12.037054986313517 -1 -1 -1
1851 1 4.158464310367617 6.922461342844351 13.212784472788053 0 1 1
784 1 6.27960647025306 5.942635181526448 13.210157038953993 -1 -1 1
299 1 5.419800382933983 6.302324794994058 10.769667755765218 -1 0 -2
1502 1 7.409107428804626 7.733111065886589 10.692950033361274 0 2 1
520 1 8.287328769045608 6.0594819153816 12.196823404891614 -2 -1 -1
1299 1 8.332763335443428 8.27383340265683 13.56633336351925 -1 1 0
156 1 9.142690766020785 5.9067337559389514 9.693527271151991 1 0 1
508 1 9.385923482965984 7.7427296257638085 11.484237609871299 2 0 0
2046 1 10.260688205934652 6.512214007815802 13.691951815899614 1 1 0
905 1 11.768552362302428 6.049315200058889 10.940329050517997 0 0 0
1136 1 10.937464595802858 8.033563151284792 9.870051764385192 -1 0 -1
1710 1 11.201572144983428 4.676361994762794 12.608163367128924 0 -1 -1
443 1 11.499854748377523 8.120357888622685 12.33010253821737 0 0 1
928 1 13.256006438339112 4.9511066571244475 9.944589723974048 0 2 0
193 1 13.794908647433454 7.024251088994861 10.217017539901935 -1 0 0
419 1 13.173262287466503 6.133387240732795 12.423291529671383 -1 -1 -1
935 1 15.414083919550755 4.737369887953309 12.61124903933689 -1 1 0
1971 1 15.101914271937787 7.468704622544789 12.699295383447918 0 -1 0
956 1 16.050904325837866 6.049396759240623 10.836906310874806 1 0 0
1351 1 13.528265275100535 8.712133583268384 11.910342983240128 0 1 0
1720 1 15.961293943526211 8.732470555394686 10.909489294079659 0 0 0
1245 1 13.010163924961715 9.169303872160766 9.743024179102884 1 1 -1
861 1 17.902041576966944 7.43995468615111 10.352648154281537 1 0 1
1073 1 17.265453103945855 5.742447717997163 13.46442546616445 -1 1 0