LAMMPS data file via write_data, version 29 Oct 2020, timestep = 300000

2048 atoms
1 atom types

-0.1655337712341769 28.517533771233307 xlo xhi
-0.1655337712341769 28.517533771233307 ylo yhi
-0.1655337712341769 28.517533771233307 zlo zhi

Masses

1 58.933

Atoms # atomic

15 1 0.7763715576026966 3.3752233340169346 3.283039340218138 0 0 -1
223 1 1.9204248468387242 0.1306827881621141 1.4024927866871464 0 0 0
894 1 2.574641910437565 2.652321126953111 2.0819253425688666 2 1 1
458 1 -0.04347607247578525 1.6472607660097855 2.0814969119993396 0 -1 1
1891 1 2.559201250460032 1.3872934095548206 4.241765644191166 -1 1 1
193 1 4.540127419152473 4.175725001908884 1.345898260701265 -1 0 1
300 1 5.02283038020971 3.552219722409049 3.835289162431751 0 0 -1
301 1 4.255313460096728 0.3986552263441685 2.6783197313434055 0 0 1
1215 1 6.522718635322532 2.717774661813427 0.28482315315473133 0 1 -1
1005 1 6.459529795430863 2.2048717287369146 2.5471249116804726 0 -1 1
1259 1 6.103952363040748 -0.006387586137701906 1.549092973701931 0 1 0
405 1 6.649153156284778 4.478681759933913 1.8401965380684007 0 0 0
748 1 3.982805338553839 2.1362588463657524 0.6398207447047444 0 1 0
72 1 5.344439945569703 1.017368806275153 4.597916305037525 -1 0 0
1939 1 8.814920320465221 2.2261227161264996 1.254979025869439 1 1 1
377 1 11.687353546169318 2.4171583531946803 2.9235956040557856 0 0 0
756 1 8.169179172532207 3.7050994896590765 4.245214475270792 1 0 1
2040 1 8.350544581491153 3.9822188560248275 -0.10339481343913928 0 0 0
1548 1 10.724587157379336 0.8429201824284402 1.8919574682996205 0 0 1
328 1 9.062020266732137 4.195086261588905 2.343911634488426 0 0 -1
363 1 10.453696572533671 3.4128569414789984 0.7601780030682601 0 1 1
1104 1 9.430825767682428 1.5631936463103726 3.5598802220591774 0 2 0
467 1 15.913024095503882 1.2335353595191905 1.1717371373866032 1 1 0
796 1 14.02849786563327 1.6272838578188435 3.207148419440765 0 0 -1
1724 1 12.501259531845633 4.419219913164949 3.8985921835745065 1 0 0
811 1 14.963172076371782 3.9856798330516394 2.694531850159278 0 0 1
1113 1 13.107303754770971 0.5507211888373462 1.0909692088806866 0 1 -1
863 1 15.317996529295064 4.1551049801536 0.4463479909212962 0 0 0
965 1 13.413635280625233 2.6816780771960866 1.0323390586379155 0 0 0
1276 1 17.95565461159832 3.8779788653452654 0.9554292572949128 0 1 -1
1298 1 16.83541429318178 2.4400979089176547 2.6211146432036423 0 1 2
859 1 18.5439260189666 1.0834129706108644 1.7128352197759795 0 0 0
861 1 18.8795763697593 2.787673983244845 4.146060896089444 1 0 1
537 1 19.564004428120384 0.8287558349126118 3.758983116566645 0 0 0
782 1 19.6975206229244 3.2614106931795335 1.7357183243484815 0 0 1
1446 1 20.279161116147833 0.056033957681736274 0.3336323347946226 1 1 1
679 1 20.16774266739638 4.556491167926038 4.529293100776984 -2 -1 1
22 1 21.4264194726043 2.563841957103343 4.280080268306828 -1 0 1
1055 1 22.21100098291234 4.015755309338152 0.39844030712229395 0 0 0
624 1 23.39669019103372 2.834626359896088 3.0114950079756735 -1 1 0
1317 1 23.713545687964388 2.0873195027219684 0.5688522994725849 -1 0 1
1860 1 21.7186650886212 1.8626699376690978 1.6406499920746502 -1 0 1
1735 1 22.01634649635224 0.4030432805577523 4.302000875425385 1 1 0
1362 1 23.59367974413511 0.49685189194321433 2.183302991832187 -1 1 1
162 1 26.67720243545015 0.1672456118739728 1.8688400623006682 0 -1 0
1472 1 27.33853586793722 3.6509855770987434 2.5248578757639395 0 1 1
10 1 26.133579691437177 3.645464993114671 4.3767110581723845 -1 1 0
306 1 24.499146505548396 0.9689077569876559 3.972654372628944 0 0 0
768 1 25.55003377039707 2.2356079484350904 2.1468413723867634 0 -1 0
1103 1 26.91494617291058 1.6593886039133694 3.7369506167874484 -1 0 -1
2026 1 24.682261853581743 4.19698952941924 1.1933360959366062 -1 1 1
1704 1 24.42874898540315 4.5791584921597535 3.481080766857799 -1 1 1
282 1 26.829376293812015 2.4271762913123407 0.1426838774475474 -1 0 1
1024 1 28.37460000417772 0.45966521170430075 -0.05204977794354965 1 1 1
1286 1 25.323488519973633 0.6005692422560532 0.14320509124656117 0 0 -1
160 1 2.826467180284471 4.7623059297390595 3.3637707799656837 1 -1 0
1931 1 0.1752528962066009 5.317577821241649 1.5354621981535455 1 1 1
858 1 2.2302014177113265 6.671742027225138 3.0147539134290176 0 0 0
305 1 3.9186288308543924 9.08375483178964 0.8925590831301631 1 0 -1
1807 1 0.9678859442801224 7.7349429518393 1.4790083609863185 0 1 2
258 1 3.013283251540129 7.1820366206868025 0.3938374707007871 0 0 0
1583 1 0.34975019671829044 7.262568711729087 3.907792169258193 -1 1 0
882 1 1.861191833207862 8.679308096609152 3.983138301581077 0 0 1
1427 1 2.421077733845406 4.790823708867782 1.2201136433516735 0 0 1
14 1 7.928999383885008 6.545783938650092 1.2100597359496574 1 0 0
872 1 4.982083505088682 6.147851937858647 1.2387473944110714 -1 1 1
1762 1 4.168205783251527 7.888424893449969 3.499815583859913 -1 1 -1
1910 1 4.709127871305066 5.662907098702436 3.3271531373297782 1 1 1
1937 1 7.418061088806008 7.904016330410766 3.9251671301825137 1 0 0
30 1 6.122420201367828 8.014734533202121 1.7241651716761415 1 -1 0
1938 1 6.731343358741133 5.40978476206906 4.224069706887002 1 1 0
821 1 10.02871118250036 5.872976398121304 -0.05913068981938417 0 -1 0
1605 1 11.919569418540537 6.995562328175823 0.27959876472814704 -1 1 0
1171 1 8.766791702420631 6.1058168756593 3.3505853792948983 0 -1 -1
33 1 11.067839920715732 5.861256475616671 3.0879911298971994 -1 0 0
1920 1 10.231745758043001 8.03696546894843 2.2474673996876167 1 1 0
730 1 8.45753299088732 9.293871710234084 1.780005646521621 0 0 1
134 1 11.972286568099774 8.995291860150912 4.190555909761139 -1 -1 -1
2043 1 9.98915952665999 7.66260649237714 4.54581022485733 0 0 0
294 1 9.5089827338894 8.04580312898131 0.04463221768583736 -1 0 0
360 1 12.631426613757489 4.94649547727069 1.4374777948308146 0 1 0
422 1 13.017253468178648 9.378440081110858 1.7638582638215483 0 -1 0
900 1 14.968347891735336 6.157032408214669 1.108256316070552 -1 -1 0
1566 1 14.457763275190269 5.656588606195075 4.161259325949793 -1 1 0
1681 1 13.177378046917523 6.936088461187298 2.221478278745147 1 0 0
2023 1 15.040278668418303 8.225032200094038 2.10769997201047 0 1 1
1262 1 14.074949600789674 8.118641265009625 4.400700699624262 -1 1 0
527 1 16.807334041643507 8.244230073548787 0.578117453834383 0 0 1
1829 1 16.561975627764763 5.009928175361376 4.151010441584305 0 0 1
2031 1 16.910006776675186 6.107273100511317 1.917313544741249 0 1 1
1132 1 19.76705347912108 7.585172209245236 1.1181264765419985 0 2 -1
1541 1 16.534705698322522 7.572288738721631 4.1439828595852575 0 1 0
78 1 18.715291751726546 5.156913623977001 2.7780590323168233 0 0 0
1671 1 19.989519326371205 5.447510668826425 0.5782481973436899 1 1 1
553 1 20.30801030392731 6.959208208777326 3.686916296656371 -2 0 1
1301 1 18.33616587859406 8.044960715155588 2.4936281799829816 0 0 0
1210 1 21.277255547451034 4.781166927435134 2.5750950976680733 1 0 0
1397 1 23.285541911116493 5.67758095453928 1.967504025036559 0 1 0
1460 1 22.14151043583764 6.6147069602346455 0.40984035681775943 0 1 0
724 1 23.533697288063298 8.359212310389058 0.8954437264169564 -1 -1 1
297 1 22.13665396061615 8.209206566333648 2.7330583338018295 0 0 0
1509 1 24.289245957304573 9.203512534031061 3.6656990364073843 -1 1 0
1690 1 26.443329179857212 5.422934986827217 2.313217305045287 -1 1 0
1864 1 24.760657810286858 6.870874813487693 2.9484205652542355 -1 1 1
879 1 28.23051070320245 5.296077420254954 3.95217397767117 -1 0 1
1371 1 27.125762469727114 7.443255091764297 2.114069030178973 -1 0 0
841 1 25.308988110153024 6.8364624832492344 0.668168464180786 -1 0 1
358 1 27.355727150054676 8.986012923173854 3.966111554744324 -1 0 0
1073 1 26.639837382684902 6.683433805398886 4.289891988984615 0 0 1
971 1 27.95388377195373 8.688497863065363 0.4895884281318391 -1 0 1
1771 1 27.46132166095932 4.872206050513129 -0.08346095180749558 -2 1 1
421 1 0.9937383872778769 10.14787862020916 0.00032321579306132664 1 1 0
1996 1 2.7240911165140993 11.332452514348459 0.24725480183726212 0 2 1
401 1 0.8437103709136855 11.793678238808196 1.370777343717959 0 0 0
650 1 0.2848184191175988 9.785150905801235 2.64019253590839 0 1 0
1580 1 3.284834672351417 10.499334886443602 2.459246016205647 0 0 0
323 1 0.4759941064981824 12.805674135595094 3.4212504026647523 1 -2 1
1608 1 2.8992071370066754 12.889014922140364 2.9231134989690557 -1 0 0
1753 1 1.7293019402711993 10.955169216237927 4.00281080159811 0 1 1
101 1 2.0194658939295165 13.687183563585503 0.8862616478714251 -1 -1 0
833 1 5.170491202553501 12.266444945737648 0.9741887856811526 1 0 0
761 1 6.6974285975983685 14.152017020560844 1.2526551418663816 0 -1 1
729 1 7.188004663416075 11.25118260190412 4.531390648584466 1 1 1
1019 1 5.314989052770156 12.684830896181545 3.2304808838458205 0 -1 0
340 1 6.104395205002381 9.772839021252645 3.23482362539989 1 -1 0
55 1 7.6285824273661 11.576003275641266 2.627189254351084 0 -1 0
86 1 4.083310940328222 10.24133112389719 4.3766760694237385 0 0 0
929 1 7.075343963283477 13.76502073123242 4.067704287608436 0 -1 0
1630 1 7.556157653196886 12.67241691346125 -0.11584414864177633 1 0 1
992 1 6.62399933497375 10.290353810045431 0.8645668805981799 1 0 0
158 1 9.216938039983676 11.184728681484495 1.1477283557295934 -1 -1 0
895 1 11.026623080228996 9.718539823942054 0.722963631665452 0 1 0
1241 1 11.072399336911944 13.391163378797376 0.9867902387645406 0 1 1
1540 1 10.078705701421033 10.424864617931853 3.3719729525727486 -1 -1 0
987 1 11.638652719810914 11.382412729968959 2.163750534153487 1 0 1
1105 1 10.561528083225532 12.926116854976291 3.2159047249719728 0 1 -1
836 1 8.878334175537974 13.882470324189283 1.5728054620757448 1 0 0
1820 1 13.527813591985907 12.651830168654854 2.2590548243736364 1 0 0
1559 1 15.306042439358398 11.20734696094327 1.6379065843456826 0 0 0
1028 1 13.066019050907185 12.54178842639856 4.466042385155209 0 1 1
529 1 15.683886217770057 13.272759073072708 1.2268406561003586 0 1 1
1315 1 15.099145398237845 12.047029823236842 3.890267152327631 0 -1 0
212 1 13.597740118164532 10.34630386488084 3.543379570411283 0 0 1
1335 1 13.26691342694258 13.127702065013558 0.030940965303198065 0 1 1
1712 1 19.01920224174377 10.177174637787708 1.104369337738472 -1 0 1
437 1 17.07717890178039 12.784857131930583 2.9727151449504325 1 -1 0
504 1 17.088658165668555 9.986648487386203 2.6151170639931594 0 1 0
823 1 19.69931049638315 14.086194723263285 2.5284183741149917 0 0 1
318 1 19.12360441942717 11.401024388219026 3.3049260157537605 0 0 0
1742 1 17.87540438818027 12.670211461041154 0.9080315698837109 1 -1 1
1479 1 22.837632621759056 11.896957374028085 0.7119812489170707 0 0 1
343 1 20.483137751370656 9.595982068984645 2.5944364243322386 1 2 1
802 1 23.266897302101707 10.135026575091294 2.061514387112844 -1 0 0
1576 1 21.204309849819367 9.454629100700656 0.16247175045845058 -1 0 0
1093 1 21.09006231700951 11.64869946773693 2.0426952366503413 -1 0 0
1691 1 23.589291949519424 11.470050416638959 4.214425795867639 0 0 1
1682 1 21.43058811102353 11.094083274937573 4.489928904081415 -2 0 1
148 1 22.68156169947188 13.428357392309346 3.4210946644800937 0 -1 1
662 1 20.481530186942447 11.776503206658633 -0.15362420686451728 0 -1 1
855 1 27.546785993259604 11.221366661682856 0.4615834897132617 0 0 0
530 1 27.625358168639647 13.618164319901737 1.6345767399466133 0 -1 1
357 1 26.05773872671835 9.47301698385377 1.863377920311971 -2 1 0
986 1 25.339440739570417 13.84477910088482 2.0118887632219398 0 0 1
239 1 27.23493635989947 11.596153099774298 2.649075485519475 -1 -1 0
1571 1 25.223165450276156 11.469343015647995 2.160862858233315 -2 1 1
1670 1 25.32601729495488 11.718914682859044 -0.08957055511810329 0 0 1
912 1 25.74322319674727 10.94873239013729 4.466662172199249 0 0 1
762 1 25.022777829372785 13.281909553082196 4.1918210597267285 0 0 1
734 1 2.6408703232521376 3.4232033078931234 5.447796413567559 1 1 0
1327 1 0.876233327190741 0.4104367448472571 5.966768008169286 1 1 2
1572 1 3.0337051763767984 0.22660588215118938 7.745445960493037 2 1 0
689 1 1.4780370276486385 2.489589665578078 7.102810497719261 0 0 0
1874 1 1.2108408382838485 3.7182062917670264 9.255053336643025 1 1 1
1258 1 3.2820759790344782 2.7718475232342517 8.3692205019626 1 1 0
1568 1 0.32973065031660975 2.2945955112926693 5.021781060682694 0 0 1
994 1 1.0170278064180787 1.3005699881269057 9.289177344485633 -1 -1 1
721 1 5.372477594061668 0.07824298430277754 8.053317423914983 0 1 -1
374 1 5.549820777128951 2.3958091326331252 8.946599279376908 1 2 -1
682 1 4.227792876912123 1.8734721972059165 6.336563236268065 -1 0 0
110 1 6.564764588572057 2.607862901391681 5.707786594590047 0 0 -1
2006 1 7.699968882329258 0.4094344677227092 5.670958757321209 1 0 0
246 1 7.318726747722301 3.4150258848981436 7.852934686653427 1 1 0
1897 1 7.19257768943742 1.119315082947261 8.197933590283373 0 1 0
1222 1 5.102504031685395 3.689946303176771 7.117989069460655 0 1 -1
907 1 10.62291713789732 0.9485518023303636 5.638240866260789 1 0 1
1929 1 9.228725335911417 2.536675597690193 6.517242457592256 1 1 1
1816 1 9.170166077251867 0.34792294240088484 7.415362397069005 0 1 0
745 1 11.67636815199442 0.8551822018761608 7.613251054389098 0 0 0
1619 1 11.28167965436802 3.4088440770898307 6.974498957119399 -1 1 0
480 1 8.63822587007706 4.59909765473453 6.595017116051847 1 -1 0
407 1 10.324258532110132 3.3807331425211613 4.773059824663066 0 1 1
1009 1 9.424638363687635 2.16978443672571 8.826851188237866 1 1 0
1275 1 13.768296939135855 0.314349379613959 7.418699213893901 -1 1 0
456 1 15.156790773253428 1.0734922457312086 8.905711214465654 0 0 0
243 1 13.058995674114202 2.405065923723783 5.153875873133727 0 0 -1
224 1 14.815975193032733 0.1326895909121925 5.247763570047281 0 0 0
805 1 13.409218087250633 2.4137535596895097 7.947405513697108 -1 0 0
600 1 15.2541744321981 4.283959125209077 6.827676324762729 1 0 0
885 1 15.242102462520181 3.048773325481239 4.818595311483494 -1 2 1
1352 1 15.902343970875044 1.8311615360619167 6.586466293579269 0 1 0
1025 1 15.551940514826121 3.284650171142171 8.929532374524006 0 1 0
652 1 13.19808702199342 4.4702866529022485 6.2263517331001825 -1 0 -1
1250 1 12.74208547691817 4.332726825873009 8.810133719366727 0 1 1
1118 1 16.785424107014226 1.333151819912723 4.7347231304270645 0 1 -1
1665 1 16.974175946633487 0.2008581372823554 7.175166729597274 0 -1 0
1676 1 17.565134317596655 2.6224042467174313 7.975902762171284 0 0 0
1376 1 17.200816689002263 3.8162027073358047 5.739522917198188 1 1 0
570 1 18.755299778010574 1.7737230811498905 6.090910647573436 -1 0 0
914 1 19.018837850190604 4.545049640617878 7.162737282446808 -1 -1 1
1546 1 18.89229148908341 0.5930074459544781 8.078572232659695 1 0 0
673 1 22.582980063153435 4.478444133533396 5.398630916063459 -2 0 0
948 1 23.929386798167386 0.2483892763636824 8.766612998789473 -1 0 1
210 1 20.642848087893494 0.17042542112840237 6.182218994285353 1 1 0
1244 1 22.812346347202134 1.4722495939107434 6.490436954978608 0 0 -1
391 1 24.361543065773184 3.012813894527269 5.265814176802138 0 -1 0
355 1 20.800766805468744 2.9357023560798616 6.280020610418403 0 1 0
1741 1 21.97477468269128 0.9581545098537587 8.508873003172722 0 1 1
351 1 20.37495544479705 2.337700259222985 8.586312035344372 0 0 0
460 1 23.15433751050946 2.860861227791011 7.769926477920888 1 1 0
1445 1 28.257254018213715 0.006095358291923952 7.860359963480706 0 0 0
947 1 25.503464641458656 1.971401429629458 7.638567341405942 0 1 -1
1414 1 27.41035769189442 1.0975406293208427 6.2388962655904345 -1 1 0
1532 1 28.029297478756238 2.446238435250493 8.151436896797808 0 0 0
23 1 26.31225334011063 4.332285616859353 7.278000489811926 0 0 0
920 1 28.1256995528313 4.2213733998089085 6.040723746270691 -1 0 1
1595 1 25.061042032011283 0.3325148398975881 6.556800139971164 0 2 0
67 1 3.639208209796989 8.893903259014985 5.931073060588438 0 1 0
1213 1 1.2329750960746888 5.324809560003981 5.454224464714533 1 1 -1
229 1 2.9494260427595096 4.81299760574896 7.77626974509714 0 0 0
687 1 2.814108474974747 6.858887278635885 5.57472818718798 1 1 0
226 1 1.8779108919995733 7.538490007797032 7.364989857161287 0 1 0
984 1 0.989601796878103 5.532677807807255 7.474213455438046 1 0 2
977 1 4.277938394038832 4.7624646663373085 5.522663519904373 1 1 0
1331 1 4.14764002316847 8.77951477205887 8.09999213818025 2 0 0
313 1 4.931462892085303 6.0256374332962235 7.553975204226543 0 0 0
1154 1 6.200142225047041 6.752304621863671 9.113048235761987 0 0 -1
314 1 6.80796195103347 5.467186149119962 6.838883821228941 1 -1 0
869 1 6.588638864289709 7.701486451640378 6.9268253848435855 0 0 0
232 1 5.325643899910412 6.94113266437118 5.126845485965601 0 1 0
672 1 8.37952692539328 6.6382280283953286 5.5268172414209165 1 0 1
1292 1 10.443865402061489 7.817337463610461 9.15407872384177 0 0 1
544 1 8.2298681781192 6.538499338753163 8.479653629970002 1 -1 0
409 1 11.934612070200002 6.605400126635761 7.698956340245489 0 0 1
1267 1 10.801815122362754 5.574908195410901 5.48426208325765 0 1 0
1657 1 8.558866435009742 8.517130872709087 7.629485278704957 0 0 0
941 1 10.15374533726514 7.5711470039348345 6.6736798490628955 0 0 0
545 1 10.341839629965433 4.655235673622533 8.798786143122381 0 0 1
387 1 12.421732968175155 6.76705076144021 5.102422110674679 -1 0 0
1176 1 12.753354254708135 8.337930908005198 6.625920192196029 0 0 0
515 1 15.304371000834712 5.840296364325303 8.83401015006356 0 0 0
1847 1 14.02797900433124 6.288871539579225 6.655279458986138 0 1 1
807 1 15.756788982386109 8.446849150057016 6.8926940249482955 1 -1 0
475 1 12.676104826657644 8.468831424440086 9.032090393742019 1 0 1
849 1 14.684553401853135 8.137256509706416 8.776836697338245 0 -1 0
888 1 18.3762998414209 6.219737487762886 4.842903735894837 1 0 1
399 1 19.60538242710196 9.049361750835931 4.7283350845433825 -1 -1 1
216 1 19.749369793941618 5.9731724885848605 8.898661463792084 -1 -1 0
1616 1 16.384813527158304 6.173897547479415 6.258158658392845 -1 1 0
1285 1 17.459272675109872 5.427884810580356 8.656415969237324 0 1 0
413 1 17.534253296475722 9.385823114571313 5.775976798540994 1 -1 -1
1674 1 18.539042527259525 7.169867304647007 7.10798567307192 0 0 1
666 1 19.573175981393987 8.936325456555661 7.12187834325241 0 0 0
108 1 16.995035702262793 7.4910854681312795 9.064454537448832 0 0 -2
718 1 19.02895011388752 8.37657574246479 9.13664653671139 -1 -1 1
583 1 22.754917135847805 6.472804546215094 4.78214114474997 -1 1 0
1008 1 20.52743729952835 6.530329779971058 6.118332808997105 0 0 0
1783 1 22.91205938065898 6.349539866821406 7.280561805546056 1 1 1
2048 1 21.433966070795424 4.617147679609016 7.7667168523560415 -1 0 0
1698 1 21.135950996167463 7.804733519594967 9.152018639531597 -1 0 1
1142 1 24.23648701324694 7.919476194609519 7.387238220691219 0 1 0
1318 1 23.966907324972716 4.682626674355774 8.143770487106144 0 1 -1
1769 1 22.27528125894642 9.140347990415684 4.651029897111499 0 0 0
1679 1 21.89455901822951 8.385829958983031 7.0769993975441725 -1 0 0
1600 1 27.908867543024563 4.996519793223154 9.024764691551631 0 0 0
1385 1 28.395308279940572 6.797976427324616 5.901786426822822 -1 1 0
1796 1 25.986378629942273 6.5504523382144555 7.027137290106296 -1 -1 0
1466 1 24.609016763839293 5.198250883159068 5.54281969139815 0 0 0
1016 1 25.092905363390784 7.892887570672833 4.927444261432348 0 -1 0
177 1 26.02080125856022 8.355380061988448 8.845660017439593 0 0 0
1356 1 26.70211048516625 8.90813202080448 6.362727978010467 -1 0 -1
850 1 28.17739883376398 7.405240406711864 8.460679274838999 0 0 0
171 1 25.8068551675017 6.081425772543863 9.140636518770725 -2 1 0
596 1 3.3162801818295833 13.968896274345509 7.039432738885272 0 1 1
993 1 0.6706775919982176 9.66443865604567 6.307150556058304 0 0 0
779 1 1.698094585689774 12.881004126089794 8.231725206073737 0 -1 1
610 1 2.2834821843003317 10.138247096702594 7.844633419432112 -1 1 0
547 1 3.0974637642845058 11.25186115817647 6.065056859529307 0 0 0
192 1 1.2372409270573024 12.636182776060874 5.6802149830352615 1 1 0
221 1 6.261770377495169 9.434818481814164 8.59734607029573 1 0 -1
1036 1 4.70940806789154 10.80255969454252 7.4755357572499985 -1 0 0
1919 1 4.040085197012397 12.65827397958593 8.888530831952467 0 1 1
1146 1 5.0198045083286065 12.545867380582544 6.013725471346616 -1 0 0
732 1 7.99408353931374 12.442934334147894 6.517074191392224 0 0 0
693 1 5.884250608943609 9.987326770245339 5.724820307954548 0 0 -1
1085 1 6.270278072680259 12.565270495580396 8.239002807383617 2 0 -1
670 1 10.03130729084942 13.751377020933536 5.497099636263267 1 1 0
1021 1 8.63421177676679 9.61801720090124 5.176601866190547 -1 0 1
1862 1 10.669003784096637 9.660725052810077 6.828483327729079 1 1 0
1011 1 10.305415450241052 12.253879358968497 7.364370223347764 0 -1 1
495 1 9.69286201205931 11.63561749061436 4.9984612814807035 -1 0 0
784 1 11.70744427185458 10.936207874995278 5.520090807620312 -1 0 1
459 1 8.529929101223294 13.249335196359347 8.528140394662499 0 -1 1
1263 1 8.081132428766004 11.068644281342962 8.246105027596299 0 0 0
1738 1 9.983674636282462 10.27429433244898 8.816598364746937 0 0 1
187 1 14.283712024553111 13.643106282967356 5.7201459453634 0 0 0
354 1 12.262546925335547 13.498330535924289 6.356446027952389 -1 0 0
705 1 15.412628259451656 12.725706013440895 7.578207042797388 -2 1 -1
1235 1 15.551547997813312 9.823528516005243 4.776484197790964 0 0 0
1620 1 13.926233354921107 11.054249898761435 5.886692213292518 1 1 0
484 1 12.140913707811391 11.532618186171781 8.429133816462786 -2 0 0
741 1 14.956220889163243 10.499705470366223 7.873625836015474 -1 0 1
1596 1 13.560539145039773 13.545737600305529 8.113302127133483 0 0 -1
2024 1 16.82628193306791 14.17068887114861 9.053425602501463 0 1 0
271 1 17.750577313910583 12.586759199410436 6.865909057941381 -1 0 0
117 1 17.231756460937714 11.571326391092576 5.073594290388403 0 0 -1
1475 1 19.75864804692297 13.361064361766282 6.874481987719794 -1 0 0
711 1 17.157032495861557 10.580643428868708 7.957092563485844 -1 0 1
1229 1 18.391674202436025 13.381104701603014 4.717059977897514 0 1 1
645 1 19.441125796871212 11.136877209880309 6.0274643982261376 0 0 1
945 1 20.180625520594212 11.219136638672927 8.387309872166838 1 1 1
540 1 16.458019482142298 14.171531680652846 5.579522473343426 1 0 0
878 1 18.672295037004094 12.638823605263267 9.177990095376089 0 0 0
1842 1 23.70273577741482 11.63079539284627 8.054255934890692 1 -1 1
167 1 24.38795676628477 12.258157584827963 6.366690974952574 0 0 1
331 1 21.829228741755976 9.77784979865256 9.00675613703471 -1 0 0
924 1 20.671769202246185 13.168335336983647 4.815546379918812 -1 0 1
1305 1 22.121812703545093 12.875070123828756 6.136960823597353 0 0 0
1483 1 22.218616734720023 10.557031675534233 6.573158909247218 0 1 0
735 1 21.945223114297328 13.005760695389096 8.495627683261144 0 -1 1
1252 1 26.117040695684462 13.785767375198704 7.392706856261901 -1 0 0
1622 1 28.219241080846942 10.961471666102327 4.718145021637541 0 1 2
513 1 28.35651359176192 11.946920979980414 6.9597871943426 -1 0 0
2014 1 28.18182331161461 9.731283147783106 8.374059545804728 -1 1 0
450 1 27.123605775245093 12.972348849222763 4.70410224492088 -1 1 0
1831 1 24.50316762477203 9.86080474989818 6.802064873458769 -1 0 1
1408 1 27.645367883887722 12.362885397580333 9.216816743474427 0 0 0
1270 1 26.289098623993034 11.302329696698331 7.205392144754135 2 1 0
1453 1 2.5067202966719457 3.1001845164070083 11.487081448683082 0 0 0
146 1 1.5495197021611402 0.6073928272248726 11.884962180066916 2 0 0
683 1 3.429614581516424 1.94385151122873 13.301058995065924 0 1 0
1967 1 1.6138736789690944 3.539417872792624 13.336312584266675 0 0 0
390 1 0.03349991994831994 2.5079384807579683 11.097856072616848 0 1 -1
382 1 3.2833599569847336 0.8905254536286207 9.753772331756531 1 1 -1
426 1 3.296320172953063 4.526450735453752 9.923821098285364 -1 -1 0
322 1 4.489556467044094 2.22111666210479 11.002352256872376 -1 0 0
353 1 5.613937823997476 4.527709007553038 9.628006664006442 -1 1 -1
1390 1 6.020180719263896 2.424486027143251 12.593088459744612 0 1 -1
1621 1 4.0589314176998865 3.958889886134923 12.448123445058306 1 1 1
114 1 7.854807572718048 3.2395465742225995 13.331933330433685 0 1 0
1930 1 6.352040286267268 4.380357188900657 11.64831320890752 -1 1 0
1431 1 5.871302274101785 0.41712222028080936 10.362187819895368 0 0 0
1274 1 7.275908679969172 2.652693655288318 10.587278388182071 0 2 0
1988 1 7.701299310254946 0.3862040213696152 12.096668985626177 0 1 1
350 1 9.425764592933321 1.8607160296243412 11.919642964572432 1 0 0
950 1 10.718579654880486 0.2257499263971347 10.0767724106576 0 0 1
634 1 11.182832264031527 4.4569772558090595 13.199313316919822 0 0 0
893 1 11.574782614202904 2.132035870229515 12.301251922306333 0 1 1
1633 1 11.377987053506581 2.650152823239672 9.56021272169396 0 1 0
1767 1 8.291814503500946 -0.13026948538577138 9.83778900837232 0 1 1
812 1 8.09481728192652 4.536167502509254 9.604498442324086 -1 0 1
903 1 9.818231489831721 3.903600780459027 11.070496674785197 -1 0 1
2019 1 10.443238553136808 2.6444751766334313 14.023162088838788 0 0 0
9 1 14.908270559384476 0.7257949280867146 11.396692473096348 0 -1 -1
1718 1 12.584493484302895 0.12639616602899306 11.975986878628442 1 1 1
1567 1 14.396395404364313 2.5425640185531986 10.608056475471436 1 0 0
1080 1 14.024476677771652 2.719528389223127 12.968314995662615 0 1 0
764 1 13.10673481134955 1.0560838756113595 9.80230222790631 1 0 1
1669 1 12.5992427817166 3.9367275500715513 11.282522692846353 -1 1 0
1934 1 15.674492381153492 1.03825838331881 13.529223401775633 0 0 0
1043 1 15.301560385556982 4.3813089218699455 13.698467105893586 0 1 -1
1046 1 19.285903785705177 1.6576591481149365 10.522143593802245 0 1 0
1689 1 18.219625415268133 1.692327537229656 12.637909133652677 0 1 0
1784 1 18.810132558023295 3.7565942239577343 9.600350411296235 0 1 1
931 1 16.41770086902038 2.822198962330086 12.178943715523785 -2 0 0
1578 1 20.216683405961707 1.238749192569265 13.864574706030606 0 1 -1
1651 1 17.244711057280284 1.9411300297281668 10.519596478635759 -1 1 0
416 1 18.488936080022846 3.9281435993578624 11.649044778311309 0 0 1
429 1 19.70802876972432 3.5346202052176423 14.168336535471365 -1 0 0
378 1 18.090866476683274 0.09486498018934969 14.010438998070397 0 1 0
8 1 22.844907931846826 0.32279086195780676 12.889681564034095 -1 1 -1
1218 1 20.46008352017732 -0.15370756882296277 9.608775728208593 0 1 0
803 1 20.497282637423584 0.09212141111414823 11.975340790870039 0 0 1
28 1 21.73588630754988 3.7263002799997005 13.539948766388578 1 -1 0
1168 1 20.552191350014937 2.737400203509571 11.739482188367711 0 0 -1
1558 1 20.731980519870575 4.587370061130813 10.577205704224495 0 0 0
2007 1 22.28279846263519 1.3010667006961316 10.817255862847968 -1 1 0
1120 1 23.199605636678108 2.754416643610667 11.999074134154347 0 1 -1
926 1 22.168014581962403 3.3861911687047828 9.826125510706927 0 0 0
1321 1 24.861886894333423 0.4273752058163992 10.97788246614025 -1 1 -1
1503 1 28.3733295867036 2.692223781008343 13.073237763755092 0 2 0
1713 1 24.50828725924946 2.3514856020412016 9.636931965315972 0 1 0
440 1 24.88359994378256 1.9565223229257742 13.647469267339567 -1 1 0
1986 1 27.295680202449077 0.9712063816383121 9.947519816273433 -1 1 0
1238 1 26.211791241543317 1.9034524398284551 11.854059673658764 1 0 -1
1190 1 25.055826743684406 3.9615958131399855 12.624796109503931 0 1 0
362 1 26.635000957457553 3.6087812214225155 10.366405420364964 0 0 0
1165 1 24.46950345146316 4.149158713276153 10.477489695428241 -1 0 -1
267 1 28.258925546587385 0.32832521113242064 12.039298404214964 0 -1 -1
1976 1 27.02332991728864 1.250508365795516 14.060229628585473 -1 1 0
71 1 0.1082837638395569 8.259508423581435 11.549819817488322 1 0 0
871 1 3.9127605387289703 6.716841111217917 9.475752108500952 0 0 0
1308 1 0.44387850567823284 6.790494279160415 13.492358379994268 1 0 1
502 1 1.356066563588202 6.174721190794367 9.87449958591594 1 0 1
1125 1 2.6301236528920198 5.615977578137039 11.799026260764148 -1 0 -1
1902 1 0.37644667098899565 4.706730312382477 11.642788094727605 1 0 1
1421 1 2.6329435962862124 7.63867736061153 11.591821568105239 1 2 0
61 1 1.9086421125773692 8.555308029237269 9.871266695389572 0 0 0
720 1 2.134108167337249 5.361772278358926 13.905890266096403 1 0 1
1357 1 4.325739335153184 8.052326681227077 12.925395128517282 0 0 0
676 1 4.877936187894196 6.2430831794581065 11.317662503822056 0 1 0
1149 1 4.801340081439576 8.735217401507773 10.640397310521463 0 0 -1
927 1 6.981477581286263 7.1456399714062835 11.579609249168763 1 -1 0
1459 1 7.125067678225377 5.899618714055067 13.395850443593169 0 1 -1
1102 1 4.518701859543714 5.7910976588800676 13.595375590787805 0 2 0
659 1 10.394006151363415 9.33584395911027 13.446042811920897 0 0 1
1302 1 9.055665607333287 5.335188200675234 12.871061598699981 0 0 0
1520 1 10.762829487590356 6.69061641391565 13.407159154922251 0 1 0
566 1 8.845075648344833 6.545142011352438 10.667022306433088 1 -1 0
501 1 10.772267081957079 8.138039305834416 11.26031029625792 0 -1 0
1982 1 8.927200356852289 7.9969676547733215 12.33661429172672 2 0 2
581 1 10.72520783589667 5.844807771207064 11.18047754614962 0 -1 -1
1817 1 8.334566220337022 8.664196644391025 9.907428108764869 1 0 0
253 1 12.504158951699399 8.405918831666092 13.643030470089842 1 1 0
219 1 13.038966158331315 6.193472234333274 10.055659270710025 0 0 -1
919 1 14.909480996015748 4.663749523329749 11.119817607783077 0 -1 0
830 1 13.280985686282134 8.48259475068999 11.48000335402406 0 0 1
99 1 12.95181284375975 6.158132358366821 12.253130478590245 0 1 0
593 1 15.190256623003625 8.831767181968251 12.474325813248845 0 -1 0
690 1 15.161555560909507 7.214705262711571 10.631331625541833 -1 0 0
290 1 14.654244209787612 6.369147856327002 13.705844750647707 0 -1 -1
873 1 17.75188510239062 5.13325957551805 13.746462219664055 0 1 0
1488 1 16.579857979534246 6.617757523526922 12.535165956588557 -2 1 0
335 1 17.02928554448907 5.535547941040329 10.779505249123385 0 -1 -1
20 1 18.728496932376363 7.785257013625516 13.157951514640818 0 0 0
1296 1 17.45601608811696 8.393304666782846 11.25950044791277 1 1 0