LAMMPS data file via write_data, version 29 Oct 2020, timestep = 300000

2048 atoms
1 atom types

-0.01835798229320673 28.37035798229082 xlo xhi
-0.01835798229320673 28.37035798229082 ylo yhi
-0.01835798229320673 28.37035798229082 zlo zhi

Masses

1 58.933

Atoms # atomic

8 1 1.9314535740498446 3.4914821970375973 1.4015332431593635 0 0 0
163 1 1.73862707188816 2.1202140317893847 3.5774736963896605 0 0 0
130 1 3.434048402268478 3.7339424709118734 3.6402612884930576 0 0 0
37 1 3.5187972315663183 2.0340522420420286 1.8039547719262399 0 0 0
530 1 15.619185249922328 1.9209449087664652 14.137209587314036 0 0 0
169 1 9.199941531550788 0.05690112414443391 5.368954811721793 0 0 0
257 1 27.750933179405877 0.33796758820979034 6.862699807186247 -1 0 0
210 1 15.772123371350059 8.733861286935106 0.38494303049761075 0 0 0
387 1 1.6672857323223054 0.021983270236269448 12.215794114824053 0 0 0
12 1 7.177528803691474 1.9912624188098453 1.7098252394696993 0 0 0
39 1 4.976679972531093 3.6368992987692748 1.7475319027191691 0 0 0
134 1 5.19997352490212 1.7458234781417534 3.335588671606141 0 0 0
166 1 6.978429256329075 3.255254742967116 3.508392684886453 0 0 0
402 1 15.778596234272829 0.19882515470934692 8.71290315483816 0 0 0
1384 1 1.5743259168278148 0.051177459344419654 8.512038272892578 0 1 0
13 1 10.349789460575046 1.928564752919977 1.5023188395350402 0 0 0
41 1 8.499168073987432 3.8113070332446264 1.774697549186947 0 0 0
15 1 8.93017776662415 1.984390213943597 3.7204335247200704 0 0 0
142 1 10.78629961818782 3.343141738850939 3.4854526557475216 0 0 0
177 1 12.46237374737325 1.899096360157312 3.8466919165511224 0 0 0
261 1 3.497144523985906 0.03994605479246616 6.89706670892069 0 0 0
481 1 0.1794125162663435 12.18399624712569 12.855569509959249 0 0 0
174 1 12.328995552604544 3.4827084522773832 1.7905856902108988 0 0 0
49 1 14.225130975457597 2.039127492834544 2.205677244717185 0 0 0
148 1 14.136842616881717 3.6354627496574436 3.681793419919105 0 0 0
51 1 16.344951338481312 3.497256702861739 2.3565020169997823 0 0 0
175 1 15.860320942631285 1.6305724014651164 3.6288918887525616 0 0 0
1041 1 15.635045980104133 14.021486999628705 1.8994064123963403 0 0 0
19 1 18.113207161664754 3.6073714967913104 3.485326389282981 0 0 0
1272 1 19.383485180418376 2.052098260861249 3.5499606661052914 0 1 0
18 1 17.680475344422018 1.718428721265889 2.075667071711389 0 0 0
181 1 19.6221552563205 3.786041747642003 2.0748708712868633 0 0 0
626 1 17.862597570158567 14.058317128372718 13.99652961785622 0 0 0
154 1 22.47341029678141 1.85613783514439 3.531301018730825 0 0 0
185 1 21.168592093748817 3.9814480809193715 3.7286701631989616 0 0 0
22 1 20.99265140516451 2.0295417309059536 1.4972449631315237 0 0 0
59 1 22.576809278012128 3.6402496464679763 1.7805935110139106 0 0 0
578 1 0.6277047561218558 10.726113798027095 10.709134497079434 0 0 0
612 1 24.907845960138456 10.254197659969579 13.98653845071899 -1 0 0
379 1 24.98888526997493 12.609139716655067 12.850084173511465 0 0 0
1165 1 10.97111875531167 14.115522691292888 3.9600832826683807 0 0 0
1295 1 14.396280073198916 10.194578705778785 14.173760073391941 0 0 0
4 1 28.29705929674779 1.9892044881984292 1.6422820494549015 -1 0 0
161 1 28.32361246821892 3.3064927644937296 3.4552796045229557 -1 0 0
223 1 24.850170388161555 3.6181630339169986 3.471918525784012 0 0 0
32 1 24.576551251012173 1.7249653133409992 1.7302950192189832 0 0 0
189 1 26.370792917065987 1.8695519801038984 3.3853011848833554 0 0 0
33 1 26.659546693036656 3.586151474468982 1.7495822183650866 -1 0 0
269 1 10.57211409584279 0.21709323744645725 7.14934977124518 0 0 0
132 1 1.477788197318784 5.358445952889341 3.6677828397734222 0 0 0
67 1 1.899893552131411 7.584796048989916 1.6485145688013347 0 0 0
194 1 1.6192483429801303 8.93815835512547 3.601211411038135 0 0 0
40 1 3.7959694590850246 9.031252261672007 1.4677679494970879 0 0 0
197 1 3.354407646533233 7.294342453363271 3.471838405359886 0 0 0
963 1 3.3784231664414666 5.5346833032452185 1.4475154214890606 0 0 1
14 1 12.664619761934718 2.0250944027542324 0.27785033546131377 0 0 0
23 1 19.416770393285123 0.10817056854902893 1.516172583624629 0 0 0
573 1 24.746863889508 3.788425322513109 14.031767556482922 0 0 0
1434 1 23.220790535759285 13.901333395570052 9.402588594706382 0 0 0
44 1 6.819912897585269 5.396979213213132 1.738401865868715 0 0 0
165 1 4.908392284043222 5.414313246918304 3.05216390812661 0 0 0
71 1 5.140384142439808 6.9240238434089685 1.500634546762906 0 0 0
201 1 6.63466165314567 7.155224983486648 3.746222073291033 0 0 0
198 1 5.23330838674199 9.044903461834608 3.368636096642384 0 0 0
107 1 7.278619833325802 8.806360409524913 1.6655140876743197 0 0 0
137 1 7.321655811310172 0.3002315542102477 3.7300488210528138 0 0 0
47 1 10.611037134389127 5.114154435631613 1.9855969890795038 0 0 0
48 1 8.707597781674364 7.134514064473899 1.7457600472420185 0 0 0
170 1 8.829851476644395 4.835133314288521 3.582479815468799 0 0 0
205 1 10.647030332697453 7.074495081025484 3.085525154729763 0 0 0
112 1 8.713799885192234 8.89379460567605 3.358722599015124 0 0 0
80 1 10.406697221710028 9.026410697817479 1.8461849847331941 0 0 0
78 1 12.28711712779535 7.308573522154202 2.0200457403762857 0 0 0
180 1 12.387599203678628 5.296413138624954 3.3644818522401105 0 0 0
208 1 12.267602986193438 8.88236797960339 3.6067829074263122 0 0 0
157 1 28.05726982540774 0.27786685066792494 3.149837039296903 0 0 0
317 1 26.263257974152605 0.15622783196012272 8.387094166877487 0 0 0
146 1 14.426086700377935 5.5443504677292825 2.1245503836837294 0 0 0
209 1 14.276485646563705 7.346736186269834 3.5914615959438385 0 0 0
241 1 14.047288772704142 9.058466578294473 1.7226106039950384 0 0 0
306 1 16.1053412319776 5.6816756442325875 3.6749555997767724 0 0 0
83 1 16.164930226647925 7.197894863540189 2.124937752794461 0 0 0
216 1 16.02940655225307 8.503918373282383 4.057100811913492 0 0 0
21 1 17.78607819485173 0.041030027621985966 0.17484014619446042 0 0 0
1056 1 24.49638380002182 13.844207675922062 4.064510634882393 0 0 0
395 1 8.442956173888502 0.20117767097979355 12.395411171618624 0 0 0
273 1 14.205440399460912 0.25339976524510555 7.231091892274831 0 0 0
182 1 19.52825754874864 5.26150890941392 4.0060413852430665 0 0 0
87 1 17.83389431917993 5.568179584605734 2.3202182067942236 0 0 0
54 1 17.81857691221494 6.9092303673902125 4.150434854574479 0 0 0
249 1 19.15906309302111 7.21294177691913 1.800500786955742 0 0 0
373 1 19.154111570905894 8.822402141321703 3.775445505315171 0 0 0
88 1 17.56623253104325 8.901908335803173 2.3155349797785747 0 0 0
1943 1 17.794608845839182 14.03745693895767 0.30960783179838086 0 0 1
184 1 17.85231490063357 5.344119545625903 5.66673992147724 0 0 0
186 1 22.94658412803683 5.529366935463212 3.4635221643279652 0 0 0
60 1 20.925567119173024 5.551313786684241 1.5990804889447 0 0 0
218 1 21.253453171269598 6.958474972994328 3.5749861780790595 0 0 0
91 1 22.87109312811428 7.037026505481208 1.2862743753352102 0 0 0
251 1 22.831180627110342 9.249621052637233 3.7335952339148033 0 0 0
92 1 21.084997367095333 8.89402845402814 1.9420851629235212 0 0 0
271 1 12.213460363023858 0.04475935854705071 8.777808955844904 0 0 0
221 1 0.3864169691619726 5.28015077534037 1.672847383218527 1 0 0
162 1 28.331646794228988 7.012942164233455 3.4246458136927975 -1 0 0
95 1 0.2581429181292354 9.469001918134342 1.9473566004674785 1 0 0
64 1 24.801928295245478 5.496411740151501 1.533224667687938 0 0 0
190 1 26.662253237842023 5.657133942086916 3.098385014328188 0 0 0
193 1 24.906796197100437 7.057358963143982 3.365036059696928 -1 0 0
224 1 24.520638104897927 9.097424538649996 2.1937346253740206 0 0 0
225 1 26.525743084801103 8.075982322437387 1.9027788968667791 -1 0 0
219 1 26.59203566966389 9.358933881679366 3.4536127703473802 0 0 0
129 1 26.839327732582493 0.08469869618738812 1.2205041559799796 -1 0 0
1153 1 1.5822650339906725 12.429855389182366 3.4958071364408454 0 0 0
226 1 2.088013848198189 10.706067712426496 1.5348387336131744 0 0 0
98 1 3.622986461483512 12.442490560678614 1.8840830757173128 0 0 0
1032 1 3.3996819254040727 10.683430735962231 3.544833249532369 0 0 0
474 1 25.10141161528373 10.718156297802045 10.465658047414236 0 0 0
556 1 10.649974165611672 7.228958726697426 14.081649465426015 0 0 0
136 1 3.7782183593236893 0.06943883262180985 3.2315303939677396 0 0 0
61 1 24.49450157151872 3.5585823673736297 0.40894072605340903 0 0 0
549 1 4.819078093704411 0.12885830825597608 12.144039744672657 0 0 0
20 1 15.695484394131599 2.3121826273404538 0.2341840812202149 0 0 0
104 1 5.531656883229111 12.3860651389903 3.7080649891358726 0 0 0
1000 1 5.585513893584726 10.80445170562271 1.5688457946135617 0 0 1
103 1 7.147020772239649 10.70287770202318 3.4563496176364024 0 0 0
230 1 7.2018009978908495 12.602641254776936 1.8333968881917133 0 0 0
151 1 14.03884809180704 0.05453787180820166 3.657950282958083 0 0 0
1437 1 26.941381073055606 12.431646811472326 10.699312174222039 0 0 0
265 1 7.276635048623596 0.06264297979892845 7.0385493668579375 0 0 0
562 1 15.673414565615294 5.089191808684595 13.878964370250078 0 0 0
108 1 9.006175781174461 10.713963155980968 1.581710263258322 0 0 0
234 1 8.578974476328979 12.38600427643749 3.7123217562170407 0 0 0
237 1 10.036942916299253 10.592141806850417 4.02153466421357 0 0 0
113 1 10.544911810537565 12.531632530727192 1.8864969893707118 0 0 0
206 1 12.125798129982774 10.553103324745916 1.950719297310899 0 0 0
238 1 12.246897996822904 12.30048522148171 3.5779412828139487 0 0 0
116 1 14.096823182251743 12.213650982359269 2.026928248753231 0 0 0
1043 1 14.120348758353046 10.494430336306813 3.749938961824912 0 0 0
84 1 15.515126136718735 12.29199334577954 3.8887631823971898 0 0 0
120 1 15.894552744122782 10.568411077382553 2.612465605419213 0 0 0
975 1 12.406985633137303 5.342118771622739 0.35640172337349113 0 0 1
178 1 16.14705783234633 5.237623977096338 0.46408983764458467 0 0 0
1012 1 12.11554374833424 8.77069638508528 0.42576607004254724 0 0 1
79 1 17.779927803717033 10.622174453987805 3.843287587934052 0 0 0
246 1 19.471867402015196 12.465699920458388 3.676447942354765 0 0 0
1173 1 19.633806354158278 10.617886191337417 2.0594321124033654 0 0 0
1952 1 17.686307107349876 12.45426419460001 2.091818341581087 0 0 1
52 1 14.398495775878729 3.7724686991861116 0.8490553519095866 0 0 0
149 1 16.07317093206638 0.1118900011731192 5.386247478451179 0 0 0
119 1 20.84922732429391 10.432620207561293 3.896749446392961 0 0 0
1020 1 22.747536091135558 10.791790344883623 2.2031841244189088 0 0 1
256 1 22.394996392847315 12.359051692088103 3.5882665205198885 0 0 0
1050 1 20.96485985688493 12.567779103611787 1.803310431773935 0 0 0
1047 1 24.915236391077297 11.506359648752598 3.8870283759292388 0 0 0
432 1 12.458940056654232 5.450915522392373 14.163474721819238 0 0 0
126 1 28.36395814067175 12.916615242743013 1.7598701838949422 0 0 0
255 1 28.178931276474415 10.945865480115824 3.5345705973593304 0 0 0
128 1 24.37922716267557 12.257990763629545 1.6949669014696471 0 0 0
127 1 26.383530865484506 10.733386337623207 1.6224196437159066 0 0 0
254 1 26.52730214557221 12.774853557429415 3.4951293793246556 0 0 0
1309 1 25.116590177933546 13.750730810153241 10.959168149755186 0 0 0
511 1 26.921777711994345 10.633279704437133 12.382878926735534 0 0 0
101 1 5.200711116270229 12.623142753165006 0.082337008617422 0 0 0
1163 1 8.995747285021704 13.945436771010035 5.174436859243453 0 0 0
133 1 3.815222317214743 1.9193516135912654 5.224916421613175 0 0 0
164 1 1.456771935913554 3.611429319051998 5.200292646868703 0 0 0
258 1 1.78157942461621 1.3926257341432537 6.762840619107467 0 0 0
294 1 3.175568477963488 3.4533670279508843 6.778413229550811 0 0 0
264 1 3.664293056205473 1.7702321683946638 8.243140604337972 0 0 0
291 1 1.6179305817300529 3.635444704714691 8.391722323280012 0 0 0
93 1 25.05492056114257 7.471096797652839 0.4031060711313896 0 0 0
167 1 5.1743754288252894 3.718005012568121 5.40106194499886 0 0 0
140 1 7.0560815080015855 1.8083372104868431 5.343009069297691 0 0 0
262 1 5.372333110116195 1.874712465194642 6.766047104716978 0 0 0
297 1 7.150960936042018 3.684657727797662 7.139361890681579 0 0 0
295 1 5.227890536991718 3.7961193676416927 8.708633964925006 0 0 0
268 1 6.566226986399978 1.9859166128352101 8.944563425630069 0 0 0
2 1 1.6103972438502436 1.8080251823443272 0.17453861328344353 0 0 0
141 1 8.682977109545234 0.3682757308672893 1.5392121600264257 0 0 0
1287 1 5.160033601325089 14.074239339025574 8.959640500481493 0 0 0
1439 1 23.08225586833048 14.143386828551288 12.138648588437738 0 0 0
143 1 12.632378850593588 0.28123421560503176 5.374340592207831 0 0 0
144 1 11.025198450039065 1.830995483717831 5.528378707527048 0 0 0
138 1 8.914309893622695 3.2665066570639185 5.59766769104685 0 0 0
266 1 8.734014664915355 1.6841255669250994 7.3964271778857755 0 0 0
301 1 10.725773382028304 3.3466621972780404 7.170948457650427 0 0 0
299 1 8.31860126599161 3.6518272669858334 8.946169730135928 0 0 0
272 1 10.136620170838894 1.8205287837359354 9.07673545388422 0 0 0
270 1 12.47338925064393 2.0128991215521967 7.407346387532703 0 0 0
248 1 16.9945407553147 14.021964379950514 3.8030649939267365 0 0 0
307 1 19.499892795597116 0.12667724224404653 12.450458784084747 0 0 0
308 1 12.492262741394413 3.789763390861626 9.076519913595936 0 0 0
173 1 12.437551460699767 3.686054129482432 5.2865877719064605 0 0 0
147 1 14.18872979272922 1.8671113695069512 5.131350623235584 0 0 0
305 1 14.148394826743978 3.5813361769144056 7.1452011163026246 0 0 0
276 1 14.145561127619924 1.5352880255557584 9.197438495881576 0 0 0
277 1 15.840101584074654 2.087523403476078 7.182580515126142 0 0 0
274 1 16.153648505724085 3.2645162189039354 9.151114533520111 0 0 0
213 1 16.20338272041398 3.621768691689305 5.04625068659619 0 0 0
1923 1 2.5008538725408602 12.542176123406074 0.03734219362706018 0 0 1
1258 1 12.616547452477613 0.4150311668320995 2.0046401951620423 0 1 0
282 1 19.52346794154257 3.3015515417140695 5.635114870925303 0 0 0
1271 1 17.473558708683655 1.9587610779416589 5.589046590858954 0 1 0
537 1 19.631772275574438 1.8918095000715403 7.315601138855805 0 0 0
280 1 17.636725405690527 3.7416541995792323 7.316535707843484 0 0 0
1526 1 17.819913402246673 1.7799671612588701 8.862207294883396 0 1 0
310 1 19.402489970844993 3.581925310831802 8.90980693881768 0 0 0
76 1 7.029502467619584 7.0695900964761815 0.18213424430918435 0 0 0
7 1 5.290887800006917 0.03160720009571812 1.507040366609157 0 0 0
156 1 23.004195194684332 3.4583376221083273 5.1589180619432335 0 0 0
1398 1 21.18648359962177 1.6193340341518165 5.34212545211272 0 1 0
1530 1 23.103665048751513 1.46185833237677 6.663968404080534 0 1 0
187 1 21.661786080817123 3.6139589322425287 6.955195306148346 0 0 0
284 1 21.677733869360257 1.4316265502767012 8.612289455689954 0 0 0
313 1 23.242241906193616 3.726122348256234 8.71966784825363 0 0 0
505 1 22.980254069206115 11.824023837657153 10.817918095209341 0 0 0
633 1 23.244820814930897 10.745054268266461 13.003901659309781 0 0 0
1039 1 12.736471142390892 14.122081851161887 1.7825195862864347 0 0 0
62 1 26.919174253897708 5.967614418533881 0.5931217809062591 0 0 0
1293 1 10.536071509480118 13.829739387780512 7.482353021965493 0 0 0
289 1 28.198787514220125 3.3343621724492323 6.489364615630638 -1 0 0
259 1 28.219287027614172 2.1454904600225073 8.256500258188028 -1 0 0
159 1 0.15791625721104433 1.6472656461487518 5.070812518924729 1 0 0
192 1 24.775467090817887 3.806610920481214 6.92018897046365 0 0 0
160 1 24.54998867255307 1.3510866954696115 4.495107980005058 0 0 0
315 1 24.602268094628446 2.114414079811042 8.819332717534623 0 0 0
191 1 26.28713581630863 3.7692450220334965 4.982839994403467 0 0 0
158 1 25.79892331331189 2.0781043325652493 6.55991242459588 0 0 0
319 1 26.28461676401683 3.585879355769212 8.525897599046303 0 0 0
90 1 22.603413330005072 9.022412437071322 0.17536245430013883 0 0 0
290 1 1.5724369564183396 7.357893925384741 5.213496053558449 0 0 0
296 1 3.2367769067851224 5.357105346675026 8.765758696410227 0 0 0
293 1 1.5311626619038317 5.5736787878794205 6.624353844984512 0 0 0
328 1 3.484387204927492 6.913122321840647 7.161219930531621 0 0 0
200 1 3.4168115036368065 8.791068749805033 5.427113545735367 0 0 0
323 1 1.7333160582316782 6.911328398085591 8.961682251958965 0 0 0
229 1 1.782392281815649 8.689190610820297 7.172385801743071 0 0 0
168 1 3.50457576270017 5.465721799031909 5.3942988041735855 0 0 0
355 1 3.4634694166749926 8.37070069896075 8.977218498769439 0 0 0
196 1 28.254679444452147 9.062823867649264 5.4382193943090735 -1 0 0
171 1 6.998320605808785 4.764275995179487 5.279399961080232 0 0 0
172 1 5.321620957388073 5.33650476302061 7.1739308709385945 0 0 0
199 1 5.149703242241991 7.081159761177718 5.394725732429648 0 0 0
329 1 7.143811071778027 6.618491592233311 6.273837248656927 0 0 0
204 1 6.963732873738046 8.747200170840573 5.251756685879246 0 0 0
457 1 6.99307705531538 5.495945300108934 8.844692920691843 0 0 0
327 1 5.422841842745719 7.044333315659679 8.884531970859324 0 0 0
332 1 7.433935763303005 8.750807549194771 9.354710577084553 0 0 0
326 1 5.466267598816141 8.649756914560108 7.4300557911776846 0 0 0
202 1 10.225508858236907 8.230652543595703 4.99172481506402 0 0 0
300 1 9.035953212661543 5.132328643296405 6.849754423846459 0 0 0
203 1 8.586820912052227 6.782273548636033 4.765725088016071 0 0 0
304 1 10.447945354206329 4.969735934503543 8.748021188799855 0 0 0
298 1 10.599182724595453 4.950711615725217 5.14041097973115 0 0 0
333 1 10.731263776892868 6.528284674173792 7.057463798780223 0 0 0
367 1 10.673833620566846 8.26997930173681 8.728369229557694 0 0 0
331 1 8.671688787332336 6.975688056077661 8.899478197667767 0 0 0
330 1 8.631584092405907 8.170972393957086 6.840841295470112 0 0 0
176 1 12.3536920913824 6.991774445749309 5.0728439235173 0 0 0
302 1 12.279880302729957 5.041817301631368 6.884396293641599 0 0 0
335 1 12.260992633061592 6.672226919877268 8.736234659018354 0 0 0
212 1 14.007430187767367 8.775342145293225 5.701473857045623 0 0 0
183 1 14.155696709511506 5.111714345573516 8.997356412519238 0 0 0
207 1 14.523297726151707 5.1797309714543704 5.534383305430764 0 0 0
340 1 14.070809893063347 7.064170389575029 7.247199302156568 0 0 0
211 1 13.74698054759976 8.75589696183791 9.118415142944498 0 0 0
179 1 15.98771365013124 5.2401998990287915 7.582768450139508 0 0 0
341 1 16.12636470584205 6.876711047598336 5.730786014605964 0 0 0
337 1 15.825140765627735 8.999879525237352 7.5576197956974 0 0 0
339 1 15.601677747479448 7.092133568798777 8.976466605437013 0 0 0
245 1 17.411655775063707 8.876876312320988 5.482053573093184 0 0 0
342 1 19.79422044700034 5.330791338409947 7.363387003797877 0 0 0
214 1 19.47959420693789 7.172444992190574 5.779674031643425 0 0 0
343 1 17.585760164959787 7.09575932671517 7.2229788366191805 0 0 0
316 1 19.80143744112165 7.456503599660693 9.016912569284157 0 0 0
312 1 17.96926076143688 5.23403907146026 9.081657729628 0 0 0
124 1 19.18188488508975 8.84846845671235 7.119009120719452 0 0 0
338 1 17.623887554628762 8.8939289322903 8.862795756166584 0 0 0
220 1 21.32469605021739 8.894140946432673 5.647996541362905 0 0 0
217 1 21.47344400375892 5.572642569138579 5.4060544143628135 0 0 0
441 1 21.50999679795744 5.422769875302622 8.658296018977442 0 0 0
215 1 22.89290336627839 7.460426917826353 5.154839232008214 0 0 0
314 1 23.249530516074742 5.622303218010632 7.083996533235877 0 0 0
345 1 21.653429813661102 7.380115587973276 7.348424612954772 0 0 0
347 1 23.67206846140157 7.125213120725309 8.903466336717042 0 0 0
348 1 21.69713405763435 9.005162204025916 8.911473873401428 0 0 0
247 1 23.13196132988037 8.979404293226548 7.152022506897013 0 0 0
222 1 24.48017602919591 8.961722395322601 5.472390148174586 0 0 0
350 1 24.62077575002158 5.882580173267234 5.191306901065402 0 0 0
352 1 24.61392656801982 9.051221031618278 9.067029601550814 0 0 0
292 1 28.103085734789687 5.082021958832036 8.680723038336348 -1 0 0
325 1 28.289938844764794 6.829005843489649 7.277817175034302 -1 0 0
322 1 0.07283182663187304 8.954775184623097 8.851794190949638 0 0 0
349 1 24.831367306027072 7.345890817480678 7.080339862571458 0 0 0
68 1 27.78823821231986 5.556900703713606 5.2158932787242644 -1 0 0
320 1 25.02651926026054 5.530664947141847 8.997991560719763 0 0 0
96 1 26.574806099856897 7.776250311590686 5.165476965050645 0 0 0
318 1 26.55142035850849 5.707354531593195 7.002443344654409 0 0 0
321 1 26.62133585531475 8.847450950703173 7.1486035082984625 -1 0 0
351 1 26.594880947506866 7.243698129857104 9.05977699925142 0 0 0
1159 1 3.807185451264009 12.30201342540716 5.383123545437979 0 0 0
1285 1 1.7001996654783598 12.790363683578072 7.424944663269911 0 0 0
357 1 1.5331292432800818 10.689226136374103 5.311487287208643 0 0 0
378 1 1.853520989983853 10.787591721902483 8.820231859105778 1 0 0
358 1 3.628508451719754 10.604155806288608 7.393670756274974 0 0 0
360 1 3.8769165472034914 12.349018838040077 8.615534286391727 0 0 0
228 1 0.07457776143490946 12.799641293142543 5.785050435002008 0 0 0
353 1 28.32523413715185 10.86195935659936 7.1044568030029405 -1 0 0
558 1 14.317180031963867 6.878191840968538 13.615486703492008 0 0 0
233 1 7.148150535781413 12.691364328735792 5.3270719521212575 0 0 0
231 1 5.625549362338171 10.395412769403068 5.44954107194423 0 0 0
1289 1 5.62572119638783 12.189015468982419 7.01500386770203 0 0 0
361 1 7.326616865828846 10.25524046644577 7.648409072278415 0 0 0
359 1 5.282247620774102 10.342819509241744 9.030991838810538 0 0 0
364 1 7.219397829922835 12.37981800167044 9.06491807683289 0 0 0
1264 1 10.808925931495038 0.4180722963962957 3.5847642158039874 0 1 0
508 1 20.53315089766524 12.238587981873266 11.957040540953134 0 0 0
150 1 19.315229232530946 5.519560180858105 0.2278200230614306 0 0 0
235 1 8.553252578756874 10.32098620384885 5.747271748751664 0 0 0
368 1 10.627683659895505 12.371641538513877 9.346459043192766 0 0 0
240 1 10.278627607030149 12.247541181366483 5.567076495572837 0 0 0
362 1 8.681410511598255 12.136154121589003 7.445997035620035 0 0 0
365 1 10.306922480838741 9.996251902136708 7.049029551022721 0 0 0
363 1 8.661325481308063 10.744241401548184 9.362196688606979 0 0 0
334 1 12.333623666267533 8.797821067421486 7.146850210615864 0 0 0
239 1 12.322136979190764 10.579313513761571 5.430360048985465 0 0 0
497 1 11.847117186060855 10.630081551102831 8.954332662795023 0 0 0
366 1 12.36356146918518 12.455533156431084 7.334672174851878 0 0 0
244 1 13.828252133305812 12.270248531380426 5.418883637350721 0 0 0
372 1 14.07210009642538 12.30646606312641 9.0598171200889 0 0 0
369 1 13.77542743338616 10.319570330133681 7.740166001118154 0 0 0
371 1 15.325543422862905 12.243213107672041 7.16540464507095 0 0 0
466 1 15.638246282889089 10.788264265679853 9.1878503813276 0 0 0
503 1 20.999772807437708 10.572480513543132 10.783222582849106 0 0 0
243 1 16.06568119925468 10.697295321227275 5.690122316055377 0 0 0
376 1 17.136389131403767 12.706843550203974 8.533941154611384 0 0 0
118 1 19.23677107465899 10.507535745771994 5.578430922311479 0 0 0
1302 1 17.899107438942274 12.515944025235287 5.5496361962993985 0 0 0
374 1 17.594973724726636 10.585043680931681 7.4349991955751165 0 0 0
1175 1 19.212229592336687 12.439372852378858 7.375965531514708 0 0 0
375 1 19.585206627106462 10.576002657329937 8.880984035283364 0 0 0
629 1 18.915477300657127 10.746577844693585 12.058803688618505 0 0 0
344 1 22.8168528858729 11.387581525666723 5.429499686757212 0 0 0
507 1 23.147000840984052 10.762795504405442 8.694479243114642 0 0 0
382 1 23.069859444173602 12.614006656185426 7.310071506746464 0 0 0
380 1 21.360721492463956 12.460826896667017 8.705147922262848 0 0 0
377 1 21.454517879435578 10.60017145989452 7.021334063350887 0 0 0
381 1 20.939324879490115 12.60093589347027 5.544682096005084 0 0 0
504 1 17.77044859728699 13.152110142603386 12.062746171988685 0 0 0
1431 1 19.454700771971837 12.401293299759326 10.220546728547436 0 0 0
81 1 14.203046184880648 6.926530316798728 0.2884415666377592 0 0 0
346 1 24.99000197174192 10.576579500202078 7.047673092808576 0 0 0
383 1 0.26215365377272964 12.817330427583087 9.397112607108944 1 0 0
1051 1 24.991153778821275 12.576135006393011 5.864889258984016 0 0 0
354 1 26.52350099617162 12.4186367347047 7.355456373773348 -1 0 0
510 1 26.875725269843205 10.711844486391774 8.830965961066443 0 0 0
253 1 26.684232668488846 10.88920344953555 5.415101312642314 0 0 0
384 1 25.070143590773664 12.296796498834487 9.110215553302027 0 0 0
30 1 22.64947800479138 0.10814139220128274 4.68800749138074 0 0 0
56 1 17.766703047411024 3.8021587599614315 0.4909588830600329 0 0 0
514 1 3.0965837081460705 1.7580110780245195 12.039144396089085 0 0 0
385 1 1.7800132792451084 1.71498748451953 10.214108171112432 0 0 0
546 1 1.189518489874174 3.131135697258162 12.32238833807027 0 0 0
419 1 3.5175781962627313 3.587970862326329 10.596396400410258 0 0 0
279 1 17.681949487579665 0.07321348976837229 7.110883041879497 0 0 0
1252 1 26.32995111376691 0.04854938873146426 4.863588408510153 -1 1 0
628 1 14.466055448076444 12.612869730661885 11.908260551605608 0 0 0
281 1 24.642587572196085 0.042675842667510004 6.705909679371224 0 0 0
415 1 26.63350186385346 0.16998957946684107 11.719333067230648 0 0 0
439 1 21.175333225633665 -0.0036536878834745323 10.6616004301258 0 0 0
421 1 6.56797051748081 3.4624536676546795 10.837310662076408 0 0 0
386 1 4.783068558852631 1.7069965036697767 10.305178424226828 0 0 0
392 1 4.916925932926921 3.238183182962436 12.523146883270531 0 0 0
400 1 6.764780468994319 1.6423965555636104 12.325977836398211 0 0 0
746 1 7.034548004912 11.082872208320829 13.97374631066488 0 0 0
396 1 8.346241114662073 3.351694215422378 12.339897985610909 0 0 0
303 1 10.146170327121107 3.402913247691082 10.64770592902166 0 0 0
429 1 8.464743210463759 1.5902087294514684 10.53479323740704 0 0 0
526 1 10.239414687649507 1.5460945323330761 12.798688090652416 0 0 0
401 1 11.801556744290673 1.922175943982316 10.653989875631328 0 0 0
502 1 17.467622583624646 10.229974166757241 10.823445340246424 0 0 0
622 1 12.655075624469873 10.570221223689597 12.781000052518268 0 0 0
494 1 16.041153447215873 12.383232198410656 13.966420339838276 0 0 0
493 1 12.45960245153386 12.517563965929545 11.01429213535427 0 0 0
122 1 22.599381908370603 12.83512000380603 0.1299800632156469 0 0 0
435 1 12.591542954299799 3.45196507930074 12.426003797717186 0 0 0
532 1 14.237198212493553 1.731236043401211 12.262338165035455 0 0 0
440 1 14.210354607069585 3.2223705609740327 10.63855118126436 0 0 0
405 1 16.11445284775017 1.3409275658441464 10.503998608417684 0 0 0
635 1 22.651523247521354 12.53752940498585 13.961005262958212 0 0 0
433 1 15.99184877725893 3.1587830346269303 12.168191174943365 0 0 0
409 1 19.69457858355436 1.7595869987797859 10.314632393343018 0 0 0
437 1 17.90387925468919 3.499423512984791 10.531643595366564 0 0 0
408 1 17.83514860419185 1.797914451199457 11.94261507390806 0 0 0
444 1 19.496371929145916 3.5588004021912676 12.098287534335503 0 0 0
3 1 1.6697597911032716 0.5372811729030673 1.845745122790314 0 0 0
263 1 5.384905495963395 0.04005708948413563 8.557110300514317 0 0 0
1427 1 16.522118721749848 12.701000886107437 10.645541738513986 0 0 0
100 1 28.319354229190896 14.095993993232446 3.6926584669592804 -1 0 0
406 1 21.382569654372855 3.380005044232075 10.335100906855983 0 0 0
416 1 21.141386115361463 1.7071801521520578 12.345778898568248 0 0 0
311 1 23.09236414058172 1.5997960412845447 10.79729678227436 0 0 0
443 1 23.063358424904195 3.2483829193440816 12.585317869477388 0 0 0
43 1 8.814263720154681 2.1676583481896072 0.05675212381157428 0 0 0
625 1 14.150324294935828 10.540231760638147 10.815833312680427 0 0 0
26 1 23.10576585149608 1.95317480244496 0.0042344798728283575 0 0 0
388 1 28.271910705623352 1.2976845274360649 12.00715748637205 -1 0 0
417 1 28.10283715631616 3.3451167707533593 10.29376594696405 -1 0 0
414 1 24.823754253682917 1.309980018627494 12.285819069460699 0 0 0
445 1 25.102460366114844 3.4621868429180402 10.707941696292734 0 0 0
288 1 26.4465148758644 1.6392454515889512 10.152322987142524 0 0 0
447 1 26.496816964741676 2.872561080939021 12.235939289563166 0 0 0
418 1 1.5308610682582482 4.881532888501138 10.54977994475604 0 0 0
451 1 1.6955705184166114 6.750850532557824 12.242879255862361 0 0 0
227 1 1.7258182474949229 8.75945937629372 10.512304158369295 0 0 0
428 1 3.0981948380429682 5.151364223315694 13.035090915019158 0 0 0
453 1 3.4384887820876053 6.802124343066775 10.97088199413059 0 0 0
456 1 3.6224915219309364 9.201855124848098 12.641135212778961 0 0 0
1234 1 19.34962158100276 0.30992173698334297 5.051617815657234 0 1 0
35 1 28.053402915927883 3.4940534307228917 0.18037180289272933 -1 0 0
426 1 6.513704202319578 5.03550030781677 12.520499819905924 0 0 0
422 1 5.046419452049287 5.151508317375744 10.706509038786237 0 0 0
460 1 4.996355761645252 7.074026270045376 12.803754489695606 0 0 0
461 1 7.000044556392164 6.883521183019273 11.444459522253121 0 0 0
454 1 5.281491189055032 8.644250611116622 10.64957002369915 0 0 0
585 1 6.852582884168824 8.622639848707012 12.60532380910735 0 0 0
431 1 10.471722251483794 4.9565989371560475 12.460939320627324 0 0 0
459 1 9.006105754903375 6.897765657907639 12.717189779342212 0 0 0
425 1 8.661155200915223 5.31151092746221 10.767875519653355 0 0 0
464 1 10.431888230699036 7.07898181308545 10.680643203545433 0 0 0
621 1 10.941123609200165 8.957609341153244 12.523621509826503 0 0 0
458 1 9.030283563858909 8.954383475422533 11.011546637344887 0 0 0
430 1 11.846906404005159 5.277231956471852 10.709426857191813 0 0 0
463 1 12.254253273876591 7.062331083956955 12.526809553856149 0 0 0
501 1 13.55297071746839 6.946217027526197 10.60303088178541 0 0 0
462 1 11.93744960928308 9.062192114638195 10.637413735091554 0 0 0
495 1 14.252963863207752 8.675394534586758 12.254577998804733 0 0 0
465 1 14.08617466927535 5.068006880000087 12.277142484421612 0 0 0
434 1 15.88820044281129 5.162054065586566 10.440102428549492 0 0 0
468 1 15.734507631949997 8.795537811396619 10.419678161734918 0 0 0