LAMMPS data file via write_data, version 29 Oct 2020, timestep = 300000

2048 atoms
1 atom types

-0.003983212780543255 28.35598321277992 xlo xhi
-0.003983212780543255 28.35598321277992 ylo yhi
-0.003983212780543255 28.35598321277992 zlo zhi

Masses

1 58.933

Atoms # atomic

8 1 1.749010825813382 3.237440745408935 1.7761791200302055 0 0 0
132 1 1.5921008269041346 1.5561901526298962 3.4682895780983696 0 0 0
165 1 3.0163626470329223 3.3537823584766753 3.6715932495994403 0 0 0
130 1 3.810768746368336 1.6828688862617338 1.7745194311399057 0 0 0
161 1 0.07884821318344559 3.7859748008841483 3.611642584721057 0 0 0
133 1 3.2032479438628743 0.09413197113921967 3.603184747168163 0 0 0
2 1 2.072556157906673 1.633286471954903 0.09388461593511943 0 0 0
35 1 0.05562870270051706 3.3828394168777978 0.19002098692341463 0 0 0
12 1 7.326551325692968 1.9616962757194192 1.5371256678022305 0 0 0
39 1 5.110500785595163 3.430946750364789 1.8974197460344417 0 0 0
134 1 5.4874387685044494 1.2052505864500171 2.9684165275146395 0 0 0
169 1 6.639396280148963 3.3509590737931587 3.8779712148898855 0 0 0
138 1 9.10542413945072 1.5421265973402631 3.6985622691191455 0 0 0
43 1 9.258887588091115 3.454521999215197 1.8909102929117851 0 0 0
16 1 11.051631801857672 1.140762641184406 1.820028065819731 0 0 0
173 1 10.6792705886678 3.160195386639501 3.9645811280689824 0 0 0
49 1 11.830782832064784 3.5525275642313145 1.463107432685284 0 0 0
10 1 9.248701055182377 1.4081115096388441 0.44184843911144794 0 0 0
52 1 14.084084721702096 3.5742892299700606 0.34301804314490025 0 0 0
142 1 12.58483165737576 1.8068856811302945 3.542317139989042 0 0 0
20 1 14.523860413333935 1.7269570041470863 2.0003306274371813 0 0 0
146 1 13.943366436747873 3.5286046059766045 3.492247756299971 0 0 0
51 1 15.719121530145886 3.767751103190206 1.9887765509718551 0 0 0
14 1 12.802363780761045 1.3284525430454326 0.25309499354606235 0 0 0
151 1 16.361066120862667 1.551056019462438 3.996752044391143 0 0 0
181 1 17.6418214402792 3.2522056241778112 3.3558707363103832 0 0 0
150 1 19.38625360913833 3.762577160755047 1.7981289757173868 0 0 0
19 1 16.871153101098848 1.6468323234309674 1.8605904538888698 0 0 0
1398 1 19.575681858008135 1.659756076608767 3.4267579371912835 0 1 0
24 1 17.633378643230923 3.656398165004442 0.46347913332660295 0 0 0
920 1 18.55730955789891 1.785855414430798 0.36752671670856957 0 0 1
59 1 22.94550557644373 3.4380954915780557 1.9287428879834 0 0 0
154 1 23.2514059018126 1.992857890299337 3.8186976144896416 0 0 0
185 1 21.234508296301946 4.212699354263148 3.442852370252892 0 0 0
22 1 20.739433117658738 1.6276917015347185 1.7043437168649043 0 0 0
28 1 21.486313394676074 0.518925740676086 3.5290400658697947 0 0 0
27 1 23.039931407053277 0.5067251278889131 1.7123930985454607 0 0 0
55 1 21.250256647611263 3.394563115950477 0.09548254174257664 0 0 0
4 1 27.905969130397686 1.8226788227180268 1.9706053183479206 -1 0 0
1 1 28.3071579290235 0.3619567074845845 0.1285769098656847 -1 0 0
32 1 24.635397231487737 2.051986232708999 1.5779539974636594 0 0 0
189 1 24.723540365586025 3.8359717458083917 3.2905315983095806 0 0 0
33 1 26.52442907475468 3.798770559948714 1.7469518128913806 -1 0 0
157 1 26.686729823488218 2.1207382349587762 3.7921004208212894 0 0 0
30 1 24.73737373635167 0.24929739477519158 3.759027281717577 0 0 0
129 1 26.131150849603333 0.4030472444167005 1.9916551034069774 -1 0 0
163 1 28.23711657751614 0.10504918846684298 3.9024504543855376 -1 0 0
63 1 26.357540425056968 1.9509299073574973 0.2963098970545275 0 0 0
34 1 1.6999038891708795 5.4572218398803 0.03248662116912764 0 0 0
162 1 1.745346839016679 5.234023796116967 3.1167115645215437 0 0 0
67 1 1.64805661907753 7.1963662628637355 1.1770659021373064 0 0 0
197 1 3.045331568277979 7.018659927541924 2.892086281783802 0 0 0
194 1 2.0803668871731924 8.769968208762789 3.509167002372804 0 0 0
72 1 3.471301699921928 8.992831441806628 1.5489100713714354 0 0 0
40 1 3.564504806026447 5.072424835975205 1.2380045675483093 0 0 0
36 1 0.12381645685686848 4.79421724780533 1.7115901021620936 0 0 0
193 1 0.09257993349210472 6.935867409425079 3.0017892254803518 0 0 0
75 1 6.5755289588017085 7.669954648934001 0.08083234656354643 0 0 0
44 1 7.228304592815903 4.851371809035496 1.3469205042835557 0 0 0
166 1 5.368319573382767 5.4544727978745 3.2113047231984484 0 0 0
71 1 5.054222426430825 7.134076399374883 1.465919792069567 0 0 0
201 1 6.968019846951849 6.765186386416335 3.2764157255643083 0 0 0
76 1 6.248080947023919 9.121483263527564 1.8153386125774966 0 0 0
198 1 5.007230733855766 8.747908783111678 3.5049601059194013 0 0 0
42 1 9.092048564085498 5.185823545622588 0.04596956902381776 0 0 0
170 1 8.539070505158314 5.012159765258904 3.431602957255105 0 0 0
47 1 10.453988351295212 5.323683583299846 1.9038316015329264 0 0 0
48 1 8.473545748133589 6.982379746552791 1.5962889158315452 0 0 0
205 1 10.292347542894532 6.902860853165053 3.2675202356033175 0 0 0
80 1 10.520190894485403 8.710044592360765 1.8184723685499666 0 0 0
202 1 8.574470041449658 8.850647033247231 3.095634642196527 0 0 0
206 1 11.837335282952212 7.153736896703471 1.9095241199548831 0 0 0
77 1 10.478854772937058 7.392780673198112 0.01877966712629326 0 0 0
81 1 13.44817936716117 7.395892256245824 0.13754334412834124 0 0 0
174 1 12.365831891687147 5.104720429822281 3.557456836517955 0 0 0
241 1 12.520682083757274 9.12041305051773 3.63647462008598 0 0 0
178 1 13.719211132657945 5.483041038638577 1.7067280408632513 0 0 0
209 1 14.233068658097466 7.114749768167837 3.6307236146589097 0 0 0
46 1 13.790854534675708 8.932413469446418 1.708685456298789 0 0 0
83 1 15.603946346364998 6.950783894616106 1.5108784340523116 0 0 0
210 1 15.872946615586942 8.524760171690936 3.0129668141982213 0 0 0
941 1 12.230787241801579 5.2865847347137915 0.09013497548567513 0 0 1
213 1 16.268099951106283 5.647613324770262 3.5766951985753237 0 0 0
87 1 17.365477105094758 5.628166570050269 1.4965944027570994 0 0 0
54 1 17.483494271189688 7.561820228038886 3.6599259454692126 0 0 0
373 1 19.41341750798582 8.942467702661217 3.515163007526001 0 0 0
249 1 19.533634888762833 7.023552013841549 1.510088034373956 0 0 0
182 1 18.993670575269878 5.7546537647257505 3.094666049254981 0 0 0
88 1 17.77180712303878 8.612485748499626 1.6270210922325328 0 0 0
186 1 23.343018632774218 5.4482375353959895 3.232792601784345 0 0 0
60 1 20.932226782671925 5.403732407708558 1.4707926130937468 0 0 0
91 1 22.685684692664314 7.1861322043364195 1.5433569737676205 0 0 0
217 1 20.83863458885168 7.028700589723212 3.237172355089392 0 0 0
218 1 22.794049248648687 9.097590536856483 3.2498185326350324 0 0 0
92 1 21.281682957543516 8.804757809619817 1.374154472971305 0 0 0
65 1 28.069494591685558 6.93808869012976 0.1556014091005547 -1 0 0
68 1 28.21645627011721 8.90206335904188 2.0882484951707068 -1 0 0
64 1 24.730892199961495 5.602454234893161 1.4988076745793095 0 0 0
190 1 26.54247976721388 5.368172352332287 3.324806479165171 0 0 0
221 1 24.60431397187268 7.380540215494833 3.399237949999971 0 0 0
95 1 26.312405767353418 7.561796736724169 1.8324258606038888 0 0 0
222 1 26.540168150858644 9.023753635904487 3.5427245045108773 0 0 0
96 1 24.497411504102057 8.851508747616144 1.7768883670495526 0 0 0
98 1 1.2615845921586708 12.799449145206436 0.4244854880769805 0 0 0
99 1 1.992367349993568 10.36921140104882 1.8565869436048936 0 0 0
226 1 1.5947320948059829 12.418436884824736 3.600667822103755 0 0 0
104 1 3.570201206403041 10.586217073412495 3.5433699956934337 0 0 0
1000 1 3.2558244997352803 12.51914889500653 1.8181698179265358 0 0 1
1029 1 3.535384316396865 14.12146232482374 0.3294967980959739 0 0 0
103 1 5.016553195521767 10.877688467076668 1.507774103107636 0 0 0
108 1 6.8663413990769095 12.44265637939131 2.14614152697256 0 0 0
230 1 4.933107384082239 12.486793296333756 3.313765191647534 0 0 0
233 1 7.525653098108757 10.58385760181782 3.4743260481949045 0 0 0
1033 1 6.95598745256273 14.112293980639446 0.4238306268686053 0 0 0
972 1 7.034384489198684 10.95543527847349 0.3317091583393056 0 0 1
102 1 5.144766595137547 12.679191062293844 0.4097402351978908 0 0 0
107 1 9.178927208578234 11.13001517521678 2.007780014094896 0 0 0
112 1 11.042539748264408 12.606191481445036 1.8222654768688558 0 0 0
237 1 10.487841104148659 10.807073899583019 3.7265826365289225 0 0 0
234 1 9.292103986462427 12.756671207205711 3.73383732335191 0 0 0
106 1 8.964681310855656 12.678139972408294 0.3882151306316296 0 0 0
1042 1 15.682727489497207 14.022677119981104 1.6819776190253484 0 0 0
238 1 12.339043405034943 12.109332683761226 4.1973158422327135 0 0 0
111 1 12.243952043334135 10.667247842134213 1.9635089975290647 0 0 0
116 1 13.724679079700547 12.514272334497111 2.108517117037037 0 0 0
1043 1 14.462765659730834 10.312147985212682 3.3418861414034886 0 0 0
242 1 16.02608859807161 12.46985449811915 3.6970200171897587 0 0 0
113 1 13.929388350944341 10.566594344781361 -0.0036864199612813855 0 0 0
1169 1 13.772866101921295 13.991193077024462 4.057726839139178 0 0 0
1045 1 17.802847779385196 14.09096038340923 0.0635316959160612 0 0 0
1173 1 17.722094748450406 13.965179323977246 3.920997270014953 0 0 0
79 1 16.212969597490446 10.776080585298484 1.4871180100185417 0 0 0
84 1 17.69648101392214 12.652849715127681 1.9458001041332622 0 0 0
245 1 17.807867334154583 10.493866255220286 3.242309325742353 0 0 0
246 1 19.348731657107784 11.859280679775903 3.6746161951668146 0 0 0
119 1 19.332608732503026 10.308938157428303 1.3577373702302258 0 0 0
120 1 19.714082681624845 12.67107091200071 0.09576673376107792 0 0 0
122 1 22.820167817571193 12.631911586924721 0.3614380202171779 0 0 0
1047 1 20.939940245611982 12.342193364196353 1.9929511157737665 0 0 0
118 1 21.148265480654054 10.658652631191831 4.015734884765392 0 0 0
123 1 22.579062310517067 10.86715750926447 2.0330286894817244 0 0 0
250 1 22.63873312052664 12.210147567374992 3.6481816142978785 0 0 0
1177 1 21.124402080813613 14.005158530701356 3.5249158368229545 0 0 0
1181 1 24.848546469290127 14.159014988815521 3.7860904473039185 0 0 0
1025 1 27.65507197340925 14.167801786100663 0.27457055969412103 -1 0 0
225 1 28.344633490377703 10.571693439823397 3.462883749756093 -1 0 0
100 1 28.256164658422627 12.883025808395788 2.0249331561558694 -1 0 0
128 1 24.43455885391177 12.670518122603836 1.9675504980628231 0 0 0
253 1 24.644933719657327 10.690945551029865 3.4588873914331693 0 0 0
127 1 26.145335412723295 10.385055775052736 1.7006551341513982 0 0 0
254 1 26.33758411427948 12.29969447499713 3.376419217826997 0 0 0
125 1 24.354781538576756 10.826215324195326 0.14633736378436177 0 0 0
97 1 28.122992785048933 11.115456997895395 0.16340305966197527 -1 0 0
126 1 26.329046657057084 12.46158666593633 0.458950269165975 0 0 0
257 1 0.18763951377250265 0.19814848783329125 6.868426589339005 0 0 0
164 1 1.9489508443742498 3.7811745428968586 5.33160627063749 0 0 0
258 1 1.9717178081548716 1.5746516107859785 7.286390742043444 0 0 0
264 1 3.3484391514820007 3.6951763331861263 7.227761123077972 0 0 0
291 1 1.7596191883937258 3.649061206758541 9.086256699408144 0 0 0
136 1 3.1156654689839405 1.7844811486687073 5.128148715918646 0 0 0
389 1 3.309635671158546 1.8456462292173437 8.771405244406557 0 0 0
159 1 0.2789619864346525 1.8695488513545198 5.479897028856778 1 0 0
289 1 0.10748385912046535 3.6888704200356437 7.096746400073806 0 0 0
140 1 7.208781859966251 1.2387984835841357 4.9552858867009855 0 0 0
167 1 5.020449363203959 3.442204836872157 5.290230696197339 0 0 0
262 1 4.909768114605316 1.7948027778552136 7.141315040748472 0 0 0
297 1 6.874242325508526 3.4743290617273845 6.596933375258513 0 0 0
268 1 7.122372317615563 2.36755880783684 8.92019578609276 0 0 0
295 1 5.150127136283988 4.133859484057651 9.039960987308879 0 0 0
265 1 6.992146571054281 0.425812822529715 7.201665765251782 0 0 0
135 1 5.083139045365834 0.3161709487454614 5.381958251880006 0 0 0
263 1 5.373821152446225 0.2671784982093203 8.799893667111526 0 0 0
393 1 8.865881853448224 0.5040974505185827 8.737155029128438 0 0 0
139 1 8.99878637687696 0.024423229998557647 5.529274119976387 0 0 0
269 1 10.520964204926706 0.2769402576339495 7.382688912717128 0 0 0
266 1 8.6627058448803 2.338105599180072 7.353517113661908 0 0 0
144 1 10.859118455953382 1.1502107773314205 5.463743967681924 0 0 0
171 1 8.701437808328668 3.4546325792656694 5.351045831554055 0 0 0
301 1 10.564271535970889 3.528367528697503 7.199313998440905 0 0 0
272 1 10.484794721481304 1.807595490116601 9.170430540200087 0 0 0
299 1 9.279627790772798 4.0293119747086115 9.033692276935911 0 0 0
275 1 15.908231989796755 0.4291689374502198 8.954164838012435 0 0 0
270 1 12.478535271546114 1.6727801933217263 7.133199252187921 0 0 0
177 1 12.239610810093367 3.733074580057813 5.441708526455225 0 0 0
148 1 14.446626137323134 1.797627785216341 4.999340926820894 0 0 0
305 1 14.098670645170165 3.3867404668428565 7.067760038211058 0 0 0
276 1 14.044587351007854 1.9237957582420528 9.028783576515357 0 0 0
274 1 15.719996459322221 3.503124832482514 9.375156740711184 0 0 0
277 1 15.770362027099516 2.086696644517558 6.798924883073956 0 0 0
303 1 12.327599399484551 3.913233891177226 9.048717082640264 0 0 0
179 1 16.080689584385276 3.6237087105421835 4.889455197892771 0 0 0
273 1 14.43770841201712 0.1897096207027234 7.083049910478735 0 0 0
1271 1 19.51195408445228 0.015978058424307346 5.276936566705799 0 1 0
1526 1 17.794773361537537 1.9829136026457843 9.020594001483405 0 1 0
183 1 17.702092264719134 3.5705149182268308 7.063480197246366 0 0 0
278 1 19.874046522931515 2.7856080984751257 6.928725137089422 0 0 0
282 1 19.366215296257863 4.0998628643360755 4.733416634432526 0 0 0
280 1 18.061891158415346 1.6763328371356605 5.453672513438946 0 0 0
311 1 19.703153599341707 3.968595175607632 8.82592006726119 0 0 0
279 1 17.750195293105737 0.7438399977044677 7.181067718518461 0 0 0
409 1 19.68467270054891 0.3808850241637575 9.119818984321716 0 0 0
283 1 23.406570125586736 0.29249843567335854 8.388994944155092 0 0 0
152 1 20.423420339063057 0.641233641318939 7.195562847425749 0 0 0
156 1 21.014883454433956 2.021583122169841 5.326443967196101 0 0 0
192 1 22.768542674481115 4.089198308544708 4.942125272704384 0 0 0
281 1 22.842314381421346 2.5460271472267118 6.895144244183531 0 0 0
313 1 21.483618497069013 4.510921982196884 6.931772662162659 0 0 0
315 1 23.061560035473082 3.9938441157763314 8.99766557374339 0 0 0
284 1 21.24957546360219 2.2482760180417043 8.810250093536647 0 0 0
153 1 23.05142976435572 0.41399633701290517 5.8851338094596874 0 0 0
285 1 25.04490671331486 0.14210386562639954 6.9095049127843025 0 0 0
259 1 28.25846744069058 1.8137307453056661 8.565102904533619 -1 0 0
317 1 24.677219190457947 4.0362783115251135 7.072826098677575 0 0 0
160 1 24.77022557786762 2.536856326919136 5.4721196460297 0 0 0
191 1 26.78679083763224 3.7706436340288216 5.178103834094421 0 0 0
158 1 26.68728665904789 2.032481238573846 6.545256540085265 0 0 0
319 1 26.698121863883042 3.641299569489656 8.637035699760697 0 0 0
288 1 24.724486340715753 2.0399445374988354 8.042497462888607 0 0 0
296 1 3.3275117648142776 5.579775978629877 9.363603115209857 0 0 0
293 1 1.7541788862177572 5.258421238097031 7.241066122962251 0 0 0
195 1 1.9379006243963943 6.890719534861804 5.1372697045187685 0 0 0
227 1 1.6549641425960229 8.719785345649122 7.126832240578777 0 0 0
290 1 3.2164055404661362 6.76893980662605 7.1589292376722575 0 0 0
323 1 1.4586448745637697 7.346671902375713 8.840069967245968 0 0 0
168 1 3.591469498927416 5.320436485713374 5.114896984353738 0 0 0
328 1 4.000829288720402 8.71034864233706 8.96355773541015 0 0 0
292 1 0.14362332252247498 5.482216493689094 9.027664839038044 0 0 0
196 1 0.13659687215423613 8.740149760706233 5.1304618196081835 0 0 0
200 1 3.4815244877533345 8.89799740546488 5.532011993615209 0 0 0
325 1 0.07346013998027974 6.9716297899606205 7.098135793532832 0 0 0
172 1 6.968772999809967 5.416976644484102 5.373034580292892 0 0 0
204 1 6.943964786920357 8.69898552966523 4.79715228549481 0 0 0
294 1 4.953735125499885 5.249876507382565 7.042589507246347 0 0 0
199 1 5.0664231695772886 6.976831453048198 5.280962060541839 0 0 0
329 1 7.077681562748308 7.06151197458809 6.798119634286856 0 0 0
326 1 5.313591112004626 8.59548785231102 7.000866253111975 0 0 0
327 1 5.180488405464605 6.802702243972833 8.758955520757146 0 0 0
332 1 6.834443105381798 8.975498419511553 8.324826464762237 0 0 0
300 1 7.1446081813006925 4.764022170643738 8.486310605488436 0 0 0
208 1 10.555619971451037 8.758863721844756 5.071055370037608 0 0 0
203 1 8.87041923621992 6.92128120844251 5.073440289890958 0 0 0
304 1 10.799585721930292 5.931878559118766 8.572007488139338 0 0 0
176 1 10.559383909551148 5.259837587846634 5.275191460896526 0 0 0
298 1 8.780531230491057 5.090745043605795 7.059864718633886 0 0 0
333 1 10.697377094465907 7.157959701059833 6.714685084013213 0 0 0
331 1 8.582648249390312 6.974376277109798 8.794887875446316 0 0 0
330 1 8.724948824305837 8.61456295768595 6.833561722101369 0 0 0
336 1 10.46820592104776 8.530069035122706 8.671491654606482 0 0 0
335 1 12.897186645129104 7.38175897145192 8.738478064003266 0 0 0
334 1 12.631441327454395 8.29624345449044 6.838397523806284 0 0 0
207 1 12.472449725699917 7.026075610362479 5.144311938403128 0 0 0
302 1 12.906051136966271 5.568248282785324 7.132296153627057 0 0 0
180 1 14.386814892811763 5.074864237473397 5.070313515252915 0 0 0
212 1 14.485023876137454 8.925581910797769 5.336825566490979 0 0 0
308 1 14.332294628136092 5.3800573188620175 8.963353671188528 0 0 0
211 1 14.818612749805883 7.3465303541297144 6.807442189522338 0 0 0
340 1 14.36536210585292 9.095608170525129 8.99992811285056 0 0 0
306 1 16.005308058011067 5.0896958159583106 7.309547750826951 0 0 0
339 1 15.810902559176675 7.213971002863181 9.086062134286811 0 0 0
337 1 16.52429476196807 8.997043315609204 7.226806637533308 0 0 0
216 1 16.638579152751408 7.140629787833332 5.551120496270428 0 0 0
184 1 17.63078417166786 5.223545192014985 5.443311267314001 0 0 0
214 1 19.11992553684034 6.986456362986469 5.5334441285939375 0 0 0
312 1 17.66641424564398 5.2696480386516775 8.951002830993867 0 0 0
341 1 18.016498603009016 9.048175873410162 5.509830417447794 0 0 0
310 1 19.290549499148057 5.503838234027823 7.300972501057916 0 0 0
343 1 17.59863923407018 6.999323110015622 7.595247312743777 0 0 0
338 1 17.935610408151692 8.90756125229382 9.29262289868333 0 0 0
342 1 19.296362028522392 8.583195103618651 7.405106152887666 0 0 0
187 1 21.364287095047736 5.947872672901876 5.074063586063512 0 0 0
314 1 23.23780625941641 5.985651275352435 7.019942140650094 0 0 0
215 1 23.180419171703765 7.387031255567288 5.105432115158093 0 0 0
220 1 21.289212098661277 8.37238760421501 5.573720119093686 0 0 0
345 1 20.905159969399143 7.124141738063843 7.307870849446184 0 0 0
247 1 23.251704950455725 8.747077305619465 7.227003869367126 0 0 0
347 1 23.229450529739 6.820544113699189 9.207146623183004 0 0 0
348 1 21.507134832386743 8.34581138760407 9.0149244295055 0 0 0
441 1 21.42066979714829 5.69095223337769 8.944063043571656 0 0 0
321 1 28.284635199193275 5.827230895319828 5.104148139902845 -1 0 0
322 1 28.09089864350232 8.820448282922277 8.736345191546935 -1 0 0
223 1 24.88491261840725 5.541453431731588 5.197433506650931 0 0 0
224 1 24.57347735572897 9.034609085266927 5.430069868296367 0 0 0
318 1 26.903793598313555 5.322729772557475 6.958529020150075 0 0 0
320 1 25.16876132877067 5.224400209833914 9.003805767368325 0 0 0
350 1 26.420744807937467 7.201046578841918 4.905046290586898 0 0 0
349 1 25.141104247146618 6.998183275104984 7.136550073034817 0 0 0
351 1 26.90149940914475 7.191790168920518 8.929810005056206 0 0 0
219 1 26.770375352785365 8.587336459789414 6.773236130048908 0 0 0
352 1 25.15683259512657 8.541317306539 8.855264066809891 0 0 0
1155 1 2.0036820210521125 13.752597149838858 5.980395704626562 0 0 0
1283 1 1.725199152646846 13.944393200571046 9.198124130685077 0 0 0
228 1 0.1336192973018788 12.384971618155559 5.538360442649958 0 0 0
229 1 1.966873113988186 10.596560129176213 5.215639142223328 0 0 0
354 1 1.2621706964009212 12.03251579136365 7.4358720336534025 0 0 0
357 1 3.312489344671089 10.63307653303604 7.287754498165201 0 0 0
355 1 1.4527310765866057 10.442312480506162 8.775199718966686 0 0 0
232 1 3.8424324074745613 12.613334378524748 5.695294403935321 0 0 0
360 1 3.3836636679777485 12.277011052245943 8.86958779349455 0 0 0
1285 1 3.960967856586987 13.915463868384354 7.645908995550257 0 0 0
236 1 6.918045522778492 12.397418947218918 4.991312726773883 0 0 0
231 1 5.02624645228579 10.835014367751404 5.094629215082712 0 0 0
358 1 6.153240241456165 12.62842722056441 7.00275549966026 0 0 0
361 1 6.757003404077286 10.47633309597333 6.575588491608077 0 0 0
364 1 7.170741078221506 12.323970865896007 8.828758991707677 0 0 0
359 1 5.447425040117059 10.925630428164025 8.557072345298552 0 0 0
1159 1 5.402258296463047 14.157335736069555 5.160951290833186 0 0 0
1287 1 5.696344623055572 14.068112076293737 8.724215837739518 0 0 0
1289 1 7.474366458644697 14.145948269016923 7.0954455073032285 0 0 0
235 1 8.864274816781148 10.360514215023748 5.402483240547337 0 0 0
240 1 10.504331850521927 12.351391819649411 5.486519383434237 0 0 0
362 1 8.735452605691787 12.145136154379395 7.064357911765612 0 0 0
365 1 10.330221381486211 10.487668904453137 7.167412843491355 0 0 0
363 1 8.600641954089172 10.261933745213248 9.048422047655153 0 0 0
368 1 10.108534229769086 12.152912146370827 8.930084116829244 0 0 0
239 1 12.025543145745905 10.234205064686622 5.671833995885827 0 0 0
1163 1 8.617382815711547 14.105368840998912 5.315692151636195 0 0 0
1295 1 11.998249128479587 13.436288870245376 8.497960542848721 0 0 0
1291 1 9.106638663104428 14.139269521535965 8.92372755645092 0 0 0
1171 1 15.620249126178136 13.869036866870402 5.681499478311916 0 0 0
367 1 12.248031894609147 10.04585354928332 8.67252781325025 0 0 0
366 1 12.35197994872455 12.036609158849986 6.9435595560962735 0 0 0
244 1 14.06985450525578 11.916299926649353 5.4277471018494285 0 0 0
369 1 14.017367986467761 10.250369373380142 7.263579699414106 0 0 0
372 1 14.177401436342645 12.104898974909744 8.704980066741543 0 0 0
371 1 15.800964249123151 11.851671015679843 6.899486231966483 0 0 0
466 1 16.099067317012878 10.677699516203417 9.16361995143137 0 0 0
1297 1 14.699098008413346 14.073335816155772 7.752423657106195 0 0 0
1167 1 12.421660659922555 14.0745130438137 6.101280785692685 0 0 0
1299 1 16.206610817526585 13.41168381019314 9.395271671729835 0 0 0
243 1 16.330273275603947 10.310614447614224 5.086777866844093 0 0 0
248 1 17.721365295359096 12.05854245961139 5.684023117929532 0 0 0
124 1 19.687167104452783 10.212803617651126 5.682891249063703 0 0 0
374 1 17.99822977650099 10.407912085646117 7.758899469078978 0 0 0
376 1 18.099642260397417 12.383363048264115 9.315715573953133 0 0 0
1175 1 19.85008946650728 11.954697341796745 7.524283904307767 0 0 0
370 1 17.537549997787306 13.88666684940422 7.321484422080336 0 0 0
1302 1 19.398838195192354 13.859319288862013 5.848194555046313 0 0 0
379 1 23.184584540678213 10.122562380787329 9.222966030600386 0 0 0
380 1 21.930347550270618 12.02305483852687 8.98153716562183 0 0 0
251 1 22.71090744431584 10.59435123941037 5.6007569525528895 0 0 0
252 1 20.938823614292755 12.516831050457446 5.646824212733465 0 0 0
377 1 21.369956662996692 10.10682181371849 7.52180986781702 0 0 0
378 1 22.64341313339382 12.440928467191688 7.170082471083406 0 0 0
1307 1 23.07997175459487 14.007876961151077 8.834327713236908 0 0 0
1309 1 24.985942077771583 14.006423069433332 7.216375291577441 0 0 0
353 1 28.042576854558884 10.429252577796884 6.776967592880266 -1 0 0
356 1 28.095123388479585 12.422422537487824 8.81953295115779 -1 0 0
383 1 26.705474036852532 10.690448641065899 8.93437461410781 0 0 0
255 1 26.631538291959146 10.834373988277527 5.142063860194489 0 0 0
381 1 24.416543480723934 12.180546274804824 5.548786157792631 0 0 0
384 1 24.799404569348717 12.082780786793325 9.080792264221142 0 0 0
346 1 24.57520703288573 10.684119942048454 7.316055738953914 0 0 0
382 1 26.606835619285334 12.100337465125856 7.2266859008722735 0 0 0
387 1 2.304949119775332 0.06035615109947405 11.877966395605217 0 0 0
385 1 1.8105742786208434 0.9791615346022735 9.981547001015421 0 0 0
546 1 1.9902526296347576 3.306490907471489 12.62525254535951 0 0 0
419 1 3.5811004448460406 3.309039296972572 11.283151499662278 0 0 0
388 1 0.277840211089063 1.6566805504014723 12.428143511618552 0 0 0
417 1 0.30700102799214707 2.924551864158579 10.423606243935241 0 0 0
513 1 0.45509138257877624 0.13998692895881795 14.1358768120156 0 0 0
424 1 3.979987596081582 3.4715240971913683 14.171608875664143 0 0 0
394 1 6.797698445330915 0.36517339515702624 10.56081588347226 0 0 0
386 1 4.30245866425594 1.5049787998837472 12.490335396703646 0 0 0
421 1 5.5586278778509355 2.2917164255341578 10.41308743892027 0 0 0
392 1 5.529261368395431 3.759709671062955 12.375616284069707 0 0 0
396 1 6.978086940047393 2.1018992160534484 12.651984651607492 0 0 0
425 1 7.076483048237347 4.203740870241732 10.718312978327354 0 0 0
518 1 6.098529545534358 0.024758502881208955 13.149214383252822 0 0 0
395 1 8.613481951328723 0.5448965844912995 12.112426503850438 0 0 0
397 1 8.580958083756565 2.3820943446714016 10.585495004320608 0 0 0
427 1 8.530532387394176 3.718351816105242 12.599415389353071 0 0 0
429 1 10.331730315158069 4.204365007932928 10.912648486822976 0 0 0
398 1 10.55781975321019 1.9239502145292484 12.362058593500157 0 0 0
401 1 12.13120498736965 1.9009267725806516 10.73863772403835 0 0 0
1514 1 10.251564097550899 0.05451290031247812 10.686708462824148 0 1 0
557 1 10.477721541590377 3.5983007835456307 13.976716226067525 0 0 0
529 1 14.001472524339226 0.31161451259127715 14.052965404689324 0 0 0
403 1 15.725934226996799 0.3881074682842698 12.799768018642029 0 0 0
404 1 14.231036241729182 -0.00024445408646171785 10.581325364874461 0 0 0
431 1 12.155309102314423 3.716751296396447 12.40227763521665 0 0 0
309 1 13.81862489879788 1.7945198206694375 12.317405402436675 0 0 0
433 1 13.707391668474036 3.926737846267199 10.802872779001953 0 0 0
435 1 15.871485287955931 3.849413188335726 12.233407497679423 0 0 0
402 1 15.76598901401819 1.8965913986925753 11.216349559934033 0 0 0
526 1 12.363054847620418 2.0170456374945926 14.093919998122136 0 0 0
405 1 17.469387583923766 0.11770310246493224 10.812422678547039 0 0 0
307 1 19.17349830956526 0.04979282862203597 12.47826803917208 0 0 0
530 1 17.8538145989718 1.9308511267343336 12.697232202130674 0 0 0
437 1 17.724293198366514 3.380274650871046 10.859057769166732 0 0 0
444 1 19.469562351199798 3.6628518729756627 12.581895010785939 0 0 0
408 1 19.32630430462504 1.7308887594527191 10.891063408445545 0 0 0
569 1 21.41186702713592 3.6133983487051555 13.939662978124407 0 0 0
537 1 21.48742872729748 0.4537816839793213 10.853085029184493 0 0 0
411 1 23.590881448720534 0.25114251034960927 12.29653271521799 0 0 0
439 1 21.594082613197948 1.6850589165721768 12.84835318501684 0 0 0
406 1 20.9951733979967 3.435619917984928 10.782966589451457 0 0 0
410 1 23.50743908987079 1.7953811899359968 10.116288873755938 0 0 0
443 1 22.771183354228558 3.1806673463273127 12.411640051756157 0 0 0
415 1 26.789985340242218 0.09713125579587023 12.273338657969264 0 0 0
445 1 25.266573651543712 3.7581442446654587 10.556277584658332 0 0 0
416 1 24.90563084906766 2.242170543641503 12.425429099025862 0 0 0
414 1 26.273832941929424 2.031728811579547 10.287825571614706 0 0 0
447 1 26.964198528286655 3.1708618104620956 12.50867068438558 0 0 0
287 1 27.954489967502102 0.38200563035382595 10.263577398316771 0 0 0
446 1 27.06135403757891 4.695595818245245 10.64166484424617 0 0 0
613 1 2.034933602446251 5.348487928722502 14.163421146424136 0 0 0
428 1 3.6831596802648563 5.390161324883537 12.56639385894674 0 0 0
418 1 1.7768832724739028 4.9396636375053715 11.007799536662349 0 0 0
451 1 1.7707174531957897 7.085694270088762 12.215680424603844 0 0 0
453 1 3.174109467119836 7.164538776406628 10.7248613200901 0 0 0
456 1 3.2977621823288903 8.899194487269078 12.173570350573684 0 0 0
324 1 1.4444055448016069 8.785737489389007 10.608378507750256 0 0 0
420 1 0.02206352074676338 4.95021753188319 12.478846679887921 0 0 0
449 1 0.017146021899325348 6.8848340308681255 10.760792517318107 0 0 0
484 1 1.9006063312328711 8.953964750661582 14.0970201032558 0 0 0
422 1 5.432102175110926 5.6723420008844965 10.709734930430006 0 0 0
423 1 6.9321162134628524 5.4531106850670215 12.767384931214757 0 0 0
457 1 7.0841158782474904 7.3892975952308255 10.539290825685013 0 0 0
460 1 5.48571380704332 7.233032719489599 12.361699540623938 0 0 0
454 1 5.308090721141067 9.307067291813441 10.733783670972787 0 0 0
617 1 6.956542748067517 8.974559179151273 12.3758970305665 0 0 0
585 1 6.912905676690672 7.150999481633588 14.076057492888804 0 0 0
582 1 5.429103217488877 8.767592142276603 14.1083498307666 0 0 0
458 1 8.678613074636418 8.76696553179834 10.879793591269753 0 0 0
432 1 10.664768191439787 5.499323219662818 12.824050246172416 0 0 0
426 1 8.797649606788605 5.71804617136925 10.552346407619602 0 0 0
464 1 10.23352425331183 8.39800510633413 12.45462267050286 0 0 0
459 1 8.612901605850725 6.643213116981906 12.102419917467204 0 0 0
461 1 10.459758748905177 7.255782762755233 10.623848657514221 0 0 0
586 1 8.609814594861982 8.805347136946253 14.091186427545892 0 0 0
430 1 12.220013622001773 5.665896428150483 10.834789839352764 0 0 0
463 1 12.504908225542346 7.455087521131182 12.636464321283485 0 0 0
462 1 12.61189317800017 8.70968216494254 10.472658498339621 0 0 0
436 1 14.46402558454681 5.582705823429751 13.042434781275869 0 0 0
468 1 14.332290611526243 8.743693745718812 12.506666046976411 0 0 0
465 1 14.27819506601647 7.208305434572261 10.633302467473566 0 0 0
467 1 16.124645025630763 7.102118819701854 12.782953187441661 0 0 0
434 1 15.864285956607738 5.462238141169922 10.727534458837342 0 0 0
316 1 19.681628041496555 7.108432281672685 9.643490314167826 0 0 0
501 1 16.247776275352276 8.598768798823665 10.903042826919114 0 0 0