LAMMPS data file via write_data, version 29 Oct 2020, timestep = 300000

2048 atoms
1 atom types

-0.007117929484413921 28.35911792948331 xlo xhi
-0.007117929484413921 28.35911792948331 ylo yhi
-0.007117929484413921 28.35911792948331 zlo zhi

Masses

1 58.933

Atoms # atomic

8 1 1.240290513992888 3.3077133503441414 2.1600505897372004 0 0 0
163 1 2.1410914549378313 1.5305734329150793 3.7687998969055103 0 0 0
130 1 3.542285043724919 1.7726863092574714 1.9588983112541694 0 0 0
132 1 3.464366662427892 3.9143350519730093 3.374712714118327 0 0 0
1183 1 26.57753225680682 14.159390980816942 5.4635177013627905 0 0 0
27 1 23.371926328223047 0.22313197558808895 1.771665993801266 0 0 0
1431 1 19.222701450510883 14.145383405782258 12.336764916989504 0 0 0
512 1 25.173174792634732 12.447492915036445 12.427905825577355 0 0 0
261 1 3.004455452218972 0.25933086577384185 7.486292339933864 0 0 0
12 1 6.709248029339029 1.4185342524623563 1.9242963430853863 0 0 0
39 1 5.185919847461022 4.016590769923034 1.9752301574448292 0 0 0
134 1 5.02646229950819 2.032477575922144 3.7270290932755437 0 0 0
166 1 7.043398726817479 3.5553477869476358 3.345769276399209 0 0 0
1025 1 0.27545515834848516 13.893029119071379 0.1789734467743345 0 0 0
409 1 19.220981807055814 0.27669429690938585 9.060802252841428 0 0 0
169 1 8.85065705645622 1.9800150759545685 3.508384325656619 0 0 0
41 1 9.096813125730803 3.450442797376234 1.5341533748808618 0 0 0
173 1 10.89247371400717 4.244072389666033 3.6988667562176136 0 0 0
15 1 10.853284107991978 2.1491715904070565 1.9716982383510795 0 0 0
1042 1 17.7009862295345 13.901616450293893 2.879198048297766 0 0 0
142 1 12.352660883045958 2.2798130148899927 3.6575014867440148 0 0 0
49 1 12.49767867538768 3.8404123974828375 1.4059897067150524 0 0 0
20 1 14.300467167193997 1.5971213316387107 1.5827782791361062 0 0 0
146 1 14.48056367647132 3.4321254716869785 3.194490265575609 0 0 0
51 1 16.056215642645164 3.3752500256200126 1.5716703324169314 0 0 0
151 1 15.861029319291573 1.6173488894424186 3.931598620418861 0 0 0
626 1 16.018564409884426 12.502811913082777 14.076745547093811 0 0 0
498 1 15.936231642833954 13.968929997903444 8.459726221040752 0 0 0
1437 1 24.699534349413717 14.15978046350824 10.552395063825582 0 0 0
181 1 17.90748036836392 3.459661591791107 3.3114670176041843 0 0 0
19 1 17.863606793634702 1.696980317877184 1.871836292552735 0 0 0
1398 1 19.725621095361475 1.8013984538811925 3.663669943571065 0 1 0
150 1 19.792416643268986 3.634056706402705 2.0573067512008523 0 0 0
1553 1 14.455146524485356 14.172773961431409 14.08886055845376 0 0 0
129 1 26.75172755068735 0.07930616403565996 1.5090899681259522 -1 0 0
511 1 26.53379735933477 10.624379187632396 12.656852504296623 0 0 0
510 1 27.036856888019337 12.019992949272751 10.621246111659381 0 0 0
509 1 24.873030311610925 10.093326051849179 10.58699098149921 0 0 0
286 1 27.06744448285319 0.1221638147267908 5.943237263507431 0 0 0
154 1 23.106264072459247 2.0525879041088557 3.290833848341556 0 0 0
185 1 21.651059423668094 3.8022781182885916 3.077021418536748 0 0 0
22 1 21.25114892962064 1.6886794110786685 1.3601269681550545 0 0 0
59 1 23.149511562296226 3.2227758104137227 1.4104715654470372 0 0 0
1051 1 23.14092199368217 13.794558514555131 1.5959338684568263 0 0 0
4 1 0.1911709789535223 1.437674377331764 2.1461845915159095 0 0 0
265 1 7.235126180077409 0.4688342261098195 7.090309511573484 0 0 0
273 1 13.921652159223683 0.22705598945239674 7.194359679328764 0 0 0
161 1 28.273633556644953 3.103891727326558 4.284097990749595 -1 0 0
223 1 25.02563900667203 3.642841272113464 3.352395411002743 0 0 0
32 1 24.917565272030387 1.9312963158082863 2.0146733666660284 0 0 0
189 1 26.849657007264938 1.4581716559532767 4.247311156604923 0 0 0
33 1 26.806886750636387 3.1299255968062694 1.744941227578264 -1 0 0
1413 1 3.8137357837472075 14.068317298064228 10.959767589963095 0 0 0
40 1 3.2790593264325074 5.514489989853738 1.8203434000768937 0 0 0
162 1 1.842449157585075 5.655952265083259 3.626720516625315 0 0 0
67 1 1.0198122942280425 6.814677923957469 1.5544190558590674 0 0 0
197 1 3.5462524519633565 7.233258050778534 3.3952064581718013 0 0 0
194 1 1.8826736571718208 8.555524655398223 3.116059704819815 0 0 0
72 1 3.6550387180300246 8.589610173946763 1.6479750725092612 0 0 0
95 1 27.91233976820456 9.011968564169386 1.9033199069060072 0 0 0
68 1 28.1546864483431 7.096320948412812 3.747530362169464 -1 0 0
36 1 28.204522066357868 5.0948475168076435 2.01633205950887 -1 0 0
285 1 25.047287529955966 0.21278078673098488 7.607518448255438 0 0 0
287 1 0.08491318930786207 0.13287313844225643 10.77450350860707 1 0 0
920 1 19.402904854567204 1.9689145962903736 0.19146277340235043 0 0 1
165 1 5.069545935711286 5.503394806765727 3.99859816168758 0 0 0
44 1 7.188379928585339 5.095196616895038 1.8074227414815538 0 0 0
71 1 5.28614916031228 6.57387012190335 1.8382358383045383 0 0 0
201 1 6.959698709554666 7.013543101146385 3.5392729877653313 0 0 0
198 1 5.372339896055849 8.751784582733674 3.2781825824233715 0 0 0
76 1 6.811147927671393 8.56394379651077 1.4462717629683046 0 0 0
1291 1 8.742704234818563 14.162785514782865 8.5972030246028 0 0 0
37 1 3.4287947781273407 3.524655906914082 0.5597440919196747 0 0 0
141 1 9.182534344612446 0.17745465403486316 1.5520078398996549 0 0 0
1055 1 26.845125280824448 13.915875786586085 1.7968448463533417 0 0 0
170 1 8.894325338058023 5.09167415139586 3.3786058148298026 0 0 0
47 1 10.930233571659947 5.474775972182572 1.369936800618813 0 0 0
48 1 8.444760181520337 6.907647780982075 1.6960878128139136 0 0 0
205 1 10.591966508547893 6.895302877221294 2.7285585288699745 0 0 0
80 1 10.961128771832678 8.615835036194683 1.5228133100771903 0 0 0
202 1 8.84261608971318 8.725391886465626 2.674489751007196 0 0 0
271 1 12.185079850684732 0.07605746354547449 8.829441789141802 0 0 0
143 1 12.397602771361532 0.14716792662131467 5.250455473585493 0 0 0
139 1 9.082840273918846 0.19509702296618608 5.160919180831769 0 0 0
206 1 12.872170909816814 7.112869451466518 1.9841986991619944 0 0 0
174 1 13.172249387609591 5.256034587063009 3.4565941901539405 0 0 0
178 1 14.620345011780271 5.067054966617367 1.7045610861499423 0 0 0
209 1 14.44639004779728 7.14215155596321 3.6627751791300383 0 0 0
213 1 15.975406182797052 5.137118058949581 3.6514982431273366 0 0 0
237 1 13.058386399031294 8.993236418115728 3.4470877325850915 0 0 0
241 1 14.327514955296312 8.708942224614578 1.7548332574068923 0 0 0
83 1 16.229752562202542 7.232175937240778 1.899319273091273 0 0 0
210 1 16.07601993403933 8.673389992323902 3.5154213606480975 0 0 0
137 1 6.700938916931849 0.3814866255830543 4.080938469486373 0 0 0
518 1 5.750728825980077 0.23395291991783107 12.814796620921408 0 0 0
562 1 15.779601145919402 5.2464783602649 13.903199482727747 0 0 0
1271 1 19.714276477918247 0.08444307245580518 5.270593379620611 0 1 0
182 1 19.58379208906065 5.176164588172423 3.560344010578254 0 0 0
87 1 17.726838197378946 5.287792729454046 1.886007049668357 0 0 0
54 1 17.99768891697314 7.057905228082619 3.2948337786167188 0 0 0
249 1 19.86374144447045 7.355922439092028 1.969023609803471 0 0 0
88 1 17.974665787738232 8.632987980687945 1.3340222881631154 0 0 0
373 1 19.52595211722302 8.925266443951477 3.7130367616470408 0 0 0
500 1 16.08187895433575 13.98087482673947 11.99699093511319 0 0 0
1415 1 5.662496798391399 14.04706277710969 12.513771135315194 0 0 0
60 1 21.443062652903677 5.741551936671009 1.9224178739093754 0 0 0
186 1 23.39887829361865 5.133180608295848 3.5544208139256788 0 0 0
91 1 23.34478818813433 6.880885581024654 2.113430650921599 0 0 0
217 1 21.892012495068563 6.705960288356229 3.954649343892286 0 0 0
92 1 21.419274328310436 8.892162776167586 1.1475592083106305 0 0 0
218 1 23.34193416312177 8.861963097397744 3.1836603071775613 0 0 0
1411 1 1.6005028720236196 14.100920276666058 12.70140676211417 0 0 0
102 1 5.278644729161971 12.13930877662872 0.033826116290522096 0 0 0
224 1 24.90190895544918 7.200177945175279 3.9880474294274832 0 0 0
64 1 25.028539665308557 5.158920618915414 2.0796459485160503 0 0 0
190 1 26.93904813507008 4.95428663559108 3.795715453015937 0 0 0
221 1 26.511394367265517 7.006002761508547 2.0426241464707595 0 0 0
123 1 25.11628640819921 8.867321734285763 1.8202396247987893 0 0 0
96 1 26.2989729483809 8.72651337321025 3.885566151242973 0 0 0
6 1 5.262984087308871 2.311743660115118 0.2882871124058472 0 0 0
99 1 1.8146395891354417 10.515457139703406 1.5731678944209835 0 0 0
226 1 1.8435141858546575 12.25720438827581 3.6819226299891907 0 0 0
1000 1 3.6328027677865866 12.319487011145139 1.8830616595706795 0 0 1
104 1 3.9289145292920247 10.472511888333521 3.4941058717924567 0 0 0
90 1 23.404633760523822 8.764144605104413 0.2014188597388771 0 0 0
62 1 26.349167279200785 4.912012717456152 0.09695585633494241 0 0 0
103 1 5.609013090416115 10.891429167726908 1.8108242113952455 0 0 0
108 1 7.308378604153661 12.512431436387448 1.576501912495115 0 0 0
230 1 5.741050889368263 12.256832469440123 3.5226860067675534 0 0 0
233 1 7.484823757135477 10.302425436471518 3.2575055005645526 0 0 0
481 1 28.308032887591132 12.48631000758409 12.535507083629762 -1 0 0
395 1 8.904793941670752 0.29531061989004587 12.161413472648716 0 0 0
283 1 23.22396528990093 0.3296180169557678 9.226625835122196 0 0 0
234 1 8.81340951022736 12.201494679577767 3.4013262352426006 0 0 0
107 1 8.853424173139475 10.511132353755023 1.6369160501408968 0 0 0
112 1 10.970064575854002 10.322904289074353 3.2042716339580513 0 0 0
111 1 10.599742815039587 12.338439129075157 2.2062048334548803 0 0 0
399 1 12.30847690337108 0.04762525173488723 12.348345231259975 0 0 0
387 1 1.7696835434946407 0.10753556135381205 12.525350531268248 0 0 0
34 1 1.918669539657373 5.157174335378621 0.06583096567562913 0 0 0
267 1 9.126182612996702 0.18909305166197213 8.771498220287958 0 0 0
590 1 14.031299627162872 11.270505141698006 13.977924921385371 0 0 0
113 1 12.772077069438405 10.305451267645942 1.6817911727052681 0 0 0
238 1 12.686505914915005 12.073364018535418 3.47330971617568 0 0 0
116 1 14.467052619569682 12.022134936852359 1.492888000581555 0 0 0
1043 1 14.53161201755713 10.63482089769831 3.792070855877058 0 0 0
248 1 16.294421390766907 11.899354665492591 3.2896820001339697 0 0 0
263 1 5.374447837023595 0.14701086415790027 8.688357551305788 0 0 0
344 1 21.165213418162878 11.062682168269145 10.744680709242093 0 0 0
260 1 26.349445662707126 0.1330003877797452 9.544031120743186 -1 0 0
507 1 23.537251253968734 10.686558985485734 12.931013932306168 0 0 0
79 1 16.407771864176055 10.221388675159911 1.6797054627934953 0 0 0
84 1 17.603421523680083 12.1390463423517 1.2659410125197006 0 0 0
245 1 17.944206980885433 10.183635367375837 3.291797835670324 0 0 0
246 1 19.344421116363016 12.630243072147138 2.9783250919423576 0 0 0
119 1 19.355699040485746 10.757579721778118 1.5010987433721303 0 0 0
400 1 8.986408366388988 2.322754023924545 13.863032156324765 0 0 0
1173 1 21.088735210854544 12.1595286726451 1.5357491154756067 0 0 0
256 1 22.855797224471146 12.501525548982052 3.4258395661951315 0 0 0
1047 1 23.153006492483613 10.56688101709431 1.6734437225884133 0 0 0
118 1 20.993203199544368 10.802159301611052 3.3310952992450598 0 0 0
93 1 24.987516401366044 7.170997111343968 0.014715366051925721 0 0 0
153 1 22.769840237489134 0.44816239965903004 5.382687735361658 0 0 0
100 1 0.40442477530236565 12.669774936509048 2.128279786374675 0 0 0
225 1 0.025714930313476714 10.430080141845197 3.686370501426923 0 0 0
253 1 24.824273007301947 10.588356455602858 3.777287695736844 0 0 0
128 1 24.925728389017863 12.283248183014095 1.8071197001124506 0 0 0
127 1 26.825461534179126 11.00047656389907 1.7090401114958984 0 0 0
254 1 26.6165260078184 12.392582857323301 3.6416312377567626 0 0 0
269 1 10.705538077833284 0.18614749431552377 6.758237700073014 0 0 0
2 1 1.6847505924535404 2.0382468223999504 0.366073909013971 0 0 0
279 1 18.08287743556636 0.27070409829259995 7.2569625931076684 0 0 0
505 1 23.236667515816976 11.825154509872453 10.98668578508285 0 0 0
164 1 1.7163663250067636 3.410595762315118 5.308169275853742 0 0 0
258 1 1.5855367739699966 2.368098320780715 7.875003952726686 0 0 0
133 1 3.5300908335084915 1.998581071339705 5.659393546553597 0 0 0
264 1 3.380047555943631 2.1289772651757217 9.235707153828296 0 0 0
294 1 3.7958863749787843 3.668567473486904 7.1555353321085 0 0 0
291 1 1.6890526368311825 3.8549707370684803 9.540978431435695 0 0 0
289 1 28.296690185335926 3.629778323984156 7.293183079613229 -1 0 0
159 1 0.7205874697474908 1.4814589833001532 5.77412238524448 1 0 0
259 1 28.166545099740105 1.7172008057950474 9.028278187516136 -1 0 0
140 1 7.460661940941747 2.2930198002119915 5.583040916272249 0 0 0
167 1 5.499145820423724 3.5865439267217956 5.432739801066142 0 0 0
262 1 5.358891145345574 2.2884218715583247 7.485614547960548 0 0 0
297 1 6.994901453778755 3.760930714267863 7.207877619850987 0 0 0
295 1 5.490315981146041 3.84917187398994 9.577442257847101 0 0 0
268 1 7.44494476516936 1.8805765745251384 8.91215978368981 0 0 0
508 1 21.498722247459213 12.718706941217652 12.496106801431996 0 0 0
1153 1 0.009722688851148575 13.672168359464015 3.8255770973625807 0 0 0
138 1 8.794308080830966 3.9784541164765472 5.225847371898998 0 0 0
299 1 8.839234501554346 3.8211497572618596 8.78480819619267 0 0 0
144 1 10.461648199394208 2.1855295885250605 5.2990953276710435 0 0 0
266 1 9.249274845992277 2.011573141272077 7.129229844292044 0 0 0
301 1 10.821262007273862 3.899845318462292 7.222398114562796 0 0 0
272 1 10.88936322984619 2.5426904995238178 9.255796482820594 0 0 0
303 1 12.624004552793375 3.9732979877606525 9.171061010850178 0 0 0
270 1 12.170237683259606 2.1481651688333607 7.534269575258514 0 0 0
177 1 12.308846932469299 3.9343669275831523 5.620936477787017 0 0 0
148 1 13.836690351192415 1.94209285007581 5.54369364039098 0 0 0
305 1 13.916476220898614 3.82960615065187 7.097026785147748 0 0 0
179 1 15.903170378631614 3.3850211402307795 5.506318253266523 0 0 0
274 1 15.789087431517261 3.1389334521676284 8.975237483126776 0 0 0
277 1 15.837674923821002 1.9820512174288836 7.205000121094457 0 0 0
276 1 13.87938530037741 1.9241872021255855 9.0105973560354 0 0 0
280 1 17.605396112578504 1.7858607199562515 5.1338015100646555 0 0 0
282 1 19.19919628100844 3.3792669783700364 5.336762382589867 0 0 0
183 1 17.851768943457074 3.62588181794613 6.864403000050398 0 0 0
1526 1 17.920972884314736 2.0736420858522684 8.878058789582868 0 1 0
278 1 19.37880148010622 2.2767727145020342 7.025630423264439 0 0 0
311 1 19.75225110858831 3.4008313861989565 9.511663926663264 0 0 0
1167 1 12.544649720307657 13.998167993539392 4.87212907101056 0 0 0
192 1 23.462261689145173 3.495265920179466 5.497393264729241 0 0 0
156 1 21.50703035733904 2.4292480429045185 4.984364261876667 0 0 0
281 1 23.30291366019089 1.9479637255119426 7.279198543930142 0 0 0
313 1 21.444646841311723 3.121622398613634 7.423149828683126 0 0 0
315 1 22.968651659771233 3.195090583108683 9.646976753795277 0 0 0
284 1 21.248486212307704 1.6318186900151486 9.209568449092842 0 0 0
288 1 24.801410154058523 1.8348475885048932 9.210469713598899 0 0 0
160 1 24.923953623798866 1.5561338954104664 5.873064220549812 0 0 0
317 1 24.992451770284525 3.305919546143373 7.570596840527474 0 0 0
191 1 26.35451230749731 3.1543709585631023 5.696724716626482 0 0 0
158 1 26.725067089363158 1.7230521231354083 7.502953049076701 0 0 0
319 1 26.378807338809267 3.556318685232447 9.212996474034014 0 0 0
195 1 1.7060879843315186 6.8567355916582455 5.341889876734419 0 0 0
293 1 1.7882812835411177 5.321291929502747 7.424888088965273 0 0 0
168 1 3.5474304850655676 5.226735763221028 5.539969237384024 0 0 0
323 1 1.6076910233699657 6.8698878026861285 9.108102509711749 0 0 0
296 1 3.7051563480236296 5.4671289601397435 9.089029052008595 0 0 0
328 1 3.529512206336724 8.938894803510667 9.088375268989603 0 0 0
200 1 3.0654372576655513 8.69243735267198 5.3536602681545595 0 0 0
290 1 3.2042179754583238 7.222360790474195 7.102059562829047 0 0 0
227 1 1.8324574822148882 8.653208825187622 7.279692090844815 0 0 0
321 1 0.21993322599412837 5.282625064869196 5.472427282241987 0 0 0
325 1 28.283083436804823 6.549366621532925 7.445749530141307 -1 0 0
292 1 28.085175098605216 5.10623049322888 8.944481669502592 -1 0 0
171 1 7.451042256560143 5.640153541296401 5.3786487491059525 0 0 0
204 1 7.042554018282071 8.802948238653087 5.301712461330636 0 0 0
172 1 5.4231393762467786 5.557991786489312 7.115678636691717 0 0 0
199 1 5.27207357181298 7.449951552231363 5.390582446894067 0 0 0
329 1 7.197949591612039 7.1175595933311895 7.077895959081425 0 0 0
327 1 5.193433348683457 7.381533031528612 9.29293078752308 0 0 0
300 1 6.9492430733195 5.375841705103561 9.305433430722442 0 0 0
326 1 5.2905988685865655 8.351316384511842 7.32383157243272 0 0 0
332 1 6.959145773436211 9.059540506706929 9.101321985502688 0 0 0
208 1 11.123496999851977 8.34181518490128 4.837734015730429 0 0 0
304 1 10.551128166586732 5.49680759848654 8.878384280579944 0 0 0
298 1 9.096378569004758 5.657104584088566 7.192407312214649 0 0 0
203 1 8.873157861603117 7.308875680125645 4.974783334763847 0 0 0
176 1 10.757307314074064 5.860540719772035 5.176391359302747 0 0 0
333 1 10.558930196392286 7.438716980069043 7.009034114792879 0 0 0
331 1 9.028557795118784 7.575947750207763 8.661167669182207 0 0 0
330 1 9.02782018529537 9.134392782410115 6.766259789769883 0 0 0
367 1 10.750244010510059 9.214801771563845 9.094944119520822 0 0 0
302 1 12.528160530787197 5.749524271178331 7.239265204754518 0 0 0
334 1 12.399769072452957 9.11200541057558 7.058940669240777 0 0 0
335 1 12.498745360084001 7.555242593236709 8.63166239314083 0 0 0
207 1 12.759896939032362 6.9152443881745125 5.125272779505428 0 0 0
180 1 14.357695514987046 5.2113719787571755 5.627029831844311 0 0 0
308 1 14.243673147142601 5.385137087803004 8.949489763335006 0 0 0
211 1 14.430164267642752 7.265270598003992 7.129215130252398 0 0 0
212 1 14.17036333256903 8.96959602540614 5.428372594823934 0 0 0
337 1 16.723899104582948 8.801886418622596 7.286786592493528 0 0 0
339 1 15.957441376678807 7.066672277591888 8.864006956975143 0 0 0
306 1 16.277170579605226 5.094024296534695 7.628571462929579 0 0 0
340 1 14.128639600040698 9.059458028638964 8.69983802250804 0 0 0
216 1 16.036560156143985 7.109353794318885 5.434914429084136 0 0 0
184 1 17.896860790548644 5.212120442889541 5.281147134785632 0 0 0
214 1 20.151119249892844 6.888588008314746 5.02295399524748 0 0 0
341 1 18.177182793174026 8.041215821211908 5.597785684998978 0 0 0
312 1 18.06328732557379 4.653549830819258 8.986543686252608 0 0 0
310 1 19.938247001172755 4.909606027782404 7.04779960973272 0 0 0
343 1 18.677440433942053 6.7787023734544505 7.477165176514476 0 0 0
342 1 19.7285959745721 8.890708404158804 6.839138527643133 0 0 0
316 1 19.90215734038101 6.918897896592069 9.331981844527839 0 0 0
338 1 18.137276681378424 8.616565925018058 8.950318943485515 0 0 0
220 1 21.64094350307178 9.06485372072777 4.800347181545283 0 0 0
187 1 21.36278792906098 4.706519135756156 5.304175438335387 0 0 0
314 1 23.189936384332427 5.090400960550931 7.354117063572765 0 0 0
215 1 23.171514511611306 6.525532420384388 5.626557802179071 0 0 0
345 1 21.067914511386306 6.825436689294073 7.073235476852956 0 0 0
347 1 22.74279589117578 6.892393240408337 8.64064864312482 0 0 0
348 1 21.37724401695452 8.903924326987909 8.809820134130954 0 0 0
247 1 22.61915206772997 8.698771471839114 6.806349590869965 0 0 0
441 1 21.479371608895477 5.10226200203481 9.01744454796904 0 0 0
318 1 26.46341973904648 5.161267961884988 7.167528632488654 0 0 0
196 1 0.18377028206755525 8.792397184167882 5.232009042589088 0 0 0
322 1 0.19396853606758255 8.409032053267282 8.961236303403323 0 0 0
320 1 24.931997881064852 5.155476117732188 9.053279002592454 0 0 0
352 1 24.105437302115966 9.2054589370764 8.324510383097719 0 0 0
193 1 26.531474535562047 7.136109102822264 5.819967740720679 -1 0 0
349 1 24.58355139668278 7.023269515591752 7.382417571597871 0 0 0
222 1 24.58348709620482 9.556865977514088 5.847312014422504 0 0 0
350 1 25.19674689752297 5.135016781610338 5.254608205924204 0 0 0
219 1 26.133484481058467 8.824949765122808 7.457776851831074 0 0 0
351 1 26.517841485041323 6.869572717676001 8.710398926079176 0 0 0
229 1 1.8099946646829592 10.524157471429467 5.073182573174177 0 0 0
354 1 1.8712191214447875 12.583552924035063 6.901268781172663 0 0 0
232 1 3.8101815372404917 11.949104381499483 5.222327519041128 0 0 0
357 1 3.432318151065706 10.697145055772088 7.395090017158014 0 0 0
360 1 3.3658128869589454 12.488250220452706 8.96411430575042 0 0 0
355 1 1.695712816564501 10.707646169696998 9.140047519397669 0 0 0
228 1 28.08312246261903 12.064895328505754 5.499990599305463 -1 0 0
1266 1 12.208331921812432 0.3712183322150935 1.7376355233545782 0 1 0
58 1 23.53043737272249 5.573928496740879 0.2955670928440345 0 0 0
236 1 6.810274924638673 12.011246822371426 5.398458170792637 0 0 0
231 1 5.245297575036656 10.25098389915403 5.934283760328576 0 0 0
358 1 5.213657172308605 12.271335865752679 7.387622779638163 0 0 0
361 1 7.382399186783361 10.234587084347474 7.285043343931944 0 0 0
364 1 6.906160753021344 12.484156336055298 9.089595584216251 0 0 0
359 1 5.385673555207459 10.774707704614828 8.899352687838737 0 0 0
235 1 8.912184112315062 10.643110271692978 5.302358707075411 0 0 0
240 1 10.635218390787982 12.249151953452749 5.277343807602769 0 0 0
362 1 8.489388884016995 12.543595218032408 7.195391959366279 0 0 0
365 1 10.294657246891298 10.825470529864397 7.07916263197635 0 0 0
368 1 10.390706542338156 12.280546925836443 8.749179603741597 0 0 0
363 1 8.624834599725437 10.901177237379619 9.130095164668289 0 0 0
152 1 21.27052002549287 0.797129672052784 7.1360856510243 0 0 0
239 1 12.439881346679615 10.493058240071457 5.120426038589459 0 0 0
366 1 12.316941890774958 12.364629967222273 7.126131176951686 0 0 0
497 1 12.431799057094903 10.908913579470363 8.895124668455418 0 0 0
244 1 14.492029338955216 12.328956180849884 5.443787196645804 0 0 0
369 1 13.99639193789801 10.39764584604586 6.983944280613586 0 0 0
372 1 14.393015527434804 12.195213772138242 8.230023050483588 0 0 0
243 1 16.589498230748156 10.336089036541882 5.3383868563219234 0 0 0
371 1 16.408720815732046 12.051725770575581 6.980841762076271 0 0 0
1439 1 26.607684383644816 13.90583375723747 12.03749209635028 0 0 0
466 1 16.2727750395429 10.559795108275058 8.651862584062172 0 0 0
1302 1 17.846663626858906 12.169111963562647 5.075434359573682 0 0 0
124 1 19.681320438293426 10.890432439524757 4.944992883149248 0 0 0
374 1 18.058272312553854 10.65464521775987 7.078488120804546 0 0 0
1175 1 19.513608750962646 12.79992084307003 6.878079203962325 0 0 0
375 1 19.520258043766496 10.26435687766146 8.884795356013576 0 0 0
376 1 18.25213377697647 12.73341637261131 8.777261440926408 0 0 0
56 1 18.001730596775722 3.5453107898095193 0.19015558447775355 0 0 0
109 1 10.904567006422319 10.832950556480384 0.2743493426588876 0 0 0
251 1 23.006632727190954 11.314634831038555 5.411038849060931 0 0 0
380 1 21.127793044794494 12.392013680840401 8.950755622780237 0 0 0
250 1 21.176263788323908 12.296640287864838 5.565255660716022 0 0 0
377 1 21.332249284388958 10.58645055855875 7.270873522626052 0 0 0
381 1 22.786935225478345 12.541117571393924 7.191887342371399 0 0 0
379 1 22.982334880876493 10.886796801125652 8.753103830101075 0 0 0
1409 1 0.16726054309409372 13.990496196660683 10.656429358201763 0 0 0
353 1 0.014917889271374787 10.38569621576927 7.024249259229771 0 0 0
356 1 28.323249649280463 12.54914611207259 8.756731511000568 -1 0 0
378 1 25.23315033356704 12.39063150696927 9.147464815503227 0 0 0
346 1 24.833034280822574 11.348975525635417 7.033214998264445 0 0 0
382 1 25.042916546589943 12.501510345940572 5.394091016741313 0 0 0
383 1 26.69532011464328 10.118220438706663 8.99683348793388 0 0 0
384 1 26.757620638332178 12.448891058480733 7.087659264067592 0 0 0
255 1 26.618728687811753 10.248544807417094 5.662228435139481 0 0 0
1427 1 16.013788005353263 12.696621590997301 10.364185255474613 0 0 0
385 1 1.2909405495548252 2.3841645335234367 10.964216675302964 0 0 0
546 1 2.2247717398875317 3.72505843741365 12.574902203338523 0 0 0
417 1 28.08851700968758 4.0252113388761215 10.983802891078957 -1 0 0
386 1 3.785543387101992 1.8880827891429264 12.688796483149044 0 0 0
419 1 3.636847244998907 3.7619502712073585 11.003678029763126 0 0 0
388 1 28.34606027536817 2.2574409151636745 12.593472519783159 -1 0 0
1309 1 24.798285412288443 13.792933910583965 7.419985355171399 0 0 0
1425 1 12.167707785937083 14.099871885815418 8.624859435665561 0 0 0
421 1 5.5056373767163596 1.7179548807667742 11.027955598508443 0 0 0
392 1 5.264270296890137 3.734906405063659 12.650365352020248 0 0 0
396 1 7.1133078708307 2.118467594140747 12.682507871242246 0 0 0
425 1 6.9220452151711465 3.492187625731886 10.947635283633323 0 0 0
538 1 22.953867374652347 1.7009128012576402 14.164572481594355 0 0 0
242 1 15.955342737931826 13.897260238469425 4.38248697113565 0 0 0
101 1 3.8219218862931608 10.517290125729103 0.002011451905769129 0 0 0
502 1 18.065843933689116 10.432659110039918 10.628761840842326 0 0 0
397 1 8.944837526672874 1.956901160488118 10.580335348421324 0 0 0
427 1 8.801548893799614 3.8934752619231308 12.561809923011415 0 0 0
429 1 10.478384566884003 4.0684068565060025 10.857493043389752 0 0 0
398 1 10.669151802601847 1.6958937866913502 12.37874469276918 0 0 0
135 1 5.239965114215667 0.33304776255045443 5.703540443374553 0 0 0
431 1 12.76439676518597 3.6997650170153524 12.36150563676655 0 0 0
401 1 12.725765648148483 1.7640134938040393 10.819953978540969 0 0 0
309 1 14.016678935561414 1.5803080931453628 12.481926702175898 0 0 0
433 1 14.629523877505418 3.8047382865199566 10.490845460489984 0 0 0
440 1 15.607577609499355 3.344480368232674 12.673538789267228 0 0 0
628 1 12.534396209531282 12.971309830531457 13.765537104027523 0 0 0
1542 1 3.2641781255037277 14.078827992429323 13.85136593208629 0 0 0
503 1 19.942416506389854 10.665101795447857 12.659788816989442 0 0 0
402 1 15.792144040236698 1.9472538929944174 10.85679815811281 0 0 0
530 1 17.75796162626878 1.6215289853438217 12.356090425364723 0 0 0
437 1 17.750669534123247 3.4657842080061694 10.746452671962416 0 0 0
444 1 19.495173940205277 3.5191042501427914 12.74198657322028 0 0 0
408 1 19.556268371484215 1.6123392582836826 10.961790666709629 0 0 0
1037 1 10.921614166005522 13.935350576441662 0.13033706864271605 0 0 0
439 1 21.154727335714178 1.5464833111816583 12.524524942594669 0 0 0
406 1 21.436168601892497 3.8333936329662697 11.04766368273987 0 0 0
410 1 22.93290569121217 1.7387744634677527 11.078165435450082 0 0 0
443 1 22.879716942783084 3.8243324861651695 12.61935446128413 0 0 0
593 1 14.169920321258587 7.0448627458555535 13.776212762051111 0 0 0
275 1 15.972644131303928 0.29034974938084385 8.834901213024951 0 0 0
394 1 7.262907713673335 0.2818151787063871 10.617944976345276 0 0 0
1031 1 5.349863330160683 13.88133373279809 1.6968734108308208 0 0 0
416 1 25.202525974920817 1.9365144948572803 12.747059893623302 0 0 0
445 1 24.679138095162493 3.867336261196712 11.242859319253892 0 0 0
414 1 26.487784949978234 1.913512879906509 10.911798112759525 0 0 0
447 1 26.60564885953731 3.491221692835975 13.252263095163043 0 0 0
504 1 17.773276414654624 12.109031842113673 12.341796888643488 0 0 0
1163 1 8.554983912390448 13.886966012700713 5.172133825961094 0 0 0
1180 1 23.017942489665266 14.045192009429556 5.323959435796389 0 0 0
418 1 1.5060158970569921 5.267279237554479 10.899942965885248 0 0 0
451 1 1.6117421570384614 6.863053772549389 12.89045769888903 0 0 0
453 1 3.098596882899569 6.937010514306325 11.258076583799697 0 0 0
428 1 3.668814193687246 5.401873674667624 12.829822855001801 0 0 0
456 1 3.8095348613546482 8.84103441989406 12.59388613189049 0 0 0
324 1 1.8921972782166923 8.693140237266881 10.673924778895378 0 0 0
449 1 28.04355623750711 6.782015664827498 10.951081746077756 -1 0 0
420 1 0.10915714686919532 5.152918556087145 12.867585170727182 0 0 0
1384 1 1.8331252628581638 0.32741713825387553 9.509516104995669 0 1 0
1293 1 10.53489421498226 14.008787135650365 6.857419595790879 0 0 0
1039 1 12.322868372758883 13.65832569285706 1.7834762719251898 0 0 0
617 1 7.137993371156572 9.157091004643588 13.071583049132508 0 0 0
422 1 5.231850764158888 5.80440458708071 11.032644598122989 0 0 0
423 1 6.851695073460831 5.661250513979842 12.704846725307947 0 0 0
457 1 7.385828951078836 7.660796551938444 11.144034160853263 0 0 0
460 1 5.510436274779345 7.392413605829949 13.101546567249134 0 0 0
454 1 5.3428752532622585 9.054233538812705 10.859126275996557 0 0 0
459 1 8.779083579720094 7.139807263638319 12.683930100171883 0 0 0
458 1 9.283931320068074 9.117452243610273 10.61514393972297 0 0 0
432 1 10.600899308118901 5.528167300260009 12.236919410499544 0 0 0
426 1 8.431972443942882 5.752032275749704 10.851154438320414 0 0 0
461 1 10.534664456613527 6.919388129848398 10.685079076898907 0 0 0
464 1 10.795779609100403 9.164539750722453 12.52073910685278 0 0 0
463 1 12.164951557369735 7.055568121550337 12.533320774712214 0 0 0
462 1 12.161782012710214 8.701306866827881 10.672015606444917 0 0 0
430 1 12.655533453074165 5.968828389743449 10.889807027088507 0 0 0
435 1 14.639685467876083 5.496172177400823 12.11559472804361 0 0 0
465 1 14.160893272478452 7.3758139050341445 10.536952387234 0 0 0
495 1 14.434865489511647 9.07394633226454 12.436444066564418 0 0 0
434 1 16.19598845818117 5.231620279588306 10.522536879055906 0 0 0
436 1 16.087463081530345 7.3268817240751485 12.663208018352254 0 0 0
1287 1 5.272980581896801 14.095039084633873 8.838085338217143 0 0 0
415 1 26.586981273587952 0.07405755966589558 12.447974017533873 0 0 0
257 1 0.1647891419808986 0.008012787156893353 7.494233497353207 0 0 0
501 1 15.970313926368913 8.826371510106975 10.515335773522084 0 0 0
467 1 17.68190632415706 5.108491404253678 12.416163558597447 0 0 0
438 1 19.749465131033 5.427058330821338 11.004661359280403 0 0 0
470 1 19.68994973363433 8.775890327528002 10.795250241201384 0 0 0