LAMMPS data file via write_data, version 29 Oct 2020, timestep = 300000

2048 atoms
1 atom types

-0.2243156241251114 28.57631562412254 xlo xhi
-0.2243156241251114 28.57631562412254 ylo yhi
-0.2243156241251114 28.57631562412254 zlo zhi

Masses

1 58.933

Atoms # atomic

719 1 2.0436835105499798 3.6778162696000205 1.872196558812714 1 1 2
1695 1 1.0449437616877577 1.4836116223033728 0.008505215116621195 1 0 1
1803 1 3.5582205253475463 2.1424251389841777 0.4941169533995642 0 -1 1
1891 1 3.0964933233417615 1.2251035098875935 3.0356809189788034 -2 -1 1
1302 1 0.007614906694190182 4.219806328694177 4.002609650030281 -1 0 0
1267 1 2.4292842678072235 3.7004462661516584 4.105909786113616 -1 -1 1
1894 1 0.95652112262071 1.6349472816433257 3.4581463718873513 0 2 1
971 1 3.3185007312877817 0.03796201416701095 1.1406321360232416 -1 -1 2
103 1 4.928617085577922 3.0184700528926602 3.433115706855903 2 2 -1
1675 1 4.948525860756946 4.221777387244591 1.2131793701767153 -1 2 0
1729 1 5.308412599729247 0.9856538891159119 1.7988385571592467 0 2 1
263 1 6.7121849916931104 2.4006443393592356 1.7662922345382297 0 0 0
166 1 7.053309696490007 0.20867845293724363 0.5656700199990587 0 1 0
141 1 8.446693106911301 0.9424363378224199 2.4588942711790027 -2 -1 0
1623 1 12.000799414979245 1.8965401905127721 3.159624719572251 2 0 1
1776 1 8.694944755816392 3.335929495879484 2.4826714378229466 1 1 1
1546 1 11.013917028632632 3.511435505937374 1.740202601902159 2 -1 0
1785 1 11.694096006881423 1.6725185138888503 0.9877653357503084 2 0 3
1126 1 11.924685652183358 -0.20623949227084443 2.5470800893003607 1 1 -1
1855 1 8.11551567542958 2.627441260342029 4.512477043860296 1 0 2
1988 1 8.730262412641238 2.0804527330400986 0.6324943462165824 1 3 1
1275 1 10.076714821021097 0.4934952155075152 1.1311354467303565 -2 1 0
940 1 15.911320679887933 2.0601476342941867 3.7743923161705633 -1 0 3
1208 1 13.487390999923909 2.8275787238791104 1.7051383554936355 0 2 0
1330 1 14.142348984052319 0.13559244740415455 2.63549091683846 -1 0 0
405 1 14.702001608842666 3.72916983933021 -0.14375896154041862 -1 0 1
1465 1 12.511436273609919 4.1219936206406045 -0.16854849447611267 0 0 1
696 1 13.874421686555019 1.41050474672004 -0.03241800466778563 0 -1 1
794 1 16.140935746217707 0.1347785430094024 4.558381541776002 0 -1 -1
1293 1 13.515016790324037 1.550207349118526 4.404620423144397 1 0 -1
391 1 15.742078629012932 4.072146769003949 2.1109866636105465 -1 -1 -1
743 1 15.77444505802647 1.6665535050104532 1.1937229794126096 1 1 0
1579 1 18.201972762789083 3.746912653793827 1.7063929252275682 -2 -2 2
1144 1 18.264488757095087 2.284559600280521 3.940694987044836 -1 1 -2
182 1 19.379483726806946 1.8520456325022652 2.1691979886529795 0 2 3
1882 1 18.415282398881665 0.1469661232770747 4.0370138652021295 -1 2 2
280 1 17.567848209478758 0.5573945579282568 1.8154135426414237 -2 -2 2
58 1 20.643542668204233 4.128668474173284 2.241968996371957 1 2 -1
1937 1 23.349811622850968 1.4061054990703497 0.5993470000541716 0 1 0
871 1 21.149685805621406 2.116260819985169 0.3798960121686168 -1 -2 0
433 1 22.18352187817912 3.9262878200199776 0.7539682356504426 0 -1 -2
1577 1 21.94919273708827 2.0935330937947403 2.3849165149997753 0 -1 0
1228 1 21.497771330384726 4.448279393098071 4.415165555570083 -1 2 0
86 1 24.294425551783807 3.1680579871658514 2.0968027263104543 0 0 0
318 1 23.431622399950925 3.7384410558015277 3.9009921430793604 0 2 0
1867 1 20.883766089208663 0.20654608938934327 3.312797511183043 1 2 1
755 1 21.436085301197355 -0.1080941573325428 1.252705148567635 1 2 0
904 1 20.598779988135398 2.253779644066379 4.514631237486686 -1 -1 0
270 1 26.66320157584055 1.8758821264613768 3.59570713737363 1 -1 1
1991 1 28.54837540177339 2.984310153216726 2.1101068608439277 -1 -1 2
290 1 26.37734957721926 3.4019033362571105 0.9891132662843107 1 -1 0
1143 1 27.81166380046881 0.8362397475248609 1.813125319493412 -1 0 0
273 1 24.480594878576813 1.3863321229834318 3.642197569548565 1 0 0
1572 1 25.478339662498513 4.305567544201045 3.982840442096885 1 2 1
983 1 27.929366457484935 -0.09048626093388634 4.067718253457615 -2 1 -1
1627 1 25.577884026376502 1.3177351698860544 1.29108098360632 0 0 -2
1159 1 3.565771432620148 5.126432807910984 2.9628661571555277 -3 1 0
1784 1 3.7504085216314524 6.413842967139286 4.570674323293827 -2 1 0
964 1 0.5936784672993081 5.673940456208635 0.41531506964495846 -1 0 1
1196 1 3.231732012163328 5.4094701888736685 0.6135484566995585 2 5 1
677 1 2.0545707322297 7.228187070198907 1.3257678702611915 0 0 0
982 1 1.3542953329060312 5.8523849807154935 3.385591641707994 1 1 0
668 1 3.038850334734996 8.264025057660518 3.0153533694045604 1 -1 0
1590 1 0.6688425518533588 8.982840130856147 1.00022874777211 -1 1 0
588 1 5.310114029067912 8.429372903893086 0.789026445723439 1 0 0
537 1 5.651846120444371 7.981156560061519 3.9370878473115622 1 -1 0
1834 1 4.9704553113816585 6.773990469382761 2.376779161331217 0 0 1
1879 1 6.726088080357844 4.66824266018335 2.772535994399858 1 0 1
856 1 7.362198449126888 7.928848183296186 2.574559046169173 -1 0 2
1478 1 6.835222669114226 6.2696153190133685 4.537155537216389 1 -1 -1
71 1 6.120042202489787 5.550411840555181 0.06251194919011382 1 0 1
1521 1 8.241946345646141 4.8574346426255675 0.831363168606748 2 3 -1
1041 1 9.0915621232453 7.016955094675952 0.8023923057807452 0 1 -1
1962 1 8.921398297962233 6.065617976618532 2.9586429997220858 1 0 2
604 1 11.215883518269573 7.844265273816561 2.8347553920930038 1 0 0
887 1 11.237202206941443 5.649443629622987 1.8236558190708254 2 2 1
1128 1 9.092888034099175 9.250040262376215 4.272524730100022 1 1 -1
1622 1 10.386471667793186 4.826184934691483 3.842776266777822 0 0 3
161 1 11.614516976067382 8.100233746585932 0.775108725899687 -1 0 1
1965 1 12.359716855869207 6.116784078251101 4.112827078714065 -2 1 2
1006 1 13.499276861898686 4.795296289254145 2.3860886127377774 -2 1 0
1068 1 14.617018939907092 5.92643597983886 0.8221866054588176 1 1 -1
1940 1 13.316671759733596 7.334986033717694 2.2273224842140236 1 1 0
652 1 15.612027657770586 7.653689615397652 2.6272316350722567 -2 -1 -1
907 1 14.64511653927427 6.071486127100157 4.449750727748127 -1 0 0
1030 1 13.638758402739947 9.287370437196335 0.1313358646057216 -1 2 0
1418 1 13.328118476529493 8.1859199795084 4.392268602700049 1 2 1
306 1 19.176980385804168 8.043900607463527 0.7137297655200026 -2 1 -1
139 1 17.538690829379412 6.927690468977368 2.444475664663835 -1 -1 0
811 1 16.73417357253348 6.590331251163544 0.3112395568328846 -1 1 0
1167 1 18.916184222620213 5.74239475947939 0.8490710654887288 -1 1 1
209 1 16.911382488139605 8.776374437598655 0.6684705177704408 1 0 2
1906 1 18.38190156857338 4.626563650441549 3.852639301240309 -1 1 -1
572 1 18.421389555494706 8.467178798509897 4.154081016211756 -1 1 2
862 1 17.12160670283461 4.6659797905022735 -0.08053642797553096 -1 1 0
494 1 23.558469583641372 5.700211924133844 0.5927519691239451 -2 -2 2
1026 1 20.356550217247303 7.00021702742252 3.2863119589920755 1 2 -2
486 1 23.075441852454365 5.849002685750153 2.884346096560105 -1 2 3
1516 1 21.079428067382096 6.056445643354773 1.1303610278001253 -1 1 1
1816 1 24.324768841945893 7.949451218039805 2.429195608309641 -1 0 0
571 1 21.060805732443438 9.342047648983002 2.0114472893290958 0 2 0
1812 1 22.478845929452014 7.78140504673229 0.9512617888623076 0 2 0
28 1 22.385434427636046 8.12304239221922 3.4000569660020066 0 -3 0
1540 1 28.083119237404922 5.779878562810656 2.2820656205012684 -2 -2 -1
853 1 26.410202072917752 7.902454896973296 1.1405968290097028 1 -1 -2
994 1 25.852338859851987 5.7143520235105205 2.075406479250109 -2 0 1
684 1 26.087608887469546 7.234599059895584 3.427276967907477 0 0 0
303 1 28.185178562943882 7.691599427413834 3.64369339288274 0 1 1
1286 1 26.66378137221046 5.886394316763539 -0.10819010471741919 -1 0 0
1960 1 3.065716046766425 10.55475635689627 3.819733763472618 1 -1 0
2032 1 3.46576561326311 9.561301881980928 0.5590905558982038 -1 0 1
1739 1 1.037134542594226 10.434287646994454 2.579577743608219 3 2 3
467 1 2.95425718788806 11.802084808585116 1.4547412357535783 1 -1 -1
192 1 0.5036041176271735 12.328408532354965 1.3189635350618816 -1 2 0
653 1 1.618854360848578 12.344521616164142 3.4158322470046523 -1 0 -1
1807 1 3.4378682358366692 14.160451130673634 2.323305485902482 1 1 4
1847 1 1.4310248851472323 11.250400348524684 -0.20111244774695033 0 0 1
1502 1 3.209974565429427 13.395783541355456 -0.028332985894205104 0 2 2
995 1 7.380971513953579 10.428130946675823 3.0440817872587087 2 -1 2
1290 1 4.611593754543255 9.802222700974571 2.4710485806592724 -2 1 0
238 1 5.335154491755442 13.636490474615103 0.8369184592263201 0 -1 1
641 1 4.835006641949877 12.155429555751772 3.004443400215874 0 -1 -1
599 1 5.218074548489659 11.464224794690843 0.6276045691741987 0 -1 2
813 1 7.230451828780359 12.532378580327595 1.5558527447105908 0 -1 0
1819 1 7.3143060731747935 12.764355985270889 3.9778233940977934 -1 2 2
190 1 8.737099582525317 14.036577653330893 2.7756764596580417 -1 -1 1
1706 1 8.050423319185475 10.398213196529756 0.6706423974907336 -2 -1 0
891 1 9.291481836545008 11.460396884591246 2.2863534308030604 1 0 0
1597 1 10.234783525854494 11.368668558843893 0.28677803162703275 2 1 0
1602 1 11.072088317705916 12.824447240358387 2.366128379740416 -1 -2 -2
11 1 9.801010116867666 9.467010346192648 1.7823643165365475 2 0 0
56 1 11.250137243944584 10.429568696627902 3.5015147790525813 2 1 1
758 1 8.937640835108326 13.39371014678825 -0.11369795935799583 0 2 3
515 1 15.946589333837235 13.747921214049192 3.420982728400816 -1 0 -1
1599 1 14.541491987556853 13.493624271855916 1.8263718956997494 3 2 2
1909 1 16.169573743187634 9.783074009479401 2.4654034380029666 -1 0 1
359 1 13.170255883954644 14.127777039673372 4.193509648028785 -2 0 -1
1280 1 12.562369165275522 12.58664296839433 0.774802060114596 1 1 0
361 1 14.975449633239737 11.246686793179862 1.4706479920997133 0 0 2
945 1 13.282190720175373 12.082162722268427 2.921831217826438 1 0 0
1505 1 12.213024060275918 10.528190037156087 1.5373921481550756 0 2 -1
1028 1 13.958008099695679 9.561782913877225 3.0028410739198335 -2 2 1
1062 1 19.531315195899413 10.361938887754057 -0.18463975641579644 2 2 0
68 1 17.11960930960353 11.694735241854765 3.1444585914769103 0 1 0
1377 1 19.52166006446193 11.689042136525767 3.5781966572294466 -2 1 1
1541 1 17.24477863466047 10.9952508652641 0.5266071791038847 0 1 1
1269 1 18.78959921419426 9.670323996926673 2.449805938850494 1 0 1
408 1 16.70018394603402 13.143286437515496 0.4935544182594035 1 -1 0
1461 1 19.0754696395345 11.7762572356325 1.3238674622071203 -1 0 1
351 1 18.34905644839328 13.295643710467955 2.746767971247557 0 0 0
1388 1 20.11442105825923 13.858680702670073 3.721350521199276 -2 0 -2
2019 1 22.498278885586988 13.297052617785512 2.391320796591685 1 1 1
600 1 23.254389974717057 9.985744646397476 1.863598067383386 1 0 0
430 1 21.108340960556493 11.397292553234932 1.1396974611757191 -2 0 1
1945 1 21.5548943093187 11.693385056985784 3.328948771507103 0 1 2
260 1 20.874240102738614 9.534759481281126 4.392856943809448 -2 -1 2
199 1 22.9811386012886 11.804579554482608 0.3814226954505059 0 -2 -1
1614 1 23.622924256502806 10.156722844861285 3.942587815899132 -1 0 -1
3 1 22.964408928379132 13.814149766443782 -0.1861379662529697 0 2 2
1050 1 28.029122145090458 10.513530080547213 2.6667635398498786 1 -1 1
352 1 24.782860991215628 12.971425861364574 2.8745767146066794 1 -1 -1
1490 1 24.850482408457836 9.872834915963983 0.5045688654173524 -1 2 1
184 1 25.74045109597177 10.004594156899982 2.529114655759645 0 0 1
65 1 27.472885628820144 9.943828015239353 0.48005252761203177 0 2 1
189 1 25.105492300790615 13.400893966721059 0.485815361718103 -1 -2 1
132 1 26.74524335928607 12.200816265526793 1.2579046228272066 -2 0 0
346 1 27.772425568017006 12.476434494201191 3.8976071169314963 0 -1 -1
1849 1 25.60684845036515 11.319060216396338 4.161156630753833 0 1 -1
583 1 2.018671474202311 2.082850535937503 6.034106609005862 0 2 1
2036 1 1.786810472973639 -0.06932515320521276 4.9454603868417335 0 0 1
935 1 2.4442489798253226 3.1936016800022524 7.971428928167265 -1 0 1
19 1 0.526464732069396 1.30186179508148 7.49896949254328 2 0 -1
1314 1 2.1089306514905815 1.2748026966620731 9.33470086518671 0 0 -1
17 1 -0.1644090667303324 1.8052460609057865 5.390287674133704 -1 0 -2
1635 1 0.0050957984279483 3.784937800268178 6.370301259692945 1 1 0
1979 1 0.4335419838587249 3.0503585102005473 8.96739658410449 2 1 0
900 1 4.381376870472046 3.64369801112498 6.932388571922651 -1 -1 1
1497 1 4.72275061895455 0.09605408179748404 9.116761961554172 1 2 0
1391 1 3.9058032820400976 0.9790343279758544 5.246791120681422 1 2 -1
974 1 7.269935986202045 3.7912666373583557 6.18359708684518 -1 1 1
707 1 6.204820323287735 1.2807656447841567 4.6471852498721535 1 2 0
1101 1 6.055877496902942 1.9227129071101823 6.465344255810836 1 0 -1
97 1 4.044877752713737 1.7698483944633892 7.761787885918695 -2 0 0
834 1 7.735414693538385 2.190845489001966 8.358017886037267 0 2 -2
1994 1 6.7541664227967795 0.14301906097990458 8.730018445977095 0 2 2
67 1 5.50782572958528 3.414983602474688 8.89380233006937 -1 1 -1
1310 1 9.290478388225914 0.769819507643757 4.818064573270255 2 1 -1
289 1 11.736591740120774 0.12378811685523777 6.832225620324375 0 0 1
122 1 9.241816369966907 2.4614384844423203 6.662955191010025 -1 1 0
1379 1 10.170557947654697 3.8767130122534894 8.177701711703202 -2 1 -1
1957 1 10.264906237897652 3.1717923027759958 5.131802362723938 -1 1 -2
1594 1 11.874474279919127 2.140307522668421 6.158339525802429 0 0 -1
234 1 11.200551926238141 2.010954488776728 8.24266722485895 -1 0 1
77 1 9.487159390669806 0.5598670932676371 8.485658720979748 -1 -1 0
636 1 13.086894114475813 3.6088977143099727 4.781756004980236 -1 1 0
427 1 15.346472236461606 3.8789116201465426 4.579823996127248 -1 0 0
943 1 13.150324719036146 3.3501118103292344 7.822243991809293 0 1 1
25 1 15.108366572631276 3.236646583176337 8.645206828782586 0 -1 -1
1984 1 15.087768295926242 2.0973768729479265 6.284574914642692 -1 -1 0
376 1 15.914804374176601 1.0994699057781496 8.46178465900657 1 0 -1
1548 1 13.785651234078212 0.925546717016833 8.44836855688801 2 -1 1
569 1 13.971103245254248 0.10841325113929401 6.404298045234497 -2 -3 1
113 1 17.103635301634593 2.8508398043812493 5.8730658094095745 1 -1 -2
1610 1 18.747516595691586 0.27322562716348847 8.53991774942497 -1 1 0
1421 1 19.84573626316226 4.217627580266924 8.72602169448185 2 1 0
1908 1 19.15091495304785 4.103903386959598 5.778453501697618 1 0 3
201 1 18.813857608643215 2.713153763072226 7.319260751559201 0 1 -1
1581 1 19.715936618856556 1.0276627079031495 5.960364254545961 -1 1 0
162 1 17.701690589534902 2.88379250542066 9.125120765434534 0 -2 0
1680 1 17.04084325487822 0.12303768951367688 6.589836784511317 -1 0 2
593 1 22.69157314941233 0.48292293810221776 4.792992313587527 -1 -1 1
493 1 20.491446596409137 1.6646027243501582 8.268366889622225 -1 2 2
783 1 23.26592422098126 2.3975661726336353 5.847037549522668 1 -1 -1
1471 1 21.773852150067935 0.4530512967465249 7.048699212088354 1 2 0
947 1 21.20201346279697 3.5349815281605066 6.602954249666488 1 1 -3
1178 1 24.17030698539584 0.2799469363902808 6.597555622147095 -1 2 0
1344 1 22.798510398492873 2.615885461444502 8.226710444614142 -1 -1 1
946 1 22.117655951855415 4.49909956199603 9.358406448594913 0 -2 2
860 1 26.593956297704036 3.2538872927480087 5.917768864620828 -1 1 1
197 1 26.977692906613377 3.950557983974205 8.250013929870448 -4 0 0
55 1 24.98882440459483 0.44938849853135254 8.878933381802153 1 0 -1
917 1 27.32557085528446 1.295867537423065 7.1057351733017065 1 0 1
1299 1 25.204422560533768 2.526563832523718 7.77725524354423 -1 2 0
874 1 25.763766140161646 1.257109994567541 5.3429450408324275 -1 1 2
1886 1 1.3964788491789801 8.688743877776076 4.801701019092264 1 -2 1
420 1 2.28089193113021 4.776701814911568 6.497594111776402 -3 -1 -2
1707 1 0.8584229526119054 6.5370485110648255 5.5794314131322436 0 0 1
104 1 3.776473681691815 8.785368737969796 5.250614606503888 2 -1 1
1612 1 2.7143066622309813 6.928024968725144 6.6401416267670035 0 0 0
1571 1 0.7341491257526318 8.29137731491034 7.023885876522499 -2 0 1
224 1 1.0716492649097062 5.469733920123303 8.308454680779924 1 -2 -1
1184 1 3.5689025211966956 5.1792068104973294 8.325297686203081 -1 0 0
288 1 1.893129214748798 7.438135777357632 8.855738091822131 1 1 -1
1401 1 5.005776832086539 7.477161241462815 6.352808244590219 -1 2 1
1360 1 5.123972045423977 4.820519163894446 5.165017790801942 2 -1 0
833 1 6.0859281498384155 5.292607927070919 7.438008698634766 -1 -1 -1
75 1 7.107845702370893 8.835407664461906 4.9809405049013264 -2 -1 0
1319 1 6.594969498071416 7.280535111729126 8.370284471335818 -2 1 0
1749 1 4.672768689885756 7.961417000131243 8.91780180516529 0 0 1
1373 1 7.742568041887854 6.965855528103943 6.494880249328816 1 0 -1
633 1 9.126142263298076 4.930250609723211 5.8487304783132785 -1 0 1
1801 1 9.87669238341233 7.338031850247374 4.62230132959122 1 -1 0
1948 1 8.82493334150253 8.930150630605938 6.4843803366309585 1 -2 1
1387 1 10.107307438053752 6.371281714496112 6.777144558520968 0 -1 0
1662 1 11.553551022744967 4.691144750838249 6.360148080206247 0 1 0
582 1 11.429645226218852 8.71688746638963 5.3821046651352855 -1 1 1
1420 1 8.979521896354862 7.948556310213288 8.998511735480967 1 2 1
80 1 11.882834553843509 5.864556010149214 8.67184979039341 0 2 0
878 1 8.09833406394024 4.989280599367027 8.137461463044144 2 0 -1
1425 1 10.841714386499433 8.503262600623247 7.986456115484527 -1 -2 -1
1893 1 15.796599143899815 8.387070223900828 4.758393528400077 -1 2 0
804 1 15.99145402429281 4.591272025930836 6.576053860803677 -1 -1 3
1138 1 16.004777668932263 4.973750950446259 9.207156242135236 1 1 1
819 1 13.845838872512095 4.940295582047259 6.633367743697844 -1 0 2
1761 1 12.372882410300953 7.192275456486323 6.981034469689266 2 1 0
703 1 12.834677955203345 8.5609187940314 9.015046332359832 0 1 2
1525 1 15.134594012485106 6.941654041667141 6.228092668292123 -2 2 1
1870 1 15.398699637107965 8.585701377863213 8.959631531863636 0 2 0
705 1 13.995079083001315 6.264550507765548 8.335639780404323 -2 2 0
534 1 16.926991312900178 6.136150045858177 4.718618603733334 -1 0 0
519 1 19.237613310932225 6.70417297783078 5.378313213271105 -2 1 0
643 1 17.863263131148845 5.232035748378733 7.658465835088097 2 -2 0
1822 1 17.511433410518244 7.522355896474587 6.545052002091765 0 0 0
1964 1 17.138237259613785 7.226476178243954 8.820408812069836 -1 3 0
594 1 19.17929512795893 7.688761336325826 8.098571496855117 1 1 0
211 1 20.1336753946382 5.559691340230854 7.113875831988627 0 0 0
621 1 19.915940289877003 8.673988164927248 6.192362274620196 1 1 -1
1744 1 21.63367649553839 6.695619840390305 4.88533430484701 -1 1 0
468 1 24.007541960337747 6.520416345305728 4.619098683752226 0 0 1
1745 1 21.93572129893339 7.38006878460406 7.324208037007627 2 0 0
1435 1 22.733039636988753 5.449226583534992 7.2331735877044965 -1 0 0
1440 1 22.300541417426714 8.755901814011475 5.539360611829194 -2 -1 0
455 1 21.15437826933474 6.903332996291905 9.239432556069124 -2 0 3
149 1 24.145117311754788 7.522438581931814 6.599367595671285 0 1 -1
639 1 23.610994497525237 6.47825763744895 9.107577517613986 2 1 -2
326 1 22.322121145289625 8.994398892905906 9.221640859111334 -1 1 -2
1288 1 27.631208223075735 5.421918102712615 5.302291392002487 -2 0 1
1326 1 24.928840579875214 5.287639519275407 6.891523114597987 -1 2 1
1081 1 24.773160967925694 4.59917546405028 8.910916563729911 0 1 1
20 1 28.195528753442765 6.277042150996478 7.735452341129089 -1 1 1
41 1 26.26432338764385 6.005290232145741 9.32671202485475 -1 0 0
250 1 26.14680867859515 6.96943025815728 5.942673392439727 1 0 0
1737 1 27.12339018409251 8.520648317051396 6.74262604008945 1 0 0
1973 1 25.29020344956704 8.900705199940296 4.9119464653561415 0 0 1
205 1 25.238742501205458 7.77453884506579 8.391700434321047 0 0 0
792 1 26.959584848085807 8.817937247931235 9.341163873288657 1 1 1
1192 1 2.752748403497673 13.920336598368054 6.823542675842651 0 -1 -1
439 1 2.8290721329870743 9.518788837390325 8.552139326548433 1 -1 1
35 1 0.6981084297874185 9.512202023500162 9.169506300422713 1 0 -1
2005 1 0.8551082666071872 11.051330889248737 5.571037832714044 0 -1 0
750 1 0.954729327823737 13.363200224661492 5.708050018806049 -2 0 0
26 1 2.826931568080895 10.599883637217857 6.587421641616428 0 0 -2
1438 1 1.491914893554291 11.598256265306317 8.314993997216801 0 0 0
799 1 1.6618623521082234 13.624160767747686 9.102414016910801 -2 0 0
367 1 0.058435788413753464 13.934790133505482 7.5846212295070305 0 -1 0
1811 1 5.190287945325362 10.872849005228394 4.667823533072608 -2 2 -1
718 1 6.586712310594436 14.16599475044959 5.830567861787209 -1 -1 1
1463 1 5.943010434746513 9.463508231815066 6.697769569155234 1 -1 -2
985 1 3.9209516531847903 12.203169416564746 7.915771582747983 0 1 -1
1759 1 4.550238533626791 13.316652016190181 4.678312135657794 0 1 1
510 1 5.403545275223129 11.73882684731232 6.593303531955069 0 1 -2
1517 1 5.153637714650407 14.081337594469383 7.60262053997662 3 1 -1
1655 1 7.536310848840491 11.155673717307078 5.330720632821191 1 2 3
877 1 6.368738040512968 12.091258912981644 8.584217379152227 1 -3 0
503 1 4.952412989329972 10.405638824020645 8.431108743618088 0 -1 -2
1772 1 7.01934019434135 9.441539057496067 9.0565539246981 1 1 0
2016 1 8.444478582456767 13.507038007508905 9.11226609083011 -1 1 0
1539 1 9.792497006438278 11.48331897708191 4.803097532918202 -3 -3 1
1700 1 10.76278041838612 11.018754980821829 6.800672872823503 -2 0 2
1204 1 8.488225487488755 13.389257777207952 6.418876239298446 -1 0 1
956 1 11.436215016543613 12.950811918931702 5.166673770860897 1 0 0
785 1 10.19872942023221 12.186081546837668 8.70251090977634 -1 -1 4
640 1 9.099242698356466 10.171249865361979 8.93067248128217 2 1 0
1544 1 8.302757741188756 11.53692525842593 7.199107810540652 -2 0 0
1110 1 11.786679572899626 10.76140064494149 9.2712963869873 -1 0 1
1402 1 16.194517550184205 9.717541577526589 7.4490060898165185 3 0 -1
215 1 12.633278845099408 9.94169055350491 7.363813999214549 0 0 2
64 1 12.561030775654627 13.177861337700952 7.139635553473458 1 -1 -1
1982 1 14.296540548524082 9.460997275958874 6.059773947154704 1 0 2
1678 1 14.367819308617648 12.176980216937329 7.471490934333393 1 2 -1
373 1 12.901219774864934 10.976631000352638 4.906744516895239 0 0 1
1447 1 15.36381680117007 10.91068229690726 4.746399342185941 0 3 0
764 1 14.687452890715361 12.681087580798051 5.313134406146085 2 -1 2
1561 1 14.24200225902802 10.466974274048779 9.1945780228595 -1 -2 1
1696 1 18.56202105995804 11.777602096941985 7.6747528731007515 -1 -2 1
1495 1 17.934968212021225 13.056526089945034 5.001240468219001 2 -2 0
1473 1 18.49296191887769 9.58439123478972 7.403709934561638 1 3 3
432 1 17.697982721044646 10.514857380993243 5.166227792234783 0 1 0
274 1 16.42612181031279 11.708869575226466 6.698523013220741 -1 0 0
1200 1 16.515164833266777 11.611735028917836 9.210635126087109 0 0 0
970 1 19.802813270717444 11.536125776440569 5.77575818650633 0 -1 2
471 1 16.683043866233277 13.664684777292795 8.229105661395572 -3 -1 -1
939 1 18.804176125754864 13.526730853908026 9.207820516883922 0 -3 1
146 1 24.437380268971033 13.504043247232262 9.345363324944294 1 0 -1
214 1 22.310382704710968 10.906261131351576 5.58085008510208 0 -1 0
1225 1 23.877730016875145 10.178127303886349 6.998621501089349 2 0 0
1369 1 20.86999839239096 10.416448517512814 7.944012610233026 -2 1 -1
507 1 20.449228550497708 13.716386174674561 7.76582073148369 0 0 -1
195 1 21.345060541351163 13.266050337770569 5.358742559298383 1 0 -2
1099 1 22.634652452004048 13.572153872598907 7.82692636274064 -1 0 -2
527 1 24.05176029664199 12.74580932301572 4.7773489877315765 -1 -2 1
692 1 23.882574489999286 12.360289772776353 7.035579771543478 0 1 2
1938 1 26.13075885312784 13.377999650789953 5.358325880682526 0 0 -1
50 1 27.437071419681516 9.879877011874681 5.012575858333514 0 0 -1
667 1 25.733123493717446 10.967176940969136 8.637906722858617 0 0 -1
513 1 27.878910282759733 12.300944591959153 6.258613105034357 0 0 1
1673 1 26.37340068934361 12.76389839861524 7.499518314251411 -2 1 1
949 1 28.0848746489159 12.271616186482872 9.03143304918895 -3 -2 1
1727 1 28.34150153545772 10.465130282464465 7.508641161571753 -2 -1 -1
1598 1 25.784811778148743 10.727490667450306 6.202291371659026 1 1 -1
1488 1 3.2855845443171336 1.6802171522872023 13.947620691645012 -3 4 0
1947 1 0.06473724051836588 0.5326292944146261 11.044564412453834 0 0 0
570 1 3.715249922531128 0.8379658358477697 11.615998554736338 -1 0 -2
1206 1 3.6205691806431455 2.6364439316641493 9.9875781800016 0 0 -1
657 1 -0.1618633539069993 1.8286122230262438 13.396491879546282 2 -2 1
1817 1 2.0183622262683487 4.149745276352683 9.877850579272938 -1 0 -1
1778 1 1.587557002166081 0.2893897842249339 13.299143352027631 -1 0 0
1243 1 -0.022042678029466523 3.9955149826680207 13.618905218308889 2 -1 -1
1174 1 1.730127102784569 1.891653205598844 11.848638313199508 1 0 -2
2034 1 0.10751171229796697 3.813769585606571 11.64137807901411 1 1 3
47 1 2.0508744162244588 3.639001759217325 13.488955632323341 1 0 1
404 1 7.536660881365665 3.639380485362949 13.606791864154847 -3 1 -2
356 1 5.678173722325539 1.7302097412763173 10.336726870928683 -1 -1 0
1852 1 5.926070931338432 -0.22178476229480637 11.559788652574687 0 1 -2
1392 1 5.575206572504925 1.5820328865740156 13.240876695774308 0 -1 0
1912 1 5.96050176768047 3.521212357912106 11.889225425183747 1 2 0
316 1 7.351355431231514 1.6105420112439166 12.222066908968843 2 0 0
607 1 4.4427989364597 4.329735872461852 13.835684403799693 0 2 0
1530 1 7.4287122137335615 4.258179228736363 10.280289465878061 0 0 0
1034 1 11.974924598660602 3.9840371086636406 13.830971318935486 -4 -2 0
717 1 8.513768435033787 1.10032221257113 10.217062165168281 1 0 1
1413 1 9.287876640451238 3.1652909901444137 10.054856849451953 0 1 0
915 1 9.755198217193447 1.4624582002603506 12.340540476272153 1 0 -1
988 1 10.124478427287567 4.314819630584125 12.592370263378697 -1 -1 2
1151 1 11.779638224532926 2.210486662665532 12.526749073864154 2 -1 0
1954 1 11.74619852914023 4.124445578212256 10.1561964246484 -1 0 1
1743 1 11.206614543425689 0.9603011936562826 10.588071601181626 0 0 -1
1551 1 15.869109268833597 3.055245150502088 13.356169879264042 1 0 -1
1442 1 13.917185850134754 3.7136108576194444 12.268876973849167 2 1 0
1457 1 13.17998803774308 2.337080781757228 10.298184803809862 -1 -1 0
57 1 14.29632618903537 -0.005879667226074525 10.722848332622803 1 -1 -1
1838 1 15.292891008467492 1.1882247341304966 12.495667650383771 -3 0 2
666 1 15.811724956967677 3.0046059786913952 11.101585539587203 0 1 1
12 1 14.02280452832383 4.473929462264451 9.999445486519518 0 1 1
701 1 13.086486192446348 0.11256237753541831 12.484371946191672 -1 1 0
1265 1 19.823933243663777 -0.08845106908063369 12.440447609091107 1 0 0
2024 1 17.219350834080316 0.7849334115149404 10.325708967117551 1 2 0
1955 1 17.89043173034757 2.037301970821996 12.410843871548067 2 -3 1
1493 1 19.176766167516558 3.6604270673539028 11.630643343705811 -1 0 1
1250 1 19.191047944049576 1.6972075016308723 10.30526942958077 -1 2 -1
1016 1 20.278756974429893 1.974765848584112 13.815828764003202 -1 -2 -1
535 1 18.464610659584324 3.825354514067751 13.678136221552501 -2 -1 0
1717 1 22.775476173887096 0.6592567876143897 9.708763071109866 0 1 0
2023 1 21.89354449183482 0.05787672012674555 11.926230562585394 -1 0 0
844 1 21.370880223685685 3.3855023953619257 12.567129602762636 -2 -1 1
1576 1 23.12921320176481 3.95447924586761 11.150801664756612 -1 1 0
895 1 21.059702936213103 2.494180797960751 10.292478599194963 1 -1 -1
517 1 22.862808478869802 2.0623194442973554 12.080294396419957 -1 0 -1
1364 1 25.108690529584038 3.9493390071637364 13.033770355033875 -1 0 1
962 1 26.49061342926077 3.8812578782368785 10.438175908586329 -1 -1 1
245 1 26.897813808582814 2.471424294116093 12.458668819049565 0 2 -2
1150 1 24.575786081532865 2.350116646962568 10.435290104976549 1 0 1
1010 1 24.78428019866979 1.4801898832981737 12.774253368061911 0 1 2
1083 1 27.471350862406048 1.9521210529192063 9.86188505157046 2 0 0
808 1 26.39629341769094 0.6201127214590888 11.253224878021909 -1 0 2
841 1 2.1599286831324624 7.663643234005465 12.432598221947993 -1 2 0
1934 1 1.4330145901219218 5.676384202802716 11.562673940574571 1 0 0
831 1 3.1735045420098067 6.527781582045987 10.645751108901793 3 0 2
896 1 -0.11884722744895271 7.9630310071950845 12.650470906629286 2 -2 0
335 1 0.7030811156603411 7.8889140548130765 10.533626422922762 0 -1 -2
585 1 2.6956621662200386 5.845399814641833 13.869225510341359 1 -1 0
1718 1 3.0786328443133533 8.88783192584872 10.55231516601549 0 0 1
1375 1 3.4596694673550132 4.769237056831991 11.749295539968394 1 0 -3
735 1 4.92028516522734 8.821997256478765 13.86462717326992 -1 -1 1
1405 1 5.393549522777573 5.671914667232291 10.272831015683476 0 0 -1
464 1 7.373763444567414 7.563367578308904 13.256542255602733 -2 1 0
1646 1 6.4365785254834185 5.843066973135163 12.375898349247006 1 2 0
144 1 4.8617727260376 7.267931841534417 12.095458486793857 -1 0 2
587 1 7.3252168783746505 6.699924898018773 10.339093704929926 2 -1 0
484 1 5.357716466716568 9.091322034639736 10.724757281932796 -1 1 -1
922 1 9.625790023815414 7.403500151753353 11.821508876976333 0 -1 1
1944 1 8.1329841590406 9.129850357409058 11.07282016302998 1 -1 2
920 1 10.984966821651554 6.018768842177358 13.810724904702235 -1 0 4
889 1 10.01431757336351 5.824564375191581 10.046425991843323 0 1 -2
723 1 11.531524115337106 7.430120090000672 10.370229979428936 0 0 -2
1262 1 8.336515107037416 5.60472084454481 12.369993939663162 -1 2 -1
174 1 12.299729217920516 5.315201706745686 11.8488652848807 1 -1 0
1625 1 12.180017330287308 8.218159769309272 13.170454508489641 2 0 1
444 1 13.92592303641487 8.476680630112496 11.614278217731156 -1 -1 -1
1537 1 14.130505655667966 6.771676063186468 10.49062438217001 -1 1 0
1520 1 14.118216188880483 6.384174505977232 12.670349905135657 -1 0 -2
885 1 15.649853321877488 8.408633940193749 13.021222168701314 -2 2 2