LAMMPS (29 Oct 2020)
OMP_NUM_THREADS environment is not set. Defaulting to 1 thread. (src/comm.cpp:94)
  using 1 OpenMP thread(s) per MPI task
package omp 0
using multi-threaded neighbor list subroutines
package omp 2
set 2 OpenMP thread(s) per MPI task
using multi-threaded neighbor list subroutines
units metal
dimension 3
boundary p p p


lattice fcc 3.5440
Lattice spacing in x,y,z = 3.5440000 3.5440000 3.5440000
region box block 0 8 0 8 0 8 units lattice
create_box 1 box
Created orthogonal box = (0.0000000 0.0000000 0.0000000) to (28.352000 28.352000 28.352000)
  1 by 2 by 2 MPI processor grid
create_atoms 1 box
Created 2048 atoms
  create_atoms CPU = 0.001 seconds

# read_restart after_cooling_press_150000_1500.lmp

variable P equal 200000
variable dt equal 0.001
variable loopVar loop 6
variable sys_press equal "press/10000"

variable sim string "heating"
# variable sim string "cooling"



pair_style eam/alloy
pair_coeff * * Co_Zhou04.eam.alloy Co
Reading eam/alloy potential file Co_Zhou04.eam.alloy with DATE: 2018-03-30




neighbor 2 bin
neigh_modify every 10 check yes

thermo 1000
thermo_style custom step temp vol press ke pe density

timestep $(dt)
timestep 0.0010000000000000000208



velocity all create 2600 123123

print """
yo aagadi
"""

yo aagadi

label ensemble

print """
Label pachadi solti, hos garam.
"""

Label pachadi solti, hos garam.

variable T equal 2500+${loopVar}*100
variable T equal 2500+1*100
# variable T equal 1400


reset_timestep 0
fix 1 all npt temp $T $T $(dt*100) iso $P $P $(dt*1000)
fix 1 all npt temp 2600 $T $(dt*100) iso $P $P $(dt*1000)
fix 1 all npt temp 2600 2600 $(dt*100) iso $P $P $(dt*1000)
fix 1 all npt temp 2600 2600 0.10000000000000000555 iso $P $P $(dt*1000)
fix 1 all npt temp 2600 2600 0.10000000000000000555 iso 200000 $P $(dt*1000)
fix 1 all npt temp 2600 2600 0.10000000000000000555 iso 200000 200000 $(dt*1000)
fix 1 all npt temp 2600 2600 0.10000000000000000555 iso 200000 200000 1
print """
<--------------------------------------------------------------------->
<------------------ Equilibrating at temperature $T ----------------->
<--------------------------------------------------------------------->
"""

<--------------------------------------------------------------------->
<------------------ Equilibrating at temperature 2600 ----------------->
<--------------------------------------------------------------------->

fix temp all print 1000 "$(step) $(temp) $(press) ${sys_press} $(vol) $(ke) $(pe) $(density)" file temp_${sim}.txt screen no title  "step temp press pressGiga vol ke pe density"
fix temp all print 1000 "$(step) $(temp) $(press) ${sys_press} $(vol) $(ke) $(pe) $(density)" file temp_heating.txt screen no title  "step temp press pressGiga vol ke pe density"
run 250000
Last active /omp style is pair_style eam/alloy/omp
Neighbor list info ...
  update every 10 steps, delay 10 steps, check yes
  max neighbors/atom: 2000, page size: 100000
  master list distance cutoff = 7.6035394
  ghost atom cutoff = 7.6035394
  binsize = 3.8017697, bins = 8 8 8
  1 neighbor lists, perpetual/occasional/extra = 1 0 0
  (1) pair eam/alloy/omp, perpetual
      attributes: half, newton on, omp
      pair build: half/bin/atomonly/newton/omp
      stencil: half/bin/3d/newton
      bin: standard
Per MPI rank memory allocation (min/avg/max) = 4.354 | 4.354 | 4.354 Mbytes
Step Temp Volume Press KinEng PotEng Density 
       0         2600    22790.356    39922.345    687.94834    -9015.757        8.794 
    1000    2703.8912    22702.794     196734.7    715.43749   -8284.9738    8.8279172 
    2000    2639.0719    22558.435    197759.19     698.2866   -8336.1434    8.8844101 
    3000    2653.5158    22666.903     197208.5     702.1084   -8295.5466    8.8418954 
    4000    2595.6391    22595.372    198768.49    686.79447   -8311.2306    8.8698867 
    5000    2587.0605    22555.479    200283.12    684.52462   -8321.4344    8.8855742 
    6000    2616.0518    22618.962    200078.85    692.19559   -8295.0978     8.860636 
    7000    2546.0849    22614.963    201747.88    673.68266   -8285.2546    8.8622028 
    8000    2580.1706    22472.956    209908.06    682.70158   -8301.2608    8.9182032 
    9000    2621.4548    22693.986    190701.21    693.62519   -8315.8138    8.8313437 
   10000    2733.0446     22502.77    212832.26    723.15135    -8293.044    8.9063874 
   11000    2529.4983    22666.904    192872.48     669.2939   -8308.7114    8.8418951 
   12000    2588.0443    22551.948    203056.52    684.78492   -8307.9629    8.8869656 
   13000    2570.1304     22638.33    192290.05    680.04498   -8324.1473    8.8530552 
   14000    2691.4233     22593.87    202687.77    712.13855   -8301.3594    8.8704762 
   15000    2588.2046    22505.153    207600.99    684.82733   -8305.9115    8.9054444 
   16000    2577.9179     22615.46     193918.2    682.10551   -8331.3787    8.8620079 
   17000    2662.7367     22565.51    205266.39    704.54818   -8295.7772    8.8816244 
   18000     2572.785     22689.48    191318.17    680.74738   -8312.1638    8.8330973 
   19000    2612.4775    22539.119    205540.41    691.24983   -8304.7492    8.8920239 
   20000    2638.5035    22666.646    194031.52    698.13621   -8303.5427    8.8419959 
   21000    2511.0002    22571.329    200776.95    664.39939   -8305.2895    8.8793348 
   22000    2561.4084    22670.798    195352.66    677.73717   -8298.3984    8.8403763 
   23000    2634.5043    22589.144    206024.98    697.07802   -8282.6668    8.8723322 
   24000    2523.8305    22619.865    194922.19    667.79424   -8315.8532     8.860282 
   25000    2589.0206    22569.356    203210.32    685.04323   -8299.5224    8.8801111 
   26000    2764.1675    22616.417    197927.34    731.38633   -8318.8602    8.8616329 
   27000    2662.2257    22692.971    194842.08      704.413   -8296.2393    8.8317387 
   28000    2646.6412    22592.493    199633.18    700.28939    -8311.336    8.8710167 
   29000    2599.2707     22695.81    185927.16    687.75539   -8337.8879    8.8306336 
   30000    2579.7216    22504.924    210679.47    682.58278   -8286.7268    8.9055347 
   31000    2568.2561    22630.293    200025.71    679.54904   -8291.5821    8.8561992 
   32000    2582.5568    22545.566    202248.95    683.33296   -8316.8599    8.8894814 
   33000    2623.9873    22632.825    198522.27    694.29526   -8301.5647    8.8552087 
   34000    2589.3244    22560.401    203372.21    685.12363   -8304.2487    8.8836356 
   35000    2572.2745    22622.778     195085.7    680.61231   -8318.4986    8.8591413 
   36000    2623.5314    22535.164    209512.88    694.17465   -8285.1657    8.8935845 
   37000     2569.355    22546.307    201331.99     679.8398    -8317.623    8.8891892 
   38000    2590.6068    22674.263    196739.21    685.46294   -8289.9974    8.8390254 
   39000    2564.7981    22575.923    200115.98    678.63407   -8314.3268    8.8775279 
   40000    2582.3958    22499.286    210834.67    683.29034    -8292.933    8.9077664 
   41000    2550.8513    22685.297    189738.85    674.94381   -8319.8452     8.834726 
   42000    2641.4958    22551.323    205547.36    698.92795   -8298.9917    8.8872119 
   43000    2604.4389    22562.915    203562.65    689.12286   -8302.8325    8.8826459 
   44000    2649.1458    22719.219    190848.01    700.95211   -8304.1766    8.8215349 
   45000    2609.2178    22590.112    205892.04    690.38732   -8279.8186     8.871952 
   46000    2631.2243    22664.167    192574.47    696.21016    -8317.101    8.8429629 
   47000    2634.7189    22605.724    198226.71    697.13481   -8316.6313    8.8658245 
   48000    2601.6522    22540.688       206198    688.38551   -8300.3415    8.8914051 
   49000    2549.3687    22590.288    198933.79    674.55152    -8313.646    8.8718828 
   50000    2571.2082    22610.348    200451.52    680.33017   -8296.5846    8.8640117 
   51000    2543.4847    22557.852    199292.02    672.99466   -8324.2851    8.8846395 
   52000    2549.6351    22633.868    201618.33    674.62203   -8279.6919    8.8548005 
   53000    2667.7424    22755.264    188821.03    705.87267   -8302.0884    8.8075615 
   54000    2564.4688    22536.304    207838.97    678.54694    -8290.505    8.8931346 
   55000    2516.3644    22544.011    203204.65    665.81875    -8304.946    8.8900946 
   56000    2672.2828    22677.148    198809.88    707.07404   -8282.9654    8.8379011 
   57000    2575.1775    22612.086    200163.47    681.38041    -8298.337    8.8633303 
   58000    2609.5233    22571.122    197245.61    690.46818     -8331.12     8.879416 
   59000    2604.9325    22565.281    205849.02    689.25346   -8289.5572    8.8817148 
   60000    2585.6485    22649.822     194616.3    684.15099   -8311.6033    8.8485633 
   61000    2573.8772    22520.275    204466.57    681.03637   -8312.2213    8.8994645 
   62000    2588.7344    22578.831    201857.28    684.96751   -8303.6516    8.8763844 
   63000    2607.2689    22525.497    202932.69    689.87166   -8323.3189    8.8974013 
   64000    2601.0134    22598.764    198609.31     688.2165   -8315.1621    8.8685552 
   65000    2598.9891    22594.081    198592.29    687.68088   -8315.1162    8.8703932 
   66000    2654.2027     22642.06    195405.32    702.29013   -8314.4397    8.8515969 
   67000     2581.794    22497.383    207426.53    683.13113   -8310.5629      8.90852 
   68000    2606.2931    22684.588    190932.67    689.61347   -8316.2381    8.8350022 
   69000    2564.2078    22638.653    199293.77     678.4779   -8294.1839    8.8529291 
   70000    2676.7708    22615.096    196630.54    708.26156   -8318.1269    8.8621507 
   71000    2578.8351     22642.62    193870.58    682.34822   -8318.6909     8.851378 
   72000    2627.7502    22508.206    207726.93    695.29092   -8307.5192    8.9042366 
   73000     2587.992    22635.164    193056.21    684.77109   -8326.2162    8.8542936 
   74000    2615.6398    22633.576    200080.28    692.08658   -8293.0941    8.8549149 
   75000    2562.6333    22572.627    203509.67    678.06127   -8299.2639    8.8788244 
   76000    2437.0433    22730.662    188942.52    644.83073   -8296.8784    8.8170939 
   77000    2623.2069    22474.185    210672.49    694.08879   -8304.0896    8.9177156 
   78000    2601.1281    22644.977    199602.18    688.24684   -8288.6361    8.8504567 
   79000    2577.9989    22580.457    198199.33    682.12694   -8319.6107    8.8757453 
   80000     2526.058    22632.835    197734.51    668.38362   -8295.8129    8.8552048 
   81000    2523.2021     22591.59     204644.7    667.62796   -8277.7074    8.8713714 
   82000    2644.6481    22567.941    200187.43    699.76204   -8323.4731    8.8806678 
   83000    2612.6242    22671.369    195387.58    691.28864   -8303.7463    8.8401538 
   84000    2625.7831    22551.311    203073.76    694.77044   -8313.0596    8.8872166 
   85000      2614.24    22620.997    202310.37    691.71619   -8284.1534    8.8598388 
   86000    2625.3627    22664.103    192744.18    694.65919   -8316.0145     8.842988 
   87000    2630.1658    22657.695    197842.07    695.93008   -8291.7046    8.8454887 
   88000    2590.5141    22532.636    205258.62    685.43843   -8303.7267    8.8945825 
   89000    2529.0925    22601.478    194228.18    669.18654   -8328.5586    8.8674901 
   90000    2700.9367    22459.565    208456.64    714.65573   -8327.7175    8.9235202 
   91000    2575.0441    22540.256    202258.72    681.34512   -8312.1862    8.8915755 
   92000     2607.109    22551.421    202076.99    689.82935   -8313.2781    8.8871734 
   93000    2644.2283    22667.999    198485.84    699.65094   -8286.2977    8.8414679 
   94000    2629.4011    22627.784    195288.22    695.72775   -8317.2265    8.8571815 
   95000    2629.5532    22510.625    205551.19    695.76798   -8317.3172    8.9032796 
   96000    2635.7392     22631.94    195647.04    697.40477    -8313.418     8.855555 
   97000    2547.5573    22518.846    206342.84    674.07225   -8304.9411    8.9000291 
   98000    2506.7616    22710.438    188910.47    663.27789     -8310.16    8.8249459 
   99000    2636.0352    22563.501    204366.95    697.48309   -8300.1712    8.8824154 
  100000    2614.4444    22681.032    195004.95    691.77027   -8297.6559    8.8363874 
  101000    2667.4096    22591.907    201739.53    705.78463    -8305.331    8.8712471 
  102000    2603.0558    22604.621    199777.62    688.75689   -8305.2426    8.8662572 
  103000    2556.8622    22575.616    202954.24    676.53426   -8297.3724    8.8776488 
  104000    2625.8484    22680.235    197066.89    694.78772   -8292.9211    8.8366979 
  105000    2534.6316    22538.988    207048.62    670.65217   -8289.5961    8.8920758 
  106000    2540.1166    22475.953    207542.01    672.10347   -8317.6375    8.9170139 
  107000    2570.3511    22665.608    194029.39    680.10337   -8306.8252    8.8424005 
  108000    2572.2233    22661.672    196157.17    680.59875   -8299.0674    8.8439363 
  109000    2676.1205    22571.228    209811.36    708.08949   -8271.8739    8.8793745 
  110000    2622.2688    22736.478    183943.13    693.84058   -8330.5417    8.8148386 
  111000    2686.6726    22510.318    206818.33    710.88153   -8314.4235     8.903401 
  112000    2562.7852     22613.12    191123.87    678.10147   -8343.8844    8.8629248 
  113000     2613.137    22506.307     207487.4    691.42433   -8307.4935    8.9049878 
  114000    2600.1975    22550.243    204254.68     688.0006   -8303.0337    8.8876374 
  115000    2660.0351    22671.733     193157.8    703.83335   -8313.6948    8.8400119 
  116000    2555.3485    22511.153    206772.88    676.13376   -8309.9706    8.9030708 
  117000    2624.8885    22690.343     190537.4    694.53374   -8318.3809    8.8327616 
  118000    2533.4499    22568.084    198344.99    670.33949   -8321.5639    8.8806116 
  119000    2615.8926    22576.995    202593.53    692.15345   -8304.5295    8.8771062 
  120000      2577.21    22656.555    197240.04    681.91821   -8295.0223    8.8459337 
  121000    2587.6067    22582.384    200698.57    684.66913   -8302.1441    8.8749881 
  122000    2626.7802    22553.757    205885.26    695.03425   -8295.8995     8.886253 
  123000     2552.208    22687.681    187202.53    675.30281   -8329.2896    8.8337977 
  124000    2639.1899    22586.832    201347.31    698.31782   -8306.1377    8.8732401 
  125000    2621.6177     22527.93    207474.92     693.6683   -8297.1733    8.8964403 
  126000    2631.2759    22596.998     194561.1    696.22381   -8335.1932    8.8692484 
  127000    2607.1415    22643.517    199977.85    689.83794   -8290.6654    8.8510274 
  128000     2617.645    22565.973    198892.66    692.61713   -8324.9566    8.8814421 
  129000    2673.1671     22571.43    205849.96    707.30802   -8290.6221     8.879295 
  130000    2570.7186    22623.268    196857.04    680.20062   -8308.7386    8.8589495 
  131000    2520.3689    22667.788    196800.28    666.87832     -8290.94    8.8415503 
  132000    2703.8778     22553.12    205476.14    715.43394   -8302.8449    8.8865039 
  133000    2537.2006    22609.694    198292.51    671.33191   -8308.1614     8.864268 
  134000    2650.6196    22610.983    205347.44    701.34207   -8276.8614    8.8637627 
  135000    2555.9868     22568.02    198987.27    676.30265   -8322.3059    8.8806367 
  136000    2683.1217     22529.41    208073.27    709.94198   -8296.8789    8.8958561 
  137000    2616.6917    22598.869    194060.67    692.36489   -8338.0262    8.8685138 
  138000    2589.5581    22513.112    208281.54    685.18547    -8296.549    8.9022959 
  139000    2633.6431    22551.308    206245.33    696.85015   -8297.5752    8.8872177 
  140000    2576.3307    22659.237    189614.83    681.68555   -8329.2621    8.8448868 
  141000    2546.6991    22606.012    203137.62    673.84518   -8283.9439    8.8657117 
  142000    2691.8609    22690.772    189722.61    712.25431   -8327.3538    8.8325943 
  143000    2634.8936    22500.534    207230.05    697.18102   -8309.9094    8.9072723 
  144000    2546.8203     22681.97     189719.8    673.87724   -8322.5948     8.836022 
  145000    2618.6603    22676.757    194742.17    692.88578   -8301.8611    8.8380532 
  146000    2501.0255     22530.93    203848.42    661.76015   -8310.1493    8.8952557 
  147000    2636.8434    22596.107    202312.47    697.69694   -8298.2024     8.869598 
  148000    2623.6006    22623.223    195866.91    694.19296   -8317.7102    8.8589669 
  149000    2646.6287    22548.718    207406.99     700.2861   -8293.4361    8.8882387 
  150000    2589.9893    22622.052    194844.62    685.29955   -8320.0867    8.8594254 
  151000    2737.1482    22631.529    200388.53    724.23716   -8304.0746    8.8557156 
  152000    2613.0366     22589.26    197488.41    691.39777    -8321.946    8.8722865 
  153000    2728.8704    22622.843    202376.26    722.04687   -8293.7642    8.8591157 
  154000    2547.2222    22598.513    200905.97    673.98356   -8298.2577    8.8686539 
  155000    2641.1473    22683.344    195592.29    698.83574   -8297.3684    8.8354867 
  156000     2511.891    22467.333    210741.98    664.63509   -8298.4562     8.920435 
  157000    2557.0893    22681.081    194291.02    676.59435   -8301.6325    8.8363683 
  158000    2605.1061    22668.109    191645.52    689.29938   -8317.3348    8.8414252 
  159000    2625.4288    22563.868    204722.49    694.67668   -8295.0855     8.882271 
  160000    2533.6748    22561.079    201266.51    670.39899   -8310.0903    8.8833688 
  161000    2614.2794    22483.533    206168.82    691.72662    -8324.177    8.9140078 
  162000    2549.3984    22609.999    199372.23    674.55939   -8302.5349    8.8641485 
  163000    2516.6421    22556.902    205164.77    665.89223   -8293.0749    8.8850139 
  164000    2682.6829    22592.148    204904.72    709.82586   -8288.2443    8.8711524 
  165000    2524.1838    22612.826    197847.63    667.88772   -8308.6699    8.8630402 
  166000    2552.0527    22593.709    205674.05    675.26171   -8275.6955    8.8705394 
  167000    2599.4082    22563.061    203544.84    687.79176   -8302.6035    8.8825884 
  168000    2631.3088    22609.189    199401.77    696.23251   -8304.9817    8.8644658 
  169000    2593.0422    22560.402    203817.27    686.10734   -8301.7841    8.8836355 
  170000    2652.1156    22523.062     207438.5    701.73791   -8302.3151    8.8983632 
  171000    2520.9975      22672.5    188355.65    667.04464   -8328.8598    8.8397125 
  172000    2654.0658    22565.738    201538.72    702.25392   -8313.9578    8.8815347 
  173000    2639.1877    22634.012    200266.35    698.31724   -8293.3542     8.854744 
  174000    2498.4815    22600.511    196071.06    661.08702   -8318.1048    8.8678696 
  175000    2552.3289    22518.352    209121.83     675.3348   -8289.3112    8.9002245 
  176000    2612.0989    22595.005    196411.66    691.14967   -8326.3595    8.8700308 
  177000    2644.9257    22626.604    198768.51    699.83549   -8302.4049    8.8576431 
  178000    2520.2006    22553.352    201289.75    666.83378   -8311.4199    8.8864124 
  179000     2611.812    22606.489    201316.78    691.07376   -8295.5622    8.8655249 
  180000    2655.0892      22547.7    205599.65    702.52469   -8302.5912    8.8886397 
  181000    2602.1386     22662.42    193085.52    688.51421   -8314.3969    8.8436444 
  182000    2573.0233    22586.207     198531.5    680.81043   -8315.4114    8.8734856 
  183000    2631.0732    22483.108    214043.61    696.17018   -8282.9487    8.9141764 
  184000    2618.2155    22636.671    192378.89    692.76809   -8327.9956    8.8537042 
  185000     2595.829     22576.09    199111.61    686.84471   -8320.5915    8.8774623 
  186000    2572.3937    22541.565    205449.42    680.64385   -8300.4229    8.8910592 
  187000    2664.8776    22556.995    203405.98    705.11467   -8309.3408    8.8849773 
  188000    2490.7699    22775.055    180742.21    659.04655   -8324.9367     8.799908 
  189000    2672.2094    22510.171    208882.68    707.05461   -8299.6834    8.9034591 
  190000     2602.701    22712.145    189857.78    688.66302   -8308.4325    8.8242828 
  191000    2643.5063    22604.076    202375.14    699.45993   -8293.6922    8.8664712 
  192000    2614.9568     22567.86     199539.6    691.90585   -8319.0202    8.8806995 
  193000    2566.9379    22612.069    196847.68    679.20025   -8312.5608    8.8633371 
  194000    2534.3395    22586.541    200576.15    670.57488   -8305.4851    8.8733545 
  195000    2631.3023    22448.556    212893.95    696.23078   -8306.1959    8.9278966 
  196000    2665.1439    22709.095    189572.26    705.18513   -8318.8334    8.8254679 
  197000    2605.1292    22529.616    207091.47    689.30551    -8299.873    8.8957745 
  198000    2581.0292    22631.112    194918.85    682.92874    -8320.251     8.855879 
  199000    2490.7545    22576.478    205246.88    659.04248   -8283.8813    8.8773097 
  200000    2591.8014    22688.433    194039.86    685.77904   -8297.1528    8.8335049 
  201000     2527.735    22640.313    195101.12    668.82734   -8307.2527    8.8522798 
  202000    2674.3988    22468.266    211295.15    707.63393   -8308.7814    8.9200646 
  203000    2562.0868    22645.544     192868.1    677.91668   -8320.1195    8.8502348 
  204000    2612.7131    22579.599    202662.86    691.31217   -8301.5816    8.8760827 
  205000     2644.794    22600.201     205388.4    699.80063   -8285.0007    8.8679912 
  206000    2506.6735    22643.312    195997.05    663.25456   -8304.4729    8.8511072 
  207000    2583.0724    22553.757    203967.03    683.46937    -8303.138    8.8862527 
  208000     2514.502    22591.148    201612.61    665.32594   -8294.9609    8.8715452 
  209000    2608.5979    22593.086    200194.28    690.22332   -8307.8494    8.8707841 
  210000    2634.8799    22644.053    193900.42     697.1774   -8321.0097    8.8508176 
  211000    2662.7225    22510.264    206745.83    704.54445   -8311.5669    8.9034222 
  212000    2575.6306    22633.827    193295.85    681.50031   -8325.1537    8.8548167 
  213000    2692.0209    22629.404    201545.05    712.29665   -8291.3295    8.8565473 
  214000    2599.7495    22673.997    192344.87    687.88205   -8316.7867    8.8391292 
  215000    2609.5604    22509.017    208303.26    690.47799   -8300.1951    8.9039155 
  216000    2667.4763    22599.935    199368.56    705.80228   -8314.7088    8.8680957 
  217000    2639.0205    22603.713    197625.83      698.273     -8317.75    8.8666135 
  218000    2550.4529    22634.927    194076.84    674.83841    -8319.971    8.8543862 
  219000    2611.6862    22577.898    201044.61    691.04045   -8310.1439    8.8767512 
  220000      2582.54    22601.026    199716.11     683.3285   -8304.4696    8.8676676 
  221000    2495.6914    22622.739    196209.31    660.34876   -8307.8746    8.8591567 
  222000     2599.993    22560.532    206123.51    687.94648   -8292.5289    8.8835842 
  223000    2557.4599    22594.079    202303.38    676.69242   -8294.5718     8.870394 
  224000    2584.5148    22734.917     184809.6    683.85104   -8327.0649    8.8154439 
  225000    2687.1532    22565.759    207170.64    711.00868   -8290.4484    8.8815264 
  226000    2576.5923     22588.81    194517.78    681.75478   -8332.1645    8.8724634 
  227000    2698.9872    22667.693    193260.66    714.13991   -8318.3599    8.8415873 
  228000    2577.5051    22447.867    208953.78    681.99629   -8322.1918    8.9281708 
  229000    2589.1811    22626.366     197997.5    685.08572   -8301.4916    8.8577364 
  230000    2593.9429    22539.183       208402    686.34565   -8288.4384    8.8919989 
  231000    2576.0356    22562.273    200646.25    681.60746   -8318.5689    8.8828989 
  232000    2507.8048    22640.301    194663.51     663.5539   -8311.1045    8.8522846 
  233000    2606.1407    22405.974    213697.83    689.57315   -8315.3858    8.9448638 
  234000    2693.2987    22659.664    196481.26    712.63477   -8302.9919    8.8447201 
  235000     2561.684    22595.739    197354.26     677.8101   -8316.1593    8.8697426 
  236000    2628.1391     22628.46    198735.88    695.39381   -8305.1941    8.8569169 
  237000     2685.185      22475.6    208772.04    710.48791   -8318.2043    8.9171542 
  238000    2514.7208    22705.767    187714.28    665.38384   -8320.4914    8.8267612 
  239000    2713.2394    22614.787    198814.01    717.91097   -8310.7504    8.8622717 
  240000    2567.5636    22516.845    211597.23    679.36583   -8278.6306    8.9008203 
  241000    2653.5668    22599.041    199337.06    702.12187   -8313.9976    8.8684465 
  242000    2662.4401    22648.249    197707.19     704.4697   -8304.8116    8.8491781 
  243000     2561.889    22608.053    195134.04    677.86435    -8325.186    8.8649115 
  244000    2621.8963    22651.706    196434.68    693.74201   -8304.6548    8.8478276 
  245000    2616.0978     22619.23     198786.8    692.20775   -8304.0566    8.8605308 
  246000    2559.7602    22564.045    202345.89    677.30107   -8301.4845    8.8822013 
  247000    2661.6767    22734.603    188581.92    704.26772    -8309.937    8.8155657 
  248000    2631.8441    22550.122    204086.56    696.37416   -8308.1837    8.8876853 
  249000    2526.2156    22580.657    200933.89    668.42532   -8303.9046    8.8756668 
  250000    2562.8589    22561.323    202973.29    678.12099   -8306.0523     8.883273 
Loop time of 497.586 on 8 procs for 250000 steps with 2048 atoms

Performance: 43.410 ns/day, 0.553 hours/ns, 502.425 timesteps/s
121.8% CPU use with 4 MPI tasks x 2 OpenMP threads

MPI task timing breakdown:
Section |  min time  |  avg time  |  max time  |%varavg| %total
---------------------------------------------------------------
Pair    | 291.53     | 296.64     | 301.55     |  21.0 | 59.62
Neigh   | 4.6518     | 4.784      | 4.8634     |   3.6 |  0.96
Comm    | 21.802     | 26.878     | 32.241     |  73.0 |  5.40
Output  | 0.0057551  | 0.01073    | 0.0124     |   2.8 |  0.00
Modify  | 168.23     | 168.35     | 168.5      |   0.9 | 33.83
Other   |            | 0.9271     |            |       |  0.19

Nlocal:        512.000 ave         528 max         500 min
Histogram: 1 1 0 0 0 1 0 0 0 1
Nghost:        3088.00 ave        3100 max        3074 min
Histogram: 1 0 0 1 0 0 0 0 1 1
Neighs:        42507.5 ave       46062 max       40551 min
Histogram: 2 0 0 1 0 0 0 0 0 1

Total # of neighbors = 170030
Ave neighs/atom = 83.022461
Neighbor list builds = 5087
Dangerous builds = 0


# fix 132 all momentum 100 linear 1 1 1 angular
fix out_file_1 all print 1000 "$(step) $(temp) $(press) ${sys_press} $(vol) $(ke) $(pe) $(density)" file one_phase_${sim}_press_$P_$T_.txt screen no title  "step temp press pressGiga vol ke pe density"
fix out_file_1 all print 1000 "$(step) $(temp) $(press) ${sys_press} $(vol) $(ke) $(pe) $(density)" file one_phase_heating_press_$P_$T_.txt screen no title  "step temp press pressGiga vol ke pe density"
fix out_file_1 all print 1000 "$(step) $(temp) $(press) ${sys_press} $(vol) $(ke) $(pe) $(density)" file one_phase_heating_press_200000_$T_.txt screen no title  "step temp press pressGiga vol ke pe density"
fix out_file_1 all print 1000 "$(step) $(temp) $(press) ${sys_press} $(vol) $(ke) $(pe) $(density)" file one_phase_heating_press_200000_2600_.txt screen no title  "step temp press pressGiga vol ke pe density"

# dump 3 all custom 1000 traj_npt_new.lammpstrj id type x y z
run 50000
Last active /omp style is pair_style eam/alloy/omp
Per MPI rank memory allocation (min/avg/max) = 4.354 | 4.354 | 4.354 Mbytes
Step Temp Volume Press KinEng PotEng Density 
  250000    2562.8589    22561.323    202973.29    678.12099   -8306.0523     8.883273 
  251000    2598.2222    22556.931    206554.23    687.47795   -8286.9033    8.8850023 
  252000    2545.3124    22595.286    199051.27    673.47824   -8308.9617    8.8699203 
  253000    2629.9669     22608.05    196966.86    695.87745   -8319.6382    8.8649124 
  254000    2625.2051    22471.534    208700.74    694.61749   -8319.0381    8.9187674 
  255000    2657.5558    22669.375    189971.23    703.17735   -8330.6602    8.8409313 
  256000    2646.0842    22573.078    206186.49    700.14202   -8290.6469    8.8786468 
  257000    2584.3267    22589.196    200292.78    683.80125    -8307.457    8.8723118 
  258000    2591.5614    22630.504    195048.19    685.71552   -8315.9576    8.8561166 
  259000    2565.2635     22554.84    203174.79    678.75722   -8302.2063     8.885826 
  260000    2623.6261     22660.25    196767.14    694.19971   -8296.7415    8.8444915 
  261000    2640.9603    22564.617    201952.17    698.78626   -8311.9728    8.8819759 
  262000    2555.4036    22645.465    196079.51    676.14834   -8301.9293     8.850266 
  263000    2604.8816    22531.756    201578.99    689.23998   -8328.4847    8.8949298 
  264000    2662.8816     22558.17    206970.67    704.58653   -8293.8113    8.8845145 
  265000    2652.4362    22746.949    186408.59    701.82273   -8315.4595    8.8107809 
  266000    2541.5874     22532.88    205281.44    672.49264   -8303.5254    8.8944861 
  267000    2569.4918    22594.965    198402.41      679.876   -8315.1426    8.8700463 
  268000    2688.2726    22626.737    198689.39    711.30487   -8306.7567    8.8575913 
  269000    2638.9098    22451.683    211523.99     698.2437   -8305.5348    8.9266529 
  270000    2504.7016    22686.484    193652.27    662.73282   -8296.7181     8.834264 
  271000    2647.8996    22597.743    204108.13    700.62236   -8288.9203     8.868956 
  272000    2670.9134    22598.426    195084.02    706.71172   -8336.0162    8.8686877 
  273000     2641.952    22592.736    204513.05    699.04867   -8288.0618    8.8709213 
  274000    2653.5618    22546.713    202303.21    702.12054   -8317.7076    8.8890288 
  275000     2500.569    22695.845    194138.93    661.63934   -8289.7882    8.8306202 
  276000    2638.2374    22521.418    205824.52     698.0658    -8311.775    8.8990129 
  277000     2556.853    22644.466    192248.41    676.53183   -8321.1118    8.8506561 
  278000    2609.9506     22551.94    203340.99    690.58124   -8311.7883    8.8869686 
  279000    2614.5378     22634.61    200116.09    691.79497   -8293.3679    8.8545103 
  280000    2556.5494    22516.385    203771.82     676.4515   -8318.0587    8.9010018 
  281000    2533.5428    22451.897     211233.6    670.36407   -8305.7732    8.9265681 
  282000     2571.742    22688.939    193143.59     680.4714   -8302.6687    8.8333082 
  283000    2687.5378    22690.277    194188.35    711.11045   -8303.5817    8.8327871 
  284000    2609.1153    22564.047    208610.48     690.3602   -8277.2582    8.8822002 
  285000    2553.1996    22669.001    192552.91    675.56516   -8310.8788    8.8410771 
  286000    2573.6818    22534.848    204897.58    680.98467   -8304.3117    8.8937093 
  287000     2536.734    22621.852    196425.27    671.20844    -8308.054    8.8595037 
  288000    2610.9293     22710.96    190926.75    690.84019   -8308.6096    8.8247429 
  289000    2555.6199    22537.449    204409.79    676.20556    -8306.217    8.8926828 
  290000    2701.5538    22632.246    197241.18    714.81902   -8315.0822    8.8554352 
  291000    2597.6708    22496.139    207236.71    687.33206   -8308.3011    8.9090127 
  292000    2659.2028    22603.911    198444.91    703.61314   -8316.2368    8.8665358 
  293000    2597.5565    22574.298    201867.04    687.30179   -8304.5407    8.8781671 
  294000    2539.0593    22591.922    202156.77    671.82371   -8295.0198    8.8712412 
  295000    2630.3401    22681.305    194545.05    695.97619   -8300.5855    8.8362812 
  296000    2595.0115    22534.697    205899.56    686.62842   -8304.8239    8.8937688 
  297000    2588.9366    22607.979    195775.67    685.02101   -8324.0512    8.8649405 
  298000    2509.4523    22570.921    202438.64    663.98983   -8298.9335    8.8794954 
  299000    2588.5329    22632.801    198211.92    684.91421   -8302.2808    8.8552179 
  300000     2662.536    22534.299    206947.64    704.49509   -8301.3975     8.893926 
Loop time of 100.554 on 8 procs for 50000 steps with 2048 atoms

Performance: 42.962 ns/day, 0.559 hours/ns, 497.247 timesteps/s
123.0% CPU use with 4 MPI tasks x 2 OpenMP threads

MPI task timing breakdown:
Section |  min time  |  avg time  |  max time  |%varavg| %total
---------------------------------------------------------------
Pair    | 59.125     | 60.071     | 61.117     |   9.4 | 59.74
Neigh   | 0.93506    | 0.96312    | 0.98402    |   1.8 |  0.96
Comm    | 4.3301     | 5.4058     | 6.3983     |  32.5 |  5.38
Output  | 0.0011591  | 0.001633   | 0.0017963  |   0.7 |  0.00
Modify  | 33.907     | 33.926     | 33.956     |   0.3 | 33.74
Other   |            | 0.1856     |            |       |  0.18

Nlocal:        512.000 ave         517 max         508 min
Histogram: 1 0 1 0 0 1 0 0 0 1
Nghost:        3072.75 ave        3079 max        3062 min
Histogram: 1 0 0 0 0 0 0 1 1 1
Neighs:        42570.0 ave       44913 max       40515 min
Histogram: 1 0 1 0 0 0 1 0 0 1

Total # of neighbors = 170280
Ave neighs/atom = 83.144531
Neighbor list builds = 1015
Dangerous builds = 0

unfix temp
unfix out_file_1


write_data after_${sim}_press_$P_$T.in
write_data after_heating_press_$P_$T.in
write_data after_heating_press_200000_$T.in
write_data after_heating_press_200000_2600.in
System init for write_data ...
Last active /omp style is pair_style eam/alloy/omp
write_restart after_${sim}_press_$P_$T.lmp
write_restart after_heating_press_$P_$T.lmp
write_restart after_heating_press_200000_$T.lmp
write_restart after_heating_press_200000_2600.lmp
System init for write_restart ...
Last active /omp style is pair_style eam/alloy/omp

next loopVar
jump in.lmp ensemble

print """
Label pachadi solti, hos garam.
"""

Label pachadi solti, hos garam.

variable T equal 2500+${loopVar}*100
variable T equal 2500+2*100
# variable T equal 1400


reset_timestep 0
fix 1 all npt temp $T $T $(dt*100) iso $P $P $(dt*1000)
fix 1 all npt temp 2700 $T $(dt*100) iso $P $P $(dt*1000)
fix 1 all npt temp 2700 2700 $(dt*100) iso $P $P $(dt*1000)
fix 1 all npt temp 2700 2700 0.10000000000000000555 iso $P $P $(dt*1000)
fix 1 all npt temp 2700 2700 0.10000000000000000555 iso 200000 $P $(dt*1000)
fix 1 all npt temp 2700 2700 0.10000000000000000555 iso 200000 200000 $(dt*1000)
fix 1 all npt temp 2700 2700 0.10000000000000000555 iso 200000 200000 1
print """
<--------------------------------------------------------------------->
<------------------ Equilibrating at temperature $T ----------------->
<--------------------------------------------------------------------->
"""

<--------------------------------------------------------------------->
<------------------ Equilibrating at temperature 2700 ----------------->
<--------------------------------------------------------------------->

fix temp all print 1000 "$(step) $(temp) $(press) ${sys_press} $(vol) $(ke) $(pe) $(density)" file temp_${sim}.txt screen no title  "step temp press pressGiga vol ke pe density"
fix temp all print 1000 "$(step) $(temp) $(press) ${sys_press} $(vol) $(ke) $(pe) $(density)" file temp_heating.txt screen no title  "step temp press pressGiga vol ke pe density"
run 250000
Last active /omp style is pair_style eam/alloy/omp
Per MPI rank memory allocation (min/avg/max) = 4.354 | 4.354 | 4.354 Mbytes
Step Temp Volume Press KinEng PotEng Density 
       0     2662.536    22534.299    206947.64    704.49509   -8301.3975     8.893926 
    1000     2693.137    22712.162    197232.53    712.59197   -8280.8811    8.8242759 
    2000    2664.8644    22726.903    194850.08    705.11117   -8280.8291    8.8185526 
    3000    2740.6864     22556.99    215077.29    725.17333   -8253.0967     8.884979 
    4000    2716.3713    22750.948    190572.24    718.73966   -8296.8993    8.8092322 
    5000    2753.5973    22633.938    204131.17    728.58951   -8278.7824    8.8547733 
    6000    2738.7053    22778.068    196292.92    724.64914   -8258.7626    8.7987437 
    7000    2663.1459    22762.488    195403.92    704.65647   -8268.2189    8.8047662 
    8000    2740.4524    22691.014    203895.63    725.11143   -8260.4816    8.8325004 
    9000    2677.0223    22750.333    197938.83    708.32809   -8257.5468    8.8094704 
   10000    2702.3355    22587.817    211206.92    715.02587   -8261.1808    8.8728534 
   11000    2603.3849    22613.173    202492.62    688.84397   -8284.7191     8.862904 
   12000    2721.3758    22787.703    185394.57    720.06384   -8310.5323    8.7950238 
   13000    2743.8747    22592.014    206550.24    726.01694   -8282.7417    8.8712048 
   14000    2732.7776    22677.247     198238.9     723.0807    -8287.842    8.8378623 
   15000     2705.735    22707.796    197693.92    715.92535   -8277.3551    8.8259726 
   16000    2786.9823     22716.88     198314.3    737.42301   -8274.6125    8.8224434 
   17000    2578.3845    22635.273     208371.5    682.22898   -8244.3776    8.8542509 
   18000    2742.2484    22584.088    207682.14    725.58662   -8280.3298    8.8743182 
   19000    2673.5785    22585.062    212609.93    707.41688   -8252.4903    8.8739357 
   20000    2630.1038    22764.839    196568.37    695.91367   -8256.0911     8.803857 
   21000    2667.7072    22579.097    206494.86    705.86337    -8285.555    8.8762801 
   22000    2699.4953    22635.504    209236.48    714.27436   -8253.5784    8.8541606 
   23000    2674.2297    22738.109    197232.17    707.58919   -8265.3961    8.8142065 
   24000    2679.5743    22749.813    192906.48    709.00336   -8283.8582    8.8096716 
   25000    2764.3172    22611.433    203690.67    731.42593   -8287.3315    8.8635861 
   26000    2660.3792    22686.772    197322.52    703.92441   -8284.9983    8.8341518 
   27000    2686.9927    22701.661     196940.8    710.96623   -8282.4485    8.8283579 
   28000    2823.7202     22622.57    203867.71    747.14369   -8286.3187    8.8592228 
   29000    2740.0452    22739.046     201028.5    725.00367   -8252.6247     8.813843 
   30000    2690.4173    22786.715    193955.65    711.87235    -8265.171    8.7954051 
   31000    2682.8032    22569.247    209000.42    709.85771   -8274.0242     8.880154 
   32000    2741.7108    22735.024     200210.9     725.4444   -8256.5151    8.8154026 
   33000    2646.7555    22727.877    192312.88    700.31964   -8292.6792    8.8181744 
   34000    2660.5224    22769.371    195662.14     703.9623   -8260.5705    8.8021045 
   35000    2772.5785    22687.251    200464.14    733.61185   -8278.5908    8.8339653 
   36000    2689.2289    22653.363    203591.28    711.55792   -8272.2227    8.8471803 
   37000    2673.1786    22792.606    188483.82    707.31107   -8289.8736    8.7931317 
   38000     2748.245    22616.655    204634.84    727.17329   -8285.1819    8.8615399 
   39000    2659.2115    22640.017    194764.87    703.61545   -8320.2553    8.8523956 
   40000    2720.3008      22631.7    205501.61     719.7794   -8272.0734     8.855649 
   41000    2752.6287    22648.499    203126.31    728.33321   -8279.5849    8.8490804 
   42000    2696.8834    22858.009    179191.93    713.58326   -8311.9528    8.7679721 
   43000    2782.2317    22653.495    208224.86    736.16603   -8254.2639    8.8471289 
   44000    2724.6665    22803.729    194348.01    720.93455   -8258.0827    8.7888425 
   45000    2610.5787    22675.526    199263.93    690.74741     -8276.12    8.8385332 
   46000    2637.4099    22614.757    205877.81    697.84684   -8275.6936    8.8622834 
   47000    2685.5927    22846.659    187267.82    710.59579   -8278.7304    8.7723279 
   48000    2683.2291    22607.276    208421.38    709.97039   -8263.0631     8.865216 
   49000    2713.9205    22626.215    204939.48     718.0912   -8274.6849    8.8577955 
   50000    2615.2233    22728.329    193030.54    691.97635   -8288.6905     8.817999 
   51000    2726.7053    22576.064    206129.87      721.474   -8291.7532    8.8774726 
   52000    2739.3608    22664.446    204156.83    724.82257   -8266.6968    8.8428539 
   53000    2655.3169    22664.424    198886.18    702.58494   -8285.6523    8.8428626 
   54000    2666.8109    22621.636    203914.33    705.62621   -8278.2445    8.8595887 
   55000    2722.3857    22745.243    193277.78    720.33106   -8286.9382    8.8114417 
   56000    2622.6977    22654.351    202946.86    693.95404   -8269.9674    8.8467946 
   57000    2651.9133    22650.661    203418.23    701.68437    -8266.551    8.8482357 
   58000    2735.1662    22631.405    206266.14    723.71271    -8270.289    8.8557643 
   59000    2750.0813     22666.49    200846.57    727.65918   -8277.3464    8.8420566 
   60000    2602.0119    22679.198    193783.76    688.48068   -8306.6322     8.837102 
   61000    2739.9333    22657.208     202440.7    724.97407   -8278.8443    8.8456787 
   62000    2710.9456    22634.094    205138.81    717.30406   -8272.3941    8.8547121 
   63000    2659.0832    22666.233    196837.11    703.58149   -8296.0328    8.8421568 
   64000    2826.6288     22699.71    199078.35     747.9133   -8281.4072    8.8291166 
   65000    2676.5567    22723.256    199580.33    708.20491   -8262.4956    8.8199679 
   66000    2652.1264    22696.293    194796.84    701.74076     -8289.97    8.8304459 
   67000    2737.7008     22678.45    197722.35    724.38336   -8295.4391    8.8373936 
   68000    2704.3302    22728.985    197197.26    715.55364   -8275.8112    8.8177447 
   69000    2661.0745    22539.264    210151.76    704.10839   -8282.7157    8.8919669 
   70000    2779.2668     22598.23    207906.52    735.38155   -8278.4844    8.8687649 
   71000    2664.0687    22688.672    198524.04    704.90063   -8278.3172    8.8334121 
   72000    2772.6234    22867.419    186415.23    733.62373   -8273.2908    8.7643642 
   73000    2784.4398    22666.948     202029.7    736.75029   -8279.3886     8.841878 
   74000    2731.5034    22758.606    193371.08    722.74356   -8283.5381     8.806268 
   75000     2668.566    22668.153    199890.64     706.0906   -8282.3783     8.841408 
   76000    2657.7316    22669.404    201025.06    703.22386   -8274.1121    8.8409199 
   77000    2769.3423    22814.298    191133.49    732.75556   -8274.5896    8.7847713 
   78000    2615.3363    22540.956    209060.68    692.00627   -8285.6208    8.8912994 
   79000    2732.1905     22663.29    201176.54    722.92536   -8282.4491     8.843305 
   80000    2678.8608    22715.163    194174.31    708.81455   -8286.7334    8.8231101 
   81000    2674.8145    22702.823    203095.42    707.74392   -8249.9754    8.8279058 
   82000    2694.4152     22605.48    207328.47    712.93019   -8271.5209    8.8659203 
   83000    2649.7626    22799.669    186377.26     701.1153   -8291.7659    8.7904077 
   84000    2719.4508     22615.55    204947.58    719.55448    -8279.909    8.8619727 
   85000    2619.4898    22608.757    210800.22    693.10527   -8246.3623    8.8646352 
   86000    2725.7609    22724.524    197424.44    721.22413   -8275.7424    8.8194755 
   87000     2735.009    22747.258    202448.48    723.67111   -8242.6123    8.8106613 
   88000    2640.6029    22732.188    198402.69     698.6917   -8258.4018    8.8165022 
   89000    2813.8032    22755.739    199529.14    744.51972   -8257.9526    8.8073776 
   90000    2707.1129    22755.925    193660.23    716.28993   -8279.3983    8.8073057 
   91000     2692.799    22735.886    198691.31    712.50254   -8261.8764    8.8150684 
   92000    2712.2902    22598.843    207731.35    717.65984   -8271.4708    8.8685244 
   93000    2677.9955    22733.095    194974.96    708.58561    -8282.313    8.8161504 
   94000    2629.7081    22737.131     193961.2    695.80897   -8280.1911    8.8145856 
   95000    2711.3203    22669.912    204932.36     717.4032   -8256.7936    8.8407217 
   96000      2704.26    22652.325    197397.76    715.53507   -8301.7643    8.8475858 
   97000    2673.5105    22641.753    203210.29     707.3989   -8276.5622    8.8517168 
   98000    2746.0868    22601.046    205300.48    726.60226   -8284.8166    8.8676597 
   99000    2707.0042     22706.36    195687.35    716.26118    -8288.939    8.8265308 
  100000    2665.1359    22754.622    194525.26    705.18301    -8275.434    8.8078098 
  101000    2686.0821    22635.752    203517.99    710.72529    -8277.099    8.8540634 
  102000     2703.701    22625.173    200308.83    715.38717   -8297.7688    8.8582035 
  103000    2667.7759    22721.717     198071.6    705.88153   -8266.5188    8.8205654 
  104000    2655.7886    22578.272    211102.46    702.70976   -8262.9416    8.8766043 
  105000    2669.1635    22643.012    202974.77    706.24869   -8276.8597    8.8512248 
  106000    2739.8678    22693.114    197659.31    724.95675   -8287.1106    8.8316829 
  107000    2769.4134    22603.801    208322.28    732.77438   -8273.9001    8.8665788 
  108000    2679.0817    22802.878    192151.26      708.873   -8265.1796    8.7891708 
  109000    2693.1089    22660.313    206501.67    712.58455   -8255.7114    8.8444668 
  110000    2677.4728    22651.821    199445.18    708.44731   -8290.6251    8.8477827 
  111000    2714.9806    22695.383    203688.18     718.3717   -8257.4396       8.8308 
  112000    2635.0353    22719.917    196650.19    697.21852   -8276.8732     8.821264 
  113000    2705.3503    22692.496    204428.97    715.82357   -8253.9578    8.8319236 
  114000    2655.1812    22627.742    207350.57    702.54903   -8262.4554    8.8571976 
  115000    2627.2138    22743.197    194181.46    695.14899    -8277.037    8.8122345 
  116000    2706.2545    22688.566    199360.97    716.06282    -8278.982    8.8334531 
  117000    2718.8407    22763.738    197796.35    719.39306   -8257.9212    8.8042826 
  118000    2607.7744    22576.998    208523.13     690.0054   -8272.9026    8.8771051 
  119000    2661.3984    22685.918    203090.85    704.19407   -8256.8443    8.8344844 
  120000    2696.0858    22793.498    197879.76    713.37223   -8241.9894    8.7927876 
  121000    2703.3572    22616.328    205161.82    715.29619   -8280.1058     8.861668 
  122000    2656.4142    22637.125    203965.27     702.8753    -8274.224    8.8535266 
  123000    2757.6418    22771.467    189651.67    729.65967   -8294.5279    8.8012943 
  124000    2742.7081    22738.174    200429.87    725.70826   -8253.1876    8.8141811 
  125000    2604.1024    22689.428    203495.42    689.03381   -8253.3424    8.8331175 
  126000    2702.9256    22799.669    194079.75      715.182   -8257.5465    8.7904078 
  127000    2661.1105    22616.721    203058.46    704.11791   -8284.9628    8.8615138 
  128000    2806.0386    22648.488    207524.24    742.46522   -8261.9964    8.8490844 
  129000    2742.3816    22667.208    201417.74    725.62187    -8276.514    8.8417765 
  130000    2701.3169    22702.026    197432.19    714.75634   -8284.6204     8.828216 
  131000    2755.4918    22716.633    200348.16    729.09078    -8268.457    8.8225392 
  132000    2665.5072    22719.122    195866.33    705.28127    -8281.058    8.8215725 
  133000    2737.8915    22699.745     199021.5    724.43381   -8274.1169     8.829103 
  134000    2653.3872    22582.996    209846.61    702.07435   -8259.4879    8.8747475 
  135000    2689.2013    22700.715    195741.21     711.5506    -8291.623    8.8287257 
  136000    2726.9651    22629.228    206628.95    721.54275   -8267.6639     8.856616 
  137000    2667.0617    22780.122    198626.96    705.69256   -8240.6757    8.7979504 
  138000    2696.1255    22749.296    194037.59    713.38273   -8278.2312    8.8098719 
  139000    2735.1918    22609.347    209809.99     723.7195   -8261.5734    8.8644039 
  140000    2735.5414    22682.737    203672.61    723.81199   -8259.7273    8.8357232 
  141000    2684.3276    22645.499    202406.85    710.26106   -8278.4323    8.8502527 
  142000    2713.7069    22615.207    208084.44    718.03468   -8268.8152     8.862107 
  143000    2753.8846     22817.16    191757.47    728.66553   -8265.7612    8.7836693 
  144000     2636.699    22669.712    201315.19    697.65872   -8274.4116    8.8407999 
  145000    2762.7217    22688.423    202379.78    731.00376   -8266.2954    8.8335089 
  146000    2678.2407    22760.953    198881.39    708.65049   -8251.6674    8.8053602 
  147000    2709.9111    22742.626    195928.45    717.03033     -8273.31    8.8124557 
  148000     2632.469     22670.91    202214.99    696.53949    -8272.308    8.8403326 
  149000    2694.3096    22537.547    212725.81    712.90224    -8270.233    8.8926444 
  150000     2766.497    22773.527    197327.07    732.00271   -8258.7024    8.8004984 
  151000    2590.3865    22742.769    198502.63    685.40466   -8252.9831    8.8124002 
  152000    2625.3438    22620.246    206888.22    694.65421    -8265.932     8.860133 
  153000    2704.7226    22696.587    199053.14    715.65747   -8279.4886    8.8303314 
  154000    2790.0191    22707.972    201870.72    738.22655   -8265.2194    8.8259044 
  155000    2695.1529    22663.061    201204.31    713.12538   -8275.3455    8.8433942 
  156000    2717.2246    22818.497    185265.78    718.96546   -8299.6151    8.7831545 
  157000    2793.1756    22663.383    208136.61    739.06175   -8248.1061    8.8432685 
  158000    2678.3717     22741.29    194664.67    708.68516   -8273.4716    8.8129737 
  159000    2736.1823    22661.093    200916.03    723.98157   -8281.8538    8.8441625 
  160000     2712.832    22784.358    195348.82    717.80318   -8257.0178    8.7963147 
  161000    2704.6489    22707.715     195606.1    715.63798   -8289.1825    8.8260042 
  162000    2695.8599    22658.931    203865.64    713.31243   -8268.5329    8.8450062 
  163000    2763.1364    22647.959    204491.19    731.11351   -8272.4287    8.8492912 
  164000    2637.4912    22813.213    184267.46    697.86834    -8299.726    8.7851889 
  165000    2704.2375    22595.769     209512.7    715.52912   -8263.4524    8.8697305 
  166000    2739.6928    22701.196    201992.67    724.91043   -8262.4227    8.8285387 
  167000     2631.816    22717.766    197843.31    696.36673   -8265.2342    8.8220994 
  168000    2628.9326    22734.685    199615.06    695.60379   -8251.1108     8.815534 
  169000    2607.6243    22708.231     199435.3     689.9657   -8262.7685    8.8258037 
  170000    2714.0664    22705.783    201847.26    718.12981   -8255.6912    8.8267551 
  171000    2687.7564    22675.266    202891.19    711.16828   -8267.5591    8.8386344 
  172000    2743.3127    22807.505    190111.36    725.86825   -8276.3424    8.7873876 
  173000    2769.1753    22571.228    213870.31    732.71138   -8258.2954    8.8793746 
  174000    2733.3457    22760.308    196970.72    723.23102    -8261.393    8.8056097 
  175000     2666.461    22748.518     202835.9    705.53364   -8232.2279    8.8101732 
  176000    2672.6613    22703.856    202071.37    707.17421   -8258.7582    8.8275041 
  177000    2748.7433    22657.296    203339.88    727.30515   -8276.9942    8.8456446 
  178000    2711.8181    22682.175    199353.66    717.53491   -8278.8221    8.8359421 
  179000    2620.4577     22692.96    199198.26    693.36135   -8269.5492    8.8317426 
  180000    2784.5355    22706.313    197358.33     736.7756   -8284.7518    8.8265491 
  181000    2724.6249    22710.254    201932.02    720.92353   -8258.6809    8.8250175 
  182000     2699.519    22665.798    202800.42    714.28064   -8271.0603    8.8423267 
  183000    2730.3173     22743.64    192697.93    722.42972   -8291.2915    8.8120628 
  184000    2657.4873    22565.048    211197.57    703.15924   -8266.2231    8.8818064 
  185000    2747.1061    22770.131    194532.76    726.87196   -8269.7141    8.8018109 
  186000    2656.1893    22707.395    199203.25    702.81579   -8266.4959    8.8261284 
  187000    2786.5879    22780.196    194145.17    737.31866   -8272.0404    8.7979218 
  188000    2657.7516    22657.464    202225.13    703.22916   -8270.4678    8.8455789 
  189000    2692.7265    22654.248    203714.79    712.48335   -8267.4997    8.8468346 
  190000    2628.4378    22751.513    197159.96    695.47287   -8259.7614    8.8090134 
  191000    2617.6599    22660.418    209377.49    692.62107   -8231.4465     8.844426 
  192000    2639.8453      22653.9    201622.35    698.49122   -8280.0661    8.8469707 
  193000    2668.4485    22741.933    196726.48     706.0595   -8266.8665    8.8127245 
  194000    2627.4825    22577.535    211179.68    695.22008    -8259.804     8.876894 
  195000    2700.5763    22654.387    204886.64    714.56038   -8262.8881    8.8467802 
  196000    2662.7643    22729.767    194085.94     704.5555   -8279.4217    8.8174414 
  197000    2670.4388    22725.024    199403.33    706.58613   -8266.2709    8.8192816 
  198000    2742.3027    22774.618    194956.27    725.60099   -8268.7474    8.8000768 
  199000    2688.8804    22749.197    195556.27     711.4657   -8274.9646    8.8099104 
  200000    2679.2169    22565.375    214828.11    708.90877   -8247.3418    8.8816776 
  201000    2665.8752    22714.639    196550.08    705.37862   -8273.8037    8.8233139 
  202000    2784.5992    22757.229    195637.39    736.79245   -8276.1395    8.8068009 
  203000    2693.4649    22623.727     205774.8    712.67875   -8271.1021    8.8587695 
  204000    2718.0677    22771.192    188326.24    719.18854   -8299.3805    8.8014009 
  205000    2642.8587    22625.386    205642.75    699.28857   -8268.2834    8.8581201 
  206000    2730.3696    22648.224    210012.09    722.44356   -8243.1549    8.8491879 
  207000    2712.9211    22643.055    202187.16    717.82675   -8278.6232    8.8512079 
  208000    2635.9632    22656.401    202874.33    697.46405   -8271.6588    8.8459939 
  209000    2715.5395     22731.38    192963.22    718.51958   -8293.1729    8.8168157 
  210000    2762.6871    22645.273    200704.88    730.99463   -8293.5355    8.8503411 
  211000    2716.9176    22646.628    200609.94    718.88421   -8291.9003    8.8498116 
  212000    2624.6244    22665.391    200721.04    694.46384   -8275.8923    8.8424852 
  213000    2675.5065     22662.67     201395.8    707.92702   -8275.3307    8.8435468 
  214000    2658.5985    22671.815    204655.48    703.45325   -8257.6262      8.83998 
  215000    2641.1417    22609.172    203714.07    698.83425   -8283.4549    8.8644725 
  216000    2699.7838    22616.143    208920.97     714.3507   -8259.3727    8.8617402 
  217000    2664.5701    22733.855    197147.68    705.03331   -8267.5954    8.8158557 
  218000    2656.7678    22717.162    192416.09    702.96886   -8300.7888    8.8223336 
  219000     2724.754    22647.849    205854.37    720.95769   -8265.3364    8.8493345 
  220000    2710.1956    22595.598    204388.55    717.10561   -8291.2441     8.869798 
  221000    2739.4776     22742.51    197093.12    724.85349   -8271.4954    8.8125008 
  222000    2618.0963    22724.766    196136.68    692.73655   -8273.6849    8.8193819 
  223000     2720.955    22701.333    202352.54    719.95251   -8257.4323    8.8284854 
  224000    2729.4023    22695.948    201480.87    722.18761   -8266.4642    8.8305803 
  225000    2733.4335    22722.197    194553.42    723.25426   -8286.1249    8.8203791 
  226000    2607.5896    22584.997    208796.49    689.95653   -8271.0231    8.8739611 
  227000    2751.1672    22635.126     206838.4     727.9465   -8265.2302    8.8543082 
  228000    2635.1172    22701.615    198649.57     697.2402   -8271.4646    8.8283756 
  229000    2706.2308    22685.508    197194.16    716.05654   -8287.9282    8.8346441 
  230000    2662.0967    22715.095    194631.23    704.37885   -8291.4255    8.8231366 
  231000    2737.2325    22598.674    209249.22    724.25944   -8266.9709    8.8685905 
  232000    2640.9781    22626.238    201606.21    698.79096   -8288.2757    8.8577867 
  233000    2711.1371    22719.344    197963.19    717.35473   -8269.9472    8.8214867 
  234000    2758.7434    22698.997    199092.34    729.95113   -8279.8773    8.8293941 
  235000       2732.2    22672.828    202810.48    722.92786   -8268.8993     8.839585 
  236000    2709.4517    22764.791    188470.85    716.90876   -8301.8864    8.8038756 
  237000    2693.6788    22608.829    205310.28    712.73533   -8277.1856    8.8646069 
  238000     2689.458    22660.466    204816.49    711.61853    -8261.514    8.8444069 
  239000    2749.4182    22682.902    197027.74    727.48372   -8297.8714     8.835659 
  240000    2696.3427    22769.409    190225.29    713.44018   -8294.8276    8.8020898 
  241000    2690.9327    22701.853    202759.77    712.00874   -8255.4895    8.8282833 
  242000    2655.1157    22593.244     205908.4    702.53172   -8283.9573    8.8707222 
  243000    2795.1023    22741.428    192805.34    739.57153   -8296.8657      8.81292 
  244000    2676.7627     22547.42    209652.07    708.25942   -8279.0519    8.8887504 
  245000    2700.2451    22723.108    195287.76    714.47275   -8282.9736    8.8200252 
  246000    2595.0322    22668.803    195589.87     686.6339   -8299.3504    8.8411542 
  247000    2810.2798    22629.403    209098.46    743.58743   -8257.9159    8.8565475 
  248000    2751.3514    22770.403    196307.64    727.99524   -8258.7421    8.8017057 
  249000    2674.7146    22667.904    196803.87    707.71749   -8300.8865    8.8415051 
  250000    2750.2533    22659.278    202416.73    727.70469   -8277.0123    8.8448707 
Loop time of 542.401 on 8 procs for 250000 steps with 2048 atoms

Performance: 39.823 ns/day, 0.603 hours/ns, 460.914 timesteps/s
118.2% CPU use with 4 MPI tasks x 2 OpenMP threads

MPI task timing breakdown:
Section |  min time  |  avg time  |  max time  |%varavg| %total
---------------------------------------------------------------
Pair    | 320.79     | 325.55     | 330.51     |  20.2 | 60.02
Neigh   | 5.1569     | 5.2652     | 5.3404     |   3.0 |  0.97
Comm    | 32.674     | 37.757     | 42.715     |  61.6 |  6.96
Output  | 0.0068367  | 0.011605   | 0.013262   |   2.6 |  0.00
Modify  | 172.62     | 172.77     | 172.96     |   1.0 | 31.85
Other   |            | 1.048      |            |       |  0.19

Nlocal:        512.000 ave         523 max         503 min
Histogram: 1 0 0 1 1 0 0 0 0 1
Nghost:        3083.50 ave        3097 max        3068 min
Histogram: 1 0 0 0 1 0 1 0 0 1
Neighs:        42383.8 ave       44491 max       40413 min
Histogram: 2 0 0 0 0 0 0 0 1 1

Total # of neighbors = 169535
Ave neighs/atom = 82.780762
Neighbor list builds = 5198
Dangerous builds = 0


# fix 132 all momentum 100 linear 1 1 1 angular
fix out_file_1 all print 1000 "$(step) $(temp) $(press) ${sys_press} $(vol) $(ke) $(pe) $(density)" file one_phase_${sim}_press_$P_$T_.txt screen no title  "step temp press pressGiga vol ke pe density"
fix out_file_1 all print 1000 "$(step) $(temp) $(press) ${sys_press} $(vol) $(ke) $(pe) $(density)" file one_phase_heating_press_$P_$T_.txt screen no title  "step temp press pressGiga vol ke pe density"
fix out_file_1 all print 1000 "$(step) $(temp) $(press) ${sys_press} $(vol) $(ke) $(pe) $(density)" file one_phase_heating_press_200000_$T_.txt screen no title  "step temp press pressGiga vol ke pe density"
fix out_file_1 all print 1000 "$(step) $(temp) $(press) ${sys_press} $(vol) $(ke) $(pe) $(density)" file one_phase_heating_press_200000_2700_.txt screen no title  "step temp press pressGiga vol ke pe density"

# dump 3 all custom 1000 traj_npt_new.lammpstrj id type x y z
run 50000
Last active /omp style is pair_style eam/alloy/omp
Per MPI rank memory allocation (min/avg/max) = 4.354 | 4.354 | 4.354 Mbytes
Step Temp Volume Press KinEng PotEng Density 
  250000    2750.2533    22659.278    202416.73    727.70469   -8277.0123    8.8448707 
  251000    2658.8941    22710.121    198515.98    703.53145    -8276.416    8.8250691 
  252000    2690.7125    22752.907    189991.62    711.95047   -8297.5365    8.8084738 
  253000    2708.8873    22563.256    213939.93    716.75943   -8255.3632    8.8825116 
  254000    2786.0029    22721.939    200228.12    737.16389    -8265.884    8.8204792 
  255000    2673.2644    22712.112    192820.22    707.33377   -8302.6487    8.8242954 
  256000    2646.6648    22655.189    199518.77    700.29563   -8289.0744     8.846467 
  257000    2721.4205    22562.081    209858.05    720.07566   -8278.9017    8.8829742 
  258000    2782.0188    22773.796    192638.22    736.10971   -8284.5677    8.8003944 
  259000    2643.4166    22566.134    209547.39    699.43617   -8270.3374    8.8813791 
  260000      2753.01    22653.308    207972.69    728.43409   -8252.1532    8.8472017 
  261000    2684.3156    22787.801    190710.84    710.25787   -8282.8571    8.7949857 
  262000    2689.4142    22571.213    206836.05    711.60693   -8286.2398    8.8793804 
  263000    2712.3148    22655.786    203885.27    717.66634   -8268.5532     8.846234 
  264000     2672.325     22730.22    193354.55    707.08521    -8289.887    8.8172658 
  265000    2671.4844     22658.83    200868.19    706.86279   -8279.0621    8.8450457 
  266000    2643.9308     22613.33    206858.11    699.57223   -8270.8323    8.8628426 
  267000    2635.4632    22842.863    183297.51    697.33174   -8293.4897    8.7737856 
  268000    2696.2544    22685.735    198854.19    713.41683   -8281.2754    8.8345554 
  269000    2734.2766    22690.704    198013.62    723.47732   -8286.4803     8.832621 
  270000    2647.9963    22761.883    191201.93    700.64794   -8288.1741    8.8050001 
  271000    2749.0659    22640.961    207262.43    727.39052   -8262.1969    8.8520265 
  272000    2718.0991    22686.236    201865.85    719.19684   -8268.0571    8.8343605 
  273000    2715.4356     22735.37    197950.99    718.49209   -8267.1607    8.8152684 
  274000    2640.6021    22644.751    203712.81    698.69148   -8270.9949    8.8505449 
  275000    2810.2024    22721.803    194602.26    743.56697   -8295.5297     8.820532 
  276000    2754.4255    22712.842    197971.15    728.80864   -8274.6467    8.8240118 
  277000    2754.4052    22717.253    191879.23    728.80326   -8306.4592    8.8222986 
  278000    2654.4826    22719.192    194430.26    702.36418   -8286.0368    8.8215454 
  279000    2713.0382    22536.831    217831.14    717.85775   -8247.3181    8.8929269 
  280000    2625.0408    22752.205    194438.48    694.57401   -8270.3841    8.8087458 
  281000    2594.7462    22653.298    200909.05    686.55821   -8278.1218    8.8472056 
  282000     2681.693    22677.882    200646.58    709.56395    -8274.184    8.8376147 
  283000    2685.0682    22725.742    202053.89      710.457   -8251.2874    8.8190028 
  284000    2649.2584    22742.043    193812.48    700.98189   -8278.0235    8.8126818 
  285000    2741.3124    22586.185    214670.74    725.33897     -8246.97    8.8734945 
  286000    2661.9007    22737.908    192480.36      704.327   -8288.5649    8.8142844 
  287000    2669.1805    22625.537    205171.36    706.25318    -8273.018    8.8580609 
  288000    2736.0611    22717.884    203836.36     723.9495   -8249.4177    8.8220535 
  289000    2647.5931     22746.44    192164.79    700.54127   -8285.1829    8.8109782 
  290000    2694.6079    22715.294    201023.89    712.98117   -8255.5553    8.8230595 
  291000    2741.2069    22668.158    202086.38    725.31105   -8272.6477    8.8414058 
  292000    2705.2978    22667.521    200826.28    715.80968   -8281.1636    8.8416543 
  293000    2624.2574    22678.623    197045.47    694.36674   -8292.7684    8.8373262 
  294000    2670.1709     22699.31    200554.94    706.51524   -8268.4312     8.829272 
  295000    2675.7424    22537.724    208295.06    707.98945   -8293.6266    8.8925742 
  296000    2623.9043    22767.238    193845.63    694.27333   -8271.2884    8.8029292 
  297000     2787.221    22647.634    208468.02    737.48617   -8253.6193    8.8494184 
  298000    2782.5892    22720.145    194100.65    736.26063   -8294.6154    8.8211756 
  299000    2723.5334    22636.941    197748.42    720.63473   -8308.1091    8.8535986 
  300000    2844.6092    22680.165    201746.17    752.67084   -8278.1518    8.8367254 
Loop time of 100.572 on 8 procs for 50000 steps with 2048 atoms

Performance: 42.954 ns/day, 0.559 hours/ns, 497.157 timesteps/s
123.5% CPU use with 4 MPI tasks x 2 OpenMP threads

MPI task timing breakdown:
Section |  min time  |  avg time  |  max time  |%varavg| %total
---------------------------------------------------------------
Pair    | 59.146     | 60.03      | 60.944     |   8.6 | 59.69
Neigh   | 0.95323    | 0.98238    | 0.99843    |   1.7 |  0.98
Comm    | 4.5026     | 5.4495     | 6.3888     |  29.9 |  5.42
Output  | 0.0010816  | 0.0015318  | 0.0016853  |   0.7 |  0.00
Modify  | 33.891     | 33.918     | 33.947     |   0.4 | 33.73
Other   |            | 0.1898     |            |       |  0.19

Nlocal:        512.000 ave         540 max         492 min
Histogram: 1 0 0 2 0 0 0 0 0 1
Nghost:        3081.00 ave        3101 max        3054 min
Histogram: 1 0 0 0 0 0 2 0 0 1
Neighs:        42344.5 ave       45905 max       38856 min
Histogram: 1 0 1 0 0 0 0 1 0 1

Total # of neighbors = 169378
Ave neighs/atom = 82.704102
Neighbor list builds = 1036
Dangerous builds = 0

unfix temp
unfix out_file_1


write_data after_${sim}_press_$P_$T.in
write_data after_heating_press_$P_$T.in
write_data after_heating_press_200000_$T.in
write_data after_heating_press_200000_2700.in
System init for write_data ...
Last active /omp style is pair_style eam/alloy/omp
write_restart after_${sim}_press_$P_$T.lmp
write_restart after_heating_press_$P_$T.lmp
write_restart after_heating_press_200000_$T.lmp
write_restart after_heating_press_200000_2700.lmp
System init for write_restart ...
Last active /omp style is pair_style eam/alloy/omp

next loopVar
jump in.lmp ensemble

print """
Label pachadi solti, hos garam.
"""

Label pachadi solti, hos garam.

variable T equal 2500+${loopVar}*100
variable T equal 2500+3*100
# variable T equal 1400


reset_timestep 0
fix 1 all npt temp $T $T $(dt*100) iso $P $P $(dt*1000)
fix 1 all npt temp 2800 $T $(dt*100) iso $P $P $(dt*1000)
fix 1 all npt temp 2800 2800 $(dt*100) iso $P $P $(dt*1000)
fix 1 all npt temp 2800 2800 0.10000000000000000555 iso $P $P $(dt*1000)
fix 1 all npt temp 2800 2800 0.10000000000000000555 iso 200000 $P $(dt*1000)
fix 1 all npt temp 2800 2800 0.10000000000000000555 iso 200000 200000 $(dt*1000)
fix 1 all npt temp 2800 2800 0.10000000000000000555 iso 200000 200000 1
print """
<--------------------------------------------------------------------->
<------------------ Equilibrating at temperature $T ----------------->
<--------------------------------------------------------------------->
"""

<--------------------------------------------------------------------->
<------------------ Equilibrating at temperature 2800 ----------------->
<--------------------------------------------------------------------->

fix temp all print 1000 "$(step) $(temp) $(press) ${sys_press} $(vol) $(ke) $(pe) $(density)" file temp_${sim}.txt screen no title  "step temp press pressGiga vol ke pe density"
fix temp all print 1000 "$(step) $(temp) $(press) ${sys_press} $(vol) $(ke) $(pe) $(density)" file temp_heating.txt screen no title  "step temp press pressGiga vol ke pe density"
run 250000
Last active /omp style is pair_style eam/alloy/omp
Per MPI rank memory allocation (min/avg/max) = 4.354 | 4.354 | 4.354 Mbytes
Step Temp Volume Press KinEng PotEng Density 
       0    2844.6092    22680.165    201746.17    752.67084   -8278.1518    8.8367254 
    1000    2776.9896    22794.407    197359.91    734.77899   -8249.5728    8.7924369 
    2000    2906.3453    22888.193    199389.44    769.00595   -8207.4992    8.7564095 
    3000    2854.9874     22712.01    204777.16    755.41687   -8247.1901    8.8243352 
    4000    2759.9394    22768.529    199801.21     730.2676   -8247.3723    8.8024302 
    5000    2791.3538    22816.991    194474.14    738.57971   -8255.3629    8.7837344 
    6000    2886.4984    22775.814    204103.91    763.75454   -8232.4015    8.7996146 
    7000    2809.7161    22677.569    208571.51    743.43828   -8239.3295    8.8377368 
    8000     2803.061    22816.766    195115.65    741.67736   -8254.2241    8.7838208 
    9000    2856.7169    22719.797    203655.14    755.87448   -8255.4128    8.8213106 
   10000    2859.3548    22756.745    202990.67    756.57247   -8243.2218    8.8069882 
   11000    2754.5565    22726.613    205065.59     728.8433   -8239.8194     8.818665 
   12000    2753.4287    22860.986    191504.58    728.54489   -8252.2862    8.7668302 
   13000    2798.9604    22691.777    214233.71    740.59236   -8210.2804    8.8322034 
   14000     2742.871    22820.972    195184.58    725.75138   -8249.9257     8.782202 
   15000    2892.4472    22783.688    204980.61    765.32857   -8221.8611    8.7965733 
   16000     2798.208     22778.25    198573.92    740.39329   -8251.6277    8.7986735 
   17000    2844.8284    22864.307    192566.94    752.72884   -8250.5626    8.7655571 
   18000     2844.075    22862.231    197088.39     752.5295   -8232.6085     8.766353 
   19000    2828.7365    22703.507    207264.75    748.47099   -8240.9172      8.82764 
   20000    2720.8533    22842.184    188902.27    719.92558   -8270.1874    8.7740467 
   21000    2811.1705     22725.57    204160.07     743.8231   -8249.0385    8.8190696 
   22000     2870.094    22744.978    200917.29    759.41401   -8256.6937    8.8115445 
   23000     2762.103    22706.377    205654.78    730.84008   -8240.1344    8.8265244 
   24000    2758.2218    22826.178    196195.74    729.81313    -8237.607    8.7801989 
   25000    2873.8083    22822.098    202952.48     760.3968   -8213.4161    8.7817687 
   26000    2757.0736    22768.683     199927.2    729.50932   -8241.5205    8.8023705 
   27000    2766.1415    22673.325    212933.03    731.90863   -8218.1999    8.8393911 
   28000    2741.7803    22840.875    195254.88    725.46279   -8237.4244    8.7745495 
   29000    2769.8173    22722.716    201281.98    732.88124   -8256.1081    8.8201775 
   30000    2828.1781    22706.405    205505.73    748.32325   -8249.0253    8.8265133 
   31000    2823.4664    22807.722    195115.67    747.07655   -8258.7579    8.7873041 
   32000    2812.0413    22892.493    190792.77    744.05353    -8245.852    8.7547648 
   33000    2884.2987    22659.127    210051.93     763.1725   -8245.1606    8.8449297 
   34000    2799.7954    22840.658    196565.66    740.81332    -8234.666    8.7746327 
   35000    2705.6597    22775.568    192178.62    715.90542   -8278.0011    8.7997097 
   36000    2780.2009     22666.64    208942.38    735.62868   -8241.8638    8.8419981 
   37000     2754.503    22764.226     199959.1    728.82915   -8247.4209    8.8040938 
   38000    2810.0302    22803.097    194798.92    743.52138    -8257.048    8.7890863 
   39000    2855.3362     22776.17    201234.37    755.50915   -8242.7053     8.799477 
   40000    2720.2907    22691.015    205157.88    719.77672   -8251.8299    8.8324998 
   41000    2836.0161    22816.705    195542.55    750.39716   -8253.6895    8.7838443 
   42000    2825.6866    22767.169    204134.57      747.664   -8232.6629    8.8029561 
   43000    2822.9852    22718.365     207330.3    746.94922   -8232.5957    8.8218667 
   44000    2758.1699    22883.386    187484.24    729.79939   -8262.1673    8.7582487 
   45000    2812.2294    22819.858    198909.63     744.1033   -8229.2205    8.7826307 
   46000    2779.6994    22664.924    209790.54    735.49599    -8237.061    8.8426676 
   47000    2787.9659    22819.061    195270.61    737.68329   -8251.4512    8.7829376 
   48000    2841.8751    22838.886    196827.71    751.94741   -8234.3813    8.7753137 
   49000     2820.251    22724.303    206046.88    746.22576   -8237.5955    8.8195614 
   50000    2729.6654    22744.263    200164.13    722.25723   -8255.2581    8.8118216 
   51000    2744.0982    22849.931    190506.08    726.07607     -8257.77     8.771072 
   52000    2748.5134    22640.541    212605.28    727.24431   -8230.5283    8.8521908 
   53000    2816.2329    22893.313    194195.84    745.16261   -8229.8291     8.754451 
   54000    2819.0091     22879.96    190281.89    745.89717   -8250.8372    8.7595602 
   55000    2773.4903    22696.166    204932.64    733.85311   -8251.5929    8.8304953 
   56000    2854.6164    22779.632    203842.95    755.31869   -8229.9654    8.7981398 
   57000    2707.6803     22792.47    200859.75    716.44007   -8223.1327    8.7931841 
   58000    2866.8862      22679.9    207909.11    758.56523   -8248.9832    8.8368286 
   59000    2854.3023    22962.367    185521.62    755.23559   -8249.0336    8.7281242 
   60000    2806.4535    22808.958    197905.63    742.57502   -8241.7704    8.7868278 
   61000    2784.0453    22660.513    207665.71    736.64589   -8250.3322    8.8443888 
   62000    2779.9154    22804.603    191925.82    735.55316   -8277.4371    8.7885058 
   63000    2795.6078    22690.122    209596.37     739.7053   -8231.7458    8.8328473 
   64000    2808.2605    22725.556    207515.16    743.05313   -8226.9677    8.8190752 
   65000    2831.5271     22842.92    190079.66    749.20938   -8271.3456    8.7737637 
   66000    2843.6793    22844.848    190665.04    752.42479   -8266.5394    8.7730236 
   67000    2847.2268    22640.594    211207.24    753.36344   -8244.8386    8.8521701 
   68000    2782.9951    22796.237    194108.41    736.36801   -8262.5198     8.791731 
   69000    2766.0035     22797.37    197451.37    731.87213   -8247.1084    8.7912941 
   70000    2882.4319     22751.13    207732.81    762.67855   -8218.9627    8.8091619 
   71000    2782.8044     22885.78     190910.2    736.31757   -8247.1406    8.7573325 
   72000    2761.4334     22671.41    209081.09     730.6629   -8243.4768    8.8401376 
   73000    2797.0423    22779.805    200895.32    740.08484   -8236.8769    8.7980728 
   74000    2868.7152    22971.663    185008.99    759.04917   -8247.5625     8.724592 
   75000    2745.4466    22693.729    205773.52    726.43287   -8243.9859    8.8314434 
   76000    2823.5391    22696.454    209794.03    747.09579   -8227.2314    8.8303834 
   77000    2900.4951    22890.815    190529.04    767.45801   -8251.0433    8.7554063 
   78000    2782.9538    22768.703    200872.83    736.35709   -8244.6402     8.802363 
   79000    2875.8771    22796.531    197468.61     760.9442   -8255.2658    8.7916179 
   80000    2853.7923    22640.021     210765.1    755.10064   -8249.1377    8.8523938 
   81000    2750.2098    22830.501    193518.14    727.69319   -8255.8674    8.7785366 
   82000    2716.0198     22901.34    190112.14    718.64667   -8239.9657    8.7513824 
   83000    2809.6097    22709.458    211973.73    743.41012   -8211.3355    8.8253266 
   84000     2768.626    22839.193    197704.29    732.56603   -8233.3094    8.7751957 
   85000    2759.0818    22762.149    196926.43    730.04067   -8264.6062    8.8048976 
   86000    2815.3382    22848.276    192982.04    744.92587    -8249.356    8.7717072 
   87000    2880.3933    22817.279    200901.03    762.13917   -8229.6571    8.7836234 
   88000    2873.8603     22820.27    194086.77    760.41054   -8260.3345    8.7824722 
   89000    2737.9692    22745.589    198519.61    724.45437   -8258.5286     8.811308 
   90000    2848.3371    22793.225    198152.87    753.65724   -8251.2627    8.7928929 
   91000    2752.1245    22659.656    212764.09    728.19981    -8222.963    8.8447234 
   92000    2770.7792    22802.245    202823.43    733.13575   -8218.4173    8.7894148 
   93000    2773.3265     22795.94    194193.59    733.80976   -8261.6444    8.7918457 
   94000    2748.8767    22747.854    206549.72    727.34044   -8222.4196    8.8104307 
   95000    2814.9561    22788.165     199513.1    744.82476   -8243.1202    8.7948452 
   96000    2889.8805    22916.631    189018.09    764.64942   -8248.8619    8.7455434 
   97000    2822.5537    22635.568    214874.65    746.83504   -8230.3595    8.8541357 
   98000    2790.8016    22963.163    189893.55     738.4336    -8222.875    8.7278213 
   99000    2951.5285    22892.081    195256.27     780.9612   -8228.4701    8.7549221 
  100000    2860.5708     22859.48    198705.09     756.8942   -8222.5679    8.7674079 
  101000    2820.6651    22776.434    201023.25    746.33533   -8243.6787     8.799375 
  102000     2793.911     22955.01    187009.02    739.25633   -8241.7894    8.7309213 
  103000    2766.7347     22714.11    204781.85    732.06561   -8246.5497    8.8235193 
  104000    2808.0843    22799.443    193444.17    743.00652   -8268.7862    8.7904947 
  105000    2774.3845    22820.373    196883.35     734.0897   -8239.3123    8.7824324 
  106000    2813.0622    22815.078    197529.27    744.32366   -8242.0201    8.7844706 
  107000    2846.1002     22758.52    201250.06    753.06534   -8250.9728    8.8063015 
  108000    2785.5913    22712.616    206414.16    737.05497    -8236.359    8.8240998 
  109000    2814.5436    22919.883    184945.71    744.71561   -8265.8944    8.7443025 
  110000    2858.2267    22725.277    202940.08    756.27397   -8251.7303    8.8191833 
  111000    2786.3412    22768.131    201734.24     737.2534   -8243.2625    8.8025839 
  112000    2733.7299    22874.898    190998.99    723.33269    -8251.665    8.7614986 
  113000     2796.286    22660.927    208182.71    739.88473   -8248.0552    8.8442273 
  114000    2791.0002    22773.417    200003.69    738.48615   -8247.8612    8.8005407 
  115000    2836.3192    22738.209     200019.8    750.47735   -8259.1265    8.8141676 
  116000       2796.9    22768.687    201011.89    740.04721   -8242.4994    8.8023689 
  117000    2767.5469    22795.325    199474.13    732.28051    -8232.833    8.7920829 
  118000    2809.4007    22851.334    193707.35    743.35483   -8251.0803    8.7705334 
  119000     2848.714    22820.845    203461.13    753.75697   -8211.8668    8.7822508 
  120000     2884.064    22654.148       205637    763.11042   -8270.5509    8.8468738 
  121000    2789.7907    22790.531    200827.24     738.1661   -8239.7279    8.7939321 
  122000    2744.5415    22766.019    198501.57    726.19338    -8253.205    8.8034008 
  123000    2771.3506    22842.552    198371.77    733.28695   -8225.2867    8.7739052 
  124000    2775.4196    22748.376    202185.77    734.36359   -8242.1055    8.8102282 
  125000    2756.8827     22861.55    194205.55    729.45881   -8243.2088     8.766614 
  126000    2704.7997     22788.83    195410.89    715.67787   -8254.5669    8.7945887 
  127000    2973.1844    22711.067     209119.7    786.69127    -8236.169    8.8247016 
  128000    2863.0544    22830.526    196565.17    757.55135   -8245.2508    8.7785268 
  129000    2805.7095    22787.489    197048.78    742.37816   -8254.3896    8.7951063 
  130000    2913.5492     22805.26    200205.66    770.91207   -8241.4183    8.7882526 
  131000    2820.5568    22718.678    205718.08    746.30668   -8237.5189    8.8217451 
  132000    2710.7144    22809.709    193351.23    717.24287   -8260.7928    8.7865387 
  133000    2781.5835    22832.711    197750.52    735.99451   -8229.4272    8.7776867 
  134000    2888.0755    22698.833    205913.46    764.17183   -8250.0504    8.8294577 
  135000    2731.0821    22811.091       198480    722.63208   -8239.1086    8.7860062 
  136000    2792.3272    22779.187    195936.82    738.83726   -8266.3249    8.7983118 
  137000    2899.3106    22703.121    208385.61    767.14457   -8237.3276    8.8277902 
  138000    2692.7254    22838.604    196100.96    712.48307   -8230.3495    8.7754218 
  139000    2806.2326    22749.844    200422.32    742.51656   -8255.6456    8.8096599 
[...]
  120000    3137.0876    23908.806    190211.32     830.0593    -7892.998    8.3826181 
  121000    3083.4246     23757.16    200492.86    815.86032   -7881.8383    8.4361258 
  122000    3154.4428    23909.117    191841.26    834.65142   -7882.2241     8.382509 
  123000    3134.9931    23916.873    195890.85    829.50512   -7863.5775    8.3797907 
  124000    3128.6619    23804.016    205385.53    827.82991   -7860.4581    8.4195198 
  125000    3132.0612    23764.931    205321.06    828.72936   -7863.9293    8.4333669 
  126000    3033.5018    23846.102    197487.95    802.65099   -7868.6961    8.4046602 
  127000    3157.0742    23943.339    192522.65    835.34768   -7871.6772    8.3705279 
  128000    3057.6514    23823.375    199707.55    809.04086   -7871.2159     8.412678 
  129000    3085.0478    24033.614    185805.62    816.28982   -7862.1581    8.3390866 
  130000    3159.4982    23916.059    191833.44    835.98905   -7887.7329    8.3800758 
  131000      3089.47    23809.868    198620.26    817.45991   -7879.1663    8.4174505 
  132000    3110.3066    23864.021    196874.15    822.97318   -7872.9367    8.3983495 
  133000    3134.3899    23816.563    195848.16    829.34551   -7903.9796    8.4150844 
  134000    3005.5274    24006.295     181609.5    795.24906   -7894.8697    8.3485763 
  135000    3193.0533    23871.208    195749.44    844.86758   -7881.5933    8.3958208 
  136000    3114.6534    23634.469    211625.57    824.12333    -7881.739    8.4799193 
  137000    3231.7074    23814.073    201330.89    855.09529   -7878.1635    8.4159641 
  138000    3135.5304    23782.994    198727.04    829.64729   -7888.8219    8.4269618 
  139000    3072.7752    23836.049     196938.7    813.04255   -7882.1653    8.4082048 
  140000    2989.2361    23802.228    201375.42    790.93847   -7862.4645    8.4201525 
  141000    3013.4344    23780.466    205895.68    797.34123   -7854.1225    8.4278576 
  142000    3133.2724    23770.083    206374.13    829.04982   -7856.9892    8.4315393 
  143000    3037.9206    23639.945    208756.56    803.82016   -7888.0452    8.4779548 
  144000    3094.9636    23890.055    197744.63    818.91349   -7860.2354    8.3891973 
  145000    3047.8646    23771.801    206040.41    806.45131   -7850.8639    8.4309297 
  146000    3063.5569    23875.762    195046.34    810.60342   -7872.7243    8.3942196 
  147000    3201.2057    23928.123    188275.99    847.02468   -7898.8869    8.3758509 
  148000    3113.1084    23883.284    196581.46    823.71452   -7868.8358    8.3915758 
  149000    3111.0954    23862.854    198233.95     823.1819   -7870.8523    8.3987601 
  150000    3142.4235    23720.076    204365.75    831.47116   -7891.8152    8.4493147 
  151000     3127.348    23861.252    200932.67    827.48226   -7852.8157    8.3993241 
  152000    3098.4813    23734.445     206057.8    819.84425    -7868.297    8.4441994 
  153000    3107.6074    23812.532    198840.59      822.259   -7884.8096    8.4165088 
  154000    2957.2469    23871.485    196853.29    782.47427    -7865.457    8.3957235 
  155000     3066.728    23689.248    208465.17    811.44248   -7876.3281      8.46031 
  156000    3135.4001    23697.428    212060.54     829.6128   -7854.5154    8.4573899 
  157000    3142.7196    23898.627    193147.07    831.54951   -7882.9727    8.3861883 
  158000    3069.1055    23852.073    198848.56    812.07156   -7862.3145    8.4025563 
  159000    3115.5891    23779.641    198379.65    824.37091   -7889.1686    8.4281502 
  160000    3129.7495    23749.695    205319.47    828.11769   -7871.8645    8.4387773 
  161000    3248.5454    23870.863    197988.54    859.55054    -7876.395     8.395942 
  162000    3135.8151    23863.688    198167.33    829.72261   -7863.1278    8.3984666 
  163000     3065.305     23835.81    200657.43    811.06596   -7857.5086    8.4082894 
  164000    3036.3608    23823.944    198737.47    803.40745   -7869.8871    8.4124772 
  165000    3068.0877    23753.865    204607.39    811.80224   -7865.4706    8.4372958 
  166000    3183.8495    23852.502    201273.04     842.4323   -7855.8095    8.4024054 
  167000    3043.9633    23768.738    202672.83    805.41904     -7875.15    8.4320163 
  168000    3134.9723    23923.861    191910.72    829.49962   -7871.2525    8.3773428 
  169000     2963.749    23821.139    195205.67    784.19471   -7889.3072    8.4134677 
  170000    3033.6038     23772.15     204406.6    802.67795   -7862.0555     8.430806 
  171000    3104.1624    23729.041    207071.69    821.34746   -7870.7974    8.4461225 
  172000    3087.8015    23844.118    199574.44    817.01844   -7861.3082    8.4053596 
  173000    3105.6716    23827.273    195326.98    821.74677   -7898.2973    8.4113021 
  174000    2990.5788    23814.037    198406.35    791.29376    -7877.807    8.4159768 
  175000    3123.7726    23795.085    201079.87    826.53622   -7877.6595    8.4226799 
  176000    3076.7155    23720.697    208511.02    814.08514   -7872.2454    8.4490936 
  177000    3118.3673    23897.496     191312.2    825.10601   -7887.0199    8.3865851 
  178000     3117.636    23783.353    201518.34    824.91252   -7874.9739    8.4268347 
  179000    3098.0017    23818.579    200602.21    819.71736   -7868.6096    8.4143722 
  180000    3114.6146    23933.233    187771.33    824.11307   -7895.3967    8.3740625 
  181000    3119.1514    23938.908    191881.99    825.31347   -7873.2764    8.3720773 
  182000    3142.2898    23817.437    203885.73     831.4358   -7854.4914    8.4147757 
  183000    3096.1499    23780.826    199258.51    819.22737   -7887.8385    8.4277301 
  184000     3107.843    23792.095    197077.75    822.32133   -7895.9956    8.4237384 
  185000    3115.0629    23741.667    208783.77    824.23167    -7855.384    8.4416306 
  186000    3038.3485    23759.531    206007.17     803.9334   -7859.4753    8.4352839 
  187000     3092.548    23889.268    194236.32    818.27434   -7881.6769    8.3894737 
  188000    3133.0539    23749.114    204375.79    828.99201   -7873.3548    8.4389837 
  189000    3177.2196    23753.634    205736.69    840.67806    -7870.247    8.4373778 
  190000    3062.8173      23903.1    194561.26    810.40772   -7868.2558    8.3846191 
  191000    3041.9256     23829.22    197685.68    804.87986   -7868.9163    8.4106145 
  192000    3047.2741    23822.103    198939.02    806.29507   -7873.2433    8.4131275 
  193000     3089.507    23870.412    199620.73     817.4697   -7850.8537     8.396101 
  194000    3057.9287    23661.352     212743.4    809.11423    -7864.737    8.4702845 
  195000    3085.0703    23726.005    208401.42    816.29577   -7858.4045    8.4472034 
  196000    3027.0974    23858.438     196237.6    800.95641    -7872.965    8.4003145 
  197000    3131.7761    23947.448    191949.17    828.65391   -7872.9306    8.3690917 
  198000    3086.4155    23819.155    196074.94     816.6517   -7895.7718    8.4141688 
  199000    3099.1129     23824.37    202497.72    820.01139   -7857.9587    8.4123266 
  200000    3092.0384    23744.152    207502.68    818.13951   -7861.7537    8.4407473 
  201000    3087.1083    23787.344    195933.89    816.83502   -7897.9468    8.4254211 
  202000    3077.7544    23864.134    202390.03    814.36002   -7843.6667    8.3983095 
  203000    3106.6406     23715.23    204914.07    822.00318   -7885.7839    8.4510412 
  204000    3098.2107    23900.021    195632.69    819.77265   -7865.5336    8.3856991 
  205000    3077.9387    23798.084    195035.04    814.40878   -7903.3546    8.4216186 
  206000    3029.8602    23637.088    212097.33    801.68742   -7873.5346    8.4789795 
  207000    3200.3691    23800.448    206307.11    846.80333   -7852.6758    8.4207821 
  208000    3045.0442    23827.812     199356.7    805.70506   -7868.5577    8.4111117 
  209000    3049.6105    23716.734    208538.89    806.91328   -7864.0446    8.4505053 
  210000    3173.1256     23842.98    199580.03    839.59482   -7870.1114    8.4057607 
  211000    3160.4691    23873.935    198431.97    836.24596   -7859.8874    8.3948619 
  212000    3120.2794    23825.163    197280.74    825.61195   -7882.7522    8.4120468 
  213000    3199.7792    23878.628    193722.45    846.64722   -7889.8343    8.3932121 
  214000    3154.3862    23809.836    199859.64    834.63644   -7878.5793    8.4174619 
  215000    3047.3638    23992.919    184647.88    806.31881   -7886.3916    8.3532307 
  216000    3067.7673    23795.984    200832.92    811.71748   -7878.1119    8.4223619 
  217000    3128.5198    23647.531    211618.84    827.79232   -7876.3824     8.475235 
  218000    3176.9857    23800.573    203602.48    840.61618   -7867.5011    8.4207379 
  219000    3110.7924    23892.192    196169.17    823.10173   -7863.0088     8.388447 
  220000    3030.2249    23839.928    198871.99    801.78392   -7872.9354    8.4068369 
  221000    3233.0414    23873.752    197720.13    855.44826   -7869.4719    8.3949262 
  222000    3150.6727    23849.217    196037.97    833.65388   -7882.9993    8.4035626 
  223000    3104.6364    23748.039    205817.72    821.47289   -7864.7073    8.4393657 
  224000    3138.9459    23845.827    200374.45    830.55102   -7865.4809    8.4047573 
  225000    3077.2505    23808.132    199071.78    814.22669   -7881.5275    8.4180642 
  226000    3148.6728    23768.642    209456.57    833.12471    -7841.232    8.4320504 
  227000    3085.8585    23745.256     202437.4    816.50434   -7889.0184    8.4403548 
  228000    3121.9355    23890.852    191704.46    826.05013   -7895.3051    8.3889176 
  229000    2988.0186    23887.991    195716.65    790.61633    -7869.464    8.3899224 
  230000      3138.11    23873.333     196188.4    830.32983   -7872.0736    8.3950734 
  231000    3177.6503    23795.445    204088.19    840.79203   -7860.9393    8.4225527 
  232000    3135.2719    23835.266    196552.59    829.57888   -7889.8508    8.4084813 
  233000    2915.4931    23855.083    198015.53     771.4264   -7855.5494     8.401496 
  234000    3059.7179    23804.428    196232.17    809.58764   -7890.3271    8.4193743 
  235000    3200.9498    23787.751    202579.12    846.95696   -7873.8255    8.4252769 
  236000    3014.8972    23714.167    209570.74    797.72828   -7852.3681    8.4514201 
  237000     3082.103    23878.292    196563.99    815.51064   -7866.7277    8.3933301 
  238000    3109.7955     23729.02    206578.56    822.83793    -7869.412    8.4461301 
  239000    3097.9098     23972.61    190018.92    819.69303   -7873.2746    8.3603074 
  240000    2996.1628    23901.531     193427.8    792.77124   -7870.1453    8.3851694 
  241000    3103.8622    23698.405    206224.11    821.26803   -7881.8174    8.4570411 
  242000    3202.5144    23763.303    205060.21    847.37096   -7871.3683    8.4339447 
  243000     3115.715    23813.308    196766.99    824.40422   -7889.3078    8.4162345 
  244000    3032.2858    23852.587    194998.47    802.32923   -7889.9181    8.4023753 
  245000    3036.7287    23851.601    199540.87    803.50481   -7860.2879    8.4027226 
  246000     3212.622    23927.372    195948.88    850.04539   -7859.9628    8.3761137 
  247000    3124.5126    23789.632     196302.4    826.73202   -7906.8314    8.4246105 
  248000    3047.2686    23815.471    201311.81    806.29362   -7870.6313    8.4154702 
  249000    3129.1327    24079.236    183510.34    827.95448   -7872.6481    8.3232869 
  250000    3175.8411    23908.593    195795.16    840.31332   -7870.8207    8.3826925 
Loop time of 491.286 on 8 procs for 250000 steps with 2048 atoms

Performance: 43.966 ns/day, 0.546 hours/ns, 508.869 timesteps/s
119.5% CPU use with 4 MPI tasks x 2 OpenMP threads

MPI task timing breakdown:
Section |  min time  |  avg time  |  max time  |%varavg| %total
---------------------------------------------------------------
Pair    | 285.3      | 288.38     | 292.12     |  15.4 | 58.70
Neigh   | 5.2636     | 5.3729     | 5.4199     |   2.8 |  1.09
Comm    | 21.647     | 25.458     | 28.761     |  53.9 |  5.18
Output  | 0.0056817  | 0.010687   | 0.012368   |   2.8 |  0.00
Modify  | 170.99     | 171.11     | 171.25     |   0.7 | 34.83
Other   |            | 0.9606     |            |       |  0.20

Nlocal:        512.000 ave         514 max         510 min
Histogram: 1 0 0 0 0 2 0 0 0 1
Nghost:        2794.25 ave        2800 max        2789 min
Histogram: 2 0 0 0 0 0 0 0 0 2
Neighs:        40074.5 ave       41446 max       38352 min
Histogram: 1 0 0 1 0 0 0 0 1 1

Total # of neighbors = 160298
Ave neighs/atom = 78.270508
Neighbor list builds = 5747
Dangerous builds = 0


# fix 132 all momentum 100 linear 1 1 1 angular
fix out_file_1 all print 1000 "$(step) $(temp) $(press) ${sys_press} $(vol) $(ke) $(pe) $(density)" file one_phase_${sim}_press_$P_$T_.txt screen no title  "step temp press pressGiga vol ke pe density"
fix out_file_1 all print 1000 "$(step) $(temp) $(press) ${sys_press} $(vol) $(ke) $(pe) $(density)" file one_phase_heating_press_$P_$T_.txt screen no title  "step temp press pressGiga vol ke pe density"
fix out_file_1 all print 1000 "$(step) $(temp) $(press) ${sys_press} $(vol) $(ke) $(pe) $(density)" file one_phase_heating_press_200000_$T_.txt screen no title  "step temp press pressGiga vol ke pe density"
fix out_file_1 all print 1000 "$(step) $(temp) $(press) ${sys_press} $(vol) $(ke) $(pe) $(density)" file one_phase_heating_press_200000_3100_.txt screen no title  "step temp press pressGiga vol ke pe density"

# dump 3 all custom 1000 traj_npt_new.lammpstrj id type x y z
run 50000
Last active /omp style is pair_style eam/alloy/omp
Per MPI rank memory allocation (min/avg/max) = 4.354 | 4.354 | 4.354 Mbytes
Step Temp Volume Press KinEng PotEng Density 
  250000    3175.8411    23908.593    195795.16    840.31332   -7870.8207    8.3826925 
  251000    3206.6583    23736.787    204521.07    848.46742   -7886.9761    8.4433661 
  252000    3136.4299    23843.146    201768.74     829.8853   -7861.8808    8.4057024 
  253000    3163.5602    23955.874    194770.09    837.06385   -7854.0421    8.3661479 
  254000    3028.0041    23806.519    197431.23    801.19632   -7884.8483    8.4186346 
  255000    3065.8608    23794.885    198829.19    811.21302     -7883.24    8.4227509 
  256000    3230.6597    23793.027    201367.39    854.81807   -7884.3215    8.4234087 
  257000    3023.9565    23828.574    194273.03    800.12533   -7895.2997    8.4108428 
  258000    3064.5741    23791.118       202557    810.87258   -7872.8099    8.4240844 
  259000    3134.3254    23687.906    208072.15    829.32845   -7880.0202    8.4607897 
  260000    3145.7313    23743.157    206241.35    832.34641   -7874.3594     8.441101 
  261000    3109.2707     23999.54    185236.23     822.6991   -7886.8137    8.3509263 
  262000    3103.7827    23774.462    198926.71    821.24699   -7897.5339    8.4299862 
  263000     3010.072    23749.069    205724.07    796.45155   -7862.1019    8.4389996 
  264000    3151.4478    23833.349    199361.45    833.85896   -7877.4778    8.4091575 
  265000    3081.3823     23814.72    202352.74    815.31993   -7854.9511    8.4157355 
  266000    3092.7346    23805.372    189821.89    818.32371   -7924.4988    8.4190405 
  267000    3170.9532     23886.75    193114.07    839.01999   -7887.3533     8.390358 
  268000    3023.4827     23714.53    208558.23    799.99996   -7857.2516    8.4512907 
  269000    3217.6359      23730.6    208136.12    851.37204   -7870.1129    8.4455675 
  270000    3141.2515    23827.286    197114.48    831.16108   -7886.5935    8.4112972 
  271000    3049.8186    23780.579     200039.2    806.96832   -7882.4307    8.4278178 
  272000    3127.6922    23900.332    193953.87    827.57333   -7879.7583    8.3855901 
  273000    3069.2883    23870.836    193591.18    812.11992   -7879.2342    8.3959517 
  274000    3053.0942    23792.842    197633.77    807.83503    -7890.032    8.4234741 
  275000    3012.4752    23807.793    200075.21    797.08744   -7862.9847    8.4181842 
  276000    3093.7329    23757.142    208754.49    818.58787   -7849.2057    8.4361322 
  277000     3052.333    23652.155    207070.39    807.63363   -7889.6307    8.4735782 
  278000    3176.1196    23882.613     191972.8      840.387   -7898.5439    8.3918114 
  279000    3002.2861    23794.473    201424.39    794.39144   -7865.5267    8.4228966 
  280000    3022.5154    23995.594    187739.12    799.74402   -7871.0561    8.3522995 
  281000    3099.8933    23744.531    204703.54    820.21788   -7874.0691    8.4406127 
  282000    3206.9286    23772.991     207711.3    848.53892   -7854.6543    8.4305079 
  283000    3059.8536    23768.979     199560.2    809.62354   -7888.7659    8.4319309 
  284000    3116.1642    23897.589    196441.79    824.52307   -7865.8923    8.3865524 
  285000    3127.0714    23824.037    201356.31    827.40906     -7864.26    8.4124444 
  286000    3056.1335    23752.157    204827.14    808.63922   -7865.5152    8.4379025 
  287000     3069.076    23897.526    190851.15    812.06376   -7890.4448    8.3865745 
  288000    3062.3571    23838.762    196269.71    810.28597   -7884.9129     8.407248 
  289000    3135.8542    23647.752    211956.91    829.73297   -7875.7023    8.4751559 
  290000    3095.1589    23809.661    202620.93    818.96518   -7860.5362    8.4175236 
  291000    3149.6698    23827.764    200152.87     833.3885   -7870.7814    8.4111285 
  292000    3086.6751    23812.775    207332.65    816.72039   -7843.6525    8.4164229 
  293000    3178.3872    23821.265    198489.62      840.987   -7889.2719    8.4134234 
  294000     3010.663    23822.579    194889.65    796.60793   -7887.1348    8.4129593 
  295000    3147.1703    23926.122     194059.2    832.72715   -7867.2629    8.3765514 
  296000    3157.7819    23807.535    197920.23    835.53494   -7891.9867    8.4182755 
  297000    3161.6469    23674.867     214092.7    836.55761   -7851.1404    8.4654495 
  298000    3105.7748    23664.482    208760.84     821.7741   -7885.8983    8.4691642 
  299000    3032.9072    23879.478     197422.8    802.49366   -7860.8953    8.3929134 
  300000    3013.5954    23889.443    195884.41    797.38382   -7865.1749    8.3894124 
Loop time of 97.1335 on 8 procs for 50000 steps with 2048 atoms

Performance: 44.475 ns/day, 0.540 hours/ns, 514.755 timesteps/s
120.5% CPU use with 4 MPI tasks x 2 OpenMP threads

MPI task timing breakdown:
Section |  min time  |  avg time  |  max time  |%varavg| %total
---------------------------------------------------------------
Pair    | 56.376     | 57.055     | 57.774     |   7.3 | 58.74
Neigh   | 1.0407     | 1.0647     | 1.0797     |   1.4 |  1.10
Comm    | 3.9802     | 4.7169     | 5.4452     |  26.6 |  4.86
Output  | 0.0010953  | 0.0015747  | 0.0017384  |   0.7 |  0.00
Modify  | 34.08      | 34.107     | 34.135     |   0.3 | 35.11
Other   |            | 0.189      |            |       |  0.19

Nlocal:        512.000 ave         514 max         506 min
Histogram: 1 0 0 0 0 0 0 0 0 3
Nghost:        2801.25 ave        2811 max        2789 min
Histogram: 1 0 0 0 1 0 0 0 1 1
Neighs:        40155.2 ave       41849 max       38301 min
Histogram: 1 0 0 0 1 0 1 0 0 1

Total # of neighbors = 160621
Ave neighs/atom = 78.428223
Neighbor list builds = 1152
Dangerous builds = 0

unfix temp
unfix out_file_1


write_data after_${sim}_press_$P_$T.in
write_data after_heating_press_$P_$T.in
write_data after_heating_press_200000_$T.in
write_data after_heating_press_200000_3100.in
System init for write_data ...
Last active /omp style is pair_style eam/alloy/omp
write_restart after_${sim}_press_$P_$T.lmp
write_restart after_heating_press_$P_$T.lmp
write_restart after_heating_press_200000_$T.lmp
write_restart after_heating_press_200000_3100.lmp
System init for write_restart ...
Last active /omp style is pair_style eam/alloy/omp

next loopVar
jump in.lmp ensemble
























Total wall time: 1:01:15
