LAMMPS data file via write_data, version 29 Oct 2020, timestep = 150000

2744 atoms
1 atom types

-0.23771503748758782 25.045715037488073 xlo xhi
-0.23771503748758782 25.045715037488073 ylo yhi
3.389086582242573 56.27681037049068 zlo zhi

Masses

1 58.933

Atoms # atomic

63 1 1.2861361969999845 2.1438144519380407 5.694501716529559 0 0 0
183 1 24.68423623978567 4.1873240917690655 5.88748417002904 -1 0 0
129 1 3.241009981545162 3.815570378665506 6.053657229813787 0 0 0
2173 1 1.427239126586502 0.5293153800248005 7.962814732935378 -2 0 -1
35 1 1.3323164896899289 4.146838445549933 7.549419368357339 0 0 0
1650 1 0.9404156169339761 4.134981152554823 3.6489233694927243 1 -1 1
1651 1 19.483481022549782 22.422043952158702 4.3262115501603 0 -2 0
2349 1 2.858862782437701 2.811160741009899 3.716889601436483 0 -1 0
131 1 2.93237827388627 2.2357892498340894 7.953024573343675 0 0 0
72 1 4.629032735562142 2.2557209774100158 5.954600098736681 0 0 0
2111 1 6.8955273153915515 0.2794317114419227 6.35040412592971 1 0 1
2714 1 4.336667936490861 0.7144462511242146 4.102576497050615 2 -1 2
159 1 6.500099578230775 3.817582534202776 5.842557630931955 0 0 0
1753 1 6.743931325934398 2.300524081153893 7.433041509455029 0 2 1
1591 1 6.61253012318485 1.7348913002826494 4.603535386960515 1 0 1
2569 1 8.795894952468451 2.20152749735298 6.138035107250254 0 1 4
1893 1 10.344587630458843 0.36955103595991623 6.0373146824799075 0 2 1
71 1 12.521621891903647 3.841561080349205 8.035257963600595 0 0 0
1825 1 8.487502207118013 3.469279699839115 4.277855961193583 0 1 3
43 1 10.980027760546266 3.9902381770559803 5.938564920893086 0 0 0
1499 1 16.92486676587348 5.647064195543213 4.105523709594448 0 1 0
39 1 8.885135038677648 0.4732053358398004 7.756549951726826 0 0 0
135 1 8.654974997021233 3.9225832467642725 7.4253655770297495 0 0 0
12 1 10.46553752897219 2.2414116923928704 4.293123875080763 0 0 0
143 1 12.498455681966595 0.34726629966418665 7.764421392079522 0 0 0
80 1 12.682149194084351 2.199415069544938 6.105395036185244 0 0 0
112 1 13.516375802392377 0.034752604826901456 5.755267955376901 0 0 0
2307 1 15.912330104793641 2.2977935550894864 5.939168075097528 -3 3 0
1521 1 11.712131338639963 0.44292379274720817 4.293455507794943 0 2 0
2702 1 13.877138827772852 1.8589033574454628 3.7566440694410814 0 0 1
1548 1 15.879663189216489 0.5770172852537377 4.417942287197307 2 1 1
119 1 17.74572354661347 0.483172711951659 5.933803773478882 0 0 0
1550 1 19.602927126468394 2.667455466732449 5.895528476353294 1 0 0
120 1 19.599968757419184 0.7208105650319787 4.066671864294907 0 0 0
2334 1 19.342592440450183 0.7432513331479822 7.745794972550214 -2 1 -1
2472 1 17.724790463197728 2.8264093286355223 7.867767744437362 0 2 0
784 1 24.712117754452507 0.15580860496713228 5.826333575237546 0 1 0
1603 1 24.700973984400875 2.197430259829313 4.171709253117722 -1 0 1
2485 1 22.802298432327895 0.5084290678248345 4.445618322988507 -1 -1 2
1632 1 23.0935475043144 1.73782585393682 6.227839940645959 0 1 0
688 1 21.458575617776233 0.2492989610885581 6.412268009139176 -1 0 0
2379 1 20.946793644237957 3.231760032678851 4.044325798414155 0 0 2
83 1 1.1877280904664513 6.203189361962998 6.282856971934336 1 0 0
1546 1 2.8505100330357975 5.5300467947065455 3.901720510232947 1 1 0
2522 1 3.4576771900388237 7.725868848163805 5.4279492848246935 1 0 1
700 1 1.724186214588533 7.968027433848292 3.7398705522555553 1 0 0
1880 1 24.818831903933905 6.203142073181394 4.306312550300494 0 0 1
2475 1 24.73835430088934 8.041641402965816 6.0263116352253405 -1 -1 0
2551 1 4.875736359870982 3.6081054776737904 4.172099301671573 1 -1 1
1760 1 5.0199587916613675 7.352045633350933 3.7910118259946404 1 -1 1
160 1 4.778004166100469 5.781933861171554 5.763507483081124 0 0 0
163 1 6.3952112219479345 7.361166918610944 5.910658824208593 0 0 0
1810 1 18.929642509640026 6.541577677029377 3.585951283165469 -2 -2 1
2148 1 8.20776079182595 7.661507871351484 3.829669157449807 1 0 0
1826 1 8.59137932112962 5.602015427091481 5.588925966989944 -1 -1 0
2309 1 10.460945720396563 5.323396597794337 3.9877110116527144 2 1 -1
2125 1 12.358018408145567 3.6994636060732393 4.1484499170375715 1 1 0
708 1 10.22922771927026 7.353879964448815 5.853616064519535 0 0 0
187 1 12.672671329132166 5.395085940256225 5.78500378286142 0 0 0
2287 1 12.240863998592616 7.164840953395262 4.656454474138347 1 1 2
1705 1 14.574614712221704 4.458305209866565 6.055561444311429 2 0 0
2246 1 16.053165061283387 6.240114830269719 6.2821592214967525 1 1 2
1395 1 1.1279022460297903 -0.05013311969848522 4.367473260396034 2 -3 4
192 1 14.17558677818688 7.6377207789205785 6.198977361398315 0 0 0
2139 1 15.789908362761166 23.199137115711643 4.325041601703031 -1 -1 0
47 1 15.59609308995874 4.6444616340859595 8.019364498843714 0 0 0
728 1 19.572360697141015 11.179484779109568 3.95296680622576 0 0 0
1707 1 17.44191723604046 4.311655790592566 5.9639673408095515 -1 0 0
52 1 19.59633530642312 3.913589381442409 8.143437149167713 0 0 0
2029 1 15.878827320193897 3.402516961788208 3.6930769803293764 0 2 2
193 1 19.422801890648635 5.715694792320872 5.791990728085777 0 0 0
2270 1 21.44271755800502 5.446464164687375 4.47725272677097 0 1 0
1809 1 17.77076703644923 5.976984081734929 8.280207077718007 0 -2 0
759 1 17.72181675963897 7.6556581627634115 5.786394032726276 -1 0 0
976 1 17.48151130268237 21.92535697845919 13.202879590821636 0 0 0
727 1 19.73806059795494 7.4127673384879875 7.826326040413963 0 0 0
1878 1 22.32230348085303 7.523346638315806 3.9286535778549223 -1 -1 3
78 1 21.336309759534174 4.063413986228053 6.462904878594841 0 0 0
180 1 22.89076857072459 6.18125174747437 6.242242399463003 0 0 0
195 1 21.246649146323712 7.454842153249873 5.926760556580181 0 0 0
2319 1 23.231736217436442 3.930209243952392 4.000196107103707 -1 1 0
179 1 21.14034342835523 5.677861398838486 8.337119528772329 0 0 0
101 1 1.0778140508755725 10.40066588573757 3.7290332437277267 0 -1 0
1422 1 3.430111697291958 9.624826962872026 4.083119355354312 2 1 0
185 1 1.5084953985756147 8.837154852134946 6.087058187114692 0 0 0
716 1 2.6085719996208487 11.179984190151298 5.8153697364553505 0 0 0
2310 1 6.301264028892677 20.152173979216066 4.07063871627747 0 -1 -1
2118 1 24.784990172346497 10.746895578783429 5.87627250531842 -1 -1 -2
803 1 1.0582684826202038 11.107930338492755 7.819789110491771 0 0 0
2601 1 2.9695114697629212 9.191792344620643 7.917115108208949 0 0 0
786 1 24.87771560513977 9.33852576430754 8.31600514028742 -1 0 0
2616 1 4.779994144672744 9.264499924283314 6.185486783060747 1 3 3
2512 1 6.552385151493248 11.145681780142628 6.44121412580985 -1 0 1
2367 1 5.970000458294025 9.544199136688922 4.067700927305886 0 2 3
2189 1 4.805483732048425 11.485659147268128 4.679718363337639 2 0 0
164 1 8.012050240524374 9.3803997780857 5.606564183581083 0 0 0
773 1 12.0810177003027 10.884830618039311 4.350611295137335 0 0 0
2175 1 8.136844062883837 10.928054608023068 4.237825180200182 1 1 2
64 1 12.597552954845815 9.252171141255458 5.859336960667356 0 0 0
789 1 10.438282502869061 9.506494729701386 4.747181828565994 0 0 0
2558 1 9.725623432088257 11.399459283514904 5.877699947595444 1 -1 0
165 1 10.763856322770076 9.3760996943617 7.400946319217305 0 0 0
171 1 15.948083424807793 9.1357513066213 6.419686701333751 0 0 0
2527 1 14.458495956376998 11.027981330992736 6.372239291952939 0 0 0
1515 1 15.95753486719632 10.790295936950075 4.461388676498782 0 1 1
815 1 15.97439803299361 11.11218603468538 8.006392855717946 0 0 0
189 1 14.147269304557575 9.205566331728935 4.271886941548224 0 0 0
1887 1 14.039114276529231 12.754994005118217 4.567825193951945 -1 -3 2
42 1 19.538103211986446 9.288008815977847 5.701988783355359 0 0 0
2697 1 17.575033484428303 11.357190393546942 6.175146307766822 0 0 1
1900 1 21.432015928951706 12.847527283036124 3.993532456900306 -2 -1 2
2722 1 19.707823397346793 11.480149565559891 8.02686691138803 -1 -1 2
793 1 17.80332781165982 9.515336201003846 7.677884714474279 0 0 0
1017 1 24.833262745114936 23.698234446233435 15.010348993548718 -1 0 0
2289 1 8.63960148139736 0.4029436607980367 4.571107371293671 2 1 -2
1706 1 21.26145196593307 11.18209342511074 6.056916036512133 0 2 0
1678 1 22.61044847817407 9.327767609694934 5.471035634257032 0 2 1
827 1 23.66141696990151 10.683109846703132 3.764224638357253 -1 0 0
1834 1 21.416576896087967 9.203003276651216 7.843180529486367 0 1 0
795 1 22.894052951106552 11.136362950573547 7.706897412910768 0 0 0
2637 1 2.7142128960633283 12.721581097885027 4.279278069891692 2 2 1
1833 1 1.3062844750401392 13.219555632969543 6.024527989142131 -2 0 0
2053 1 3.297423306336534 14.5217923382334 6.2148472960586965 -2 -2 2
1988 1 1.334427168831411 14.988307655113134 4.543712818343715 0 0 1
2295 1 24.786898598988742 14.883248007120121 5.811686487016575 0 2 2
2499 1 4.96888622226868 14.303716603697204 4.2425721676038535 -1 -1 0
1920 1 7.017950262934308 15.088041123753175 6.30651349237893 1 2 2
701 1 5.36631785318808 13.155115838318167 6.268238721612057 0 0 0
811 1 6.480957203463871 12.741868888652103 8.199872694217994 0 0 0
2212 1 6.725162201012585 12.797566110535422 4.300138622217146 0 0 -1
1595 1 10.23083455822024 12.640821542655212 3.7734033238782874 0 0 0
1545 1 8.535440894248456 13.976756196006855 4.386278484024853 -1 1 2
2128 1 12.02330032250097 12.599749034943178 5.728067410560815 1 0 0
755 1 8.056300200978505 13.00761474274503 6.443291135156885 1 0 0
1731 1 10.300526714860283 14.76662561272275 6.19785185575647 -1 -1 3
735 1 8.483695359536258 17.10616935335728 6.534497528541354 0 0 0
2267 1 11.676113053589143 16.405079268094205 5.318948868236534 -1 0 -1
776 1 11.406224797473293 14.54299284575956 3.8400152018181615 0 0 0
743 1 13.646530783962568 14.833146753991553 5.632709760917885 0 0 0
791 1 15.662562690748388 13.278580481704921 5.922876802679573 0 0 0
2048 1 15.701203623457298 15.095582191190852 4.490862312763882 0 1 1
844 1 13.863543145521586 13.096134064794342 7.620557790741828 0 0 0
816 1 15.576523448969253 15.377012567184861 7.475613305934984 0 0 0
836 1 13.163524588026814 16.646568327848314 7.318270415336439 0 0 0
779 1 19.554449038481366 15.132776536598193 4.338781619781402 0 0 0
859 1 17.418147576170476 15.117400897680374 5.935963019205607 -1 0 0
1532 1 19.63608255039162 13.01102624099051 5.924716331375931 2 -1 0
2394 1 17.506591125366526 13.209356613381535 4.542649754585825 -1 2 2
819 1 17.562728004802757 13.278620017893617 7.722799163216711 0 0 0
820 1 19.6912155551506 15.015509425577195 7.5291067934292775 0 0 0
749 1 21.460641890027368 14.921524990443563 5.767582968477164 0 0 0
2283 1 17.84671878507433 24.232747745992526 4.302475553543168 -3 -1 0
736 1 21.27877909804551 16.72057670080308 7.802039430552925 -1 0 0
823 1 24.75714097246186 12.881367650440785 4.216384324403629 0 0 0
2391 1 22.86347974627695 12.86742972107963 5.978284780045409 1 1 2
2566 1 6.523058045292194 5.617473473237628 4.122126133316546 -1 0 1
732 1 24.694170222020368 16.544106284905823 4.244176466209445 -1 0 0
2280 1 21.300196862888633 16.642293143153076 3.9522651636160178 -1 -1 0
698 1 23.181586086752 16.98562670846789 6.0393018107396435 0 0 0
824 1 23.032358303287303 14.978580169726415 7.537594642552671 0 0 0
2704 1 1.4561962871075111 16.360566610022154 6.186747838490083 0 -1 2
103 1 0.8132129907202119 18.36385141381342 4.171482512969348 0 -1 0
2100 1 3.04169361748489 16.88674434051594 4.33972934647986 0 1 1
68 1 2.727876670246955 18.348651275950587 6.4191745381618635 0 0 0
2360 1 2.5810357608751033 20.204184373925322 4.657382330264656 1 -1 2
866 1 2.8289555145991305 20.057565883723612 8.041546324293964 0 0 0
802 1 24.867228487074826 18.50604231282736 6.35336922870635 -1 0 0
757 1 4.7587644717484965 18.44543011051688 4.369613584396226 0 0 0
832 1 4.7607623310450355 16.459425284070747 5.85386160685772 0 0 0
2597 1 6.498097077987508 16.750077440014245 4.355895336907364 0 -1 3
758 1 6.2932754798940085 18.65824824189975 6.148197275728766 0 0 0
863 1 4.681364445444066 18.28512714910569 8.215748393255854 0 0 0
2286 1 8.063569152660396 18.458639080043866 3.83337735152587 -1 0 0
24 1 9.2198859477889 16.497775357893737 3.844245649838758 0 -1 0
839 1 10.691861153233384 16.842614196430993 7.8125764254951005 0 0 0
1504 1 8.2724155955556 20.27744933213291 5.568426342986642 0 -1 -1
2364 1 9.912848642866782 20.188490538716785 3.584647042971107 1 0 1
1620 1 18.12496331509356 9.363261392061592 3.869842266578224 2 -1 1
737 1 9.949050358842513 18.50028403206175 5.553038223643322 0 0 0
2303 1 12.129502894854369 20.929873876972188 5.599582653307714 0 -1 2
27 1 11.900122108725679 18.77247095922813 7.475837531223538 0 -1 0
11 1 10.18381526635947 20.666042218546885 7.594636785242918 0 -1 0
807 1 16.018557517358794 18.700375658096107 3.8918049190963515 0 0 0
2612 1 15.799276811867633 17.112714324517057 5.844115872622647 0 1 1
752 1 13.768016224835032 18.90497251308267 6.080112569426243 0 0 0
15 1 11.70560961550078 18.644341871871887 4.002484188059381 0 -1 0
115 1 13.968856011619181 16.84640280852733 4.663744308515967 0 -1 0
775 1 15.586574720283105 20.094074560758216 5.760322803011226 0 0 0
875 1 15.92894332841693 18.632534820691603 7.7373639544890445 0 0 0
1 1 17.08304565065437 16.92925177007516 3.846158285522198 -1 -1 0
2647 1 19.279860228809056 16.904130072957095 5.8630857677339305 -1 0 3
2665 1 17.741036565109255 18.510677483600553 5.748517276399153 -1 1 2
1785 1 19.338713294932674 18.39180801188799 4.052612708716696 0 0 1
2311 1 19.289464255648625 20.19438445334152 5.789284672204288 2 2 0
852 1 21.482808833966907 20.30636008146635 7.4502670641850095 0 0 0
1470 1 17.350794434616418 20.97923806388677 4.397121392627328 0 -1 -2
847 1 17.658764882518156 16.855747552876643 7.5547772254793255 0 0 0
876 1 17.76334417276773 20.327373736881754 8.020511505237227 0 0 0
2654 1 14.516939764590495 6.227929393591176 4.457556145320788 1 0 3
1855 1 21.124258891338407 18.34654339639215 5.976992322841238 -2 -1 0
1800 1 21.447247932746926 20.09313217034493 4.307724883176974 -2 0 1
2650 1 23.337696699772323 20.458892933736344 5.7910275477220985 -1 -1 0
2481 1 22.908621556267256 18.41183215768052 7.936789496251537 1 -1 1
979 1 24.564266279945933 22.04978090946379 13.488419490108138 0 0 0
2733 1 3.0155497065152495 0.5621544873219655 6.104698823774504 -1 -1 1
2600 1 0.7409844067334316 20.321752775625527 5.978443518845609 1 1 2
28 1 1.3989371049631327 23.87917902303571 6.239938431191211 1 -1 0
2185 1 2.6521969204728095 22.157618536291636 5.973740795790556 0 1 -1
1995 1 3.3355932793925955 23.992849498758837 3.826053945190465 2 -1 -1
223 1 22.82433241796638 23.78682396872368 13.552172221632716 0 -1 0
1775 1 4.441650247708332 20.338873094160817 5.797503137413345 -1 0 1
2321 1 6.247636867881497 24.505863053156055 3.9399303175834923 0 1 1
699 1 21.385806898980775 9.921420101691687 3.730044646531291 0 0 0
7 1 5.0061744078972055 23.987250908841297 5.764769837347976 0 -1 0
1937 1 6.254670730962655 21.893760136142433 5.890244077760803 2 -4 0
2622 1 6.547637784363057 23.44274651100538 7.750041596426381 -1 0 2
840 1 9.875396574849482 23.814084940312327 4.147387785354731 0 0 0
9 1 7.815672314305287 22.173401277891763 4.093260009038865 0 -1 0
2508 1 8.459208387165013 23.66959043115348 5.878504466070545 -1 -1 0
19 1 9.966386757573416 21.844710958267356 5.709387359688981 0 -1 0
848 1 10.070640402234165 23.81482877482187 7.310502014326843 0 0 0
2368 1 5.385129555529599 22.353173989600194 3.585283957673297 1 2 0
51 1 11.704285500135441 23.444635626710863 5.594060269987362 0 -1 0
2152 1 15.554637608958659 24.451400412522574 6.295307792325263 -1 0 0
2723 1 16.189555626480065 7.89995103880484 4.227422489337362 -2 0 2
1918 1 14.058370557643897 22.448886109883027 5.432456177203546 1 -2 0
871 1 13.696800292753794 20.54110795562913 7.573710705360696 0 0 0
756 1 15.759693420696472 21.574037753223763 7.9636693875548925 0 0 0
1441 1 17.768724156413235 2.3360973556640543 4.4813604196247425 1 0 0
1881 1 23.35739816175777 18.666614073141425 4.276933875528026 1 0 0
741 1 17.90095243677196 22.08034216332576 6.420190324649256 0 0 0
2113 1 19.42192930923717 24.1376895910618 6.576667781393644 -2 -2 -1
1904 1 21.288993966795942 22.14306233009914 5.906987687463003 0 -2 2
872 1 17.73202007031096 24.077708042328105 7.890474527963684 0 0 0
854 1 19.39804949548246 21.838198929543545 8.12882675700057 0 0 0
153 1 21.362199909836477 23.447512098069808 7.676420965640205 0 -1 0
1388 1 1.4159289758225775 22.381323997182783 3.8943667206577297 0 -1 -1
2191 1 21.073896421428337 24.087738211766208 4.399427798354837 -1 0 1
99 1 24.91369158849108 22.223368187600286 5.724780396559812 -1 -1 0
2341 1 22.99385614326421 22.103273101807183 3.9731609573036364 -2 0 -1
1448 1 24.393499748872607 24.29348422095073 3.7441823225814574 1 -1 2
149 1 23.026707750048715 23.735128785156867 5.858383233338614 0 -1 0
198 1 1.634879318758941 2.0650554776148726 10.016735909392501 0 0 0
106 1 3.366260777813706 0.5495290689112808 9.615214946622727 0 0 0
229 1 3.2777598763219102 1.8214132532279295 11.619070374658675 0 0 0
199 1 1.297038628384602 0.37675705798719183 11.781607295620807 0 0 0
100 1 3.1541443610969337 3.7077948624007186 9.860975839816767 0 0 0
157 1 1.479522870443316 3.7271103519229922 11.76300525563 0 0 0
93 1 5.130620219727225 0.6519680066183449 7.723099297484832 0 0 0
132 1 4.895624749976523 3.95195380871092 7.805654286983166 0 0 0
202 1 5.298807242961318 0.2433903190578926 11.4652337900711 0 0 0
110 1 6.988866917383801 0.35831702763546613 9.183236301601148 0 0 0
133 1 5.379920784493702 2.371377561515029 9.370176911572258 0 0 0
233 1 6.723783692925648 2.327852647200415 11.212607488965638 0 0 0
230 1 4.933299596039507 3.977018420352975 11.396639681532829 0 0 0
138 1 6.985660881565041 3.982007565052861 9.251347571187782 0 0 0
139 1 10.780183540969768 2.380270683058823 7.706246189199343 0 0 0
206 1 8.496148428823338 0.48567181416343486 10.972628342484091 0 0 0
111 1 8.576944289535385 2.185159628328154 9.085810428205349 0 0 0
114 1 10.55055298321241 0.11944758459972588 9.139348152613596 0 0 0
237 1 10.39189483159015 1.9420397365665236 11.246477401132458 0 0 0
210 1 12.242282192543009 0.3162864337568615 11.124223002885724 0 0 0
118 1 12.65641089650235 2.1582570487222563 9.543977440603859 0 0 0
238 1 12.549855005403469 4.135930889627622 11.407643673687753 0 0 0
141 1 10.780159007889374 4.004425284585475 9.62363437990424 0 0 0
234 1 8.581956847718999 3.851371830035223 11.247455053450741 0 0 0
23 1 16.30662998080593 0.8039375185622861 7.805593319929637 0 0 0
2483 1 14.210219541080912 2.4797376025788296 7.833334619053187 1 2 0
147 1 14.139792501969215 0.26982751817890993 9.570878212525347 0 0 0
241 1 13.948491658547079 2.091007618420108 11.342476305298325 0 0 0
145 1 16.092745973973656 2.3572245235711247 9.527792444639113 0 0 0
214 1 15.852686989259476 0.5712156140802236 11.212132657625666 0 0 0
245 1 17.74686120569406 2.4267039478954966 11.534637932581646 0 0 0
122 1 18.000027053446544 0.6125245420793356 9.88565860290525 0 0 0
150 1 19.265006729017998 2.435483574275792 9.764879100072825 0 0 0
218 1 19.465028925717434 0.36038898731390023 11.76820994058116 0 0 0
130 1 21.30176798417761 2.134136142552108 7.890603056357627 -1 0 0
124 1 23.190848189488925 0.3217820141363612 8.08877228336446 0 0 0
59 1 -0.2017540160099074 2.1963139778316223 7.6324431398233825 0 0 0
102 1 25.025281632576714 2.280564881049221 11.358584147836584 -1 0 0
225 1 24.957220729249773 0.29400232180247676 9.902911863343574 -1 0 0
249 1 21.3316946413661 2.0262591160745784 11.156072482231789 0 0 0
126 1 20.712273330428175 0.30947085409166286 9.616456364217642 0 0 0
222 1 22.644877931385857 0.1283806781437286 11.399216281627563 0 0 0
127 1 23.391696399842253 2.245840637111375 9.537891623842192 -1 0 0
250 1 24.87985418870052 3.8787861697677535 9.492949658266035 0 0 0
2420 1 3.006072515323749 5.79349256513743 7.786565312754204 0 1 3
31 1 1.1874713815199314 7.468996889228032 8.27265970283517 0 0 0
134 1 1.141001218856007 5.565552464200665 9.692791690373971 0 0 0
257 1 3.2511481317156385 5.671562139613932 11.76166833860711 0 0 0
162 1 3.264982954715364 7.571393686173674 9.940398744034187 0 0 0
254 1 1.7398235559687498 7.375877271714984 11.63647455678241 0 0 0
158 1 24.712871988449805 7.2346693551153685 10.230271411675322 -1 0 0
136 1 6.392681455269556 5.676902789275792 7.87801703123729 0 0 0
137 1 4.67477527074437 7.600654112582549 7.826014622819162 0 0 0
161 1 5.007184924003571 5.850140476155293 9.639361461103404 0 0 0
261 1 7.105541348839172 5.794835176494831 11.312934528495894 0 0 0
258 1 5.195621025963224 7.463106510614747 11.342030275127247 0 0 0
166 1 6.938571896166015 7.339291404504536 9.691996442932613 0 0 0
142 1 8.81384710167461 5.736243088531829 9.338043736029409 0 0 0
140 1 10.462525224837714 5.464697823566576 7.517646413118997 0 0 0
167 1 8.473477887533338 7.447658646086595 7.218321869675544 0 0 0
265 1 10.552115122248528 5.501667524858302 11.474865117214765 0 0 0
262 1 8.729298345647829 7.620436692924328 10.992200497045054 0 0 0
170 1 10.486655823953905 7.74111534741069 9.286485637338963 0 0 0
169 1 12.497261476621572 5.687131409301511 9.683173341117012 0 0 0
266 1 11.981458824518544 7.431581740523241 11.489120848095764 0 0 0
66 1 12.18022175386605 7.176176075152178 7.561499096950887 0 0 0
172 1 15.985807361779719 7.7759702520091984 8.236259916335161 0 0 0
242 1 15.917193244334813 4.003044316042868 11.496173407638647 0 0 0
146 1 14.3060969164419 3.9968362548385086 9.891336840766513 0 0 0
76 1 13.957150555009349 5.88873005010881 7.657140422606191 0 0 0
144 1 15.769320854739854 5.999814454344917 10.088239448650636 0 0 0
269 1 14.06434532398603 6.067538524664134 11.709046732606886 0 0 0
174 1 13.841197333728303 7.2467009615221105 9.740997440466497 0 0 0
270 1 15.472062027898364 7.749891878227415 11.859641628159082 0 0 0
246 1 19.363641948622657 4.421250587473573 11.591560215748729 0 0 0
175 1 17.714480963768175 4.318722030211552 9.94438064233868 0 0 0
273 1 17.535891292034606 5.987264961765032 11.802208904229964 0 0 0
177 1 19.356490641568413 6.3196585211640475 9.936535368034232 0 0 0
274 1 19.344325499135913 7.888399297060143 11.839631037108557 0 0 0
173 1 17.663915046631338 7.834703962772261 10.032322204927617 0 0 0
156 1 24.690587383546273 5.780699332707842 7.78740046635565 -1 0 0
2426 1 23.252890065357498 3.8451227435477104 7.864006862219917 0 2 1
154 1 21.3437224952338 4.0307296957991445 9.928615400778494 0 0 0
279 1 22.8293441758857 3.7808351645908838 11.626729643784884 0 0 0
32 1 24.841407227148117 4.898228088429421 11.519081774140929 -1 0 0
98 1 22.979414241296695 7.710532327771165 8.155929593869217 0 0 0
277 1 20.838615769467566 6.126797199988533 11.72955303662235 0 0 0
181 1 22.972083353776547 5.5808164001564435 10.010410304998258 0 0 0
278 1 22.803813732743038 7.345140468310141 11.589428939677243 0 0 0
182 1 21.42446950923607 7.5225013930093265 9.933120994945876 0 0 0
785 1 1.4153492846689124 9.275921396115118 9.980019176540338 0 0 0
283 1 3.4678877918858775 9.087298953877891 11.563185114871402 0 0 0
788 1 3.031648455210143 11.04225608062916 10.187415634391844 0 0 0
883 1 1.278592598648839 11.061665024673434 11.707449148300851 0 0 0
1469 1 4.663811508488481 10.828485592822878 7.819813249575146 2 0 0
787 1 6.674911731584476 9.080585192901575 7.865058191566361 0 0 0
186 1 4.922006366596146 9.258158029221164 9.68513632084138 0 0 0
285 1 6.738363498321138 9.233145125420275 11.3952197788885 0 0 0
885 1 4.768851571181079 10.829167643567942 11.90032936377408 0 0 0
790 1 6.74696613888435 11.003032202353275 9.691731598219349 0 0 0
715 1 8.737616083133293 11.198432152361834 7.909839841845886 0 0 0
188 1 8.59936769851454 9.266723292194664 9.148429023270436 0 0 0
887 1 8.788916326263385 11.125164149638476 11.087243107913928 0 0 0
287 1 10.57949736794927 9.274176194611146 11.20293072407189 0 0 0
792 1 10.686456998697434 11.064361877326983 9.50794482258403 0 0 0
190 1 12.261933222229969 9.340869879728455 9.45416853456273 0 0 0
889 1 12.266321275430146 11.221043947577645 11.559982509568567 0 0 0
706 1 12.427110407376732 10.985975143228222 7.6014631245571405 0 0 0
696 1 14.0145133738873 9.199871785358898 8.07020768637156 0 0 0
289 1 13.514011104670223 9.127488705236077 11.426021218064196 0 0 0
178 1 15.475049162166393 9.354153024306894 9.898952898881202 0 0 0
794 1 13.787882853322136 11.223065511897943 9.81498078022404 0 0 0
891 1 15.56834492471599 11.059147317385777 11.823596071003639 0 0 0
291 1 17.69672531570179 9.488355570797491 11.798841283063373 0 0 0
194 1 19.755498661655608 9.375806825620023 9.790949301996788 0 0 0
796 1 17.805624131545557 10.896217449318511 9.640596685832605 0 0 0
893 1 19.38559560435933 11.14804438568118 11.704785186073524 0 0 0
184 1 24.625564681689028 11.489804558735115 9.785111656149226 -1 0 0
281 1 24.74833687839385 9.261589020750316 11.82235621123766 -1 0 0
798 1 21.406223885787156 11.192351371888847 9.997549731189967 0 0 0
293 1 21.408963095872224 9.207651233875563 11.722368114457428 0 0 0
196 1 23.002627882260576 9.67215097627622 9.956814778244413 0 0 0
895 1 23.134772014092917 11.472980649161748 11.61353797338849 0 0 0
707 1 2.8381854691398605 12.684590978489823 8.012293118509177 0 0 0
704 1 1.4446570909849787 14.739190560884627 7.858344574934877 0 0 0
801 1 1.2124349634732947 12.881748598211367 9.843355160412909 0 0 0
898 1 1.3048554879044083 14.626735651280892 11.502486250707243 0 0 0
901 1 3.187199816344826 13.132202200922626 11.375855170437696 0 0 0
806 1 3.2480693411401265 14.745580086169696 9.411820063689738 0 0 0
800 1 24.79400535363532 13.072355890951263 7.629660671518416 -1 0 0
799 1 24.933153831698768 14.776682136630093 9.533189415967911 -1 0 0
1535 1 5.145703703817739 14.98010259483281 8.007817984897063 0 2 1
902 1 4.769245638373427 14.839839567401567 11.485211459502043 0 0 0
739 1 6.52330523052182 15.011908154661073 9.823805920195309 0 0 0
805 1 4.871391014069084 12.904213780202594 9.710763429482078 0 0 0
905 1 6.532358448295363 13.143565232268807 11.299313744915912 0 0 0
809 1 8.321736146129835 13.04515904526011 9.718542545092454 0 0 0
843 1 12.140407844315426 14.475135931607616 7.694212746234737 0 0 0
692 1 10.190586406600563 12.766888819871577 7.879391005614504 0 0 0
808 1 8.689245260177723 14.849765269220438 8.156797868779556 0 0 0
906 1 8.49959105207076 14.878697299191447 11.664916993212772 0 0 0
814 1 10.631322840885145 14.89195379605683 9.31252875710624 0 0 0
909 1 10.486579978408393 13.134346059079599 11.210817244120888 0 0 0
910 1 12.101762867473159 14.642158850344128 11.212277748827216 0 0 0
813 1 12.004961902375294 13.037495292139795 9.543607488562689 0 0 0
841 1 12.318053005088396 16.819364130744177 9.758348262661066 0 0 0
837 1 8.592342460675669 16.62470411268569 9.684361516714029 0 0 0
818 1 13.851812650072521 14.844995217412906 9.729074119874689 0 0 0
914 1 15.96991144955363 15.121335984678495 11.333846290357606 0 0 0
817 1 15.683416880517653 13.301573774476061 9.435025417041643 0 0 0
913 1 13.977856281416988 13.167274191951272 11.68002339827461 0 0 0
845 1 15.669973066735928 16.652335397911067 9.403681920171241 0 0 0
917 1 17.246554606404665 12.989364336556974 11.05689934106756 0 0 0
821 1 19.392721921783988 13.201484599820017 9.456472988994504 0 0 0
822 1 17.633865167925734 15.001537005532372 9.686697086851296 0 0 0
918 1 19.592547356373963 14.552444971630903 11.65869306620456 0 0 0
849 1 19.481358044710014 16.306709777079547 9.971595702973978 0 0 0
797 1 21.368158342528474 12.847714808012816 8.089568864416853 0 0 0
826 1 21.411944488551093 14.428327474869693 9.86232939830068 0 0 0
897 1 24.94759738849023 13.29637740952762 11.682313574773161 -1 0 0
921 1 21.15054415308571 13.001868188583645 11.761918879870697 0 0 0
825 1 23.275262606428115 13.267064070551767 9.69141967828606 0 0 0
922 1 22.99337669092857 14.553742356385683 11.790615070194866 0 0 0
949 1 21.56850008556816 16.6406702177095 12.117133602841179 0 0 0
2299 1 24.552409125210723 16.57755137484272 7.979287381952749 -1 1 0
853 1 22.846164741113803 16.38347662424617 9.61479341614111 0 0 0
953 1 24.718615215800256 16.158395168798762 11.263579363490202 -1 0 0
829 1 1.4057063620439298 16.268499127653236 9.666587946648894 0 0 0
855 1 1.4196884014283353 18.221601677228747 8.138852162717232 0 0 0
929 1 3.08122143074878 16.604642360104492 11.460590763710437 0 0 0
804 1 3.271574129167241 16.476705237664838 7.792646043673162 0 0 0
927 1 1.0836672776702756 18.778102250149203 11.581551026150953 0 0 0
834 1 3.014558279286314 18.52520411826677 9.86076784470724 0 0 0
857 1 1.4266392977944076 20.394179722470454 9.976616763212938 0 0 0
835 1 6.364111622199894 16.98056507347208 7.847212150191262 0 0 0
762 1 6.334338258017107 20.830124943574305 7.830213114605411 0 0 0
833 1 4.7228271072486026 16.89324216713927 9.87288461436962 0 0 0
930 1 4.996441712011858 18.38028761651838 11.618209932807082 0 0 0
810 1 6.9002588034529815 18.49177693806959 9.767757580030649 0 0 0
933 1 6.754674820410815 16.821179296122587 11.46717857890735 0 0 0
961 1 6.652219889756173 20.260785832489013 11.580271268850074 0 0 0
838 1 4.80433785139462 20.173658671664917 9.721181479436625 0 0 0
2390 1 8.0448292510687 19.049150327000298 7.948218840326665 1 0 0
937 1 10.507679004296946 16.65616247410297 11.348256404558326 0 0 0
865 1 8.450407713316824 20.41879823314877 9.60474432341887 0 0 0
934 1 8.748999288823251 18.34439172823823 11.75317339369305 0 0 0
842 1 10.010647663065038 18.451894616253178 9.843619037643583 0 0 0
938 1 12.094844530237603 18.418742189652136 11.465645544035857 0 0 0
965 1 10.269527005135883 20.33738390176208 11.240557791057117 0 0 0
869 1 12.049595353868368 20.04939434506177 9.423765398658475 0 0 0
941 1 13.919244234953874 16.74400407053414 11.830027393725722 0 0 0
846 1 14.13418784601736 18.911236958318227 9.168147175776653 0 0 0
942 1 15.560171720375804 18.257360063085763 11.68101326721942 0 0 0
873 1 15.823909030598797 20.104627453027703 9.7168308613748 0 0 0
969 1 13.782482749374347 19.939108864144274 11.314356391025834 0 0 0
945 1 17.424971691633395 16.89896772770873 11.27625940358288 0 0 0