LAMMPS data file via write_data, version 29 Oct 2020, timestep = 300000

2048 atoms
1 atom types

-0.08665496698189301 28.438654966978305 xlo xhi
-0.08665496698189301 28.438654966978305 ylo yhi
-0.08665496698189301 28.438654966978305 zlo zhi

Masses

1 58.933

Atoms # atomic

130 1 1.6448265418195445 2.102379541306244 3.494245175610029 0 0 0
33 1 1.8114621250297662 3.5832411188566407 1.5201353982741366 0 0 0
8 1 3.6281877806465355 1.9512142511838309 1.5477031703869 0 0 0
165 1 3.7542645714098537 3.099283944055841 3.50932982645281 0 0 0
1128 1 3.1260463688967324 0.19028192610753386 3.1863095120424143 0 1 0
161 1 0.2657531131420184 3.835072467645521 4.080604086010336 0 0 0
3 1 1.4618305857347975 0.02830022978506193 1.819806990342033 0 0 0
35 1 -0.07270736154873347 3.356318668451165 -0.04118012550130956 0 0 0
37 1 3.626263306410186 3.596190142888406 0.09080470412851582 0 0 0
12 1 7.419283453064269 1.8031928237748072 1.682809160398894 0 0 0
39 1 5.211568471240902 3.8440653426620357 2.131307704647373 0 0 0
134 1 5.462788608678694 1.4234950411192513 3.2146205382967152 0 0 0
169 1 7.056104231172261 3.387466871957486 3.7368930723342646 0 0 0
6 1 5.634285894145916 1.94959924928862 0.3559201577810532 0 0 0
137 1 7.530720962696616 0.10491034995484211 3.1677323012657954 0 0 0
9 1 7.81336021471763 -0.0703524462217402 -0.003470231663359691 0 0 0
138 1 8.92754156036155 1.8893043637845333 3.816875183120157 0 0 0
16 1 10.843307087261943 1.6583773067022292 1.6527889743303879 0 0 0
43 1 8.7505761938229 3.3357746124700953 1.8573510832720515 0 0 0
173 1 10.644573541937948 3.398649129847491 3.4642358844178545 0 0 0
141 1 10.680531128636842 -0.045893240785176204 3.2692245933028263 0 0 0
142 1 12.077772094418599 1.766691205692272 3.7662409817063556 0 0 0
1140 1 12.120733549913634 -0.08317617900259461 1.5759519285421615 0 1 0
45 1 10.602117242438936 3.6026612935078277 0.08719430386003779 0 0 0
10 1 9.19241120871572 1.4887137722182835 -0.03178281445078923 0 0 0
47 1 12.19625785514124 3.584341748333987 1.712499095211385 0 0 0
177 1 13.93499176080245 3.579900270617478 3.1942045941179034 0 0 0
15 1 13.803660363670977 1.6710220651995134 2.027673572843012 0 0 0
20 1 15.919217956625062 2.1005810593258833 3.6335506718557955 0 0 0
51 1 15.928195897468829 3.387609967017091 1.523254969457955 0 0 0
1144 1 15.994298734441902 -0.054058718792937555 1.6496567964881728 0 1 0
19 1 14.116888843821446 -0.060984930319200686 -0.0773033449558411 0 0 0
145 1 14.479443451192957 0.31788361458820036 3.68456900990441 0 0 0
49 1 14.042607842845333 3.595527840908217 0.2438609933232101 0 0 0
14 1 12.400704085876871 1.8352534844711883 -0.05707775127277159 0 0 0
146 1 17.750964118874272 3.63987485271231 3.5344292927049583 0 0 0
55 1 19.40939607238772 3.182581020888926 1.9179773206905653 0 0 0
182 1 17.630081467113644 1.6483525085354909 1.8649368344618844 0 0 0
150 1 19.21116420379296 1.5853252405475557 3.9889864119676712 0 0 0
24 1 19.65879548077052 0.3254471656827114 1.808006911242736 0 0 0
22 1 19.502791592440055 2.09855296992699 -0.018576513480944357 0 0 0
27 1 22.851847014608353 0.24238236370414512 1.7611437005204174 0 0 0
28 1 21.652473036981398 1.8454026243613786 1.3605154074646058 0 0 0
59 1 22.903859125971792 3.7978082374455324 1.8467609786835975 0 0 0
154 1 22.807360957673605 1.9219404186595455 3.3771983506950196 0 0 0
185 1 20.851744098160733 3.4363773399740154 3.513580039545453 0 0 0
4 1 28.316608796123173 1.9976168622824293 2.2090075556841846 -1 0 0
63 1 24.609008049170935 1.7582593196828742 1.2900439673903767 0 0 0
189 1 24.75218221236773 3.6172349596021336 3.230795606510963 0 0 0
158 1 26.39841803237218 2.054131087626303 3.5905262321656886 0 0 0
36 1 26.52606041804027 3.323788054297031 1.8797997975712226 -1 0 0
29 1 25.03960432890524 0.0824979238404143 0.1564389571732792 0 0 0
2020 1 28.249744631902704 0.886322452571168 0.30983879994931646 -1 1 1
32 1 24.492282688511676 3.6980686441453017 0.16215561285065405 0 0 0
61 1 26.32846699011662 2.1143997166472426 0.08772119184540728 0 0 0
66 1 1.7888069304383427 8.584246080857678 0.11998410254801506 0 0 0
163 1 1.6640612088198392 5.099114710862488 3.1379201177457063 0 0 0
162 1 1.4925629931498936 7.100486715936302 1.8480589283810491 0 0 0
194 1 2.32478720658885 9.109827090757886 3.644586701319758 0 0 0
40 1 3.417534384980513 5.3466693504057 1.7526546006101473 0 0 0
72 1 3.3276931995326824 8.350751622047579 1.6657107596361787 0 0 0
197 1 3.6320970930333307 6.796990432540319 3.747122349541967 0 0 0
193 1 -0.026445180800408648 5.273133501444729 1.4374313829524625 0 0 0
69 1 3.480567254952241 6.842605856869644 0.018884562368982033 0 0 0
166 1 5.362308797378102 5.4535365484303195 3.6225206809781914 0 0 0
44 1 7.256085320124182 4.9240889414823785 1.9690611318456859 0 0 0
71 1 5.413735784696652 6.807413653428967 1.5977588018334294 0 0 0
201 1 6.922641409682668 7.305683041337173 3.558275648039288 0 0 0
76 1 6.8985180692518995 8.693508760920459 1.84382388034666 0 0 0
198 1 5.141135957708842 8.544795828644311 4.237709938948977 0 0 0
70 1 5.116145342186157 8.767515977503555 -0.0461691935724422 0 0 0
48 1 10.301431154726615 5.405298385453222 1.8077036398432875 0 0 0
170 1 8.440138674106674 5.222776862461188 3.7431386264686677 0 0 0
75 1 8.88671385405683 7.1040022515366585 1.8264396607419706 0 0 0
205 1 10.234183455508763 6.796613583437298 3.944592362593145 0 0 0
80 1 10.314463003741109 9.15855812173147 1.6902145890981326 0 0 0
202 1 8.588262194061814 9.057872051269891 3.380703543076078 0 0 0
206 1 12.083086612702521 8.580820803300957 3.776018755420624 0 0 0
74 1 8.467904496900927 9.288575544646745 0.48543833265868785 0 0 0
42 1 8.632866261537483 5.631440404896195 -0.07972405210463755 0 0 0
79 1 12.138499504799311 7.484587130509432 1.8110815706793806 0 0 0
174 1 12.431472294233046 5.56879482027348 3.306842127790029 0 0 0
52 1 14.163532371069858 5.95617223188214 1.4123847215155902 0 0 0
209 1 14.296969943113275 7.023071318811288 3.6299348961168043 0 0 0
84 1 14.089224013690007 8.619285077506614 1.8734533482515603 0 0 0
83 1 16.181341406910317 7.29103363842296 1.9207985559159408 0 0 0
181 1 15.97450546850304 5.430515300961993 3.320597870631618 0 0 0
210 1 15.656661449804945 8.957423609682369 3.590134736851867 0 0 0
46 1 12.570655533930278 5.38702969883688 0.2175657581888158 0 0 0
81 1 13.976088269168532 7.834045767714334 0.009190947939242022 0 0 0
188 1 19.220501262015 5.3750880882168115 3.7477374370221144 0 0 0
56 1 17.973513280139144 5.605835232426024 1.6997419895696693 0 0 0
87 1 19.67201409236151 7.315722212979889 1.695892462812195 0 0 0
213 1 17.669553681084246 7.361745192591449 3.600903349671312 0 0 0
88 1 18.287222876496756 9.044725155157844 1.6375615518973625 0 0 0
214 1 19.638718371015432 8.746968224803137 3.3094988135974064 0 0 0
85 1 18.111507036553643 7.378894070025863 -0.04184596579768513 0 0 0
50 1 16.34083897344879 5.618484440769957 0.39816500599190763 0 0 0
54 1 19.75773714635271 5.3051848463477755 0.131471902463133 0 0 0
58 1 23.08944324902595 5.713295188428793 0.07941111947593313 0 0 0
217 1 21.3344418405488 8.70948095271853 1.6364366564471498 0 0 0
60 1 21.08734269922515 5.148587803466728 1.7654051704866611 0 0 0
186 1 22.562687611881337 5.256646071526608 3.458295774314425 0 0 0
91 1 22.543538084116076 6.959851609355559 1.7875494043998335 0 0 0
218 1 20.948356909033166 6.944818615125869 3.740320534881311 0 0 0
127 1 22.903465487966855 8.623391608074241 3.7856721930721564 0 0 0
96 1 24.322415557887776 8.355467519724114 1.570561554621415 0 0 0
94 1 26.52788738877754 8.981384345869575 0.12484382004352304 0 0 0
68 1 28.383109158144453 8.761898993658438 1.676999746470578 -1 0 0
67 1 28.282340007062082 6.927375033365546 3.523119161993736 -1 0 0
221 1 24.475540388527214 6.860277445941732 3.5302822200215243 0 0 0
64 1 24.659850759085035 5.234381192041384 1.8751999354690483 0 0 0
190 1 26.58422105763066 5.408518882990975 3.3401714400111615 0 0 0
95 1 26.28066955937482 7.194295788673235 1.2037641523195943 0 0 0
222 1 26.204579577476945 8.101754513784002 3.502233320403182 0 0 0
995 1 -0.01341018195005407 10.557368260760649 -0.06775367343929259 0 0 1
101 1 3.88626917500657 10.843318015565421 0.09168340164082298 0 0 0
99 1 1.7571810579901812 10.726747545982194 1.7819834411117441 0 0 0
229 1 3.8433661255688234 10.806843246525943 3.548310453938946 0 0 0
226 1 1.1739142050656464 12.534826813950989 3.422071850588657 0 0 0
104 1 3.3422885902943693 12.57986149059233 1.9824511950243027 0 0 0
1027 1 1.5892259319021687 13.934684869286238 1.677238130721667 0 0 0
1029 1 3.7156894155722475 13.999646794215034 0.12695660791757746 0 0 0
105 1 6.598606997402251 11.042239218221152 0.5862361682497002 0 0 0
1161 1 7.243915017972009 14.100568589185556 3.610714408171955 0 0 0
103 1 4.994328072384886 9.562903972755459 2.193268464889632 0 0 0
108 1 5.792216128923818 11.879353409385391 2.3583645602343615 0 0 0
230 1 4.689141517354951 13.448756822729841 3.828059597788576 0 0 0
233 1 6.936799863815648 10.411914303954314 3.5299712373189798 0 0 0
1031 1 5.4487449415201805 14.023813296057819 1.5484222380719015 0 0 0
107 1 8.444671096941388 11.010798641537308 1.937348839981023 0 0 0
234 1 8.605066907204339 12.118902343255533 4.040152636860749 0 0 0
112 1 10.63871345649177 11.78496745693062 2.072723391647595 0 0 0
237 1 10.282399411496005 10.34578391210926 3.814787131262225 0 0 0
1165 1 10.44421856147147 13.834436535105748 3.1777436746666052 0 0 0
1035 1 8.339799729085318 13.591259110830423 1.7258731689778477 0 0 0
110 1 12.021562059404774 12.524928437795783 0.26585384015159386 0 0 0
1169 1 14.347379979448295 13.65706229614718 3.656305699615835 0 0 0
1039 1 12.258303707299534 13.922911063657892 1.9644684823963532 0 0 0
113 1 14.001964163391438 10.902543717334918 0.11324165302459532 0 0 0
114 1 15.82273664516208 12.288767349609508 0.2598294045707857 0 0 0
238 1 12.198608359422671 12.177428501282755 3.632911976641181 0 0 0
111 1 12.375437144288206 10.090932794824482 1.8466638563604818 0 0 0
116 1 13.927019654178613 12.665962671514244 1.5324565372525898 0 0 0
241 1 13.697781272865509 10.35123957557921 3.5691279819410475 0 0 0
115 1 15.656088829883176 10.415349508618789 1.8981734710242102 0 0 0
242 1 16.55593178823622 12.469077791681524 3.1754864053085106 0 0 0
120 1 17.915872218018272 11.972254117276112 1.3064736903775513 0 0 0
245 1 17.744176238157447 10.476761848128659 3.7659893620944915 0 0 0
246 1 19.640523545965262 12.164238397221233 3.359448168331458 0 0 0
119 1 20.162861766758315 10.572741723886953 1.6230990909529681 0 0 0
1045 1 17.75623407753179 14.140003424250388 0.257975299966477 0 0 0
118 1 19.613079122815343 12.241184826560165 0.19095334003685593 0 0 0
1051 1 23.730234071412838 13.940941213172401 1.712858331867544 0 0 0
249 1 21.471117418978665 10.411619412341807 3.8441049895567923 0 0 0
123 1 22.894975481589018 10.555352353239414 1.959641983668138 0 0 0
124 1 21.461980462528885 12.535245229790489 1.5201005634515368 0 0 0
250 1 23.252302034713257 12.274494803339588 3.659493684926501 0 0 0
1049 1 21.755514907915224 14.139599306618779 0.24554563300369825 0 0 0
1177 1 21.294590914759073 13.790427374298924 3.734912454983607 0 0 0
92 1 21.58893246223898 10.479762213971098 -0.04783129261197024 0 0 0
125 1 24.574781728127316 10.58172448183811 -0.011428866094123871 0 0 0
225 1 28.251143070911418 10.033425406267167 3.7525920051324158 -1 0 0
100 1 28.153480937236278 12.235851266842001 1.652841884829437 -1 0 0
256 1 24.880279544263693 10.355583306501442 3.851396241035108 0 0 0
254 1 24.588224380916387 11.617272772855083 1.874454281967394 0 0 0
97 1 26.382721715800585 10.322067598360206 1.9989248820047356 -1 0 0
1181 1 26.37943554760629 11.973623059627538 3.8580833868835107 0 0 0
1056 1 24.69520391862191 14.134741526700234 3.722156617812988 0 0 0
128 1 26.033266992055093 13.667401612715613 1.5614878117646311 0 0 0
1153 1 27.88202202955559 14.01370956256664 3.475845260191075 -1 0 0
290 1 1.5432004958737313 3.6895622048167906 5.892326855927961 0 0 0
258 1 1.7054166818732608 1.3142856227079969 7.040776012326038 0 0 0
291 1 1.6829127868138916 2.807083881851453 8.865277131827545 0 0 0
136 1 3.454662727466788 1.7691149426937285 5.475801838445705 0 0 0
264 1 3.625968682825161 1.8860180695261926 9.262111852504212 0 0 0
293 1 3.6970034178672555 3.244839137235598 7.247337174497862 0 0 0
132 1 -0.07334075287920072 1.8522076656519781 5.296728794435335 0 0 0
323 1 1.9386185477535225 4.6258482483826615 7.724662521035138 0 0 0
131 1 1.8046554093123157 0.12920447192741807 5.125097205139612 0 0 0
140 1 6.855249948995832 1.7425824109685324 5.331825793307174 0 0 0
167 1 5.274441717080342 3.610412287782315 5.214246969315709 0 0 0
262 1 5.27187964300984 1.3027264631687787 7.19391680568181 0 0 0
297 1 6.869702133626966 3.318727681483956 7.073300457612511 0 0 0
268 1 7.068639227351046 1.5625154459119188 8.779804554126407 0 0 0
295 1 5.535618706482595 3.3034838565785183 8.972282810022906 0 0 0
261 1 4.914099531680453 0.016232332175453126 5.220095475319035 0 0 0
144 1 10.698120131566185 1.6535757451648285 5.28243631297553 0 0 0
266 1 8.831783053520603 1.5142163624558642 6.857259633549577 0 0 0
171 1 8.58972358394818 3.670164315383271 5.651648041227407 0 0 0
301 1 10.182957193188178 3.5520173980813756 7.0764300497953005 0 0 0
299 1 8.93771065851463 3.7294704691626244 8.832203951327928 0 0 0
272 1 10.292331669422342 1.507226039197556 8.687181390042692 0 0 0
304 1 12.107426862104804 4.630336468912644 6.960002049078851 0 0 0
401 1 12.631073711433162 0.1578409923640643 8.773858257431684 0 0 0
175 1 12.612392447978781 1.9546610611487996 6.961958026996788 0 0 0
302 1 12.624341324606993 3.4346248343515016 5.093819161540685 0 0 0
303 1 12.218987742701822 3.5162199709100705 9.089443835835205 0 0 0
148 1 14.220254586578136 1.9684408018506785 5.3382308543406385 0 0 0
305 1 14.482840662464193 3.480920435468948 6.974276850620612 0 0 0
276 1 14.207328739291922 1.8551905793004575 8.598434220540131 0 0 0
274 1 15.900855322026633 3.836836956969345 5.348623362473774 0 0 0
307 1 15.949188530380408 3.9336725066391685 8.599448978688923 0 0 0
143 1 12.618253968869997 0.37105768536741124 5.418943278478243 0 0 0
147 1 15.830575174974877 0.014324983210909997 5.399277870545364 0 0 0
280 1 16.228508092980075 1.6867006546713184 6.953425619434065 0 0 0
152 1 17.481784634789243 2.0701540869401867 5.189227120318758 0 0 0
183 1 19.391563587994522 3.6311931529530925 5.531326152442213 0 0 0
309 1 17.611878128786824 3.5731514440833165 7.168368023772439 0 0 0
313 1 19.815491604299147 3.8977521992303843 8.874323132493672 0 0 0
278 1 19.354015971094036 1.7704968259973308 7.0272549328230065 0 0 0
311 1 17.990528275299805 1.757771835540711 8.87754226753952 0 0 0
156 1 21.218981453795568 1.6925893564263166 5.2624447960769904 0 0 0
160 1 22.70279720470999 3.253949015648007 5.4049514262384335 0 0 0
187 1 21.108221843992926 3.590483250612318 7.036738725609903 0 0 0
282 1 22.926653600487224 1.3496350622377062 6.897877881040782 0 0 0
283 1 22.82805522689563 3.0118037874124846 8.756349081262929 0 0 0
284 1 21.091179143489008 1.4593063801188808 8.279324184262034 0 0 0
314 1 24.362297106834333 3.211564380274471 7.129665324305237 0 0 0
281 1 23.026243920775617 -0.047807004915330964 8.48837058238884 0 0 0
287 1 26.380265541461167 0.3740461483499962 8.318671573120477 0 0 0
289 1 28.166266054266956 3.518373178865185 6.994988684092385 -1 0 0
260 1 28.36160789751154 1.4228397455293875 8.620940008063437 -1 0 0
286 1 24.800336070711865 1.5680342324457779 5.30435897304022 0 0 0
191 1 26.91256560519521 3.877676433835705 5.0089435324476135 0 0 0
317 1 26.96827685838098 3.055752851493579 9.22540672553158 0 0 0
257 1 26.46265388149293 2.033444182387376 6.764920842187952 -1 0 0
288 1 24.544224677328167 1.5102678155049276 8.764625534979599 0 0 0
195 1 1.7180740848134612 6.566377340619879 5.120700401606576 0 0 0
321 1 1.8366306016571705 7.163636733308778 8.5563590363592 0 0 0
325 1 2.9867034810816824 6.515724622205344 6.966322750956916 0 0 0
200 1 3.1798292006243742 8.608320531774831 5.599261161097158 0 0 0
322 1 1.73574836689215 8.510784202940831 7.010799840192948 0 0 0
296 1 3.817190601976882 5.332300528308319 8.983427247977046 0 0 0
328 1 3.3572255863634335 8.952342769314043 8.506525820251966 0 0 0
168 1 3.187772126055968 4.901739121082087 5.178842043674558 0 0 0
223 1 -0.02227398527552557 6.727816297629333 7.7088399918147035 1 0 0
196 1 0.1626697778137628 8.486986120811173 5.460676495061245 0 0 0
164 1 0.07896697287638235 5.321272113494934 5.956442596105922 0 0 0
172 1 7.0039955926467075 5.466431369779119 5.571009160655776 0 0 0
204 1 6.942004247371825 8.717746262384066 5.517999045141996 0 0 0
199 1 5.004408312863288 7.024216499163679 5.84860732302351 0 0 0
294 1 5.0266125097470225 5.174367724933089 7.029107083852894 0 0 0
329 1 6.845269798502807 7.309571765783082 7.197396663060976 0 0 0
327 1 5.203100507975929 7.379125764015832 8.976654825036077 0 0 0
300 1 6.971788916660283 5.104944534476615 8.732922695534931 0 0 0
326 1 5.107011064824929 9.235569622474342 6.993629137066423 0 0 0
208 1 10.584932220720424 8.698745910949942 5.609273325093567 0 0 0
203 1 8.508914977815378 7.073455029042837 5.276062556524439 0 0 0
298 1 8.955297579917568 5.492453715483003 7.286007613960925 0 0 0
176 1 10.751064072534827 4.937604832971172 5.090183253681055 0 0 0
333 1 10.799384109163768 6.658251983497586 7.033930869308962 0 0 0
330 1 8.896737690349715 8.382109056244312 7.1396988251175575 0 0 0
331 1 8.659405291155828 6.77240154853583 9.088543424233965 0 0 0
461 1 10.519349525198152 5.5153728535894055 9.165302915793387 0 0 0
336 1 10.42274879132344 8.622284248910312 8.904225515513549 0 0 0
335 1 12.476562994024153 6.744766271469188 9.144502755398294 0 0 0
180 1 14.124309174941944 5.509053410153328 5.477984584511981 0 0 0
334 1 12.213513224771026 8.620841690728076 7.274693668340999 0 0 0
207 1 12.423940164233755 6.645576747821289 5.590097856937762 0 0 0
308 1 14.18239358033853 4.921956449854971 9.227433260998344 0 0 0
337 1 14.08137233283573 6.731778022548953 7.345287899331364 0 0 0
212 1 13.762755520337562 8.379227136156905 5.479767550756902 0 0 0
306 1 16.09128464412941 5.6286281353031455 7.067891617900796 0 0 0
339 1 16.11150855179341 6.839824864429422 8.927344348913177 0 0 0
178 1 15.715743283455053 7.047374536020107 5.401714441894426 0 0 0
340 1 13.969747574381621 8.606216349597894 9.102687286984295 0 0 0
338 1 15.955039054064368 8.65496153848057 7.34803119536517 0 0 0
312 1 17.892386845047216 5.3898853591280735 9.01277875491339 0 0 0
184 1 17.705482719767016 5.364135597296937 5.483909725890003 0 0 0
310 1 19.56836699348749 5.673425134157521 7.466647396988812 0 0 0
211 1 17.538289204089004 8.909896649533422 5.57587245464034 0 0 0
216 1 19.525204932534866 6.9253436272123094 5.549236242931528 0 0 0
179 1 17.921089593591716 7.202686026538951 7.1862557483323934 0 0 0
342 1 19.5773964693036 8.711039374781148 7.3530039337503075 0 0 0
341 1 17.946416711081486 8.65629030558846 9.12299145092262 0 0 0
343 1 19.76494709941314 7.131790858332502 9.232792711868532 0 0 0
219 1 22.99946587082596 6.642431793111819 5.237165763797079 0 0 0
315 1 22.84802094822258 5.1949275704548175 6.9108757678619055 0 0 0
215 1 21.049903416304172 5.248928410581727 5.2530213385555955 0 0 0
345 1 21.291291069826556 6.840626984148548 7.248111793883332 0 0 0
347 1 23.41991371376259 6.936823342487668 8.536033506124555 0 0 0
346 1 23.12212241506768 8.93111726565112 7.186255895395254 0 0 0
316 1 21.555439526162438 5.3267004542873275 9.188467935456002 0 0 0
220 1 21.339057648973466 8.439932031781357 5.613994935160441 0 0 0
348 1 21.322288370977706 8.933982398703138 8.874198727154466 0 0 0
292 1 28.35624552045483 5.029482705180748 9.066741401487901 -1 0 0
324 1 28.28604615253699 8.8858203522931 8.699846419422231 -1 0 0
318 1 26.318763082263313 5.117788330362286 7.016537535076594 0 0 0
349 1 25.11333208014193 6.833787797002005 6.970775641096685 0 0 0
192 1 24.63254910795355 4.992982649955984 5.118324434613068 0 0 0
253 1 24.39915855139716 8.402733455182556 5.444194750944365 0 0 0
352 1 24.923516321853317 8.641764014345766 8.911629486649922 0 0 0
224 1 26.87123357824102 6.86311345007163 5.500896345895538 0 0 0
351 1 26.565640085087978 7.050675796772398 8.966862874369324 0 0 0
350 1 26.26471815200399 8.765990054830029 7.399125971584794 0 0 0
320 1 24.786507511442302 4.960153043430627 8.606807939369743 0 0 0
227 1 1.9405272012527863 10.779152609468841 5.0518687554183686 0 0 0
354 1 1.7756834014433773 12.520942465329066 7.020904015817623 0 0 0
360 1 3.968571308695486 12.29376531029012 8.929461149429693 0 0 0
355 1 1.5381796691145482 10.637125838023458 8.653969211358039 0 0 0
232 1 3.4285949229315293 12.45088916485091 5.410559023476014 0 0 0
357 1 3.1810145929809375 11.002297939550598 7.15154833487943 0 0 0
353 1 0.06355370796584953 10.578463071801776 6.544279963659644 0 0 0
236 1 6.711525413865811 12.281867287610817 5.424370044384445 0 0 0
231 1 5.138465842663257 10.705021019092854 5.306424757221837 0 0 0
361 1 7.08071353899419 10.424917034826146 7.453965826801861 0 0 0
1285 1 5.519599859521206 11.73816206823966 7.417731108520643 0 0 0
359 1 5.341190634895519 10.509281690217689 9.056243803740246 0 0 0
364 1 7.5247917427973965 12.738255020254082 9.055847984618007 0 0 0
1289 1 7.131056690059696 13.641225648228524 6.93979170728453 0 0 0
235 1 8.66386501352783 10.42533373141459 5.472973411405323 0 0 0
240 1 10.803825787491805 12.379145811286277 5.5334953518459145 0 0 0
362 1 8.590710582570946 12.330481660022642 7.063181450778058 0 0 0
365 1 10.412301071927919 10.413938362772212 7.070150316436933 0 0 0
363 1 8.75561910644467 10.515281272358775 9.133347864439793 0 0 0
368 1 10.463201672083033 12.384115350433829 8.768712867339755 0 0 0
367 1 12.0347828015327 10.517824564253392 8.758712941520168 0 0 0
239 1 12.092651238842837 10.356481151081686 5.616480470019438 0 0 0
1293 1 10.767771396772348 14.035165730999356 7.107983878939717 0 0 0
244 1 12.332999857613368 14.126531771203714 5.324165743061895 0 0 0
1298 1 15.665254751906339 14.053314774749596 8.645137518238371 0 0 0
366 1 12.693679873530261 12.22104963209308 6.841528721275292 0 0 0
243 1 14.507957124447714 11.803642475857625 5.317181084113042 0 0 0
369 1 14.05741881512566 10.368776088685351 7.348379264948638 0 0 0
372 1 13.744978454529955 11.75061629981128 8.779768803923847 0 0 0
370 1 15.652766626623396 12.318603617640212 7.063872445291291 0 0 0
373 1 16.000925547281778 10.283469487733745 5.649775428169515 0 0 0
371 1 15.887929950127061 10.515143546457423 9.32152754257517 0 0 0
1295 1 12.625095250466345 13.78563642567317 8.803586745398972 0 0 0
1297 1 13.876296526983577 14.101424690869917 7.235483730514399 0 0 0
1175 1 19.461148595181708 13.394789618181012 5.231926494899196 0 0 0
1301 1 17.438407228768025 14.119695414944507 7.163585403473595 0 0 0
247 1 19.546095043573498 10.733570149594838 5.443479306812265 0 0 0
248 1 17.077505629135672 12.470330155157464 5.276826308438207 0 0 0
375 1 17.684249690090457 10.296033733496458 7.301246193900366 0 0 0
376 1 17.500042787665286 12.261390443419517 9.043129952047739 0 0 0
374 1 19.162738613170937 12.351722068606705 7.38882154028227 0 0 0
380 1 19.306179411354616 10.67160789541439 9.090403753566772 0 0 0
1180 1 20.997642957892722 14.086633759751335 7.600498308252943 0 0 0
251 1 22.969286708206123 10.542033356607549 5.683272895816308 0 0 0
252 1 21.306946686546407 12.423681954721122 5.905843651890354 0 0 0
379 1 23.069077920620956 10.512199957778163 9.28234983020992 0 0 0
377 1 21.300852248120933 10.48461607479445 7.04755419481189 0 0 0
1309 1 23.048411990096437 12.410543637201306 7.651161323496484 0 0 0
1305 1 21.1139798788295 12.310208221173397 8.882683218243233 0 0 0
1179 1 23.19240914970897 14.16623451999499 5.461419281263684 0 0 0
1183 1 26.185373247912167 13.975438363057977 5.439105823592415 0 0 0
356 1 28.353268434112515 14.092346611839188 7.203433738722018 -1 0 0
482 1 28.347748773846924 12.355991750820955 8.80114238110328 -1 0 0
228 1 28.291718685827284 12.308014724022918 5.189399500114729 -1 0 0
384 1 25.208719775544903 12.238863693644662 9.056261888316845 0 0 0
378 1 24.63933364610059 12.306884437255873 5.701175460951934 0 0 0
255 1 26.418994314898463 10.396324866709525 5.675537982448346 0 0 0
381 1 24.780562298246824 10.381642304791246 7.358401579435697 0 0 0
383 1 26.890536051775342 10.636072448120464 8.951746768965977 0 0 0
382 1 26.65016632340983 12.172019098304036 7.144882866246548 0 0 0
1311 1 26.695664494668446 14.10206670023039 8.936983982872597 0 0 0
1469 1 24.697911453956085 14.002473094359427 7.322219661229424 0 0 0
386 1 1.249489345103169 1.4156720683135684 10.811927318556897 0 0 0
548 1 2.029135010265461 3.1431712232505813 12.219573877526418 0 0 0
546 1 3.2678297113559682 1.6038627108669834 12.365312628179838 0 0 0
421 1 3.8523756684115873 3.8868043441866305 10.58477382521871 0 0 0
549 1 3.4531150659805157 3.3097529592315267 14.139168415902091 0 0 0
514 1 1.9620178087053195 1.4090946499429633 14.117215425997365 0 0 0
392 1 5.373716163306313 1.4430372408102654 13.924360016271285 0 0 0
390 1 5.692747766401282 1.8293180401410398 10.6355308963943 0 0 0
423 1 5.368039864117578 3.272929126923341 12.61231249688898 0 0 0
425 1 7.1075356447254805 3.2964005915428083 10.973841002403612 0 0 0
394 1 7.13366441204279 1.470763168278739 12.45582475341525 0 0 0
396 1 7.26209508136724 3.148970495718038 14.073283491103409 0 0 0
397 1 10.931497406782858 0.149543468951945 10.49848514115316 0 0 0
1642 1 8.899760544642705 0.2785289440941625 12.19162475406572 0 1 0
395 1 8.972059263077785 1.7735455482268283 10.338593325443787 0 0 0
427 1 9.311503436673128 3.064671853694448 12.293178464926827 0 0 0
400 1 10.848839768820598 1.3822612039879947 12.42117332507792 0 0 0
429 1 10.717211782379188 3.477521823336728 10.464120875536251 0 0 0
1518 1 11.117879507047697 -0.07336952216459838 14.01685387037252 0 1 0
557 1 10.751854836013433 3.286064019867768 14.14041886190542 0 0 0
398 1 12.663255710791214 1.470905913331594 10.776152542366054 0 0 0
436 1 12.226389648305002 3.294310052478778 12.464246501253381 0 0 0
431 1 14.277760704037906 3.5170435710455346 11.0880454498091 0 0 0
526 1 14.354610362631881 1.6477970723754904 12.694482013296392 0 0 0
404 1 16.108036704124242 3.0078985681181982 12.38737200777062 0 0 0
402 1 15.670345479451713 1.6799599645298553 10.311871221032385 0 0 0
403 1 16.149111780287768 0.30277388616947354 13.035437615397557 0 0 0
534 1 19.507685161043216 1.906366683989198 13.91024087267565 0 0 0
406 1 19.618063472055475 1.8952803594773093 10.292480446936638 0 0 0
408 1 17.831594560632333 1.3992848131546958 12.641939115602558 0 0 0
440 1 17.658203840441416 3.355024843931365 10.418287158030234 0 0 0
439 1 19.006949114951745 3.4853905936316316 12.348506276509053 0 0 0
405 1 18.179678720463606 0.355509166489055 10.846453565838646 0 0 0
565 1 17.74146844983988 3.8376037842526296 14.004313950648896 0 0 0
410 1 22.85803867675494 1.4373428722610202 10.474156998200096 0 0 0
412 1 21.51363008770307 1.526365369333974 12.417175450974081 0 0 0
438 1 20.89732426013411 3.6147671154023313 10.878531806683316 0 0 0
445 1 23.145295737910647 3.1928391013682216 12.328493790730413 0 0 0
388 1 28.272298031336675 1.1296818589536928 12.562575475846984 -1 0 0
545 1 28.084368250005436 3.4890108786270484 13.630749265674739 -1 0 0
419 1 28.206770624241322 2.935490791792874 10.940393039312253 -1 0 0
414 1 24.410924380354388 0.959898429327602 12.65284897149395 0 0 0
446 1 24.80757158006367 3.0219327934550924 10.505208652637805 0 0 0
319 1 26.410203939238762 1.4063708220858129 11.231207940780662 0 0 0
447 1 25.94806652101128 2.8912142830168532 12.656103583722025 0 0 0
417 1 26.250005547813974 4.613776201619757 10.429915086975162 -1 0 0
578 1 1.6425234937001958 8.743831280079641 14.085350672529659 0 0 0
418 1 1.7059423901266662 5.0368876482395555 10.301356597224073 0 0 0
450 1 1.3678848444249967 8.59979280679954 10.273571145738503 0 0 0
451 1 1.6898499148009132 7.143299511085828 12.557221836511102 0 0 0
424 1 3.2414539809093506 5.0782184863208055 12.204148179271536 0 0 0
453 1 3.3822842542227107 7.238252437440786 10.456773543104207 0 0 0
456 1 3.457321440119264 8.635827858579711 12.434854425453063 0 0 0
420 1 0.7048609874024113 5.052783109538329 12.29741379213328 0 0 0
449 1 0.09409633084999669 6.950365153463554 10.416107655381698 0 0 0
581 1 3.799800021446793 7.3428239805116995 14.172444302953839 0 0 0
582 1 5.291720617036678 9.08870406247279 13.95054673454641 0 0 0
556 1 6.664215134387146 6.983926346192791 14.142066488226499 0 0 0
332 1 7.00436027226908 8.564262770905012 9.58826503826895 0 0 0
428 1 7.415455396259134 5.193045445755459 12.40382158144922 0 0 0
422 1 5.366067561260451 5.378547077341933 10.585297461836081 0 0 0
455 1 5.11650067467632 6.211780402445943 12.47975328419665 0 0 0
457 1 7.43425827528581 6.775870940121041 10.789448563288008 0 0 0
454 1 5.2046649543755 8.461200605771321 11.183892935249803 0 0 0
460 1 6.978729804856339 8.586473689920654 12.508562427543417 0 0 0
585 1 8.429903248019837 7.142331106659694 12.857723324170724 0 0 0
426 1 9.17919980594875 5.2832391162406855 10.875672877754102 0 0 0
432 1 10.732014948343071 5.339045881975696 13.091812919287772 0 0 0
459 1 10.219237991387525 7.262279518780512 11.103069258459254 0 0 0
458 1 8.850772028896984 8.868989977470283 11.033859501425383 0 0 0
464 1 10.672541091461374 8.732941162350784 12.856512570427105 0 0 0
462 1 12.07445534956163 8.507348354479008 11.065369709905466 0 0 0
463 1 12.40518890473515 6.946420909372822 12.996303394192 0 0 0
430 1 12.300191409299819 5.389230431001264 11.18609371829986 0 0 0
468 1 13.811312450637816 8.792383841182977 12.546186736429574 0 0 0
435 1 14.151618691701401 4.893412990491707 12.798436293555794 0 0 0
465 1 14.010321277970462 6.970473713287455 10.841677565941087 0 0 0
433 1 15.972613929958953 5.004322636755935 10.892174817530208 0 0 0
467 1 15.879194466516811 6.820935702236032 12.376277959132526 0 0 0
466 1 15.938739258375648 8.459514111112295 10.95584239736586 0 0 0
566 1 19.355804946907305 5.512103915688151 14.118447798880897 0 0 0