LAMMPS data file via write_data, version 29 Oct 2020, timestep = 300000

2048 atoms
1 atom types

-0.321208867006046 28.673208867002764 xlo xhi
-0.321208867006046 28.673208867002764 ylo yhi
-0.321208867006046 28.673208867002764 zlo zhi

Masses

1 58.933

Atoms # atomic

1845 1 3.139607631837299 3.3233306822800857 1.1345599912667603 0 1 1
1260 1 13.066384196434559 1.4462881849067226 11.547596363377991 -1 1 -1
874 1 1.532162003643574 2.513749056974015 2.638655149546077 0 1 0
1693 1 26.404489818986583 3.981220082378795 0.9136519179301845 -1 1 1
526 1 1.9797764566355354 5.25639963095628 0.7111601130847094 1 0 1
1523 1 0.3376065991311419 4.3351495908811835 3.5834520905113734 2 0 0
1576 1 25.082006538462128 10.918352773646756 12.942677902680092 0 0 1
746 1 4.496424547700021 5.462725885558635 2.340728348805076 0 0 2
602 1 0.1336604891845975 0.36230122677906007 3.3646436398768063 0 1 1
665 1 6.12265714365815 1.8678325854681312 1.2766027356426262 0 1 0
220 1 4.280291022508102 0.7863934286191638 2.22198300395137 0 0 0
840 1 7.9202745369150165 2.2949557462481645 3.4956901717990396 -1 -1 0
179 1 7.03829499421287 5.683845681239283 1.7542761668244014 0 -1 0
634 1 27.328994316620918 13.292649868149887 1.0749449467192638 -1 -1 1
484 1 7.582437038880937 3.5864251424905302 1.3342173811644547 0 -1 0
1333 1 5.08318873268119 4.2823554157816295 0.3758966477801623 0 0 -1
1079 1 4.058913127380534 2.980273992658107 3.2640387778207414 0 0 1
1213 1 6.636038432844166 2.582317200783769 5.567294652102634 0 0 0
1078 1 9.836709241315136 3.0760213952649265 2.3812216778424653 0 1 -1
14 1 9.69668005925568 1.7813976585570583 0.7050025288917028 0 1 -1
1009 1 12.031964348780244 4.298744221526895 2.32920805349704 0 0 1
45 1 11.818074505642501 1.7069168655641236 3.549580868430764 0 0 0
325 1 11.59416115809478 0.46141111851321626 0.9860893159364603 0 1 0
1172 1 22.200869241666613 13.983124648753446 6.662013938681551 0 0 0
1564 1 5.963488490516832 -0.12651312809939527 -0.061570827137614914 1 1 1
1671 1 15.084024575971839 1.7033092763765656 5.401130896740596 0 1 0
488 1 11.962778980287878 2.769635539746113 0.22811427547206875 0 0 0
1057 1 11.734721896749122 0.04569973734885008 5.6330880095573255 -1 1 0
1926 1 15.373204553176954 0.45259786312881656 3.3636546385889172 -1 1 2
1296 1 6.293989810018197 0.2395719954165081 2.795503073855736 -1 1 -1
615 1 23.970092378195524 -0.17184407284715192 4.900913924620296 -1 0 0
1921 1 14.351590554633429 13.97597497268887 8.093598589788142 1 -1 0
1398 1 8.284456307429966 13.871966008381328 8.763972041275302 -1 1 0
124 1 17.578604292894966 0.9612106491692876 2.3984355850557098 0 -1 0
1062 1 19.728697569802435 2.4893209224405366 1.1659027618057787 0 0 0
848 1 17.909138247770397 3.3799141739396728 2.2085886987408956 -1 -1 1
925 1 21.398189770554485 4.918974241829251 3.009617139798218 -1 0 0
970 1 15.421557400355253 0.7788623303228523 0.3882337912700141 -1 0 0
1776 1 21.13150221225205 0.6784308712886483 1.062535762066896 0 1 2
1121 1 19.29559831280155 3.928677647325496 4.58674316836673 1 1 -2
133 1 22.438442773032506 3.60723532797895 1.7407793463688774 0 -1 -1
1586 1 23.152118488160877 1.5627937744137261 2.2365494277352083 0 1 0
1 1 21.16337267914327 0.7678337712962964 4.626405954788131 0 1 0
2008 1 20.30936685775835 2.4996614271371005 3.12355961461365 -1 1 1
1768 1 0.012922691484433979 0.5254909660327937 0.946316534001568 -1 2 1
1512 1 23.53903949754826 2.0242302226496567 4.30674573200226 -1 1 1
1160 1 2.3017269783988388 -0.20913943602932716 3.470044190896957 -2 2 0
507 1 23.510703403389357 4.258877962856004 4.443065035541135 -1 -1 0
1401 1 12.630103883538572 13.340549896790037 2.9842633421372162 0 0 0
680 1 13.225864642881383 0.383570328620888 13.788131021820359 1 0 0
1041 1 4.4048083498595885 13.210114646918345 12.730470199313581 0 -1 1
648 1 25.210051368977226 1.9651587006090403 0.7716878627830981 -1 0 1
1627 1 27.734835354277195 2.2097998728889947 2.0427364200248332 0 1 0
1878 1 25.476075893511567 1.2094638234029644 2.7848660734545154 0 0 0
1125 1 26.43075051844937 -0.016596228884409092 0.18793414584126789 0 1 1
360 1 19.401794559264992 4.723696552991507 1.4734335180268519 0 0 0
1169 1 -0.07396811291280542 4.77858510349706 1.378961874588361 0 1 -1
1712 1 19.147724319746725 14.17029694654962 8.725728760705463 0 0 1
581 1 9.867322353018778 0.4604227748541002 2.5019220274787632 0 0 1
152 1 1.2806916453824693 8.710759783212513 2.182765828353169 0 -1 -1
278 1 0.475892191576578 10.174820004387183 0.38597083403474486 0 1 -1
1762 1 5.444629044484422 8.030164210714819 1.4836970863006411 -1 0 1
1433 1 6.973846178433758 8.911651816240171 -0.11463363376909941 1 1 0
528 1 9.437229081435152 14.127439332003336 6.503289502852421 0 0 1
1205 1 6.631344258215641 6.506340298563564 3.9016863316934094 -1 0 0
1369 1 7.044641704998919 9.61389988061936 2.549446252277087 0 1 -1
1316 1 4.757954476555523 7.501534726802987 3.6260744024797926 -1 0 0
885 1 8.223212573782734 7.581355551820611 1.7377903621291821 1 -1 0
217 1 14.646168859101781 6.161068757855654 0.6193252932678022 0 0 0
82 1 10.701748094044644 5.212440230974829 4.170190052005708 1 0 -1
354 1 9.815844555713298 5.507173431186319 1.5846380691009205 -1 1 0
1081 1 5.150137057413449 6.40833054245409 13.36342407672746 1 0 1
620 1 12.095784706057733 6.020261129672647 0.8786169303163671 0 0 0
814 1 11.652807611007034 7.49454147028026 4.738363743786808 -1 0 2
1117 1 11.231976690235529 7.322069291044252 2.6903128046207687 0 0 -1
1772 1 2.181895115798924 0.7628687545411135 1.1899581675121285 0 0 1
53 1 1.530784015282174 0.9783254917468811 7.243315288332805 1 1 -2
1001 1 -0.038390787233271995 0.026384024781128446 5.812055349359317 1 0 1
1021 1 13.842542810446545 4.199718535425521 1.1341913193075752 1 -1 0
549 1 16.433911177225667 4.52900487109542 4.026506395992904 1 0 1
2036 1 15.758115281455165 2.4795539045765604 1.6786788735979894 0 0 2
745 1 13.376086998912639 7.142453046581152 3.2341894449258644 0 0 0
98 1 13.608770631319425 8.39027294218347 1.0173678831651694 -1 0 0
87 1 14.917805106244586 7.235808231863702 5.2630114676994975 -1 0 -2
296 1 16.365825187649772 8.857566704925494 1.492761115755553 -1 0 0
1442 1 12.563605387457944 9.179809134850691 3.689396373177382 -1 0 -1
1324 1 14.36117585092999 5.4276684689419055 3.4418623138405557 0 0 0
75 1 22.36966275614586 12.964649354734497 12.761294408905357 1 -1 -1
1330 1 18.479158370083418 6.985627219020521 1.0100684432745446 -2 2 1
11 1 19.342890090288883 8.242746691502507 3.0052339355857978 -1 0 0
763 1 16.330693585407968 4.673877018351106 0.844096854832922 0 0 0
1757 1 16.172977647773955 6.330725473951425 2.3670951112553666 1 1 0
797 1 19.14700727188181 8.770187606210161 5.357724724753876 0 0 0
1984 1 18.19873027985685 5.506949318923308 3.21945113748768 0 -1 0
1621 1 20.19913557501057 6.609338927722236 4.580927329104332 -1 0 1
1434 1 24.129849784283554 4.756893898197461 0.4605477680799118 0 1 1
1066 1 21.6707081225039 5.890942815852888 0.6148653767734233 -1 1 1
1520 1 24.82926224276301 6.021525123728999 2.6461781664881587 0 1 0
1151 1 21.793325943619973 7.352113567577576 3.0338246926287336 0 0 -1
765 1 23.132006867221303 7.83314184487736 1.0792136573852549 1 -1 0
1030 1 17.916216141903966 13.895743183147369 11.045835841252327 0 2 0
2045 1 24.96891732948637 3.5703938660163383 2.5519220142730044 -1 1 0
1466 1 24.70336762489444 9.607024274750053 0.40584632968774415 0 0 2
1582 1 27.82165304002794 8.975878436004388 2.556411277727902 0 1 0
403 1 0.7609466044957371 6.997026851920279 1.048614656204941 2 0 0
802 1 27.189516024350347 5.867012729791237 2.134625160355013 -1 0 0
250 1 26.187300916894863 13.991344120651554 10.045504224680215 -1 0 0
1176 1 25.1831207892177 7.203140851454171 0.4193024412314388 1 0 1
268 1 27.876165670758652 8.952017131363121 4.95647807563328 0 0 1
1913 1 16.53943885188537 11.767086775899504 0.5154036882198404 0 0 0
1604 1 23.1536599162964 13.072549072356571 8.779713070006085 -1 0 0
369 1 2.2515283084980164 10.870400815381712 1.8414184710214911 1 0 -1
1998 1 3.6132468082308344 9.720060383140337 3.2712144203421545 1 1 0
1679 1 0.2587678602359168 10.689459313168959 3.3102864528098612 0 -1 1
862 1 0.08955696866557455 12.643244605683782 2.634516660716254 2 1 -1
1748 1 28.408568614460723 11.2437543611167 5.468842207851742 0 0 0
1143 1 0.6214858381775318 13.709583564762802 6.266913730082193 0 0 0
330 1 2.035852482466521 12.101762454907275 4.173741156326169 0 0 0
612 1 3.253163767799643 10.015906790294796 -0.19141114722704272 0 1 1
1322 1 5.217154439903867 10.119368899923046 0.7411679355291463 0 0 0
2012 1 6.8858010898435875 11.41789441452825 0.5553765337815242 1 1 1
993 1 5.749688247305617 11.694950171760365 3.1431445789942076 0 1 1
1602 1 26.799660997761297 9.155798838788558 -0.24912205942378493 -1 0 0
1243 1 4.016101210263192 11.29474164494507 5.333838475168451 0 0 -1
338 1 5.5826204788909575 9.308593456380683 5.538456047697901 0 1 0
395 1 8.635235400045442 11.732748018857839 3.2756848108266268 0 -2 0
1321 1 4.520113980351019 12.32363299965339 1.051692302875272 0 0 0
137 1 19.535062612695143 12.366912242109068 12.810138124689496 -1 0 -1
1958 1 10.581419604241873 8.10585988513916 0.3111060895942793 -1 1 1
2047 1 9.66022422189819 11.946353207600355 1.048084751444933 2 1 0
629 1 11.670380491693898 9.996430214926649 1.7528984581177607 1 0 -1
1015 1 12.129861174683299 12.029306102070121 0.759003050529683 -2 0 3
2014 1 10.334078830096189 13.437628875603982 2.830487803367749 0 0 1
332 1 7.0669333332485005 13.852627767092384 6.123947151930567 0 -1 -1
1435 1 0.3432660732780912 11.043506289672923 13.790855026510005 1 1 0
1774 1 2.955093684410219 13.623574444307351 7.786068656759939 0 -1 0
1974 1 17.66118979505221 9.585184225091014 3.737077335212752 0 0 2
790 1 25.38142184234572 0.2880250512536058 10.812549355024418 1 -1 0
728 1 11.509950861391264 11.544680984509819 3.5244227106734884 -2 1 1
1350 1 14.46487282895671 12.482565371999899 3.8809826109300625 0 -1 -1
999 1 14.243804033165386 10.38510674307829 0.05163188332614693 0 1 0
1940 1 15.499061498598065 8.824233154321764 3.4767633621024943 1 0 1
617 1 13.879701038855535 10.679727939747048 2.823475676614121 1 0 0
940 1 16.62201038620466 11.619328439065052 4.736135677682636 0 1 0
415 1 18.538156770409298 9.25027091136644 1.109294529386239 0 -1 1
903 1 20.486874906403575 7.6468889521579655 0.46279084238528334 0 -1 0
161 1 19.092978964592817 11.135207363292148 4.796458668594221 0 -2 -1
1673 1 21.04991093550096 11.33605843273484 1.213364469252183 0 -1 1
1116 1 18.155405286510867 11.782744417028649 2.3234053586420034 0 1 -1
556 1 21.468826563193034 13.767033714283041 0.6275159099054046 0 -1 1
1186 1 16.025136072339155 10.898049218719551 2.5788228349114233 0 0 -1
859 1 26.42344906972121 11.825584173193432 11.385403302104676 0 0 0
1142 1 20.834838513511734 9.635742633237372 2.826072673222958 -1 1 0
1012 1 23.963310032694235 8.264665597271502 3.5487246836022934 -1 1 1
1060 1 22.904078515238123 9.88816382844199 1.6022735198803493 -1 2 1
1346 1 23.293022081773653 11.950426538419437 0.3091630236754228 -1 1 0
9 1 22.943342362572707 11.697260266726174 2.8211099591027415 1 0 0
157 1 4.778485122220752 0.9400684818218672 12.146482403977112 0 -1 -2
608 1 24.856756171396203 12.119831498271218 4.301056551515216 0 -1 0
1416 1 20.657464014658046 12.867343583662993 3.159558365710968 -2 -1 0
73 1 14.405512648947997 12.227243739356288 1.3488428848153406 -1 0 -1
535 1 25.510422171655023 11.837699597424692 1.7607200253794382 -1 1 -1
658 1 26.961027397690014 11.350355259005966 3.677544523614757 0 -1 0
95 1 23.262001352130433 10.440342525156716 4.625208750948376 0 0 0
919 1 25.76899880254405 12.799138062972126 5.980140357038805 0 0 1
1539 1 25.020242982910016 10.021364732035083 2.5584000120291526 -1 0 1
260 1 23.75310695078106 6.325149443175655 13.487138583683826 -1 -1 0
725 1 27.83053410629327 11.073330683325223 1.5169716325292735 0 0 1
1102 1 27.718309490625895 0.37558310736904044 7.463072925413075 0 2 0
983 1 2.7273298554819467 3.6132526585827147 5.264536931546081 1 0 0
168 1 15.296897640804824 14.073362262115348 5.347394847073835 0 -1 0
1713 1 -0.16813189534614786 1.950345102427785 8.615707960310248 0 0 -1
282 1 0.7667992431890134 3.0151956652976843 6.6065215921980345 0 -2 1
229 1 3.540512178068794 2.407384213899911 7.731164578043991 -3 0 0
1731 1 27.990592607075232 -0.003102685467567201 9.91076679902573 0 1 0
1506 1 25.699300288808804 12.97067015150545 13.373870988404677 -1 1 0
1006 1 6.044283645554741 3.5838970433606514 2.960422258822841 1 0 1
1425 1 10.332846507043213 1.4037799561091109 13.309294894354856 0 0 -2
1982 1 4.558454301962781 2.5298418238897207 5.872976082190349 0 2 0
661 1 2.5574677004506916 1.5221103117611556 5.157594770650543 -1 0 1
1032 1 8.890061534158646 9.613175215740196 0.9886784618983002 -1 1 0
1566 1 4.5961728482842075 -0.1486938763870649 5.500327121425906 1 0 0
380 1 14.773366541982641 -0.29802690525507175 6.539932055481015 1 1 0
694 1 6.613478234439125 0.17665004329745904 10.78084949099196 1 0 1
135 1 25.215067065218978 1.2916160307862428 6.974470002987008 -1 0 0
1358 1 8.104959739387114 0.9228258191623009 8.904761400704992 0 1 0
136 1 10.637539566722518 1.797492599692617 6.517927496961452 1 0 2
1687 1 9.69092312623197 1.3157636536443356 4.608535612264187 0 0 1
104 1 8.084118558247603 2.4929594160768627 7.175053938802027 0 -1 0
1028 1 14.845163398497414 6.9889090608459306 13.327243692185293 0 0 -1
1019 1 8.203174451917043 4.660895152106175 3.3469544604402803 1 0 0
504 1 9.489812580714412 3.6217505789200777 5.329860325177758 -1 1 -1
1765 1 12.828346370430593 1.2347060561026175 7.6280094644863805 -1 1 1
142 1 16.791757886272464 3.579193962613118 6.371269035696474 0 1 1
1202 1 12.608721970892576 3.113289779871985 5.35017201494118 2 2 0
253 1 15.244881946257477 2.1645821569251225 7.595994959761582 2 0 -1
429 1 11.906271218858402 4.407668571357714 7.341349725843235 0 0 0
48 1 14.606479141072631 2.4475378127780805 10.069604329377967 -1 0 0
852 1 12.429432346578649 2.8559639242516157 9.277410734825233 1 1 1
1737 1 3.4149140705924768 13.99018947599825 5.1932164001506695 -1 -1 0
1042 1 20.772919913796283 12.328850725974165 7.9994584941874916 0 1 0
712 1 23.1637031736177 0.27163916324945725 0.4083401204106182 -1 1 1
1343 1 18.558315386719027 1.7531460041717346 4.548409237367034 1 0 1
12 1 19.76475443926523 2.49889972609833 6.527484883901474 0 0 -1
435 1 16.68510781663186 2.296123388964814 4.0044976328501765 0 2 0
913 1 18.679099833255933 1.5008399481290744 9.614503733199504 1 -1 1
281 1 18.2739922693175 13.489024980094865 3.9041883175904095 0 -1 -1
1624 1 18.066362467554335 5.277223025192767 8.11267856810106 0 1 0
1769 1 17.246489134055416 1.3221701724986594 6.410565063389946 -2 1 1
1318 1 21.633375361338484 3.76004247700644 5.412723945302695 1 0 1
1437 1 20.89868326551487 0.7840041131262045 7.217941025410072 0 1 0
1617 1 21.430604101580123 1.5163804030037327 9.417236048438943 -1 -1 0
536 1 24.94472571406739 3.3037417001469493 8.167460465374434 -1 -1 1
463 1 25.42759221413117 3.3939975033125487 5.67140127701963 0 0 0
545 1 11.045164526056126 -0.24849360982096094 8.230147229143896 0 1 1
930 1 23.770908665017824 1.1532253291438321 9.018072817265786 0 0 2
286 1 22.81660998392744 1.923284762196809 6.6874368915205915 1 -1 -1
1091 1 -0.3123403533641458 2.098545820093442 4.717235586974814 1 1 1
1334 1 27.085576025382167 2.9578163035096567 7.1369453995946 0 1 0
8 1 26.70394566987834 2.419138603324639 4.35445761957639 -1 0 -1
771 1 26.686487416319963 4.574659651372522 3.8047383742391094 -1 -2 1
7 1 26.141799051258648 5.558953603925695 7.094641341776361 0 -1 0
858 1 27.153908543903416 4.513464958169394 8.692247217581736 0 1 1
414 1 25.80443632956159 2.402721471926098 9.91051197130329 -1 0 0
1903 1 2.2284306002574468 5.022466245184568 7.20095826699355 -1 1 1
1522 1 2.6303378830679867 4.751989707331456 2.8641556841177653 -1 0 0
1204 1 0.3252800317344011 6.032356227397594 7.405222913213049 1 1 0
1526 1 2.489396542440482 6.896883203081946 3.325880792467086 1 1 -1
1189 1 2.303202854172873 7.148596805299447 7.8586000593804926 0 0 -1
915 1 1.8174258805896009 5.752622522376904 5.143642560180642 1 -1 0
62 1 0.8577543382678263 8.236203881537302 5.427579839560492 1 -1 -1
515 1 1.3017359081720836 3.4741454560331637 8.926899130706248 0 -1 0
869 1 1.773744101803159 5.999647775036394 9.883470610133385 0 1 0
1140 1 1.1007998068255735 8.472848987599734 9.218014946184132 0 0 1
26 1 6.862858784821674 5.013644468417112 5.444564653309729 1 -1 0
1663 1 4.335499012040762 5.0725130526336955 4.643134812985876 1 1 0
1537 1 3.42828710856837 7.944747423610766 0.8594864722292501 -1 0 0
584 1 4.965246766382316 8.797595406775217 7.8061588340171415 0 0 1
1402 1 7.686161990732328 4.605280367202467 7.958045575362291 0 2 1
522 1 8.32402503341274 9.032867181482821 4.4165931006892745 0 0 0
1895 1 4.51507200299316 6.4583957110778885 6.685545370482055 0 0 1
1579 1 7.062380082081666 7.341339847537803 6.059516048814916 1 1 0
562 1 6.332198392803761 6.389569645023691 8.21189484652328 0 -1 0
151 1 8.025358613776808 8.263767196154213 8.690154453589443 0 -1 1
162 1 10.186603355413693 9.159075546701272 3.532537369279101 0 0 -1
1421 1 11.232118585849046 6.351984838489773 6.790831572863907 1 1 0
24 1 11.921592462144154 8.186271477271458 8.065443408986898 1 0 -1
1499 1 8.851688979944036 6.669063360713561 3.8563136264812643 0 1 0
1904 1 11.91319807451002 10.594170604985644 9.559929431101652 0 0 1
1756 1 10.828859988033532 9.660267548886264 5.731966839679336 1 1 1
417 1 9.160036817792268 6.084655876184166 6.729855298563501 -1 0 0
149 1 13.16440954507581 8.732435042618047 6.185536827783174 0 1 -1
805 1 9.56387718562965 8.121041508994344 6.450065210273333 0 -1 0
662 1 8.112253706469266 11.890715037948864 7.543050711544017 0 0 0
1179 1 10.03937826276397 6.729477269074531 8.777318663991512 1 0 0
1277 1 12.545423649606104 5.385781385389576 4.949057758798764 0 2 -1
450 1 12.59883589954865 6.250979946897889 8.918584577375672 0 0 -1
1920 1 13.36290241275445 6.311042293933844 6.801843736244669 1 1 -1
59 1 13.997236361929371 4.415229660809047 8.252465752613954 0 0 -1
1542 1 13.368931104244293 10.37902588130461 7.479563224024568 -1 0 0
943 1 14.94383866899065 10.178927602342275 5.447879257449527 0 -1 1
1792 1 14.76262084201828 4.354970276663568 5.642643266159625 0 1 1
1155 1 15.195595254854501 8.18647149079644 7.4708036370437085 0 -1 0
1323 1 20.229138955520188 5.207860102776766 6.567536922016738 0 0 1
888 1 17.270051585706337 7.270024241700982 4.080411318127129 0 0 0
128 1 14.054546074152935 3.373812247348754 3.0902622522485235 0 0 0
283 1 19.39278597901736 3.4644921337268064 8.576134914796876 0 -1 -1
757 1 18.16830388930916 7.170695476646846 6.877719202632566 -1 0 1
1501 1 15.752175998814664 5.860289033223675 7.444375497222871 1 1 0
997 1 19.384675834088586 8.246866150932666 8.461599970229464 0 1 0
1961 1 17.499907247796294 5.472846759407414 5.723336329636864 -1 0 0
183 1 24.761835596087842 5.753985150178174 5.283497584604698 0 0 0
1939 1 21.534108567094798 8.639111730294562 4.966096904485688 0 0 0
1563 1 23.43228579561207 4.175697426041152 6.913047871880039 0 0 0
1874 1 22.498316683526593 8.727086923744858 8.402470823525142 0 0 0
1390 1 19.974681294961407 6.249723095473002 9.327418850117464 -1 0 -1
1840 1 20.92902407955727 7.7241018350234185 6.879218693517342 -2 -1 1
472 1 22.26805992412798 6.192947898562946 5.021260905186171 0 1 1
1606 1 23.55880894008044 8.172470739621096 6.24104217108014 -1 1 0
1315 1 24.497749202185588 7.064460424493835 8.145415510691492 0 0 0
793 1 27.70890194856392 6.312562917340244 5.857700930372148 0 -1 -1
1517 1 26.35848474208038 7.284027213104173 4.037334402434266 0 1 -1
371 1 28.59602830491827 4.260363810444122 5.5688742821618575 0 0 0
492 1 25.87787379666165 7.834888165616693 6.389463452009395 -1 1 0
769 1 0.13982931080532468 6.683801694097763 3.8015329274816496 0 -1 0
1364 1 27.057096882044597 7.272430437805248 8.740391057551745 -1 0 0
755 1 1.2620613219747407 12.57758498541567 8.729033774264938 0 0 2
345 1 20.49602425447808 0.00044922287807097616 11.253633863052446 1 1 -2
1821 1 1.428644718718848 11.738401190873795 6.759621171507225 1 0 1
1842 1 2.318852635512361 9.547495573226433 7.444228698611504 1 0 1
1309 1 1.799204366668412 10.315921951367601 5.087572135135304 0 0 1
1706 1 3.7910714109322026 11.06638660597307 8.072851175801716 0 0 0
635 1 0.4252540072740195 10.226618255001847 8.505260287921223 1 -1 0
1383 1 2.3845239867075247 13.431229539099666 10.941624758477218 -1 0 0
406 1 14.590166236815211 11.624557091811395 13.97415190984397 1 0 0
1379 1 0.0988329287118056 9.53942665225915 10.767699968585253 0 1 1
1787 1 6.884695275991482 11.57624615378745 5.304310306960803 0 0 1
1291 1 3.4032608844169125 7.981010661948533 5.142219716410081 -1 0 0
1044 1 20.56085204257947 3.439896794271652 13.024363285923863 0 1 0
521 1 5.00897731437238 13.093952261282848 6.013765698465524 1 0 0
393 1 5.748529189445099 10.770465284161052 6.9829271973283324 1 -1 0
1615 1 7.388792627319662 12.126852443938665 10.263500761624364 -1 0 0
316 1 6.809896669923632 10.315108982751484 8.837125590582277 0 0 0
274 1 7.68472517885958 9.705964839210498 6.7288022256479545 0 -1 0
607 1 11.126209637088783 12.338295290462655 6.227483712135947 0 0 1
937 1 9.932976494473749 10.539263878812132 7.807890861157823 0 0 2
197 1 9.385997906550832 11.338047696914064 5.329571614459479 -1 -1 0
1484 1 5.916324035793422 12.881607874502231 8.15460922756511 0 0 0
1568 1 16.39802402298367 13.77789779533882 2.2964695968402173 -1 1 1
1773 1 9.186639355625918 10.597624665378264 10.18052091100705 0 1 0
333 1 10.274777009892153 12.680422322187697 9.049498894720026 0 -1 0
2004 1 7.806867862600697 -0.026631676254621817 1.0742864911812282 0 1 0
1803 1 12.66224735782797 10.936188898296443 5.177794906249299 -1 1 0
810 1 3.2951538705449868 3.274325300653356 13.852065715945407 0 0 0
423 1 12.467916681562091 12.401062369516229 8.135178889859057 0 0 1
774 1 14.471458694000404 12.267483284904959 6.118019587273661 0 -1 0
922 1 12.570114531967368 12.673564596510024 10.331827564030586 0 0 0
825 1 14.992806774344752 12.179030767040299 9.389474847896247 1 -1 0
1936 1 23.928918030009203 0.17965991246250368 12.445465274900496 0 0 1
716 1 1.1949971296814355 13.620559698154397 13.327562251964684 1 0 0
342 1 17.54168590113585 12.378069743462207 6.62302039917488 0 0 0
2041 1 27.896234360557628 12.246963377881011 9.625033329073997 0 0 1
871 1 16.775865897222776 8.538090749292383 5.507152963100249 -1 0 1
1464 1 15.781764596713046 10.713162604645524 7.3229979805709 0 0 1
1131 1 17.484633678851537 12.55213488943725 9.029752815394229 1 -2 0
130 1 17.387170918514652 9.103973553312013 7.640935171309402 -2 0 -1
264 1 3.6322336577283196 0.08732962453201087 7.464985536860259 1 0 0
733 1 0.8494134009958647 2.7894757540806947 0.3621872643518905 1 0 1
969 1 20.25095929080205 10.008648145403527 6.877827220012959 0 -1 1
675 1 19.72536425171222 13.607588211503717 5.8545294460003445 -1 -1 0
560 1 2.888280425446254 5.517656852046532 13.311212563247953 0 -1 0
1298 1 20.759982211825942 9.939152307917176 9.815209640966883 1 -1 0
215 1 23.68306471082908 10.645021163670794 9.575422592823283 0 0 0
196 1 21.428258942537717 11.42508295663346 5.315240948766093 -1 0 0
1268 1 22.440830059483826 10.664126917771407 7.487801133943375 0 0 0
1428 1 22.762088715745268 13.500756152922996 4.439157570264996 0 0 0
359 1 24.489951139057993 10.069900487858009 6.712408200600975 -1 0 0
1601 1 21.14125557069174 10.784363720149175 11.866068504487446 -1 0 1
638 1 25.49357576777984 11.653804253357432 8.555659233567935 1 0 0
203 1 3.875154489006733 1.7959950284851933 -0.22933323900626257 1 0 0
67 1 27.41303976027892 9.940591132834937 9.513521660624534 -2 0 0
1980 1 25.782352647073136 9.830451322834964 4.689245141637322 0 1 1
546 1 26.741280755491527 10.238947730371354 6.933534125852454 -1 -1 0
687 1 27.96021928631142 12.052495384873371 7.460226000106058 -1 -1 0
1429 1 27.727789122719322 7.519461073992587 0.47810580795652835 -1 1 0
1178 1 2.416178736537087 1.535556518438937 9.625762162536745 0 1 -1
1170 1 0.19570674046195846 1.2784392081567255 13.616765787014176 1 0 -1
1047 1 5.096093410143614 4.577638732528769 6.93178730358147 1 1 -1
119 1 2.329732410412387 1.2740459495761016 12.177122579639562 0 -1 0
294 1 28.028890427260112 13.26495642458837 4.879696940532321 -2 1 -1
502 1 0.672849132181821 1.286593998617226 11.088146647377688 0 0 0
404 1 27.038601402414063 3.5044459782324413 12.961085472657743 0 1 -1
61 1 8.510104138897503 3.4561703839471156 10.170976386754255 0 -1 -1
1380 1 24.62325315330885 8.491115985629783 12.646934575262552 0 0 -1
571 1 4.876646438159597 1.5883730495175414 9.482261666972821 1 1 0
580 1 3.6656504449805087 2.8747415449021023 11.4362685047041 0 0 0
905 1 7.129360011824144 1.378256842972816 13.178905937894244 -1 0 1
18 1 6.201381690356694 0.6578678324242665 7.491548108957093 0 1 -1
884 1 5.863175311341353 3.004018783301909 8.451512905128263 1 1 1
1106 1 15.710000306944234 0.17255162858923973 8.751377210081356 0 0 -1
2046 1 27.68724344754307 9.963998761085824 12.358768271460532 0 0 0
428 1 13.553220851108952 13.300217260056518 12.51054016596534 0 -1 -1
1955 1 9.800408429000651 4.025824498225145 7.934817918013076 0 0 1
1616 1 8.194230081411256 13.410995489353057 2.09425462749236 0 1 1
1481 1 8.469497105901759 1.3449631822499482 11.338692110859233 1 2 0
42 1 11.013683320056176 0.6459859217214544 10.709524403700803 -1 0 0
451 1 10.878118750987786 2.8320259270615797 11.603390517042884 -1 -1 1
1543 1 10.53908166761073 2.0889749186949897 8.738722034244548 0 0 0
468 1 6.452791073918584 2.618199936794807 10.922963328951177 0 0 -1
1605 1 18.95767467065164 9.679642130602458 11.248754870894922 -1 0 0
1104 1 13.524209028011741 0.3630198995362006 9.555506386483081 1 0 0
1567 1 12.62016666500114 5.154416686236089 13.091919286368823 1 1 0
1588 1 14.026069249793224 3.5489292510939645 11.910055532144678 1 1 0
315 1 15.691602121275931 0.75618188829054 10.948262231679365 0 0 0
462 1 15.253482376738358 1.9539313894321735 13.35132868138447 -1 0 0
1820 1 16.740280026498155 14.126900254621948 7.832513517046724 1 -1 0
17 1 16.189238538351972 4.86372556778111 9.852374081759782 1 0 0
358 1 18.299329304676863 4.886637646251689 10.700616767928649 0 1 1
1076 1 16.873610697295476 2.932652603068161 8.76437285584919 0 0 0
721 1 16.58920341978778 3.0562364842935232 11.145736267779693 0 0 0
1614 1 17.94221266031573 0.18405521327529673 11.64870492875145 0 1 0
310 1 18.954171324877954 2.6206335814980313 11.362691964272479 0 -1 0
1124 1 17.558508878950548 2.5284036537341734 13.177823875777337 -2 2 0
1886 1 21.145944031483733 3.2062805824070266 10.677591829283054 1 1 1
850 1 18.87323414579922 4.732880444544435 12.976094748990452 -1 -1 0
144 1 13.159390317800497 1.664124328115452 1.8228502851795527 1 0 0
80 1 23.442755595707684 2.2370184564470397 10.926780680404262 0 1 -1
788 1 21.670322799695988 3.5337875890777277 8.525468255895115 0 -2 0
1853 1 19.804244470116423 1.272354532261027 13.527022343098729 0 1 1
314 1 12.620737710607413 2.6407632867318704 13.797019834253833 1 0 -1
898 1 21.711983757084074 1.6333588842686675 12.15788501794401 -1 0 0
928 1 9.073756846578558 0.23631528692498494 6.856467512233405 0 0 0
1505 1 21.84035656941825 5.452680055102373 11.570735778720303 0 1 0
1855 1 2.892857270917247 12.715011611228418 -0.2967321959394425 0 0 2
301 1 23.133399230170166 4.278523341197723 9.899058427818922 -1 0 -1
527 1 28.031226859555545 3.5290708442825793 10.487262711561714 0 -1 1
783 1 25.128562492503068 2.0287652414563224 12.517819747420786 -1 0 1
1504 1 19.027823154730925 10.346584667790728 13.810006720275013 0 1 -2
830 1 27.341018608568408 1.7905004239097737 11.635903774326579 1 1 1
1424 1 7.252139519799632 0.14573543804383837 5.056491306250414 1 2 0
1746 1 26.112587537083538 4.599053040422024 11.09653285175212 0 0 1
574 1 2.9033968010460143 7.730235292898758 13.69890999881709 2 -1 1
823 1 4.242912020010167 6.77868563230831 9.248522515860286 1 0 0
1058 1 1.6859300198891232 3.7496926656600005 11.685007849696888 1 2 0
1692 1 25.190193789316023 14.156808828516082 8.17243721026638 0 0 1
1875 1 3.846545518977403 5.440193428165394 11.487114552613521 0 1 1
1310 1 1.4077679347847196 6.407771783664893 12.25842690910911 1 1 0
1651 1 1.6480934949420822 8.810533534808897 11.856266275800065 0 1 2
1825 1 5.468422351803391 3.0847230939647656 13.45981860954021 0 0 0
856 1 28.34290799962449 8.594983833508781 7.487580631680409 -1 0 0
1721 1 3.437681672145507 4.451220310777665 9.043619174958714 1 1 0
955 1 4.1233683565402846 13.181318152674526 3.203063914353172 2 -1 1
829 1 5.5929606880472456 4.961185212136525 9.69922492118039 0 0 -1
1599 1 7.34386191940625 7.786148599189023 12.567742257890917 2 -1 0
1152 1 3.6147417800406054 7.669427743954712 11.259072648649457 0 1 -1
886 1 6.321731529333233 4.846490198244997 12.008388064044755 0 1 0
125 1 8.554622094556361 5.741411549948108 12.175924666268457 -1 1 0
1905 1 11.031208078212785 6.548723022962528 12.381779477401912 1 1 1
2022 1 8.058660039945227 5.790315890483585 10.135080261258247 0 1 1
328 1 6.138223329012633 7.450621411243637 10.37021219823858 0 1 -1
860 1 10.31307638749533 5.0316243890110615 10.392712391965373 1 -1 1
1134 1 10.54567249915166 8.501420636323314 13.471779905318888 -1 -1 0
855 1 11.999422688489494 7.448262874849324 10.528483751940293 1 0 1
505 1 10.189507043901274 8.9179353108746 9.225233012569248 1 0 0
529 1 12.681308638346534 7.891819835572747 12.964638570260075 0 -1 0
696 1 9.282762636417884 7.566875015489164 10.846500026139607 1 1 0
889 1 14.815070976121723 6.935450312350442 9.701519502395954 0 0 0
91 1 13.551254176977443 8.476870746797381 9.116252877059686 1 -1 -1
1319 1 12.738124358564248 4.732933361850879 10.637369930352751 -1 0 0
1652 1 14.60906049168002 5.7450683154286 11.515880910430877 0 1 0
298 1 16.79398776072352 6.3266350936989655 11.737270607127268 -1 -1 0
1074 1 13.580533865322812 -0.16286048499274686 4.533563860972269 1 1 0
1332 1 14.308782869862094 8.462585360449989 11.635781435654556 -1 1 1