LAMMPS data file via write_data, version 29 Oct 2020, timestep = 300000

2048 atoms
1 atom types

-0.07372963053832748 28.425729630535525 xlo xhi
-0.07372963053832748 28.425729630535525 ylo yhi
-0.07372963053832748 28.425729630535525 zlo zhi

Masses

1 58.933

Atoms # atomic

130 1 1.569066780784403 1.9214300869273961 3.6717283999498673 0 0 0
33 1 1.7579821622392686 3.612168392906757 1.6896303388656781 0 0 0
8 1 3.5300830256709745 1.9613462725288766 1.994535099299552 0 0 0
165 1 3.5132152075914598 3.413437534450942 3.6659429835607105 0 0 0
161 1 28.26054858766336 3.688224526436038 3.2803192703429858 -1 0 0
484 1 0.1525396018425631 12.455568990839655 12.496762589533386 0 0 0
1157 1 3.198439149193828 13.903392875327617 3.144540056712323 0 0 0
542 1 26.25970126387424 2.0337758751165014 14.049294766187895 0 0 0
1031 1 5.277021891688831 13.935531978647566 1.5103886701764853 0 0 0
358 1 5.527314034070016 14.086014640791904 5.3783047536324124 0 0 0
69 1 3.296811344284909 7.280764155874667 0.29126400194704455 0 0 0
12 1 7.2411574492434765 1.4345979342012107 1.8060450356057192 0 0 0
39 1 5.336411249194761 3.7208335893688083 2.150820292932764 0 0 0
134 1 5.360819351806764 1.7317802551061001 3.402254655071981 0 0 0
169 1 7.445391118809159 3.1450273171777168 3.2389185724378953 0 0 0
98 1 1.6656692783156284 11.975415952920523 0.11485950633842765 0 0 0
131 1 1.4389074723132895 0.183443946750304 5.835608464681795 0 0 0
1039 1 12.453096486221387 14.144293865064311 1.8874286971371161 0 0 0
138 1 8.77404733154628 1.1113295604604132 3.893755387779852 0 0 0
16 1 10.53155186360554 1.1845318771555775 2.442094161292344 0 0 0
43 1 9.267734008963755 2.7449196061567425 1.739888058624787 0 0 0
173 1 11.08755785326727 3.3607175659913615 3.58637620194015 0 0 0
47 1 12.772098572319846 3.139285767730991 1.6723135865235623 0 0 0
58 1 22.96318882296926 5.266565708980392 0.015014629233851898 0 0 0
1437 1 24.87212253851494 13.999548806734989 10.553188274517183 0 0 0
541 1 24.882523680896707 0.2182825561537865 13.585553884479708 0 0 0
142 1 12.488531594630258 1.3206557902884817 3.630519778475617 0 0 0
20 1 14.108669801283167 1.5081413762347398 1.504709700618433 0 0 0
177 1 14.099367879006374 3.4988481544612497 3.6158772439156763 0 0 0
51 1 15.669821650192182 3.461520316231265 1.6560522442853485 0 0 0
146 1 15.967147848881417 1.602852285125643 3.3419509149967634 0 0 0
263 1 5.440670686099904 0.17340592110455416 9.030766135052797 0 0 0
90 1 22.362054883801637 8.705437542094682 0.210439974820746 0 0 0
510 1 27.08571903141031 12.333733199570755 10.438812845865533 0 0 0
24 1 17.5691515875103 1.559234586185804 1.465282022077478 0 0 0
55 1 19.31358513605491 3.7145527963121254 1.4122171608069327 0 0 0
150 1 19.304593413500342 1.6334541493331605 3.3175730075205276 0 0 0
182 1 18.044769499911908 3.4833155704957104 3.206499608852686 0 0 0
135 1 5.4356045537444535 0.18830562379064625 5.413025883298579 0 0 0
385 1 0.17191655811177836 0.2972072512785309 10.376622320470334 0 0 0
5 1 3.7808375027934487 0.05033369611997021 0.12588565114731676 0 0 0
28 1 20.847875338607817 1.700490704426677 1.4889857592000586 0 0 0
59 1 22.637599151224514 3.1960528493974794 1.7604451692504388 0 0 0
154 1 22.680971219970576 1.4064540920140702 3.2986854941673047 0 0 0
185 1 21.03863695851047 3.1249035249680834 3.3336099477319845 0 0 0
602 1 23.238875294880717 9.026463244924239 13.507969581727764 0 0 0
1033 1 7.10779715222752 13.779404171256502 0.014167955054572218 0 0 0
4 1 0.3071411898852462 1.606356388749409 1.5285415391109118 0 0 0
189 1 24.281717470132698 3.098255374677768 3.4048414655450205 0 0 0
63 1 24.410846389259078 1.6429132819494299 1.6968137943911417 0 0 0
158 1 26.519940600506896 1.9647729303076633 3.151618562821627 0 0 0
36 1 26.55487564958574 3.6323854862543152 1.369817195310979 -1 0 0
41 1 7.355786708612794 3.3046008943267133 0.3616682916587425 0 0 0
163 1 1.6030936158431588 5.450968997645825 3.6349468901129605 0 0 0
67 1 1.6087690198361273 6.9547001361754015 1.7274647077509666 0 0 0
197 1 3.422169047650354 7.046377923210991 3.561468964705466 0 0 0
40 1 3.54219969488225 5.205278601311795 1.957605245146055 0 0 0
72 1 3.2408082365346913 8.763320411981912 1.9879072947033372 0 0 0
162 1 28.137198516509816 5.227829278088508 1.2693647508255366 -1 0 0
194 1 1.475447109479214 8.742501820796654 3.2108166701707606 0 0 0
6 1 5.528900784935623 1.8079930079994069 0.20519073748506622 0 0 0
166 1 5.329763401640164 5.305860741532481 3.4762170280685525 0 0 0
44 1 7.420661753586116 5.4599763101697105 1.7351801502030093 0 0 0
71 1 5.543531326649676 7.060573061222679 1.9970702749531486 0 0 0
201 1 7.441968391086061 7.185112932745953 3.650097007456844 0 0 0
76 1 7.80169084654522 8.629205006149627 2.059859736481784 0 0 0
198 1 5.164458323414253 9.016098708093448 3.5447722685355103 0 0 0
1409 1 0.14412041823085334 13.933997127536117 10.66032757108621 0 0 0
48 1 10.782753335595482 5.325384078784035 1.7938447963855224 0 0 0
170 1 9.36628189767748 5.506925691627947 3.519234074850282 0 0 0
75 1 9.119803278965481 6.928977483306639 1.8706095417732984 0 0 0
205 1 11.0190570059747 7.324124578072824 3.2697603231826866 0 0 0
202 1 9.704387659938996 9.042839724624251 3.497348274086641 0 0 0
80 1 10.774398041721449 8.610641354256744 1.4104840793850912 0 0 0
206 1 12.46997524470071 8.941338531803002 3.5574014848350712 0 0 0
101 1 3.371270111638629 10.457966500110928 0.0408722621707929 0 0 0
1289 1 7.00191450889429 14.129549424467898 7.083348978781459 0 0 0
1419 1 8.37268697915896 14.128690037054351 12.043387077179638 0 0 0
38 1 4.678969513029212 5.589608346231313 0.30016642785526215 0 0 0
283 1 22.59016494699585 0.2411073810020321 9.332411863338733 0 0 0
1035 1 8.847965637800803 14.08572122067314 1.654227577455876 0 0 0
79 1 12.672187917939072 7.16626465845635 1.7622218040242856 0 0 0
174 1 12.573954720715761 5.495366436722964 3.4678929609049005 0 0 0
181 1 15.76531478084607 5.202310631992365 3.717815943863895 0 0 0
52 1 14.3547013025513 5.488074252001993 1.8271203316393252 0 0 0
209 1 14.51978468022708 7.298567703641755 3.3673750446123063 0 0 0
84 1 14.326043207157696 8.942465816548472 1.5139699937209663 0 0 0
83 1 16.00652693865705 7.252665424115264 1.439633309170745 0 0 0
210 1 15.655429092951929 9.376911215494582 3.8195989205950256 0 0 0
114 1 15.943173877727592 12.469247961326397 0.2587857310183502 0 0 0
609 1 2.0208441408104023 13.973964206883538 12.151005024796978 0 0 0
86 1 19.592904121461444 9.055111945034367 0.24395675569410963 0 0 0
56 1 17.351464515421338 5.1808329004575535 1.4526876926977006 0 0 0
87 1 19.11669372212232 7.421529986343631 1.6657956652876678 0 0 0
213 1 17.520188330335024 7.0806370875005324 3.541477369438801 0 0 0
88 1 17.258698622045248 9.357943361886498 1.7714687176045196 0 0 0
214 1 19.242527974088162 8.722020442849459 3.610405350115895 0 0 0
188 1 19.420729944149492 5.349136435287537 3.4655689965733525 0 0 0
81 1 14.024806594424813 6.615773682794585 -0.04563459304837542 0 0 0
121 1 21.553958675482697 10.690689779730725 0.020346144904560673 0 0 0
186 1 22.60595309467096 4.7728047891356455 3.748067512768116 0 0 0
60 1 20.817813512096357 5.298439420090192 1.7270907701843958 0 0 0
91 1 22.944137071205393 7.202524074994411 1.8777965317584084 0 0 0
217 1 21.323535506342846 6.947071422013543 3.498379834579854 0 0 0
218 1 23.0171120747946 8.845031592440991 3.413771733343902 0 0 0
92 1 20.927357190165484 8.82423687925887 2.0590841645615203 0 0 0
110 1 12.485971943728941 12.489162317643984 0.06194310465102568 0 0 0
37 1 3.398344386669605 3.5269938487107106 0.06380555083487097 0 0 0
193 1 28.06019736002235 7.140258688481647 3.205624554809849 -1 0 0
68 1 28.270886137607214 8.964457333912977 1.8826983044501595 -1 0 0
64 1 24.36287101363238 5.323300128159596 1.8416740576277641 0 0 0
190 1 25.936579267613855 5.0642048062881155 3.4616813424865622 0 0 0
96 1 24.70306434460397 8.70848113201581 2.0797032668870177 0 0 0
221 1 24.637003637413528 7.127173149171333 3.56283575901911 0 0 0
95 1 26.4291900205055 6.9449204197298195 1.662433948735028 0 0 0
222 1 26.53557069128997 8.909656634098575 3.702992304291071 0 0 0
99 1 1.7996754237891768 10.4511707889224 1.7888982382700493 0 0 0
226 1 1.3817938317797769 12.35020867044789 3.449560137306624 0 0 0
104 1 3.3649634916667974 12.20745957531124 1.329247094865082 0 0 0
229 1 3.239539563277752 10.376500429634316 3.714205898505956 0 0 0
129 1 -0.0459846538132361 0.34956699502142863 3.323724179224157 0 0 0
225 1 27.98409710577916 10.717814300986111 3.520844204116037 -1 0 0
105 1 7.256910869461572 10.089309132224408 0.16609346235678543 0 0 0
514 1 2.069803549095576 1.8987517800187428 13.713372998073321 0 0 0
103 1 5.362138732795365 10.32797393259962 1.6397266693172985 0 0 0
108 1 7.189050967218323 11.971926291528629 1.5480615237881077 0 0 0
230 1 5.095725391147086 12.28955912798254 3.2065925591488655 0 0 0
233 1 7.185387876545815 10.517543025523883 3.5511680846829674 0 0 0
629 1 18.071836879510254 11.10446217341465 13.908271168128357 0 0 0
393 1 6.8758176872540036 -0.06284469200125793 10.740031964661673 0 0 0
155 1 22.940556866268278 -0.014187915191506306 5.299767869697596 0 0 0
77 1 10.971416398094584 6.806438003732565 -0.061156513654290506 0 0 0
234 1 8.673676787000923 12.511255379439906 3.493232424114141 0 0 0
107 1 8.944485499411643 10.858018462672327 1.9862516507520516 0 0 0
112 1 10.652214782349562 12.541866994901323 1.8814914795343425 0 0 0
237 1 10.922785067962502 10.90343432070984 3.5692305890400635 0 0 0
1252 1 27.998418371009045 0.2622780481760166 7.1700231521391755 -1 1 0
62 1 26.17364849252951 5.450588263309184 0.05469180986733052 0 0 0
554 1 8.856758696484063 5.203951172155144 13.88132128518292 0 0 0
1027 1 1.0066843105925285 14.169722066362649 1.6669313445990415 0 0 0
549 1 3.517720960377305 3.8683883860562256 13.98148005244012 0 0 0
111 1 12.598279554999134 10.690099865421802 1.9105466129454691 0 0 0
238 1 12.398251760270506 12.614446377884235 3.402459096514274 0 0 0
116 1 14.095857225671793 12.601613819358667 1.6058775768326645 0 0 0
241 1 14.097974615325224 10.819455504060926 3.5381481318223047 0 0 0
115 1 15.667691581401074 11.02316200312135 1.9880805993513864 0 0 0
242 1 15.963385245934305 12.77640626964278 3.3419253126531214 0 0 0
1293 1 10.52565229353823 13.98847438597349 6.984300668874443 0 0 0
271 1 12.1791652314855 -0.0679810284759057 9.129755863964963 0 0 0
511 1 27.05470595865022 10.944865669914257 12.565859996073705 0 0 0
512 1 25.212880637404034 12.589105866708996 12.408902065234587 0 0 0
119 1 19.264540806421355 10.72389580241761 1.9921869729281765 0 0 0
120 1 17.82573328026734 12.369155091652868 1.9657492951752955 0 0 0
245 1 17.464861447409383 10.962953434378806 3.414852939425692 0 0 0
246 1 19.49908698634168 12.665788779247325 3.536301553970254 0 0 0
94 1 26.32449297556366 8.955907597631276 -0.025271242553183457 0 0 0
570 1 22.99634883862017 5.670699782197304 14.122348136095706 0 0 0
123 1 23.01754888919754 10.799264933301524 2.026422130458837 0 0 0
124 1 21.006237884093643 12.784049437100334 1.7282630294044043 0 0 0
249 1 21.14751832852776 10.730448458935484 3.635378161566611 0 0 0
250 1 22.95190078933782 12.583777976984484 3.6752264609080454 0 0 0
610 1 1.811724431625171 12.335004378342099 14.073389497527597 0 0 0
509 1 25.153640199480957 11.119527206078796 10.375452394866148 0 0 0
100 1 28.162568197455826 12.12085343723932 1.6728764345151974 -1 0 0
128 1 24.750728206192587 12.475416169249355 1.5307139401325287 0 0 0
127 1 24.415507424190697 10.6577113888215 3.674141684046282 0 0 0
97 1 26.109212230735697 10.684179463710302 1.8114265199527746 -1 0 0
254 1 26.162520450453535 12.551540311229415 3.3806423706815445 0 0 0
389 1 3.689848154653929 0.1985703033947021 10.351936571863488 0 0 0
637 1 25.404805341512862 10.44660095836636 13.690331464263325 0 0 0
258 1 1.8376388802441828 2.253515094228266 7.030565512885704 0 0 0
290 1 1.5602870970908185 3.604055222001399 5.158798972164054 0 0 0
291 1 1.8427789983213765 3.9433975501785055 8.863713437074427 0 0 0
293 1 3.6518877183115706 3.5249279888186957 6.237622000613649 0 0 0
264 1 3.6004214029968984 2.1795681735235704 8.427459692676651 0 0 0
136 1 3.1253545106876084 1.677245263721137 5.301654333109384 0 0 0
132 1 28.27947798613475 1.8404242952825096 5.455352958211749 -1 0 0
1287 1 5.16128780891518 14.113098182401691 8.641109961839708 0 0 0
598 1 19.79593228065815 8.758194566921242 14.005639775631062 0 0 0
413 1 24.59764438476756 0.45490192661587725 10.92492314962721 0 0 0
1161 1 6.8368059345665095 14.132019252850135 3.363302185858841 0 0 0
545 1 0.2524333134198217 3.626384489706557 14.120445742859474 0 0 0
140 1 7.282655085314132 2.171811456775175 5.380036126623437 0 0 0
167 1 5.674017140123844 3.746544653702515 5.09754256276845 0 0 0
262 1 5.343742533439045 1.9768871436535767 6.91897861873469 0 0 0
297 1 7.485038822720918 3.9987464100670262 6.971633002061803 0 0 0
268 1 7.362271729474983 1.8307872385417225 8.784796689914959 0 0 0
295 1 5.675426950567277 3.5409525812265907 8.52853988321724 0 0 0
397 1 10.355703428581933 -0.020924350267149762 10.803166277920052 0 0 0
144 1 10.83516674279506 1.5219689725501002 5.663345400985564 0 0 0
171 1 9.458585777949082 3.7152059219264575 4.930286744265133 0 0 0
266 1 8.712520839126856 1.9739325972928876 7.1252693362578965 0 0 0
301 1 10.46900225565771 3.30996080886326 7.176912344106144 0 0 0
299 1 9.16463756644515 3.3907974386804116 8.870545731752165 0 0 0
272 1 10.98797271775605 1.819304112136538 8.99884078237372 0 0 0
9 1 7.158603761082201 0.04930859502747306 -0.03875727965400008 0 0 0
614 1 5.128838674449797 12.34418558017581 14.025238284606484 0 0 0
303 1 12.66686883221028 3.346044261167675 8.897255963820315 0 0 0
175 1 12.550731005518015 3.080558680685557 5.15531282586796 0 0 0
270 1 12.507490981490028 1.3840550502314044 7.004010727729869 0 0 0
148 1 14.155091775715906 0.9569931502193563 5.262361846597922 0 0 0
305 1 14.254040230902612 3.3048746450391002 6.884844053596938 0 0 0
274 1 15.946145851265726 3.3872555673086713 4.851745398062025 0 0 0
307 1 15.758956825836282 3.166131711129 9.0368480475759 0 0 0
280 1 15.93955139073783 1.3456169350910858 6.812769134707979 0 0 0
276 1 14.09572345491452 1.0987260040935447 8.758008462500507 0 0 0
538 1 23.48287724091524 2.0449580371923326 13.89805151647868 0 0 0
505 1 21.3111159511995 10.498878685163543 10.41354473567032 0 0 0
183 1 19.29919062594498 3.4785866066084945 5.407912760586557 0 0 0
152 1 17.471956092165712 1.4426477493429966 5.070187470484618 0 0 0
278 1 19.475179550641492 1.603794185416621 7.107316204124365 0 0 0
309 1 17.466573715453432 3.18710178369389 6.856212475046371 0 0 0
311 1 17.885023792148527 1.9731430837862751 8.935711714783894 0 0 0
313 1 19.436218032117004 3.499963516927913 8.733042480296508 0 0 0
160 1 22.27241631923575 2.9441722490098496 5.545667564923591 0 0 0
156 1 20.90247042306434 1.447649608695496 4.943634668877122 0 0 0
187 1 20.991089770740544 3.643358317910078 7.116359929850428 0 0 0
282 1 22.825920174236217 1.5193754041422598 7.045056865468717 0 0 0
284 1 21.26722516733831 1.8156536155885104 8.608556825835295 0 0 0
315 1 22.650030567261783 3.6868648120023706 8.81501998222759 0 0 0
288 1 25.06303718729903 2.0169771116242705 8.878316941463643 0 0 0
508 1 21.200512805162926 12.229191596804421 12.536807820334177 0 0 0
289 1 28.33666179779224 3.6323129128223193 6.9484094454179335 -1 0 0
260 1 0.1412334056422098 2.1115839049461123 8.667607162760076 0 0 0
286 1 24.573927379852474 1.8226497810095286 5.26535664284695 0 0 0
317 1 24.557807506088082 3.1045559517381323 6.960312537151785 0 0 0
191 1 26.498906364348183 3.248182419279319 5.148983811047514 0 0 0
257 1 26.509510401905462 1.815126113334231 7.293469104310369 -1 0 0
319 1 26.546146935801794 3.6551888068562026 9.036290137795266 0 0 0
506 1 22.939648335441042 12.600002137929428 10.362754200977736 0 0 0
195 1 1.3046508576357672 7.124418907499189 5.835196021568328 0 0 0
168 1 3.221423147346357 5.499845840701543 5.3430882182229045 0 0 0
164 1 28.11799277644408 5.405676441295097 5.015845435325107 -1 0 0
323 1 1.6572552706741426 5.300794832355153 7.040310845270959 0 0 0
322 1 1.6866061843807019 9.071358486535882 7.181588620546788 0 0 0
200 1 3.3280870617115705 8.75551738320072 5.426150141995992 0 0 0
325 1 3.6229771436071077 7.178478959148462 7.214258139934032 0 0 0
296 1 3.594568348434129 5.264453941361724 8.579321844389778 0 0 0
328 1 3.730307767186004 9.007677814979827 8.74686912691961 0 0 0
321 1 1.7507868264241466 7.428938003389318 8.57546722481333 0 0 0
324 1 28.267767963293334 8.844448244110183 8.64737652158825 -1 0 0
292 1 28.292036753873262 5.366008053503142 8.945860728729544 -1 0 0
199 1 5.2105184757996055 7.177694738905499 5.0883949162950906 0 0 0
204 1 7.44409732188204 8.741438477810586 4.983560681212588 0 0 0
172 1 7.48430701940534 5.190263358489555 4.985544076647325 0 0 0
294 1 5.353033913497124 5.409978608831623 6.861602242962872 0 0 0
329 1 7.376822021444895 6.914541135905743 6.552272114378701 0 0 0
326 1 5.455365116780829 8.574998450331305 7.152695375459165 0 0 0
327 1 5.680365804673219 6.513928933399965 8.73750104609903 0 0 0
300 1 7.504750419498505 5.078864381415408 8.906429474992105 0 0 0
332 1 7.209941554902075 8.822790718888092 8.807021762433177 0 0 0
176 1 11.397705743093299 4.933033097971327 5.726602821706441 0 0 0
298 1 9.12491166442349 5.202076452034945 6.967017390467752 0 0 0
331 1 8.702913261380862 7.1302529414010305 8.723042674526146 0 0 0
203 1 9.340977449596423 7.520165328391647 5.420076216569595 0 0 0
333 1 10.968090554634728 7.28575180762524 7.318352848196294 0 0 0
336 1 10.66939066838992 9.031952963392364 9.066676660012185 0 0 0
330 1 8.90576749054831 9.153955980229153 6.85796032331793 0 0 0
304 1 10.334523054260957 5.580021789772388 9.010869884770878 0 0 0
208 1 11.133534941333087 8.879685255010347 5.324933724424337 0 0 0
302 1 12.685519819203446 5.159672483322461 7.520041607639 0 0 0
207 1 12.495624218338527 7.027393931833854 5.319578742883374 0 0 0
334 1 12.540778787163818 9.047069399461034 7.108629297104737 0 0 0
308 1 14.368490740595906 4.923856931188571 8.690366893917508 0 0 0
180 1 14.029433994228663 5.267101162092179 5.03074102227922 0 0 0
337 1 13.914831602308688 7.034346500692179 7.274176779047599 0 0 0
340 1 13.740717199273115 9.193345730400056 8.906923580361674 0 0 0
178 1 15.663769294752514 7.399340115561347 5.283950480118772 0 0 0
339 1 15.889857019406238 7.169215079622116 8.52222682399559 0 0 0
335 1 12.594637788430228 6.8553762138767445 8.874170545894506 0 0 0
212 1 13.994494804581613 8.85419667539455 5.451744757583192 0 0 0
338 1 16.14028203797159 8.977038074592201 7.0744157919184385 0 0 0
306 1 15.748174785627496 5.294185437015483 6.657368112549813 0 0 0
216 1 19.67799154865814 7.023166150344707 5.0936624940716895 0 0 0
184 1 17.598372404841253 4.882782944689885 5.338938526570731 0 0 0
310 1 19.33816502972149 5.677721481399906 7.008785442462646 0 0 0
179 1 17.504808513567152 6.970758345338523 6.492718164408041 0 0 0
312 1 17.385489970500814 5.3321320606682345 8.448894544922702 0 0 0
342 1 19.605114648228984 8.70985517257163 7.175333971974623 0 0 0
211 1 17.638434727497586 9.294011998104883 5.019259165473175 0 0 0
343 1 19.364410674211097 7.384191886803266 8.891550404768022 0 0 0
316 1 20.84996469446244 5.342086762728422 8.99685052848847 0 0 0
215 1 21.069025584354797 5.090472208856082 5.3684817857785 0 0 0
219 1 22.969100581653702 6.527585662989852 5.31995615106769 0 0 0
220 1 21.36936251347492 8.700957987920926 5.340319499869958 0 0 0
314 1 22.969024988726343 5.1212099672915175 7.084104989695854 0 0 0
345 1 21.548915998009925 7.024385946722361 6.889398324706808 0 0 0
347 1 23.07061845349365 6.825295967825759 8.51102629344931 0 0 0
346 1 23.099183610250947 8.700759034095784 7.093790023462717 0 0 0
348 1 21.17209602013549 9.01622190490622 8.973265319125902 0 0 0
224 1 26.416183227917085 7.1477186097195675 5.109809645872873 0 0 0
196 1 28.09397157206731 8.742797103854656 5.6713259981452016 -1 0 0
223 1 28.038418282452703 6.771979904828994 7.244643519956531 0 0 0
253 1 24.47539358809779 8.786838583187444 5.245113571742065 0 0 0
192 1 24.5077084252465 4.984606506648134 5.296827222543066 0 0 0
318 1 26.15173809601939 4.919468889415386 6.8802939959919325 0 0 0
349 1 24.552788148244424 6.858709805386044 6.873830791862297 0 0 0
320 1 24.91986804456967 5.400928633565925 9.036098638371236 0 0 0
350 1 26.246405387874717 8.948294753774 7.010488899007971 0 0 0
351 1 26.059310075413453 7.460253543857489 8.466376740529558 0 0 0
352 1 24.797616999714105 8.936583031382513 9.010672198943256 0 0 0
232 1 3.3408986573897743 12.394646929615975 5.1327755393051975 0 0 0
227 1 1.8133575522972827 10.441405018171766 5.450200754873229 0 0 0
354 1 1.800004324498936 12.398197912292675 6.658264145497058 0 0 0
355 1 1.9764222960339812 10.71655474890772 8.875398013274735 0 0 0
357 1 3.5549923290815615 10.704226286364344 6.949837436185156 0 0 0
360 1 4.11325853529185 12.17502629841767 8.625675676949475 0 0 0
231 1 5.41640266982588 10.00502716424059 5.400185208025273 0 0 0
236 1 7.330026856164274 12.36607702412951 5.490131860103719 0 0 0
361 1 7.029678998726428 10.59348304581524 6.788977474901845 0 0 0
359 1 5.612775263056751 10.402614149484164 8.708576047906707 0 0 0
364 1 7.056801384152845 12.19845876448989 8.604110097200136 0 0 0
1285 1 5.493197745944553 12.096107759903612 6.634617911125591 0 0 0
1153 1 28.16204341004774 13.876954291251375 3.679715462116411 -1 0 0
507 1 23.36939935233845 10.620505825361995 11.63663487491631 0 0 0
113 1 14.016492180375407 10.520908449356766 0.09762117061032358 0 0 0
363 1 8.756093533915807 10.434774121164486 8.806177036510128 0 0 0
240 1 10.575403756593795 12.410025539319623 5.143030881553538 0 0 0
235 1 9.033754472736128 10.958176606008859 5.178539099462631 0 0 0
368 1 10.531726035548314 12.458630015819507 9.276159363108361 0 0 0
362 1 8.811468675651753 12.30120647286618 7.434663067104223 0 0 0
365 1 10.558504797316283 10.639635923236861 7.37343220470625 0 0 0
137 1 6.956747225837231 -0.04358972454622645 3.5262682239398515 0 0 0
367 1 12.212715822033129 10.578809985347037 9.396814193272613 0 0 0
239 1 12.42994370693342 10.687004632519589 5.40236843833862 0 0 0
366 1 12.307893614063167 12.467715642405434 6.702470679016637 0 0 0
243 1 14.261697130171061 12.685742246988287 5.2658655392774785 0 0 0
369 1 14.193521540626715 10.662877532815614 7.242239197874686 0 0 0
372 1 13.73594116992097 12.339539938132324 8.953682245161424 0 0 0
373 1 15.944730236112825 11.000696720928586 5.390306827512475 0 0 0
370 1 15.996311259179596 12.38488636670623 7.104046310709363 0 0 0
371 1 15.663891218158017 10.54022595145716 9.10812903039856 0 0 0
491 1 8.867403813692317 10.625900778510413 12.823183327077919 0 0 0
415 1 26.80805517372767 0.20037180334165167 12.006114467990468 0 0 0
248 1 17.620860963217268 12.690775899651163 4.954016639758564 0 0 0
375 1 17.7946541710599 10.865544288607781 6.993509738242303 0 0 0
247 1 19.548153113429823 10.339150065527091 5.603408901046349 0 0 0
374 1 19.21291051230272 12.450128947839668 6.754244267409077 0 0 0
376 1 17.970284877146323 12.504635838405953 9.03531111132944 0 0 0
380 1 19.350993524874017 10.723716985750452 9.089308924550451 0 0 0
285 1 24.719998730248406 0.06638810789361166 7.605143705398566 0 0 0
251 1 22.52126991995155 10.806478563756531 5.5437820549798245 0 0 0
252 1 21.177871423489684 12.557293496538968 5.445531787255253 0 0 0
1305 1 21.46549741180429 12.767095622933285 8.450025525370636 0 0 0
379 1 23.193764146802856 10.909973248184535 9.088437418770697 0 0 0
377 1 21.439863063799187 10.806421911856868 7.423641238795304 0 0 0
378 1 23.326301140244674 12.504480300313833 7.108325563766898 0 0 0
1413 1 3.640856391666404 13.918116772104227 10.475628080371564 0 0 0
482 1 0.09705115480408563 12.439332050272553 8.344384442272164 0 0 0
228 1 28.1028151420185 12.450965452709271 5.199744589993446 -1 0 0
353 1 28.404205373144 10.690229055741334 6.848604092052762 -1 0 0
383 1 26.656730003371006 10.598458311099515 9.047003334619147 0 0 0
256 1 24.805643071227944 12.912116700711747 5.2468110490189215 0 0 0
384 1 24.984258850638618 12.994232504845963 8.747386207512 0 0 0
381 1 24.3328063855751 10.598741198766566 6.771392019855561 0 0 0
255 1 26.27556931578018 10.807003196898721 5.322452130428798 0 0 0
382 1 26.55756488670297 12.614960239582953 6.721687617920564 0 0 0
502 1 19.79505735929312 12.64364580762811 10.92995635159785 0 0 0
386 1 1.7661797043382095 1.6662181243710241 10.251852226773163 0 0 0
419 1 1.7987460425325728 3.8416246671492518 11.989419687969189 0 0 0
421 1 3.4528483309484463 3.1825788463595095 10.265637608912398 0 0 0
392 1 3.7618602846963913 2.0305753232584287 12.434592177597555 0 0 0
486 1 5.332687238632126 12.179618735184523 10.293046012598483 0 0 0
1155 1 1.5978130714619574 13.981397313702397 4.916695602031495 0 0 0
443 1 24.755015408187273 7.336220022364001 13.60771829787315 0 0 0
481 1 0.5939464583547588 10.191981584287507 10.578521352528838 0 0 0
411 1 22.70684870119255 0.17468405503859924 12.087066215610257 0 0 0
390 1 5.42418619361056 1.8673177306711133 10.586401016374216 0 0 0
423 1 5.220494821691547 3.7708387648423303 12.48210777214866 0 0 0
425 1 6.992906792015626 3.5291773888196207 10.646890335320915 0 0 0
394 1 6.78205062050703 1.615095429289231 12.280845059634245 0 0 0
546 1 1.9182568013309487 5.238258627399319 13.829144478597584 0 0 0
489 1 7.086893931860736 10.6705260449943 10.748587392659259 0 0 0
395 1 8.888628656100176 1.5986591595115371 10.839959922618938 0 0 0
427 1 9.088729536062356 3.481181852923894 12.083727215933477 0 0 0
400 1 10.6725234801377 1.231622779322464 12.677557289713855 0 0 0
429 1 10.998007221174896 3.4432917480376735 10.670520302738824 0 0 0
487 1 5.3440340859553785 10.514824042150726 12.580129006493591 0 0 0
436 1 12.411511071804979 3.441728027335824 12.423300499678003 0 0 0
398 1 12.534426981141737 1.6706298881005543 10.85789105872604 0 0 0
431 1 14.173356328090843 3.247069509394589 10.943310883492979 0 0 0
526 1 14.058209408686826 1.3755025707057291 12.654560080943886 0 0 0
404 1 16.225909959660147 3.3599404127479326 12.527865104784214 0 0 0
402 1 15.934231088683397 1.7207314777263112 10.679717233136314 0 0 0
501 1 17.659939454717982 10.81530336007912 10.710557761299661 0 0 0
634 1 23.047056745580402 11.658762216783726 14.028033148557906 0 0 0
406 1 19.313236336185188 1.5740657840846244 10.477628873933805 0 0 0
408 1 17.657299840038924 1.6479219881131635 12.79811216619658 0 0 0
439 1 19.136823576222294 3.7585844891607305 12.18568429749049 0 0 0
440 1 17.69667455050246 3.1665380736379922 10.725752824712714 0 0 0
493 1 10.144657529771429 10.603942070044983 10.753232760924865 0 0 0
498 1 15.964123029356639 12.743035349950693 10.468128166750196 0 0 0
410 1 22.585929887087556 1.9207483298244006 10.545930384937547 0 0 0
412 1 20.634458198225317 1.8407831025855652 12.576218123271813 0 0 0
441 1 22.626753501762888 3.671944117341928 12.778661612417823 0 0 0
438 1 21.314540035708113 4.05141381261422 10.650093841257066 0 0 0
416 1 25.059060293600343 2.452286559917415 12.15269588216757 0 0 0
106 1 8.8749828204625 12.291899190271884 0.225743519429133 0 0 0
504 1 17.642853325010222 12.568882175900377 12.05524864929889 0 0 0
503 1 19.76152147461783 10.73597104546632 12.66874132549157 0 0 0
492 1 6.570134777374594 12.461046332036739 12.233683897112348 0 0 0
488 1 3.731381704638924 12.229621189411 12.457025076617166 0 0 0
417 1 0.02552435088292604 3.7378949087830775 10.805503231618973 0 0 0
388 1 0.31435073313633455 1.7391579855130646 12.285407078908419 0 0 0
445 1 24.359607634875527 3.5889570679795413 10.39397347402441 0 0 0
414 1 26.785259671890664 1.9273098333315453 10.649275301819907 0 0 0
447 1 27.061969345922478 3.47813576326507 12.499511455527115 0 0 0
387 1 2.281680414701842 0.1762529654880093 11.959589338606987 0 0 0
496 1 10.24663235297444 12.579402293950896 12.205298214178995 0 0 0
418 1 1.6453170484412385 5.739742511162226 10.28216619197349 0 0 0
451 1 1.954042491087984 7.106802124847952 12.497659811659558 0 0 0
450 1 2.3431420525181923 8.75235995883867 10.515541026768567 0 0 0
456 1 3.742985064191391 9.216219251214678 12.290127760308602 0 0 0
424 1 3.5529985924107987 5.344932883198429 12.222805475687576 0 0 0
453 1 3.822360862377364 7.1134500901637745 10.788418809838248 0 0 0
452 1 0.35486336039214333 9.060925727522784 12.573684750291624 0 0 0
499 1 15.97964562181037 10.64854642603328 12.52502446545359 0 0 0
428 1 7.125076191120501 5.222551456062286 12.551649478022433 0 0 0
422 1 4.926604034114008 4.883322889835035 10.70879045084333 0 0 0
455 1 5.322270184073597 7.276813435345486 12.597127672654548 0 0 0
457 1 6.940649285276943 6.386109258874954 10.74277231056642 0 0 0
460 1 7.44207864272957 8.818410306626342 12.944882509562676 0 0 0
454 1 5.2615739108262565 8.868839358394798 10.857890843343187 0 0 0
495 1 12.492970359189725 10.540861757822094 12.580582437624859 0 0 0
497 1 14.148607039481236 10.682627700221563 10.792538605355215 0 0 0
494 1 12.277254828571197 12.522119447890692 10.935971216371295 0 0 0
432 1 10.574145777877808 5.414082075724276 12.225154122137807 0 0 0
426 1 8.98804686708197 5.294716089426371 10.63730308115258 0 0 0
459 1 8.892435329699904 7.074447471320349 12.212331963366607 0 0 0
461 1 11.113627087557662 7.17573685749206 10.593096615661684 0 0 0
458 1 8.762999736461744 8.396249040700232 10.5828501383999 0 0 0
464 1 10.790593800230743 8.967803070613511 12.827894812415844 0 0 0
500 1 14.114698742873271 12.628608544787237 12.422559855284199 0 0 0
1411 1 1.6412405050339978 12.18717412918252 10.539893836052629 0 0 0
463 1 12.426649018776823 7.195007700835318 12.549224748792936 0 0 0
430 1 12.342804812016558 5.097221534088943 10.813449236685214 0 0 0
462 1 12.434018672686998 8.953598200241258 11.101745779100641 0 0 0
435 1 14.305368353301324 5.4187281506930365 12.464018617137842 0 0 0
468 1 14.255416472616519 8.612096092412305 13.199392240271969 0 0 0
465 1 14.000237110644644 7.505811903151887 11.08291380773496 0 0 0
466 1 15.747744915591966 9.122488747953993 11.013082850612394 0 0 0