LAMMPS data file via write_data, version 29 Oct 2020, timestep = 300000

2048 atoms
1 atom types

-0.2911783058953379 28.643178305891844 xlo xhi
-0.2911783058953379 28.643178305891844 ylo yhi
-0.2911783058953379 28.643178305891844 zlo zhi

Masses

1 58.933

Atoms # atomic

277 1 2.761545656170342 1.817694585465175 0.16784498718052387 1 -1 0
1535 1 2.5834832032146218 0.7153168427134091 2.6894505165591567 1 1 0
993 1 0.6855476100084971 2.5890537584983964 1.8963163829833523 0 1 2
1942 1 1.7349219844374137 2.1960521608451913 4.177565206074183 1 0 0
581 1 1.055951075992842 0.27953833919756066 0.7328544380530999 0 0 0
265 1 2.4663314521322652 4.129517410249124 2.9845950558262397 1 -1 0
1217 1 1.54159613333672 3.974543182361044 0.24585181186939786 1 1 0
925 1 0.7007774806310437 0.07785431599278131 3.8894695083436597 1 1 1
170 1 3.5403518358916584 -0.14424425562132365 0.673135369082239 1 0 1
1940 1 4.4594745978443635 1.8187564546067905 2.110742258664212 0 0 1
313 1 6.746382641612677 2.3377984965514207 2.3703852893003363 0 1 -1
249 1 4.585325631349272 0.5598047705388531 4.368468264185696 2 1 -2
169 1 4.246128908412054 3.7012566820712736 3.8949070031122597 1 0 0
1271 1 6.217770595489354 2.5390881067432103 0.15742639273652947 0 1 0
9 1 7.500705849983515 4.4555147276494464 1.3247921573430814 0 0 0
1745 1 7.701543447237071 3.869870046708618 3.6236282601393057 0 1 1
516 1 5.878205564174311 4.480832912291807 2.3702335393837863 0 0 0
223 1 5.821656983282474 0.2029925992871946 0.8544563219476045 1 0 0
550 1 6.6677060482301655 0.07349343723634066 3.477615382703296 0 0 0
122 1 7.838575907096084 1.220454538611377 0.5597024058761052 1 0 0
1117 1 9.045394484355993 2.409608271446674 2.1481604857013297 2 0 -1
1345 1 9.97961185434371 4.335600425153171 0.9690660786097434 1 1 0
1052 1 9.843514569164068 3.2876850108115208 4.227043396573014 1 1 0
1120 1 9.58341928806896 0.13921562579709823 3.835156593564907 2 2 0
129 1 10.123267141412354 -0.058393500261062936 1.3462441228945743 0 0 1
1879 1 11.730837830140663 3.784289154049503 2.5392504228459583 0 1 2
1301 1 11.389442942050726 1.3518415279143023 4.403781213765747 1 1 0
330 1 11.823199677913625 1.7375027677677837 1.803419547917208 0 1 0
1589 1 10.375692305868089 2.059022623294719 0.007533910671897348 1 1 1
107 1 16.13975672858905 3.0147567905518766 2.9125975937700717 -1 0 0
181 1 14.677811226928522 0.636019273245295 0.23755060697697583 0 0 0
732 1 13.712359440814032 2.918617827019746 4.509650420641235 1 1 1
1039 1 14.040447130768598 2.204948132790988 2.258599675734209 -1 0 0
94 1 15.58846246999133 1.2126221661326837 3.341418050630557 0 0 0
1239 1 15.404911219004765 4.344513047034597 0.7230491751434205 0 -1 0
1553 1 12.801531171786262 3.2889075592230843 0.528811329670553 0 1 1
997 1 12.309515972852916 0.0038901223636066407 0.45027319604577987 0 1 1
1185 1 13.694609105990228 -0.09107760721680672 2.1738083085544457 0 0 0
1649 1 16.850712533599427 1.9838235191229607 0.9295228921275398 0 2 0
156 1 17.8594506756193 1.8836510259115706 3.6729554238349427 1 -1 -1
1416 1 17.726447665183457 3.883831263831551 1.8344882688306932 0 1 0
628 1 19.799168209764133 2.260520532661812 2.388198091914957 0 0 1
1282 1 19.251928935000784 -0.095946781854652 0.34898378460294666 0 1 0
1529 1 19.58228362626378 3.6164018775536086 4.049832749737404 0 0 0
543 1 18.618017294179488 0.021497467620432198 2.3999719438414977 0 -1 0
1184 1 19.553958515248517 4.040874387092778 0.45210937203267276 -1 0 0
1087 1 20.942977265063725 1.0268131001709941 3.9949203155871738 0 0 0
1236 1 21.907507781494985 3.0734406802065695 2.562948387834225 -1 1 0
697 1 23.85041110956402 0.910711268742985 1.571620473196067 1 1 1
1366 1 23.972482381441218 1.0738169585309973 3.7835698660041057 1 1 0
1347 1 24.442537207458827 3.145566126649826 2.0976171846238083 0 1 1
226 1 23.40083942975796 4.516844938377636 3.963071021688207 -2 0 1
594 1 21.280663623622814 0.5542586952454542 1.5749390326782116 0 1 1
799 1 22.61949086999855 2.521165728730902 -0.24557050965806837 0 0 2
121 1 20.41233323513265 2.1025011205234128 0.02942486860213822 1 0 1
1881 1 28.546425993328466 4.503370481270879 3.3042921316096443 0 1 1
1231 1 25.527929160619472 -0.08796843323392872 -0.1830236132296908 0 0 0
157 1 27.180564214487703 3.6064876847683482 1.939340113288289 0 -1 1
617 1 26.076099796201014 0.5121179678113583 4.096949976460655 0 1 1
1806 1 27.82501854074748 2.4190691516536287 3.8761278913577337 -1 0 2
1382 1 25.964277331982196 1.6133094788011741 1.5367130001993348 0 0 0
950 1 28.049190778708805 0.7451729572443495 2.4158848852196435 -1 0 1
152 1 25.62218467785018 2.8444938500757098 4.2755189940575065 0 -1 0
468 1 27.89040179560633 2.0310176059407445 0.14607803168033506 0 0 0
225 1 25.184259201569823 2.9499945923422324 -0.04891906068534188 -1 1 1
946 1 2.814091637689426 7.157160815991301 2.0352612883268275 0 0 0
1241 1 1.3995641841132205 5.43155328487802 4.263129350723308 1 1 0
506 1 3.480697862288146 4.933851470776056 1.0670579326297818 1 0 0
307 1 2.9684225610738166 7.508844008883468 4.496580426715131 1 0 2
1403 1 1.0294213416598743 7.800779087955016 2.949619057070093 1 0 0
1703 1 0.36188100393828637 5.6924866439749415 1.1092334695088555 0 0 0
1638 1 1.8681114704407262 7.074587917765537 0.17232006841883146 0 0 1
470 1 4.247190165550713 6.119061121494023 3.4319325378470955 0 0 1
1699 1 6.857805620653203 8.85728668981415 1.9289906478028405 0 1 0
1518 1 7.13206631258774 6.546672814171062 2.5353385494904037 0 1 0
1205 1 5.773829301488105 6.955980975401041 0.7940234810554232 1 0 0
1061 1 4.8459499335675 8.249417629558524 2.881778568042548 1 1 0
333 1 6.082101054161552 5.436228876583213 4.321861741691812 0 -1 0
322 1 11.96972023892905 7.854948144892907 0.7898111027258012 -1 0 2
389 1 9.277353734957334 7.074632513722845 1.1561634685808202 1 0 1
1830 1 9.330880863766247 9.101660334841945 0.33751448819521657 0 1 0
938 1 9.42471802288924 5.481373107572729 2.9580891353480556 0 0 0
801 1 11.555069352471268 6.126892942136056 2.5223078679178763 0 0 2
755 1 10.634122860421009 7.887072240589271 4.299397618420824 -1 0 0
1408 1 8.743842726301835 8.215452821071322 3.3252647763724577 0 0 0
283 1 11.529546924434884 8.950741503633092 2.803649682154497 0 0 0
688 1 11.210793406722996 6.120947320048855 -0.2905851402654136 0 -1 0
1721 1 14.877904807645114 7.189591889322014 0.006139295619289498 1 0 0
1525 1 13.630077549278525 5.12064779652012 3.753364966402999 0 0 0
7 1 15.689752874476902 5.783589097436119 2.356048043483857 -1 0 0
1695 1 13.186152665911054 5.362107383406371 0.9173264661818448 0 0 0
1325 1 13.672868150041973 7.436280972414656 2.2966987497211044 -1 2 1
1803 1 13.948552020266272 9.300668116194727 1.321341912857837 1 0 0
240 1 15.894313383980785 7.985962058199604 2.138629450662093 0 1 0
2037 1 15.85327087843911 6.73202343966094 4.44046489320031 0 0 1
1270 1 14.65341365504492 8.802873008681285 4.103495274243107 0 0 1
495 1 20.167151124462933 7.143600326522899 3.754314187022005 1 0 1
1451 1 19.97494131235377 8.502217191775777 0.03417439232664493 -1 0 0
1487 1 18.81051392836033 7.956939682665881 1.6907101702259177 0 1 0
1757 1 18.196897201000127 5.746538353013496 1.5773755415287838 0 1 0
1040 1 17.826524867254747 5.0792009829418845 4.374990051672603 1 1 1
203 1 17.729111723739457 7.503561489758455 3.4188339957306124 0 0 0
1837 1 17.446826453683926 7.415002998786868 -0.09738710930463507 0 0 2
1901 1 20.725179678295184 6.654916255002425 1.2794932210794405 -1 1 0
460 1 21.553034602115332 4.5614313924320005 0.6847376409133958 0 0 1
1697 1 22.290191312030842 7.060787834041403 3.7062087192825 -1 0 0
12 1 21.530797933219134 8.756800912237305 1.9002944253100829 -1 -1 1
1322 1 23.583492840962876 8.658695404841376 1.5244363533182401 -1 0 0
552 1 24.443843935278828 7.1552102223210685 3.805658382407647 -1 1 0
1003 1 23.05296059747095 5.98309719442159 1.569257909731775 0 0 1
1853 1 24.480609465075773 7.111531064346841 -0.0041982672088939355 0 1 1
2022 1 21.14852753625277 5.044693932452618 3.2967346151433996 0 1 1
1808 1 23.320271508416482 9.135940922681833 4.456829570398955 0 0 0
390 1 22.187902665401147 7.149092851291624 -0.13303563556115705 -1 1 0
1078 1 25.310274677509206 5.118478577107663 0.9495367008774493 1 0 0
13 1 25.979056368714858 4.962462322976172 3.5409567379553333 -1 -1 0
796 1 28.227312851692645 7.939706223948116 0.964176630106852 0 0 0
1694 1 27.563201429322106 9.028435111944406 3.1082587159745394 1 -1 1
54 1 26.572994442135617 7.366571498875467 4.4317051518032295 0 0 -1
1963 1 27.627229492599774 6.402407946184598 2.531872810596119 1 0 0
96 1 27.82066710791883 4.577354045984968 -0.08993117128499689 -1 0 0
1909 1 25.991181290156824 7.747908175140076 1.802043186748152 0 0 1
1473 1 2.804461725401668 9.681090486091382 2.5245931763594 1 0 0
341 1 1.3759441292309378 11.912308352486772 2.50434057480348 1 -1 -1
1715 1 3.554608642934775 12.236620835195438 0.8505703287230351 1 0 1
554 1 0.3347722728524636 10.102248133613674 1.7427421673205368 0 0 0
644 1 1.353399884502405 11.870994961167952 -0.04638411363162087 1 -1 1
235 1 3.0513014060151074 11.292588411964886 4.089171644725411 0 1 1
2011 1 3.5629634211532304 13.521735327271692 2.526354974040227 1 1 1
149 1 1.2584826483364597 13.87204181219373 3.9360619770266894 1 -1 0
1570 1 1.4259744005468253 14.15929735729956 0.8422996212279241 1 0 0
1479 1 4.797113025425258 9.836625441252076 0.8541406364134192 0 1 0
365 1 4.9895340818818426 11.785396873281375 2.789600583583251 0 1 -1
521 1 4.906034390127617 13.247294436098722 4.440213491697371 1 -1 0
132 1 7.25843182475086 11.103044698548546 3.7786235863675914 -1 -1 0
1037 1 7.759016809224134 12.940585688123885 2.071743522859594 0 0 0
1320 1 7.1211271952895645 13.676358143014573 4.221666539119045 -1 0 1
142 1 7.613608720271511 10.559692088747056 1.5665798458753293 1 -2 0
876 1 5.975438903543246 12.311834446317123 0.5268493652794284 1 -1 1
177 1 5.340731990794665 9.763634703964211 4.478002132571819 1 0 0
740 1 11.949357476160744 14.150142148198293 3.6443216581006768 -1 0 0
1378 1 11.864931831513973 10.235415436734648 0.8039754170833222 -1 1 0
1442 1 9.571371907072919 10.404772023590716 2.8422118509356737 1 1 1
1819 1 9.53518897367675 12.537967488755013 3.5782592907016855 2 1 0
219 1 10.14504357831607 11.781427987875247 1.3278100952785945 1 -1 1
1387 1 11.71623734071442 11.742446484106825 3.049497677971401 -1 0 0
1653 1 8.340245559947935 14.046918328129973 0.16323941276145265 1 0 0
618 1 10.803813289253808 14.05017780672215 1.7771781946435876 -1 -1 0
674 1 15.404911639514962 11.124659465447609 1.3407396295894907 -1 1 1
439 1 15.575248713936778 12.660707162746906 3.312690530501613 0 -1 1
69 1 13.585481432365427 10.809189935521255 3.15240249920508 0 -1 1
1783 1 15.920305399821354 14.164350543859902 1.438620614667026 -1 1 0
409 1 12.218939953020493 12.655959782072154 0.5603225794694777 0 0 1
848 1 13.65638116127549 12.883765767381703 2.2071692685029043 -1 -1 1
1152 1 20.259141931983486 12.081592358063503 -0.19160863510416942 1 0 0
1415 1 16.909199571417183 12.086097780678754 -0.27542048740406083 -1 -1 1
815 1 16.901634875538555 9.560833938593879 1.345817543209458 0 1 1
1941 1 16.911695003969058 9.754597077326592 3.5051864978035057 0 1 0
494 1 19.670024128139353 9.605929080624797 3.161370297338501 0 1 0
1865 1 18.389312905639848 13.487101893202235 0.4523983185771966 0 1 1
855 1 18.899058352589506 10.470442273727064 0.7638028841463764 0 1 0
1873 1 17.614570822569846 11.804205714771058 2.078898360713079 0 2 0
1278 1 19.421880056627003 12.346818874280416 2.791193078381641 1 0 0
847 1 17.430158035085327 13.74354847008315 3.2597747744163628 1 2 1
1727 1 21.797693129470062 13.311839201960813 3.67650338959056 0 0 1
1794 1 22.134726347097065 11.086631793480702 1.4672422391823114 -1 0 1
1640 1 24.39074039036776 13.24183761507643 1.1640456697268051 -1 0 0
1893 1 24.06737529911633 11.704129181567588 3.160881850320337 0 1 2
125 1 21.632184722425627 10.31863747388818 3.4116398212328094 2 0 -1
1491 1 21.958311313775454 13.00385319293253 0.9226729559993405 -1 0 -1
1390 1 21.399178815020107 10.18586260803736 -0.17070089088517193 0 1 0
825 1 27.951031127258645 10.035452782155804 0.17411239859966965 0 0 0
284 1 25.204927324183792 9.43803721107798 3.3222657263693303 0 -1 0
126 1 28.218559092830603 11.827572576876085 3.5220975970131874 0 0 0
1368 1 28.13730962893105 12.58214319326071 1.2910495126812427 -1 0 0
856 1 26.666755727580636 10.465679316599605 2.0023305565069434 -1 0 1
547 1 26.119748525319537 11.364838732886895 4.45158248848303 -1 0 1
837 1 26.168512735404995 13.32569893361043 3.223650042731687 -2 0 0
1951 1 24.529025400786054 10.650567376483973 0.9851320482711712 0 0 2
286 1 26.11661267525958 12.192938832205687 -0.26843103969836546 -1 0 0
1656 1 2.3913326200683023 3.690599143162305 5.9806968957813735 1 0 1
143 1 3.5865932032392642 1.7381518640995575 5.907595375701998 1 0 2
878 1 3.4640550499205456 3.93066676183315 8.140124646158565 1 1 0
1204 1 0.014547036132906477 2.3447933935455345 6.610643059753912 1 0 0
25 1 -0.18100937874962852 3.246523425474088 8.460542784147409 1 1 -1
564 1 1.7198587818115154 1.677242902067243 8.082701210296362 0 0 1
1900 1 1.6016239803276395 0.5738495265824064 6.168107677598717 0 2 1
727 1 6.230192835687874 2.7136676808486593 4.665203722028253 1 -1 0
901 1 3.8689017155736236 1.235005121329472 8.330426518471702 0 0 0
679 1 6.0559629522969205 0.14208485232251783 8.340740304979514 0 1 0
1181 1 5.274920684652776 2.4486331538324553 7.527185949685613 1 0 1
1503 1 6.505359072400845 0.8905890177641722 6.008279791927464 1 1 1
736 1 6.849035490597616 3.6623328288588066 6.804901955007231 0 1 1
505 1 4.719463073625538 3.98939616214233 6.126941340742263 1 0 0
1859 1 8.144598682250335 1.8254924841507973 4.564886160478672 -1 0 0
466 1 10.047525828326812 3.6025389947960513 7.2956822708207065 1 0 -1
1189 1 8.476938211980183 2.2841961287703922 7.139437554477303 -1 0 -1
989 1 11.911681829622921 3.373805585441541 5.538930572886491 1 0 1
503 1 10.975500203602596 1.5652663118969043 6.865685331934525 0 1 -1
1748 1 10.485821604335213 0.26389263727940493 9.31669063797912 0 1 0
1476 1 11.648172870503059 2.2208862707175245 9.036290781434824 -1 0 0
118 1 8.761459187693537 0.30623565182624557 7.344260346170455 1 1 0
40 1 12.816675738214224 0.4894252021921228 8.242340122483641 0 1 0
562 1 13.610982756260222 3.3422835189538187 7.843016201045222 0 0 1
972 1 15.67947478474474 4.36005334211647 4.844467480137025 0 0 2
822 1 15.608843223241626 1.6264417618466918 5.521642874369336 1 0 0
1209 1 15.656715760415967 1.2728397800421638 8.187937629366436 1 0 0
1033 1 13.565489082033894 1.4723035385080363 6.348604065996756 0 -1 1
1148 1 15.776671554170049 3.3924898392253438 7.064478056007632 0 0 -2
384 1 13.640628344401 0.37509169968645284 4.5369509558821175 0 1 0
1683 1 17.521433168882005 0.42516091199352957 5.050014862456605 1 2 1
1060 1 19.754339309836524 2.026946973018593 5.766515773754544 -1 0 -1
508 1 19.72954800834642 2.2468018014131244 8.146018931938341 0 1 -1
1085 1 17.80778419374635 3.33227262795988 6.242006396915719 0 1 1
1756 1 17.742542626913675 1.2041677995413393 7.153146198139839 0 1 0
2009 1 19.862087584421516 4.285827110284851 7.634837017537568 1 -1 1
1754 1 17.896699825685957 3.749707880238418 8.643976585169684 0 0 0
1969 1 22.109692311977106 0.5686924559823487 5.58549790880262 -1 1 1
217 1 20.462567616141243 0.38280528669365865 7.246814932421969 1 0 1
657 1 22.354861750399387 2.585705558627008 4.793305492475015 0 0 1
700 1 21.951136209802833 2.4268199591168615 7.209871078986333 -1 0 0
1102 1 23.909837156348154 1.0547031285508996 8.584611522974297 -1 1 -1
640 1 21.78775898142814 3.9982187581357245 9.152024205195673 1 0 0
964 1 24.439925231089425 1.612031963868451 6.180340658938074 0 0 0
97 1 20.68306917044091 4.476785347083159 5.478909726368396 -1 0 -1
634 1 24.50126771358611 3.740018529630242 6.2516951876020554 0 0 1
1991 1 21.675502655363218 0.582280659647124 9.185647040597683 -1 1 0
1701 1 24.009327158534013 3.1341497880643523 8.402489622761212 -1 1 1
1709 1 26.163258716109986 0.3034495261852881 6.381022474273267 -1 1 0
482 1 28.46109964478199 0.36043020987210583 7.927265679057982 -2 2 1
497 1 26.610191554873445 2.916940737158066 6.475461587242653 0 1 1
1104 1 26.347163221634815 2.1550109936577746 8.85757191810686 0 1 0
831 1 28.320433099276975 0.1231515975718494 5.38179306257904 0 0 1
1925 1 0.034781126657232986 6.795021152582543 4.982273063998496 0 0 2
1243 1 2.960112519328424 5.711000731240338 5.846066209537665 1 0 0
1601 1 1.5473394279713495 7.362246689243011 6.335421655461128 -1 0 0
641 1 0.5051123612568476 5.16446645044376 6.841053136739796 0 0 -1
179 1 0.04254760119847839 7.793967259859272 8.04283333719356 1 0 1
835 1 3.211860014590218 6.160671126745153 8.069800784263139 -1 1 0
517 1 2.43516465436584 8.344331948887959 8.461725320776937 0 0 1
1689 1 4.883536300253601 6.829968396310847 6.326372466206638 1 1 0
1411 1 6.789454566069662 7.488057971447004 4.8309518753813245 0 0 1
202 1 4.393026402784161 8.674233005249773 7.196851486103529 0 0 0
1021 1 5.551743260230532 4.927797654553446 8.204872751528002 1 0 0
781 1 6.997238191227935 8.503130402269345 7.16003861660845 0 0 1
1602 1 6.114876948688617 7.200501154946935 8.608212841558652 0 0 1
1274 1 7.963455408595987 4.650381048033905 8.845932876198908 0 2 0
75 1 7.792376403145056 9.314552416124087 5.45677361946171 0 0 0
1475 1 8.73282974786347 6.918993409633283 5.2723667178332265 0 1 0
350 1 11.076057775056475 5.497446585828689 4.941663643336364 2 0 0
1891 1 7.992209245451505 6.375353586717136 7.351412089085868 -1 0 1
1154 1 10.629284838910305 6.083905802406938 6.76860464515902 -1 0 -1
877 1 8.443760499535934 4.7025017613836395 5.512868991891923 -1 -1 1
598 1 9.821875447887608 6.22663268767648 8.960209790478183 1 -1 0
1483 1 9.41317619855887 8.33099515603006 7.122933074808266 0 0 0
481 1 11.826212888749925 8.368806110568345 6.59494375447153 0 0 0
1083 1 11.876464617171411 4.616307002909013 8.368231614446955 1 0 -1
1776 1 10.782117792933178 8.729710376832108 9.157534115798152 2 0 0
234 1 15.479732445071372 5.368372128623366 8.43694628366544 0 -1 -1
1635 1 12.701126524826709 6.959232745974677 8.263484821035709 -1 2 0
1562 1 12.910954527660655 5.118483185414133 6.600468896346824 2 1 2
1115 1 14.828427173204565 6.483070504135195 6.5824410756349145 0 2 0
963 1 13.081315439857098 6.991826968384053 4.709825264679573 -1 0 1
1926 1 14.14487938216821 8.698030353067054 6.608422610288921 0 0 2
1705 1 15.105214659535127 7.766405862744364 9.068937860387033 1 1 1
1180 1 16.267892477697337 8.805571239968483 5.324940176479521 0 0 0
566 1 18.465530617733364 9.087128183045326 5.289492420568304 1 0 0
1400 1 18.691012449045786 6.669135554687708 5.634385091333919 0 0 0
27 1 16.796406714593452 5.317572517235106 6.7944015316752 0 -1 -1
1474 1 20.216439780459183 8.356009491126601 7.975706884085824 -1 0 -1
577 1 17.180941728131778 7.715537702212448 7.432390523212915 -1 0 0
1547 1 18.772421957124394 6.1449462229340766 8.404713612245356 -1 1 1
26 1 20.89956424262413 8.628007778514412 4.947887508307241 0 0 0
1105 1 20.806331929269888 6.858358955452413 6.196494404483452 -1 0 -1
1182 1 23.86135050568823 7.768733467320022 7.802997393148084 1 -1 0
512 1 22.302569371825022 4.864656815312257 7.013285049880632 0 1 0
1927 1 21.70658979622747 6.785372452650779 8.766715971002284 -1 0 1
658 1 23.30344977310004 6.378058297643346 5.937756440775039 0 0 0
173 1 24.03679291722655 5.293692643212126 8.407467900156272 0 -1 0
164 1 22.586195293674244 8.933125806450551 6.569891359498092 -2 0 1
1505 1 22.4923412864117 9.069270314431732 9.181215210338024 0 1 0
726 1 27.059720851466565 4.580779347717934 7.848025975912387 0 0 0
1300 1 25.692203070696046 5.54610318856372 6.12306071807323 0 0 0
1457 1 25.089819549060103 8.369990146943879 5.822379203174762 0 2 0
553 1 27.420554000985703 6.397933422833105 6.916202864949824 -1 1 0
819 1 27.585891511148738 4.81178374509973 5.167978252145777 -2 1 1
1036 1 28.416407444990174 5.967102867875042 9.115109794654968 -1 1 0
991 1 28.143812508050893 8.712406918393269 5.521549269065198 1 1 1
738 1 25.84879009759542 6.865928755649484 8.414744871197703 -1 1 0
224 1 27.187206522182613 9.028916524889956 9.004507425528898 0 0 0
1624 1 0.815194172562608 9.644873189846411 4.582562272189649 0 2 1
1304 1 3.2236928057872976 9.548538181207784 5.34198221181451 1 0 -1
1287 1 1.2838157210003853 11.867705953388208 5.261018751773996 0 1 0
1785 1 1.1667969857872904 9.769142600936412 6.805322567022267 0 1 0
2016 1 0.5516184689062188 9.746893697398614 9.153177736603606 0 0 1
756 1 0.8005540370585775 12.141631198098127 7.6390438661088815 1 0 -1
1632 1 2.7397939243705034 12.824696824892898 6.5294462130989706 1 -1 1
421 1 2.318278426977562 11.167223195554596 8.79543099457198 0 0 1
1429 1 3.27492848068007 13.219165839735563 8.604864957031547 1 0 0
452 1 -0.2513085688528642 13.577832867915204 8.883575576316682 0 0 0
1767 1 4.553198253809461 10.45446619113286 8.269697739011177 0 1 1
853 1 5.251973505800477 12.720143618654047 8.164102582514507 1 0 1
327 1 7.602303841673231 12.700503109278104 9.104741256932403 0 0 1
1343 1 4.789205665900329 11.692960888938744 6.006007075219116 2 0 0
1681 1 6.62076031588835 10.84949281597562 7.187531671309304 1 0 1
112 1 6.638807210441297 13.033443657250288 6.229030499559227 0 0 -1
1782 1 10.28949348539678 10.16753088158809 4.989089768103533 0 0 1
1923 1 8.79471956994883 12.688451687530176 7.354012213730012 0 -1 1
1024 1 8.883369625108049 10.449121566826484 7.648469764392414 0 -1 0
1435 1 11.489586504488397 12.146495597280744 5.467948005751462 -1 1 -1
1150 1 10.144290170789763 11.958609571787626 9.145830897393505 1 2 0
1584 1 8.660996758516518 11.747295818374608 5.469764962950686 -1 0 0
681 1 11.01756672798159 13.530001294925711 7.196903078780505 0 -1 1
515 1 11.139598685349231 10.886411958927305 7.512226012669907 1 -1 1
1882 1 12.634447592620772 10.011772129114828 5.157222198825195 0 1 1
992 1 13.878823836788694 12.850935400075183 4.687215022106979 -1 1 1
2043 1 13.419525331683019 11.716011942307253 6.618079610447473 1 1 1
833 1 13.209175606596162 10.109674438092496 8.729676675945166 1 1 1
1361 1 12.541362184228827 12.488018456859919 8.67917753511311 0 0 0
1597 1 15.332041220354599 11.026459387468377 5.068246103498632 0 0 0
2010 1 15.896709899939397 9.791185380576504 7.479727358158242 0 0 0
602 1 14.57062818493445 12.418993921355547 8.572350866586195 0 0 0
1660 1 12.889874600295004 14.016548949863 6.22335983876418 1 0 0
1755 1 15.652947755273152 13.67497297016948 5.836415040247335 0 1 1
1443 1 19.96826161086821 11.231961844020141 4.896091500951042 0 1 1
233 1 17.204136668317723 12.092390697587089 5.004589940219413 0 0 -1
626 1 18.159745425321667 9.85207142301783 7.938717961845391 -1 1 1
141 1 20.266496703693996 13.701208465836322 5.204181783219983 1 0 -1
84 1 18.81058856787905 11.722355519064957 6.633792879347216 0 0 1
1669 1 16.799138605255585 12.235694368199383 7.404909463982464 -1 -1 0
1160 1 18.78178515035348 12.843573542382764 8.54415184728616 0 0 1
1864 1 19.95430382405933 10.719264440105613 8.93342370232821 -1 1 0
533 1 24.0153541006407 13.441378189950902 9.270764007206939 0 0 0
1122 1 23.930942064639574 13.332926447709566 5.019086020384466 -1 0 0
227 1 22.66731573027775 11.479714816509487 8.948939669463147 -2 0 1
1193 1 20.88692618955786 13.03327003393834 7.453952817890723 0 -1 0
480 1 21.986139739412472 11.598145494474918 5.444916022119238 0 -1 1
47 1 21.028270135127542 10.745303991731287 6.99866943863315 0 0 0
1627 1 23.198182047008068 12.583941098294897 6.989447053108518 1 0 0
1352 1 24.182379562543787 10.733014307645332 6.034573967834254 -1 1 0
1486 1 24.992471878013596 11.337373734241073 8.536441596994287 0 0 1
1978 1 28.082907789313566 11.035874117877501 6.2248185596154615 -1 0 1
1119 1 27.447236113387874 13.091240733090581 5.602187967847704 0 0 1
1417 1 25.3672313370597 12.661759557294388 6.537697920159167 0 0 1
166 1 26.02402584323589 9.582594073030451 7.218244727248485 -2 1 0
1445 1 27.176857970103647 11.792488617141434 8.310900268987597 0 -1 0
1818 1 0.8329470857522723 0.9365067412938635 11.81088179512057 0 1 0
1358 1 1.5718040754644418 4.060430667120943 9.66150762681728 1 1 -1
615 1 3.266287828139616 4.351303797501615 10.812014608981332 1 1 0
714 1 3.440062987715529 3.652096132446264 13.198982285280909 0 1 1
1225 1 3.650576771809306 -0.11141046998391685 10.238602786589379 0 1 0
198 1 1.9823421751309254 2.243205725865634 10.449975607316784 1 1 0
455 1 -0.24393573877743488 1.7044429541033363 9.965709569058472 0 1 -1
197 1 0.9248414318478626 3.8773245376161256 12.60262803627327 0 -1 -1
624 1 2.3118193244863994 1.8233784786264473 13.520076497865093 1 2 0
255 1 4.632934488133042 2.7479054776845735 9.954542993974172 0 1 0
45 1 6.8022946823558845 2.293534159198972 9.363484958046968 1 0 -1
344 1 6.281915732132244 4.435616059918025 10.079567597938565 0 0 0
360 1 3.9057180293910436 1.943765649434098 11.718915683213076 1 0 0
349 1 6.552358872654831 1.0619328112663955 11.230086151954577 0 1 1
245 1 7.260286476860185 1.7522377360478885 13.556959021845909 1 0 0
974 1 5.967252035019862 3.1342864027113944 12.515613389158869 0 0 1
982 1 7.923971805308275 3.044023061696835 11.30264426768791 -1 -1 0
1038 1 4.649909747913849 1.2619727442946302 13.6564198257565 1 1 -1
53 1 9.284627485017225 2.6003780172086377 9.402438063405475 0 -1 1
914 1 8.314585369952306 -0.03038954154161988 9.866931325236964 0 0 1
1537 1 9.507170535583729 1.2028435903694021 12.057884382180696 0 0 0
908 1 9.287734430444251 3.2117324267552285 13.464790815699024 0 0 0
402 1 12.041305086679825 4.367005612089316 12.760238329736389 1 0 1
278 1 11.614987124773354 2.08830825660846 12.760739657528982 0 0 -2
722 1 12.108867555352784 1.3328864993614085 10.92776518485296 1 0 1
1412 1 10.56849428146473 3.4199525399738175 11.044251260583374 -1 1 0
603 1 14.014103703870937 1.6678668608457883 10.313069167266594 1 1 0
633 1 15.389696739001336 3.1412377127066535 13.846564985177121 0 0 1
1974 1 12.438446644184971 3.8050198532351542 10.639750533287062 1 0 1
1269 1 14.03968891658517 2.055067547964627 12.49376094944792 1 1 -1
1029 1 15.996129296919777 2.0784338658758164 11.472046219664184 -1 -1 0
1634 1 15.338813322681835 -0.20753825263715206 11.229961242724814 0 2 1
873 1 14.50341341669343 4.136798343316687 11.656777097272611 0 0 -1
461 1 15.288327312952372 3.334070624258198 9.57356415178651 0 0 1
717 1 12.925936282671167 -0.16300534356985708 13.238810530228871 0 2 1
1617 1 17.403212120135343 2.0492021797002358 13.433335085979937 1 1 0
1383 1 18.914981832228193 0.3151213172265367 13.253904995546845 -1 1 0
1643 1 17.564694072603928 1.577575516911749 9.613151662493792 0 1 0
74 1 19.393246456670845 0.16150396171802478 9.380495478762583 0 0 0
1980 1 17.623431737457054 0.31946508193460066 11.105148338967169 0 1 1
103 1 20.05156221848405 -0.10120455072263909 11.481332440022712 0 0 -1
718 1 19.667869432944578 2.5121068015578816 12.81727860831101 0 0 1
1928 1 19.90238130137645 2.191211573405912 10.29305424769214 0 0 1
1019 1 17.970000494342855 2.858289088764647 11.441969041647088 0 0 2
1982 1 19.62521225245637 4.485502804953393 10.114488446948599 0 0 0
1988 1 24.171875655574993 3.5225704407560525 12.917844414244353 -1 1 1
130 1 22.505567458327427 -0.2170231565075963 14.013598942836964 -2 0 0
1875 1 21.50585652560173 3.7478186039805035 11.857914054527972 0 0 0
1569 1 22.84427081839827 2.0400217457413934 10.652301580237722 -2 1 1
213 1 21.691713771448995 1.2565838712075368 12.655218824151811 -1 0 0
1796 1 24.264407291067315 1.0310718755516552 12.324198516654116 -2 1 2
1847 1 23.491263652458827 4.411886718277438 10.767371859202946 1 1 -1
1402 1 22.140472502474573 3.321627348284232 13.816425692122017 1 1 0
1425 1 24.754361759033777 0.10796245432380153 10.366443344346667 0 0 0
463 1 25.596790608309902 2.956918838110715 10.927840432091022 0 0 -2
1344 1 26.743112774891067 0.9003149915226707 11.021064086303888 0 2 0
1550 1 26.129214460129127 2.155672855931371 13.058021366692184 1 1 -1
254 1 27.96413384273673 2.879039178840813 11.841800423628893 -1 1 -1
76 1 27.406148542182464 4.428482062493207 13.281406157596315 -1 -1 0
523 1 27.93354034796255 0.6495466260580283 13.568736975163013 -2 0 -1
985 1 25.922354130487726 -0.13802769120081138 13.570855111729063 0 0 0
1954 1 1.7769732728680654 6.167574014192156 10.033180364900693 0 0 0
1026 1 1.5704382124089906 8.184695943642703 13.761526243876661 0 0 0
1265 1 2.6045441788253165 5.91031089899322 13.216018310010979 1 1 1
1948 1 1.0431461959250234 8.09589711015183 10.60481496694774 0 0 2
1791 1 3.0261801929449366 7.452718607028806 12.092074947936645 1 1 1
51 1 0.734548223803974 6.254769901973876 12.25627673615363 1 -1 -1
2014 1 3.427819820534857 9.286500817049417 13.128773727412646 2 1 1
321 1 4.530988844902433 6.407360068115621 10.546400772600967 0 0 0
809 1 6.840347882363739 7.329320876470376 13.869493299281844 -1 0 0
1775 1 4.6065216479035636 8.61806887531661 9.772315390405543 0 0 1
144 1 5.1303581275013865 8.121898898413493 12.198802241103769 1 0 -1
1686 1 7.37306238075355 4.861525538407588 13.074317956348848 0 0 1
4 1 6.973348198919594 6.380396011825148 10.86223134406397 -1 0 0
139 1 7.314959764813241 8.935217013558788 11.58386214317486 0 0 0
1200 1 4.977209585360108 5.1486584324523905 12.963608531091557 1 1 -1
294 1 11.465250052639835 7.800164625070307 13.537745385007156 0 1 0
1930 1 10.109653383953223 5.520643540023095 13.10654647023966 0 1 0
1920 1 8.483296378483018 6.866998399947949 12.934043479692537 0 0 1
17 1 8.769741832061849 8.88189410809271 13.361234210912565 0 -1 0
862 1 9.415675141093676 5.245095208622507 10.8791806107853 1 0 0
592 1 8.138399556994893 8.323336601006549 9.646598731312801 -1 0 -1
1536 1 9.973788643740708 7.912542031755484 11.207783964447927 1 1 1
751 1 11.732345428123581 6.612424675372775 11.109430687802902 0 0 1
280 1 15.646579366315402 6.404759978249678 11.136590222926264 -1 0 -1
364 1 12.60466948000828 8.720972559368775 10.248586215062149 0 0 0
1187 1 13.570204102591777 6.011266402112454 10.24708326724375 0 0 -1
436 1 13.789696259481701 8.467655584417837 12.793288166469809 -1 0 0