LAMMPS data file via write_data, version 29 Oct 2020, timestep = 300000

2048 atoms
1 atom types

-0.031975655574941086 28.383975655573366 xlo xhi
-0.031975655574941086 28.383975655573366 ylo yhi
-0.031975655574941086 28.383975655573366 zlo zhi

Masses

1 58.933

Atoms # atomic

35 1 1.7075830166067514 3.620028504490982 1.4460874361550027 0 0 0
130 1 1.9690885696523206 1.775424512773976 3.603316778887233 0 0 0
8 1 3.204578655523249 2.2017629336671978 1.7125767837166876 0 0 0
165 1 3.2206843105480503 3.386869578726641 3.6230400160649583 0 0 0
161 1 0.11925153771876609 3.6536738651723875 3.3476220662507195 0 0 0
4 1 0.2630307318157549 1.8422808101376875 1.597040845904984 0 0 0
133 1 3.4197824394301652 0.133672241068993 3.7610110476997134 0 0 0
129 1 0.04567760766261131 0.13104324601281694 3.5769877746666108 0 0 0
5 1 3.5194798349173233 0.3322992293890586 0.06048296400772557 0 0 0
12 1 7.204730650456928 1.9054025155197538 1.7984107062956813 0 0 0
39 1 5.442569961808475 3.6170483657212054 1.7155209953650354 0 0 0
134 1 5.081643442234559 1.8894191969676222 3.569703168591612 0 0 0
169 1 7.15269450288289 2.9468888538786575 3.859586396994027 0 0 0
137 1 7.02867235004595 0.15455867480690927 3.309025231580767 0 0 0
7 1 4.89587709568471 0.21945190016691057 1.943380566559155 0 0 0
9 1 7.010660472537774 0.22224322372482636 0.48778270519438505 0 0 0
6 1 5.296870043683581 2.068942752652128 -0.00663170326981799 0 0 0
138 1 9.008602754372589 1.9765286379672395 3.4772886025461034 0 0 0
16 1 10.578327101889474 1.7836314294522877 1.6450278921462167 0 0 0
43 1 8.844728781921276 3.284403970904153 1.6768227618871503 0 0 0
173 1 10.48655186716446 3.637206569715351 3.632436943550265 0 0 0
142 1 12.087029396602345 1.7893770328993421 3.659380966507091 0 0 0
141 1 10.385678173113979 0.010805934902066383 3.40112872047868 0 0 0
10 1 8.74763078333778 1.4883141360322998 0.045257180172583844 0 0 0
47 1 12.262166879240866 3.513714107223892 2.060399463187518 0 0 0
20 1 13.989724651405945 1.561896492590538 2.105008944669507 0 0 0
177 1 14.41152092279175 3.514777178258857 3.2575315739166424 0 0 0
146 1 16.052911970474426 1.4223193976584436 3.120171813393292 0 0 0
51 1 15.852918873282723 3.4785907932909477 1.7250138745862056 0 0 0
14 1 12.278440199044049 1.6442638733926371 0.034358919010193806 0 0 0
46 1 12.770473274299139 4.607224652663931 0.10786156436529962 0 0 0
49 1 14.459908561710686 2.993619500183024 0.20888145393601476 0 0 0
24 1 17.787778754699893 2.0575072151614866 1.7255904824011556 0 0 0
55 1 19.967892852104278 3.704123042527052 1.6781905928032215 0 0 0
150 1 19.424857604496218 1.615882200794574 3.568331911695836 0 0 0
181 1 17.735353136860155 3.535403170652839 3.326332962093094 0 0 0
23 1 19.04529881784923 0.1527491807572332 1.465642974071184 0 0 0
149 1 17.943199863811387 0.04591951974779107 3.391853153532188 0 0 0
28 1 21.080367863844458 1.4411799195018895 1.7634197689696323 0 0 0
59 1 22.865227701696057 3.671067081155052 1.869853669248498 0 0 0
154 1 23.1259066846593 1.7836009096903016 3.379047256507856 0 0 0
185 1 21.547342227464107 3.673221707919332 4.139065981133882 0 0 0
27 1 23.400866226347674 0.032913670568547104 1.514373036539631 0 0 0
153 1 21.346856962533472 -0.0100902877993434 3.6878795705624925 0 0 0
26 1 23.178751950813172 1.7090195858543933 0.019866972451987354 0 0 0
25 1 21.34602758389152 0.1479348672313825 0.04350585990375322 0 0 0
189 1 25.142716569603998 3.765399068466774 3.444848883657176 0 0 0
32 1 24.91683265294988 1.9905598021658641 1.632558708885705 0 0 0
63 1 26.674476540597404 3.4454100136903034 1.4054955450483473 0 0 0
158 1 26.660662307776022 2.036298436079532 3.4207376944791594 0 0 0
31 1 26.81614702353579 -0.01621035077938653 1.2813943734544915 0 0 0
157 1 24.928249254314338 0.41842137597744883 3.6638710570929445 0 0 0
69 1 3.3829148210956155 7.1862505456645795 0.23942843450264778 0 0 0
162 1 2.1338597099888994 5.146690058535559 3.4409915711211876 0 0 0
67 1 1.8506094381092628 6.9019152441852825 1.985148264705264 0 0 0
194 1 1.7301454633567286 8.809672322163067 3.745425989203397 0 0 0
197 1 3.6341841228634464 6.891626655190092 3.3094004707031575 0 0 0
72 1 3.8048559631959917 8.852982216667948 1.7613980294336806 0 0 0
40 1 3.622117411875999 5.398178492698667 1.241561230618627 0 0 0
193 1 0.1412119487898385 7.191944007816988 3.5646169294159615 0 0 0
68 1 0.31227200227616764 8.903292872820247 1.8860847074156644 0 0 0
65 1 0.326723194245272 7.316351657990124 0.4046987338064483 0 0 0
34 1 1.7059890357782932 5.340412936659547 0.14871120895457324 0 0 0
66 1 2.084283214343474 8.961177906770164 0.4846761407691247 0 0 0
44 1 7.205138684218658 4.788108093194681 1.7911437168957993 0 0 0
71 1 5.517394347621209 6.921815581656067 1.81129250417553 0 0 0
166 1 4.877949023706066 4.973671551560285 3.6259721409607346 0 0 0
201 1 6.978526759690178 6.757865408631547 3.2182367165142334 0 0 0
198 1 5.685774618524447 8.656962213760657 3.5908568868427078 0 0 0
76 1 7.059614986997986 8.838792296157013 1.8512928989375834 0 0 0
73 1 7.413490782941226 7.2420391663333055 0.22051280201965057 0 0 0
170 1 8.922584244923476 5.172894902959647 3.4130434844346653 0 0 0
48 1 10.66723715331893 5.067527550692032 1.9672616274952321 0 0 0
75 1 9.110972398157076 7.241418665286822 1.9624930312727433 0 0 0
205 1 10.731292392686186 7.347262193853795 3.554512588509468 0 0 0
202 1 8.637939885522577 8.82447493088475 3.466049338529589 0 0 0
80 1 10.840911003774044 9.108308929367004 1.6621803839575764 0 0 0
74 1 8.864379880303577 9.167336977722416 0.06647617076250262 0 0 0
42 1 8.998323931795666 5.188505544886289 0.2114924509165727 0 0 0
77 1 10.918947206156403 7.052464103966883 0.03339476726579704 0 0 0
79 1 12.362556152261044 7.219764224126365 1.5546049970177944 0 0 0
174 1 12.289102641510945 5.328011128614601 3.472530253485308 0 0 0
206 1 12.40664974988213 8.912151966813003 3.0886931702720104 0 0 0
52 1 14.067252687925249 5.219915876688597 2.00694035858039 0 0 0
209 1 14.147460534830747 7.156386056677578 3.146044765476289 0 0 0
84 1 14.192889443163834 9.27807238105843 1.505514205811078 0 0 0
178 1 16.152097725140074 5.2119375694442045 3.240119445800201 0 0 0
210 1 15.783702080867323 8.88458727775824 3.2034583488789874 0 0 0
81 1 14.315029125787058 7.144844702447879 0.2821135932878563 0 0 0
82 1 16.095336032883992 8.74004777425208 0.3639341632068991 0 0 0
86 1 19.788411408688873 8.564361710462338 0.20762551656412104 0 0 0
83 1 16.313837983324156 6.962436675533798 1.6856414917771607 0 0 0
182 1 19.575189828223124 4.910511682660301 3.5988318574549347 0 0 0
56 1 17.694891456655085 4.939073439111346 1.5853990883714109 0 0 0
87 1 19.736208577722266 6.6397918867910475 2.002407546647484 0 0 0
213 1 17.945255732009862 6.4040277230858065 3.371335111463187 0 0 0
214 1 19.929900003863906 8.515450775929402 3.517575553318486 0 0 0
88 1 18.14279493654214 8.54166997527629 2.0825634216024325 0 0 0
54 1 19.546145021415917 5.501539764740994 0.30043980217087807 0 0 0
60 1 21.489718600586187 5.402718175507906 2.1345484836171233 0 0 0
186 1 23.266767858668317 5.212378118367499 3.4134824141584095 0 0 0
91 1 23.165187301976687 6.826652331597855 1.855424296271483 0 0 0
217 1 21.506535651025636 6.838031827256146 3.647860103830018 0 0 0
92 1 21.74112097027725 8.987486505034694 1.816570909306981 0 0 0
218 1 23.179426060143783 9.100029270490689 3.4481928351656568 0 0 0
36 1 28.17754303713128 5.351277941026733 1.7689000929583891 -1 0 0
190 1 26.920906175419226 5.486736561518335 3.578387711797421 0 0 0
96 1 24.648856803509908 9.161199185180813 1.780966439443831 0 0 0
64 1 25.218511917992608 5.455900004862105 1.4939274424389657 0 0 0
221 1 24.64663633201291 7.043885782905409 3.488939592606317 0 0 0
95 1 26.7685704116916 7.332429677473329 1.4739959410274153 0 0 0
222 1 26.55766595789644 8.451367233245621 3.3648552617780454 0 0 0
94 1 26.671556288392594 9.004992483621226 0.2235451256277443 0 0 0
98 1 2.152293295742526 12.0473351760742 0.07230519881347122 0 0 0
99 1 1.4241782509716105 10.641112864765793 2.0130590913007196 0 0 0
226 1 1.2823111436916246 12.418525913179652 3.434516924349967 0 0 0
229 1 3.3149885068247382 10.622381829563858 3.34081528897361 0 0 0
104 1 3.6461001692915667 12.351580962907986 1.957176709362116 0 0 0
101 1 3.662027160334849 10.54623801188145 0.0673686158259905 0 0 0
1157 1 3.4303303084671644 14.003084324899268 3.5722104952116136 0 0 0
1027 1 1.932873366480266 13.833571645055978 1.7375654613907743 0 0 0
103 1 5.629808143495317 10.472572662010359 1.1786275783863456 0 0 0
108 1 7.054353310805395 12.40005125025998 1.8708329917382467 0 0 0
230 1 5.295921436342994 12.187608095988406 3.5826553871855156 0 0 0
233 1 7.018988495600248 10.707060316117186 3.151381665983227 0 0 0
1161 1 6.673269478530055 14.16962422853041 3.4612947521824546 0 0 0
1031 1 5.208563734720817 13.827432991950404 1.8305136344585542 0 0 0
107 1 8.89952053107369 11.205771362456208 1.8905252269655426 0 0 0
112 1 10.652813451913852 12.63100419448562 1.896236724913578 0 0 0
234 1 8.587594724886424 12.503134391052905 3.7238061433490426 0 0 0
237 1 10.222471051971521 10.427420446016617 3.7174801051391575 0 0 0
1035 1 8.717323351271146 13.940587661733945 1.5635998472421202 0 0 0
106 1 8.970936626560754 12.320094741880965 0.06551612491261238 0 0 0
109 1 10.646404817089683 10.970364296555674 0.14654222219617452 0 0 0
1037 1 10.707871589210415 14.13599806560326 -0.018231596716979936 0 0 0
114 1 15.9726957720209 12.305343970875429 0.28565998929009523 0 0 0
238 1 12.748402205377765 12.341631460318444 3.6189477527834155 0 0 0
111 1 12.250879826616186 11.10766995786534 1.8011813294434316 0 0 0
116 1 14.615650883033071 12.511300449626583 2.132704120257517 0 0 0
241 1 14.553630778990472 10.61531693466933 3.3957966816073903 0 0 0
1041 1 14.560632752666992 13.972554161239197 0.34132302904203016 0 0 0
1047 1 19.960646649367312 14.07444479316586 1.971556175238431 0 0 0
242 1 16.390758084920975 12.02570405101274 3.7402671791922684 0 0 0
115 1 16.24556697740286 10.769623958700487 1.730829371717871 0 0 0
119 1 19.78628508401961 10.504872792709124 1.9596210214277445 0 0 0
120 1 17.87402618490134 12.233522076178724 1.5603214609325649 0 0 0
245 1 17.99982689021229 10.20893014644891 3.50160678444621 0 0 0
246 1 19.546245265801787 12.443163751456645 3.630108122770337 0 0 0
1173 1 17.78348180489502 14.114605575463209 3.5211181931095505 0 0 0
117 1 18.174972946959784 10.103361608614971 0.31352157715155526 0 0 0
118 1 19.413805225940322 12.268161026776246 -0.002320466325741677 0 0 0
123 1 23.08018930856712 10.822608707057988 1.814806666717032 0 0 0
124 1 21.09665457110644 12.324015796079221 2.133051863362983 0 0 0
249 1 21.301291263430336 10.726759140988102 3.8184889389474357 0 0 0
250 1 23.067323438649368 12.528817901730319 3.8540757565705475 0 0 0
1051 1 23.119903248421508 13.70953646435464 1.9054878469218672 0 0 0
1053 1 24.18645635188298 14.02960681569196 0.11352393570484964 0 0 0
122 1 23.410460714987792 11.899148649312144 0.013766394090239942 0 0 0
225 1 28.10646748498955 10.328981527865066 3.4949393310239736 -1 0 0
100 1 28.198094615194833 12.366804475168681 1.7951389487525764 -1 0 0
128 1 25.03979383495635 12.353490893155517 1.7443679195282191 0 0 0
253 1 25.21882867206778 10.412153541423475 3.4570623333216286 0 0 0
127 1 26.843992761927034 10.611963381415432 1.7052833887383188 0 0 0
254 1 26.58544529095021 12.589025762534664 3.4892265065264096 0 0 0
1181 1 24.514891010661742 13.966699295786656 3.774048105792871 0 0 0
1055 1 26.496434616931104 14.023021887352261 1.504181760108186 0 0 0
126 1 26.38661204724444 12.502920156991177 0.01349868368023266 0 0 0
261 1 3.1355894015200025 0.27325883688063934 7.356305021894207 0 0 0
259 1 1.3778711448360867 0.19610240441242865 9.242289125438905 0 0 0
131 1 1.6482267569441795 0.21756777811620936 5.3521062278994 0 0 0
163 1 1.8058017817741139 3.4244988285823945 5.322427170362985 0 0 0
258 1 1.484864543594467 1.7641949624184443 7.1435966749631294 0 0 0
291 1 1.6566422380828163 3.4881698272739987 9.360541935534322 0 0 0
136 1 3.854418751130664 1.8752763705136606 5.420251082274647 0 0 0
293 1 3.0503618188190944 3.2342537191880254 7.401970154569119 0 0 0
264 1 3.373284203404839 1.7511305724252746 9.341601755541463 0 0 0
289 1 0.14664925083585992 3.5383864281634154 7.318742307001983 0 0 0
140 1 6.709967361772875 1.6743584215522016 5.738451701059764 0 0 0
167 1 5.648690438126317 3.593727151521961 5.605163741902403 0 0 0
262 1 5.409498127536688 1.4803785877150315 7.589742129673136 0 0 0
297 1 6.810709051548761 3.369198556816238 7.516781973956101 0 0 0
268 1 7.059473216129386 1.3094964181173594 9.002126944453574 0 0 0
295 1 5.154356539679869 3.33032777600334 9.119776118419953 0 0 0
135 1 5.201562821501764 0.015046465617934004 5.414617934958782 0 0 0
144 1 10.538776774261327 1.651780175378033 5.342260256467785 0 0 0
171 1 8.65955390205627 3.3174040235179407 5.418148283466988 0 0 0
266 1 8.752691029919825 1.573628079659026 7.042047376047083 0 0 0
301 1 10.579289630036783 3.3365265478489503 6.9261524694964605 0 0 0
299 1 8.87595040597302 3.4323889447932143 8.480969647097151 0 0 0
272 1 10.585142272074165 1.7470148052866101 8.710796358543066 0 0 0
275 1 15.986140065257485 0.014324815744205341 8.713090900145056 0 0 0
303 1 12.630371723062906 3.5172420593358646 8.547589040021604 0 0 0
270 1 12.579555505263105 1.5803176800456622 7.18738754633033 0 0 0
175 1 12.625396917763943 3.7112641413801875 5.41464975550735 0 0 0
148 1 14.231556821325196 1.6269426254394446 5.22886085189049 0 0 0
305 1 14.048050583232385 4.1818669712413525 7.112312848904202 0 0 0
179 1 15.801568135287157 3.3779618165694 5.040535600436219 0 0 0
274 1 15.638115587984673 1.7989546039582256 7.199233783933125 0 0 0
276 1 14.186777476328954 1.8712293560616542 8.933359194333967 0 0 0
307 1 15.767201668651365 3.8465027466276456 9.140206229996105 0 0 0
273 1 14.277185167259457 0.058712277331780235 7.163078899500526 0 0 0
152 1 17.50459464763115 1.8432773292883564 5.131974600250766 0 0 0
151 1 19.3772778044657 0.09379170698461792 5.282204426241324 0 0 0
277 1 18.02454979460059 0.05642571095537363 7.4567084390679526 0 0 0
183 1 19.362833341542263 3.391968939965137 5.280333400930099 0 0 0
278 1 19.501179344179683 1.7375386233326324 7.057601636028631 0 0 0
309 1 17.55780738438513 3.275337912500407 6.806200590253877 0 0 0
311 1 19.688721428037574 3.01909706945405 8.7627394983458 0 0 0
280 1 17.67667816126373 1.8788212287269257 8.944909025354347 0 0 0
147 1 16.515941970464645 -0.024281468723860892 5.643386459372108 0 0 0
156 1 21.143442946231353 1.6316513458437676 5.365074018721819 0 0 0
187 1 23.476827796300682 3.52545157177055 5.629760343522571 0 0 0
282 1 23.1040302694878 1.8114990890631746 7.207723774619107 0 0 0
284 1 21.301108996113257 1.4551931800140148 8.515167613617841 0 0 0
313 1 21.23837603541098 3.211937242029429 6.742524417531038 0 0 0
315 1 23.013611736147766 3.302945371794828 8.993694010686422 0 0 0
159 1 26.79114579077296 0.159084568883537 5.16532882580171 0 0 0
257 1 28.12568103731712 0.09412178749816355 7.635467694949775 -1 0 0
285 1 24.88917238407945 0.09816697639113414 7.077255901639948 0 0 0
132 1 28.22985196225519 1.9602280567105184 5.402367885433801 -1 0 0
260 1 28.092921791895236 2.0464801556706735 9.324898203029266 -1 0 0
160 1 24.90102523022952 1.8930368208278037 5.666083347027241 0 0 0
317 1 25.004053825467267 3.4351862059382805 7.456234674211075 0 0 0
288 1 24.873884740598214 1.6990046455728363 8.947061534620218 0 0 0
191 1 27.033066649976533 3.869754123756495 5.500667451306028 0 0 0
286 1 26.825251754441695 2.035596499799813 7.124468766414714 0 0 0
319 1 26.381794777709942 3.325648521795447 9.153311820191822 0 0 0
168 1 3.4173865575111133 4.798114821403679 5.870626570576238 0 0 0
290 1 1.4998025905325048 5.321085053861702 7.169517821490995 0 0 0
195 1 1.953681730486944 6.688085816498602 5.164232612279094 0 0 0
323 1 1.3384928524088406 6.880184959648576 9.135840363001801 0 0 0
328 1 3.3248388819222447 8.49699802124548 8.648686853084046 0 0 0
296 1 3.1208244725311083 5.096720269391326 8.86680692054237 0 0 0
325 1 3.3218790336513737 6.658436724034868 7.162579616770388 0 0 0
322 1 2.1175808063588013 8.698299418551281 6.829212652597428 0 0 0
200 1 3.684385105288008 8.800586971444732 4.907218489161814 0 0 0
164 1 0.14452762050420773 5.25919206595694 5.143908219127389 0 0 0
196 1 -0.018206614772203977 8.75530428452459 5.2693225088199895 0 0 0
324 1 -0.028212095766166505 8.881373315889181 9.104197843215086 0 0 0
292 1 -0.017596294914482516 5.089621343442172 9.197506140347864 0 0 0
321 1 0.20653621223102903 7.1377385202268915 7.329295968242218 0 0 0
172 1 7.084939471288053 5.180554440324042 4.895908512071232 0 0 0
294 1 5.77383723608432 5.333319893823675 6.901320887356229 0 0 0
199 1 5.035940488873408 6.854067844084051 5.073881818795783 0 0 0
329 1 6.9561172148123 6.924876733321842 7.1506448240244715 0 0 0
204 1 6.876945921431509 8.396106566906251 5.417314504933117 0 0 0
326 1 5.228600530997232 8.656145765484595 7.05768084772625 0 0 0
332 1 7.199576081929708 8.73583424595602 8.533959365329773 0 0 0
300 1 7.1050490404703215 5.136745787589582 8.826053105951186 0 0 0
327 1 5.488602546135126 6.846169684033703 8.689316963197204 0 0 0
298 1 8.723107474410117 4.981062714676922 6.961734573424747 0 0 0
203 1 8.93893666810034 6.96162985459442 4.858718635694454 0 0 0
176 1 10.786526401751413 5.204166034903179 5.369388752727284 0 0 0
208 1 10.346570771641035 8.835558486919348 5.446812636277346 0 0 0
333 1 10.719688517286897 7.066651085694877 7.066491805125071 0 0 0
331 1 8.952008074098984 7.2695831353863385 8.825847405231714 0 0 0
304 1 10.688581600738395 5.316861375325023 8.704181688726376 0 0 0
330 1 8.820964235126656 8.831584831314675 7.072332677892729 0 0 0
336 1 10.788195188513939 8.67482106963295 8.73091772988916 0 0 0
335 1 12.144503167614577 7.102262059503122 8.806917649921681 0 0 0
302 1 12.531806199116177 5.625773199778892 7.067034535073789 0 0 0
207 1 12.669512160804906 7.368448233385809 5.068712895953173 0 0 0
334 1 12.469520212185678 9.172748082065572 6.945575179348187 0 0 0
308 1 13.940845081722388 5.355012405058755 9.130597997973103 0 0 0
180 1 14.155663630747595 5.363484132070157 4.790866499968565 0 0 0
337 1 14.342830402897052 7.435069080074882 6.931137111040682 0 0 0
212 1 14.35595257222296 8.722027691534576 4.970469198894512 0 0 0
339 1 16.09291904559975 6.918627851286842 8.654662535466512 0 0 0
211 1 15.941298282895797 6.912598933618872 5.156255328491853 0 0 0
306 1 16.130456770775865 5.462476615102775 6.969452376449845 0 0 0
340 1 14.186486247081573 8.725973415248221 8.882376539096935 0 0 0
338 1 16.404688670072844 8.525588935783889 6.795187047466405 0 0 0
312 1 17.796963689119444 4.786084396040758 8.381707662783185 0 0 0
184 1 17.63887394621863 5.103188646943141 5.3505352084186315 0 0 0
216 1 18.147979601154553 8.649953374894107 5.284533918581849 0 0 0
215 1 19.325638150398092 6.714216817905988 5.177570667302299 0 0 0
341 1 17.80931753355175 6.946474273891092 7.023232011408404 0 0 0
343 1 19.73016205717842 7.02906654815144 8.928705338050973 0 0 0
344 1 18.194780670901125 8.489990629077278 8.84993460129328 0 0 0
310 1 19.50864469222123 5.046574338975516 7.010806901105147 0 0 0
342 1 19.74845706293482 8.566788931815733 7.069199442874656 0 0 0
188 1 21.808749283349457 5.394475387154535 5.4959193091890794 0 0 0
219 1 23.37551370930224 7.186520344635824 5.534349935827767 0 0 0
314 1 23.171239134841258 4.9587487008865345 7.238084258848342 0 0 0
316 1 21.145241242887494 4.888598431668989 8.576254619787873 0 0 0
345 1 21.545363188553225 6.776252284792057 7.1548201574528285 0 0 0
348 1 21.583120492915292 8.81285803906838 8.831499974261659 0 0 0
346 1 23.51112798452705 8.555516798277182 7.391893603251784 0 0 0
347 1 23.065611806461916 6.815554843824274 8.823292962826706 0 0 0
220 1 21.72585218988138 8.608863235058974 5.455088615067918 0 0 0
320 1 24.746574677107795 5.203158504560007 9.30691347506591 0 0 0
352 1 24.881127031854568 8.791183670694263 9.118724484299326 0 0 0
224 1 25.23028840824957 8.704066093298053 5.182876769885517 0 0 0
192 1 24.843036785354144 5.311179758823346 5.320232306134713 0 0 0
223 1 26.534468707086894 6.81909488670203 5.548366051641861 0 0 0
349 1 25.052820131119226 6.788053460868017 7.265959268585993 0 0 0
318 1 26.718229410849787 5.258693105294588 7.336671895813818 0 0 0
350 1 26.758768991626383 8.61580487189755 7.210929242529505 0 0 0
351 1 26.843125030705735 6.884147609707959 8.949316361995233 0 0 0
1155 1 1.552999698814221 14.06399473754656 5.3106144424604 0 0 0
227 1 1.6226976905915873 10.489470594193577 5.341751952615643 0 0 0
232 1 3.4291479505036495 12.290774321630536 5.244228861534598 0 0 0
354 1 1.2204482268610686 12.259356657962096 7.260860536544761 0 0 0
355 1 1.8845405496646033 10.652699468732141 9.045620501085601 0 0 0
357 1 3.1554219696822967 10.481594854754999 7.153797801256929 0 0 0
360 1 3.5003611101085053 12.481515176622121 8.788410152774711 0 0 0
353 1 0.1510333604992411 10.135748747981124 7.137745584647379 0 0 0
1285 1 3.0939235615352447 13.865052779147264 7.17183549265124 0 0 0
1287 1 5.48462627024383 13.978187365637575 8.823644570968051 0 0 0
236 1 6.6803278614776005 12.709576731914087 5.318452472062322 0 0 0
231 1 5.564942171168888 10.394789040743335 5.429146459182806 0 0 0
358 1 4.984810370348366 12.078413921265462 7.013720269334952 0 0 0
361 1 6.989305386729662 10.758092962477605 7.102613809288678 0 0 0
364 1 7.199756414670958 12.515664376576337 8.591112830587665 0 0 0
359 1 5.275801572861001 10.482406865309311 8.736895531806537 0 0 0
240 1 10.593595330020081 12.36898211200905 5.032684248218244 0 0 0
235 1 8.2178147583706 10.357134283305294 5.252641195538466 0 0 0
362 1 8.828950149665353 12.444991512429315 6.913783391960525 0 0 0
365 1 10.263968629227126 10.677876505404518 6.652345777599648 0 0 0
363 1 9.035413702343167 10.21603322164557 8.830486911546446 0 0 0
368 1 10.407232084190264 12.326205108150685 8.865004013928226 0 0 0
239 1 12.13842769260899 10.711966266706568 4.931804259428169 0 0 0
1291 1 8.542221931726226 14.108168289814131 8.39438466512911 0 0 0
1163 1 8.877185890455328 14.063152026141541 5.090231338807042 0 0 0
1293 1 10.787792881250025 13.750485962468918 7.027040414006081 0 0 0
1167 1 12.461710739416505 14.10304094788587 4.929633424788645 0 0 0
367 1 12.53624080275116 10.64699097625891 8.910644458674662 0 0 0
366 1 12.814130070607376 12.337257118903198 6.658637474782123 0 0 0
244 1 14.69427282283228 12.163903933596725 5.330527094740589 0 0 0
369 1 14.434501487671119 10.418684795648453 6.998771204520544 0 0 0
372 1 13.992178785508932 12.662879429521846 8.828988636274845 0 0 0
243 1 16.187040001301426 10.515905160198189 5.2341198949326495 0 0 0
371 1 16.248058187381382 10.012249533291303 8.520953261643278 0 0 0
370 1 16.23507191336808 12.639404237193178 7.251309314161225 0 0 0
248 1 18.153438696784235 12.00636555446371 5.2807857174321615 0 0 0
247 1 19.694159707064912 10.312076273253066 5.246698836029462 0 0 0
373 1 17.899099288785585 10.45177548624954 6.902592812083205 0 0 0
374 1 19.57733218683869 12.016020433375386 7.11475948467657 0 0 0
375 1 19.57803235995062 10.126608418785457 8.978896252999268 0 0 0
376 1 18.137677277668267 11.896704413947374 8.634940047142052 0 0 0
1301 1 18.07136228864414 13.973333265109103 6.758698682366931 0 0 0
251 1 23.362478793518065 10.190228857621833 5.342233628151801 0 0 0
252 1 21.188584603080443 12.550130207785411 5.441040174061771 0 0 0
379 1 23.214959109174885 10.395545895901659 8.914815031787851 0 0 0
380 1 21.332092122816988 12.141355000806213 8.925435811783528 0 0 0
377 1 21.3300473055653 10.32672038617892 7.011690441487351 0 0 0
378 1 23.059151855502158 12.07102847915708 6.984030419920917 0 0 0
1307 1 22.94773143997174 14.08443040385974 8.333527497606525 0 0 0
1311 1 26.823980318174947 14.012959020407418 9.108503237011096 0 0 0
356 1 28.272645937526462 12.18550776285969 8.892016868503124 -1 0 0
228 1 28.14254864598125 12.119534282714454 5.241213155846171 -1 0 0
383 1 26.63782649887817 10.337657057919888 9.009270056128832 0 0 0
384 1 24.68076978917515 12.029132503056108 9.2198970100428 0 0 0
256 1 25.01871415653811 11.869969766532591 5.204610827234136 0 0 0
381 1 24.92718664227543 10.395915025565799 6.887100435049274 0 0 0
255 1 26.716851355771517 10.190675871851191 5.270612192443341 0 0 0
382 1 26.803332303549716 11.896125502069918 7.187329281490636 0 0 0
1309 1 25.198185263823234 13.685394072173548 7.398966894975787 0 0 0
1183 1 26.42489994035453 13.78339774133488 5.263979380006767 0 0 0
389 1 3.619225589761046 -0.02245339864349205 11.106947030778752 0 0 0
386 1 1.5753541724007705 1.988688866646576 11.100426718671592 0 0 0
419 1 1.7656905022163318 3.55884132327334 13.073892783367096 0 0 0
421 1 3.4831809989197122 3.7665914856153875 10.740221269315173 0 0 0
392 1 3.5454826811305655 1.9560839407500197 12.51142982211501 0 0 0
387 1 1.4967980473144022 0.039203443436796534 12.405190494278658 0 0 0
514 1 1.7391749067882156 1.6269747681444184 14.138643004271554 0 0 0
517 1 3.5394367297517295 0.11153970020805806 14.062868338756184 0 0 0
391 1 5.229884939245693 0.12967684409463942 12.77847176453448 0 0 0
390 1 5.263115637780508 1.665111515137554 10.881930591604641 0 0 0
396 1 7.219880055836211 1.8563375101236306 12.597480874172081 0 0 0
423 1 5.590434939923639 3.7950697204263304 12.72110166264567 0 0 0
425 1 7.050014065480766 3.3761665658591906 10.808020815226438 0 0 0
521 1 7.336989794505325 0.12875261556858322 13.98792272433602 0 0 0
557 1 11.00944557312046 3.7027495379504116 14.096564825461765 0 0 0
525 1 10.901057918337074 0.29188280461087857 13.563032599322511 0 0 0
427 1 9.020645478249127 3.393486024925372 12.540785860818813 0 0 0
394 1 8.734728588606028 1.9064682766328729 10.412723565477705 0 0 0
400 1 10.645180518197938 1.923668468611307 12.024583479560388 0 0 0
429 1 10.99882284685078 3.371738356169281 10.271323222330187 0 0 0
395 1 8.74650377934553 0.012565659980997727 12.334637379619409 0 0 0
561 1 14.04605522916573 3.787150622469723 14.012158832807827 0 0 0
530 1 15.88114990035511 1.8616871885546953 13.81863675562969 0 0 0
403 1 15.924622626767682 0.1579177583567854 12.43655212314797 0 0 0
431 1 12.212821866334075 3.8716763033187283 12.309889944752564 0 0 0
398 1 12.412579653986521 1.7453095431144336 10.277306830497155 0 0 0
404 1 14.122315703751596 1.7557661140392606 11.842692402213087 0 0 0
433 1 14.180804248876479 3.85453060620657 10.865453274711012 0 0 0
435 1 15.746540129263437 3.5396800513095545 12.311229003393674 0 0 0
529 1 14.087777396130873 0.15184475520176477 14.005735115476975 0 0 0
526 1 12.627906498312022 1.7975924164975854 13.779490994567386 0 0 0
405 1 17.80192406388175 -0.03178849060266939 10.954308224890495 0 0 0
407 1 19.506512643768943 0.03834710565985944 12.697910517693266 0 0 0
402 1 16.29740728110086 1.8170649262056686 10.400376245853883 0 0 0
406 1 19.307101730132686 1.5925254942543647 10.49803119871729 0 0 0
408 1 17.809822785257943 1.8754777393146416 12.12934991630973 0 0 0
437 1 17.845318587180998 3.697903523322237 10.588176009804805 0 0 0
439 1 19.4570132976218 3.4277397011947675 12.240617146406242 0 0 0
565 1 17.432426392786553 3.3310039133963336 13.803011775537318 0 0 0
534 1 19.25788635956126 1.7982644191275932 13.986097747104441 0 0 0
411 1 23.028359606685683 0.049970766440607536 12.472093321386406 0 0 0
410 1 23.036599397097618 1.6001901633481583 10.725262614433051 0 0 0
412 1 21.348039279981037 1.8776684450013046 12.592224529912206 0 0 0
441 1 21.197178044265698 3.4163730600326057 10.600337143548805 0 0 0
443 1 23.04032650046392 3.576725814582758 12.211372590422016 0 0 0
409 1 21.24689775132277 0.17465449301127856 10.881790914020156 0 0 0
569 1 21.15351473262656 3.521472633571557 14.117298924176156 0 0 0
417 1 28.121616577331828 3.423145960498522 10.996431629125675 -1 0 0
388 1 28.215210540201376 1.8935097635980451 12.64842905112702 -1 0 0
445 1 24.646548606448548 3.1602692082057042 10.633802990680076 0 0 0
416 1 24.936936692083634 1.5921365570402815 12.738315662700808 0 0 0
414 1 26.45719796034797 1.6332091027013456 10.995384852099376 0 0 0
447 1 26.399646347658454 3.6693855881899435 12.574958285834988 0 0 0
385 1 28.289620053721848 0.22780218031240307 10.962566322400178 -1 0 0
413 1 24.650178846797004 -0.02565915307830835 10.776615949838106 0 0 0
545 1 28.042944252520428 3.9046097298915083 14.124324853278793 -1 0 0
418 1 1.7485825996705278 5.185946892848503 11.129003921754416 0 0 0
451 1 2.207176311765143 7.352221671572543 12.210553588357591 0 0 0
453 1 3.8933967490416457 6.996474259815122 10.66718016978345 0 0 0
424 1 3.485742564772071 5.302725611533804 12.688668613928776 0 0 0
450 1 1.8395721570724133 8.657257999144244 10.701774490207528 0 0 0
452 1 0.03169623150512779 8.862676674772509 12.341341170807446 0 0 0
449 1 0.09666215798259259 7.088736517368575 10.942509683693174 0 0 0
420 1 -0.0020458754969396864 5.221410890789722 12.373356718588852 0 0 0
546 1 1.856895886990949 5.541860296009054 14.040596176928728 0 0 0
578 1 2.1869090823082495 8.874427609315061 14.132672785485624 0 0 0
456 1 4.056879367095229 8.776116362738097 11.944168267922663 0 0 0
428 1 7.403498284099422 5.34243338331977 12.232430436614825 0 0 0
422 1 5.288027618388145 5.145054571533455 10.492421713653377 0 0 0
454 1 5.4683617607200405 8.647337410106058 10.012664707872645 0 0 0
455 1 5.376028855549484 6.7926743464359465 12.182079284289024 0 0 0
457 1 7.164450562589247 7.104750877723594 10.407805811488663 0 0 0
460 1 6.9668436527206365 8.753925801867894 12.165040118873264 0 0 0
582 1 5.2958208181740005 9.150906714543355 14.136477533467334 0 0 0
458 1 9.162239764187278 8.857015152038281 10.647949418985302 0 0 0
426 1 8.657620936358699 5.006423479705872 10.256761440468992 0 0 0
432 1 10.589294257138102 5.411897698745225 12.207749151466885 0 0 0
459 1 8.879817697836021 7.235770485455742 12.257348180842488 0 0 0
461 1 10.621473663811287 7.014338136334954 10.40077325543287 0 0 0
464 1 10.501798454760593 8.856981537542783 12.521374425158678 0 0 0
589 1 10.57229458612017 7.19168502231298 14.016893481543821 0 0 0