LAMMPS data file via write_data, version 29 Oct 2020, timestep = 300000

2048 atoms
1 atom types

-0.11530414059424032 28.467304140591523 xlo xhi
-0.11530414059424032 28.467304140591523 ylo yhi
-0.11530414059424032 28.467304140591523 zlo zhi

Masses

1 58.933

Atoms # atomic

165 1 1.2458432364744998 3.2137128383774916 1.1454371815002644 0 0 0
8 1 1.8536075998872177 1.0815491388741587 2.6337483276523592 0 0 0
166 1 3.151819945310072 3.356301894979554 3.0476977783454973 0 0 0
30 1 3.5613210875913137 1.5713356401620342 1.0159920579803012 1 0 0
63 1 28.354826432030595 1.3347941977218505 1.4711027588194727 0 0 0
33 1 5.088951208562102 3.2037458419986473 1.6476957642382781 0 0 0
134 1 5.244245225216607 1.5905976886508209 3.0010110586655925 0 0 0
140 1 6.844540133319092 3.4262889910592316 3.2396057958000437 0 0 0
12 1 7.193656889986588 1.2608538955257087 1.8329585476809716 0 0 0
1561 1 19.468286317714966 13.726279882157565 12.109752667387239 0 0 0
167 1 8.917273178841668 1.3006146525070261 3.4229827680363205 0 0 0
169 1 8.839867647741094 3.159168545611469 1.8205901662010067 0 0 0
139 1 10.945124980650892 1.4388081773559231 1.8373962394692862 0 0 0
2032 1 10.3772340669328 2.950506046731473 3.6419109076218343 0 1 1
996 1 26.64339674917641 11.99699009503264 0.03434805650491762 -1 0 1
1165 1 10.32097455555931 14.082701269254027 3.5489286339586315 0 0 0
143 1 12.386812268150656 1.3911692681958234 3.7765861703648813 0 0 0
138 1 12.79202666831172 3.2267491543168845 2.051670688034177 0 0 0
2036 1 14.185057504351796 1.3798607590911258 1.8313280295582708 0 1 1
429 1 14.640816223780574 3.201316086382756 3.6920583454048383 0 0 0
1108 1 16.02256766228153 1.3381985177448037 3.685720010068803 0 1 0
177 1 15.877512712867764 3.1017790072601237 1.5758229147210407 0 0 0
509 1 24.77166754057919 12.195229412856664 12.29717002585601 0 0 0
508 1 22.74139239402629 14.116169169903944 12.333848282898813 0 0 0
1049 1 21.744200908943064 14.140550337513519 0.24151108141630184 0 0 0
57 1 19.662972430674373 3.606905954865241 1.7788492851480544 0 0 0
22 1 18.02592220172193 2.048211812997795 1.7790108978674561 0 0 0
53 1 17.83458652014029 3.451541100591602 3.6150082612149217 0 0 0
150 1 19.89248625231348 1.8697417973518597 3.2777507276072875 0 0 0
146 1 14.231794511134643 -0.07996853521800842 3.5242357808571905 0 0 0
437 1 23.03322747769347 1.464335443067585 13.55029557819091 0 0 0
26 1 22.65640789595842 3.618820524129083 2.1982941432412098 0 0 0
55 1 20.995004399640592 3.9671402971972283 4.045696705465155 0 0 0
185 1 21.44853601466432 1.813329554248636 1.7988594269925366 0 0 0
155 1 23.035911222835114 1.6163573349661298 3.4823274599033476 0 0 0
1283 1 1.4300419399657498 14.154792063517537 8.735757912003661 0 0 0
161 1 0.20406098783373494 3.0068798049902776 2.9525515219855603 0 0 0
189 1 24.75936715748209 3.4497531947617177 3.7905610754815036 0 0 0
158 1 24.576130090428062 1.8618733647183132 2.1308227860098063 0 0 0
193 1 26.74228245189626 1.5680003764332207 3.612124175309629 -1 0 0
64 1 26.21421959965341 3.308639851518209 1.6902466819636635 0 0 0
92 1 21.37400192041485 10.835486230602498 0.4858129586953056 0 0 0
31 1 0.02643460178599355 -0.10956288167255251 3.707005899208703 1 0 0
1177 1 21.57690255165114 13.860769041559287 3.5202769239379754 0 0 0
163 1 1.5383190313188793 5.2841183603760715 3.248667441992593 0 0 0
68 1 1.6161482483274718 7.419312588858245 1.653100490059168 0 0 0
995 1 2.0234516236228277 8.617808982042769 3.43300731097764 0 0 1
69 1 3.16947511850869 5.502526574422032 1.584488742423723 0 0 0
76 1 3.662713893135488 8.810582859331904 1.8051811354824563 0 0 0
197 1 3.653126676180141 6.982739830713445 3.805453845142562 0 0 0
162 1 -0.08903427805597179 9.02615500005769 2.026667523041574 0 0 0
243 1 14.416805526990434 13.990207277631537 3.5981396345700434 0 0 0
633 1 21.159728412553648 13.726673536523842 10.599256240270476 0 0 0
592 1 12.370348202100029 8.698234301375841 14.014944461777436 0 0 0
40 1 5.306138560580259 5.362554252111992 3.3922292489884294 0 0 0
201 1 7.066357991827724 5.486460876516291 1.7541103948282435 0 0 0
72 1 4.89873444656557 7.0935727035825495 1.5548871473705634 0 0 0
202 1 7.264480939956432 7.365281862637128 3.47653388236359 0 0 0
357 1 5.304543165157871 8.789376012217302 3.4821917491299526 0 0 0
38 1 7.238057582422628 9.053484833080313 1.6507385764556382 0 0 0
949 1 14.136977941244936 3.4571348306189673 0.19290592098155412 0 0 1
170 1 8.753963953528451 5.066568615392613 3.5775639090520257 0 0 0
48 1 10.927925919937412 4.982705576251212 1.6586972753946219 0 0 0
209 1 10.549348382629464 6.731150707297814 3.456246991263635 0 0 0
80 1 8.854187407750201 6.688003506356254 1.4722627482276636 0 0 0
1003 1 10.33513174295407 8.70598255224225 1.526196283549596 0 0 1
205 1 9.16963991042526 8.789516453803458 3.9785992069760336 0 0 0
212 1 11.725190051182592 7.0280294085498065 1.5890494818378118 0 0 0
61 1 26.090687829450204 1.2891485568980532 0.4227485825383632 0 0 0
382 1 0.051232289798895936 13.931210403287396 7.182913309805299 1 0 0
594 1 14.181601988834359 6.821673474174068 13.988096238135995 0 0 0
47 1 12.437983651659447 5.84319528719658 3.355826887351033 0 0 0
52 1 11.836318578394888 8.897670138054758 3.6405942887516836 0 0 0
79 1 14.354078409570599 5.12949476961616 1.8416061213430186 0 0 0
207 1 14.129772605098784 7.208794689595742 3.5983035867734268 0 0 0
84 1 13.776389255128311 8.752296491383762 1.817821028807721 0 0 0
49 1 15.933059296037111 5.443271713936536 3.2746195096956425 0 0 0
85 1 15.562761797560078 6.906604388608767 1.4434252335014173 0 0 0
210 1 15.40078858823015 8.714575035327918 3.3173056457702197 0 0 0
634 1 21.153846503384113 13.771396333991564 13.909497712072616 0 0 0
619 1 10.504032024711222 6.283620588315301 13.805129782277259 0 0 0
183 1 18.9782499615122 5.785810670752698 3.4896024109935473 0 0 0
188 1 17.402203515514962 4.7169185848320385 1.6724307098420237 0 0 0
218 1 19.11993792700738 6.820179486369516 1.2720289398214395 0 0 0
982 1 17.423164517819416 8.729940360071422 1.1063780254543358 0 0 1
214 1 19.01843078562875 8.492894565725928 3.01154504796375 0 0 0
213 1 17.278260964804122 7.116353292228142 2.9425609622730935 0 0 0
1038 1 10.484147720846263 14.141637880486012 0.11730405298927757 0 0 0
51 1 17.459098245688917 5.540276190022482 4.931375914198534 0 0 0
217 1 20.862019760055617 5.520175966557759 1.820952220060941 0 0 0
160 1 22.957819275922716 5.934137485959015 3.5369606777845415 0 0 0
54 1 23.079492576632646 7.420842030343181 1.9412003745424897 0 0 0
221 1 20.69889174072255 7.175011294889607 3.5485318981115204 0 0 0
123 1 22.781481858616424 8.90240064781471 3.677705140533628 0 0 0
122 1 20.586768399829623 8.35391609721796 1.6489239410317493 0 0 0
220 1 20.841679091835683 8.852339597149529 4.914210071228394 0 0 0
249 1 21.40379801163927 6.704582482022854 0.00341801082261059 0 0 0
32 1 26.005292645612112 4.812017427230136 -0.05439780254130284 0 0 0
1486 1 7.088751955654817 0.22336540817320483 10.108922698150835 0 1 0
36 1 28.335116057411927 5.134188649133408 1.2382214840694314 -1 0 0
222 1 28.36715863521715 6.8612436806862 3.20296440335637 0 0 0
186 1 24.564257904223453 5.003111888417809 1.8100929251064117 0 0 0
192 1 24.8327839781931 6.997937531312629 3.2272977812959223 0 0 0
96 1 25.077838885518652 8.690143041150614 1.6095117242800296 0 0 0
59 1 26.795007576471537 4.434612947460073 3.4842546533234016 0 0 0
66 1 26.70743600422902 8.398665210014572 3.3633803362259767 -1 0 0
95 1 26.29314343388887 6.399747412027023 1.8421781794807002 0 0 0
484 1 25.394964865020537 10.18730682677977 10.482597662372294 -1 0 0
103 1 1.6645774917860987 10.585719205339284 1.7276782048286674 0 0 0
196 1 1.8489787056028408 12.528199458971686 3.7009669939050647 0 0 0
229 1 3.225346382762937 10.615269740996803 3.425817433171729 0 0 0
1027 1 3.091351819770576 12.473118952772596 1.6704375130913538 0 0 0
225 1 0.18191248563534818 10.62465105543563 3.5848185262015706 0 0 0
102 1 1.363020061811793 12.478528480898534 -0.01181258723109399 0 0 0
274 1 10.256694995972852 0.023884902259028395 10.323692413723679 0 0 0
198 1 5.257078846922876 10.41170745382673 1.8246753779171145 0 0 0
104 1 5.166625146021645 12.34605001295844 3.3821544914715127 0 0 0
109 1 6.8621490488857795 11.9369559675996 1.2999121723660174 0 0 0
204 1 7.1535249259987035 10.086057098252917 3.745886086031011 0 0 0
1409 1 0.12987190543077676 12.120708918192792 12.364286722872452 0 0 0
107 1 9.402346825927017 10.82936108428917 1.5994354380090965 0 0 0
111 1 10.20967287042002 12.844848074079675 1.8653709665336293 0 0 0
241 1 10.239207203168368 10.74887487025345 3.4085144209056826 0 0 0
112 1 8.181478456326193 12.345041913253143 3.244453932867095 0 0 0
78 1 11.942793858293092 10.667657806409538 1.517695248423529 0 0 0
238 1 12.01997115217589 12.166216059948686 3.3295481438186134 0 0 0
397 1 9.105258415914507 0.2080711802582364 8.447184934429025 0 0 0
933 1 1.7409527921644252 8.923652205246437 0.15899408796008374 0 0 1
116 1 14.424153865014027 11.732092749826078 1.6508884503449615 0 0 0
242 1 13.980307998731982 10.475547508666677 3.358473925867715 0 0 0
1045 1 15.667994044596453 10.073487909217002 1.3506692759555676 0 0 0
373 1 15.93912369974963 12.274466064675572 3.797597210760056 0 0 0
1406 1 24.65007728805864 -1.6818228404047453e-05 7.111681476053366 0 1 0
502 1 19.402257337873902 13.816388196620624 8.915690385170278 0 0 0
129 1 1.42500660622392 0.15668991562465107 5.339531846127368 0 0 0
601 1 21.317991123117654 7.040921042712044 14.146008381484378 0 0 0
88 1 17.08096933580499 10.468006910450692 3.046638289876028 0 0 0
115 1 18.28259216064208 12.776205384895139 2.302075560338747 0 0 0
119 1 19.277436129479373 10.429185289993674 1.7510740486762106 0 0 0
246 1 19.734336172785863 12.448270223527464 4.096587480541604 0 0 0
277 1 16.479051322336755 -0.0384303561116152 1.855442590851792 0 0 0
611 1 3.7441370364317885 10.702372971747879 13.847565165491092 0 0 0
569 1 19.191565261617477 -0.033334555939571686 12.199137050595267 0 0 0
595 1 17.894279172563547 6.854998190699502 13.729178513955851 0 0 0
400 1 12.108780185262201 -0.05531323290798894 12.402455173075971 0 0 0
247 1 21.32645869751544 10.608622382004025 3.138530288540273 0 0 0
124 1 23.507118373523078 10.590858828080743 1.8463854832414226 0 0 0
250 1 23.31717124702797 12.41097729968207 3.504894457724968 0 0 0
118 1 20.918819862013443 12.38416568312875 1.7954407996837896 0 0 0
518 1 6.772587696753604 3.1426046569230452 14.064427565075277 0 0 0
587 1 5.252767413172694 8.589603625235048 14.14137673025491 0 0 0
511 1 26.817960166009694 10.714243397860951 12.261375413262385 0 0 0
1178 1 21.392246249587387 14.150122750709766 7.090208981904977 0 0 0
519 1 5.145894027648981 1.4468607135870066 14.04905997938082 0 0 0
1153 1 28.365333067210205 12.434698156492898 1.8233656964088651 -1 0 0
1053 1 25.312705610237035 12.655001454307442 1.8492961677979889 0 0 0
94 1 24.8456262302878 10.668178878046696 3.5834159103248338 0 0 0
97 1 26.61180278247787 10.480115954763514 1.9888037863953323 -1 0 0
1181 1 26.550457191724792 12.319635170275289 3.6381431034667004 0 0 0
290 1 1.267696763860718 3.1604528684847777 4.950430970788229 0 0 0
258 1 1.4527477741731627 1.6650745492600012 7.148825102694499 0 0 0
418 1 1.8678689880833734 3.8070071619445613 8.733849459488894 0 0 0
136 1 3.4702661562958363 3.3630804076806617 6.80441935511778 0 0 0
131 1 3.537443623444848 1.3567360329183253 4.993507137028098 0 0 0
1507 1 3.2315454567143274 1.4360451182544307 9.030554319525923 0 1 0
130 1 27.8833979487225 0.9458338326887343 5.567224003881841 -1 0 0
117 1 13.778576306877486 7.17267829879799 0.1411664789107263 0 0 0
293 1 5.295144848391329 3.246997482172338 5.384596994884851 0 0 0
268 1 6.978776122821574 1.7247237829748885 5.31178023997189 0 0 0
264 1 5.3247516367584184 1.3949073320823595 6.907644365872088 0 0 0
297 1 7.057567484081598 3.32376535687353 7.1703529288703605 0 0 0
300 1 4.8868234683527625 3.305585155659417 8.409530069817885 0 0 0
1388 1 6.748271914257116 1.7315025631460137 8.63857950314749 0 1 0
298 1 8.724383110707016 3.4016741130991868 5.009111630002814 0 0 0
506 1 26.46934857988201 12.365360012444812 10.345630503834467 0 0 0
181 1 10.649910693941411 1.5277162222189322 5.260857788310017 0 0 0
262 1 8.849921974515993 1.9986659611051607 6.690910573626472 0 0 0
175 1 10.938945740855004 3.3879884250593584 6.797574636899992 0 0 0
1514 1 11.05487258393958 1.4127471745636004 8.400958799852763 0 1 0
586 1 8.691016374039908 3.313415694208481 8.960778818625142 0 0 0
180 1 12.41290302281111 3.381510229513082 4.522823063004121 0 0 0
353 1 -0.009618204437742861 10.181339413215632 10.724741502337492 0 0 0
977 1 17.465652198354668 10.74190763201046 0.00789187804402916 0 0 1
301 1 12.481233225252518 3.1483753151550453 8.849935042510635 0 0 0
303 1 12.611291003628875 1.5484571808866043 6.587131424767996 0 0 0
176 1 14.428654903185762 1.7372050418115559 5.224014491501077 0 0 0
308 1 14.107457535433372 3.205584424689587 7.303067118517799 0 0 0
461 1 14.009443612366717 1.4965481888279624 8.818074851919384 0 0 0
302 1 15.804100814983219 1.3156578825394938 7.144622571629138 0 0 0
148 1 16.131814556856316 3.4518586046723114 5.341831883760922 0 0 0
1396 1 15.795264012834924 3.183742750309877 8.852043930419871 0 1 0
582 1 5.359437479332153 12.321026108512086 13.847608347542561 0 0 0
337 1 14.344851565888447 4.929376289140099 4.948317595621359 0 0 0
309 1 18.178643484559082 1.3955932034478207 5.565745797178902 0 0 0
187 1 18.669008581943427 3.66299542357636 5.635110020657108 0 0 0
152 1 17.53839605783446 2.9995137640865184 7.545745037904809 0 0 0
278 1 19.505977683093853 1.6230753189589042 7.147395670407294 0 0 0
406 1 17.419350664900886 1.1399205394273253 8.970741873078996 0 0 0
284 1 19.748856949945775 3.61672212963043 8.159901043941694 0 0 0
931 1 1.6894500887533008 5.267674793906364 -0.048194936569817534 0 0 1
151 1 21.30277111559509 1.7446318928696118 5.062301545943705 0 0 0
154 1 23.085643702800265 4.073824815476133 4.953727737620349 0 0 0
315 1 23.161345582484767 3.308229550091723 8.552044286796828 0 0 0
438 1 21.166159335950763 3.525729634709814 6.295637314896698 0 0 0
286 1 23.4249015822161 1.8905626428584412 6.619189645120094 0 0 0
1376 1 21.591186905218564 1.9698467614160085 8.419601312244264 0 1 0
288 1 24.658673377610203 1.7484443012475854 9.344402294538554 0 0 0
289 1 -0.04587515695446588 3.358450348908316 7.047822735871546 0 0 0
317 1 24.532786743190695 4.102687671635751 6.897949850850921 0 0 0
191 1 27.274911060913347 3.0790932115675687 5.365640207034585 0 0 0
257 1 26.401370513319858 2.138748951746549 7.067233927812858 -1 0 0
319 1 28.152605380402914 1.7092125498194175 8.773672200636156 0 0 0
132 1 25.07267246587757 1.519886903374504 5.133391817025802 -1 0 0
417 1 26.555549205213435 3.9415947253710995 9.085727125243292 -1 0 0
323 1 3.340116692318486 5.617508089075391 8.300971468479682 0 0 0
168 1 3.7622286832714016 5.175922968764993 5.259063865340622 0 0 0
190 1 1.6811496328690234 5.2411865682840055 6.6336065620374045 1 0 0
194 1 2.991378643248317 9.024274705239913 5.249973157491587 0 0 0
322 1 1.5790592361303863 9.11013633985896 7.063054265302732 0 0 0
224 1 2.0278994976303237 7.13167595004301 5.090347682263202 1 0 0
199 1 3.3691879888915954 7.416115618503261 6.774721670740148 0 0 0
327 1 3.5606598249297954 8.820304332130004 8.834852277542344 0 0 0
321 1 1.715647474490656 6.796282220733536 8.740297835397696 0 0 0
164 1 0.1629231506424174 7.2770114128764805 6.951885237542179 0 0 0
223 1 -0.07786344551423835 5.3877776417007786 5.202629396621495 1 0 0
292 1 28.405230697250733 5.512252151100492 8.130141545432052 -1 0 0
450 1 28.38832976894732 8.489924726493559 9.084167949779513 -1 0 0
172 1 7.001495175754772 4.7465288070813125 5.135161911651456 0 0 0
200 1 5.520472703100376 6.865521446941593 5.538389588686997 0 0 0
294 1 6.944807025305882 5.159776772473697 8.812804823710094 0 0 0
325 1 5.493557389377231 5.077736220554385 6.995533782017768 0 0 0
329 1 7.012999723085841 6.964370927063298 7.5651197213619215 0 0 0
67 1 5.002461906602797 7.005309454684827 8.670462663615861 0 0 0
328 1 4.992001797628857 8.649278790312062 7.028380131545451 0 0 0
203 1 6.880060982847385 8.869295332641807 5.555016842432629 0 0 0
332 1 7.169751969434905 9.2750333472068 8.585491654513756 0 0 0
331 1 8.954645902034162 4.760806717367415 6.908192159668548 0 0 0
237 1 10.56807047747474 8.873863946257936 5.587924089515597 0 0 0
395 1 10.702521174166646 5.046745938847195 8.44574121597523 0 0 0
173 1 8.143148380154626 6.7409859201453015 5.448187212474203 0 0 0
174 1 10.54960047568011 5.296343865657984 5.096935078726143 0 0 0
333 1 10.115908179328317 6.824543741437627 6.97869047503253 0 0 0
422 1 8.841374817144327 6.545719668909064 8.73858351396369 0 0 0
336 1 10.164820460318133 8.598589516780303 8.860651414141513 0 0 0
458 1 8.766766705311905 8.675186011852071 6.857545788131669 0 0 0
335 1 12.137760975804207 8.736624612034744 7.26508473692779 0 0 0
304 1 12.550399764086318 5.037543075852577 7.035243397861524 0 0 0
235 1 12.393576467394174 6.899268185604282 5.42330539620482 0 0 0
276 1 12.056312067324887 6.74569252095924 8.709560739957316 0 0 0
440 1 14.154614171964061 4.907175475900362 8.855113323469562 0 0 0
334 1 13.902706385446493 8.658138642974945 5.366907539591956 0 0 0
431 1 13.829707882733558 7.22130123098852 7.3839547040626625 0 0 0
339 1 14.225873822041688 8.643274046516499 9.248037394532027 0 0 0
56 1 15.505060159024163 6.959633434819473 5.803006571423325 0 0 0
338 1 15.554270065156858 8.85476330619114 7.446048563324365 0 0 0
178 1 16.031175127743037 4.935526859999444 7.324136699185842 0 0 0
307 1 15.561406904460807 6.673563511937706 9.062169072270478 0 0 0
270 1 17.68378769749704 4.89300196150435 9.109624788463016 0 0 0
211 1 16.86852722542473 8.474507274860828 4.764254579792282 0 0 0
342 1 19.028576313862693 5.431446268717898 6.992197155269085 0 0 0
313 1 17.172581968634795 7.049444900532449 7.093803876252619 0 0 0
310 1 18.93425972856706 9.387738871052202 6.968823275645092 0 0 0
216 1 19.07546234526656 7.45885614922084 5.343477256813744 0 0 0
465 1 17.441845423329458 8.465755820734527 8.82006486275272 0 0 0
343 1 19.57946166913886 6.970986898414767 8.684009712839574 0 0 0
444 1 21.407420737496285 5.459239863302822 8.457273977159625 0 0 0
219 1 22.730420909713818 5.357619879715582 6.685464282767836 0 0 0
215 1 21.20921555367155 5.630840952723998 5.183067207926648 0 0 0
352 1 22.633707446848256 7.477233598634641 5.392475795975451 0 0 0
184 1 21.011582954423293 7.545603450133991 6.76214001482487 0 0 0
381 1 22.82780356424068 7.137057266282654 8.691130538797733 0 0 0
251 1 21.318802320697248 9.132752342516657 8.529252212641115 0 0 0
443 1 23.08611534517068 9.015646806711112 6.747990253953092 0 0 0
195 1 -0.06996182155222314 8.416216103805276 4.8529999742014835 0 0 0
320 1 24.641339742210704 5.365493317849774 8.881560232501098 0 0 0
256 1 25.09166600185685 8.948318501017985 5.335386044359847 0 0 0
314 1 24.88194261118589 5.437494263726343 4.902926775404761 0 0 0
318 1 26.485396273844213 4.901036058995046 6.783240417139256 0 0 0
349 1 24.838815449139545 8.544619742932392 8.510735750384107 0 0 0
350 1 24.491926158700338 6.892631724806687 6.7920907682957194 0 0 0
253 1 26.702489680377298 7.173689057974781 5.2478858446411785 0 0 0
383 1 27.10329933112019 8.968746361841022 6.784612572444155 0 0 0
351 1 26.603293125763248 6.955655247040118 8.45607924615628 0 0 0
1285 1 3.668758161455711 12.69191617210745 5.044115979325309 0 0 0
226 1 1.5711823758023964 11.032089330238417 5.378827560514431 0 0 0
354 1 1.8266830015439803 12.443583118195534 6.908744926639287 0 0 0
360 1 3.82267374819103 12.158622153177099 8.711780680418878 0 0 0
326 1 1.5350645516575863 10.574857177056387 8.714455622537875 0 0 0
355 1 3.347245993576847 10.719499523127093 6.940269084341875 0 0 0
228 1 -0.09144445139926095 12.338609175953042 5.5457403790829884 0 0 0
227 1 28.41228809276542 10.794994297046985 7.2417191773509195 -1 0 0
27 1 23.237130642874536 -0.03729903767006704 1.4262080931624428 0 0 0
994 1 26.82439142122574 8.540517299712771 0.16139692265629707 -1 0 1
361 1 6.938288686204874 12.160909790490935 5.0041688576144 0 0 0
231 1 5.0040298362820375 10.5079780668504 5.264294023097803 0 0 0
232 1 5.450037387033932 12.416343516927203 6.827424836411869 0 0 0
363 1 6.93212081397554 10.993520159888824 7.067956657416757 0 0 0
359 1 5.18739959396224 10.454128696117806 8.65076152160943 0 0 0
364 1 6.793740013775071 12.24516938621274 9.06654465055332 0 0 0
609 1 3.3191559710301273 13.846962288877942 14.084655147581726 0 0 0
29 1 24.607136513247532 3.098024654992708 0.2726308513316973 0 0 0
490 1 10.405912258952396 12.335107822562739 8.762281799957828 0 0 0
240 1 10.274331148972397 12.696420417547188 5.955266017723202 0 0 0
234 1 8.585178236512327 10.785241437988487 5.370760199330544 0 0 0
330 1 8.404069973281 12.64616535950122 7.330565649323667 0 0 0
206 1 10.62745097412469 10.726297027966535 7.07414680835717 0 0 0
365 1 8.911034215136167 10.501487911769917 8.540675976171189 0 0 0
208 1 12.174872964070746 12.354275765665248 7.256182238712268 0 0 0
622 1 12.284767838791614 12.084388552701494 11.067875751786987 0 0 0
1154 1 0.061253425789807636 14.033942184832588 3.756271036488107 0 0 0
16 1 10.625521607034514 3.405866685116328 0.24012674892687902 0 0 0
280 1 17.597973382110332 0.10890406874842745 10.821386069485289 0 0 0
340 1 15.800553999502824 10.397213548994413 5.604698209970927 0 0 0
369 1 12.035453784270189 10.645756451653558 9.02328246623496 0 0 0
239 1 11.98685976699372 10.615043788386581 5.117149679730132 0 0 0
1171 1 14.134991537014637 12.091811888042264 5.230134199230667 0 0 0
1169 1 13.542723122678881 10.331199454257542 7.238671919573146 0 0 0
496 1 13.691889851981454 12.036623842954407 8.829376576497125 0 0 0
468 1 15.935083180695315 10.219855257040091 9.409943417243468 0 0 0
427 1 14.035388386465916 -0.07924149805293013 10.773056758601516 0 0 0
1511 1 1.7054980583845654 0.07924251017746942 12.168796358435957 0 1 0
367 1 15.420673012515865 12.112541922293378 7.121589712967238 0 0 0
245 1 17.748818031683665 12.309141536075494 5.198474570333873 0 0 0
380 1 19.717546192718906 11.035227801593043 8.501783234641806 0 0 0
372 1 17.17767340556065 11.014387478080703 7.3203746395202955 0 0 0
348 1 19.662568057674882 11.983930248522658 6.295786516041113 0 0 0
1305 1 18.447352644860768 10.12899334697665 5.039856918799694 0 0 0
376 1 17.266961648900313 12.106897742481873 9.209067848070884 0 0 0
1167 1 8.365447501214586 14.11664896800545 4.891005849600706 0 0 0
252 1 23.086356036874808 10.723057095201698 5.34142583291906 0 0 0
1180 1 21.705295577090563 12.639623972320212 5.196845736632818 0 0 0
347 1 23.564361078449405 10.483342725677081 8.414386895016461 0 0 0
341 1 21.28571304176047 10.499865182312062 6.67672267088734 0 0 0
374 1 21.88221503940711 12.291572667904962 8.612784702090506 0 0 0
377 1 23.405736886712376 12.6647909445114 7.054330858886527 0 0 0
1599 1 0.07563306690426175 13.94858766496109 13.795950080759532 1 0 0
285 1 23.345706182133032 -0.08630627109092785 5.0051498140836115 0 0 0
1311 1 28.041416619169297 12.155774883016417 8.806282871662106 0 0 0
346 1 24.961172676710646 12.387425001191883 5.19892991850381 0 0 0
324 1 24.98205405439516 10.84299533843407 6.979436997984427 -1 0 0
379 1 24.92790527517865 12.154504299121573 8.864158571024282 0 0 0
478 1 26.563339142740272 10.613486623772388 8.647270069544795 0 0 0
255 1 27.0812448939609 10.477276368282057 5.002545771425717 0 0 0
1309 1 26.742646653265574 12.251039477587355 6.949425998215586 0 0 0
1843 1 17.52569165913346 13.80830201152234 0.13585042414478654 0 0 1
1301 1 17.588205695991913 13.851430562716818 7.507125005541207 0 0 0
291 1 1.2736217165714152 2.032616276178585 10.33249749953743 0 0 0
548 1 1.7601603052662227 3.639759509164955 12.096324349042296 0 0 0
517 1 3.2292181157264035 1.8679219755145897 11.913153509920926 0 0 0
295 1 3.802180751292054 3.3449566263647155 10.200407907931218 0 0 0
1413 1 5.039820279842322 14.094717139571049 12.503353237128692 0 0 0
392 1 5.190266547488908 3.0546963640988647 12.200569860273022 0 0 0
391 1 5.000842370827099 1.29251279085383 10.674843554226351 0 0 0
425 1 6.522194865689993 2.981358092514769 10.40895641159114 0 0 0
267 1 7.141008061729136 1.1329705955856442 11.998472241931148 0 0 0
1295 1 12.147257534913857 14.104311711057923 9.03052558924325 0 0 0
474 1 23.245212347929243 10.213464967946704 12.402579554783722 0 0 0
1047 1 19.601181617188473 14.15531567857451 1.666575649269424 0 0 0
554 1 8.302773681867109 3.3071618752142604 12.16599568791074 0 0 0
426 1 10.449117520457454 1.922052443848345 12.530359267406189 0 0 0
398 1 10.536284121935731 3.2835301526189475 10.358285484097367 0 0 0
272 1 8.894798411691923 1.8141888892397322 10.622013098651312 0 0 0
436 1 12.039814175569953 1.5027250390171782 10.749206261597294 0 0 0
98 1 1.8265258855341109 14.021376938007958 1.7826969168358364 0 0 0
567 1 19.109306205408156 1.3537058451829689 14.012205436394595 0 0 0
1287 1 5.1946177236639315 14.05549882646907 8.878740924590524 0 0 0
585 1 12.335988010339664 3.2425530590400236 12.621452455437128 0 0 0
179 1 13.828529827093831 3.16775475277678 10.672521420374263 0 0 0
526 1 14.039190771445176 1.2532777659812286 12.445771387815595 0 0 0
403 1 15.488639178867516 1.3947993394771565 10.692471114670886 0 0 0
404 1 15.593231053459366 3.166465187534118 12.465626862751334 0 0 0
530 1 17.381115488889346 1.8651675301338146 12.48837600278211 0 0 0
1398 1 17.588517132746457 3.0687738559106443 10.472551843437172 0 1 0
408 1 19.347181948730253 1.7527160464652778 10.009109087191147 0 0 0
439 1 19.464576446931094 3.1692771162034874 12.257160141009276 0 0 0
316 1 22.8566840220029 0.9058049330962219 10.935034783692709 0 0 0
412 1 20.98487836836373 3.0776992374630026 10.319625642118453 0 0 0
416 1 21.088420633534053 1.444380799993508 11.960596944668227 0 0 0
445 1 23.207138224003273 3.3740251126600342 12.26021495340996 0 0 0
260 1 28.331018575537627 1.392225653775271 12.436817759440356 -1 0 0
419 1 0.040037723581217016 4.1917210919276435 10.219853690928646 0 0 0
446 1 25.023061759977892 3.7991474503695857 10.666460723226999 0 0 0
1533 1 24.648888730016655 1.7509633690791009 12.153371066076172 0 1 0
414 1 26.653312115458878 3.158847851119218 12.470973686116224 0 0 0
287 1 26.651243702389404 1.6135000136271802 10.660145420751808 0 0 0
413 1 26.19873596674958 0.039340497270107355 8.772836964543071 0 0 0
935 1 5.228030738360851 4.983265453795354 0.18252995855099413 0 0 1
296 1 2.0930884053136243 5.403699336784262 10.296790998878958 0 0 0
583 1 1.9573094765291574 7.010298099006569 12.443480508068962 0 0 0
390 1 3.9118804726324203 5.132291186545159 11.957685141985491 0 0 0
453 1 3.6964625772932793 7.199631256763307 10.56613413851434 0 0 0
452 1 1.7199420435787234 8.403467777303174 10.937475021954302 0 0 0
451 1 3.6079969657586486 8.835111351145471 12.250461948884698 0 0 0
577 1 27.99616773440485 8.439437220449669 12.309192093168924 -1 0 0
1173 1 15.462880635576099 13.766546111650056 1.5516793312097923 0 0 0
1172 1 12.639194718565287 13.198415327556077 1.4927850730313763 0 0 0
421 1 5.315131114859202 5.258129631932017 10.328618024592133 0 0 0
423 1 6.943819727422607 5.54072831059614 11.786205801507515 0 0 0
455 1 5.216103740440012 7.160639464276228 12.366129705170408 0 0 0
428 1 7.0124120998819475 7.050546774639709 10.197633773821025 0 0 0
460 1 6.993491620604179 8.394294984755652 12.397977965715741 0 0 0
456 1 5.445727912694519 8.900890447765539 10.348016120985223 0 0 0
504 1 17.846103513359918 12.050107410111863 12.793361341807547 0 0 0
244 1 12.31248184654057 13.36912821512314 4.97725270496409 0 0 0
396 1 8.297301669990343 4.820144277404317 13.667231487071366 0 0 0
686 1 10.626086561059596 4.518142704434083 12.337560165780594 0 0 0
624 1 8.721879871418778 6.74716351076673 12.20737821621924 0 0 0
589 1 8.987508473593744 4.881716104137605 10.640875453557454 0 0 0
459 1 10.745195295861834 6.778402450005706 10.960388455437979 0 0 0
457 1 8.613365175089514 8.528634547423545 10.557966450590735 0 0 0
493 1 10.39221359501561 8.433912827227429 12.61592470256606 0 0 0
1546 1 6.951639728608786 14.069277909672879 10.735741590732463 0 0 0
430 1 12.146549271686215 5.22200267157321 10.41725871794121 0 0 0
433 1 12.097952247843317 8.39847671204926 10.095834213426302 0 0 0
435 1 12.29362717441484 6.5240538905131675 12.485589182097454 0 0 0
561 1 13.900740838626955 4.706575992733381 12.294436311913579 0 0 0
312 1 13.960388766361907 6.796164119091404 11.111975276373832 0 0 0
621 1 14.1953529004125 8.724826819616036 12.297567568985668 0 0 0
471 1 15.903340813601464 6.607538840502322 12.49082388728648 0 0 0
626 1 16.178826879993284 8.51783209831432 10.894491556742885 0 0 0
467 1 15.752591434242483 5.022303887481387 10.747739550040489 0 0 0
498 1 13.842297955506254 13.838647304089518 11.06436364007317 0 0 0
514 1 2.053017712397646 1.8618215037638717 13.911065599084068 0 0 0
62 1 22.939793303208965 5.0255744051765046 0.13025626848825136 0 0 0
344 1 19.86058397963509 5.217787724221489 10.522654850515233 0 0 0
597 1 19.890180748275892 6.949646230677541 12.239922052951615 0 0 0
434 1 17.470528206996608 4.789384632780771 12.511042038468073 0 0 0
598 1 17.492826644449323 9.043393090483839 12.642865336499792 0 0 0
469 1 17.489987355237925 6.484591663338029 10.716520278893126 0 0 0
501 1 19.113609656697058 8.549429464997946 10.67218232727774 0 0 0
1585 1 10.829563256147663 13.863542832800809 11.008361761761142 0 0 0
58 1 21.45117280164215 3.3393332742109267 0.112505153495429 0 0 0
442 1 22.80997246681018 5.394974094162698 10.483967577602941 0 0 0
475 1 23.298485707960886 7.098426932120405 12.474653826442458 0 0 0
345 1 21.311773920584454 7.300206071511117 10.367979239098776 0 0 0
476 1 21.46179221036882 8.489141916246286 12.473408270978128 0 0 0
566 1 21.393574778830764 5.3128257620298855 12.572828934246775 0 0 0
473 1 23.432688034760986 8.796909365432345 10.409485029605838 0 0 0
371 1 15.661114052697766 14.064500200110148 5.850684655511056 0 0 0