LAMMPS data file via write_data, version 29 Oct 2020, timestep = 300000

2048 atoms
1 atom types

-0.10810702969914487 28.460107029696175 xlo xhi
-0.10810702969914487 28.460107029696175 ylo yhi
-0.10810702969914487 28.460107029696175 zlo zhi

Masses

1 58.933

Atoms # atomic

165 1 1.4853199404386395 3.6728270090914457 1.8408397397995822 0 0 0
8 1 1.7569491982555128 1.46575836130237 2.95455329042053 0 0 0
166 1 3.130547040088778 3.110221920767135 3.4258970348705207 0 0 0
33 1 3.8044605574082935 1.3147120679451298 1.952964666225777 0 0 0
2020 1 -0.03493022840842486 0.037041874439150746 0.21521290692993877 0 1 1
39 1 5.303658111610185 3.187763472222097 2.065213429227404 0 0 0
134 1 5.387882326359178 1.4541621117108179 4.100922820660033 0 0 0
43 1 7.248591042222835 1.8165770676717867 2.5334630295174714 0 0 0
140 1 7.1878243255718965 3.256014764157571 4.333042097080754 0 0 0
139 1 9.214880263547627 1.5858027859344082 4.286581803556983 0 0 0
45 1 9.196472708810992 3.4578876461818857 2.0571683076615432 0 0 0
2032 1 10.657791266838698 1.68203325248057 2.2926972742686975 0 1 1
181 1 11.417329209229283 3.8332956273228964 3.3908795717731754 0 0 0
138 1 12.93169839471479 3.1215047432250684 2.0116744274359943 0 0 0
935 1 5.126356809721344 5.397759526292367 0.27603349899110363 0 0 1
1283 1 1.9223722451925953 14.160024825401603 8.7627344326337 0 0 0
37 1 3.4242319627703943 2.7797432597268967 0.126347261407354 0 0 0
1287 1 5.038291798591254 14.086023324024033 8.924257607385771 0 0 0
143 1 12.694558104979892 1.4213029314375807 3.623785279994743 0 0 0
177 1 13.741688190518826 3.5502717484683997 4.399206499033571 0 0 0
146 1 14.685359024268807 1.3276093643950637 1.9173407142273922 0 0 0
306 1 15.755487064890277 1.123135244207026 3.8286755264820576 0 0 0
10 1 8.764398208378024 1.6402034791247029 0.3044014516846846 0 0 0
589 1 10.980382690997063 7.5290458701599645 14.093111522678743 0 0 0
61 1 26.074663988811693 1.4336186428116946 0.22970403972288733 0 0 0
244 1 12.260307403558457 14.01850766965815 5.342286856952417 0 0 0
53 1 15.153495219356863 3.320643394088161 2.834774579758668 0 0 0
42 1 8.999820074785056 4.859721849773025 0.18278688463206666 0 0 0
277 1 17.01855058833064 1.9664869049161187 1.8949630210442057 0 0 0
152 1 17.264318818109572 3.593139183970283 4.100396890291771 0 0 0
150 1 18.54418478366488 1.7060704523654737 3.937759366277695 0 0 0
1176 1 17.47404787353686 13.534962006293823 3.2419063279588802 0 0 0
29 1 24.964812622231598 3.6512976328320756 0.18812451520695928 0 0 0
432 1 6.605494952792782 3.229168033110416 14.107822897382825 0 0 0
57 1 18.98817901919992 3.013667619420025 2.060415479619528 0 0 0
28 1 21.016272452169144 1.7957874651426486 1.8274876644611937 0 0 0
154 1 22.38895901827663 1.4099257388717759 3.7958451182658495 0 0 0
185 1 21.11081234557159 3.065321710478989 3.750415386112491 0 0 0
26 1 22.969736559310885 3.0649061074623987 2.008725888705617 0 0 0
1157 1 3.2066442948738096 14.119904917991102 2.75592934822859 0 0 0
63 1 -0.03282245557241836 1.3530087677858509 1.8018508169343364 1 0 0
161 1 -0.0806332038358286 3.2443938679868456 3.571060789420486 0 0 0
158 1 24.75805047538497 1.4796790300816536 2.2767062801338094 0 0 0
193 1 26.633884256633294 1.465698436993602 3.503473377037646 -1 0 0
64 1 26.43462744250461 3.758816247563416 2.186523149710232 0 0 0
189 1 24.67919326907987 3.4274817719706716 3.678411993885556 0 0 0
370 1 15.93605257305336 13.944573197400139 9.179627665565159 0 0 0
1183 1 27.375676687105948 13.875384401172386 4.659259734756802 0 0 0
163 1 1.6425906779584565 5.137687816299197 3.7203737303540705 0 0 0
40 1 3.6719242045082083 5.114826095992978 2.010146173411021 0 0 0
68 1 1.6045020289947962 6.439058467962206 1.5061704424032232 0 0 0
995 1 1.2537665348676443 8.62940426754989 3.3060033852864064 0 0 1
76 1 3.565291659039203 8.92634645168719 1.417196737479975 0 0 0
197 1 3.3168019465589653 7.242667810546217 3.297107227198463 0 0 0
1153 1 0.010055563161813677 13.953740433989463 2.683326859999267 0 0 0
367 1 13.945486262300692 13.509597746441447 7.21888396020274 0 0 0
169 1 7.070961777975296 4.810153808832121 2.163792947313419 0 0 0
201 1 5.235861822885354 5.096710530795349 3.4288958845416766 0 0 0
72 1 5.299099302211126 7.447912746386921 1.6028323529059914 0 0 0
202 1 7.305965607669123 7.2945023092882275 3.0348645383482933 0 0 0
357 1 5.472847776601316 8.65212937825121 3.40075642482462 0 0 0
38 1 7.264350331961452 8.966622740940073 1.5178034355181775 0 0 0
514 1 1.8656847546572701 1.5806923058297055 14.10071320045654 0 0 0
1273 1 17.733494264684822 -0.10378893086767586 3.665043794420626 0 1 0
170 1 8.804146187381876 5.398414128868542 3.2963086274425355 0 0 0
205 1 9.045963570713385 9.257866315222703 3.386292166699356 0 0 0
48 1 10.747290474045208 5.212764078537187 1.6880340730518817 0 0 0
75 1 9.229601503956566 7.052972129138447 1.8506915354228644 0 0 0
209 1 10.472907653397856 6.730835831389021 3.9400113995468526 0 0 0
80 1 10.571382644105853 8.604155236552108 2.0119566255163015 0 0 0
52 1 12.394045538092843 8.490696223153464 3.7960810011523893 0 0 0
686 1 12.33544253258683 5.239442272722467 13.911925386695486 0 0 0
47 1 12.498472120609955 5.886520421986046 3.688871229661585 0 0 0
212 1 12.303094071970165 6.843170341004426 1.863388195717972 0 0 0
83 1 13.62682316674299 5.092143823594961 1.6396465792513328 0 0 0
207 1 14.277094977129492 7.158247930059815 3.575476537508607 0 0 0
84 1 13.95153379713034 8.765220115805345 1.794865898212389 0 0 0
210 1 16.193813459980596 8.832454038796776 3.4950377307071943 0 0 0
85 1 15.491975144858907 6.867873218473717 2.0506298747503977 0 0 0
11 1 7.062264314591982 -0.007469220356973949 0.1821951448986105 0 0 0
274 1 9.678582484452102 0.2264756746571605 10.323807364308742 0 0 0
56 1 15.070398426544017 5.396984143012908 4.028598838077951 0 0 0
183 1 19.209573780082074 4.999688833014907 3.8110818576725047 0 0 0
188 1 17.187247319780376 4.764472081534437 2.1116069218532787 0 0 0
213 1 17.539137219941594 6.833270635099537 3.644088371794421 0 0 0
214 1 19.636608901861294 8.848218114796257 3.5750150744521103 0 0 0
88 1 17.61032486492646 8.31020543750686 1.841052619745617 0 0 0
87 1 19.30163530414598 6.62312424307582 1.7801509152338006 0 0 0
73 1 9.11961340085305 8.783573500482733 0.2074879449947491 0 0 0
44 1 7.177675723900364 6.7282302342973725 0.259956640430576 0 0 0
55 1 20.995445667427795 4.793430800921517 1.9946078372180551 0 0 0
186 1 22.772900755067305 5.352788208348585 3.582606335902095 0 0 0
60 1 22.74602859282899 6.643768631676935 1.5647728746698577 0 0 0
218 1 20.81630503561454 6.949515391267467 3.537869119225656 0 0 0
123 1 22.46468721065496 8.20748558924089 3.649448758159336 0 0 0
249 1 20.927195347687146 8.42522601361092 1.5235729532778686 0 0 0
192 1 24.567485187647442 6.724286675589192 3.6078368796570395 0 0 0
36 1 28.167344896933468 5.133752729260878 2.170541146739397 -1 0 0
222 1 28.08005964538099 6.903900446337544 3.4877755595245885 0 0 0
448 1 26.759607398162583 4.9123334328306125 13.911121254144446 0 0 0
59 1 24.668620669322145 5.065430441166465 1.7618215024718917 0 0 0
224 1 26.161807618902174 5.126452851652768 3.6797165177019404 0 0 0
66 1 26.652325964044614 8.591880182829362 3.7625986463174788 -1 0 0
95 1 26.33931782231667 6.883446184158951 1.866607611352421 0 0 0
254 1 26.741011294382616 13.610706876938806 1.5027143543978498 0 0 0
162 1 -0.08661515959768806 8.289837901924578 1.499653558790848 0 0 0
196 1 1.3628922103830414 10.077794063319184 1.5303036254203515 0 0 0
226 1 1.4533084153773297 11.933449068181691 3.0114661345136065 0 0 0
1027 1 3.4083705858630715 11.707468903069921 1.5533298672342652 0 0 0
229 1 3.5890979946890855 9.960287818102536 3.430443030555067 0 0 0
128 1 28.14783377393375 11.927214746532595 1.6274168882385915 0 0 0
149 1 19.018288104621934 0.18809973406125263 5.576151352178943 0 0 0
1132 1 10.52967986671979 0.01285219550545233 0.12350833577839007 0 1 0
509 1 25.017341645671294 10.631795910149545 10.62493086488741 0 0 0
1291 1 8.473036695297386 14.042684211485176 8.945335527379347 0 0 0
198 1 5.407500388121518 10.449398868031656 1.5977013802214861 0 0 0
104 1 5.294308212969125 12.14838557588569 3.15056737830148 0 0 0
109 1 7.522477306022437 12.355499441987142 1.6993320658473041 0 0 0
204 1 7.186240039269648 10.287557236673377 3.3509223886073687 0 0 0
693 1 19.721805403727647 5.275975172362817 14.067601988417794 0 0 0
567 1 20.015417422594176 1.3802264316447006 14.073076233799078 0 0 0
463 1 16.183088619189206 13.551301796545658 5.310126872211752 0 0 0
236 1 7.165876426539667 14.080361486334692 3.8299198225451123 0 0 0
107 1 9.438924156954442 10.602018961533146 1.3836075787011308 0 0 0
112 1 9.477209100389203 12.406952539456977 3.541473997601696 0 0 0
111 1 10.806463093080149 12.284122196980228 1.3656296194254411 0 0 0
241 1 11.002540826524308 10.554992027358553 3.6029005169192305 0 0 0
238 1 12.296893870198657 12.568783363595802 3.2679871138979752 0 0 0
512 1 25.29799228185288 12.61554118735377 11.995185307867718 0 0 0
573 1 24.879107845353698 3.27303577996216 14.040464410147704 0 0 0
78 1 12.30209356296762 10.481527873944284 1.4846822337136019 0 0 0
116 1 14.13710370842219 12.001874079579833 1.7105183097148124 0 0 0
242 1 13.506818745668472 10.717883668823783 3.5239727065995274 0 0 0
115 1 15.855791582006786 10.353833735750099 1.4822063178665639 0 0 0
243 1 15.92688351287137 11.83185526971042 3.2944947644795426 0 0 0
16 1 10.569080093953138 3.095174575509256 0.2130850110789293 0 0 0
1175 1 18.72561715428496 14.147626481972562 5.116633878636711 0 0 0
25 1 23.142649790086786 1.9446943411065627 0.02719058643525321 0 0 0
1177 1 20.963763616227954 14.056964403849202 3.458830110201198 0 0 0
120 1 17.671370797424427 12.281251584802504 1.4476137239525868 0 0 0
245 1 17.710008540322058 10.388433003358632 3.408399751163577 0 0 0
119 1 19.518647972181704 10.45860151302228 1.660446836938443 0 0 0
246 1 19.38419954721381 12.300853347779652 3.3145964419203 0 0 0
1652 1 10.455771060773786 0.10858502731797962 13.932351255741322 0 1 0
14 1 12.362754669086943 1.5035402602454329 -0.04834049940663211 0 0 0
124 1 21.457683959485998 12.171760681754638 2.0436321990958453 0 0 0
250 1 22.89754889180572 12.175230802081346 3.8220407184185534 0 0 0
247 1 21.22272412533139 10.424689296737203 3.473010139334494 0 0 0
122 1 22.62814494645255 10.063748446019442 1.866715878921214 0 0 0
102 1 1.5609503291338442 12.211131913340411 0.3991629361627015 0 0 0
96 1 24.540509967878933 8.431345876520819 1.4668334391059636 0 0 0
225 1 28.105997812835856 9.97442405667809 3.0691433258465945 -1 0 0
94 1 24.56804470818043 10.276265006046563 3.4232283310735507 0 0 0
1053 1 24.67643174206782 12.133434993679819 1.9834234906610995 0 0 0
97 1 26.383594136289307 10.221759038620544 1.722546314185111 -1 0 0
1181 1 26.66879251972571 12.239755645874379 3.489477277574952 0 0 0
24 1 19.492351555072894 0.11219782259275285 1.9388656109265558 0 0 0
500 1 16.163614209648706 13.860430084059624 12.718383102461443 0 0 0
487 1 8.685089988360648 11.5423174109901 13.924188666283317 0 0 0
510 1 26.63449150151478 12.53958200310793 10.184461062977581 0 0 0
290 1 1.6632845853666434 3.458533824076196 5.339416420249842 0 0 0
258 1 1.5452770693957634 1.8521096236888537 6.951563606450376 0 0 0
291 1 1.335354039535514 3.48935956323365 8.745224491580617 0 0 0
1507 1 3.310085352102516 1.5423154653576232 8.588554087151735 0 1 0
136 1 3.475171339138584 3.546904868942388 7.416141452530459 0 0 0
131 1 3.395405312638728 1.6905555930370397 5.489125413494641 0 0 0
289 1 28.283946557513335 3.3997589452382466 6.8363519778329485 -1 0 0
35 1 28.03293173845498 2.9138936133952815 0.4517189178318246 -1 0 0
673 1 1.754999246179176 5.396806307496202 14.01880538919135 0 0 0
293 1 5.007434386033579 3.498242302529991 5.522672465593259 0 0 0
264 1 4.9889714718651375 1.6068409972223343 6.948030305034333 0 0 0
297 1 7.110061083399994 3.466321603880896 6.860388058187733 0 0 0
268 1 7.110123373147623 1.6473398610790138 6.049609430168736 0 0 0
295 1 5.2894208132728675 3.6827134048026786 8.486185312306542 0 0 0
129 1 1.7997434943678845 -0.03132995686577272 5.403063839228208 0 0 0
294 1 5.053439282450447 5.411195767077301 7.021736490428565 0 0 0
1388 1 6.887338786471267 1.6693139605405003 8.476008019126942 0 1 0
923 1 24.35029924256775 -0.09753746174880007 0.48009825191311084 0 0 1
171 1 9.160256076311237 3.173053683853328 5.53441368566313 0 0 0
144 1 11.011384292008161 1.3732846567549892 5.474335416517965 0 0 0
262 1 9.715489102055212 1.355774225386755 7.714511409289767 0 0 0
301 1 10.373653876247015 3.6545725054367995 7.596959179340192 0 0 0
175 1 10.545039980402352 2.185213209537387 9.7749491368962 0 0 0
300 1 8.759104892891457 3.851304406922533 8.916390002573282 0 0 0
511 1 26.809555300964576 10.609673561259266 12.192725402395022 0 0 0
303 1 11.949921230324833 1.5589011137454947 7.655417696729584 0 0 0
461 1 12.261374890433617 3.7413583804848467 9.324144733240763 0 0 0
176 1 12.345703035942096 3.7152795488724912 6.15115750761329 0 0 0
1108 1 13.965630337548296 1.5200777141991948 5.988653048524637 0 1 0
429 1 13.92512428453451 3.2158306343333756 7.797691311114327 0 0 0
427 1 13.536473253254586 1.3757522346000373 9.308223566168218 0 0 0
148 1 15.622911973110734 3.4470324810457496 5.906646727009857 0 0 0
577 1 28.148724970195108 6.8593392883521895 13.517462085690248 -1 0 0
302 1 15.401695762725431 1.742346982542685 7.676551730237654 0 0 0
308 1 15.982654482319138 3.887536022112877 9.392491831056532 0 0 0
309 1 17.03660345947925 1.7140905099417396 5.934442141912112 0 0 0
187 1 19.316018746038736 3.3550048619072523 5.516482513331243 0 0 0
406 1 17.42206424269247 3.5476414418418867 7.514060193233902 0 0 0
278 1 18.753865550188582 1.907574290544126 7.3643402277394525 0 0 0
403 1 17.825728544520402 1.2520865540533421 9.365601126976104 0 0 0
484 1 28.35100556765338 12.126991212071266 11.912225466500491 -1 0 0
160 1 22.705624374989245 3.4760141669785 5.524344906604261 0 0 0
284 1 19.063168363447417 3.371094735583037 9.404562902928893 0 0 0
156 1 22.749631138438428 1.6614212055718767 7.462261093452781 0 0 0
151 1 21.204455389767045 1.6639522757082092 9.261261816859038 0 0 0
316 1 20.82004059261429 3.5668171245741633 7.012321676231507 0 0 0
315 1 22.680879900924047 3.4864325374816323 8.858834025022592 0 0 0
498 1 14.335112203371036 13.854228636330795 11.109523500679996 0 0 0
130 1 28.17667195901334 1.640879477984767 5.337141932913978 -1 0 0
362 1 6.594428492862186 13.694460020529277 6.910671949834744 0 0 0
319 1 -0.04866307834335615 1.3754450385476442 8.61807774107245 1 0 0
191 1 26.50835447475952 3.219730380244487 5.176495924382548 0 0 0
317 1 25.01610787043338 3.385346343891125 7.099322559008295 0 0 0
286 1 24.753899669149817 1.8442947320939755 5.697897827634224 0 0 0
288 1 24.73205010518009 1.5544888569247841 8.410643519396787 0 0 0
132 1 26.660572165445192 1.3627807137116914 6.915852612450691 -1 0 0
417 1 26.946713982398947 3.190535169087837 8.681456428249408 -1 0 0
168 1 3.495655512844352 5.210972363345338 5.32753434081491 0 0 0
323 1 2.9600588850550884 5.2933131606621995 8.529404387664274 0 0 0
194 1 3.2174477645202573 8.691405207502255 5.336731561764004 0 0 0
190 1 1.2248134403386268 5.147819692370383 6.853771060290689 1 0 0
67 1 1.917340963697427 7.007914953945332 5.116582304549462 0 0 0
321 1 1.4848571439719662 6.973951092561575 8.877243865485001 0 0 0
325 1 3.3769490517755507 6.82266344327093 7.053550094539012 0 0 0
322 1 1.2619185604224021 8.33617162913885 6.8791698125917415 0 0 0
223 1 28.246012442066792 6.9906091138284 6.63657780257866 0 0 0
324 1 28.371870317757153 9.022107406427072 9.053619131835411 -1 0 0
328 1 3.5942758102286363 8.78700316213876 8.969044368027683 0 0 0
203 1 6.516843556118949 8.944306362450384 5.218674178988862 0 0 0
172 1 6.973393939935076 6.200015382524683 5.078132683375691 0 0 0
200 1 4.78155081296744 7.274130701461114 5.105213176539617 0 0 0
329 1 6.4123405482917315 7.22845107317289 6.909342023291879 0 0 0
327 1 5.030025574970117 6.950369103280756 8.883895424306614 0 0 0
199 1 5.147061197618754 9.169512854837945 6.965667647086212 0 0 0
422 1 6.839626042212646 5.239720924945982 8.862422949323273 0 0 0
332 1 6.760677333012518 8.706377980615079 8.733041557470813 0 0 0
458 1 8.385626257868076 8.802437618727607 7.029090878834975 0 0 0
174 1 10.536170067902278 5.327892580392311 5.560866212501544 0 0 0
298 1 8.320336580056992 5.544169809538075 6.742346369181547 0 0 0
173 1 8.596088982708153 7.644544973740734 5.305709327811678 0 0 0
237 1 10.53201827372645 9.00335073628609 5.284522965594793 0 0 0
333 1 10.067727042501375 6.90692502939633 6.9288852152820475 0 0 0
336 1 10.504228075230568 8.207221062337906 9.656803297169658 0 0 0
395 1 10.47096705726701 6.187462506084962 9.37110277510799 0 0 0
304 1 12.674984892523284 5.561021632507385 7.6116109855119705 0 0 0
180 1 14.056742497729834 5.43845048302627 5.7422941145304085 0 0 0
335 1 11.696440878184305 8.21846332742726 7.613563310948082 0 0 0
276 1 12.712809398415303 7.092594665896344 9.54554145423587 0 0 0
235 1 12.211305194075466 7.2246477021375535 5.653594355641236 0 0 0
440 1 14.361122993912323 5.255895961363711 9.094469991127895 0 0 0
334 1 14.017140895814578 8.640371491648516 5.797840683733296 0 0 0
339 1 14.419769057197376 8.9233016472155 9.014223803463908 0 0 0
431 1 14.75536262742109 7.082319512864215 7.33024548580015 0 0 0
178 1 16.11181597398921 7.734424164850892 5.378400513100063 0 0 0
338 1 16.237875534054428 8.903028694267038 7.291931402461063 0 0 0
337 1 15.93410737535147 5.213822042407013 7.229041092385066 0 0 0
270 1 17.80331599807356 5.3659977573906215 9.344381875025933 0 0 0
307 1 16.00197366522242 6.844057778527822 9.278142711745279 0 0 0
313 1 17.788977689288252 6.982913648105016 7.278845154989021 0 0 0
216 1 18.963441211895418 6.901264325153907 5.474723641472255 0 0 0
51 1 16.990635627659806 5.631936843263845 5.440612941822824 0 0 0
342 1 19.104607208605703 5.115445219039207 7.293248219145842 0 0 0
211 1 17.99849571551089 9.140551309228266 5.333609638077513 0 0 0
310 1 19.674859622483417 9.0932730560837 6.862235271413931 0 0 0
343 1 19.738140160873545 7.090126228069468 9.088147163563749 0 0 0
340 1 17.980900266887282 8.661617961668076 9.089322360332268 0 0 0
220 1 21.084244839018123 8.3045711250382 5.260610228883317 0 0 0
215 1 21.191369030855288 5.300327721815098 5.191733943016117 0 0 0
219 1 22.528327134917813 4.87954115577181 7.145191234581539 0 0 0
184 1 20.940634410725853 6.834811061218547 7.005425577121719 0 0 0
221 1 22.88371044467345 7.060944032260949 5.756272534441061 0 0 0
347 1 22.944330285624588 6.649131006682699 8.428534212954633 0 0 0
473 1 20.840594666873773 4.9831399295458025 8.861056018433082 0 0 0
251 1 21.350560604220803 9.080938138158796 8.78874847275861 0 0 0
292 1 0.04967590488384013 5.539772762865782 8.698672243139029 0 0 0
195 1 -0.08048471112241755 9.211495975903958 5.2078979042706 0 0 0
164 1 28.151048847955227 5.2327253116727555 5.0475972792922725 -1 0 0
256 1 24.286492775419415 8.736871060066443 5.178029171174536 0 0 0
349 1 24.91219025775876 7.346933883399776 7.220270592191486 0 0 0
253 1 26.413321983238323 6.96491574813335 5.269252377313094 0 0 0
314 1 24.78272460536343 5.541008316258696 5.7454817556968525 0 0 0
320 1 24.91787753562607 5.159989395893275 8.470240642245543 0 0 0
318 1 26.758112469452488 4.937907894615289 6.879798106067412 0 0 0
351 1 26.946153600479363 6.860067354350441 8.593936707874391 0 0 0
478 1 24.917066895576017 8.958621821701211 8.834657124506862 0 0 0
350 1 26.57828367451652 8.706689789705985 6.797645439910561 0 0 0
358 1 3.1319862553032323 13.81825732515423 6.276753841276292 0 0 0
232 1 2.9056221334663825 12.211048898859774 4.701765151021559 0 0 0
227 1 1.8670423584493419 10.33392499710707 4.7388731570099125 0 0 0
354 1 2.089656444953569 12.020483486817 7.170663795305944 0 0 0
355 1 1.806576633233724 10.42726140612343 8.597208236792163 0 0 0
326 1 2.89751414167085 9.989854968415838 6.921439981089885 0 0 0
360 1 3.6203547738278825 11.981597311954738 8.935343364559458 0 0 0
353 1 -0.054320176495219426 10.649227389750632 6.898027775324884 0 0 0
611 1 3.3859545064471286 10.729045848680324 14.07164161886793 0 0 0
1311 1 0.03254926758774096 13.051267772719887 8.452904940334435 1 0 0
1035 1 9.037469988148649 14.144364110748487 1.5097112370460188 0 0 0
638 1 27.141705068854822 13.000992841352199 13.343040239948145 0 0 0
361 1 7.030593852886806 11.872885016739453 4.905527565249967 0 0 0
231 1 4.685376585344905 10.67792821932251 5.299466676179919 0 0 0
1285 1 4.769832478221047 12.08268475662385 6.915474093794445 0 0 0
363 1 6.873824346459325 10.705995333756196 7.058765008464703 0 0 0
359 1 5.145529849760422 10.29491229807398 8.822581483197036 0 0 0
364 1 6.553660141462467 12.28479608513529 8.820068817352004 0 0 0
542 1 27.02858034500161 1.5920603262505206 13.912592424342328 0 0 0
305 1 10.680480161782903 3.3267555102697624 13.979115778211773 0 0 0
507 1 23.249124745177394 11.44072671181208 12.435871206309008 0 0 0
240 1 10.917182595100096 12.11956166754269 5.363252305013803 0 0 0
234 1 9.007472002386248 10.573513978998434 5.497822243511898 0 0 0
490 1 10.551752539853744 12.24056875763467 9.125451308092487 0 0 0
330 1 8.975250897282276 12.289712547331114 7.319616353124657 0 0 0
206 1 10.499480146030464 10.395866645198177 7.389586066991989 0 0 0
365 1 8.507667545263507 10.582825238390251 8.784540722563715 0 0 0
366 1 12.25297528967132 12.232371287558072 7.2678854071626136 0 0 0
101 1 3.610671150392296 7.181295353533242 0.20297871843852355 0 0 0
239 1 12.440198057271436 10.534254865105035 5.7254945203927665 0 0 0
369 1 12.398321364566664 10.560036230747214 8.838917591209619 0 0 0
1169 1 13.932014145578458 12.136947764894604 5.077155635994555 0 0 0
208 1 14.364873645613986 10.513522266648097 7.226418853810315 0 0 0
494 1 14.14065645693629 12.157172063438251 9.141725687695281 0 0 0
468 1 15.953600022708624 10.74816618558226 9.049261817221296 0 0 0
373 1 16.059443715364512 10.637704124742658 4.982050381419243 0 0 0
372 1 15.921281391292627 11.946487824860426 7.03180007926957 0 0 0
348 1 20.05870234063756 10.746180976770951 5.282022090218296 0 0 0
602 1 23.69126985433241 8.97080188965422 13.567382504025213 0 0 0
248 1 18.008555409904975 12.18697452613035 5.681596106794798 0 0 0
375 1 19.291855360895422 12.63811250272885 7.359323137614228 0 0 0
371 1 17.958817596628997 10.515603814257169 7.303860219694118 0 0 0
380 1 19.73191593135815 10.891557552018295 8.959227876313843 0 0 0
376 1 17.74694346943735 12.710598834812446 8.789928197394486 0 0 0
1051 1 23.19481014814721 14.052666329213125 1.8756333847198616 0 0 0
352 1 22.98558024030463 9.038065619148464 7.186918398977463 0 0 0
374 1 21.645311119741624 12.660347722919 9.115677202857116 0 0 0
252 1 21.293237379424394 12.893984047960092 5.364523743874378 0 0 0
1305 1 21.45843177224459 11.126928905565638 7.297240132861881 0 0 0
346 1 22.284700177663918 10.284611093320022 5.472510950929252 0 0 0
377 1 23.124612025566687 13.052768782568219 7.187342051765405 0 0 0
341 1 23.224453431937487 10.569717166394422 8.973299650947244 0 0 0
368 1 10.588476328767968 14.075872819947456 7.5034991081758315 0 0 0
605 1 27.180588726065416 8.71443523378229 13.15371406022803 0 0 0
378 1 24.555965228380245 12.331361640159443 5.209679906180124 0 0 0
228 1 0.13830679829163334 12.054035308930192 4.692543324928872 0 0 0
379 1 25.065597986895337 12.434517746750554 8.40786016566003 0 0 0
381 1 24.667592298347767 10.339342041863796 6.965274311220349 0 0 0
255 1 26.770089294922528 10.536286612641536 5.32510294907839 0 0 0
383 1 26.485189676745943 10.474250062319328 8.30936365643944 0 0 0
1309 1 27.005474158211964 12.607020046863651 6.600639329438085 0 0 0
1522 1 15.902518866750576 0.06631161988542555 9.17681916562001 0 1 0
570 1 25.499315848926695 6.917131339820099 13.608072162803845 0 0 0
508 1 21.378892388075656 12.6590014489152 12.590632340331942 0 0 0
506 1 23.612930614019398 12.654919294701976 10.398979135339536 0 0 0
296 1 1.4099340174369066 3.341646295317467 11.995211355017133 0 0 0
546 1 1.3411264073076894 1.3993317573028186 10.379986435157662 0 0 0
517 1 3.0510419300620453 1.724928231336094 11.690975998598557 0 0 0
390 1 2.935184213591828 3.437710321682533 10.329479693628357 0 0 0
505 1 21.686945623861703 11.012792204810605 10.563932017907959 0 0 0
392 1 4.779779497273457 3.233661616120817 12.37358458551226 0 0 0
391 1 5.379868503080014 1.3595876194785619 10.113954702757221 0 0 0
425 1 6.461992758532857 3.4164973126374285 10.44925629544237 0 0 0
394 1 7.074626605338454 1.8624781484872857 11.971279687561827 0 0 0
49 1 14.522677073288765 3.2105451984652684 0.47795582763043143 0 0 0
569 1 21.843895134843738 2.9011739572843567 14.053588945549409 0 0 0
279 1 17.40404405095317 -0.010745788109384813 7.2120592616005865 0 0 0
86 1 19.04047327686812 8.54977551263835 0.024763758844208283 0 0 0
554 1 8.913272855312464 3.3614452127872614 12.015346712410805 0 0 0
272 1 8.414164468822134 1.9932191956050693 10.114618934138633 0 0 0
426 1 10.44230473047557 1.555860910992052 12.394064758363866 0 0 0
398 1 10.71118836605307 4.183557346787863 11.082335631653171 0 0 0
230 1 5.124447867865492 13.656416396371801 5.032766639297696 0 0 0
436 1 12.275837822066853 1.3914273517661806 11.131073431107366 0 0 0
311 1 12.542698073704157 3.2421140555247456 12.545340121514686 0 0 0
179 1 13.798320254423823 3.407444735217658 10.689843393052454 0 0 0
526 1 14.36597104442566 1.771932696250778 12.649108491287159 0 0 0
125 1 24.46841057041672 10.352762610275988 0.31852117142548264 0 0 0
416 1 19.241759186802714 1.354490370065808 11.332456762416458 0 0 0
1396 1 16.267779402306147 1.3362737829749654 11.103535601858878 0 1 0
404 1 16.07705689503771 3.2556487206974056 12.616288243516008 0 0 0
408 1 17.94797993304292 1.6413712290161824 13.199504404532625 0 0 0
439 1 19.551487783991025 3.4615676820326966 12.675971900595515 0 0 0
1398 1 17.601590377215015 3.1302547076103147 10.937592152787921 0 1 0
548 1 0.3094127206234015 3.286613263951971 13.767619912584129 0 0 0
1642 1 6.805965627881243 0.3669621189405582 13.843203172018885 0 1 0
1289 1 7.139680847289212 13.892153744096442 10.936173648527925 0 0 0
472 1 18.02081972083537 10.821299060542971 10.499449057960758 0 0 0
637 1 25.545551580759348 10.971651865571928 13.822517245114833 0 0 0
412 1 21.37060289028464 1.5908945168915283 12.105752687163372 0 0 0
438 1 21.166942191655266 3.2997761271882053 10.66783480502299 0 0 0
445 1 23.352762961009407 3.231877010077763 12.176839804362535 0 0 0
410 1 23.051579338610665 1.4862682085188421 10.19568523922524 0 0 0
504 1 18.026037220432634 12.314839697424217 12.312653093198275 0 0 0
419 1 28.150827867497355 3.5234161066308562 10.341847346841158 -1 0 0
260 1 28.429665245115423 1.1531337390582141 11.871899917499833 -1 0 0
414 1 24.715729836814198 1.2299242958669334 12.3425691386204 0 0 0
446 1 24.78743421320284 3.0240259385686037 10.457872291081468 0 0 0
287 1 26.685539104434014 1.7926787338443266 10.402719850900827 0 0 0
447 1 26.526044120798883 3.2199241848375393 12.085316928135429 0 0 0
424 1 3.763029109492151 5.2407043629709475 12.007659050745056 0 0 0
418 1 1.5850790110255306 4.958826570568038 10.465047262518665 0 0 0
451 1 1.925096527424381 6.882480422868866 12.10403620060453 0 0 0
450 1 1.6150508309449303 8.644367978300295 10.326430153721848 0 0 0
456 1 3.158721721664223 8.760104459685637 12.261500649953142 0 0 0
453 1 3.6594984694511647 6.753894579169015 10.632391371387891 0 0 0
449 1 -0.04291399135790025 6.900232743129339 10.57126327140111 0 0 0
452 1 -0.012790653526371182 8.876101784281675 11.56011525331965 0 0 0
420 1 28.29260477959018 5.129197482504904 11.938606666463398 -1 0 0
421 1 4.735711045243658 4.8634082557128355 9.9968570498155 0 0 0
423 1 6.121446292812815 4.997693837346217 11.825170129362094 0 0 0
460 1 6.858596644104771 8.913618577060284 12.31628262864972 0 0 0
455 1 4.9210478919510585 7.238044431831034 12.37966528310264 0 0 0
454 1 5.150534802302985 9.04810474598224 10.734240508743527 0 0 0
457 1 6.6763899969156935 7.161451168857368 10.555570199392012 0 0 0
550 1 5.246170728838724 5.2167370382085885 14.083637288157334 0 0 0
331 1 8.27430973028728 7.008705830134494 8.573478975427456 0 0 0
1263 1 12.671988765991093 0.030961297547992928 1.7839922937009824 0 1 0
491 1 8.353780040907596 8.824216156988053 10.38027120242937 0 0 0
585 1 10.19155074028922 5.585644504996438 13.202553287919796 0 0 0
428 1 8.245012434195473 5.248941884707589 10.742825756203503 0 0 0
586 1 8.017854577333972 7.1429429559492235 12.496805447180328 0 0 0
459 1 10.108104226227832 6.988406230210548 11.455209633405445 0 0 0
493 1 10.293306017217976 9.124908334841933 12.375832088754951 0 0 0
435 1 12.010986648096996 6.93098004064968 12.328603287323645 0 0 0
413 1 25.163218768259515 -0.016485494471119466 10.50903820587444 0 0 0
430 1 13.029824273290417 5.405739618113517 10.9932513619017 0 0 0
561 1 14.370680426164629 5.333029350670029 13.033774965931059 0 0 0
312 1 14.228547144808678 7.505043110015811 11.13415841433889 0 0 0
621 1 13.825527204170946 9.146132959765282 12.826898861661451 0 0 0
626 1 16.255518218227554 9.093990706026432 10.79904229087887 0 0 0
471 1 16.17732885772242 7.637181278381931 12.528544716322893 0 0 0
433 1 12.197647963338982 9.13721847714432 10.925965030377432 0 0 0
467 1 15.96409878881213 5.447810179135117 11.2429512441774 0 0 0
434 1 17.753314026858174 4.972936984271935 12.610636422981687 0 0 0
465 1 18.33091331556277 7.08817679851176 11.03202733912798 0 0 0
344 1 19.961833587335946 5.1144638649228735 10.928839049992641 0 0 0
469 1 17.907449008077606 9.226261076324827 12.257333630027228 0 0 0
501 1 19.81880311220069 9.240559654549326 10.806078412926382 0 0 0
470 1 19.760790397986845 7.418007714347224 12.522086408727352 0 0 0
503 1 20.120784715935123 10.847978830097796 12.176203360335634 0 0 0
7 1 5.6728159133616165 -0.02978372662010642 2.0201017681217786 0 0 0
345 1 21.475955614489344 6.770632837446715 10.377751512541685 0 0 0
474 1 22.857412177919056 9.159643176193667 11.041872308403988 0 0 0