LAMMPS (29 Oct 2020)
OMP_NUM_THREADS environment is not set. Defaulting to 1 thread. (src/comm.cpp:94)
  using 1 OpenMP thread(s) per MPI task
package omp 0
using multi-threaded neighbor list subroutines
package omp 2
set 2 OpenMP thread(s) per MPI task
using multi-threaded neighbor list subroutines
units metal
dimension 3
boundary p p p


lattice fcc 3.5440
Lattice spacing in x,y,z = 3.5440000 3.5440000 3.5440000
region box block 0 8 0 8 0 8 units lattice
create_box 1 box
Created orthogonal box = (0.0000000 0.0000000 0.0000000) to (28.352000 28.352000 28.352000)
  1 by 2 by 2 MPI processor grid
create_atoms 1 box
Created 2048 atoms
  create_atoms CPU = 0.001 seconds

# read_restart after_heating_press_100000_2500.lmp

variable P equal 150000
variable dt equal 0.001
variable loopVar loop 6
variable sys_press equal "press/10000"
variable sim string "heating"
#variable temp_word equal "heating"

# print "step temp vol pe" file heating.txt screen no

pair_style eam/alloy
pair_coeff * * Co_Zhou04.eam.alloy Co
Reading eam/alloy potential file Co_Zhou04.eam.alloy with DATE: 2018-03-30




neighbor 2 bin
neigh_modify every 10 check yes

thermo 1000
thermo_style custom step temp vol press ke pe density

timestep $(dt)
timestep 0.0010000000000000000208



velocity all create 2400 123123

print """
yo aagadi
"""

yo aagadi

label ensemble

print """
Label pachadi solti, hos garam.
"""

Label pachadi solti, hos garam.

variable T equal 2300+${loopVar}*100
variable T equal 2300+1*100
# variable T equal 2500


reset_timestep 0
fix 1 all npt temp $T $T $(dt*100) iso $P $P $(dt*1000)
fix 1 all npt temp 2400 $T $(dt*100) iso $P $P $(dt*1000)
fix 1 all npt temp 2400 2400 $(dt*100) iso $P $P $(dt*1000)
fix 1 all npt temp 2400 2400 0.10000000000000000555 iso $P $P $(dt*1000)
fix 1 all npt temp 2400 2400 0.10000000000000000555 iso 150000 $P $(dt*1000)
fix 1 all npt temp 2400 2400 0.10000000000000000555 iso 150000 150000 $(dt*1000)
fix 1 all npt temp 2400 2400 0.10000000000000000555 iso 150000 150000 1
print """
<--------------------------------------------------------------------->
<------------------ Equilibrating at temperature $T ----------------->
<--------------------------------------------------------------------->
"""

<--------------------------------------------------------------------->
<------------------ Equilibrating at temperature 2400 ----------------->
<--------------------------------------------------------------------->

fix temp all print 1000 "$(step) $(temp) $(press) ${sys_press} $(vol) $(ke) $(pe) $(density)" file temp_${sim}.txt screen no title  "step temp press pressGiga vol ke pe density"
fix temp all print 1000 "$(step) $(temp) $(press) ${sys_press} $(vol) $(ke) $(pe) $(density)" file temp_heating.txt screen no title  "step temp press pressGiga vol ke pe density"
run 250000
Last active /omp style is pair_style eam/alloy/omp
Neighbor list info ...
  update every 10 steps, delay 10 steps, check yes
  max neighbors/atom: 2000, page size: 100000
  master list distance cutoff = 7.6035394
  ghost atom cutoff = 7.6035394
  binsize = 3.8017697, bins = 8 8 8
  1 neighbor lists, perpetual/occasional/extra = 1 0 0
  (1) pair eam/alloy/omp, perpetual
      attributes: half, newton on, omp
      pair build: half/bin/atomonly/newton/omp
      stencil: half/bin/3d/newton
      bin: standard
Per MPI rank memory allocation (min/avg/max) = 4.354 | 4.354 | 4.354 Mbytes
Step Temp Volume Press KinEng PotEng Density 
       0         2400    22790.356     37442.18    635.02924    -9015.757        8.794 
    1000    2517.2036    23148.335    149437.77    666.04077   -8338.6468    8.6580042 
    2000    2425.2738    22988.541    149306.69    641.71656   -8392.1493    8.7181863 
    3000    2385.0193    23085.691    149473.03    631.06542   -8356.6229    8.6814982 
    4000     2415.433    23057.928    151222.48    639.11273   -8355.3952    8.6919511 
    5000    2400.1835    23046.575    146508.02    635.07779   -8384.7484    8.6962329 
    6000    2408.5682    22953.914    156732.78    637.29634   -8365.7064    8.7313381 
    7000     2326.649    23052.216    145987.05    615.62089   -8379.0267     8.694105 
    8000    2433.2481    23014.948    153713.39    643.82655   -8360.5526    8.7081834 
    9000    2391.2929    23082.018    148190.29    632.72539   -8359.1517    8.6828799 
   10000    2365.7473    23196.241     144449.7    625.96612   -8339.4427    8.6401234 
   11000    2417.9497    22924.353    156620.43    639.77866   -8385.6993    8.7425975 
   12000    2382.5492    23109.062    146644.28    630.41184     -8360.36    8.6727183 
   13000     2306.492    23015.476     153682.4    610.28745   -8355.1182    8.7079837 
   14000    2341.1161    23003.141    153374.81    619.44883   -8362.0399     8.712653 
   15000    2458.4337    23054.812     152152.6    650.49054   -8356.1439     8.693126 
   16000    2358.8671    23084.939    148229.83    624.14567   -8359.7245    8.6817812 
   17000    2516.6938    23136.263    144136.73    665.90589   -8368.9653    8.6625221 
   18000    2476.7437    22995.943    155917.05    655.33527    -8362.926    8.7153801 
   19000    2378.9135    23027.362    148507.18    629.44984   -8380.1966    8.7034886 
   20000    2394.4745    23051.248    149769.07    633.56722   -8365.0458      8.69447 
   21000    2391.7208    23025.253     148706.8    632.83861   -8383.3941    8.7042858 
   22000    2462.4203    23034.159    149573.27    651.54538   -8377.0138    8.7009206 
   23000    2431.3776     23007.24    153587.33    643.33161   -8368.7236    8.7111007 
   24000    2360.6508     23083.12    145432.88    624.61762   -8371.6741    8.6824651 
   25000    2381.8103    22986.194    154701.67    630.21632   -8364.9866    8.7190765 
   26000    2372.2409    22994.496    152831.96    627.68431   -8367.9678    8.7159288 
   27000     2325.238    23112.111    148763.87    615.24755   -8343.7213    8.6715744 
   28000    2380.6834     23074.65    146751.97    629.91816   -8371.9897    8.6856522 
   29000     2434.838    22929.323    163959.02    644.24722     -8346.18    8.7407022 
   30000    2378.9745    23107.751    142208.82    629.46599   -8381.2268    8.6732104 
   31000    2379.9755    22928.187    158069.94    629.73085   -8372.4855    8.7411354 
   32000    2398.6854    23115.656    147766.48     634.6814   -8351.7221    8.6702443 
   33000    2362.1419    23011.845    150084.17    625.01216   -8374.1196    8.7093577 
   34000    2400.5029    23038.088    154680.92    635.16229   -8345.2174    8.6994367 
   35000    2380.9042    23051.943    149912.35    629.97657   -8361.3411    8.6942078 
   36000    2319.1183    23050.301    149530.22     613.6283   -8359.0513    8.6948274 
   37000    2506.6023    23012.186    153874.89    663.23574   -8365.2711    8.7092284 
   38000    2310.0383     23050.21     144404.7    611.22578   -8389.5166    8.6948618 
   39000    2425.2545    22953.179    157465.79    641.71147   -8363.3786    8.7316177 
   40000    2431.1475    23038.297    153721.22    643.27074   -8352.9967    8.6993578 
   41000    2442.3364    23200.045    139445.52    646.23126   -8364.1547    8.6387069 
   42000    2428.8053    22959.131    156326.96    642.65099   -8369.2591    8.7293542 
   43000    2401.5443    23158.006    143083.67    635.43784    -8359.373    8.6543889 
   44000    2414.6139    23077.033    149390.38    638.89602   -8357.3956    8.6847555 
   45000    2428.2248    22995.965    152060.99     642.4974   -8377.2679    8.7153719 
   46000    2461.2153    23124.174    148123.13    651.22654   -8352.1237    8.6670505 
   47000    2365.9059     23022.77    150446.71    626.00809   -8375.0547    8.7052249 
   48000    2470.8381    22981.195    155697.21    653.77267   -8364.4307    8.7209734 
   49000    2374.8575    23074.617     146760.5    628.37664   -8370.6889    8.6856646 
   50000    2361.4053    23081.013    150342.43    624.81726   -8349.6835     8.683258 
   51000    2451.7886    23036.537    148820.82    648.73228   -8379.2311    8.7000224 
   52000     2411.137    23105.268    144393.27    637.97605   -8376.6467    8.6741425 
   53000    2441.4923    22851.338    164523.48    646.00793   -8373.5683    8.7705319 
   54000    2341.2109    23124.705    144433.53    619.47392    -8362.117    8.6668517 
   55000    2392.0007    22960.721    155411.27    632.91265   -8375.1738    8.7287499 
   56000    2343.0414    23084.347       150133    619.95825   -8349.1539    8.6820036 
   57000    2364.1399    22929.101     159141.6    625.54082   -8361.9873     8.740787 
   58000    2370.0735    23047.464    146424.76    627.11082   -8383.3057    8.6958976 
   59000    2397.6732    23079.238    151011.48    634.41359   -8347.3125    8.6839257 
   60000    2417.2932    23049.893    150118.85    639.60493   -8366.3664    8.6949814 
   61000    2431.0215    23031.748    149501.44     643.2374   -8376.4751    8.7018315 
   62000    2360.6117    23094.595     144005.1    624.60727   -8378.2742    8.6781511 
   63000    2412.4276    23001.968    157006.51    638.31754   -8351.4238    8.7130972 
   64000    2437.8149    23060.623    148535.52    645.03489   -8372.9196    8.6909354 
   65000    2370.2808    23068.914    146214.62    627.16568   -8374.6221    8.6878118 
   66000    2371.2694    23013.808    152772.92    627.42726   -8364.0544    8.7086146 
   67000    2339.6677    23095.651    144686.28    619.06559   -8370.4916    8.6777543 
   68000    2431.5236    22976.577    158080.73    643.37024   -8356.1653    8.7227261 
   69000    2301.2167     23038.47    148611.05    608.89163   -8370.3313    8.6992924 
   70000    2382.1189    23110.591    147132.85    630.29798   -8354.7132    8.6721444 
   71000    2510.1679    22916.065    163048.19    664.17918   -8356.3728    8.7457592 
   72000    2323.6691    23130.032    145637.58    614.83242   -8352.3594    8.6648555 
   73000    2414.7016    23048.425    148106.31    638.91923   -8377.5584    8.6955351 
   74000    2330.6201     23081.36    151084.95    616.67163   -8342.9497    8.6831272 
   75000    2391.8934    22958.041    157955.09    632.88427   -8356.6507    8.7297688 
   76000    2379.7332    23081.502    143248.34    629.66674   -8385.5705    8.6830738 
   77000    2433.6412    23037.801    154863.53    643.93055   -8350.8881    8.6995449 
   78000    2456.4634    22917.088    159627.29     649.9692   -8372.9336    8.7453689 
   79000    2359.2234    23084.753    143466.59    624.23994   -8381.3877    8.6818508 
   80000    2372.7296    22997.988    155248.17    627.81362    -8357.395    8.7146051 
   81000    2345.8938     22964.17    154707.13    620.71299   -8372.7804    8.7274386 
   82000    2451.0922    23060.806     148847.4    648.54801   -8369.7178    8.6908664 
   83000    2415.5209    22958.677    154624.93    639.13599   -8381.6403    8.7295269 
   84000      2368.88    23030.283    151253.09    626.79504   -8363.1494    8.7023847 
   85000     2429.579    23094.611    147819.18    642.85572   -8361.7462     8.678145 
   86000    2367.4237    22990.105    157771.64    626.40969   -8344.7684    8.7175935 
   87000    2338.4088    23076.222    146621.86    618.73248   -8373.4441    8.6850604 
   88000    2376.3171    22964.196    159446.76    628.76285   -8348.6629    8.7274288 
   89000     2397.243    23081.722    147637.15    634.29976   -8365.9389    8.6829909 
   90000    2416.1325    23066.569    145238.61    639.29782   -8383.4271    8.6886952 
   91000    2491.5967    23018.511     149288.6    659.26533   -8385.3446    8.7068354 
   92000    2438.0493    23034.806    150952.01    645.09691   -8370.4876     8.700676 
   93000    2376.1297    23099.233    147172.66    628.71328   -8361.2598    8.6764088 
   94000    2374.1902    23066.999    148497.06    628.20009   -8366.9023    8.6885331 
   95000    2401.7234    22983.566    155112.28    635.48526    -8366.712    8.7200737 
   96000    2422.7573    23109.194    146647.63    641.05072    -8362.558    8.6726689 
   97000    2416.5639    22949.262    157798.21    639.41198   -8369.0044     8.733108 
   98000     2284.009    23105.965    144505.28    604.33853   -8364.9703    8.6738808 
   99000    2456.5696    23013.178    153993.47    649.99731   -8361.1763    8.7088531 
  100000    2388.9081    22986.118    151402.46    632.09438   -8383.1131    8.7191055 
  101000    2425.6874    23112.816    147334.02    641.82602   -8356.1992    8.6713096 
  102000    2424.7605    23056.649    145553.57    641.58077    -8387.264    8.6924332 
  103000    2430.8142    23026.089    156716.78    643.18253   -8349.0899    8.7039698 
  104000    2335.3455     22977.37     152157.3    617.92196   -8377.7956    8.7224249 
  105000    2477.8917    23075.775    141479.91    655.63905   -8407.3327    8.6852286 
  106000    2395.0029    23030.287    150944.41    633.70703   -8367.6204    8.7023835 
  107000    2446.8885    22940.962    154912.05    647.43573   -8386.8039    8.7362677 
  108000    2413.5014    23063.902    148166.47    638.60165   -8367.0131    8.6896998 
  109000    2475.3925    23124.445    144308.15    654.97776   -8371.2318     8.666949 
  110000    2496.0234     22855.05    163254.95     660.4366   -8380.0116    8.7691072 
  111000    2360.6724    23189.345    140073.56    624.62333   -8362.0523    8.6426928 
  112000    2423.5955    23005.349    152448.75     641.2725   -8369.7354    8.7118168 
  113000    2358.1766    23088.236    146742.43    623.96295   -8362.9458    8.6805414 
  114000    2356.6021    23001.706    158869.54    623.54636   -8334.9809    8.7131967 
  115000     2332.689    23024.541     149672.7    617.21905   -8372.1986     8.704555 
  116000    2388.0774    22953.379    150964.11    631.87457    -8398.121    8.7315417 
  117000    2396.4495    23001.765    154980.97    634.08978   -8358.6029    8.7131744 
  118000    2342.5402    23079.441    146943.34    619.82564   -8367.5464    8.6838493 
  119000    2375.7578    23001.288    151821.36    628.61486   -8371.8551    8.7133549 
  120000    2459.9429    22982.793    155417.89    650.88985   -8368.3893    8.7203669 
  121000      2362.54    23050.874    151332.43    625.11749   -8354.8179    8.6946112 
  122000    2335.4597    23121.308    145654.86    617.95216   -8355.7028     8.668125 
  123000    2365.6463    22894.519    163456.35    625.93941   -8360.3608    8.7539897 
  124000    2323.8476    23076.208    148083.25    614.87965   -8360.2515    8.6850657 
  125000    2369.5962    23016.102    151116.69    626.98452    -8371.581    8.7077467 
  126000     2464.539    23043.601    148351.55    652.10597   -8382.2028    8.6973554 
  127000    2425.3879     23063.75    148042.44    641.74678   -8372.3204    8.6897573 
  128000    2346.8771    23002.932    148128.51    620.97316   -8390.2098    8.7127322 
  129000    2460.2135    22983.308    153693.22    650.96146   -8376.5422    8.7201714 
  130000    2382.3195    23136.698    152116.75    630.35106   -8319.9005    8.6623592 
  131000    2412.8084     23016.39    148702.01    638.41827   -8386.5899    8.7076379 
  132000    2393.3503    23030.055    152715.89    633.26977   -8356.8978     8.702471 
  133000    2401.5208    23060.414    144888.05    635.43163   -8386.0455    8.6910144 
  134000    2356.2417    23097.998    146890.99    623.45099   -8360.1486    8.6768728 
  135000    2385.9935    22867.835    162849.16    631.32317   -8368.6569    8.7642047 
  136000    2451.4246    23106.008    144103.47    648.63597   -8377.4129    8.6738647 
  137000    2342.3399    23089.399    149738.43    619.77263   -8347.5557    8.6801039 
  138000    2386.8647    23059.959    148064.55    631.55371    -8375.892    8.6911857 
  139000    2391.6565    23053.801    150860.47    632.82158   -8358.4071    8.6935073 
  140000    2428.7154    23000.149    149157.87    642.62721   -8392.9887    8.7137866 
  141000    2488.1863    23073.043    150196.11    658.36295   -8359.1052    8.6862573 
  142000    2381.5839    23029.103     150810.2    630.15641   -8369.1829    8.7028309 
  143000    2456.2947    23116.547    142892.22    649.92456   -8377.6303      8.66991 
  144000    2456.5166    22934.493     161684.8    649.98329   -8356.7042     8.738732 
  145000    2363.9196    23132.491     139714.8    625.48252   -8384.8092    8.6639347 
  146000    2429.0277    22964.244    155541.75    642.70983   -8375.6058    8.7274107 
  147000    2340.6985    23072.529    146306.94    619.33834   -8373.3454    8.6864506 
  148000    2393.7005    22938.657    160488.47    633.36241   -8356.4513    8.7371455 
  149000    2425.6276     23057.22    147777.56    641.81018   -8374.4191     8.692218 
  150000    2379.5777    23002.552    150610.57    629.62558   -8381.2777    8.7128761 
  151000     2443.207    23068.401    148915.24    646.46162   -8363.3101    8.6880053 
  152000    2362.8734    23011.736    150854.26    625.20571    -8374.242    8.7093989 
  153000    2395.4281    23118.205    145714.87    633.81954   -8365.1552    8.6692885 
  154000    2382.1267    22980.824    151764.53    630.30004   -8382.9108    8.7211142 
  155000    2417.4051    23003.314    153669.13    639.63456   -8368.4985    8.7125876 
  156000    2396.1181    23173.705    138652.84     634.0021   -8374.1084     8.648526 
  157000    2437.4125    22877.143    166606.29    644.92843     -8351.24     8.760639 
  158000    2297.1618    23057.369    148221.87    607.81871   -8364.6309    8.6921621 
  159000    2369.3258    23021.122    156138.34    626.91297    -8343.206    8.7058477 
  160000    2351.9318    22946.884    157831.08     622.3106   -8365.6348    8.7340132 
  161000    2340.0015    23077.809     144051.5     619.1539   -8378.0877    8.6844635 
  162000    2365.9903    23044.417    151406.95    626.03043   -8354.1808    8.6970473 
  163000    2480.2266    23126.214    145504.93    656.25683   -8362.1749    8.6662861 
  164000    2261.4653    22972.086    153389.65    598.37358   -8369.9183    8.7244313 
  165000    2394.9839    23037.571     151314.6      633.702   -8363.8723    8.6996318 
  166000    2372.3959     23132.72    143836.97    627.72531   -8362.2093    8.6638489 
  167000    2397.7387    22838.722    168022.35    634.43091   -8358.3327    8.7753767 
  168000    2450.4927    23124.665    144215.16    648.38939   -8368.5638    8.6668667 
  169000    2454.9789    22950.243    154812.99    649.57642   -8388.1961    8.7327347 
  170000    2355.1174    23031.977    149682.41    623.15351   -8371.1908    8.7017449 
  171000    2443.4097    23047.002    148952.32    646.51524   -8373.8282     8.696072 
  172000    2393.3088    23139.272    142134.19    633.25878   -8370.1966    8.6613953 
  173000    2473.1433    23029.574    155262.77    654.38262   -8354.3286    8.7026527 
  174000    2408.3305    23040.435     148778.2    637.23347   -8375.6401    8.6985504 
  175000    2425.3746    23040.621    147797.56    641.74324   -8384.8591    8.6984804 
  176000    2336.8223    23056.272    147329.09    618.31271   -8374.1917    8.6925755 
  177000    2352.6641    22986.475    154279.76    622.50437   -8363.8265    8.7189702 
  178000     2370.629    23145.317    141386.08    627.25781      -8370.3    8.6591333 
  179000    2419.1396    22889.295    162553.14     640.0935   -8368.9136    8.7559879 
  180000    2396.5586    23053.968    148206.37    634.11867   -8370.7175    8.6934443 
  181000    2408.0718    23108.096     146784.5    637.16501   -8357.3917    8.6730809 
  182000    2434.7364    22955.544    156727.18    644.22034   -8371.9376    8.7307181 
  183000    2406.9192    23127.115    139642.96    636.86004    -8388.695    8.6659486 
  184000    2418.6381    22952.424    160571.79     639.9608    -8351.153    8.7319049 
  185000     2393.494     23070.65    149839.06    633.30777   -8360.3925    8.6871581 
  186000    2458.1309    23159.033    146721.22    650.41041   -8341.0506     8.654005 
  187000    2368.0039    22987.959    152822.55    626.56322   -8373.9744     8.718407 
  188000    2416.4559    23018.821    157754.85    639.38339   -8339.1141    8.7067181 
  189000    2350.9571    23116.172    146883.84    622.05271   -8354.6819    8.6700508 
  190000    2425.8177    23097.757     146913.3    641.86049   -8363.8818     8.676963 
  191000    2413.6718    22981.388    153356.83    638.64675    -8377.711    8.7208999 
  192000    2341.3706     23103.81    144212.95    619.51617   -8366.1688    8.6746898 
  193000    2450.9046    23054.555    149923.99    648.49836   -8366.0123     8.693223 
  194000    2411.9001     23176.01    142679.16    638.17796   -8358.0251    8.6476655 
  195000    2420.5587    23162.158    144092.23    640.46898   -8351.7586    8.6528375 
  196000    2396.9361    22931.874    156921.94    634.21855   -8378.5595    8.7397298 
  197000    2377.2958    23094.546    150388.45    629.02182   -8343.8471    8.6781694 
  198000    2403.2095    23012.992    148569.86    635.87847   -8388.2334    8.7089237 
  199000    2458.6532    23033.878    154382.83     650.5486   -8351.7393    8.7010265 
  200000    2377.8912    23188.336    138711.38    629.17935   -8366.4161    8.6430688 
  201000    2391.7427    22953.573    153860.91    632.84439   -8386.0685    8.7314678 
  202000    2374.1854    22956.773    156602.45    628.19881   -8366.0825    8.7302508 
  203000    2379.6153    23180.303    141908.31    629.63555    -8356.469     8.646064 
  204000    2327.3456    22928.104    158194.84    615.80522   -8369.6691     8.741167 
  205000    2409.6682    23096.706    146610.36     637.5874   -8361.6469    8.6773579 
  206000    2446.5211     23130.59    142936.98    647.33853   -8370.7064    8.6646465 
  207000    2443.7932    23036.823    146082.85    646.61673   -8391.7771    8.6999144 
  208000    2419.1621    23120.329    144458.37    640.09944   -8365.8711    8.6684922 
  209000    2372.1057     22990.56     153473.9    627.64853   -8370.7513    8.7174207 
  210000    2465.5663    23022.127     154752.8    652.37778   -8356.0614    8.7054678 
  211000    2355.1413     23084.43    147123.66    623.15984   -8363.0629    8.6819724 
  212000    2420.1599    23082.607    148011.03    640.36346   -8363.6678    8.6826583 
  213000    2357.9446    22998.374     152693.4    623.90157   -8366.0116    8.7144588 
  214000    2427.3986    23079.032    149623.25    642.27879   -8355.5399    8.6840032 
  215000    2382.0304    23141.144    141865.03    630.27456   -8369.6574    8.6606947 
  216000    2528.8911    23019.381    154202.76    669.13325   -8365.7775    8.7065064 
  217000      2383.64    23228.489    133884.14    630.70046   -8377.0386    8.6281283 
  218000    2462.5037    22970.447    158240.54    651.56744   -8357.1805     8.725054 
  219000    2379.1708    23017.598    150717.49    629.51792   -8373.0601    8.7071809 
  220000    2425.4691    23081.967    145369.54    641.76824   -8378.8469    8.6828989 
  221000    2382.3152    23031.511    150891.54    630.34992   -8364.9437    8.7019209 
  222000    2457.6557    23061.495     147669.5    650.28468   -8378.5576    8.6906067 
  223000    2428.1649    23030.952    153692.51    642.48156    -8358.871    8.7021319 
  224000    2477.8235    23080.852    146449.21    655.62099   -8375.6291    8.6833184 
  225000    2350.8832    23024.565    152087.09    622.03314   -8363.1785    8.7045459 
  226000    2390.2329    23044.384    150355.69    632.44491   -8364.0903    8.6970598 
  227000    2399.7455    22912.319    157373.37    634.96191    -8381.587    8.7471892 
  228000    2439.9643    23141.887    140145.08     645.6036   -8382.2564    8.6604168 
  229000    2343.8208    22945.128    158073.33    620.16447   -8361.8674    8.7346815 
  230000    2353.3166    23044.683    150020.18    622.67703   -8361.3809    8.6969472 
  231000    2401.5647    23017.188     148371.8    635.44324   -8385.0595    8.7073359 
  232000    2323.7593    23025.414    151109.78    614.85629    -8361.805    8.7042252 
  233000    2449.5279    23044.162    153389.77    648.13409   -8354.2844    8.6971438 
  234000     2452.115    23042.451    146353.26    648.81863   -8386.7744    8.6977895 
  235000    2426.3197    23152.314    142393.35    641.99331   -8366.7536    8.6565163 
  236000    2424.1071     22898.56    161029.02    641.40788   -8369.3493     8.752445 
  237000    2466.0574    23117.058    148251.46    652.50774   -8354.0699    8.6697184 
  238000    2398.6795    23045.932     148932.1    634.67984   -8373.3587    8.6964756 
  239000    2372.6572     23076.81    148435.76    627.79446   -8360.8536    8.6848391 
  240000    2346.9326    23000.031    152902.04    620.98785   -8365.1685    8.7138311 
  241000    2372.6012    23076.845    146321.36    627.77965    -8370.223    8.6848263 
  242000    2444.4351    23064.203    150199.56    646.78658   -8363.2307    8.6895865 
  243000    2361.2293    22968.267    154120.03    624.77068   -8376.8461    8.7258821 
  244000    2451.0224    23211.233    134463.87    648.52953   -8386.2986     8.634543 
  245000    2410.5388    22955.199    157748.19    637.81776   -8362.1021    8.7308495 
  246000    2458.6448    23068.663    149398.22    650.54639   -8365.7926    8.6879066 
  247000    2438.3515    23056.658    149203.02    645.17686   -8368.0713    8.6924301 
  248000    2386.1347     22939.19    164462.17    631.36053   -8335.0538    8.7369428 
  249000    2357.9668    23141.283    139833.13    623.90744   -8379.3021    8.6606429 
  250000    2442.6058    22986.286    158341.51    646.30254   -8351.8063    8.7190418 
Loop time of 524.215 on 8 procs for 250000 steps with 2048 atoms

Performance: 41.204 ns/day, 0.582 hours/ns, 476.903 timesteps/s
119.3% CPU use with 4 MPI tasks x 2 OpenMP threads

MPI task timing breakdown:
Section |  min time  |  avg time  |  max time  |%varavg| %total
---------------------------------------------------------------
Pair    | 305.73     | 311.08     | 316.57     |  22.7 | 59.34
Neigh   | 4.7974     | 4.922      | 5.001      |   3.4 |  0.94
Comm    | 22.52      | 28.24      | 33.662     |  77.3 |  5.39
Output  | 0.006316   | 0.011354   | 0.013045   |   2.7 |  0.00
Modify  | 178.85     | 179        | 179.14     |   0.8 | 34.15
Other   |            | 0.9699     |            |       |  0.19

Nlocal:        512.000 ave         520 max         499 min
Histogram: 1 0 0 0 0 0 1 0 1 1
Nghost:        3084.50 ave        3098 max        3074 min
Histogram: 1 0 1 0 0 1 0 0 0 1
Neighs:        41713.0 ave       43909 max       40616 min
Histogram: 1 2 0 0 0 0 0 0 0 1

Total # of neighbors = 166852
Ave neighs/atom = 81.470703
Neighbor list builds = 4903
Dangerous builds = 0


# fix 132 all momentum 100 linear 1 1 1 angular
fix out_file_1 all print 1000 "$(step) $(temp) $(press) ${sys_press} $(vol) $(ke) $(pe) $(density)" file one_phase_${sim}_press_$P_$T_.txt screen no title  "step temp press pressGiga vol ke pe density"
fix out_file_1 all print 1000 "$(step) $(temp) $(press) ${sys_press} $(vol) $(ke) $(pe) $(density)" file one_phase_heating_press_$P_$T_.txt screen no title  "step temp press pressGiga vol ke pe density"
fix out_file_1 all print 1000 "$(step) $(temp) $(press) ${sys_press} $(vol) $(ke) $(pe) $(density)" file one_phase_heating_press_150000_$T_.txt screen no title  "step temp press pressGiga vol ke pe density"
fix out_file_1 all print 1000 "$(step) $(temp) $(press) ${sys_press} $(vol) $(ke) $(pe) $(density)" file one_phase_heating_press_150000_2400_.txt screen no title  "step temp press pressGiga vol ke pe density"

# dump 3 all custom 1000 traj_npt_new.lammpstrj id type x y z
run 50000
Last active /omp style is pair_style eam/alloy/omp
Per MPI rank memory allocation (min/avg/max) = 4.354 | 4.354 | 4.354 Mbytes
Step Temp Volume Press KinEng PotEng Density 
  250000    2442.6058    22986.286    158341.51    646.30254   -8351.8063    8.7190418 
  251000    2358.0404    23049.335       147853    623.92691   -8373.5553    8.6951915 
  252000    2366.1514    23113.197    149452.13    626.07305   -8338.2526     8.671167 
  253000    2432.5286    22955.638    155589.41    643.63617   -8376.7891    8.7306823 
  254000    2429.5042    23211.585    136949.95    642.83593   -8371.8815     8.634412 
  255000    2344.5409    22947.475    156772.01    620.35502   -8370.9618    8.7337881 
  256000    2490.6439    23066.719    146648.13    659.01321   -8382.5158    8.6886386 
  257000     2383.745    22990.662    152382.48    630.72824   -8373.9909    8.7173822 
  258000    2447.0775     23028.88    150086.13    647.48574   -8375.5304     8.702915 
  259000    2331.4208    23147.599     141325.3     616.8835   -8368.2737    8.6582799 
  260000    2469.5988    23017.977    156077.56    653.44476   -8351.7235    8.7070375 
  261000    2410.5938    23118.234    147149.51     637.8323   -8353.6857    8.6692777 
  262000    2336.6551    22960.846    157958.64    618.26845   -8356.2023    8.7287022 
  263000    2451.1462    23053.674    152128.86    648.56229   -8357.0893    8.6935553 
  264000    2370.4793    23174.732    141692.27    627.21821   -8356.7894    8.6481427 
  265000    2444.0154    22918.556    162360.74     646.6755    -8358.454    8.7448085 
  266000    2410.0598    23125.787    140064.97    637.69102     -8389.35    8.6664462 
  267000     2345.488     23005.57    154297.28    620.60562   -8359.0633    8.7117333 
  268000    2379.7419    23076.338    144168.02    629.66905   -8386.4595    8.6850171 
  269000    2429.1443    22966.925    160347.45    642.74069    -8347.515     8.726392 
  270000    2343.0885    23130.743    143706.64    619.97072   -8360.3738    8.6645892 
  271000    2383.7907    23029.763    149851.23    630.74032   -8370.9881    8.7025814 
  272000    2444.8458    23025.427    152238.68    646.89525   -8368.3349    8.7042203 
  273000    2452.4275    23022.224    147574.19    648.90131   -8392.9589    8.7054311 
  274000    2391.2112    23054.792    149112.48    632.70376   -8367.8216    8.6931335 
  275000    2412.2514    23160.797     143096.2    638.27092    -8356.841    8.6533459 
  276000    2489.9735    22960.828    164524.83    658.83583   -8332.9556    8.7287089 
  277000    2313.8857    23117.996    141905.41    612.24378   -8376.6751    8.6693668 
  278000    2369.8227    22952.202     158486.8    627.04446   -8358.5771    8.7319896 
  279000    2418.0462    23038.097    153078.43    639.80418   -8357.9428    8.6994331 
  280000     2387.201     23018.63    150863.04    631.64268   -8373.1797    8.7067906 
  281000    2428.8961    23063.533    145047.38    642.67502   -8384.8635    8.6898389 
  282000    2453.1869    23064.214    149767.17    649.10225   -8365.8135    8.6895823 
  283000    2438.2078     23078.31    149146.85    645.13886   -8363.4096    8.6842747 
  284000    2353.3925    23113.778    139359.32     622.6971   -8392.4406    8.6709487 
  285000    2447.0357    22962.142    160634.98    647.47468   -8346.9413    8.7282093 
  286000    2406.5464    23146.319    139259.51     636.7614   -8382.9716    8.6587586 
  287000    2430.2929    23078.942    147471.24    643.04461    -8365.243     8.684037 
  288000    2387.9766    23044.973    154486.28     631.8479   -8343.1473    8.6968374 
  289000    2443.1167    23074.684     146682.7    646.43771   -8371.4214    8.6856394 
  290000    2444.8074    23044.343    150932.71    646.88507   -8366.7989    8.6970755 
  291000    2332.5878    23076.257    151521.95    617.19228   -8342.5688    8.6850473 
  292000    2370.3615    22938.183    156984.61    627.18703    -8370.356    8.7373262 
  293000    2453.8729     23027.83    147915.94    649.28378   -8389.0965    8.7033119 
  294000    2387.3228    23048.892    149088.93    631.67492   -8371.0743     8.695359 
  295000    2433.0413    23056.489    152846.29    643.77183    -8351.077    8.6924936 
  296000    2345.8935    23192.059    135830.03    620.71291   -8380.2896    8.6416814 
  297000    2457.1631    22952.196    158617.28    650.15435   -8363.8695    8.7319918 
  298000    2381.3672    23094.495    145343.18    630.09908   -8369.8836    8.6781886 
  299000    2346.4578    23085.084    150048.58    620.86223    -8346.641    8.6817264 
  300000    2331.7806    22944.923    156667.52     616.9787    -8372.465    8.7347597 
Loop time of 107.308 on 8 procs for 50000 steps with 2048 atoms

Performance: 40.258 ns/day, 0.596 hours/ns, 465.950 timesteps/s
120.5% CPU use with 4 MPI tasks x 2 OpenMP threads

MPI task timing breakdown:
Section |  min time  |  avg time  |  max time  |%varavg| %total
---------------------------------------------------------------
Pair    | 62.837     | 63.84      | 64.917     |   9.4 | 59.49
Neigh   | 0.98181    | 1.0107     | 1.0286     |   1.7 |  0.94
Comm    | 4.4773     | 5.5996     | 6.61       |  32.5 |  5.22
Output  | 0.0011818  | 0.0019192  | 0.0021677  |   1.0 |  0.00
Modify  | 36.627     | 36.656     | 36.682     |   0.4 | 34.16
Other   |            | 0.1993     |            |       |  0.19

Nlocal:        512.000 ave         530 max         501 min
Histogram: 1 0 2 0 0 0 0 0 0 1
Nghost:        3086.50 ave        3099 max        3064 min
Histogram: 1 0 0 0 0 0 0 1 1 1
Neighs:        41877.0 ave       43230 max       40183 min
Histogram: 1 0 0 0 0 1 0 1 0 1

Total # of neighbors = 167508
Ave neighs/atom = 81.791016
Neighbor list builds = 984
Dangerous builds = 0

unfix temp
unfix out_file_1


write_data after_${sim}_press_$P_$T.in
write_data after_heating_press_$P_$T.in
write_data after_heating_press_150000_$T.in
write_data after_heating_press_150000_2400.in
System init for write_data ...
Last active /omp style is pair_style eam/alloy/omp
write_restart after_${sim}_press_$P_$T.lmp
write_restart after_heating_press_$P_$T.lmp
write_restart after_heating_press_150000_$T.lmp
write_restart after_heating_press_150000_2400.lmp
System init for write_restart ...
Last active /omp style is pair_style eam/alloy/omp
next loopVar
jump in.lmp ensemble

print """
Label pachadi solti, hos garam.
"""

Label pachadi solti, hos garam.

variable T equal 2300+${loopVar}*100
variable T equal 2300+2*100
# variable T equal 2500


reset_timestep 0
fix 1 all npt temp $T $T $(dt*100) iso $P $P $(dt*1000)
fix 1 all npt temp 2500 $T $(dt*100) iso $P $P $(dt*1000)
fix 1 all npt temp 2500 2500 $(dt*100) iso $P $P $(dt*1000)
fix 1 all npt temp 2500 2500 0.10000000000000000555 iso $P $P $(dt*1000)
fix 1 all npt temp 2500 2500 0.10000000000000000555 iso 150000 $P $(dt*1000)
fix 1 all npt temp 2500 2500 0.10000000000000000555 iso 150000 150000 $(dt*1000)
fix 1 all npt temp 2500 2500 0.10000000000000000555 iso 150000 150000 1
print """
<--------------------------------------------------------------------->
<------------------ Equilibrating at temperature $T ----------------->
<--------------------------------------------------------------------->
"""

<--------------------------------------------------------------------->
<------------------ Equilibrating at temperature 2500 ----------------->
<--------------------------------------------------------------------->

fix temp all print 1000 "$(step) $(temp) $(press) ${sys_press} $(vol) $(ke) $(pe) $(density)" file temp_${sim}.txt screen no title  "step temp press pressGiga vol ke pe density"
fix temp all print 1000 "$(step) $(temp) $(press) ${sys_press} $(vol) $(ke) $(pe) $(density)" file temp_heating.txt screen no title  "step temp press pressGiga vol ke pe density"
run 250000
Last active /omp style is pair_style eam/alloy/omp
Per MPI rank memory allocation (min/avg/max) = 4.354 | 4.354 | 4.354 Mbytes
Step Temp Volume Press KinEng PotEng Density 
       0    2331.7806    22944.923    156667.52     616.9787    -8372.465    8.7347597 
    1000    2476.7848    23072.092    148654.19    655.34616   -8365.1114    8.6866153 
    2000    2447.5098    23252.846    145101.04    647.60011   -8314.2625    8.6190908 
    3000    2583.8696    22988.662    165479.22    683.68032   -8323.2229    8.7181406 
    4000    2507.9725    23142.042    145299.92    663.59829   -8358.3155    8.6603588 
    5000    2475.1395     23198.18    144303.88    654.91083   -8339.7542    8.6394012 
    6000    2532.4392     22997.03    160596.04    670.07205   -8341.0611    8.7149681 
    7000    2521.3975    23129.661    147410.17    667.15046   -8353.9679    8.6649944 
    8000    2498.6945    23151.191    149720.73    661.14335   -8333.0968    8.6569362 
    9000    2468.1303    23039.632    156255.27     653.0562   -8341.6387    8.6988537 
   10000    2437.3678    23249.782     140104.9     644.9166   -8339.9074    8.6202265 
   11000    2482.4018    23061.047    154624.65    656.83238   -8341.1802    8.6907757 
   12000     2456.001    23109.646    149375.74    649.84685   -8349.2093    8.6724994 
   13000    2378.6194    23092.776    151077.88    629.37204   -8342.9389    8.6788348 
   14000    2575.0119     23029.19    161205.19    681.33659   -8328.9125    8.7027978 
   15000    2467.0757    23196.818    143562.08    652.77717   -8341.9391    8.6399086 
   16000    2527.3625     23209.58    146792.41     668.7288   -8325.6447    8.6351578 
   17000    2568.4283    23183.097    151707.49    679.59462   -8317.5546    8.6450219 
   18000    2503.5699    23162.266    148917.47    662.43338   -8334.8078    8.6527972 
   19000    2481.5779    23190.621    146785.99     656.6144   -8334.7259    8.6422173 
   20000    2489.0067    23191.537    150178.75    658.58001   -8316.1296    8.6418758 
   21000    2526.6957    23196.521    150935.24    668.55235   -8311.7471    8.6400191 
   22000    2490.2557    23056.081    154834.48    658.91049   -8339.2621    8.6926476 
   23000    2476.5909    23124.821    153971.96    655.29484   -8319.1888    8.6668083 
   24000    2455.9169    23234.889    142707.62    649.82459   -8333.8951     8.625752 
   25000    2567.0677    23196.638    149048.16    679.23459   -8319.9758    8.6399755 
   26000    2471.7971    23172.953    151105.06    654.02642   -8314.2202    8.6488064 
   27000     2512.429    23158.368    146147.77    664.77746   -8348.5856    8.6542535 
   28000    2511.8584    23177.799    149447.81    664.62646   -8325.2407    8.6469984 
   29000    2529.2158    23174.217    154390.26    669.21917   -8302.8735    8.6483346 
   30000    2467.1229    23199.594    147257.14    652.78965   -8325.4169    8.6388748 
   31000    2462.2745    23196.254    152318.95    651.50679   -8301.6857    8.6401188 
   32000    2523.2425    23067.684    158263.87    667.63866   -8325.4608    8.6882753 
   33000    2481.6903    23431.421    128721.21    656.64413   -8332.6778    8.5534032 
   34000    2479.8715    23155.114    156498.45    656.16287   -8297.0398    8.6554698 
   35000    2492.3104    23215.175    145910.65    659.45417   -8324.8101    8.6330767 
   36000    2430.0307    23124.703    151816.71    642.97522   -8330.2173    8.6668524 
   37000    2534.6111    23189.984    154729.74    670.64672   -8292.7417    8.6424547 
   38000    2501.0951     23199.81    147673.23    661.77855   -8324.6136    8.6387942 
   39000    2495.9034    23142.896    152866.42    660.40485   -8317.5979    8.6600393 
   40000    2532.7908     23224.52    145290.65    670.16508   -8328.1232    8.6296028 
   41000     2560.872    23130.858    153755.61    677.59525   -8323.4307    8.6645461 
   42000    2435.4203    23186.928    144490.44    644.40129    -8341.943    8.6435937 
   43000    2492.7722    23072.227    158244.82    659.57635   -8321.9287    8.6865645 
   44000    2450.5573    23073.975    159258.17    648.40647   -8307.8029    8.6859064 
   45000    2499.1075    23115.702    148733.51    661.25265   -8351.6246     8.670227 
   46000    2566.6758     23163.43    147630.13     679.1309   -8340.2068    8.6523622 
   47000    2514.2046    23123.101    149273.76    665.24727   -8344.6183    8.6674528 
   48000    2498.9727    23211.697    141692.08    661.21696   -8350.9365    8.6343704 
   49000    2520.1965    23107.938     158157.1    666.83268   -8311.1934    8.6731402 
   50000    2471.5032    23118.623    148853.15    653.94866   -8344.4289    8.6691318 
   51000    2525.6162    23225.967    145989.14    668.26673   -8327.2953    8.6290653 
   52000    2554.0955    23231.532    146806.61    675.80223   -8317.5487    8.6269984 
   53000    2536.8814    23127.237    150935.53    671.24745   -8339.5116    8.6659028 
   54000    2484.1673    23168.914    146916.49    657.29953   -8338.8663    8.6503143 
   55000    2555.8554    23182.697    145364.59    676.26787   -8349.0343    8.6451714 
   56000    2430.9862    23051.107    156006.64    643.22805   -8337.7805    8.6945233 
   57000    2496.8513    23258.373     143714.6    660.65567   -8322.5489    8.6170423 
   58000    2426.7346    23099.652    151928.75     642.1031   -8337.4919    8.6762514 
   59000    2468.8428     23100.75    155689.08    653.24474   -8320.2414    8.6758391 
   60000    2531.7616    23115.214    152765.21    669.89277   -8333.2932    8.6704103 
   61000    2545.4161    23224.175    141825.21    673.50569   -8345.9578    8.6297313 
   62000    2532.8545    23028.875    158632.61    670.18193   -8336.2468     8.702917 
   63000    2515.9014    23214.395    141594.84    665.69624   -8352.7787    8.6333669 
   64000    2468.3001    23154.219    150671.66    653.10115   -8328.7006    8.6558043 
   65000    2470.6031    23114.587    150277.61    653.71051   -8341.7989    8.6706452 
   66000    2444.6067    23052.664    159363.19    646.83197    -8319.548     8.693936 
   67000    2475.9983    23112.354    159176.55    655.13804   -8304.0866    8.6714832 
   68000    2462.4607    23247.021    139801.83    651.55607   -8343.3664    8.6212504 
   69000     2475.211    23208.544    149255.22    654.92974   -8313.6674    8.6355431 
   70000    2522.4203    23165.405    148484.55     667.4211   -8333.2837    8.6516245 
   71000    2467.3623    23176.296    147401.87      652.853   -8333.5976    8.6475589 
   72000    2471.4566    23119.774    154004.56    653.93633   -8319.6768    8.6687001 
   73000    2493.9983    23136.249    151120.41    659.90077   -8330.1842    8.6625271 
   74000    2484.1458        23192    144726.01    657.29385   -8343.1297    8.6417035 
   75000    2549.7747     23163.45    148781.08    674.65895   -8337.0757    8.6523549 
   76000    2415.1881    23032.677    154049.39    639.04794    -8350.104    8.7014805 
   77000    2452.0018    23145.851    152530.78    648.78869    -8316.895    8.6589336 
   78000    2450.9929    23202.258    146227.61    648.52174   -8327.4097    8.6378828 
   79000    2545.1026    22970.173    163578.74    673.42274   -8337.3211    8.7251577 
   80000    2448.5499    23180.731    149128.58    647.87532   -8323.5554    8.6459043 
   81000    2489.3735    23179.558    145189.54    658.67706   -8343.7457     8.646342 
   82000     2538.041    23123.957     155718.3    671.55428    -8316.686     8.667132 
   83000    2523.5422    23256.649     141373.8    667.71796   -8334.8314    8.6176813 
   84000    2541.0878    23162.676    150219.14    672.36044   -8330.9016    8.6526437 
   85000    2476.9806    23178.724    146680.29    655.39795    -8336.669     8.646653 
   86000    2525.9879    23060.823    155742.97    668.36508   -8340.9655    8.6908601 
   87000    2494.0788    23202.605    146450.71    659.92207   -8327.7305    8.6377538 
   88000    2515.6963    23180.785    147948.15    665.64197   -8333.3643    8.6458844 
   89000    2509.3651    23124.776    147022.38    663.96676   -8356.9521    8.6668251 
   90000    2523.1924    23088.492    153819.67     667.6254   -8333.5645    8.6804452 
   91000     2464.235    23112.176    154421.64    652.02553    -8323.503      8.67155 
   92000    2501.2679    23217.839    144568.74    661.82428   -8335.6801    8.6320861 
   93000    2548.1863    23188.425    147782.44    674.23866   -8332.2725    8.6430358 
   94000     2502.045    23145.043    148667.15    662.02988   -8340.3788    8.6592358 
   95000     2504.457    23106.377    153571.96    662.66808   -8326.8686     8.673726 
   96000    2446.0017    23200.166    142248.09    647.20108   -8351.2628    8.6386619 
   97000     2561.391    23168.946    145777.12    677.73257    -8347.363    8.6503024 
   98000    2418.3649    23037.768    158402.29    639.88852   -8329.1049    8.6995573 
   99000     2483.508    23157.906    148127.04    657.12509   -8339.2408    8.6544263 
  100000    2450.0307    23218.849     147758.2    648.26713   -8313.9597    8.6317108 
  101000    2531.6195    22980.157    158411.47    669.85517   -8357.2106    8.7213673 
  102000    2453.6661    23171.259    147522.46    649.22905   -8332.8534    8.6494388 
  103000    2573.8552    23229.906    147616.87    681.03054    -8311.548     8.627602 
  104000    2550.2814    23207.995    146241.19    674.79302   -8330.9961    8.6357474 
  105000    2402.4185    23104.807    154664.21    635.66915   -8318.0073    8.6743156 
  106000    2531.2595    23117.446    150934.16    669.75991   -8340.6783     8.669573 
  107000    2464.8218    23174.164    146125.81    652.18081   -8341.4523    8.6483546 
  108000    2508.4202    23164.241    148711.13    663.71674   -8333.3648    8.6520594 
  109000    2485.0574    23111.882    153601.83    657.53505   -8328.2146      8.67166 
  110000    2525.8997    23133.818    147102.06    668.34173   -8354.8769    8.6634376 
  111000    2476.9752    23140.568    149989.91    655.39653   -8333.8432    8.6609106 
  112000    2536.2517    23065.951    159028.47    671.08083   -8319.0854     8.688928 
  113000    2439.7497    23157.904    149416.64    645.54684   -8332.2164    8.6544269 
  114000    2567.0767    23162.968    148013.46    679.23698   -8342.6907    8.6525347 
  115000    2514.4767     23137.63    151712.75    665.31926   -8327.8903    8.6620101 
  116000    2455.5608    23120.933    152131.29    649.73038   -8332.3044    8.6682657 
  117000     2502.538    23208.317    145437.14    662.16034   -8329.0304    8.6356276 
  118000    2538.5309    23161.374    144861.83     671.6839   -8354.7816    8.6531304 
  119000    2566.9616    23114.715    152719.74    679.20653   -8337.7756    8.6705972 
  120000    2515.5221     23078.66     152433.5    665.59588   -8349.4948    8.6841433 
  121000    2490.3298    23164.258    148262.35     658.9301   -8330.5492    8.6520528 
  122000    2505.2697    23206.149    146833.41    662.88314   -8325.3075    8.6364347 
  123000    2482.8961    23181.119    144922.62    656.96319   -8345.2824    8.6457597 
  124000    2546.8251    23103.804    154894.06     673.8785   -8325.8998     8.674692 
  125000    2546.8151    23129.463    149674.55    673.87587    -8347.259    8.6650688 
  126000    2426.6034    23244.072    138829.89    642.06837   -8349.3614    8.6223441 
  127000    2509.3966    23086.379    156826.24     663.9751   -8319.8902    8.6812395 
  128000    2536.9078     23088.98    153397.39    671.25444    -8341.123    8.6802615 
  129000      2511.86    23124.721    150807.21     664.6269   -8339.6823    8.6668454 
  130000    2541.6843    23103.417    148310.81    672.51827   -8362.0779    8.6748373 
  131000    2457.2284    23244.697    140922.14    650.17163   -8340.3024    8.6221123 
  132000    2543.7334    23141.011    150933.03    673.06045   -8335.7948    8.6607444 
  133000    2523.4275    23033.197    156808.09    667.68761   -8340.8649     8.701284 
  134000    2471.4333    23271.068    144256.32    653.93018   -8313.3016    8.6123417 
  135000    2435.2996    23099.514    151579.72    644.36936    -8341.275    8.6763032 
  136000    2484.5898    23147.082    150491.08    657.41133   -8332.9763    8.6584732 
  137000    2523.9866    23131.361    154844.03    667.83555   -8313.4337    8.6643578 
  138000    2530.9908    23132.985    147365.42    669.68881   -8355.2415    8.6637493 
  139000     2536.355    23011.489    159639.87    671.10816    -8339.592    8.7094922 
  140000    2510.0522    23158.768    146234.27    664.14857   -8348.6162    8.6541038 
  141000    2449.5167    23172.443    150515.27    648.13114   -8313.5278    8.6489967 
  142000     2482.185     23028.87    155710.88    656.77501   -8348.6565    8.7029188 
  143000    2526.0456    23124.059    149663.52    668.38033   -8345.9124    8.6670935 
  144000    2498.4288    23190.507    149690.23    661.07307   -8320.5809    8.6422598 
  145000    2532.5881    23165.163    147398.69    670.11147   -8339.4086     8.651715 
  146000    2564.3725    23181.597    146596.46    678.52147   -8343.9182    8.6455814 
  147000    2577.9918    23068.299    157287.75    682.12506   -8331.0378    8.6880437 
  148000     2505.722    23161.034    148945.38    663.00281   -8331.7142    8.6532572 
  149000    2552.5291    23161.122    149475.26    675.38776   -8335.8315    8.6532245 
  150000    2350.9103    23169.101    143266.89    622.04031   -8349.1098    8.6502443 
  151000    2522.1757     23135.43    151758.82    667.35637   -8328.8613    8.6628337 
  152000    2443.7162    23048.862    155219.98    646.59635   -8340.5375    8.6953702 
  153000    2480.5833    23205.601    145299.58    656.35121   -8332.9735    8.6366383 
  154000    2553.4511    23188.967    148156.63    675.63171   -8331.8418    8.6428336 
  155000    2458.6942    23079.382    153123.62    650.55945   -8342.7992    8.6838715 
  156000    2530.4412    23200.736    150206.28    669.54341   -8311.4564    8.6384496 
  157000    2563.7617    23161.601    149528.25    678.35985    -8331.265    8.6530453 
  158000     2545.719    23202.807    144597.52    673.58584    -8338.721    8.6376783 
  159000    2534.6292    23028.359    152870.39    670.65153   -8366.8605    8.7031121 
  160000    2542.1013    23140.141    153186.44    672.62862   -8324.7483    8.6610703 
  161000    2493.5565    23126.852    149408.05    659.78388   -8344.8934    8.6660469 
  162000    2459.5449    23210.912    139002.03    650.78455   -8362.8029    8.6346622 
  163000    2510.2303    23080.277    156961.41    664.19568   -8323.9155    8.6835348 
  164000    2491.5811    23123.064    156050.26     659.2612   -8310.7773    8.6674668 
  165000    2422.9267    23201.964    145825.34    641.09553   -8327.2243    8.6379923 
  166000    2475.0391    23074.058    152953.71    654.88424   -8343.4245    8.6858752 
  167000    2533.9453    23125.701    154327.58    670.47055   -8320.4267    8.6664782 
  168000    2584.0779    23195.481    143973.09    683.73543   -8348.7467    8.6404066 
  169000     2507.685    23172.832    150140.91    663.52222   -8325.3095    8.6488515 
  170000    2515.3837    23200.552       143442    665.55926   -8346.7844    8.6385181 
  171000    2531.0352    23082.231    156837.93    669.70057   -8328.1942    8.6827996 
  172000    2491.4617    23140.986    154093.82    659.22959   -8310.3389    8.6607541 
  173000    2464.2102    23207.804    146428.58    652.01897   -8326.7629    8.6358185 
  174000    2493.2076    23123.266    152099.49    659.69156   -8333.8129    8.6673911 
  175000    2457.8015    23160.563    148120.69    650.32327   -8333.2312    8.6534334 
  176000    2563.3767    23211.233    143249.24    678.25798   -8346.5528    8.6345428 
  177000    2565.8713    23092.886    155199.27    678.91804   -8333.8516    8.6787932 
  178000    2429.2487    23099.878    150343.62    642.76832   -8345.5356    8.6761665 
  179000    2537.2292    23220.422    146050.45    671.33947   -8329.1015    8.6311259 
  180000    2436.4297    23031.639     151912.5    644.66837   -8363.4076    8.7018727 
  181000    2535.3721    23012.162    161194.66    670.84809   -8333.2469    8.7092374 
  182000      2499.27    23270.738    138722.21    661.29565   -8341.5685    8.6124637 
  183000    2504.0516     23152.46    149423.68    662.56083   -8334.1916    8.6564619 
  184000    2489.7618    23086.678    153426.77     658.7798   -8343.8978    8.6811272 
  185000    2503.1874    23196.594    144523.68    662.33215   -8339.0473    8.6399921 
  186000    2523.7828    23046.671    157780.47    667.78162    -8334.572    8.6961968 
  187000    2556.3265    23164.536    152989.88    676.39254   -8316.0872    8.6519491 
  188000    2496.5006    23157.268    148182.49    660.56287   -8334.3315    8.6546646 
  189000    2503.9622    23124.248    148963.49    662.53717   -8347.4266    8.6670229 
  190000    2470.5506    23113.464    152775.05    653.69661   -8330.9601    8.6710667 
  191000    2509.6993      23092.3    157166.47    664.05518   -8319.4743    8.6790136 
  192000    2406.3745    23183.377    140922.49    636.71591   -8356.4448    8.6449178 
  193000    2560.1086    23139.906    147161.67    677.39326   -8351.9164    8.6611583 
  194000    2480.7801    23135.536    153126.07    656.40328   -8320.7867    8.6627942 
  195000    2552.3093    23241.722    142616.33     675.3296   -8336.7275    8.6232161 
  196000    2570.5891    23032.378    155157.66    680.16636   -8355.6379    8.7015934 
  197000    2571.5798     23173.76    145842.54     680.4285   -8346.1906    8.6485054 
  198000    2500.7401    23307.048    136530.22    661.68462   -8341.7095    8.5990464 
  199000    2608.1936    23052.935     156196.8    690.11634   -8343.4672    8.6938338 
  200000    2481.1038    23096.399    157704.99    656.48893   -8310.3471    8.6774734 
  201000    2544.0999    23096.499     146186.6    673.15742   -8373.8044    8.6774357 
  202000    2508.6225    23236.695    142160.52    663.77026   -8337.1052    8.6250815 
  203000    2551.5648    23039.094    159168.39    675.13262    -8331.488    8.6990567 
  204000     2505.207    23289.363    138499.74    662.86654   -8337.5234    8.6055763 
  205000    2514.5408    23132.707    150346.18    665.33622   -8337.7657    8.6638534 
  206000    2490.4596    23106.829    153124.85    658.96444   -8331.2866    8.6735564 
  207000    2467.4829    23143.223    147479.57    652.88491    -8345.512    8.6599169 
  208000    2552.8089     23092.35    155041.23    675.46179   -8331.8839    8.6789948 
  209000    2523.9388    23222.139    142816.09    667.82289   -8341.5459    8.6304879 
  210000    2554.8617    23146.775       152099    676.00495   -8326.2701    8.6585881 
  211000    2451.1835    23142.377    148837.78    648.57217   -8337.6449    8.6602335 
  212000    2499.1049    23151.527     147204.9    661.25195    -8345.588    8.6568106 
  213000    2538.6496    23073.198     160423.7     671.7153   -8310.9385    8.6861991 
  214000    2556.3193    23124.025    148468.35    676.39064   -8354.9167    8.6671066 
  215000    2461.1839    23202.716       145289    651.21823   -8332.2028    8.6377122 
  216000    2443.8491    23010.052    160288.79    646.63153    -8328.394    8.7100361 
  217000    2511.5199    23092.025    147536.04    664.53691   -8368.9289    8.6791171 
  218000    2489.0165    23202.591    147135.51     658.5826   -8327.7006     8.637759 
  219000    2553.4164     23090.29    157338.42    675.62254   -8320.8393     8.679769 
  220000    2427.1234    23294.071    135902.57    642.20596    -8346.448    8.6038369 
  221000    2569.3949    23140.751    151580.36    679.85037   -8332.8873    8.6608418 
  222000    2448.8409    23138.429     152128.5    647.95232   -8322.0576    8.6617109 
  223000     2477.226    23089.637    152593.18    655.46289   -8341.1865    8.6800146 
  224000    2523.8806    23050.885    152877.45    667.80748   -8360.4474    8.6946072 
  225000    2418.2186     23258.49     141288.2    639.84981   -8327.7911    8.6169989 
  226000    2556.4618    22993.943    164066.13    676.42834   -8322.6087    8.7161383 
  227000     2466.906    23166.434    151117.69    652.73228   -8317.8152    8.6512403 
  228000    2465.4832    23185.882    147482.15    652.35581   -8329.8597    8.6439836 
  229000    2564.0403    23057.217    159097.21    678.43356   -8325.6892    8.6922194 
  230000    2459.5215    23051.844    150150.91    650.77837   -8367.7181    8.6942451 
  231000    2464.9914    23190.069    145128.28    652.22567   -8338.9539     8.642423 
  232000     2497.352    22965.359    162973.39    660.78814   -8340.6053     8.726987 
  233000    2508.2813     23154.49    150045.14       663.68   -8329.8408    8.6557031 
  234000    2492.2353    23234.654    143240.35     659.4343   -8332.8261    8.6258391 
  235000    2420.2528      23071.4    155092.66    640.38805   -8331.4171     8.686876 
  236000    2448.1219    23191.765    144827.89    647.76208   -8337.4061    8.6417911 
  237000    2516.1674    23040.906    158897.25    665.76662    -8330.733    8.6983726 
  238000    2460.2907    23204.388    148003.12     650.9819   -8320.7018    8.6370898 
  239000    2554.9669    23230.651     147586.9    676.03278   -8320.5828    8.6273256 
  240000    2506.2908    23202.061    147749.11    663.15332   -8323.9005    8.6379562 
  241000    2468.3118    23260.734    141981.13    653.10424   -8330.1526    8.6161677 
  242000    2524.0845    23098.259    155586.72    667.86143   -8325.0344    8.6767747 
  243000    2554.2222    23086.114    156539.05    675.83575   -8325.8849    8.6813394 
  244000    2460.0611    23145.704    145680.67    650.92114   -8351.6862    8.6589886 
  245000     2516.704    23070.672    158018.27     665.9086   -8323.4505      8.68715 
  246000    2446.9186    23142.907    147078.23     647.4437     -8344.27    8.6600351 
  247000    2521.4379    23147.897    150373.41    667.16117   -8334.6152    8.6581681 
  248000    2492.6468     23134.62    150545.51    659.54317   -8335.4887    8.6631373 
  249000    2465.3906     23210.82    149335.65    652.33131   -8315.8171    8.6346965 
  250000    2543.4471    23112.037    155055.25     672.9847   -8323.1803    8.6716019 
Loop time of 592.79 on 8 procs for 250000 steps with 2048 atoms

Performance: 36.438 ns/day, 0.659 hours/ns, 421.735 timesteps/s
115.7% CPU use with 4 MPI tasks x 2 OpenMP threads

MPI task timing breakdown:
Section |  min time  |  avg time  |  max time  |%varavg| %total
---------------------------------------------------------------
Pair    | 353.21     | 356.78     | 361.94     |  18.7 | 60.19
Neigh   | 5.4892     | 5.6047     | 5.6674     |   2.9 |  0.95
Comm    | 40.876     | 46.241     | 49.771     |  53.3 |  7.80
Output  | 0.0065896  | 0.011546   | 0.013224   |   2.7 |  0.00
Modify  | 182.82     | 183.01     | 183.2      |   1.2 | 30.87
Other   |            | 1.138      |            |       |  0.19

Nlocal:        512.000 ave         522 max         501 min
Histogram: 1 0 0 0 1 0 1 0 0 1
Nghost:        3067.25 ave        3079 max        3058 min
Histogram: 2 0 0 0 0 0 0 1 0 1
Neighs:        41540.8 ave       44354 max       38790 min
Histogram: 1 0 1 0 0 0 1 0 0 1

Total # of neighbors = 166163
Ave neighs/atom = 81.134277
Neighbor list builds = 5027
Dangerous builds = 0


# fix 132 all momentum 100 linear 1 1 1 angular
fix out_file_1 all print 1000 "$(step) $(temp) $(press) ${sys_press} $(vol) $(ke) $(pe) $(density)" file one_phase_${sim}_press_$P_$T_.txt screen no title  "step temp press pressGiga vol ke pe density"
fix out_file_1 all print 1000 "$(step) $(temp) $(press) ${sys_press} $(vol) $(ke) $(pe) $(density)" file one_phase_heating_press_$P_$T_.txt screen no title  "step temp press pressGiga vol ke pe density"
fix out_file_1 all print 1000 "$(step) $(temp) $(press) ${sys_press} $(vol) $(ke) $(pe) $(density)" file one_phase_heating_press_150000_$T_.txt screen no title  "step temp press pressGiga vol ke pe density"
fix out_file_1 all print 1000 "$(step) $(temp) $(press) ${sys_press} $(vol) $(ke) $(pe) $(density)" file one_phase_heating_press_150000_2500_.txt screen no title  "step temp press pressGiga vol ke pe density"

# dump 3 all custom 1000 traj_npt_new.lammpstrj id type x y z
run 50000
Last active /omp style is pair_style eam/alloy/omp
Per MPI rank memory allocation (min/avg/max) = 4.354 | 4.354 | 4.354 Mbytes
Step Temp Volume Press KinEng PotEng Density 
  250000    2543.4471    23112.037    155055.25     672.9847   -8323.1803    8.6716019 
  251000     2430.654    23205.423    145711.64    643.14015   -8329.7329    8.6367046 
  252000     2555.388    23093.632    156133.87     676.1442   -8325.4485     8.678513 
  253000    2330.6009    22980.078     156600.4    616.66656   -8356.1273    8.7213971 
  254000    2520.8929    23124.478    148600.36    667.01696   -8348.1605    8.6669365 
  255000    2440.8098    23101.445     155078.2    645.82733   -8319.6893    8.6755781 
  256000    2560.9115      23136.8    153792.62     677.6057   -8326.8553    8.6623209 
  257000    2466.9528    23294.932    137574.04    652.74466    -8337.191    8.6035188 
  258000    2527.9665     23177.33    150169.71     668.8886   -8323.3548    8.6471731 
  259000    2496.6202    23071.634    153195.11    660.59451   -8342.8193    8.6867878 
  260000     2390.416    23205.449    142989.96    632.49337   -8337.1114     8.636695 
  261000    2513.2221    23187.886    149095.63    664.98729   -8323.2505    8.6432367 
  262000    2454.6728    23071.109     152935.6    649.49541   -8345.9933    8.6869855 
  263000    2545.5067    23197.872     147795.6    673.52966   -8326.7577    8.6395159 
  264000     2547.434    23241.969    146708.41    674.03962   -8317.3451    8.6231243 
  265000    2485.5633    23130.159    154843.41     657.6689    -8315.731    8.6648081 
  266000    2503.2431    23189.356    144488.38    662.34689    -8347.008    8.6426886 
  267000    2511.5866    23066.428    154529.79    664.55455   -8345.0289    8.6887484 
  268000    2443.4554    23065.337    157139.99    646.52735   -8329.3092    8.6891591 
  269000    2473.1881    23245.375    145367.97    654.39448   -8316.2648    8.6218606 
  270000    2455.9516    23106.285    148746.78    649.83379   -8354.4893    8.6737607 
  271000    2488.2958    23154.832    150323.69     658.3919   -8331.6036    8.6555752 
  272000    2461.3554    23178.476    151700.42    651.26359   -8311.7557    8.6467458 
  273000    2549.8063    23091.191    152740.89    674.66733   -8344.1102    8.6794303 
  274000    2484.8474    23162.437    145102.62    657.47947   -8352.5553    8.6527332 
  275000    2503.9203    23214.742    142184.41    662.52609   -8347.4409    8.6332377 
  276000    2541.4757    23132.818    150658.02    672.46309    -8339.895    8.6638119 
  277000     2450.048      23067.3    154976.74    648.27171    -8336.288    8.6884197 
  278000    2461.9421    23216.311    145961.36    651.41884   -8323.8086    8.6326545 
  279000    2479.1235    23174.067    145924.05    655.96496   -8345.5022    8.6483906 
  280000    2496.8556    23017.748    158142.16    660.65679   -8344.9823     8.707124 
  281000    2537.4186    23213.454    143313.17    671.38959   -8344.6869    8.6337168 
  282000    2462.3353    23056.243    156844.79    651.52288   -8333.7141    8.6925865 
  283000     2448.445    23160.382    148777.55    647.84756   -8333.5811    8.6535008 
  284000    2495.8179    23106.531    153940.22    660.38223   -8330.6352    8.6736684 
  285000    2503.4082    23053.187    158710.31    662.39059   -8324.9058    8.6937388 
  286000    2472.1421    23243.477    143560.15    654.11772    -8329.466    8.6225649 
  287000    2512.3454      23146.3     152903.1    664.75533   -8320.7986    8.6587655 
  288000    2535.5088    23131.517    148307.61    670.88427   -8348.2302    8.6642993 
  289000    2487.8399    23086.313    152823.63    658.27128    -8344.896    8.6812642 
  290000    2488.2826    23126.833    153933.15    658.38843   -8321.3869    8.6660543 
  291000    2395.5305    23245.759    139741.95    633.84662    -8338.251    8.6217183 
  292000    2567.5255    23159.305    149384.67    679.35573   -8333.8688    8.6539034 
  293000    2459.6384    23101.395    152071.12    650.80928   -8337.7162    8.6755966 
  294000    2577.0406    23248.404    142954.88     681.8734   -8332.1002    8.6207374 
  295000    2528.2693    23027.957    159891.16    668.96873    -8330.727     8.703264 
  296000     2443.134    23215.562    146088.32    646.44231   -8324.7626    8.6329328 
  297000    2527.1973    23105.821    152216.35    668.68507   -8337.6933     8.673935 
  298000      2554.95    23148.414    150391.52    676.02832   -8334.5153    8.6579749 
  299000    2423.7995    23101.698    153594.32    641.32649   -8330.1649     8.675483 
  300000    2483.5882    23147.807     152949.2     657.1463   -8321.7915    8.6582018 
Loop time of 134.908 on 8 procs for 50000 steps with 2048 atoms

Performance: 32.022 ns/day, 0.749 hours/ns, 370.624 timesteps/s
110.3% CPU use with 4 MPI tasks x 2 OpenMP threads

MPI task timing breakdown:
Section |  min time  |  avg time  |  max time  |%varavg| %total
---------------------------------------------------------------
Pair    | 81.049     | 82.101     | 83.348     |  10.0 | 60.86
Neigh   | 1.236      | 1.2535     | 1.2729     |   1.2 |  0.93
Comm    | 12.785     | 14.075     | 15.101     |  24.6 | 10.43
Output  | 0.0014108  | 0.0018878  | 0.0020496  |   0.6 |  0.00
Modify  | 37.149     | 37.21      | 37.26      |   0.8 | 27.58
Other   |            | 0.2664     |            |       |  0.20

Nlocal:        512.000 ave         524 max         504 min
Histogram: 1 0 1 0 1 0 0 0 0 1
Nghost:        3075.50 ave        3084 max        3063 min
Histogram: 1 0 0 0 0 1 0 0 1 1
Neighs:        41456.0 ave       43569 max       38745 min
Histogram: 1 0 0 0 0 0 2 0 0 1

Total # of neighbors = 165824
Ave neighs/atom = 80.968750
Neighbor list builds = 1010
Dangerous builds = 0

unfix temp
unfix out_file_1


write_data after_${sim}_press_$P_$T.in
write_data after_heating_press_$P_$T.in
write_data after_heating_press_150000_$T.in
write_data after_heating_press_150000_2500.in
System init for write_data ...
Last active /omp style is pair_style eam/alloy/omp
write_restart after_${sim}_press_$P_$T.lmp
write_restart after_heating_press_$P_$T.lmp
write_restart after_heating_press_150000_$T.lmp
write_restart after_heating_press_150000_2500.lmp
System init for write_restart ...
Last active /omp style is pair_style eam/alloy/omp
next loopVar
jump in.lmp ensemble

print """
Label pachadi solti, hos garam.
"""

Label pachadi solti, hos garam.

variable T equal 2300+${loopVar}*100
variable T equal 2300+3*100
# variable T equal 2500


reset_timestep 0
fix 1 all npt temp $T $T $(dt*100) iso $P $P $(dt*1000)
fix 1 all npt temp 2600 $T $(dt*100) iso $P $P $(dt*1000)
fix 1 all npt temp 2600 2600 $(dt*100) iso $P $P $(dt*1000)
fix 1 all npt temp 2600 2600 0.10000000000000000555 iso $P $P $(dt*1000)
fix 1 all npt temp 2600 2600 0.10000000000000000555 iso 150000 $P $(dt*1000)
fix 1 all npt temp 2600 2600 0.10000000000000000555 iso 150000 150000 $(dt*1000)
fix 1 all npt temp 2600 2600 0.10000000000000000555 iso 150000 150000 1
print """
<--------------------------------------------------------------------->
<------------------ Equilibrating at temperature $T ----------------->
<--------------------------------------------------------------------->
"""

<--------------------------------------------------------------------->
<------------------ Equilibrating at temperature 2600 ----------------->
<--------------------------------------------------------------------->

fix temp all print 1000 "$(step) $(temp) $(press) ${sys_press} $(vol) $(ke) $(pe) $(density)" file temp_${sim}.txt screen no title  "step temp press pressGiga vol ke pe density"
fix temp all print 1000 "$(step) $(temp) $(press) ${sys_press} $(vol) $(ke) $(pe) $(density)" file temp_heating.txt screen no title  "step temp press pressGiga vol ke pe density"
run 250000
Last active /omp style is pair_style eam/alloy/omp
Per MPI rank memory allocation (min/avg/max) = 4.354 | 4.354 | 4.354 Mbytes
Step Temp Volume Press KinEng PotEng Density 
       0    2483.5882    23147.807     152949.2     657.1463   -8321.7915    8.6582018 
    1000    2586.1961     23300.49    145273.21     684.2959   -8303.8459    8.6014666 
    2000    2631.7817    23285.112    144784.69    696.35764   -8309.1304    8.6071472 
    3000    2688.1098    23157.863    159975.66     711.2618   -8288.8721     8.654442 
    4000    2634.0333    23317.456    146019.66    696.95342   -8298.2071    8.5952081 
    5000    2616.1203    23177.081     151217.6     692.2137    -8324.392     8.647266 
    6000     2567.545    23207.325    151472.83    679.36089   -8313.5806    8.6359969 
    7000    2609.9184    23162.472    154077.82    690.57272    -8314.764    8.6527203 
    8000    2529.5219    23175.027       156602    669.30016   -8290.7728    8.6480326 
    9000    2665.6145    23214.525    154509.67    705.30964   -8293.7755    8.6333184 
   10000    2611.8489    23242.921    147559.39    691.08352   -8313.6168    8.6227709 
   11000    2505.5238    23274.983    151067.11    662.95036   -8277.7963    8.6108929 
   12000     2656.623    23280.144    150401.68    702.93053     -8286.47    8.6089838 
   13000    2575.0036    23226.799     150135.3    681.33442   -8303.6472    8.6287563 
   14000    2641.4555     23421.96    135307.11    698.91728   -8314.7013    8.5568581 
   15000    2531.7314    23176.432     153472.5    669.88479   -8305.8602    8.6475084 
   16000    2621.5158    23293.207    148536.94    693.64132   -8290.5974    8.6041559 
   17000    2572.0773    23257.218    146654.08    680.56012   -8309.0696    8.6174704 
   18000    2578.8456    23164.875    163636.84    682.35099   -8257.0237    8.6518223 
   19000    2516.6684    23283.911    144049.64    665.89918   -8307.7333    8.6075911 
   20000    2619.1773    23291.083       149676    693.02256   -8286.4734    8.6049406 
   21000    2595.7552    23381.264    144110.07    686.82518   -8275.9235    8.5717516 
   22000    2553.9898    23218.763    151976.69    675.77424   -8295.9899    8.6317428 
   23000    2560.8165    23275.455    152146.73    677.58058   -8275.1023    8.6107183 
   24000    2586.8446    23259.655    151423.43    684.46749   -8288.6999    8.6165676 
   25000    2627.0726    23228.175    146609.93    695.11163   -8325.9022    8.6282452 
   26000    2628.1514    23284.623    150140.56    695.39707   -8290.8078    8.6073281 
   27000     2601.141    23093.021     162648.3    688.25024   -8296.4101    8.6787425 
   28000    2604.9809    23283.549    145750.77    689.26628    -8305.593    8.6077249 
   29000    2569.6595    23293.951    147340.95    679.92039   -8297.3158    8.6038812 
   30000    2594.0662    23200.421    149883.33    686.37829   -8318.9217    8.6385668 
   31000     2579.659    23220.385    148239.35    682.56621   -8319.8765    8.6311395 
   32000    2589.4014    23201.419    156103.06      685.144   -8283.8573    8.6381953 
   33000    2600.2472    23264.828    148977.86    688.01375   -8299.5508    8.6146516 
   34000    2618.1165    23344.027    140477.81    692.74188   -8308.2104    8.5854248 
   35000    2605.5771     23224.74    155496.69    689.42403   -8279.8802    8.6295212 
   36000    2647.0801    23242.362    156609.08    700.40552   -8271.4577    8.6229785 
   37000    2482.9552    23257.163    147994.08    656.97881    -8299.576    8.6174908 
   38000     2543.481    23245.056    151882.74    672.99366   -8290.5435    8.6219792 
   39000    2666.1485    23191.971    154904.64    705.45095   -8303.5422    8.6417141 
   40000    2571.8355    23239.446    150495.27    680.49614   -8296.4563    8.6240606 
   41000    2648.7073    23166.994    153098.81    700.83608   -8321.3749    8.6510311 
   42000    2626.1309    23279.878    146774.83    694.86247   -8301.6422    8.6090822 
   43000    2603.6716     23098.42    163148.43    688.91982   -8293.6028     8.676714 
   44000    2573.8876    23286.639    143041.61    681.03913   -8323.2707    8.6065827 
   45000    2674.5813    23247.628    146209.01    707.68222    -8322.133    8.6210251 
   46000    2595.9641    23332.309    144837.78    686.88045   -8290.5671    8.5897364 
   47000    2574.0725    23221.893    150588.74    681.08804   -8303.3148    8.6305793 
   48000    2628.3621    23275.513     145913.1    695.45283   -8309.0952    8.6106969 
   49000    2718.4793    23147.383     159186.6    719.29744   -8296.6866    8.6583604 
   50000    2626.1241    23309.018    139621.11    694.86067   -8327.5628    8.5983196 
   51000    2618.7675    23301.841    144760.61    692.91413   -8306.2322    8.6009677 
   52000    2542.2139    23208.084    152524.92     672.6584   -8294.1887    8.6357145 
   53000    2629.0984    23328.625    144345.61    695.64764   -8295.0585    8.5910931 
   54000    2494.8164    23269.518    145225.43    660.11723    -8306.191    8.6129153 
   55000     2635.468    23184.094    155378.17    697.33303   -8299.4364    8.6446505 
   56000    2614.8225    23355.393    141773.34    691.87032   -8301.0528    8.5812467 
   57000    2623.9941    23301.932    147287.29    694.29707   -8296.0369    8.6009344 
   58000    2634.9177    23272.012    150114.15    697.18742   -8291.7015    8.6119923 
   59000    2570.6347    23193.838    146422.88    680.17842   -8337.2103    8.6410187 
   60000    2583.3996    23451.807    136209.27    683.55595   -8290.4825    8.5459676 
   61000    2553.8346    23232.682    153977.73    675.73318    -8284.919    8.6265712 
   62000    2551.1572    23244.795    153809.68    675.02475   -8282.9318    8.6220758 
   63000    2588.9074    23214.977       153038    685.01328   -8293.9321    8.6331502 
   64000    2552.0721    23314.973     139242.2    675.26685   -8329.6464    8.5961234 
   65000      2634.68    23166.074    155648.71    697.12451   -8307.5654    8.6513748 
   66000    2563.8612    23254.161     143912.8    678.38618   -8327.9617    8.6186034 
   67000    2598.5512    23192.322    154730.12    687.56501   -8299.5953    8.6415833 
   68000    2620.7861    23222.736    153672.83    693.44825   -8292.8649    8.6302658 
   69000    2547.3218    23377.132     142311.6    674.00992   -8283.6223    8.5732666 
   70000    2615.7674    23195.138    152124.12    692.12033    -8309.246    8.6405342 
   71000    2640.7504    23278.294    148346.59    698.73073   -8296.8745    8.6096682 
   72000    2570.6961    23278.432    147410.72    680.19467   -8304.0755    8.6096172 
   73000    2584.7783    23377.662    135873.97    683.92076    -8320.069    8.5730722 
   74000    2636.5397    23178.566    160599.77    697.61659   -8275.6328     8.646712 
   75000    2614.6562    23190.829    151044.23     691.8263   -8314.2724    8.6421399 
   76000    2588.1741    23252.883    146641.98    684.81927    -8312.894     8.619077 
   77000    2643.4697    23287.666    149401.19    699.45023   -8291.0612    8.6062033 
   78000    2574.1698    23182.604    156307.72    681.11378   -8293.2159    8.6452058 
   79000    2557.2912    23105.445    160041.33    676.64779   -8301.3746    8.6740759 
   80000    2614.4179    23369.689    138103.87    691.76327   -8317.7188    8.5759972 
   81000    2554.5384    23198.521    148981.32    675.91941   -8323.4213    8.6392744 
   82000    2597.1974    23205.618    155469.23    687.20679   -8286.4451     8.636632 
   83000    2642.4014    23209.265    152009.92    699.16755    -8310.149    8.6352752 
   84000    2607.2808    23234.392    146710.11    689.87481   -8321.9006    8.6259364 
   85000    2608.4534     23380.81    140532.72    690.18509   -8298.7497    8.5719179 
   86000     2647.438    23210.929    155317.58    700.50022   -8294.1695     8.634656 
   87000    2580.2026    23258.668    145884.58    682.71005   -8314.4036    8.6169331 
   88000    2562.5796    23201.022    147561.26    678.04709   -8328.3682    8.6383429 
   89000     2597.036    23136.236    158624.96    687.16408   -8302.6698    8.6625321 
   90000    2606.1847    23124.641    152324.34     689.5848   -8337.2612    8.6668757 
   91000    2564.8953    23207.535    152343.79     678.6598   -8300.8968    8.6359187 
   92000    2603.1874    23373.945    141876.09    688.79173   -8291.2056    8.5744357 
   93000    2631.1266    23263.341    145529.31     696.1843   -8316.0528    8.6152023 
   94000    2595.3296    23083.021    164377.85    686.71259   -8289.6515    8.6825025 
   95000    2560.0079    23192.779    150533.17    677.36661   -8318.7268    8.6414134 
   96000    2589.0997    23255.607    151376.36    685.06418   -8289.2681    8.6180675 
   97000    2628.5185    23245.048    151287.57    695.49421    -8296.499    8.6219819 
   98000    2635.7619    23333.333    144063.57    697.41078   -8303.3832    8.5893595 
   99000    2671.4534    23200.905    155714.19    706.85459   -8295.9406    8.6383867 
  100000    2527.3095     23368.67    142099.11    668.71477   -8288.8816    8.5763712 
  101000    2620.6239    23216.757     148296.2    693.40535   -8320.4167    8.6324884 
  102000    2581.4721    23236.559    154391.98    683.04595   -8281.6013     8.625132 
  103000    2620.7983    23106.907     156231.6    693.45147   -8325.3235    8.6735273 
  104000    2613.6685    23259.987    147196.44    691.56496   -8310.1472    8.6164445 
  105000    2603.8124    23207.986    157345.37    688.95708   -8278.5504    8.6357507 
  106000    2597.3182    23184.926    156828.48    687.23875   -8290.4817    8.6443403 
  107000    2614.4171    23250.903    152648.11    691.76303   -8289.8358    8.6198109 
  108000    2556.1887    23255.028    149819.93    676.35608   -8297.3485    8.6182819 
  109000    2683.7362    23239.563    152341.24    710.10455   -8296.5552     8.624017 
  110000    2629.4939    23140.325    157519.23     695.7523    -8305.143    8.6610015 
  111000    2556.8963    23258.104    149093.72     676.5433   -8296.8783    8.6171422 
  112000    2656.4953    23381.508    142572.77    702.89675   -8287.8632    8.5716622 
  113000    2608.0305    23321.371    144922.63    690.07318   -8298.8775    8.5937651 
  114000    2464.4108    23192.797    155010.66    652.07205    -8286.553    8.6414066 
  115000    2622.9087    23259.827    152414.12    694.00989   -8280.6998    8.6165036 
  116000    2516.6102    23274.758    146260.68    665.88379   -8307.2139    8.6109761 
  117000    2638.1833     23214.15    154730.82    698.05147   -8293.0409    8.6334579 
  118000    2602.9637    23221.196    148834.25    688.73253   -8319.4907    8.6308382 
  119000    2566.8036    23258.476    141909.92    679.16472   -8335.4878    8.6170044 
  120000    2625.7865    23220.634    150559.18    694.77134   -8309.7838    8.6310473 
  121000     2464.867    23175.176    151548.79    652.19277   -8310.9175    8.6479769 
  122000    2621.1867    23231.836    153531.16    693.55424   -8289.7643    8.6268854 
  123000    2595.7162    23270.212    147689.45    686.81488   -8304.9878    8.6126584 
  124000    2592.7104    23304.614    144098.04    686.01956   -8306.5342    8.5999445 
  125000    2621.7078    23251.054    155307.93    693.69214    -8273.388     8.619755 
  126000    2619.1281    23283.515    146246.68    693.00955   -8307.6551    8.6077376 
  127000    2587.2099    23153.077    154621.56    684.56413   -8311.9347    8.6562312 
  128000    2465.4541    23349.181    138360.75    652.34811    -8311.246    8.5835296 
  129000    2654.0094    23203.145    151284.97    702.23899    -8314.676    8.6375525 
  130000    2613.7615    23326.985    144007.89    691.58959   -8301.3666     8.591697 
  131000    2689.4802    23258.649    150791.09     711.6244   -8294.2447    8.6169401 
  132000    2637.2004    23304.233    142311.76    697.79139   -8319.5983    8.6000849 
  133000    2569.7256     23226.04    152984.74    679.93788   -8293.4898    8.6290383 
  134000    2631.9836    23168.667    154164.89    696.41107   -8308.1118    8.6504066 
  135000     2594.044    23295.283     146155.2    686.37242   -8299.5009    8.6033891 
  136000    2544.4469     23247.72    151112.08    673.24925   -8290.3143    8.6209911 
  137000    2581.4012    23249.569     153972.2    683.02718   -8281.3317    8.6203056 
  138000    2544.9438    23231.092    150073.01    673.38072   -8301.8401    8.6271617 
[...]
  120000    2783.6292    24350.042    146513.87    736.53582   -7941.8525    8.2307204 
  121000    2922.4344    24462.219    147597.76    773.26304   -7912.8402    8.1929766 
  122000    2918.7294    24445.299    140944.43     772.2827   -7949.3869    8.1986473 
  123000    2927.1579    24311.077    154970.58    774.51286   -7920.6228    8.2439123 
  124000    3008.2529    24432.015    148397.23    795.97023   -7915.4797     8.203105 
  125000    2888.9438     24336.09    155750.67    764.40157   -7910.8465    8.2354389 
  126000    2911.0855    24314.329    151686.72    770.26018   -7935.1852    8.2428097 
  127000    2956.8857     24438.15    148100.68    782.37869   -7913.6689    8.2010457 
  128000     2907.754    24290.531    155434.85    769.37866   -7932.4703    8.2508853 
  129000    2838.5084    24424.247    145013.09    751.05659   -7928.1406    8.2057139 
  130000    2906.5163    24378.121    153028.65    769.05118   -7908.2132    8.2212402 
  131000    2959.8615    24417.721    151441.18    783.16608   -7912.4381    8.2079072 
  132000     2866.431    24501.907    143582.77     758.4448   -7914.1035    8.1797055 
  133000    2894.6644    24399.361    148993.57    765.91523   -7921.5189    8.2140835 
  134000    2948.2254    24324.016    160248.41    780.08722   -7893.3123    8.2395269 
  135000    2867.7002    24386.801    145927.28    758.78062   -7938.2392     8.218314 
  136000    2878.7309    24531.814    132109.05    761.69929   -7963.2561    8.1697337 
  137000    2948.2838    24457.243    146825.79    780.10267   -7921.5274    8.1946434 
  138000    2980.7905    24403.614    152047.25    788.70381   -7909.7237    8.2126519 
  139000    2871.5574    24306.606    154135.89    759.80122   -7925.6608    8.2454286 
  140000    2783.0263    24378.902    153205.32    736.37628    -7908.511    8.2209766 
  141000    2929.8799    24486.926    146231.95    775.23308   -7912.4573    8.1847099 
  142000     2985.496    24236.883    158779.21    789.94887   -7933.6396    8.2691487 
  143000    2814.2731    24447.934     143550.8    744.64404    -7928.694    8.1977636 
  144000    2930.5122    24469.421    140815.83     775.4004   -7941.5685    8.1905651 
  145000    3012.2411    24340.028    156952.68    797.02549   -7909.0797    8.2341068 
  146000    2969.4636    24325.162    150979.92    785.70675   -7943.5494    8.2391388 
  147000     2856.435    24536.177    140074.14     755.7999   -7910.1553     8.168281 
  148000    2928.7347    24437.021    143512.01    774.93008   -7940.5544    8.2014247 
  149000    2873.2523    24409.579    151376.87    760.24968   -7905.6937     8.210645 
  150000    2878.5905    24392.943    152470.19    761.66215    -7901.026    8.2162445 
  151000    2819.5882    24397.086    149294.39     746.0504   -7919.6983    8.2148494 
  152000    2837.5294    24493.205     145668.9    750.79757   -7912.0274    8.1826118 
  153000    2871.8866     24276.19    158602.89    759.88832   -7909.2601    8.2557595 
  154000    2865.6717    24399.665    153421.44    758.24388   -7898.9411     8.213981 
  155000    2896.8622    24408.439    150612.89    766.49674   -7912.5707    8.2110285 
  156000    2846.9596    24360.912    152604.99    753.29275   -7916.5654    8.2270476 
  157000    2909.6685    24449.469    143422.22    769.88525    -7926.361    8.1972489 
  158000     2987.361    24165.993    163481.44    790.44234   -7925.3259    8.2934059 
  159000    2904.7396    24295.728    155249.52    768.58107   -7923.7156    8.2491203 
  160000    2889.2921    24516.615    144115.91    764.49374   -7904.0847    8.1747985 
  161000    3005.7611    24456.347    145600.77    795.31091    -7926.589    8.1949437 
  162000    2814.3419    24222.184    156762.73    744.66224   -7932.9276    8.2741667 
  163000     2928.187    24316.688     155311.1    774.78516   -7913.1323      8.24201 
  164000    2931.0134    24308.936    158517.09    775.53299   -7906.0356    8.2446384 
  165000    2890.4772    24375.463    147288.32     764.8073   -7934.4168    8.2221367 
  166000    2913.6842    24594.941    137243.24    770.94777   -7917.3514    8.1487646 
  167000    2850.7273    24421.529    152014.03    754.28965   -7897.0322    8.2066274 
  168000    2814.8965    24335.603    154959.99    744.80901   -7910.6868    8.2356039 
  169000    2909.2274    24270.017    155924.12    769.76853   -7925.9306    8.2578593 
  170000    2965.0041    24403.629    149870.26     784.5268   -7915.5154    8.2126467 
  171000     2957.173    24427.911    150438.13    782.45471   -7911.3713    8.2044831 
  172000     2960.066    24315.991    154767.86    783.22019   -7924.7041    8.2422463 
  173000    2889.1721     24328.31    147910.32    764.46199   -7944.1822    8.2380725 
  174000    2927.3705    24537.748    141007.57     774.5691    -7911.898    8.1677579 
  175000    2852.7063    24406.243    145107.53    754.81331    -7932.018    8.2117672 
  176000    2967.8944    24302.507    158028.24    785.29157   -7912.0344    8.2468194 
  177000    2943.1602    24291.751    156074.54      778.747   -7913.1336     8.250471 
  178000    2812.0593    24385.986    146775.25    744.05828   -7929.4504    8.2185887 
  179000     2946.672    24480.984    140678.98    779.67621   -7939.8384    8.1866966 
  180000    2871.4696    24401.736    149641.97    759.77799   -7916.8153    8.2132839 
  181000    2848.3764    24371.478     154899.5    753.66762   -7896.6627    8.2234811 
  182000    2942.2736    24470.163    143569.01     778.5124   -7928.8392    8.1903168 
  183000    2823.4516     24318.41       151522    747.07265   -7928.4573    8.2414265 
  184000    2932.1874    24366.943    149724.02    775.84365   -7930.7497    8.2250116 
  185000    2903.5508    24336.163    153423.05    768.26653   -7917.1398    8.2354145 
  186000    2979.3004    24397.911    151114.56    788.30953   -7914.6628    8.2145717 
  187000    2911.9138    24299.845    151982.65    770.47934   -7931.7283     8.247723 
  188000    2839.8648    24333.255    149643.24    751.41549   -7934.7397    8.2363986 
  189000    2859.5815    24442.934    150515.94    756.63244   -7901.1567    8.1994406 
  190000    2919.7505    24467.257    146964.07    772.55288   -7906.0498    8.1912895 
  191000    2891.7201    24393.817    150071.51    765.13617   -7912.2174    8.2159504 
  192000    2902.4221    24361.848    149227.06    767.96787   -7932.1907    8.2267316 
  193000    2841.6562    24409.405    143545.52    751.88948   -7942.0034    8.2107035 
  194000    2835.6761    24465.235    144262.03     750.3072   -7918.4578    8.1919665 
  195000    2937.1466    24472.824     150281.6    777.15582   -7896.4965    8.1894262 
  196000    2861.8275    24242.584    159889.32    757.22674   -7912.9134    8.2672038 
  197000    2942.6725    24404.574    153608.64    778.61795   -7895.7747    8.2123287 
  198000    2878.5047     24449.21    144216.88    761.63945   -7926.3711    8.1973358 
  199000    2920.6434    24489.049     139715.2    772.78916   -7940.0985    8.1840005 
  200000    2946.2157    24348.814    151769.17    779.55547   -7926.3352    8.2311355 
  201000    3019.0956     24418.58    153125.65    798.83915   -7901.5242    8.2076185 
  202000    2885.7195    24420.591    147992.52    763.54845   -7912.7404    8.2069425 
  203000    2914.4443    24336.393     151360.3    771.14889   -7929.7029    8.2353365 
  204000    2938.5592    24322.244    155077.46     777.5296    -7913.003    8.2401273 
  205000    2952.0619    24426.623    148184.32    781.10235   -7919.5655    8.2049157 
  206000    2806.7498    24412.394    147569.44    742.65342   -7919.7352    8.2096983 
  207000    2928.6167     24307.77    151174.56    774.89884   -7944.4033    8.2450339 
  208000    2856.0458    24478.256     150456.8    755.69691    -7887.094    8.1876088 
  209000     2902.039    24429.898    146626.21     767.8665   -7919.0399     8.203816 
  210000     2843.782    24444.121     146234.1    752.45197   -7921.9141    8.1990425 
  211000    2879.4666    24525.183    140314.93    761.89394   -7922.6952    8.1719425 
  212000    2855.6895    24338.869    149332.21    755.60265   -7938.0474    8.2344989 
  213000    2898.8096    24396.977    150269.78    767.01201   -7911.4997    8.2148862 
  214000    2919.0779    24377.592    150169.87    772.37493   -7927.6498    8.2214186 
  215000    2810.3796    24358.616    147127.78    743.61383   -7935.7577    8.2278231 
  216000    2954.8024    24459.716     144358.4    781.82747   -7923.1661    8.1938151 
  217000    3014.0801    24407.097    152438.01    797.51208   -7903.8461    8.2114797 
  218000    2947.7262    24504.834     138437.8    779.95515   -7935.6116    8.1787285 
  219000    2951.1684    24441.787    148354.82    780.86592   -7915.8031    8.1998256 
  220000    2948.2525    24424.702    149842.75    780.09439   -7914.6253    8.2055612 
  221000    2928.2822    24398.364    150750.98    774.81035   -7910.9467    8.2144189 
  222000    2912.1024    24388.119     146655.9    770.52923   -7932.7367    8.2178697 
  223000    2860.8243    24340.691    149274.68    756.96127   -7938.4483    8.2338825 
  224000    3016.3981    24415.437    153352.43    798.12542   -7905.6503    8.2086751 
  225000    2947.3239    24265.178    155912.28    779.84869   -7936.7313    8.2595061 
  226000    3015.8439    24394.987    149211.37    797.97878   -7925.2287    8.2155561 
  227000    2828.6199     24514.73    141707.99    748.44014   -7912.5574    8.1754269 
  228000    2926.7274    24351.949    152599.75    774.39895   -7922.0597    8.2300758 
  229000    2954.3051    24264.646    158767.35    781.69588     -7919.81    8.2596872 
  230000    2877.0066    24353.549    156309.66    761.24305   -7896.7896    8.2295352 
  231000    3022.8637    24325.171    156251.99    799.83619   -7916.3094    8.2391356 
  232000     2940.547    24450.694    144076.06    778.05556    -7930.292    8.1968384 
  233000    2895.6146    24337.046    147647.56    766.16665   -7940.6773    8.2351156 
  234000    2926.9369    24326.133    154056.93    774.45438   -7924.7442      8.23881 
  235000    2827.8691    24249.651    158041.46    748.24149   -7913.4473    8.2647948 
  236000    2934.2439      24451.2    145080.85    776.38777   -7918.1532    8.1966686 
  237000    2817.2414    24439.084    139351.24    745.42943   -7944.8913    8.2007324 
  238000    2814.5032    24460.822    146761.33    744.70494   -7911.0944    8.1934444 
  239000    2964.6027    24282.069     157318.1    784.42058    -7921.102    8.2537607 
  240000    2829.8733    24388.015    152260.93    748.77179   -7906.1181    8.2179047 
  241000    2868.4081    24428.533    149161.28    758.96791    -7900.245    8.2042742 
  242000    2935.0157    24528.708    140500.46    776.59199   -7925.8512    8.1707682 
  243000    2940.5483    24353.072    148857.94     778.0559   -7944.9606    8.2296963 
  244000    2843.5171     24289.64    161756.95    752.38187   -7891.0653    8.2511882 
  245000    2877.5057    24295.677    157454.26     761.3751   -7911.5538    8.2491379 
  246000    2890.5318    24426.861    146904.85    764.82176   -7925.1899     8.204836 
  247000    2903.9302    24518.858    143547.44    768.36692   -7910.5209    8.1740507 
  248000    2885.4797    24491.012    148813.35      763.485   -7896.3002    8.1833445 
  249000    2873.8513    24330.066    153238.02    760.40818   -7923.4676    8.2374782 
  250000    2974.3295     24491.31    146439.03    786.99426   -7919.1286     8.183245 
Loop time of 647.049 on 8 procs for 250000 steps with 2048 atoms

Performance: 33.382 ns/day, 0.719 hours/ns, 386.369 timesteps/s
109.4% CPU use with 4 MPI tasks x 2 OpenMP threads

MPI task timing breakdown:
Section |  min time  |  avg time  |  max time  |%varavg| %total
---------------------------------------------------------------
Pair    | 384.87     | 388.75     | 394.08     |  19.2 | 60.08
Neigh   | 6.6104     | 6.68       | 6.7521     |   2.0 |  1.03
Comm    | 61.266     | 66.709     | 70.443     |  46.6 | 10.31
Output  | 0.0073394  | 0.011903   | 0.013455   |   2.4 |  0.00
Modify  | 183.31     | 183.54     | 183.8      |   1.5 | 28.37
Other   |            | 1.356      |            |       |  0.21

Nlocal:        512.000 ave         517 max         503 min
Histogram: 1 0 0 0 0 1 0 0 0 2
Nghost:        2750.75 ave        2759 max        2746 min
Histogram: 1 0 2 0 0 0 0 0 0 1
Neighs:        39167.5 ave       41291 max       36721 min
Histogram: 1 0 0 0 0 2 0 0 0 1

Total # of neighbors = 156670
Ave neighs/atom = 76.499023
Neighbor list builds = 5553
Dangerous builds = 0


# fix 132 all momentum 100 linear 1 1 1 angular
fix out_file_1 all print 1000 "$(step) $(temp) $(press) ${sys_press} $(vol) $(ke) $(pe) $(density)" file one_phase_${sim}_press_$P_$T_.txt screen no title  "step temp press pressGiga vol ke pe density"
fix out_file_1 all print 1000 "$(step) $(temp) $(press) ${sys_press} $(vol) $(ke) $(pe) $(density)" file one_phase_heating_press_$P_$T_.txt screen no title  "step temp press pressGiga vol ke pe density"
fix out_file_1 all print 1000 "$(step) $(temp) $(press) ${sys_press} $(vol) $(ke) $(pe) $(density)" file one_phase_heating_press_150000_$T_.txt screen no title  "step temp press pressGiga vol ke pe density"
fix out_file_1 all print 1000 "$(step) $(temp) $(press) ${sys_press} $(vol) $(ke) $(pe) $(density)" file one_phase_heating_press_150000_2900_.txt screen no title  "step temp press pressGiga vol ke pe density"

# dump 3 all custom 1000 traj_npt_new.lammpstrj id type x y z
run 50000
Last active /omp style is pair_style eam/alloy/omp
Per MPI rank memory allocation (min/avg/max) = 4.354 | 4.354 | 4.354 Mbytes
Step Temp Volume Press KinEng PotEng Density 
  250000    2974.3295     24491.31    146439.03    786.99426   -7919.1286     8.183245 
  251000    2865.3272     24334.38    153530.65    758.15272   -7911.6165    8.2360178 
  252000    2966.2186    24288.606    156763.51    784.84814    -7928.022    8.2515392 
  253000    2900.7385    24387.812    146691.33    767.52241   -7935.7118    8.2179733 
  254000    2855.1333    24433.318    145718.27    755.45548   -7925.6771    8.2026675 
  255000    2787.5149    24589.784    139799.47    737.56395   -7900.0373    8.1504736 
  256000    2826.2512    24268.853    159332.03    747.81341   -7906.4864    8.2582554 
  257000    2920.2808    24447.819    150779.92     772.6932   -7901.1817    8.1978021 
  258000    2801.1044    24392.363    158198.53    741.15966   -7868.4528      8.21644 
  259000    2910.7839    24233.472    158529.19    770.18036   -7930.4653    8.2703125 
  260000    2904.9644    24446.857    147075.19    768.64057   -7910.3156     8.198125 
  261000    2893.6478    24394.998    147281.93    765.64622   -7928.2721    8.2155523 
  262000    2796.7057    24430.211    145327.95     739.9958   -7919.4545    8.2037108 
  263000    2844.6294    24437.667     146042.8     752.6762   -7921.0791     8.201208 
  264000    2887.8488    24408.111    146234.89    764.11186   -7925.5417    8.2111388 
  265000    2926.9938    24331.535    158250.48    774.46944   -7899.1432    8.2369809 
  266000    2949.3384    24373.296    149907.95    780.38171    -7924.959    8.2228678 
  267000    2924.5767    24438.083    144717.93    773.82988   -7935.6769    8.2010681 
  268000    2866.6995    24293.499    156091.67    758.51584   -7919.8623    8.2498773 
  269000     2905.437    24500.091    143472.18     768.7656   -7911.0672     8.180312 
  270000    2874.6843    24363.688     153846.6    760.62859   -7901.6556    8.2261102 
  271000    2932.5136    24367.048    152099.35    775.92996    -7916.007    8.2249759 
  272000    2942.5404    24527.154       145846    778.58301   -7896.5502    8.1712859 
  273000    2924.0468    24397.486    144039.94    773.68969   -7941.5233    8.2147146 
  274000    2943.2513    24339.203    155972.55    778.77111   -7909.3616    8.2343856 
  275000    2923.8088    24303.252    153072.34    773.62671   -7930.5289    8.2465666 
  276000     2884.531    24423.249     146555.1    763.23398   -7926.5112    8.2060495 
  277000    2842.3227    24499.939    143644.66    752.06584   -7910.6511    8.1803628 
  278000    2911.1506    24438.517    148590.77    770.27739    -7908.796    8.2009227 
  279000    2864.1423    24480.674    145071.29    757.83921   -7908.6262    8.1868001 
  280000    2870.3555    24282.284    155149.16     759.4832   -7922.6012    8.2536877 
  281000    2935.3375    24336.677    155518.87    776.67714   -7912.7339    8.2352405 
  282000    2941.0287    24365.534    149359.29    778.18301   -7930.7445     8.225487 
  283000    2895.9301    24445.576    144434.61    766.25012   -7927.3503    8.1985546 
  284000    2934.3553    24576.409    139247.51    776.41726    -7913.785    8.1549092 
  285000    2965.1518    24305.264    153767.96    784.56588   -7929.5458    8.2458839 
  286000    2925.0699     24362.87       153594    773.96038   -7908.6355    8.2263866 
  287000     2842.529    24391.338    147294.56    752.12044   -7928.1017    8.2167852 
  288000    2866.5399    24655.422    136910.69    758.47362   -7897.3006    8.1287755 
  289000    2892.2238    24405.058     147145.3    765.26944    -7924.932    8.2121661 
  290000    2916.6396    24397.774    151852.21    771.72976   -7902.7152    8.2146179 
  291000     2857.179    24409.078    149002.77    755.99676   -7916.2167    8.2108136 
  292000    2859.6859    24377.695    148531.49    756.66007   -7920.7849    8.2213837 
  293000    2975.4193    24250.136    159285.58    787.28261   -7924.1122    8.2646295 
  294000    2998.4244    24422.299    151367.72    793.36965   -7907.8308    8.2063685 
  295000    2895.5994    24447.101    146497.29    766.16261   -7922.7268     8.198043 
  296000    2866.6284    24276.339    158696.33    758.49703   -7919.6821     8.255709 
  297000    2958.2406    24262.044    161546.33     782.7372   -7905.7769     8.260573 
  298000    2846.6058    24318.289    154530.28    753.19912   -7917.5022    8.2414676 
  299000    2882.6337    24352.484    149529.04    762.73196   -7936.2524     8.229895 
  300000    2892.4127    24324.235    152832.87    765.31943   -7924.2495     8.239453 
Loop time of 193.722 on 8 procs for 50000 steps with 2048 atoms

Performance: 22.300 ns/day, 1.076 hours/ns, 258.101 timesteps/s
116.7% CPU use with 4 MPI tasks x 2 OpenMP threads

MPI task timing breakdown:
Section |  min time  |  avg time  |  max time  |%varavg| %total
---------------------------------------------------------------
Pair    | 110.52     | 111.66     | 113.3      |  10.4 | 57.64
Neigh   | 1.9048     | 1.9524     | 1.9918     |   2.2 |  1.01
Comm    | 10.817     | 12.509     | 13.645     |  31.4 |  6.46
Output  | 0.0022352  | 0.0030198  | 0.0032869  |   0.8 |  0.00
Modify  | 67.186     | 67.242     | 67.288     |   0.6 | 34.71
Other   |            | 0.361      |            |       |  0.19

Nlocal:        512.000 ave         518 max         507 min
Histogram: 2 0 0 0 0 0 0 1 0 1
Nghost:        2772.00 ave        2776 max        2767 min
Histogram: 1 0 0 1 0 0 0 0 1 1
Neighs:        39451.2 ave       41602 max       37301 min
Histogram: 1 0 0 1 0 0 1 0 0 1

Total # of neighbors = 157805
Ave neighs/atom = 77.053223
Neighbor list builds = 1109
Dangerous builds = 0

unfix temp
unfix out_file_1


write_data after_${sim}_press_$P_$T.in
write_data after_heating_press_$P_$T.in
write_data after_heating_press_150000_$T.in
write_data after_heating_press_150000_2900.in
System init for write_data ...
Last active /omp style is pair_style eam/alloy/omp
write_restart after_${sim}_press_$P_$T.lmp
write_restart after_heating_press_$P_$T.lmp
write_restart after_heating_press_150000_$T.lmp
write_restart after_heating_press_150000_2900.lmp
System init for write_restart ...
Last active /omp style is pair_style eam/alloy/omp
next loopVar
jump in.lmp ensemble
























Total wall time: 1:08:48
