LAMMPS data file via write_data, version 29 Oct 2020, timestep = 300000

2016 atoms
1 atom types

-0.2701648548113802 21.534164854811202 xlo xhi
-0.2701648548113802 21.534164854811202 ylo yhi
-0.6303846612244683 50.24638466122466 zlo zhi

Masses

1 58.933

Atoms # atomic

27 1 2.1810324650206345 3.015399537417377 1.354862453715864 0 0 0
146 1 2.48804550764953 0.951410055937933 3.2878367167966873 0 0 0
169 1 0.1120022298501891 2.8943305771094794 3.120289177548509 0 0 0
173 1 4.077887878076948 3.1261571503865055 3.1191284394949834 0 0 0
4 1 0.2503469980596166 1.1416492929994948 1.389650133373486 0 0 0
8 1 4.269366499136146 1.05269310901328 1.1931371650659715 0 0 0
1636 1 9.741635968033764 18.710434866925784 -0.4597129555344597 -2 1 1
33 1 7.245095864821116 2.6756626692839123 -0.5415405744593154 0 0 0
78 1 5.431151577997317 12.249829989830008 -0.27513868635006605 0 0 0
31 1 5.761659277418106 3.0657164506323715 1.3919507752717983 0 0 0
11 1 7.604076775898421 1.041591912384425 1.449406135432867 0 0 0
177 1 7.482440993797307 3.1794824313842764 3.2198329466636295 0 0 0
150 1 5.690581399342375 1.263025637289655 2.845172041954727 0 0 0
13 1 11.091093625675565 20.95238000292351 -0.6014739224553372 0 -1 0
106 1 9.228299223627838 15.480476315080233 -0.37869965502708014 0 0 0
12 1 9.013551954773906 3.076290732989808 1.2479325431921884 0 0 0
35 1 11.297561070247955 1.2084385872008232 1.2483794026204538 0 0 0
154 1 9.358359335292754 1.1079464972333277 3.1162827902831256 0 0 0
181 1 10.993404226708964 2.8992491205904662 2.833826223974405 0 0 0
158 1 12.890878285731244 1.20308063897304 3.4341879914518643 0 0 0
20 1 12.935684155534805 2.900991918980971 1.2774917193332271 0 0 0
118 1 20.060298969810116 15.509324717998474 -0.3082828126070341 0 0 0
25 1 0.5685817021729644 2.7343229819517307 -0.442799599577948 0 0 0
43 1 16.502540701202708 3.0608782237029777 1.5938195033366798 0 0 0
19 1 14.48362619704087 1.20863442009492 1.5813631934794703 0 0 0
162 1 15.88079573686447 1.3382195890378565 3.2186100514627376 0 0 0
185 1 14.480525868227568 3.122771338071383 3.2924978574803707 0 0 0
1734 1 4.264183092396155 2.8954752226559615 -0.4438165192428628 -1 4 1
431 1 20.693900556057404 17.462072882189585 8.482120058111564 0 0 0
102 1 7.483590355154136 13.61648990702359 -0.5001829806413429 0 0 0
24 1 18.101776758003624 1.233363395238173 1.3926816292903772 0 0 0
47 1 20.379718962175367 3.0432154125830957 1.4399911351766868 0 0 0
166 1 20.13742156463897 1.344962131412598 3.098363278376072 0 0 0
189 1 18.234402426516635 2.9503512716809754 3.2042428495352655 0 0 0
504 1 20.465851394863382 19.289949211578676 10.296972323530028 0 0 0
125 1 4.057223643849229 17.204219731785017 -0.3593902150817395 0 0 0
51 1 1.891171037890492 6.5071729240588745 1.1417730842529534 0 0 0
170 1 2.5480365046733446 4.867929722872767 3.2344043452991524 0 0 0
28 1 0.22885547675614482 4.704452783372928 1.1525733925044708 0 0 0
32 1 3.716119374865159 4.91012209251897 1.4537070662895086 0 0 0
193 1 0.3703826312323184 6.0801872444396725 3.594553768512334 0 0 0
197 1 3.861234713857014 7.01909560221686 3.0648179983431025 0 0 0
52 1 -0.12963097578289112 8.445415461226586 1.213274127054524 0 0 0
56 1 3.6577456447904204 8.725404995591386 1.524081340208637 0 0 0
194 1 1.5371618857970113 8.042677067875438 2.9833116762553247 0 0 0
66 1 16.623574667070923 8.273693414795341 -0.41913133851611684 0 0 0
432 1 18.315364776990222 19.27663714845571 8.630879543699375 0 0 0
18 1 18.13714813304775 21.409869828819364 -0.3167011317932963 0 -1 0
21 1 20.06404809132287 1.2259428651541195 -0.47685560827683504 0 0 0
36 1 7.344996425538251 5.043259633931003 1.2470092627655136 0 0 0
55 1 5.432587144607432 6.633929092482225 1.4032312265328875 0 0 0
201 1 7.351193486223039 6.815108177083373 2.8597267756929456 0 0 0
174 1 5.31552582087708 5.111438885329832 3.209596251903388 0 0 0
198 1 5.532070563683482 8.564609619813465 3.1448266200723194 0 0 0
58 1 7.56108075858103 8.80306355078822 1.5695694409392225 0 0 0
1416 1 11.17035797968037 3.0295610103280906 -0.5797074230712774 2 0 1
39 1 10.6409370811567 4.754998894434075 1.102977298799922 0 0 0
59 1 9.13087747156014 6.700586708330057 1.2430742996865396 0 0 0
205 1 10.605959613229833 6.325031678043553 3.1378448391452896 0 0 0
178 1 8.696595490174543 5.023672013778143 3.287576688269985 0 0 0
63 1 12.751107604629105 6.320261237257075 1.4282112760308934 0 0 0
182 1 12.696185054657954 4.695517327829572 3.177401581843983 0 0 0
62 1 12.547056627381954 8.547598812857387 -0.41359662057193214 0 0 0
86 1 14.955292273035926 13.65648801512912 -0.2131246995505055 0 0 0
44 1 14.689023848447361 4.71541541105963 1.759243650893457 0 0 0
67 1 16.92217526585487 6.295576552487116 1.3738424220181726 0 0 0
209 1 14.714541923376233 6.696689053434987 2.974705989271359 0 0 0
186 1 16.659089087699854 4.848772468383727 3.2698523907863084 0 0 0
68 1 14.360380283300415 8.302822855253158 1.2690870055242212 0 0 0
210 1 16.517220908649602 8.35465942690996 3.0471635299764226 0 0 0
206 1 12.86007935680115 8.607805396421858 3.319439210892047 0 0 0
14 1 12.93604116778929 1.2786501632563025 -0.2925223207878704 0 0 0
1 1 2.070409680838592 1.0345496665374918 -0.5761079980089168 0 0 0
1389 1 12.865023993337914 4.921688846406206 -0.5542561256747922 4 4 1
48 1 18.466203584156954 4.463926366780266 1.4541831121578115 0 0 0
71 1 20.345894805303033 6.273882694318288 1.443393308957762 0 0 0
213 1 18.555953133425902 6.347455779167421 3.328908910074417 0 0 0
72 1 18.711036556532648 8.336521502561906 1.4846880247078982 0 0 0
214 1 20.35529041002936 8.161081670099634 3.2918910388871874 0 0 0
190 1 20.280206856172764 4.759488771359031 3.1217814405880335 0 0 0
1516 1 -0.021934377371686298 20.951188230155594 -0.12307559488813347 -1 1 1
6 1 5.826728470477183 0.7539258958754385 -0.5272374575019472 0 0 0
138 1 16.638113955351155 19.570661412130715 -0.002259504227273057 0 0 0
75 1 1.5354107773095855 10.46735474014304 1.4342444205995624 0 0 0
218 1 2.003624401170858 12.131405473384726 3.2418234417266834 0 0 0
217 1 0.2619451416535794 10.116708687811302 3.3166144667723763 0 0 0
76 1 -0.007484442069230712 12.195446381014142 1.781868852196597 0 0 0
80 1 3.5079618489072777 12.261759240829248 1.5234657305787973 0 0 0
74 1 2.0253497671202103 12.041312609465438 -0.5661093865670579 0 0 0
126 1 6.171117299001303 19.140497174241048 -0.44081039268939753 0 0 0
221 1 3.7547274648432483 10.539814931807651 3.100917336940373 0 0 0
79 1 5.679796440848769 10.170116518428824 1.3930285363015273 0 0 0
84 1 7.582523717969458 12.449525909346029 1.453712665457123 0 0 0
60 1 7.570317385563917 10.366245924839935 3.2210183550225904 0 0 0
222 1 5.740016065624052 12.15615806468101 3.30291705517522 0 0 0
97 1 0.4232763856925602 13.812615975370003 0.06725673405276655 0 0 0
40 1 11.172000274006823 8.313634953076052 1.5957249730610945 0 0 0
202 1 9.23392056091568 8.065588542749284 3.5403492880724565 0 0 0
83 1 9.06475330882589 10.355989339534387 1.377247307558474 0 0 0
88 1 11.248947746805472 11.953402788676136 1.5620887039413458 0 0 0
226 1 9.343173123841211 12.296763312269112 3.3309635870252783 0 0 0
64 1 10.715709174110653 10.291312500962203 3.204281601322066 0 0 0
141 1 19.89529439374647 19.058083003793715 -0.1578718724701771 0 0 0
77 1 3.571339204084478 10.372356322566908 -0.2522324449676223 0 0 0
230 1 12.894104910710565 11.900000469067006 3.1917461651702848 0 0 0
87 1 13.039395906669984 10.400104607555159 1.3398948966868656 0 0 0
92 1 14.959309585229887 12.061123751804223 1.4552857777060333 0 0 0
233 1 14.82955921956345 10.19744533033503 3.1166042462260513 0 0 0
91 1 17.005186593571583 10.133252378970862 1.3492956063534378 0 0 0
234 1 16.676914003211103 11.870779231317938 3.3575115960745525 0 0 0
311 1 20.21132549904219 21.0935485917709 8.390138484208435 0 -1 0
443 1 18.50483594315218 20.805380849943337 10.341674251283056 0 -1 0
95 1 20.496467490283298 10.205220278458487 1.519168551582311 0 0 0
96 1 18.66271360231071 11.864781178649292 1.5126024485093001 0 0 0
237 1 18.748671462866202 9.983814133254759 3.168867405480552 0 0 0
238 1 20.108657260713766 12.001875215075177 3.580435156718302 0 0 0
89 1 14.659869627948632 10.165886713625728 -0.5052933635619087 0 0 0
65 1 14.681722099549031 6.577656639100846 -0.6037931760965445 0 0 0
99 1 1.9928752387282165 14.140675717962624 1.5905249076766013 0 0 0
241 1 -0.13083183690745945 13.973394289701766 3.5685526932648726 0 0 0
104 1 3.6745495878714256 16.322760199142568 1.4649603374287277 0 0 0
248 1 3.8613526028094576 13.869218156778281 3.221044609246341 0 0 0
100 1 0.18130631399105002 15.477727557422131 1.6792592253740857 0 0 0
10 1 9.212075137653981 1.290464100499926 -0.5404789124953944 0 0 0
50 1 2.0020133549290713 8.427711018302162 -0.586318329931987 0 0 0
103 1 5.6337993771224415 13.72434968612267 1.8441855828977576 0 0 0
108 1 7.483222841109491 15.288342824092421 1.234602683364096 0 0 0
246 1 5.564578671643583 15.745574964559896 3.2483246459125312 0 0 0
249 1 7.4896176572594255 13.935872164597436 3.351854224792417 0 0 0
122 1 1.7625793063618547 19.472101169532596 -0.3788562309265408 0 0 0
107 1 9.677093393757929 13.830792160021788 1.5247746337766772 0 0 0
112 1 10.964547848210012 15.598268745482697 1.5519931629364447 0 0 0
250 1 9.230403049966638 15.580059939913223 3.3517837719456094 0 0 0
253 1 11.472403227919472 13.855014999556754 3.418169877012132 0 0 0
254 1 12.915649430921416 15.813395957584166 2.952692837155986 0 0 0
131 1 9.449446610187666 17.387426182353476 1.5865703972114185 0 0 0
1056 1 13.330265499046513 15.473305822621437 -0.12858688749553437 0 -3 1
53 1 4.000011213301569 6.575942634081735 -0.5128994285798976 0 0 0
111 1 13.320733497323523 13.588274266617958 1.4785773645688955 0 0 0
114 1 15.192709382924214 15.888101033827951 2.072147803827242 0 0 0
115 1 16.791297556795765 13.792953113417626 1.3974162600812727 0 0 0
257 1 14.962357768685704 13.986016951762338 3.294394137056608 0 0 0
73 1 0.4843948139000891 10.218419155690311 -0.5272991986536004 0 0 0
258 1 17.122077198200845 15.583887614885915 3.420741055993326 0 0 0
93 1 18.64808468887553 10.388417309669558 -0.32022816888136063 0 0 0
57 1 7.484017518484933 6.655385487245063 -0.2779326271104422 0 0 0
90 1 20.274950724783363 13.948107177869737 1.343790730790344 0 0 0
120 1 18.265270556406453 15.527113796655396 1.3072421951607762 0 0 0
261 1 18.332335978820375 13.733117964990027 3.098718172572917 0 0 0
262 1 19.80296253340808 15.612787874623049 3.4148632149958376 0 0 0
113 1 16.715904470349553 15.338868341066195 -0.4549248856584757 0 0 0
440 1 10.917774229212604 21.09479997700452 10.400948811589114 0 -1 0
41 1 14.92389699353839 2.922601979263441 -0.023222592649721707 0 0 0
439 1 11.420021163384408 19.427805314496194 8.935371702230329 0 -1 0
123 1 1.8029461134444515 17.581506767225896 1.2179604101886816 0 0 0
269 1 3.966462424099941 17.90446199039098 3.4501166451686256 0 0 0
3 1 1.9398668132053185 21.142087419382758 1.3984875491052327 0 -1 0
145 1 0.026873276324815787 21.267113231308915 3.264468124152848 0 -1 0
149 1 3.945034388192658 20.972771405415404 3.0701292961352205 0 -1 0
266 1 1.857536571974709 19.435408152297725 2.920875082918284 0 0 0
124 1 0.20788330246856074 19.52289660921664 1.3762023738853038 0 0 0
128 1 3.922187008855622 19.038222421674124 1.2543466627575885 0 0 0
265 1 -0.11566517354525965 17.651091128290204 3.3614004026554722 0 0 0
494 1 2.1739728464475214 19.41957206312653 10.604643722085587 0 0 0
121 1 0.12951632999070073 17.565741897202535 -0.3740999952388472 0 0 0
17 1 14.715741667466578 21.12392189987915 -0.005714013204893509 0 -1 0
291 1 2.1528965751400673 21.1914752231091 8.407071577044775 0 -1 0
274 1 7.516053240226942 17.278170508713668 3.08631066940133 0 0 0
127 1 5.722220909460912 17.472678009878898 1.3597583601090868 0 0 0
7 1 5.646777086268526 20.788936771057763 1.0472794861040227 0 -1 0
132 1 7.739980021917663 19.030230818006554 1.1806762517037122 0 0 0
153 1 7.530427776667203 21.19724703884825 3.2154890629462893 0 -1 0
270 1 6.046956619282373 19.266377146454246 3.1257804889064964 0 0 0
81 1 7.383856548425718 10.888485412241062 -0.2652838139444195 0 0 0
245 1 3.735817928890471 14.132105875320045 0.019039598504708155 0 0 0
98 1 1.7048110927187872 15.696848883229455 -0.31923947435339844 0 0 0
277 1 11.0983928028537 17.350300262735427 3.4902220174182235 0 0 0
130 1 8.843030512119736 19.369683086185653 3.1752568283804825 0 0 0
301 1 11.032286951643057 21.339134290097054 3.2677431111115176 0 -1 0
157 1 9.454751023189901 21.00495401045527 1.1797351515837187 0 -1 0
136 1 11.044643834636613 19.27231647149342 1.763384677521611 0 0 0
16 1 12.821453775873264 21.05531410098539 1.4776434233209788 0 -1 0
412 1 0.3543409130399514 19.299159454125736 8.59038556874538 0 0 0
411 1 2.0384338490900453 17.888677141030264 8.536971602723533 0 0 0
434 1 0.030157384094902373 21.317453136253228 10.269470101044746 0 -1 0
161 1 14.41961923042851 20.95630392619571 3.1554591116038173 0 -1 0
433 1 3.7709706874895 20.917542966809883 10.373139948304043 0 -1 0
281 1 15.007628377505581 17.555245920757997 3.5586134096285313 0 0 0
139 1 16.683544400288643 17.54984896546814 1.7432150792172312 0 0 0
278 1 13.017103605920552 19.31463579818587 3.2051029677137275 0 0 0
135 1 13.182434961847898 17.57944966010034 1.710058315448502 0 0 0
15 1 15.043136390233204 19.198471117908493 1.551158883190761 0 -1 0
282 1 16.556274989812056 21.261036982538254 1.5911850128182672 0 0 0
495 1 3.7293547710974724 17.73827914784139 10.615034256680522 0 0 0
285 1 18.989419869613094 17.746506425263807 3.5891018404524813 0 0 0
143 1 20.25022439751791 17.12598419782099 1.3722645352249012 0 0 0
23 1 20.06023113385214 -0.20640271758869844 1.2827670297634928 0 0 0
144 1 18.567961777182365 19.460705621221948 1.711554426955722 0 0 0
286 1 20.31502374870732 19.753480865592707 3.0978289412309055 0 0 0
165 1 18.32266249329829 21.381384667155753 3.129899311432656 0 -1 0
275 1 9.380162731810822 17.561935059453223 8.57738067699167 0 0 0
171 1 2.1978057889826217 2.9837545986942224 4.799634014516781 0 0 0
317 1 2.3379743336288197 1.1372609489350292 6.550089598366687 0 0 0
290 1 0.42110364473260986 2.686985513671464 7.155921600403857 0 0 0
315 1 3.9775097376858337 3.0505823256335365 6.928798467497883 0 0 0
152 1 4.11061766339388 1.2604762523769302 4.962213061087397 0 0 0
148 1 -0.033866688331686906 1.4467349612810405 4.999793847117435 0 0 0
172 1 0.15914533379404755 4.072306187264187 5.456494924999434 0 0 0
156 1 7.3239909628569535 1.513895475935509 4.609880568201464 0 0 0
294 1 5.795635919180313 1.2375557121970584 6.75838210087856 0 0 0
321 1 5.5677763382348555 3.4092417957456127 5.204381281206876 0 0 0
319 1 7.684820705518358 2.676635286402737 6.649463290373842 0 0 0
160 1 10.835688036169557 1.440465963740277 5.174488944096199 0 0 0
179 1 9.230250492929606 3.1660536007619746 4.87643820197193 0 0 0
298 1 9.401765653931157 1.3389649890247106 6.873209471674511 0 0 0
322 1 11.104831771903681 2.986089110489631 6.837052238793198 0 0 0
183 1 12.73193666912603 3.0983614062000617 4.846949453161858 0 0 0
499 1 12.597374357556703 1.1989508090167635 7.0363636739667665 0 1 0
325 1 14.691035205502033 3.0013025145968513 6.737082409710967 0 0 0
164 1 14.659113593332584 0.9499640780645522 5.132283697052274 0 0 0
187 1 16.59755063351971 3.029867656984911 5.118619221260997 0 0 0
306 1 16.410988882780572 0.9713132463952594 6.8830845790394415 0 0 0
168 1 20.21914755953949 1.0342113994929214 6.661265161176815 0 0 0
333 1 18.152668938321554 3.0622350482786738 6.897595332622439 0 0 0
191 1 19.704308826410692 2.8260462696352966 5.010822627911527 0 0 0
163 1 18.08977632009998 0.8604312392205113 5.487255317553569 0 0 0
334 1 20.045709549121703 4.6876920859088065 6.52236866998989 0 0 0
318 1 2.2070655853394276 4.4972827476015675 6.7245810802389885 0 0 0
195 1 2.3325992657847197 6.716850701807494 4.836830176492976 0 0 0
337 1 0.5144673060199301 6.412808378950263 6.6967477165357625 0 0 0
176 1 3.8792024721592924 4.896435072024493 5.0305581303377656 0 0 0
341 1 3.8899786396530205 6.749772869434684 6.591308223846133 0 0 0
196 1 0.26697587356525676 8.398272949254043 5.072086240677028 0 0 0
338 1 2.057978263747843 8.169541542784293 6.941392963323806 0 0 0
200 1 4.1135888623339865 8.824762932204742 4.9616765749855105 0 0 0
180 1 7.3062527418944 4.636133076544276 5.235632714556169 0 0 0
175 1 5.164198267937298 4.964059896253779 6.931697513394323 0 0 0
199 1 5.6613152327686205 6.722271620945728 4.781416842916429 0 0 0
346 1 7.288776196361203 6.699087147065226 6.9639311682538 0 0 0
204 1 7.3076222715227805 8.457029876417856 4.982762915698277 0 0 0
342 1 5.474235879861054 8.159454433511648 6.96950943430648 0 0 0
184 1 10.83700826427453 4.739472710666933 4.801343402792984 0 0 0
203 1 9.060950401814456 6.493598525501965 4.940030395379695 0 0 0
349 1 11.213340536411264 6.421832130764195 6.591437899818115 0 0 0
348 1 9.519328005563894 4.918314523443609 6.689870237070945 0 0 0
231 1 12.818523271540348 8.400807990884418 6.5366469903543845 0 0 0
373 1 9.450814342048226 8.400182758948645 6.670258258166218 0 0 0
208 1 11.090165980593778 8.567149036034984 5.098884535290001 0 0 0
326 1 12.749606921140323 4.9738103912490805 6.502159120104178 0 0 0
207 1 12.608408611695328 6.52162639273621 4.492742863857696 0 0 0
188 1 14.498801684515875 4.78882608627213 4.904824376925444 0 0 0
353 1 14.638258870540485 6.881330735461337 6.481095112679527 0 0 0
211 1 16.1821234254855 6.560727951038211 4.810632153847788 0 0 0
330 1 16.174759668509846 4.9017002115383415 6.496077590150779 0 0 0
212 1 14.802198080200558 8.468034878512372 4.720817923956242 0 0 0
354 1 16.490569541631775 8.596832861470508 6.726787328506977 0 0 0
192 1 18.284232785441127 4.8324081094674725 5.31988702631759 0 0 0
357 1 18.165310992277405 6.577418581106534 6.7643790262131605 0 0 0
215 1 20.01807013048805 6.2224245100153075 4.997013536212476 0 0 0
216 1 18.550181153727863 8.26006360425905 4.896247823697243 0 0 0
358 1 20.414782676471404 8.203724492568886 6.929199643205602 0 0 0
219 1 1.903530585855909 10.291580617351983 5.00670695908203 0 0 0
362 1 1.9321163864541169 12.116687469195716 6.942888623135534 0 0 0
361 1 0.36750706821969714 10.03889537077523 7.114820221587582 0 0 0
220 1 0.23192096169605958 11.835640056576786 4.923574039245731 0 0 0
224 1 3.822728300367026 11.989042017790972 5.170264549715168 0 0 0
365 1 3.5165392357195313 10.226858830591349 6.877605457254295 0 0 0
225 1 7.459723786105595 12.437327520876606 4.909256233746902 0 0 0
223 1 5.832919973276463 10.349177395802688 5.113478428712189 0 0 0
369 1 7.605382410592518 10.187162715776903 6.657385055749989 0 0 0
366 1 5.63611881598802 11.827962569858643 6.9256002514981265 0 0 0
228 1 9.377849816929087 11.632368854338306 6.898731395579344 0 0 0
227 1 9.257690343433563 10.157573646513933 4.683813559120639 0 0 0
232 1 11.006841291814286 12.081369588653434 4.951905304310927 0 0 0
370 1 11.211425788084105 10.132832478597528 6.79206576971714 0 0 0
374 1 12.834231137478225 11.919932025602906 7.0720025058176015 0 0 0
229 1 12.837482692194627 10.169761372995485 4.9438208423051035 0 0 0
377 1 14.411686781445676 10.173113380767694 6.758381373472726 0 0 0
235 1 16.78969096706067 10.070459129157689 4.884695727397386 0 0 0
236 1 14.64862953223907 12.030522635196688 5.043430965698509 0 0 0
378 1 16.332942725475757 11.69841901829517 6.796076052442567 0 0 0
381 1 18.425005172481836 10.543555593487792 6.626518372902527 0 0 0
239 1 20.081703140094227 10.090464342212211 4.963971145913041 0 0 0
240 1 18.26619871798849 12.088083836107721 4.9498581711742 0 0 0
382 1 20.285099619730303 11.856279575548433 6.759716571836918 0 0 0
242 1 1.9221515608804847 16.03320616736396 3.179775181201139 0 0 0
243 1 1.967669776657881 13.925986223779239 4.7000656733398 0 0 0
386 1 2.0888095530279225 15.545311812808102 6.810846583948079 0 0 0
244 1 0.18155569578448583 15.956177552671669 4.941189466889081 0 0 0
271 1 3.6222634618731946 15.82997766993688 4.79029265918802 0 0 0
385 1 0.3390652306877041 13.920746687058468 6.546796415629178 0 0 0
389 1 3.731516015537392 13.859689709447471 6.697852834563624 0 0 0
247 1 5.6867154603690615 13.775525052774238 4.8059140387806085 0 0 0
393 1 7.246249114468225 13.952199406624567 6.931854844955018 0 0 0
252 1 7.645938737340393 15.723421117091256 5.267237086111167 0 0 0
390 1 5.61153933900611 15.757895112022954 7.040462430054525 0 0 0
251 1 9.140811697254208 13.8469637041712 4.973994683583239 0 0 0
397 1 10.93736638171919 13.797070496328509 6.958536586180496 0 0 0
256 1 11.084756917967553 15.47850384417524 5.0988222970555 0 0 0
394 1 9.221379970996068 15.551046540948894 6.873619216724778 0 0 0
398 1 12.798064933190183 15.802142375454789 6.559484515502608 0 0 0
273 1 9.468071014097431 17.216077218719835 5.290972882948067 0 0 0
255 1 13.174496369053974 13.99909455401363 5.087760157935645 0 0 0
401 1 14.649424144227233 13.816793829389914 6.907298914027319 0 0 0
259 1 16.54581719121851 13.604081267551813 5.199786195190263 0 0 0
260 1 14.86814603787377 15.753959080421069 5.030769506529189 0 0 0
402 1 16.48731483313675 16.020186888462458 7.085676964906986 0 0 0
405 1 18.10204224076808 13.927285736557637 6.811493773727155 0 0 0
263 1 19.99123193747841 13.976888108155457 5.313968764037128 0 0 0
264 1 18.547643791777922 15.787436364159674 5.552046284704777 0 0 0
406 1 20.277827540167554 15.577083975000013 7.283433884182834 0 0 0
429 1 18.57285941797117 17.329964689825037 7.063256349304365 0 0 0
287 1 20.205927778425508 17.46317885754763 5.411220238226341 0 0 0
409 1 0.44174767501643863 17.645090209514873 6.706899305616112 0 0 0
267 1 2.008070532977612 17.983068809455276 4.841501153075594 0 0 0
413 1 3.719952410082531 17.685185849964434 6.592666475301915 0 0 0
289 1 0.15167947504830176 21.41864914262922 6.447818723069511 0 -1 0
147 1 2.2272837610457823 21.10952513916723 5.098769448039228 0 -1 0
410 1 2.0631289199807625 19.376397802648395 6.8282556645171555 0 0 0
268 1 0.3015251996343643 19.54995726550131 5.01223716210029 0 0 0
272 1 3.8777051529901554 19.47771530869957 4.98093779209214 0 0 0
293 1 4.109956691312196 21.184329730349315 6.72399735674415 0 -1 0
276 1 5.7058453866527 17.494244594097204 5.229564848938371 0 0 0
417 1 7.467464570402396 17.504612328028692 6.960293358566796 0 0 0
151 1 5.870099468346178 21.10072428780923 4.704718349580348 0 -1 0
295 1 7.645201803924326 21.231747731030328 6.799232964924277 0 -1 0
297 1 7.394066758102762 19.43017978692501 5.0032059504100195 0 -1 0
414 1 5.7300354044461645 19.61800987257334 6.657356780001442 0 0 0
424 1 11.04438213403971 21.0234874683741 6.947222206355682 0 0 0
421 1 11.333032336267411 17.756480932546555 6.599068183565462 0 0 0
155 1 9.263144548062364 21.037080310541935 5.045507324442432 0 -1 0
280 1 11.158021501982294 19.487408299925495 5.081831028835268 0 0 0
418 1 9.335266086463706 19.187536219066445 6.4570125434209515 0 0 0
279 1 12.926068825715193 17.487349536834994 5.060582831971974 0 0 0
140 1 16.89915627805996 19.175297268552267 3.5652984555691507 0 0 0
284 1 16.384884634506015 21.120452398951418 4.623664578641427 0 0 0
303 1 12.945869732472454 21.06831739044622 5.079284567451102 0 -1 0
422 1 12.874067984047853 19.295422132097595 7.07765469252437 0 0 0
283 1 16.71520178979324 17.282017069377673 5.0677997862584165 0 0 0
425 1 14.627073105188982 17.508942284521805 6.975085666477977 0 0 0
305 1 14.782099190048589 20.99856441168029 6.444478742931982 0 -1 0
159 1 14.615318969174096 19.416713311397615 5.0379842611359065 0 -1 0
426 1 16.56718075683472 18.964239458757053 6.705302345837523 0 0 0
167 1 20.102748456834576 21.354362620460964 5.08242602439733 0 -1 0
309 1 17.951377770950742 21.019155349893694 6.890634980116075 0 -1 0
288 1 18.51181811281953 19.674938575397192 5.221825745009131 0 0 0
430 1 20.516673894711726 19.457811585659837 6.749372724618272 0 0 0
292 1 1.831651584303719 2.6037470544792463 9.204344148699162 0 0 0
435 1 2.332043621259281 0.8891072980129542 10.588761992250001 0 0 0
445 1 -0.03666611168306491 2.5855193389565794 10.299394167821967 0 0 0
310 1 0.06333868222877348 0.8925875589032604 8.5141124748186 1 0 0
605 1 4.541844462389281 3.043463012106929 10.446121616760546 0 0 0
296 1 4.164404215206549 1.2928713422659206 8.70518749066171 0 0 0
314 1 0.09857770423038498 4.644382860584172 8.41015515974667 0 0 0
497 1 7.747350838028911 17.45120432255031 10.625023658325963 0 0 0
447 1 5.826107588531523 0.980587992135785 10.339990930717475 0 0 0
300 1 7.371442827593447 0.8531157465756334 8.756774836094285 0 0 0
323 1 7.378652526311881 2.7168935706230575 10.73987367406428 0 0 0
320 1 6.159565706254489 2.7703182873292302 8.667489393164114 0 0 0
304 1 11.185046605304697 1.2257551483174964 8.753074887856933 0 0 0
438 1 9.233869342526335 0.9795075975742229 10.531786907833391 0 0 0
328 1 9.217586950379706 2.8469024004432195 8.798189957004725 0 0 0
351 1 10.997120869182666 3.0992288954939773 10.226350040550503 0 0 0
453 1 13.120730025407944 1.2814127876339922 10.431480662050365 0 0 0
302 1 12.914223891227852 3.385305418745274 8.470743073156745 0 0 0
329 1 14.687864382728675 1.285012386771917 8.523079268944699 0 0 0
454 1 14.61613128714241 3.13106795430781 10.63938184159127 0 0 0
331 1 16.54053198797421 2.9570595426830857 8.49987873512251 0 0 0
442 1 16.030636743262367 1.2349009799304824 10.43606990353068 0 0 0
441 1 14.850435037651433 20.844676470770697 10.564566107394539 0 -1 0
312 1 18.189657524250393 0.910042166724411 8.411532561440222 0 0 0
455 1 18.14234805555141 2.653235141692233 10.163974496446809 0 0 0
444 1 20.087649794562445 0.9662577289522483 10.0434206299214 0 0 0
313 1 19.980746859743956 2.942153326287924 8.176690512186703 -1 0 0
493 1 0.2717452433933977 17.650240021882816 10.579679452358329 0 0 0
446 1 1.9695710899790537 4.745832987198088 10.129192374699493 0 0 0
359 1 1.8628934924194045 6.264296304681384 8.675383098290212 1 0 0
457 1 -0.1560549789522625 6.255773265312402 10.252056599297365 0 0 0
459 1 4.055199661515523 6.837047775574983 10.36735954010892 0 0 0
339 1 3.8119735130828447 4.667548742198691 8.650267179370905 0 0 0
344 1 3.723591128622823 8.3328960382757 8.531068050118884 0 0 0
340 1 0.19132035991312007 8.249940566821218 8.672836908450352 0 0 0
316 1 1.7627417338759814 8.027960616140223 10.304493443711502 0 0 0
416 1 3.6268532787154917 19.342186279579003 8.41177311159339 0 0 0
502 1 16.49030308734135 19.161158978440547 10.313936737276768 0 0 0
448 1 5.7137925750331044 4.946823969312151 10.109215771048843 0 0 0
345 1 7.502107466741572 4.624122149579967 7.856811444315687 0 0 0
343 1 5.733342068016793 6.596640022896827 8.760022843888978 0 0 0
461 1 7.542282165478366 6.643300581498051 10.597317503192336 0 0 0
372 1 7.534519838527292 8.357070157950883 8.516345554249062 0 0 0
531 1 6.037984714487876 8.167415775195472 10.41511556078166 0 0 0
450 1 9.11308951100876 4.660175508271939 10.519099868912626 0 0 0
347 1 11.133388939327169 4.7499488148265465 8.504140925049823 0 0 0
324 1 9.391124202993932 6.335492696522467 8.725876846458355 0 0 0
463 1 11.175818862160865 6.475706058879256 10.406139106335472 0 0 0
464 1 12.915147874588571 8.16144820008134 10.670219439744269 0 0 0
350 1 13.249601087352186 6.273480688853643 8.305848221052138 0 0 0
327 1 12.783298162246318 4.911801555229151 10.360489080624617 0 0 0
528 1 16.50758609221865 4.590637947332825 10.807723900981067 0 0 0
332 1 15.137304498598041 4.610968683258922 8.666969122448993 0 0 0
465 1 14.823014107767913 6.3733173787765285 10.429620623816517 0 0 0
355 1 16.202042801879923 6.628586046749871 8.56263952275474 0 0 0
356 1 14.485020230985718 8.191536563778017 8.550092734587077 0 0 0
466 1 16.720733220783835 8.449369139582242 10.20474668237408 0 0 0
420 1 7.450125307167436 18.99938460010334 8.5750093684641 0 0 0
456 1 19.701807358016946 4.433032397858246 10.270580651770706 0 0 0
335 1 17.82128787649366 4.76413807448273 8.303187144134508 0 0 0
336 1 19.733080332733913 6.35793442064909 8.716559855913012 0 0 0
467 1 18.324097213011523 6.45751248146464 10.737442159187202 0 0 0
468 1 20.24607563536075 8.162856979891089 10.320148891528943 0 0 0
428 1 14.532952198289149 19.191872559966857 8.626286168951477 0 0 0
408 1 18.134629883812458 15.424614744934974 8.853516252625482 0 0 0
307 1 16.283012468470734 21.26872735311261 8.79877373860708 0 -1 0
363 1 2.0107339384081486 10.028363900740667 8.909783926211992 0 0 0
470 1 1.89392972640871 12.032239298577412 10.386460814941488 0 0 0
469 1 -0.0962552695522057 9.940237749453871 10.06811757124097 0 0 0
471 1 3.8980854547851065 9.769382003993977 10.244028984258096 0 0 0
364 1 0.11998264255050684 12.218402484014318 8.652670667848769 0 0 0
367 1 3.678449948006848 11.773642623128454 8.493053307144173 0 0 0
496 1 5.5294154310110954 20.679901327669306 8.951387404341807 0 0 0
117 1 18.594498183593686 13.429709657497156 -0.6102532519628113 0 0 0
460 1 5.757473183233374 10.040829872517333 8.453314582144667 0 0 0
473 1 7.604463265168544 10.26367057240913 10.644439555423792 0 0 0
472 1 5.828983344935963 11.824926913863596 9.879500429633591 0 0 0
391 1 7.61350975600749 11.848922098720092 8.097030748760218 0 0 0
567 1 5.814592973038552 19.02205958805594 10.673957568696402 0 0 0
462 1 9.31575989629157 8.342612012249209 10.313096391174627 0 0 0
352 1 10.973452940286629 8.224492367085388 8.48078094676669 0 0 0
371 1 9.302844114390178 10.272607151987422 8.592988302801924 0 0 0
475 1 11.237282094951736 9.8096056175545 10.42129897065832 0 0 0
376 1 11.302394926982359 11.72959890736349 8.710069500000682 0 0 0
474 1 9.25728421069768 12.043602493328732 10.48601226977996 0 0 0
476 1 12.585084722614013 11.827111438170196 10.636382170428254 0 0 0
375 1 12.782849696717394 9.753799448738878 8.626915324253925 0 0 0
477 1 14.508017333775646 9.940143080481713 10.329746509870796 0 0 0
380 1 14.744012230367955 11.976313654660823 8.550342657419606 0 0 0
478 1 16.400811811960125 11.78559028845365 10.42316172185678 0 0 0
379 1 16.605431367525323 10.149113302827985 8.873245565784035 0 0 0
360 1 18.606517201318567 8.581102666210459 8.119024189714832 0 0 0
480 1 19.920036145957845 12.164085618444 10.164478891407404 0 0 0