LAMMPS (29 Oct 2020)
OMP_NUM_THREADS environment is not set. Defaulting to 1 thread. (src/comm.cpp:94)
  using 1 OpenMP thread(s) per MPI task
package omp 0
using multi-threaded neighbor list subroutines
package omp 2
set 2 OpenMP thread(s) per MPI task
using multi-threaded neighbor list subroutines
# units metal
# dimension 3
# boundary p p p


# lattice fcc 3.5440
# region box block 0 8 0 8 0 8 units lattice
# create_box 1 box
# create_atoms 1 box


read_restart after_heating_2400.lmp
Reading restart file ...
  restart file = 29 Oct 2020, LAMMPS = 29 Oct 2020
  restoring atom style atomic from restart
  orthogonal box = (-0.82404704 -0.82404704 -0.82404704) to (29.176047 29.176047 29.176047)
  1 by 1 by 2 MPI processor grid
  pair style eam/alloy/omp stores no restart info
  2048 atoms
  read_restart CPU = 0.001 seconds

variable P equal 0
variable dt equal 0.001
variable loopVar loop 22
variable sys_press equal "press/10000"
# print "step temp vol pe" file heating.txt screen no

pair_style eam/alloy
pair_coeff * * Co_Zhou04.eam.alloy Co
Reading eam/alloy potential file Co_Zhou04.eam.alloy with DATE: 2018-03-30




neighbor 2 bin
neigh_modify every 10 check yes

thermo 1000
thermo_style custom step temp vol press ke pe density

timestep $(dt)
timestep 0.0010000000000000000208

# fix 2 all npt temp 300 300 $(dt*100) iso 0 0 $(dt*1000)
# run 30000
# unfix 2





# dump_modify 1 append yes
# dump 3 all custom 10000 traj_npt_new.lammpstrj id type x y z

# velocity all create 300 123123

print """
asdfasdfasdfasdfsadfasddsaffffffffffff
"""

asdfasdfasdfasdfsadfasddsaffffffffffff

label ensemble

print """
Hi HI Hi
"""

Hi HI Hi

variable T equal 2500-${loopVar}*100
variable T equal 2500-1*100
# velocity all create $T 123123
reset_timestep 0
fix 1 all npt temp $T $T $(dt*100) iso 0 0 $(dt*1000)
fix 1 all npt temp 2400 $T $(dt*100) iso 0 0 $(dt*1000)
fix 1 all npt temp 2400 2400 $(dt*100) iso 0 0 $(dt*1000)
fix 1 all npt temp 2400 2400 0.10000000000000000555 iso 0 0 $(dt*1000)
fix 1 all npt temp 2400 2400 0.10000000000000000555 iso 0 0 1
print """
<--------------------------------------------------------------------->
<------------------ Equilibrating at temperature $T ----------------->
<--------------------------------------------------------------------->
"""

<--------------------------------------------------------------------->
<------------------ Equilibrating at temperature 2400 ----------------->
<--------------------------------------------------------------------->

run 150000
Last active /omp style is pair_style eam/alloy/omp
Neighbor list info ...
  update every 10 steps, delay 10 steps, check yes
  max neighbors/atom: 2000, page size: 100000
  master list distance cutoff = 7.6035394
  ghost atom cutoff = 7.6035394
  binsize = 3.8017697, bins = 8 8 8
  1 neighbor lists, perpetual/occasional/extra = 1 0 0
  (1) pair eam/alloy/omp, perpetual
      attributes: half, newton on, omp
      pair build: half/bin/atomonly/newton/omp
      stencil: half/bin/3d/newton
      bin: standard
Per MPI rank memory allocation (min/avg/max) = 4.384 | 4.384 | 4.384 Mbytes
Step Temp Volume Press KinEng PotEng Density 
       0    2411.8725    27000.254    187.09855    638.17065   -7879.8167    7.4228334 
    1000     2418.695    26752.462    5269.3168    639.97587   -7917.6507    7.4915867 
    2000    2369.9285    27104.826      -5915.6    627.07246   -7872.9663    7.3941958 
    3000     2409.438    26992.129   -2013.5095     637.5265   -7888.2575    7.4250677 
    4000    2420.5305    26869.922    8554.8986    640.46152   -7878.4872    7.4588377 
    5000    2373.5785     26829.15    1373.2461    628.03824   -7912.1446    7.4701728 
    6000    2345.7656    26871.137    2451.2185    620.67906   -7895.1242    7.4585005 
    7000    2438.6395    26875.522    4292.4749    645.25309   -7898.4428    7.4572836 
    8000    2506.1548    26817.241    6314.4156    663.11732   -7903.6166    7.4734902 
    9000    2319.6176    26774.909    5442.0844    613.76041   -7914.3165    7.4853059 
   10000    2408.9889    26994.921   -576.07818    637.40766   -7881.5711    7.4242998 
   11000    2399.3381    26919.976   -2981.6223     634.8541   -7911.1682    7.4449689 
   12000    2444.6919    27058.188   -213.70091    646.85451   -7868.1708    7.4069404 
   13000    2394.0632    26925.108    805.13138     633.4584   -7895.5596    7.4435499 
   14000    2410.8205    27030.041   -3517.1878     637.8923   -7887.6271    7.4146534 
   15000    2398.9919     27004.87    585.17119     634.7625   -7879.1343    7.4215645 
   16000    2415.9349    27132.776   -4240.7149    639.24555   -7862.0983    7.3865786 
   17000    2362.8541     26998.25    -2389.089    625.20061   -7886.4872    7.4233844 
   18000    2430.7337    26834.502    3117.7558    643.16124    -7904.955    7.4686829 
   19000    2442.2749    26944.444    2202.7396      646.215   -7878.9457    7.4382083 
   20000    2386.1529    26891.467   -1082.2217    631.36535   -7909.4737    7.4528619 
   21000     2413.475    27050.059   -3236.0498    638.59468   -7881.1555    7.4091663 
   22000    2384.8298    27185.315   -9503.2212    631.01528   -7874.9039    7.3723034 
   23000    2309.9745    26929.901   -1453.3673     611.2089   -7894.7244    7.4422251 
   24000    2451.5247    26813.992    6289.9887    648.66243   -7901.0485    7.4743956 
   25000    2481.6242     27031.55    2249.5788    656.62663   -7868.5423    7.4142396 
   26000    2332.4141    26972.018   -1945.8426    617.14632   -7890.5678    7.4306042 
   27000    2427.3936     27031.83   -3637.7992    642.27748   -7888.3515    7.4141628 
   28000    2399.2134    27057.077   -4808.8852    634.82111   -7887.1342    7.4072445 
   29000    2405.8839    26968.023   -5125.5379    636.58609   -7907.7282    7.4317048 
   30000    2409.1297    26936.083    3495.3278    637.44492   -7882.8064     7.440517 
   31000    2401.5918    27052.445   -2395.2563    635.45044   -7876.1564    7.4085129 
   32000    2445.5223    26981.812   -133.89344    647.07423     -7890.77    7.4279068 
   33000     2420.829    26787.884    11617.825    640.54051   -7877.5533    7.4816803 
   34000    2458.2443    26932.625    1765.2055    650.44043   -7889.6799    7.4414724 
   35000    2328.9594    26952.574   -2497.0782    616.23223   -7901.4082    7.4359645 
   36000    2417.5961    27000.927   -4304.2715    639.68509   -7900.9271    7.4226483 
   37000    2407.7183    26834.086    6031.0332    637.07147   -7890.7951    7.4687987 
   38000    2418.5072    26979.238   -2530.9376    639.92616   -7901.5524    7.4286156 
   39000    2283.8227    26921.331    2943.6787    604.28926   -7878.0434    7.4445942 
   40000    2397.9081    27011.314   -3146.8026    634.47573   -7889.1674    7.4197941 
   41000    2338.1312    26981.002    -1766.236    618.65903   -7883.1027    7.4281298 
   42000    2393.7042    26899.082      2557.19     633.3634   -7895.8768    7.4507518 
   43000     2479.508    26826.227    6761.9466    656.06671   -7892.5237    7.4709869 
   44000    2393.7986    26996.894    5410.5267    633.38837   -7855.7155    7.4237572 
   45000    2433.8725     27056.51   -5290.2276    643.99176   -7883.6698    7.4073998 
   46000    2419.4702    26975.441     1099.263    640.18098   -7876.9039     7.429661 
   47000    2368.7514    26978.499   -2292.7516    626.76099   -7899.0384    7.4288191 
   48000    2409.0504     27012.49   -2555.9467    637.42395   -7885.6147    7.4194711 
   49000    2414.0374    26920.916    3692.9193    638.74348    -7883.046    7.4447089 
   50000    2392.9763    26861.935    6546.8427    633.17079   -7882.2829    7.4610556 
   51000    2393.6843    26829.519    4433.5976    633.35813   -7906.5621    7.4700702 
   52000    2380.3712    26744.194    10080.979    629.83554   -7892.9196    7.4939026 
   53000    2408.3491    27108.707   -3086.9039    637.23837   -7865.0191    7.3931369 
   54000    2341.5814    26836.425    7177.3612    619.57194   -7887.6946    7.4681477 
   55000    2410.8369    26978.401    1176.4054    637.89663   -7869.4946    7.4288461 
   56000    2383.8355    26953.892    3308.9068    630.75218   -7878.9922    7.4356011 
   57000    2435.1141    27138.802   -2734.1353    644.32027   -7859.8919    7.3849386 
   58000     2384.499    26989.329    212.61069    630.92774   -7882.0103    7.4258382 
   59000    2331.5666     26978.04   -2888.3898    616.92207   -7882.1909    7.4289453 
   60000    2420.0078    27023.096   -4982.0485    640.32322   -7892.1392    7.4165589 
   61000    2444.2491    26974.227    1248.1203    646.73736   -7879.4329    7.4299955 
   62000    2323.0588     26861.15    1704.1729    614.67095   -7893.2419    7.4612734 
   63000    2402.5586    26873.905   -514.66484    635.70623   -7909.3219    7.4577323 
   64000    2373.7572    27128.863   -5791.7583    628.08552   -7874.7629    7.3876442 
   65000    2419.1016    26902.495   -499.27199    640.08345    -7904.064    7.4498068 
   66000    2430.3464    26810.905    7101.2266    643.05875   -7894.8814    7.4752562 
   67000    2406.9118    27043.408   -5106.4261    636.85807   -7889.8511    7.4109886 
   68000    2363.0045    27126.308   -3711.3551    625.24039   -7865.9488      7.38834 
   69000    2391.2873    26857.745    6432.5215    632.72389   -7887.7417    7.4622195 
   70000    2362.5927     27098.58   -3049.1829    625.13143   -7860.2613    7.3959001 
   71000    2449.0047    27198.783   -12136.514    647.99568   -7893.2534    7.3686526 
   72000    2383.9456      26986.6   -1707.2418    630.78133   -7881.1212    7.4265889 
   73000    2396.5175    27073.225   -3961.2089     634.1078   -7882.4396    7.4028265 
   74000    2382.3308    26929.589    3847.2283    630.35406   -7887.3846    7.4423114 
   75000    2379.0875     26944.32   -4563.0594    629.49589    -7910.572    7.4382425 
   76000    2409.4861    27015.202   -2951.1872    637.53923   -7884.5617    7.4187261 
   77000    2400.5769     27031.33    -2251.174    635.18187   -7881.3849       7.4143 
   78000    2437.2043    27025.628   -2526.3296    644.87332   -7881.1935    7.4158643 
   79000       2398.3    26962.819    -5153.972    634.57943   -7914.7317    7.4331392 
   80000    2504.0407    27035.598   -794.19008    662.55794   -7879.0966    7.4131295 
   81000    2421.7191    26882.877    791.70562    640.77603    -7908.644    7.4552433 
   82000    2362.8069    26937.778   -897.62116    625.18812   -7894.9247     7.440049 
   83000    2406.2238    27095.384   -6862.1266    636.67603   -7887.8834    7.3967722 
   84000    2364.6049    26948.038   -3635.9622    625.66387   -7905.9638    7.4372163 
   85000    2394.7378    26961.883   -1495.9122    633.63687   -7895.3566    7.4333973 
   86000    2321.7801    26768.648    3433.8496    614.33259   -7923.9351    7.4870567 
   87000     2466.471    26897.158   -432.01339    652.61718   -7911.6779    7.4512849 
   88000    2452.0572    27117.514   -4916.9105    648.80334   -7879.2886     7.390736 
   89000    2363.4918    26957.181    788.22902    625.36933   -7882.8629    7.4346939 
   90000      2357.19    26988.222    -1149.498    623.70191   -7884.2499    7.4261427 
   91000    2429.1164    27062.556   -2820.6856     642.7333   -7876.2404    7.4057449 
   92000    2462.0857    26761.973    6099.9989    651.45683   -7914.2402    7.4889243 
   93000    2447.0807    26949.785    1689.6474    647.48657   -7885.7604    7.4367343 
   94000    2435.8756    27017.263    1565.2176    644.52177   -7871.8442    7.4181603 
   95000    2437.5559    27040.013   -3336.4538    644.96636   -7891.6094    7.4119189 
   96000     2442.015    26928.487    305.87788    646.14621   -7895.8053    7.4426159 
   97000    2451.9769    26797.011    8595.3598    648.78209   -7889.8627    7.4791321 
   98000    2432.0853      26897.3    1252.8186    643.51886    -7898.891    7.4512456 
   99000    2303.4341    26975.925   -4128.6828    609.47833   -7898.2132    7.4295279 
  100000    2449.5998    26871.106    2728.5789    648.15313      -7902.4     7.458509 
  101000    2447.8889    26689.327    12258.683    647.70042   -7905.9105    7.5093084 
  102000    2491.3715    26935.775    1000.3996    659.20574   -7885.7163    7.4406022 
  103000    2355.1868    26962.985   -1341.7403    623.17186   -7893.8611    7.4330933 
  104000      2441.85    27128.614   -4652.9315    646.10256   -7872.0341    7.3877118 
  105000    2407.3159    27088.003   -488.96225      636.965   -7864.5373    7.3987878 
  106000    2365.9616    26899.268    2661.7195    626.02284   -7886.2112    7.4507003 
  107000    2426.5906    26980.302   -5213.0114      642.065   -7900.2836    7.4283226 
  108000    2399.2372     26937.96      390.309     634.8274   -7893.4343    7.4399986 
  109000    2379.8914    26932.265   -1095.7443    629.70859   -7902.6567    7.4415718 
  110000    2386.2133    27132.885   -1982.3277    631.38133   -7852.2321     7.386549 
  111000    2342.0567    27015.161   -2985.8622     619.6977   -7880.7027    7.4187376 
  112000    2380.5707    26809.525    3260.6193    629.88833    -7905.065     7.475641 
  113000     2361.588    26958.569    -616.4487     624.8656   -7891.4506     7.434311 
  114000     2401.278    27100.757   -6344.3917    635.36739   -7876.7539    7.3953058 
  115000    2448.8794    26941.151   -737.35859    647.96252   -7900.3389    7.4391173 
  116000    2332.5626    26942.659   -887.17759    617.18561   -7896.4822    7.4387011 
  117000    2395.2455    26945.115   -789.99411    633.77123   -7895.8084    7.4380232 
  118000    2396.0576     26988.67    -4127.911     633.9861   -7900.0939    7.4260193 
  119000     2354.774    27008.362   -3182.0252    623.06264   -7888.4672    7.4206049 
  120000     2454.171    26905.284    814.53163    649.36265   -7900.1469    7.4490343 
  121000    2418.8878    26899.602    7984.7213    640.02687   -7871.2925     7.450608 
  122000    2353.5662    27060.397   -5379.7484    622.74308   -7879.7498    7.4063359 
  123000    2391.0688    26947.645   -457.60813    632.66607   -7893.4422    7.4373248 
  124000    2428.5928    27129.582   -5095.4819    642.59477   -7870.5175    7.3874485 
  125000    2303.8193    26843.592    4458.4158    609.58026   -7888.7353    7.4661538 
  126000    2370.5916    27007.839   -5113.5947    627.24791    -7900.853    7.4207486 
  127000    2401.8584    26826.549    4774.3515    635.52096   -7895.2736     7.470897 
  128000    2431.5686     26725.54    10722.607    643.38215   -7893.1313    7.4991333 
  129000    2446.5158     26890.33    -1311.393     647.3371   -7910.2675     7.453177 
  130000    2373.3187    26985.819    -4590.546    627.96949   -7899.1637    7.4268039 
  131000     2444.703    27058.128   -2015.8013    646.85744   -7873.3818    7.4069569 
  132000     2343.298    27082.481   -5314.3052    620.02615   -7877.5185    7.4002965 
  133000    2374.7234     26890.36    2197.4008    628.34116   -7898.3182    7.4531687 
  134000    2430.7415    26821.841    2548.5149    643.16332   -7911.4912    7.4722085 
  135000    2376.3963    26959.187    -3222.481     628.7838   -7902.7129    7.4341405 
  136000    2443.4107    27056.662   -3744.8232    646.51551   -7882.1502    7.4073582 
  137000    2517.9249    26755.156    5951.1507    666.23164   -7920.8427    7.4908323 
  138000    2414.8622    26880.745    2277.7733    638.96172   -7891.8631    7.4558346 
  139000    2408.6127    26852.931    1003.3974    637.30811   -7908.2918    7.4635573 
  140000    2377.3131    26892.177    2788.5854    629.02639    -7888.305     7.452665 
  141000    2428.9609    26886.115    2441.5689    642.69217   -7896.2969    7.4543453 
  142000    2458.0658    26969.847    4411.0615     650.3932   -7872.6046    7.4312022 
  143000    2462.5239    26915.226    771.54043    651.57277   -7893.0203     7.446283 
  144000    2383.6679    26990.982   -2033.2662    630.70783   -7894.5489    7.4253834 
  145000    2316.0935    26928.482   -2468.0684    612.82796   -7899.5777    7.4426172 
  146000    2415.9278    27045.922   -3245.5409    639.24365   -7880.1739    7.4102996 
  147000    2363.1447    26815.539   -230.07186    625.27751   -7925.8191    7.4739644 
  148000    2419.0181    27022.355   -5368.6972    640.06135   -7892.7216    7.4167625 
  149000     2471.019    27056.037    -1546.951    653.82055    -7877.456    7.4075294 
  150000    2344.7937    26916.856    1006.6148     620.4219   -7891.3744     7.445832 
Loop time of 652.359 on 4 procs for 150000 steps with 2048 atoms

Performance: 19.866 ns/day, 1.208 hours/ns, 229.935 timesteps/s
130.1% CPU use with 2 MPI tasks x 2 OpenMP threads

MPI task timing breakdown:
Section |  min time  |  avg time  |  max time  |%varavg| %total
---------------------------------------------------------------
Pair    | 448.31     | 452.43     | 456.56     |  19.4 | 69.35
Neigh   | 8.4314     | 8.4801     | 8.5287     |   1.7 |  1.30
Comm    | 23.59      | 27.832     | 32.074     |  80.4 |  4.27
Output  | 0.0082422  | 0.0092146  | 0.010187   |   1.0 |  0.00
Modify  | 162.61     | 162.76     | 162.91     |   1.2 | 24.95
Other   |            | 0.8428     |            |       |  0.13

Nlocal:        1024.00 ave        1030 max        1018 min
Histogram: 1 0 0 0 0 0 0 0 0 1
Nghost:        3675.00 ave        3682 max        3668 min
Histogram: 1 0 0 0 0 0 0 0 0 1
Neighs:        71533.5 ave       72987 max       70080 min
Histogram: 1 0 0 0 0 0 0 0 0 1

Total # of neighbors = 143067
Ave neighs/atom = 69.856934
Neighbor list builds = 3096
Dangerous builds = 0

fix temp all print 100 "$(step) $(temp) $(press) ${sys_press} $(vol) $(ke) $(pe) $(density)" file temp_cold.txt screen no title  "step temp press pressGiga vol ke pe density"
# fix 132 all momentum 100 linear 1 1 1 angular
fix out_file_1 all print 1000 "$(step) $(temp) $(press) ${sys_press} $(vol) $(ke) $(pe) $(density)" file one_phase_cooling_$T_.txt screen no title  "step temp press pressGiga vol ke pe density"
fix out_file_1 all print 1000 "$(step) $(temp) $(press) ${sys_press} $(vol) $(ke) $(pe) $(density)" file one_phase_cooling_2400_.txt screen no title  "step temp press pressGiga vol ke pe density"

# dump 3 all custom 1000 traj_npt_new.lammpstrj id type x y z
run 50000
Last active /omp style is pair_style eam/alloy/omp
Per MPI rank memory allocation (min/avg/max) = 4.384 | 4.384 | 4.384 Mbytes
Step Temp Volume Press KinEng PotEng Density 
  150000    2344.7937    26916.856    1006.6148     620.4219   -7891.3744     7.445832 
  151000    2335.9596    26795.231    1591.0141    618.08444   -7919.9053     7.479629 
  152000    2378.8867    27039.569   -862.93652    629.44274   -7878.0738    7.4120407 
  153000    2438.2748    27038.416   -4505.0451    645.15658    -7894.927    7.4123569 
  154000    2393.9612    26938.151    5102.1057     633.4314   -7872.9684    7.4399459 
  155000    2427.4918    26761.602    7007.9881    642.30345   -7904.3157    7.4890279 
  156000    2448.2128    26925.148    331.54846    647.78613   -7897.0763    7.4435389 
  157000    2306.3153    26945.573   -1617.7911    610.24068   -7898.8124    7.4378965 
  158000    2388.3739    26996.171   -3851.8209    631.95302    -7897.641    7.4239559 
  159000    2388.2674    26983.751   -3673.8409    631.92484    -7896.575    7.4273731 
  160000    2406.4603    27105.811   -7241.1563     636.7386   -7886.2196     7.393927 
  161000    2309.8183    26888.904    64.601687    611.16757   -7903.8584    7.4535721 
  162000    2381.8919     26995.34    -1674.564    630.23792   -7889.3304    7.4241845 
  163000    2416.3877    26895.083    335.79487    639.36535   -7896.3817    7.4518598 
  164000    2437.1912    26929.947    410.75785    644.86987   -7888.4947    7.4422123 
  165000    2415.8842    27023.966   -3310.4487    639.23213   -7884.0262    7.4163203 
  166000    2464.6182    27136.357   -7214.7555    652.12692   -7878.9443     7.385604 
  167000    2457.8816    26850.543    2410.1502    650.34445   -7902.3283    7.4642209 
  168000    2453.5665    27059.409   -5874.9158     649.2027   -7886.8621    7.4066062 
  169000    2476.0234     26887.92    1786.4994    655.14469    -7896.906    7.4538449 
  170000    2416.9038    26899.996    3671.8023    639.50191   -7884.4935    7.4504988 
  171000     2405.908    26931.627    333.27576    636.59246   -7890.1597    7.4417482 
  172000    2352.6817    26922.966   -536.20067    622.50903   -7899.3757     7.444142 
  173000    2435.9685     26855.64   -1538.2422    644.54634    -7918.162    7.4628044 
  174000    2369.3969    26883.674   -651.14328    626.93179   -7902.7568    7.4550223 
  175000    2452.3132    26918.033    2216.7821    648.87109    -7891.839    7.4455064 
  176000    2409.4648    26776.309    7400.0554    637.53358   -7895.9604    7.4849146 
  177000    2455.4542    26984.847   -803.44985    649.70216   -7890.6402    7.4270713 
  178000    2425.8376    26838.622    3176.0985    641.86576    -7904.826    7.4675363 
  179000    2426.4608    27016.162   -2040.3131    642.03066   -7881.4672    7.4184626 
  180000    2432.3596    26797.736    3932.4599    643.59144   -7914.8237    7.4789298 
  181000    2387.5169    27006.958   -1591.3554    631.72628     -7881.82    7.4209909 
  182000    2391.9455    27002.683   -7519.1288    632.89805   -7909.6773    7.4221656 
  183000    2414.2969    26992.833   -2470.9381    638.81214     -7884.11    7.4248741 
  184000     2418.736    27100.788   -4174.7875    639.98671   -7874.7897    7.3952973 
  185000    2396.5037    26932.115    1633.8048    634.10414   -7894.1137    7.4416133 
  186000    2386.0798    27032.784   -5756.3111    631.34601   -7896.9238    7.4139009 
  187000    2393.4341    26955.388   -1673.2884    633.29193   -7897.8801    7.4351883 
  188000    2428.8133    27163.306   -6478.7343     642.6531   -7870.0602    7.3782767 
  189000    2450.7676    26884.368    196.36332    648.46211   -7912.4218    7.4548297 
  190000    2389.5251    27043.032   -2157.7382    632.25764   -7876.2021    7.4110917 
  191000    2350.2535    26829.885    2693.3167    621.86655   -7903.6106    7.4699682 
  192000    2417.2406    26796.975    5658.3986    639.59104   -7905.6412    7.4791423 
  193000    2449.8863    27041.362   -1920.1753    648.22894   -7875.8724    7.4115492 
  194000     2336.716    27005.257   -1347.6542    618.28457   -7882.0244    7.4214582 
  195000     2358.869    26943.201    324.94478    624.14617   -7883.4125    7.4385515 
  196000    2401.7802    26802.226    3487.0015    635.50026   -7914.5761     7.477677 
  197000     2450.611    27009.908    639.53804    648.42069    -7872.578    7.4201803 
  198000      2405.88    26948.683   -318.52148    636.58505    -7893.165    7.4370382 
  199000    2426.8902    27068.352   -3782.7121    642.14426   -7884.9006    7.4041593 
  200000    2316.1663    26980.744    -1453.365    612.84721   -7888.1022    7.4282008 
Loop time of 213.165 on 4 procs for 50000 steps with 2048 atoms

Performance: 20.266 ns/day, 1.184 hours/ns, 234.560 timesteps/s
131.5% CPU use with 2 MPI tasks x 2 OpenMP threads

MPI task timing breakdown:
Section |  min time  |  avg time  |  max time  |%varavg| %total
---------------------------------------------------------------
Pair    | 146.26     | 147.77     | 149.27     |  12.4 | 69.32
Neigh   | 2.7563     | 2.7744     | 2.7926     |   1.1 |  1.30
Comm    | 6.9793     | 8.5157     | 10.052     |  52.6 |  3.99
Output  | 0.0046471  | 0.0049228  | 0.0051985  |   0.4 |  0.00
Modify  | 53.789     | 53.832     | 53.875     |   0.6 | 25.25
Other   |            | 0.269      |            |       |  0.13

Nlocal:        1024.00 ave        1029 max        1019 min
Histogram: 1 0 0 0 0 0 0 0 0 1
Nghost:        3673.50 ave        3678 max        3669 min
Histogram: 1 0 0 0 0 0 0 0 0 1
Neighs:        71479.5 ave       72597 max       70362 min
Histogram: 1 0 0 0 0 0 0 0 0 1

Total # of neighbors = 142959
Ave neighs/atom = 69.804199
Neighbor list builds = 1029
Dangerous builds = 0

unfix temp
unfix out_file_1
unfix 1
# # clear
# write_data after_cooling_$T.in
# write_restart after_cooling_$T.lmp
next loopVar
# # thermo_modify flush yes
jump in.lmp ensemble

print """
Hi HI Hi
"""

Hi HI Hi

variable T equal 2500-${loopVar}*100
variable T equal 2500-2*100
# velocity all create $T 123123
reset_timestep 0
fix 1 all npt temp $T $T $(dt*100) iso 0 0 $(dt*1000)
fix 1 all npt temp 2300 $T $(dt*100) iso 0 0 $(dt*1000)
fix 1 all npt temp 2300 2300 $(dt*100) iso 0 0 $(dt*1000)
fix 1 all npt temp 2300 2300 0.10000000000000000555 iso 0 0 $(dt*1000)
fix 1 all npt temp 2300 2300 0.10000000000000000555 iso 0 0 1
print """
<--------------------------------------------------------------------->
<------------------ Equilibrating at temperature $T ----------------->
<--------------------------------------------------------------------->
"""

<--------------------------------------------------------------------->
<------------------ Equilibrating at temperature 2300 ----------------->
<--------------------------------------------------------------------->

run 150000
Last active /omp style is pair_style eam/alloy/omp
Per MPI rank memory allocation (min/avg/max) = 4.384 | 4.384 | 4.385 Mbytes
Step Temp Volume Press KinEng PotEng Density 
       0    2316.1663    26980.744    -1453.365    612.84721   -7888.1022    7.4282008 
    1000    2279.4532    26794.128   -3284.1319     603.1331   -7941.6329    7.4799368 
    2000    2284.7286    26651.105    5865.7905    604.52894   -7934.0941    7.5200779 
    3000    2386.0441    26717.166     3056.728    631.33657   -7931.1944    7.5014838 
    4000    2279.9418    26829.293   -3685.8639    603.26237   -7929.9809     7.470133 
    5000    2266.0131    26835.845   -1840.8693    599.57691   -7919.5039    7.4683091 
    6000    2350.2026    26698.539    2126.5611    621.85308   -7939.1119    7.5067173 
    7000     2333.336    26830.886    -3369.333    617.39025   -7926.9079    7.4696893 
    8000    2350.9303    26669.026    7243.8067    622.04561   -7926.4656    7.5150246 
    9000    2323.8658    26857.834   -1257.7222    614.88447   -7911.0622    7.4621947 
   10000    2263.9375    26913.087   -1524.7463    599.02772   -7900.4353    7.4468746 
   11000    2276.7203    26918.206   -3729.1186    602.40998   -7907.0109    7.4454584 
   12000     2293.205    26641.062    3220.7173    606.77177   -7953.1709    7.5229129 
   13000    2339.0096    26621.747    8694.4196    618.89146   -7928.5837    7.5283709 
   14000    2308.4113    26834.824   -1776.4175    610.79528    -7918.971    7.4685934 
   15000    2269.9931    26921.975   -9965.2703    600.62999   -7936.4294    7.4444161 
   16000    2350.8801     26891.06   -1356.0873    622.03233   -7906.2148    7.4529747 
   17000    2349.3232    26679.717    1112.4456    621.62039   -7951.5341    7.5120133 
   18000    2317.6269    26754.355   -1660.5528    613.23368   -7944.7825    7.4910567 
   19000    2270.2098    26785.334    1481.7178    600.68734   -7923.0254    7.4823926 
   20000    2268.5662    26553.785     3748.499    600.25243   -7963.6476     7.547639 
   21000    2283.9714    26717.084    3308.7473    604.32858   -7927.9686    7.5015068 
   22000    2349.0973      26874.5   -3076.8559     621.5606   -7917.9013    7.4575671 
   23000    2262.0583    27016.072   -9902.2706    598.53048   -7913.2251    7.4184872 
   24000    2242.4997    26762.102    -163.3346    593.35538   -7928.8301     7.488888 
   25000    2305.7497    26796.394    4482.0312    610.09102   -7907.0823    7.4793044 
   26000    2272.1523    26588.463    7824.6278    601.20131   -7940.4436    7.5377951 
   27000    2309.1716    26771.305   -149.59046    610.99646   -7932.2282    7.4863136 
   28000    2229.8267    26829.014   -6789.1368    590.00216   -7941.4569    7.4702107 
   29000    2312.8017    26801.958    2861.2763    611.95697   -7905.0706    7.4777517 
   30000    2312.7349    26930.751   -5600.7714     611.9393   -7913.5347    7.4419902 
   31000    2301.2899    26776.734   -100.10419    608.91098   -7928.8266    7.4847957 
   32000    2267.5586    26724.014    2775.7438    599.98585   -7932.4775    7.4995614 
   33000    2232.9301    26751.497    -1676.424    590.82328   -7941.7788    7.4918569 
   34000    2350.3316    26879.914   -1089.4856    621.88722    -7913.029    7.4560651 
   35000     2305.284    26840.822     -3716.96    609.96781   -7930.8975    7.4669244 
   36000      2284.82    26820.178   -2107.2551    604.55313   -7933.2201    7.4726718 
   37000    2311.6198    26697.595    6555.5002    611.64424   -7921.6334    7.5069827 
   38000    2402.6075    26720.406   -2442.1868    635.71918   -7962.8987    7.5005741 
   39000    2301.1076    26749.411    1178.7414    608.86276   -7930.8897    7.4924411 
   40000    2226.7277    26828.094   -4536.0908    589.18216   -7928.3983    7.4704668 
   41000    2348.0576    26850.691    1525.4398     621.2855   -7908.8039    7.4641798 
   42000    2288.9927    26875.732    225.53182    605.65721   -7902.6228    7.4572253 
   43000    2288.2217    26668.428    4263.0171    605.45322   -7934.8145    7.5151931 
   44000    2352.8086     26736.29     -1686.68    622.54261   -7941.9853    7.4961182 
   45000    2278.3692    26515.979     8843.233    602.84627    -7953.248    7.5584003 
   46000    2276.7499    26919.139   -3970.8983    602.41781   -7908.9389    7.4452006 
   47000    2297.4306    26791.852   -2223.0658    607.88984   -7935.3274    7.4805722 
   48000    2325.4756    26751.387   -668.10468    615.31043   -7940.5742    7.4918877 
   49000    2308.9993     26769.34   -804.49867    610.95086    -7936.126    7.4868631 
   50000    2319.9618     26638.64    5845.5224    613.85149   -7938.5572    7.5235968 
   51000    2279.1499    26685.869    594.49472    603.05285   -7947.9927    7.5102814 
   52000    2272.1607    26982.726   -8458.3837    601.20353   -7915.7879    7.4276552 
   53000    2312.6765    26716.368    1418.5856    611.92385   -7938.3698    7.5017078 
   54000    2282.8224    26651.854    5904.3229    604.02457   -7929.7992    7.5198665 
   55000    2352.2572     26725.93    3311.3961     622.3967   -7927.9413    7.4990239 
   56000     2274.442    26698.235    825.86393    601.80715   -7945.0294    7.5068029 
   57000    2321.7678    26867.535   -7127.7356    614.32936   -7935.3198    7.4595003 
   58000    2243.7168    26691.695    3633.1866    593.67741    -7927.913    7.5086422 
   59000    2265.3728    26828.756   -1305.6086    599.40747   -7920.9197    7.4702826 
   60000    2289.1952    26643.538    4129.0904    605.71078   -7942.6281    7.5222138 
   61000    2236.0185    26789.599   -796.73086    591.64047   -7927.5876    7.4812015 
   62000     2245.489     26677.95    2905.7365    594.14633   -7941.8727    7.5125106 
   63000    2340.1203    26849.221    2512.4415    619.18533   -7905.3972    7.4645886 
   64000    2360.6675    26644.074    -531.1542    624.62204   -7968.1056    7.5220622 
   65000     2277.677    26718.859    1863.4613    602.66312   -7937.0452    7.5010085 
   66000    2260.1781    26918.735   -10507.151      598.033    -7940.146    7.4453121 
   67000    2375.8231    26767.953   -4297.1516    628.63215   -7956.5079    7.4872511 
   68000    2320.7931    26794.206   -1500.8586    614.07144   -7932.0834    7.4799151 
   69000    2210.6998    26930.416   -8674.2515    584.94126   -7927.0169    7.4420829 
   70000    2332.2776    26745.591    1805.3368    617.11019    -7936.015    7.4935113 
   71000    2312.7599    26721.555    1647.2923    611.94589   -7933.0296    7.5002517 
   72000    2271.2227    26877.833   -7421.1683    600.95535   -7941.2761    7.4566422 
   73000    2285.7139    26767.268   -2455.9741    604.78966   -7942.4011    7.4874426 
   74000    2324.8086    26850.486   -5114.9597    615.13392   -7932.6056    7.4642369 
   75000    2287.2767    26857.759   -2659.2141    605.20315   -7922.5557    7.4622156 
   76000    2258.5079    26786.623   -2939.3512    597.59106   -7942.8933    7.4820327 
   77000    2268.7535    26748.884   -1117.9674      600.302   -7936.8911    7.4925887 
   78000    2321.2122    26729.961    4269.7895    614.18235   -7917.6173    7.4978929 
   79000    2298.6101    26828.213    1741.0442    608.20193   -7908.7299    7.4704337 
   80000    2240.5837    26801.012   -1910.6344    592.84841   -7933.8361    7.4780156 
   81000    2232.8772    26786.444   -4313.7813    590.80929   -7940.2236    7.4820827 
   82000    2286.2907    26879.947   -6272.6287    604.94226    -7930.299     7.456056 
   83000    2312.8448    26799.521    802.54327    611.96836   -7926.2613    7.4784317 
   84000    2408.8668    26816.503    70.248106    637.37537   -7922.6069    7.4736957 
   85000    2192.9458    26917.608   -4646.8939    580.24362   -7908.6328    7.4456239 
   86000    2259.8418    26827.881   -1379.7832    597.94402   -7927.1849    7.4705263 
   87000    2318.3455    26772.367   -46.570821    613.42383   -7927.4823    7.4860168 
   88000    2213.2048    26735.491    5953.9376    585.60408   -7918.6836    7.4963422 
   89000    2294.6347    26946.452   -9344.1409    607.15005   -7927.1251    7.4376539 
   90000    2227.9797    26778.721    143.81023    589.51343   -7917.1489    7.4842405 
   91000    2364.7129    26740.113    2386.6287    625.69244   -7924.0534    7.4950462 
   92000    2343.5287    26807.597   -2417.1479    620.08719   -7936.7834    7.4761788 
   93000    2305.5175    26716.282     866.0426     610.0296    -7938.631     7.501732 
   94000     2280.755    26633.984    4515.6081    603.47754   -7945.7926    7.5249121 
   95000    2335.0803    26822.873   -3222.9133    617.85177   -7939.4639    7.4719209 
   96000    2331.7019    26740.655   -3284.0972    616.95787   -7952.2495    7.4948944 
   97000    2284.0492    26942.605   -4248.0596    604.34917   -7909.4002    7.4387161 
   98000    2348.2078    26793.703    427.07111    621.32526    -7932.353    7.4800555 
   99000    2305.2759    26659.082    5812.0567    609.96567   -7929.5976    7.5178278 
  100000    2357.1009    26746.537    4409.0733    623.67833   -7918.3944    7.4932463 
  101000     2343.393    26723.881    568.63355    620.05127   -7938.3422    7.4995987 
  102000     2299.825    26847.888   -3057.4966     608.5234   -7922.6304    7.4649592 
  103000    2349.0756    26925.904   -5705.1793    621.55487   -7919.7389    7.4433299 
  104000    2363.7655    26941.904   -6011.4565    625.44176   -7918.0964    7.4389096 
  105000    2330.6874    26861.683   -5782.2201    616.68943   -7937.7637    7.4611254 
  106000    2302.4496    26709.983    399.52521    609.21784   -7944.6702    7.5035011 
  107000    2301.1183    26797.781   -2201.5627    608.86559   -7934.4471    7.4789174 
  108000    2295.4228    26902.076   -7131.9787    607.35858   -7929.2215    7.4499228 
  109000    2227.7366    26733.938    2704.9304    589.44911   -7928.6297    7.4967775 
  110000    2328.9942    26848.719   -4078.0532    616.24142   -7930.4523     7.464728 
  111000    2264.6091    26605.984    19.089716    599.20542    -7967.184    7.5328312 
  112000    2300.7346    26704.042     2590.388    608.76406   -7936.3291    7.5051704 
  113000    2312.8749    26767.006   -8282.6298    611.97632   -7972.1018    7.4875159 
  114000    2347.4119    26659.017    1338.3839    621.11467   -7949.9767    7.5178462 
  115000    2290.2432    26786.542    3595.1512    605.98809   -7912.3341    7.4820552 
  116000    2346.4435    26726.945    2013.3126    620.85844   -7933.9842    7.4987389 
  117000     2332.655    26902.884   -6742.6146    617.21004   -7929.7376    7.4496989 
  118000    2267.6797     26744.72   -609.43363    600.01789   -7937.4202    7.4937554 
  119000    2376.5145    26756.659    3120.1191    628.81507   -7924.1529    7.4904115 
  120000    2343.3819    26724.837    4399.7769    620.04835   -7932.5484    7.4993305 
  121000    2324.7221    26792.254   -4929.0397    615.11106   -7947.4494    7.4804599 
  122000    2310.3204    26847.099   -6174.4589    611.30043   -7938.0848    7.4651785 
  123000    2248.5268    26734.105    1412.5131    594.95011   -7927.5697    7.4967306 
  124000    2286.4208    26835.473    -3877.629    604.97669   -7930.3299    7.4684127 
  125000    2342.1357    26765.556    3182.3419     619.7186   -7922.7309    7.4879216 
  126000    2304.2189    26654.706    6.3797806    609.68598    -7960.157    7.5190619 
  127000     2277.981    26667.596    4854.3033    602.74356   -7931.9585    7.5154277 
  128000     2361.626    26795.441   -97.178368    624.87564   -7932.3223    7.4795705 
  129000    2323.5868    26755.159    383.09858    614.81065   -7928.3396    7.4908315 
  130000    2269.1993        26655    2568.6422    600.41997   -7947.9955    7.5189792 
  131000    2222.1337    26799.993   -462.72922    587.96662   -7921.6209       7.4783 
  132000     2376.847    26796.879   -392.14513    628.90305   -7929.7674    7.4791689 
  133000     2325.028     26587.18    6188.2494    615.19198   -7948.7147     7.538159 
  134000    2250.3786    26824.223   -4507.3306    595.44009   -7932.7812    7.4715449 
  135000    2210.8487    26840.762   -6282.6235    584.98067   -7937.3778    7.4669411 
  136000    2294.5593    26712.976    2682.2915    607.13012   -7935.5575    7.5026605 
  137000     2256.517    26806.555     3567.387    597.06429   -7902.6523    7.4764694 
  138000     2338.843    26684.048     460.1878    618.84738   -7954.8858     7.510794 
  139000    2267.4452    26767.424   -926.05329    599.95583   -7929.7539    7.4873991 
  140000    2187.0954    26807.641   -2863.1927    578.69564   -7934.3194    7.4761665 
  141000    2297.0424    26738.259    821.20126    607.78711   -7941.2246    7.4955661 
  142000    2381.4116    26719.489    3082.6351    630.11083   -7933.8671    7.5008316 
  143000    2290.0753     26712.35    2274.3038    605.94367   -7936.2411    7.5028362 
  144000    2297.2947     26801.39    385.69389    607.85388   -7926.5048    7.4779103 
  145000    2308.8938    26710.633    2694.4344    610.92296   -7938.0491    7.5033186 
  146000    2351.9792    26846.946   -5620.0291    622.32315    -7935.204    7.4652212 
  147000     2242.391    26749.487    1652.7334    593.32659   -7924.8865    7.4924198 
  148000    2269.7747    26970.377   -7094.2265    600.57221   -7912.7574    7.4310561 
  149000    2235.0618    26748.547    2522.1756    591.38732   -7919.4127    7.4926832 
  150000    2284.8594    26546.434    10724.129    604.56357   -7934.4538    7.5497292 
Loop time of 607.424 on 4 procs for 150000 steps with 2048 atoms

Performance: 21.336 ns/day, 1.125 hours/ns, 246.945 timesteps/s
138.1% CPU use with 2 MPI tasks x 2 OpenMP threads

MPI task timing breakdown:
Section |  min time  |  avg time  |  max time  |%varavg| %total
---------------------------------------------------------------
Pair    | 422.06     | 427.01     | 431.97     |  24.0 | 70.30
Neigh   | 7.8929     | 7.9465     | 8.0001     |   1.9 |  1.31
Comm    | 15.477     | 20.418     | 25.359     | 109.4 |  3.36
Output  | 0.0069787  | 0.0074311  | 0.0078834  |   0.5 |  0.00
Modify  | 151.21     | 151.28     | 151.36     |   0.6 | 24.91
Other   |            | 0.757      |            |       |  0.12

Nlocal:        1024.00 ave        1026 max        1022 min
Histogram: 1 0 0 0 0 0 0 0 0 1
Nghost:        3676.50 ave        3688 max        3665 min
Histogram: 1 0 0 0 0 0 0 0 0 1
Neighs:        72316.5 ave       73893 max       70740 min
Histogram: 1 0 0 0 0 0 0 0 0 1

Total # of neighbors = 144633
Ave neighs/atom = 70.621582
Neighbor list builds = 3046
Dangerous builds = 0

fix temp all print 100 "$(step) $(temp) $(press) ${sys_press} $(vol) $(ke) $(pe) $(density)" file temp_cold.txt screen no title  "step temp press pressGiga vol ke pe density"
# fix 132 all momentum 100 linear 1 1 1 angular
fix out_file_1 all print 1000 "$(step) $(temp) $(press) ${sys_press} $(vol) $(ke) $(pe) $(density)" file one_phase_cooling_$T_.txt screen no title  "step temp press pressGiga vol ke pe density"
fix out_file_1 all print 1000 "$(step) $(temp) $(press) ${sys_press} $(vol) $(ke) $(pe) $(density)" file one_phase_cooling_2300_.txt screen no title  "step temp press pressGiga vol ke pe density"

# dump 3 all custom 1000 traj_npt_new.lammpstrj id type x y z
run 50000
Last active /omp style is pair_style eam/alloy/omp
Per MPI rank memory allocation (min/avg/max) = 4.385 | 4.385 | 4.385 Mbytes
Step Temp Volume Press KinEng PotEng Density 
  150000    2284.8594    26546.434    10724.129    604.56357   -7934.4538    7.5497292 
  151000    2308.1457    26772.978    3055.2957    610.72501   -7919.2082     7.485846 
  152000    2263.4129    26971.611   -2570.7172    598.88892   -7893.9086    7.4307162 
  153000    2273.5813    26805.862   -969.52639    601.57941    -7925.263    7.4766626 
  154000    2311.6864    26845.421   -4333.5405    611.66185   -7941.7642     7.465645 
  155000    2346.6958    26751.405    1453.8648    620.92519   -7923.7222    7.4918826 
  156000    2330.6774    26794.825    672.87941     616.6868   -7918.8281    7.4797422 
  157000    2241.4101    26685.741    608.70669    593.06706   -7949.3964    7.5103174 
  158000     2310.204    26914.364   -4027.0392    611.26962   -7907.3539    7.4465214 
  159000    2347.5126    26749.895   -1611.7395     621.1413   -7941.7415    7.4923055 
  160000    2323.7313     26804.12   -69.067288    614.84888   -7925.4122    7.4771486 
  161000    2333.0084    26767.536    140.08481    617.30356    -7926.081    7.4873677 
  162000    2304.3549    26810.706    -4437.546    609.72198   -7933.9964    7.4753116 
  163000      2212.15    26779.387   -1393.2363    585.32497   -7931.0003    7.4840544 
  164000    2268.4295     26634.78    4759.2226    600.21628    -7939.425    7.5246872 
  165000    2320.9071     26853.71   -2234.1712    614.10161   -7910.8482    7.4633407 
  166000    2280.3277    26733.185   -658.81177    603.36448   -7943.1285    7.4969886 
  167000    2284.6319     26817.62    -2814.059    604.50335   -7931.5822    7.4733845 
  168000    2253.7358    26816.768    2253.0317    596.32838   -7910.1425    7.4736221 
  169000    2311.8106    26465.899    11443.705    611.69472   -7959.6253    7.5727028 
  170000    2305.1924    26804.141    262.03971    609.94359   -7919.9976    7.4771427 
  171000    2300.9683    26596.206    4462.7806    608.82589   -7949.2336    7.5356008 
  172000    2352.0748     26825.82   -2886.0134    622.34844   -7937.2338    7.4711002 
  173000    2297.8705    26850.913   -3485.6968    608.00622   -7922.8702     7.464118 
  174000    2369.0943    26712.998     4278.376    626.85172   -7928.2118    7.5026542 
  175000    2280.3859    26871.736   -6161.7768    603.37989   -7937.1191    7.4583343 
  176000    2276.1597    26869.549   -3880.1946    602.26165   -7921.4243    7.4589412 
  177000    2292.5285    26801.374    4577.6533    606.59278   -7903.3327    7.4779147 
  178000    2323.7701    26538.592     13424.34    614.85916   -7928.4928      7.55196 
  179000    2270.3427    26756.272    1469.4176     600.7225   -7925.0369    7.4905198 
  180000    2326.1377     26833.44   -6365.4584     615.4856   -7938.5074    7.4689786 
  181000    2269.5533    26779.573   -1590.8491    600.51363   -7934.9597    7.4840024 
  182000    2266.2355    26763.907    274.25436    599.63574   -7931.5325     7.488383 
  183000    2328.8648    26828.035   -3329.9915    616.20719   -7926.6853    7.4704832 
  184000    2298.2635    26705.654    237.61346    608.11022   -7945.3057    7.5047173 
  185000     2283.777     26913.73   -6643.2772    604.27714   -7918.2512    7.4466969 
  186000    2300.7678    26677.211    3585.3592    608.77284   -7935.3758    7.5127188 
  187000    2340.6537    26630.932    4901.0615    619.32647   -7948.2448    7.5257745 
  188000    2249.7697     26858.47   -5534.1363    595.27899   -7925.8354    7.4620181 
  189000    2287.1918     26914.23   -6381.5347     605.1807   -7928.5972    7.4465584 
  190000    2266.4227     26763.87    2872.1074     599.6853   -7916.8333    7.4883933 
  191000    2322.3664     26613.62    9995.7255    614.48774   -7925.6163    7.5306699 
  192000    2334.1523    26719.943    3170.5923    617.60624    -7934.788     7.500704 
  193000    2302.6927    26786.679   -119.19782    609.28217   -7925.9921     7.482017 
  194000    2339.0104    26621.997    2252.2674    618.89168   -7955.5851    7.5283003 
  195000     2316.596    26662.714    9573.1771    612.96092   -7912.1057    7.5168036 
  196000    2309.4676    26765.954    1486.0702    611.07477   -7925.5522    7.4878103 
  197000    2300.4309    26830.927   -3851.1155    608.68371   -7936.4058    7.4696781 
  198000    2273.3313    26717.329    4632.6018    601.51326   -7921.8325    7.5014379 
  199000    2347.7645    26670.613    5326.5821    621.20795   -7932.9959    7.5145774 
  200000    2307.7665    26716.634    5916.1279    610.62467   -7915.1622    7.5016332 
Loop time of 202.728 on 4 procs for 50000 steps with 2048 atoms

Performance: 21.309 ns/day, 1.126 hours/ns, 246.636 timesteps/s
138.2% CPU use with 2 MPI tasks x 2 OpenMP threads

MPI task timing breakdown:
Section |  min time  |  avg time  |  max time  |%varavg| %total
---------------------------------------------------------------
Pair    | 140.98     | 142.54     | 144.1      |  13.1 | 70.31
Neigh   | 2.6381     | 2.6666     | 2.6951     |   1.7 |  1.32
Comm    | 5.1403     | 6.6975     | 8.2547     |  60.2 |  3.30
Output  | 0.0016935  | 0.0021368  | 0.00258    |   1.0 |  0.00
Modify  | 50.534     | 50.573     | 50.612     |   0.6 | 24.95
Other   |            | 0.2491     |            |       |  0.12

Nlocal:        1024.00 ave        1030 max        1018 min
Histogram: 1 0 0 0 0 0 0 0 0 1
Nghost:        3680.50 ave        3685 max        3676 min
Histogram: 1 0 0 0 0 0 0 0 0 1
Neighs:        72100.0 ave       73313 max       70887 min
Histogram: 1 0 0 0 0 0 0 0 0 1

Total # of neighbors = 144200
Ave neighs/atom = 70.410156
Neighbor list builds = 1015
Dangerous builds = 0

unfix temp
unfix out_file_1
unfix 1
# # clear
# write_data after_cooling_$T.in
# write_restart after_cooling_$T.lmp
next loopVar
# # thermo_modify flush yes
jump in.lmp ensemble

print """
Hi HI Hi
"""

Hi HI Hi

variable T equal 2500-${loopVar}*100
variable T equal 2500-3*100
# velocity all create $T 123123
reset_timestep 0
fix 1 all npt temp $T $T $(dt*100) iso 0 0 $(dt*1000)
fix 1 all npt temp 2200 $T $(dt*100) iso 0 0 $(dt*1000)
fix 1 all npt temp 2200 2200 $(dt*100) iso 0 0 $(dt*1000)
fix 1 all npt temp 2200 2200 0.10000000000000000555 iso 0 0 $(dt*1000)
fix 1 all npt temp 2200 2200 0.10000000000000000555 iso 0 0 1
print """
<--------------------------------------------------------------------->
<------------------ Equilibrating at temperature $T ----------------->
<--------------------------------------------------------------------->
"""

<--------------------------------------------------------------------->
<------------------ Equilibrating at temperature 2200 ----------------->
<--------------------------------------------------------------------->

run 150000
Last active /omp style is pair_style eam/alloy/omp
Per MPI rank memory allocation (min/avg/max) = 4.385 | 4.385 | 4.385 Mbytes
Step Temp Volume Press KinEng PotEng Density 
       0    2307.7665    26716.634    5916.1279    610.62467   -7915.1622    7.5016332 
    1000    2148.5352    26666.723    565.83348    568.49279   -7946.7758    7.5156737 
    2000    2167.2281    26775.874   -5168.1201    573.43884   -7951.0781    7.4850361 
    3000    2187.9452    26603.511   -4062.7814    578.92048   -7987.3452    7.5335315 
    4000    2238.1929    26579.488    20.220378     592.2158   -7976.7527    7.5403404 
    5000    2253.3778    26572.707    3192.2697    596.23366   -7965.6785    7.5422646 
    6000    2182.3617    26746.218    -6964.769    577.44311   -7967.7704    7.4933354 
    7000    2213.4862    26654.593   -2075.9995    585.67852   -7963.6012    7.5190939 
    8000    2217.5884    26446.387    936.81532    586.76396   -8005.3084    7.5782897 
    9000    2222.8333    26636.835   -2976.4918    588.15171   -7979.3152    7.5241068 
   10000    2183.5086    26489.153    4616.2772    577.74659   -7973.5318     7.566055 
   11000     2177.544    26505.625   -660.46813    576.16839   -7992.9154    7.5613529 
   12000    2248.5988    26572.974    3420.7773    594.96916   -7964.1493    7.5421889 
   13000    2194.7664    26635.712   -1847.5526    580.72535   -7970.8457    7.5244239 
   14000    2191.4077    26605.554   -5379.6284    579.83665   -7989.6422    7.5329529 
   15000    2265.8976    26524.993    5686.7113    599.54634   -7960.5604    7.5558318 
   16000    2171.5853    26706.632    -4629.685    574.59173   -7962.0905    7.5044425 
   17000    2154.2667    26643.913   -3157.6151    570.00932   -7971.5951    7.5221079 
   18000    2207.9407    26616.778    262.26287    584.21121   -7965.3747    7.5297765 
   19000    2203.6865    26616.327    909.45133    583.08557    -7964.506    7.5299041 
   20000    2133.0531    26388.128    6333.5121    564.39629    -7991.049     7.595021 
   21000    2229.0263    26423.451    9164.4649    589.79036   -7971.8633    7.5848681 
   22000    2220.8092    26610.092   -290.67174    587.61615   -7973.9698    7.5316682 
   23000    2205.4194    26581.693   -2202.0363    583.54409   -7983.3868    7.5397148 
   24000    2156.8877    26580.931     546.5838    570.70282   -7972.1181    7.5399311 
   25000    2131.5972    26616.249    947.21169    564.01107   -7954.9472    7.5299261 
   26000    2201.0164    26637.691   -1800.7342    582.37908   -7966.1971    7.5238647 
   27000     2222.768    26694.092   -5163.4033    588.13444   -7973.5331     7.507968 
   28000    2255.8484    26531.522    2684.6693    596.88736   -7976.9205    7.5539723 
   29000    2154.0461    26503.903   -619.60209    569.95094   -7993.6073    7.5618441 
   30000    2220.4387    26602.201   -3822.2545    587.51813   -7981.3096    7.5339025 
   31000    2167.5951    26592.229   -924.13268    573.53596   -7974.3155    7.5367277 
   32000    2143.9692    26605.557   -2635.3274    567.28465   -7974.2962    7.5329522 
   33000    2245.6739    26533.019     3851.016    594.19525   -7965.9279    7.5535462 
   34000    2228.5908    26443.231    6162.9541    589.67513   -7986.9082    7.5791944 
   35000    2195.1977    26504.155    43.381124    580.83947   -7995.5504    7.5617723 
   36000    2280.6564    26696.583   -6206.8717    603.45146   -7980.6414    7.5072675 
   37000    2217.3818    26558.659    2848.9264    586.70929   -7965.5458    7.5462539 
   38000    2209.1215    26539.484    2001.4008    584.52364   -7976.0324    7.5517062 
   39000    2211.7682    26517.519    2298.3145    585.22394   -7978.4824    7.5579614 
   40000    2221.9174    26724.528   -4841.5583    587.90939   -7955.2375    7.4994172 
   41000    2160.7145    26601.813    2406.4999    571.71537    -7955.601    7.5340122 
   42000    2242.9429    26470.409    8312.5126    593.47264   -7969.0956    7.5714125 
   43000    2110.4505    26625.484   -2795.0505    558.41574    -7965.384    7.5273142 
   44000    2251.2516    26849.168   -9849.8094    595.67108   -7951.8774    7.4646032 
   45000    2202.3273     26556.39   -1669.9705    582.72594   -7988.2371    7.5468988 
   46000    2201.8522    26747.462   -6664.7231    582.60022   -7960.9045    7.4929871 
   47000    2287.2192    26500.629    3214.4062    605.18794   -7983.0567    7.5627785 
   48000    2187.4449     26626.13    469.57444    578.78812   -7958.7821    7.5271317 
   49000    2168.6798    26476.782    2596.0665    573.82296   -7988.3924    7.5695901 
   50000    2206.3586    26623.515    -2854.824     583.7926   -7971.7943     7.527871 
   51000    2217.7355    26587.304    67.941993    586.80286   -7972.6253    7.5381236 
   52000    2187.8171    26711.964   -4017.4291    578.88659   -7959.6458    7.5029446 
   53000    2222.7175    26537.038     5228.996     588.1211   -7965.2599    7.5524023 
   54000    2239.6081     26596.46    3272.9412    592.59026   -7957.8226    7.5355287 
   55000    2151.1947    26626.691   -6340.0129    569.19647   -7982.7024    7.5269732 
   56000     2233.599    26535.526    1236.1658    591.00028   -7982.6714    7.5528326 
   57000    2178.7056    26506.554    433.84508    576.47574   -7989.7048     7.561088 
   58000    2217.9057    26707.211   -7608.0509    586.84792   -7973.6455      7.50428 
   59000    2243.4779    26474.445    2008.0194     593.6142   -7995.3709    7.5702582 
   60000    2207.1155    26606.768   -229.10686    583.99287   -7965.2375    7.5326094 
   61000    2170.3252    26603.841   -467.16282    574.25831   -7966.6528    7.5334379 
   62000    2213.0305     26632.66   -3451.8853    585.55796   -7976.9861    7.5252862 
   63000    2198.6635     26722.55   -3978.2242     581.7565   -7956.0947    7.4999725 
   64000    2169.1272    26510.926    397.43775    573.94133   -7983.6177    7.5598409 
   65000    2250.8677    26568.732    3116.2262    595.56951    -7966.757    7.5433929 
   66000    2190.0818    26649.463   -2222.1131    579.48582   -7964.4303    7.5205413 
   67000    2216.1093    26510.057    5742.2093    586.37257   -7967.7792    7.5600887 
   68000    2157.4597    26723.599   -4412.9575    570.85416   -7956.8468    7.4996779 
   69000    2195.9885     26499.13    2482.3267     581.0487   -7980.6437    7.5632064 
   70000    2236.6563    26584.749    399.12893    591.80922   -7970.4479    7.5388482 
   71000    2181.3315    26604.512   -692.04942    577.17053   -7966.3004    7.5332479 
   72000     2131.052    26431.808    4217.5185     563.8668   -7990.1855    7.5824698 
   73000     2268.268    26666.297   -1572.2234    600.17354   -7964.8466    7.5157938 
   74000    2165.0769    26512.557    6426.1182    572.86964   -7959.6614    7.5593759 
   75000    2225.2437    26677.452   -6.8496706    588.78951   -7949.3837    7.5126509 
   76000    2098.2583    26653.887    -4343.821    555.18975   -7969.3895     7.519293 
   77000    2254.7632    26603.967   -2375.1246    596.60025   -7979.8135    7.5334022 
   78000    2172.9486     26518.93    5675.6367    574.95245   -7963.4768    7.5575593 
   79000    2214.4589    26608.508   -2920.3662     585.9359   -7980.6882    7.5321166 
   80000    2231.1236    26596.504    2119.2844     590.3453   -7959.0207    7.5355163 
   81000    2167.1777    26623.388   -1717.7054     573.4255   -7974.2521    7.5279069 
   82000    2171.1228    26810.714   -6616.8786    574.46937   -7942.8239    7.4753095 
   83000    2155.5168      26633.4   -4431.6775    570.34008   -7975.0451    7.5250771 
   84000     2209.906    26500.718    2451.1776    584.73121   -7983.6744    7.5627531 
   85000    2193.6972    26595.291    5246.4458    580.44245   -7948.9954    7.5358599 
   86000    2202.8993    26539.818     1885.377    582.87729   -7972.1553    7.5516112 
   87000    2229.1811    26574.924    2164.8268    589.83134   -7969.2198    7.5416354 
   88000    2170.6539    26720.279    -3537.464     574.3453   -7962.3101    7.5006097 
   89000    2146.2305     26613.17   -2816.6084    567.88296   -7985.2228    7.5307971 
   90000    2207.1749    26541.818   -1926.7287    584.00858   -7992.6615     7.551042 
   91000     2183.504    26465.995    6061.8966    577.74537   -7973.5808    7.5726753 
   92000    2175.7971    26657.699   -2276.5109    575.70615   -7956.2837    7.5182177 
   93000    2230.4675    26512.066    1303.0656     590.1717   -7983.5449    7.5595159 
   94000     2233.012    26601.958    4537.1509    590.84497   -7953.2678    7.5339712 
   95000    2159.5251    26601.292   -1616.9503    571.40066   -7971.3805    7.5341599 
   96000    2207.6131    26690.821   -7559.4656    584.12452   -7978.7659    7.5088881 
   97000    2195.5003     26497.96   -90.749266    580.91953   -7997.7165    7.5635403 
   98000    2251.8428    26511.109    2602.3822    595.82751    -7983.536    7.5597889 
   99000    2250.8654    26557.121   -831.88266    595.56889   -7987.8985    7.5466909 
  100000    2266.0874    26522.097    2031.6378    599.59656   -7980.4832     7.556657 
  101000    2223.7063    26573.074   -2320.3681    588.38272   -7984.5234    7.5421605 
  102000    2210.0277    26712.998   -3023.9089    584.76343   -7956.2222    7.5026543 
  103000    2152.2589    26770.935   -9890.4175    569.47807   -7968.6767    7.4864171 
  104000    2219.7763    26658.815   -2741.6019    587.34285   -7968.8066     7.517903 
  105000    2167.7087    26479.191    1240.6249    573.56601   -7984.4078    7.5689015 
  106000    2235.2077    26634.635    731.74666    591.42595   -7963.2753    7.5247282 
  107000    2147.5365    26436.572    5858.9568    568.22854   -7984.5329    7.5811034 
  108000    2187.4297    26521.654    3896.0598    578.78409   -7971.2063    7.5567831 
  109000    2184.3066     26640.69   -3990.3764    577.95772    -7977.328    7.5230178 
  110000    2163.5114    26615.253    1151.2316    572.45542   -7965.4847    7.5302079 
  111000    2240.0302    26677.872   -2575.6436    592.70196   -7963.7157    7.5125328 
  112000    2194.3418    26562.544    5209.6036      580.613   -7954.9077    7.5451504 
  113000    2153.0662    26644.983    901.16945    569.69166   -7954.0691    7.5218058 
  114000    2167.9253    26684.037   -4815.8506    573.62331   -7967.2844     7.510797 
  115000    2230.6391    26445.238     6242.015    590.21711   -7983.7818    7.5786192 
  116000    2197.6829    26733.358    1156.0092    581.49705    -7932.684    7.4969401 
  117000    2173.0938     26664.11   -803.39195    574.99088   -7957.5621    7.5164101 
  118000    2163.8443    26588.548    2377.0453     572.5435   -7956.2212    7.5377711 
  119000     2235.853    26518.651    1968.9673    591.59669    -7976.536    7.5576389 
  120000    2172.7365    26464.631   -1040.7078    574.89634   -8009.4557    7.5730657 
  121000    2210.0419    26608.013    1971.4925    584.76718   -7966.4851    7.5322567 
  122000    2155.3481    26639.713   -559.86529    570.29543   -7966.6679    7.5232936 
  123000    2178.6811    26615.017   -880.82352    576.46925   -7968.7487    7.5302746 
  124000    2252.7544    26539.643    3639.9853     596.0687   -7970.0138     7.551661 
  125000    2224.0412    26635.076     1284.683    588.47133   -7954.9086    7.5246035 
  126000    2134.8109    26529.514    6009.7181    564.86139    -7958.014    7.5545443 
  127000    2180.4863    26678.997    1267.5076    576.94691   -7944.0296    7.5122158 
  128000    2238.7388    26565.188    910.09991    592.36025   -7977.5871    7.5443993 
  129000    2188.5647    26659.644   -8579.5828    579.08441    -7989.319    7.5176692 
  130000    2258.5621    26649.349   -6040.9108     597.6054    -7981.756    7.5205734 
  131000    2187.3213    26485.306    3613.5965     578.7554   -7978.1241     7.567154 
  132000    2197.9099    26636.217   -2055.4465     581.5571   -7971.1155    7.5242813 
  133000    2186.8694    26464.242       3361.4    578.63584   -7985.8396    7.5731768 
  134000    2160.9682    26583.415     2601.234     571.7825   -7970.1764    7.5392266 
  135000    2147.6793    26717.775   -8263.4767    568.26632   -7976.8621    7.5013127 
  136000    2162.3686    26604.401   -2033.7945    572.15302   -7972.7008    7.5332794 
  137000    2189.1603    26517.994    2166.5997    579.24199   -7977.1046    7.5578262 
  138000     2141.447    26539.362    110.75978    566.61728   -7976.4892     7.551741 
  139000    2139.8805    26610.289    2692.2012    566.20279   -7956.4995    7.5316126 
  140000    2215.2907    26545.053    811.14801    586.15599   -7986.3392    7.5501219 
  141000    2184.9501     26487.81    2530.6641    578.12801   -7987.7659    7.5664386 
  142000    2152.7914    26554.924    2289.3005    569.61896   -7970.7805    7.5473154 
  143000    2154.7064    26356.168    4890.2052    570.12566   -8005.3054    7.6042309 
  144000    2228.9118    26464.361    1272.9282    589.76007   -7995.7043    7.5731429 
  145000    2135.8628    26600.321   -5100.2511    565.13972   -7988.2102    7.5344347 
  146000    2252.7554    26447.008    4023.5654    596.06897    -7989.466     7.578112 
  147000    2254.2585    26522.025    2497.0454     596.4667   -7982.4831    7.5566773 
  148000    2248.9594    26790.209   -10333.555    595.06457   -7967.1195    7.4810311 
  149000    2255.9973    26712.684   -2498.7943    596.92677   -7959.1171    7.5027425 
  150000     2218.809    26612.705    30.523942    587.08692   -7968.7967    7.5309288 
Loop time of 607.688 on 4 procs for 150000 steps with 2048 atoms

Performance: 21.327 ns/day, 1.125 hours/ns, 246.837 timesteps/s
137.4% CPU use with 2 MPI tasks x 2 OpenMP threads

MPI task timing breakdown:
Section |  min time  |  avg time  |  max time  |%varavg| %total
---------------------------------------------------------------
Pair    | 423.07     | 427.83     | 432.59     |  23.0 | 70.40
Neigh   | 7.7036     | 7.7667     | 7.8298     |   2.3 |  1.28
Comm    | 15.441     | 20.175     | 24.908     | 105.4 |  3.32
Output  | 0.0068031  | 0.007248   | 0.0076929  |   0.5 |  0.00
Modify  | 151.06     | 151.16     | 151.26     |   0.8 | 24.87
Other   |            | 0.749      |            |       |  0.12

Nlocal:        1024.00 ave        1033 max        1015 min
Histogram: 1 0 0 0 0 0 0 0 0 1
Nghost:        3714.00 ave        3727 max        3701 min
Histogram: 1 0 0 0 0 0 0 0 0 1
Neighs:        72454.0 ave       74943 max       69965 min
Histogram: 1 0 0 0 0 0 0 0 0 1

Total # of neighbors = 144908
Ave neighs/atom = 70.755859
Neighbor list builds = 2982
Dangerous builds = 0

fix temp all print 100 "$(step) $(temp) $(press) ${sys_press} $(vol) $(ke) $(pe) $(density)" file temp_cold.txt screen no title  "step temp press pressGiga vol ke pe density"
# fix 132 all momentum 100 linear 1 1 1 angular
fix out_file_1 all print 1000 "$(step) $(temp) $(press) ${sys_press} $(vol) $(ke) $(pe) $(density)" file one_phase_cooling_$T_.txt screen no title  "step temp press pressGiga vol ke pe density"
fix out_file_1 all print 1000 "$(step) $(temp) $(press) ${sys_press} $(vol) $(ke) $(pe) $(density)" file one_phase_cooling_2200_.txt screen no title  "step temp press pressGiga vol ke pe density"

# dump 3 all custom 1000 traj_npt_new.lammpstrj id type x y z
run 50000
Last active /omp style is pair_style eam/alloy/omp
Per MPI rank memory allocation (min/avg/max) = 4.385 | 4.385 | 4.385 Mbytes
Step Temp Volume Press KinEng PotEng Density 
  150000     2218.809    26612.705    30.523942    587.08692   -7968.7967    7.5309288 
  151000    2281.5023    26692.917    -2474.961    603.67529   -7960.2488    7.5082983 
  152000    2202.5886    26395.714    9277.8838    582.79507   -7978.5304    7.5928382 
  153000    2268.4643    26569.687   -2090.8237    600.22547   -7985.6671    7.5431217 
  154000    2161.5528    26674.303   -2672.2036    571.93718   -7963.8582    7.5135378 
  155000    2292.6535    26430.327    3140.7523    606.62584   -8004.2258    7.5828946 
  156000    2151.5061    26513.037    4482.9604    569.27887   -7969.0091    7.5592391 
  157000    2237.7541    26622.452    1000.3229    592.09971   -7956.9809    7.5281715 
  158000    2181.7839     26351.02     12475.78    577.29023   -7971.7845    7.6057165 
  159000    2172.6194     26587.69    4062.3008    574.86535    -7947.701    7.5380141 
  160000    2179.5315    26779.678   -9505.4724    576.69426   -7962.5815     7.483973 
  161000    2220.0018    26622.947   -5609.2206    587.40253   -7986.8483    7.5280317 
  162000    2190.7749    26714.619   -1493.6412    579.66923   -7945.5382    7.5021988 
  163000    2238.2175    26568.354    1506.0542    592.22232   -7976.1643    7.5435002 
  164000    2223.1238    26650.588   -5061.2857     588.2286   -7981.5024    7.5202239 
  165000    2134.2392    26613.481   -5133.6192    564.71012   -7985.9671    7.5307093 
  166000    2206.2855    26680.394   -4416.0118    583.77325   -7965.5492    7.5118225 
  167000    2217.1387    26694.021   -1298.6719    586.64496   -7951.0089     7.507988 
  168000    2186.9036    26491.551    4173.7019    578.64489    -7978.639      7.56537 
  169000    2223.4098    26627.989   -209.81217    588.30427   -7967.8968    7.5266061 
  170000    2221.2777    26722.406   -5926.9218    587.74011   -7964.4104    7.5000127 
  171000    2157.2282    26575.446   -859.78538     570.7929   -7979.0549    7.5414872 
  172000    2282.0623    26554.069    685.87831    603.82347    -7982.589    7.5475583 
  173000    2251.4477     26574.75    1061.2074    595.72296   -7976.0547    7.5416847 
  174000    2164.9752    26812.173   -7513.3954    572.84274   -7948.2203    7.4749027 
  175000    2208.8594    26620.599   -3283.7948    584.45431   -7986.1035    7.5286955 
  176000    2186.5272    26427.636    3146.4468    578.54531   -8002.4992    7.5836668 
  177000    2166.2601    26283.493    10792.146     573.1827   -7998.2184    7.6252569 
  178000    2281.0474    26512.093    6187.4471    603.55491   -7964.2206    7.5595083 
  179000    2161.8454    26613.625   -3021.8039    572.01459   -7979.8893    7.5306684 
  180000    2232.9306     26637.96   -4509.7584    590.82343   -7985.8914    7.5237887 
  181000    2216.4725    26581.004    3229.3711    586.46868   -7960.0937    7.5399102 
  182000    2162.9635    26605.549    1958.8809    572.31044   -7954.8116    7.5329544 
  183000    2242.9928    26590.911    -2578.465    593.48583   -7983.3652    7.5371011 
  184000    2217.7256    26715.478   -1437.4959    586.80025   -7948.8935    7.5019577 
  185000    2200.2071     26478.63    4152.3254    582.16494    -7979.199    7.5690617 
  186000    2221.2909    26525.108    4615.4217    587.74362   -7963.3095    7.5557991 
  187000    2244.9201    26597.611   -531.75616    593.99579   -7982.4204    7.5352025 
  188000    2172.1394    26900.162   -13073.715    574.73834   -7946.6137    7.4504527 
  189000     2185.411    26611.748    674.58212    578.24995   -7960.9811    7.5311997 
  190000    2277.2001    26501.151    3506.7627    602.53693   -7980.7782    7.5626295 
  191000    2240.3443    26700.448   -2657.7607    592.78506   -7962.9081    7.5061806 
  192000    2173.9518    26587.282   -268.72692    575.21791   -7971.3818    7.5381299 
  193000    2172.6934    26598.589     479.0798    574.88492   -7964.9345    7.5349256 
  194000    2171.4605    26383.281    8884.3268    574.55873   -7986.3982    7.5964162 
  195000    2199.6198     26522.62    1638.9149    582.00954   -7982.2811    7.5565079 
  196000    2124.1608     26575.46    -2496.395    562.04342   -7981.5008    7.5414832 
  197000    2242.3616     26491.23    6827.2954    593.31882   -7971.7878    7.5654618 
  198000    2203.2761    26545.426    1861.9587    582.97697   -7972.2411    7.5500158 
  199000    2165.5056     26660.64   -6599.8508    572.98308   -7979.3963    7.5173885 
  200000     2279.191    26470.006    6327.6044    603.06371   -7976.9848    7.5715279 
Loop time of 202.344 on 4 procs for 50000 steps with 2048 atoms

Performance: 21.350 ns/day, 1.124 hours/ns, 247.104 timesteps/s
137.6% CPU use with 2 MPI tasks x 2 OpenMP threads

MPI task timing breakdown:
Section |  min time  |  avg time  |  max time  |%varavg| %total
---------------------------------------------------------------
Pair    | 141.17     | 142.63     | 144.1      |  12.3 | 70.49
Neigh   | 2.5586     | 2.6003     | 2.642      |   2.6 |  1.29
Comm    | 5.1394     | 6.6193     | 8.0991     |  57.5 |  3.27
Output  | 0.0017132  | 0.0021603  | 0.0026073  |   1.0 |  0.00
Modify  | 50.208     | 50.242     | 50.276     |   0.5 | 24.83
Other   |            | 0.2466     |            |       |  0.12

Nlocal:        1024.00 ave        1027 max        1021 min
Histogram: 1 0 0 0 0 0 0 0 0 1
Nghost:        3710.50 ave        3714 max        3707 min
Histogram: 1 0 0 0 0 0 0 0 0 1
Neighs:        72812.0 ave       74440 max       71184 min
Histogram: 1 0 0 0 0 0 0 0 0 1

Total # of neighbors = 145624
Ave neighs/atom = 71.105469
Neighbor list builds = 991
Dangerous builds = 0

unfix temp
unfix out_file_1
unfix 1
# # clear
# write_data after_cooling_$T.in
# write_restart after_cooling_$T.lmp
next loopVar
# # thermo_modify flush yes
jump in.lmp ensemble

print """
Hi HI Hi
"""

Hi HI Hi

variable T equal 2500-${loopVar}*100
variable T equal 2500-4*100
# velocity all create $T 123123
reset_timestep 0
fix 1 all npt temp $T $T $(dt*100) iso 0 0 $(dt*1000)
fix 1 all npt temp 2100 $T $(dt*100) iso 0 0 $(dt*1000)
fix 1 all npt temp 2100 2100 $(dt*100) iso 0 0 $(dt*1000)
fix 1 all npt temp 2100 2100 0.10000000000000000555 iso 0 0 $(dt*1000)
fix 1 all npt temp 2100 2100 0.10000000000000000555 iso 0 0 1
print """
<--------------------------------------------------------------------->
<------------------ Equilibrating at temperature $T ----------------->
<--------------------------------------------------------------------->
"""

<--------------------------------------------------------------------->
<------------------ Equilibrating at temperature 2100 ----------------->
<--------------------------------------------------------------------->

run 150000
Last active /omp style is pair_style eam/alloy/omp
Per MPI rank memory allocation (min/avg/max) = 4.385 | 4.385 | 4.385 Mbytes
Step Temp Volume Press KinEng PotEng Density 
       0     2279.191    26470.006    6327.6044    603.06371   -7976.9848    7.5715279 
    1000    2123.0877    26398.276   -1900.8978    561.75949   -8022.6791    7.5921014 
    2000    2050.9216    26469.544   -2508.1318    542.66467   -8003.9094    7.5716599 
    3000    2146.9512    26358.176    3140.3784    568.07365    -8016.963    7.6036517 
    4000     2078.179    26233.087    3881.0668    549.87685   -8039.3977    7.6399086 
    5000    2083.7567     26453.07   -2531.2982    551.35268   -8012.8181    7.5763754 
    6000    2092.8034    26421.779   -821.39318     553.7464   -8015.8451     7.585348 
    7000    2066.2416    26462.359   -592.48974    546.71827   -8002.9466    7.5737159 
    8000    2126.9853    26381.853    2828.6156    562.79076    -8008.624    7.5968274 
    9000     2146.602    26469.433   -5407.5868    567.98127   -8027.4454    7.5716917 
   10000     2103.523    26507.832   -4153.1686    556.58277   -8010.1123    7.5607234 
   11000    2142.8846    26291.357    4580.5595    566.99765   -8027.1723    7.6229761 
   12000    2184.8435    26318.795    2524.5858     578.0998   -8026.4044    7.6150289 
   13000    2067.0873    26412.712    1022.1966    546.94204   -8011.6991     7.587952 
   14000     2039.937    26513.047   -4254.8334    539.75819   -7995.6699    7.5592362 
   15000    2086.7829    26361.669    3597.5072     552.1534   -8006.2443     7.602644 
   16000    2127.6615    26392.618    4263.6314     562.9697   -8003.6738    7.5937288 
   17000    2166.3381    26512.052   -1423.8113    573.20335     -8000.28    7.5595201 
   18000     2047.477     26422.81    3105.9857    541.75322   -7995.9588    7.5850518 
   19000    2075.9683    26349.456    3535.7717     549.2919   -8011.6722    7.6061679 
   20000    2046.2686    26477.501   -6336.8151    541.43351   -8023.0981    7.5693845 
   21000     2158.013      26466.3   -209.51837    571.00056   -8003.8895    7.5725881 
   22000    2087.1709    26426.375   -39.844108    552.25606    -8007.783    7.5840288 
   23000    2060.2029    26363.897    5083.8072    545.12045   -8006.1155    7.6020015 
   24000    2112.4928    26508.338   -2892.9788    558.95612   -8003.1154    7.5605791 
   25000    2116.4288    26484.235   -3041.4166    559.99758   -8011.2903      7.56746 
   26000    2107.0621    26387.897     3834.664    557.51919   -8006.7084    7.5950876 
   27000    2034.3822    26478.489    -6996.509    538.28842   -8024.3013     7.569102 
   28000    2089.1164    26488.584    227.62251    552.77082   -7993.3096    7.5662173 
   29000    2105.5802    26413.686   -1058.0556    557.12707    -8014.914     7.587672 
   30000    2134.7994    26295.469    4561.2496    564.85836   -8023.3543     7.621784 
   31000    2082.6894    26538.425   -5079.7448    551.07027   -7998.6798    7.5520076 
   32000    2115.4963    26315.505   -536.47881    559.75083   -8039.5016    7.6159812 
   33000    2065.4535    26456.468   -885.64331    546.50975   -8002.2807    7.5754023 
   34000    2073.8393    26490.613   -632.15764    548.72857   -7996.2449    7.5656379 
   35000    2096.4958    26562.118   -6091.8815    554.72339   -8001.2249    7.5452714 
   36000    2106.6576    26397.303    2826.7354    557.41214   -8005.7972    7.5923811 
   37000    2147.7011    26333.495    2649.3238    568.27208   -8025.2641     7.610778 
   38000    2084.2161    26357.935    2443.3339    551.47422   -8016.9133     7.603721 
   39000     2093.252    26377.318     2369.437    553.86509   -8009.0612    7.5981337 
   40000     2104.451    26276.781     5061.987    556.82829   -8024.2477    7.6272047 
   41000    2041.6027    26540.665   -7664.1992    540.19891   -8015.0519    7.5513703 
   42000    2094.1755    26484.934   -4632.2784    554.10944   -8016.6737    7.5672601 
   43000    2103.4614    26276.205      4798.61    556.56645   -8026.7236    7.6273717 
   44000    2034.9655    26436.347    2098.9305    538.44275   -8001.4747    7.5811681 
   45000     2082.703    26275.903    9546.9262    551.07388   -8002.0738    7.6274596 
   46000     2124.394    26387.338    1668.3874    562.10514   -8013.1814    7.5952485 
   47000    2086.5627    26316.978    1860.6185    552.09513   -8023.1608    7.6155547 
   48000    2053.1342    26497.614    419.04052     543.2501   -7990.9328     7.563639 
   49000    2108.4614    26391.617   -68.349644    557.88943   -8017.7236    7.5940169 
   50000    2078.1071    26396.393    633.85044    549.85781   -8007.2637    7.5926429 
   51000     2105.715    26484.459   -7463.0243    557.16275   -8028.2963     7.567396 
   52000    2058.2148     26403.79    1151.7978    544.59441   -8004.8825    7.5905159 
   53000    2165.6186    26410.732    3438.6794    573.01297   -8000.1045    7.5885208 
   54000    2049.7737    26500.808   -123.23928    542.36093   -7990.8499    7.5627275 
   55000    2198.3625    26281.652    3530.7475    581.67686   -8036.7023    7.6257911 
   56000    2115.2035    26311.238    2063.8099    559.67337   -8025.9219    7.6172161 
   57000    2018.1254    26453.716   -4332.4039    533.98694   -8018.2285    7.5761902 
   58000    2138.4426    26427.845   -3930.7697    565.82232   -8028.6984    7.5836069 
   59000    2100.5556    26382.699    2460.3636     555.7976   -8009.8224     7.596584 
   60000    2115.0317    26327.039    7360.0017    559.62792   -8001.6079    7.6126443 
   61000    2053.3553    26536.194   -5590.6986     543.3086   -8006.1496    7.5526425 
   62000    2164.0148    26655.963   -5428.2746    572.58861   -7983.2876    7.5187073 
   63000    2056.6577    26502.451   -3531.5613     544.1824   -8003.5367    7.5622587 
   64000    2148.0064    26311.721    8176.7275    568.35286   -8004.1758    7.6170762 
   65000    2087.9789    26417.508   -2606.9501    552.46985   -8016.5978    7.5865743 
   66000    2207.3358    26531.945   -2519.2178    584.05115   -8002.6152    7.5538519 
   67000    2089.9226     26326.68    2383.7228    552.98414   -8021.5673    7.6127483 
   68000    2114.2866    26470.823    4631.2544    559.43075   -7981.5063    7.5712941 
   69000    2101.6248     26444.49    234.16061     556.0805    -8005.368    7.5788334 
   70000    2037.3749     26456.99   -3831.9584    539.08026   -8012.7024    7.5752529 
   71000    2112.7874    26332.033    5752.7136    559.03409   -8013.4256    7.6112007 
   72000    2090.8256    26338.774    5266.4908    553.22308   -8006.5424    7.6092526 
   73000    2107.5126     26478.62   -5178.5648    557.63839   -8018.1664    7.5690647 
   74000    2095.8592    26422.427    5103.0122    554.55496    -7991.556    7.5851618 
   75000    2043.2891    26220.371    5454.0914    540.64513   -8034.2722    7.6436138 
   76000     2089.269     26410.88   -4283.7598     552.8112   -8031.1761    7.5884782 
   77000    2165.0756    26396.948   -2487.3776    572.86931   -8033.6411    7.5924833 
   78000    2125.9837    26507.881   -2806.0269    562.52576   -8003.3248    7.5607093 
   79000    2105.5402    26495.053   -2903.2921     557.1165   -8004.2757    7.5643701 
   80000    2124.4978    26372.624    3591.6573    562.13259   -8013.1944    7.5994859 
   81000    2088.8585    26339.777    133.66105    552.70259   -8031.3631    7.6089631 
   82000    2091.1751    26461.618   -3129.9954    553.31557   -8011.8253    7.5739278 
   83000    2143.7823    26422.038    3278.1984    567.23519   -7997.1672    7.5852736 
   84000    2067.3934    26350.966    5241.2864    547.02303   -8004.3163    7.6057322 
   85000    2140.2577    26642.792   -9314.7913    566.30259   -7999.4378    7.5224243 
   86000     2083.602    26465.294    511.77407    551.31176   -7995.0318     7.572876 
   87000    2099.5778    26414.143   -535.50751    555.53886   -8017.9355    7.5875406 
   88000    2111.6834     26253.46    4787.5347    558.74196   -8037.8619      7.63398 
   89000     2068.728    26379.719    2404.4278    547.37616   -8011.8691    7.5974421 
   90000     2016.931    26218.055    8203.1123    533.67091    -8029.043    7.6442888 
   91000    2116.8877    26400.387   -1504.5371      560.119     -8026.98    7.5914943 
   92000     2089.507    26269.135    5389.4656    552.87419   -8023.6868    7.6294246 
   93000    2138.1745    26293.297    3905.8328    565.75139   -8027.3846    7.6224137 
   94000    2086.8138    26366.692   -2345.0697    552.16157   -8038.0133    7.6011958 
   95000    2103.2442    26374.048    2751.3893    556.50899   -8006.6541    7.5990755 
   96000    2098.2761    26533.706     -2705.76    555.19446   -7995.7398    7.5533508 
   97000    2095.9635    26393.673    1885.1406    554.58253   -8013.5107    7.5934252 
   98000    2116.5171    26492.639   -2854.4871    560.02095   -8009.2172    7.5650592 
   99000    2077.6974    26580.108   -11237.363    549.74943   -8019.4734    7.5401645 
  100000    2089.8188    26453.984   -2690.8745    552.95669   -8014.4336    7.5761136 
  101000    2142.3586    26397.252    5014.9299    566.85847   -7994.7021    7.5923957 
  102000    2075.3993    26555.348   -7828.6014    549.14134   -8004.8172    7.5471949 
  103000    2102.9988    26390.035   -1346.7566    556.44405   -8021.1438    7.5944723 
  104000    2053.7594    26214.844      6017.09    543.41553   -8033.5685    7.6452251 
  105000    2119.4184    26453.808   -1100.8237     560.7886   -8011.7268    7.5761639 
  106000    2059.2682    26428.375   -1618.1771    544.87313   -8017.8329    7.5834547 
  107000    2099.3219    26379.302    3954.6539    555.47115   -8001.9271    7.5975622 
  108000    2120.2181    26408.662    4049.4337     561.0002   -7999.6456    7.5891156 
  109000    2059.5301    26527.174   -6253.1132    544.94244   -8008.2385    7.5552107 
  110000    2078.7019    26494.609   -849.32376     550.0152   -7993.2955    7.5644969 
  111000    2121.7364    26228.399    5797.9648    561.40193   -8035.2259    7.6412742 
  112000    2095.8335    26365.377    433.64719    554.54815   -8019.0193    7.6015748 
  113000    2140.1857     26394.36    207.60723    566.28355   -8018.3619    7.5932276 
  114000    2108.4641    26453.614   -3000.4332    557.89016   -8014.7879    7.5762194 
  115000    2084.2196    26391.588    211.36375    551.47515   -8017.6996    7.5940252 
  116000    2155.1657    26409.979    1652.7005    570.24718   -8003.9825    7.5887371 
  117000    2115.1445    26464.626   -4334.9569    559.65776    -8020.577     7.573067 
  118000     2104.369    26467.527   -3641.3278     556.8066   -8017.1014    7.5722369 
  119000    2089.4908    26288.802    4095.2738    552.86991   -8021.6705    7.6237169 
[...]
   16000    303.74024    23144.852    -558.2109    80.368306   -8886.1169    8.6593075 
   17000    306.68198     23119.06    1692.3996    81.146676   -8885.6064    8.6689678 
   18000    295.81207    23135.215    73.531431    78.270547    -8887.114    8.6629145 
   19000    297.36878    23141.615   -22.089096    78.682445   -8885.2738    8.6605184 
   20000     296.2963    23144.136    143.36765    78.398673   -8883.7175    8.6595753 
   21000    303.35243    23126.929     1140.681    80.265692   -8884.8466    8.6660182 
   22000    299.83768    23143.035   -123.31433    79.335705   -8883.1104    8.6599871 
   23000    302.79015    23157.841   -1344.2207    80.116916   -8884.4787    8.6544505 
   24000    297.64939    23129.221    994.34403    78.756694   -8884.8673    8.6651596 
   25000    314.24359      23096.5    3834.4413    83.147445   -8884.7027    8.6774353 
   26000    302.22231    23129.848    733.83627    79.966669   -8885.1068    8.6649247 
   27000    295.04815    23137.385    186.40614    78.068416   -8885.0042     8.662102 
   28000    308.49046    23156.918   -1229.5103    81.625192   -8886.5795    8.6547954 
   29000    308.17578    23164.142    -1479.372     81.54193   -8884.6076    8.6520962 
   30000    298.15919    23110.583     2682.411    78.891584   -8884.1484    8.6721476 
   31000    309.33015    23116.645    1570.0421    81.847371   -8886.5479    8.6698736 
   32000    303.92352    23135.724    962.36083    80.416802   -8883.7007    8.6627236 
   33000    298.84407     23155.48   -1169.8996    79.072801   -8885.5837     8.655333 
   34000    308.03887    23189.909   -3765.4777    81.505704   -8885.2971    8.6424827 
   35000    292.32657    23113.889    2304.5026      77.3483   -8883.9264    8.6709073 
   36000     287.9443    23116.094    1879.5514     76.18877   -8885.5106    8.6700801 
   37000    301.08268    23139.256   -7.2958689    79.665127   -8884.8596    8.6614016 
   38000    289.66455    23153.523   -1275.3076    76.643942   -8886.2259    8.6560644 
   39000    298.34513    23160.774   -1503.4289    78.940783   -8883.9083    8.6533543 
   40000    295.54854    23137.579    117.25193    78.200819   -8885.6518    8.6620294 
   41000    304.09028    23116.467    1429.8922    80.460924   -8887.3673    8.6699404 
   42000     299.3291    23116.592    1391.8265    79.201137   -8887.8594    8.6698933 
   43000    295.09363    23145.077   -138.77863    78.080452   -8885.1948    8.6592233 
   44000    299.68007    23192.544   -3854.2524    79.294002   -8883.3804    8.6415008 
   45000      295.233    23160.174    -1462.072    78.117327   -8884.1841    8.6535785 
   46000    304.06782     23129.02    1192.2408    80.454981   -8883.7283    8.6652348 
   47000    305.27967    23137.522    200.58708    80.775632   -8885.8777    8.6620507 
   48000    302.52966    23168.183   -2243.0296    80.047992   -8882.7623    8.6505873 
   49000    301.80252    23180.338   -3218.1378    79.855595   -8885.6951    8.6460512 
   50000    309.55542     23119.08    2420.9365    81.906977   -8883.2005    8.6689602 
   51000    296.19584    23119.315    1886.9024    78.372091   -8883.5561    8.6688722 
   52000     296.2993    23123.507    830.56044    78.399466   -8887.3533    8.6673007 
   53000    302.04341    23162.831   -1318.6955    79.919332   -8883.7111    8.6525859 
   54000    300.86469     23166.23   -2245.1718    79.607449   -8887.5701    8.6513165 
   55000    298.58612     23142.84   -814.20755     79.00455   -8886.2601    8.6600603 
   56000    303.46401    23142.993   -266.23647    80.295217   -8886.2271    8.6600029 
   57000    303.37993    23152.075   -346.43323    80.272968   -8883.3483    8.6566057 
   58000    301.88621    23161.145   -1944.2271    79.877739   -8885.9115     8.653216 
   59000    298.05202    23164.521   -2585.9108    78.863228   -8887.7728    8.6519549 
   60000    299.82615    23116.293    1976.1705    79.332655   -8883.9605    8.6700053 
   61000    301.29958    23070.276    5461.7452    79.722519   -8885.5329     8.687299 
   62000    292.39936    23120.557    1670.4131    77.367559   -8884.8511    8.6684066 
   63000    300.17515    23153.541   -1122.7576    79.424998   -8884.5927    8.6560579 
   64000    302.80327    23162.093   -1963.5221    80.120386   -8886.1394    8.6528617 
   65000    301.01644    23130.657    866.13437    79.647601   -8883.8623    8.6646214 
   66000    299.50944    23072.214    5355.7722    79.248856   -8885.3099    8.6865692 
   67000     307.7611    23123.265    1232.5929    81.432208   -8885.7259    8.6673912 
   68000    298.07172    23156.132   -541.45715    78.868442    -8882.309     8.655089 
   69000    294.28907    23137.769     221.6145    77.867569   -8885.1323    8.6619583 
   70000    305.25852    23172.294   -2264.6548    80.770035   -8882.6925    8.6490526 
   71000    290.59099    23146.023   -353.25847    76.889072   -8883.8176    8.6588692 
   72000    301.31101    23111.623    1942.3844    79.725544    -8886.095    8.6717575 
   73000    312.59596    23110.961    2069.0158     82.71149   -8888.2302    8.6720058 
   74000    304.55248    23124.405    1406.4505    80.583221   -8884.5779    8.6669639 
   75000     313.3227    23158.721   -1671.4785    82.903782   -8887.1082    8.6541214 
   76000    308.25731    23142.765   -398.07779    81.563502   -8885.5845    8.6600884 
   77000    290.80565    23133.022     552.0368    76.945872   -8885.1871    8.6637357 
   78000    294.75006    23158.973   -1969.2294    77.989545   -8886.4471    8.6540274 
   79000    299.21358    23189.268    -3196.898    79.170571   -8882.7436    8.6427214 
   80000    296.60474    23131.878    993.12386    78.480284   -8884.4306    8.6641641 
   81000    313.86761    23133.918    1261.3716    83.047962   -8882.9724    8.6634002 
   82000    299.77206     23127.56    965.14777    79.318343   -8885.3091    8.6657815 
   83000    307.23749    23161.572    -713.0307    81.293663   -8882.0075    8.6530562 
   84000     302.0388    23164.272   -2001.1739    79.918113    -8885.654    8.6520476 
   85000    299.33659    23168.461   -2754.7985    79.203119   -8887.1097    8.6504834 
   86000    302.36306    23120.132    1815.2382     80.00391   -8884.5039     8.668566 
   87000    303.19394    23108.737    2235.3448    80.223756   -8886.9768    8.6728403 
   88000    299.47496    23116.937    1435.4228    79.239732   -8886.5479    8.6697639 
   89000    297.24519    23139.255    86.800309    78.649745    -8884.891    8.6614017 
   90000    293.28579    23174.868   -2501.9143    77.602106   -8883.9838    8.6480919 
   91000    301.88706     23149.49   -833.62718    79.877963   -8885.0221    8.6575726 
   92000    303.87423     23106.54    2727.3834    80.403758   -8885.1206     8.673665 
   93000    297.02978    23108.746    3216.0041    78.592749   -8883.3637    8.6728369 
   94000     298.1683    23137.406   -437.74815    78.893995    -8887.767    8.6620942 
   95000    303.06338    23123.678    1258.3654    80.189211   -8885.6242    8.6672364 
   96000     303.2669    23138.532    154.74971    80.243061   -8884.5603    8.6616725 
   97000    291.45464    23194.081   -4103.8868    77.117591   -8883.4463    8.6409279 
   98000    308.73896    23187.285   -3011.2244    81.690945    -8882.151    8.6434608 
   99000    303.34869     23123.78    1256.9802    80.264704   -8886.4098    8.6671984 
  100000    294.78098     23103.94    2422.5249    77.997725   -8887.2834    8.6746411 
  101000     305.9843     23138.09    592.58188    80.962074   -8884.1707    8.6618379 
  102000    295.16974    23160.952   -1179.2186     78.10059   -8883.9544    8.6532879 
  103000    298.83749    23171.502   -3178.5528    79.071059   -8887.9821    8.6493482 
  104000    302.09798     23101.76    3161.6064    79.933771   -8884.4622    8.6754595 
  105000    302.13611    23107.929     1797.353    79.943859   -8888.7247    8.6731435 
  106000    308.46438    23151.225   -1040.7203    81.618292   -8886.4892    8.6569237 
  107000    289.61673    23149.599    -668.8918    76.631289    -8884.146    8.6575316 
  108000    310.00438    23131.654    916.19257    82.025768   -8884.6191     8.664248 
  109000    298.35666    23091.521    4087.5236    78.943835   -8885.3279    8.6793065 
  110000    309.15023    23136.766    896.50713    81.799764   -8883.5077    8.6623336 
  111000    299.22834    23164.994   -1757.2816    79.174477   -8883.8719    8.6517779 
  112000    295.99591    23151.627   -628.99519     78.31919   -8884.4054    8.6567732 
  113000    302.77005    23128.023    1376.6546    80.111598   -8884.3541     8.665608 
  114000    294.87511    23086.201     4388.323    78.022633   -8885.9767    8.6813064 
  115000     302.5701    23137.159     772.2909    80.058691   -8884.3212    8.6621864 
  116000    299.68626    23162.184   -1630.9246     79.29564   -8885.4264    8.6528276 
  117000     293.0438    23161.667   -1502.9502    77.538075   -8883.4883    8.6530208 
  118000    296.26492    23165.104    -1364.594    78.390369   -8883.4997    8.6517371 
  119000    303.21762     23138.45    768.03109    80.230022   -8882.7373    8.6617032 
  120000    300.43648    23131.184    480.89887    79.494147   -8886.0543    8.6644242 
  121000    293.99075    23153.554   -623.51695    77.788635   -8883.5335    8.6560529 
  122000    307.81617    23178.335    -2927.631     81.44678   -8884.5671    8.6467983 
  123000    289.03691    23176.931   -2813.1627     76.47787   -8885.7064    8.6473219 
  124000    301.77774    23131.159    1051.1765    79.849036   -8884.3698    8.6644334 
  125000    297.74769    23128.937    1153.4693    78.782703   -8883.9261    8.6652657 
  126000    298.96164    23116.087    1994.2225    79.103908   -8885.1963    8.6700829 
  127000    297.53926    23173.503   -2808.2364    78.727555   -8886.1776    8.6486012 
  128000    299.91405     23178.78   -3024.9429    79.355913   -8883.8687    8.6466323 
  129000    294.49973    23128.313     1159.721    77.923309   -8883.7539    8.6654994 
  130000    301.99811      23115.2     2241.666    79.907345   -8885.2137    8.6704154 
  131000    289.98279    23120.411    2258.5927    76.728147   -8881.6649    8.6684612 
  132000    300.40726    23170.849   -1905.8734    79.486416   -8882.3532    8.6495918 
  133000    295.00358    23208.251   -5336.5161    78.056625   -8883.8646    8.6356524 
  134000    297.62001    23154.965   -971.57701    78.748921   -8883.3237    8.6555253 
  135000    295.44506    23125.142    1347.4131    78.173438   -8883.7465    8.6666877 
  136000    296.07194    23131.006    729.80244    78.339309    -8884.934    8.6644906 
  137000    294.75496    23170.182   -2784.6952     77.99084   -8885.7992     8.649841 
  138000     290.5901    23195.928   -4111.1709    76.888837   -8883.3999    8.6402401 
  139000    301.15927    23122.336    1597.9644    79.685393   -8884.3664    8.6677397 
  140000    298.49288    23118.133    1171.5852    78.979878   -8887.5554    8.6693154 
  141000    294.65428    23152.582   -461.59023    77.964203   -8882.5407    8.6564164 
  142000     295.1431    23172.092   -2724.2273    78.093542   -8886.3346    8.6491279 
  143000    313.02714    23144.202   -271.85841    82.825577   -8885.9321    8.6595505 
  144000    302.56036     23121.97    1576.1421    80.056114   -8884.4869    8.6678767 
  145000     301.5568    23113.109    1662.5366    79.790578   -8885.9369    8.6711996 
  146000       297.02     23148.14   -432.22351    78.590161   -8884.7668    8.6580774 
  147000    300.16258    23191.283   -3758.3698    79.421674   -8884.4167    8.6419707 
  148000    307.64004    23161.089    -1993.521    81.400175   -8887.1605    8.6532369 
  149000    304.43879    23130.731    1110.8048    80.553138   -8883.8009    8.6645939 
  150000    300.17329    23135.917    278.87018    79.424507   -8886.2824    8.6626516 
Loop time of 618.551 on 4 procs for 150000 steps with 2048 atoms

Performance: 20.952 ns/day, 1.145 hours/ns, 242.502 timesteps/s
142.7% CPU use with 2 MPI tasks x 2 OpenMP threads

MPI task timing breakdown:
Section |  min time  |  avg time  |  max time  |%varavg| %total
---------------------------------------------------------------
Pair    | 439.68     | 445.48     | 451.29     |  27.5 | 72.02
Neigh   | 0.20595    | 0.20755    | 0.20915    |   0.4 |  0.03
Comm    | 15.655     | 21.448     | 27.241     | 125.1 |  3.47
Output  | 0.0066366  | 0.0070976  | 0.0075586  |   0.5 |  0.00
Modify  | 150.88     | 150.91     | 150.93     |   0.2 | 24.40
Other   |            | 0.4986     |            |       |  0.08

Nlocal:        1024.00 ave        1026 max        1022 min
Histogram: 1 0 0 0 0 0 0 0 0 1
Nghost:        3956.00 ave        3966 max        3946 min
Histogram: 1 0 0 0 0 0 0 0 0 1
Neighs:        82586.5 ave       84523 max       80650 min
Histogram: 1 0 0 0 0 0 0 0 0 1

Total # of neighbors = 165173
Ave neighs/atom = 80.650879
Neighbor list builds = 81
Dangerous builds = 0

fix temp all print 100 "$(step) $(temp) $(press) ${sys_press} $(vol) $(ke) $(pe) $(density)" file temp_cold.txt screen no title  "step temp press pressGiga vol ke pe density"
# fix 132 all momentum 100 linear 1 1 1 angular
fix out_file_1 all print 1000 "$(step) $(temp) $(press) ${sys_press} $(vol) $(ke) $(pe) $(density)" file one_phase_cooling_$T_.txt screen no title  "step temp press pressGiga vol ke pe density"
fix out_file_1 all print 1000 "$(step) $(temp) $(press) ${sys_press} $(vol) $(ke) $(pe) $(density)" file one_phase_cooling_300_.txt screen no title  "step temp press pressGiga vol ke pe density"

# dump 3 all custom 1000 traj_npt_new.lammpstrj id type x y z
run 50000
Last active /omp style is pair_style eam/alloy/omp
Per MPI rank memory allocation (min/avg/max) = 4.386 | 4.386 | 4.386 Mbytes
Step Temp Volume Press KinEng PotEng Density 
  150000    300.17329    23135.917    278.87018    79.424507   -8886.2824    8.6626516 
  151000    297.85652    23160.428   -1578.3209    78.811499   -8884.5985    8.6534835 
  152000    301.91489    23201.424   -4707.0091    79.885327   -8883.4904    8.6381933 
  153000    293.89642    23141.764     -692.506    77.763674   -8886.1372    8.6604626 
  154000    301.24624    23105.285    2838.7958    79.708405   -8884.4814    8.6741362 
  155000     302.6251    23127.769    1077.0947    80.073245   -8884.9976    8.6657034 
  156000    312.74929    23162.488   -1954.2654    82.752059   -8886.3162    8.6527141 
  157000    295.51946    23152.117    -1018.258    78.193126   -8884.8081    8.6565901 
  158000    298.33627    23171.125   -3094.2374    78.938439   -8886.6745    8.6494886 
  159000    296.89212    23122.304    988.50621    78.556323   -8886.8198    8.6677514 
  160000     305.3699    23111.535    2181.1004    80.799506   -8885.8042    8.6717903 
  161000    303.95423    23123.041    1418.6041    80.424927   -8884.6536    8.6674753 
  162000    292.28595     23125.99    842.96701    77.337552   -8887.2161      8.66637 
  163000    310.41181    23122.034    1950.3474    82.133572   -8884.7746    8.6678528 
  164000    293.74165    23153.203   -967.90449    77.722723   -8884.2195    8.6561842 
  165000     292.5487     23161.91   -1288.0805    77.407073   -8883.3353    8.6529299 
  166000    301.55925    23130.248    1134.6514    79.791226   -8882.8982    8.6647747 
  167000    294.98212    23107.427    2638.9986    78.050946   -8884.4827     8.673332 
  168000    305.11234    23151.483    341.00466    80.731356   -8881.7425    8.6568271 
  169000    296.01191    23161.986   -1220.1811    78.323424   -8884.2522    8.6529015 
  170000    297.48792    23168.859   -2317.6741    78.713971   -8886.0863    8.6503348 
  171000    313.14786    23157.561   -1200.3266     82.85752   -8884.5179    8.6545552 
  172000    303.79837    23117.559    1708.7544    80.383687   -8886.7648    8.6695305 
  173000    300.66122    23111.813    1901.8801    79.553611   -8886.6992     8.671686 
  174000    298.30299    23179.103   -2916.2032    78.929633    -8885.304    8.6465118 
  175000    299.11865    23178.311   -3167.9322    79.145453   -8885.2222     8.646807 
  176000    296.15191    23156.517    -907.9936    78.360467   -8883.1077    8.6549451 
  177000    302.99453     23130.17    1203.0385    80.170995    -8884.077    8.6648039 
  178000    298.50941    23112.118    2801.4075    78.984253   -8882.8415    8.6715716 
  179000    297.40807    23130.387    550.30428    78.692842   -8885.3568    8.6647226 
  180000    300.92332    23153.505   -881.35891    79.622962   -8885.0646    8.6560713 
  181000    293.63363    23152.812   -1092.1982    77.694142    -8885.738    8.6563304 
  182000    303.85975    23154.791   -1068.0346    80.399927   -8885.5508    8.6555904 
  183000    306.09718    23123.068    1445.1831    80.991942   -8884.8024    8.6674651 
  184000    307.12592    23077.652     5414.104    81.264142   -8884.4404    8.6845223 
  185000    295.08207    23146.599   -238.38079    78.077393   -8883.8958    8.6586538 
  186000    297.87921    23166.069   -2014.5846    78.817503   -8885.0085    8.6513767 
  187000    297.63069    23141.968    42.499117    78.751745   -8884.6615    8.6603865 
  188000    311.33323    23142.692    90.080952    82.377378   -8884.9279    8.6601155 
  189000    304.58088    23096.335    3528.2122    80.590735   -8886.2625    8.6774974 
  190000     289.2286     23108.95    2416.5576    76.528592   -8884.5327    8.6727605 
  191000    299.88414    23162.288   -1454.2959       79.348   -8883.9507    8.6527889 
  192000    302.64202    23147.454   -619.40961    80.077722   -8885.6406    8.6583338 
  193000     296.4572    23135.163    645.38452    78.441246   -8885.3487    8.6629337 
  194000    296.65325    23131.211    860.84892    78.493119   -8884.3331     8.664414 
  195000    301.58239     23122.11    1888.3853     79.79735   -8883.6165    8.6678242 
  196000    294.97456     23163.57   -2005.8385    78.048946   -8884.7221    8.6523098 
  197000    296.13037    23164.875   -1345.6173    78.354768    -8882.342    8.6518224 
  198000    302.03365    23145.423   -318.64961    79.916749   -8884.9129    8.6590939 
  199000    301.03497    23131.525    815.16376    79.652503   -8885.0756    8.6642963 
  200000    304.74899    23157.309   -1679.3785    80.635217   -8886.4761    8.6546493 
Loop time of 206.347 on 4 procs for 50000 steps with 2048 atoms

Performance: 20.936 ns/day, 1.146 hours/ns, 242.310 timesteps/s
142.9% CPU use with 2 MPI tasks x 2 OpenMP threads

MPI task timing breakdown:
Section |  min time  |  avg time  |  max time  |%varavg| %total
---------------------------------------------------------------
Pair    | 146.86     | 148.57     | 150.27     |  14.0 | 72.00
Neigh   | 0.08909    | 0.090128   | 0.091166   |   0.3 |  0.04
Comm    | 5.2404     | 6.9226     | 8.6048     |  63.9 |  3.35
Output  | 0.0015369  | 0.0019898  | 0.0024427  |   1.0 |  0.00
Modify  | 50.572     | 50.599     | 50.627     |   0.4 | 24.52
Other   |            | 0.1678     |            |       |  0.08

Nlocal:        1024.00 ave        1031 max        1017 min
Histogram: 1 0 0 0 0 0 0 0 0 1
Nghost:        3954.50 ave        3969 max        3940 min
Histogram: 1 0 0 0 0 0 0 0 0 1
Neighs:        82630.5 ave       83798 max       81463 min
Histogram: 1 0 0 0 0 0 0 0 0 1

Total # of neighbors = 165261
Ave neighs/atom = 80.693848
Neighbor list builds = 35
Dangerous builds = 0

unfix temp
unfix out_file_1
unfix 1
# # clear
# write_data after_cooling_$T.in
# write_restart after_cooling_$T.lmp
next loopVar
# # thermo_modify flush yes
jump in.lmp ensemble
# jump ensemble


write_data after_cooling_$T_.in
write_data after_cooling_300_.in
System init for write_data ...
Last active /omp style is pair_style eam/alloy/omp
write_restart after_cooling_$T.lmp
write_restart after_cooling_300.lmp
System init for write_restart ...
Last active /omp style is pair_style eam/alloy/omp






















Total wall time: 5:03:51
