LAMMPS data file via write_data, version 29 Oct 2020, timestep = 300000

2048 atoms
1 atom types

-0.5913332694092652 28.94333326940195 xlo xhi
-0.5913332694092652 28.94333326940195 ylo yhi
-0.5913332694092652 28.94333326940195 zlo zhi

Masses

1 58.933

Atoms # atomic

762 1 0.04302410303386639 2.3236990179175256 3.043069516234517 0 0 -1
1539 1 1.2105831217452985 1.932532581792858 1.123949986307879 -1 4 1
1600 1 2.5021126745764284 2.7222517611860058 3.0085537682891257 -2 0 -1
134 1 0.866640586513129 4.501757527257304 1.2649626532562397 -1 2 -2
1953 1 28.59068699516166 3.5349855737881484 0.2702766818865717 -1 1 -1
1847 1 27.192821645101453 5.934331696164993 -0.43739168328926054 1 1 -2
932 1 10.364201841785038 4.961106277282962 0.31246597235633644 -1 1 0
842 1 28.932963705303017 0.21404036179041308 1.9385547036986681 -3 1 2
1231 1 1.7072239388371178 -0.4361803411479551 3.012443640723459 1 0 5
514 1 7.075026785483537 13.0785323025638 9.779954223543017 2 -2 4
126 1 3.776865935680087 0.8176595954812047 2.741951051628648 4 -3 2
878 1 12.653017085506866 0.2781492345465829 11.130021740333135 -2 3 1
1442 1 4.761304071206024 3.287757478742876 3.58232870373 -6 0 2
749 1 8.01522903194604 2.6640181355733548 3.5857571931421015 -3 1 3
1995 1 4.634913311846437 1.4440246310911666 0.04574236859709402 2 0 1
1727 1 6.163262003870463 1.9512688765807802 1.7492247199346216 4 -1 1
1769 1 3.2294173017111403 3.133525861286229 0.6658256620677883 0 1 2
1361 1 8.233992342562551 0.7130966650179897 2.7965271393445272 -2 2 -2
847 1 10.569979604035497 3.456663578370395 2.2408491650802533 1 0 0
620 1 11.412164260655317 1.087995361223894 1.5001909018552433 3 2 -1
94 1 9.063021648291095 1.8800898165525806 0.7357189731113833 2 2 -3
1965 1 10.642761187247658 1.0661633547448803 3.715172843929601 -3 0 -3
943 1 12.42962535876748 3.553006803605836 4.03742651685559 -3 -2 -1
1016 1 11.764601631832484 2.782879476993481 0.04269755504731787 -2 4 2
657 1 13.573888341788326 2.562400827604882 2.468715748976383 7 0 1
490 1 15.94967332365633 2.2220097736645728 1.1322680156500495 -2 -1 4
62 1 13.34656537917446 1.2592497460036844 4.633843295817909 1 -5 0
1048 1 15.336980827481328 2.3852923477905215 3.936311902686315 3 1 -1
1596 1 1.5886990005886354 0.13926414493444705 7.452868832037703 0 2 3
80 1 15.937744753285742 4.194874223694452 2.2763225127827047 1 0 1
140 1 4.66348517476501 12.654620423908032 -0.14149088062882842 2 0 -2
1812 1 14.926903433925784 -0.26995366926244346 -0.007803552826975646 3 -2 1
806 1 7.281433617613222 -0.5713946266775025 13.942055765353034 -3 0 3
976 1 2.637355774952809 0.15391917344531747 0.731913903651952 3 -3 2
416 1 18.496947767541428 3.774801431001973 1.704233144060216 2 -2 3
49 1 26.01710267608721 0.3267559483383049 13.206785258233836 -3 4 0
610 1 20.718683416842005 2.7271730255950133 0.8506956038627405 2 1 -3
1221 1 17.748040797931242 1.0584273071115582 3.0217042450428315 -4 -3 3
1748 1 20.497025031965553 3.942899679297371 2.81736250170209 -2 -2 1
1393 1 20.395205039852335 1.714258256665253 3.6132643752411067 -3 0 0
1523 1 19.128730413432788 0.9862468881720365 1.1468792588674912 -1 2 2
1463 1 17.98754543612713 3.4543362388090406 4.011972600179634 2 0 -2
796 1 6.490698510604785 6.2954384490220985 -0.5069454370195287 4 -1 1
276 1 22.657455468847505 1.9573108885617692 2.4070313944461845 0 -2 1
565 1 23.954335672960973 2.8641514038091813 0.06275964535221756 2 2 -2
751 1 25.35585778750331 1.329019513091438 1.1293224586574326 0 1 2
429 1 24.890966772300565 3.6938740579945524 2.3118287706096505 -3 -1 1
629 1 21.246901338004694 -0.0034608359743213413 1.674019172891184 -2 5 1
1691 1 27.160601883324116 0.47848087710295295 3.7573782329860617 -1 3 2
677 1 27.984525712634078 1.3352463523268676 0.19384177468376784 -3 -4 2
1517 1 26.066374026501602 4.195615390524133 0.4201920613234993 0 3 -2
131 1 23.722149347315842 0.07628107597972178 1.9959797047271577 -1 2 -1
795 1 27.328116342014674 2.2487315567357524 2.4197410891907607 2 -3 1
1365 1 25.64398488178832 5.047590553220707 4.551375206628565 -4 1 2
1783 1 22.007812616666477 6.072703888628189 -0.5423260784709348 -1 1 2
921 1 1.0281874624064158 4.458402860980944 4.130567339961603 3 -1 -1
747 1 2.0590584888555585 6.05253155826165 0.1323408099951816 0 -1 -1
73 1 2.641997266955154 7.240155796129954 1.9529704756560307 2 0 -2
658 1 3.083544981004396 4.816577450784927 2.646825398552213 -3 1 3
894 1 1.6270474590102202 9.208161651647671 3.390717097834602 -1 -4 -2
1826 1 28.351114622819765 5.996034507114394 1.6457262069213923 -6 2 -1
179 1 0.6551780671208607 11.040355253197404 0.2192601007359548 3 -1 -1
866 1 7.434669014785522 10.17249267201094 13.215779422241727 1 -1 1
431 1 4.880322797412562 5.77716088334145 3.9215394408130377 -1 3 -1
1359 1 4.451567873737707 6.443589025217833 0.8547717250665419 2 0 1
1633 1 24.018255448578326 4.341123589247293 14.16861047653129 -4 0 2
1266 1 5.8649375488013105 4.292291572526237 1.713974850577849 -1 1 3
941 1 8.490851504636266 6.975085266060959 3.1851307383259675 2 -1 3
1499 1 6.06134188925127 8.371472177585062 -0.09848695665343055 1 0 4
1021 1 6.824827110415085 6.2231395759078545 1.859960423587287 0 0 2
426 1 27.99199059025042 0.37827782956003875 8.050664999547624 2 1 -2
1438 1 8.515649611969751 4.659960511577375 2.542009771737328 -1 -1 0
1216 1 7.748764199329676 4.020642539157063 0.2733968888302909 2 -5 -2
823 1 12.596298975069846 4.594434495135926 1.5371517652369908 -2 0 -2
1501 1 11.446294195564196 7.1528598185879435 0.793881517285304 2 -1 3
2 1 23.498278698410765 8.611799402811167 13.094164338707312 2 -1 1
1456 1 11.018049304362282 7.943211150980854 3.091798279621203 2 4 -1
1851 1 8.904686255938634 6.521412781007092 0.6449094583916253 -1 -2 0
1687 1 14.33818234306879 3.9056318783584043 0.2978113788316398 1 0 -2
639 1 13.69240100987603 6.435956813475747 0.6120502226781521 -2 -3 3
198 1 16.95001677884387 7.782161724288606 1.9359366675633711 2 3 1
1514 1 14.55639296365956 4.724775722862855 3.766967474532777 2 4 0
2034 1 15.112834437962565 6.895606772232429 3.0896819538963176 0 1 3
1370 1 17.28377296682676 6.365941775342924 3.8868218392337965 1 -1 1
1098 1 12.60618580270026 6.143202999798246 3.581180343046608 -3 -2 0
1991 1 15.60425606323976 2.5344076439038092 14.142122671815246 1 2 1
164 1 15.939367341060684 5.993521586368933 0.8405009057738342 -1 0 1
1941 1 18.27714651089009 5.885097962602508 1.4503214984056072 -5 3 1
1330 1 20.647540687733414 6.612592901950507 1.7575282930158327 -2 0 -2
1210 1 18.433959953541883 7.796551352878181 -0.019127274134728145 4 0 1
868 1 19.187581727121437 5.5312474962991045 4.633535168896567 2 3 -1
962 1 19.155620765823247 7.792932382611829 3.9297613636763424 -2 1 -1
1979 1 21.668251221496153 9.154055703162053 1.837210853603303 -3 -3 -1
1890 1 20.86989861816261 10.835234501609362 10.399113430212791 0 1 0
1409 1 12.515599615753107 -0.07303233030562417 5.99590859879722 -1 2 2
196 1 21.534975648713488 6.336235296616695 3.8472329716690483 -2 -2 0
1346 1 22.80361830837969 4.824855733465153 1.0090273740703595 1 3 0
1595 1 23.420911925456718 7.675035257024762 1.4403623186510237 1 -1 1
1274 1 25.74849202533746 6.172454349454767 2.140993243265853 -1 1 0
1732 1 22.77051552993748 8.783201272038482 3.7865700653166554 -2 0 1
890 1 4.056496774445362 1.08767431521933 13.909745640905516 -1 0 4
132 1 25.43801441919893 8.330406532016289 0.09761301433973235 2 -2 -1
1961 1 10.280334978170043 13.124441662103116 10.177494352691857 2 -2 3
352 1 27.64581735504928 4.426773449211284 3.0441463921142633 -1 3 1
818 1 27.332673391438902 8.073996309886818 1.1773985997079135 -1 0 0
541 1 25.597264113595443 8.229331809538253 2.7926155747790378 0 3 5
1702 1 27.495521719843378 6.7886544673708045 3.5447827990915064 -1 1 1
407 1 0.5077901177771433 6.652491985223495 3.307712654696641 0 -1 -1
1471 1 28.884686345825582 8.725043740478089 4.114554122875928 3 0 2
706 1 23.194841142613434 12.085353155700957 11.724797542956667 2 0 -1
1296 1 4.193740765067872 8.673152266597727 4.134982473343919 1 -1 -2
420 1 3.096874951639316 9.589956049232534 1.698075959118055 3 2 -1
1948 1 1.6228852834430598 11.423581460915234 2.732518574240819 2 3 4
1089 1 1.1970092175049805 8.596469009874921 0.29159808488741423 1 0 0
1253 1 -0.005447943155875823 13.793285671067425 2.145104836174828 0 4 -3
600 1 2.087196280033716 13.003577198748848 0.6037204125799409 1 -1 2
970 1 17.122080604767355 4.34222694021678 -0.25406308402405053 -3 0 -2
1636 1 5.56473152212091 13.171264917281649 3.292856641879778 1 -4 3
233 1 4.003416514654349 12.206280738690035 2.1437007221662236 1 1 0
816 1 5.2267478428389085 8.18239131883322 2.2326785739715875 -2 -5 0
1623 1 20.584024867239034 7.726981851519142 14.096363069755105 -1 1 -1
419 1 5.634747213668453 10.516293725226213 3.1935192361627083 -1 1 1
55 1 7.982994506950346 11.285348291307987 2.480364341553374 -2 -2 0
864 1 5.253578927636722 10.655983456651263 0.8223815584757821 3 -4 3
850 1 3.901380156194821 13.666381130240158 5.3803981435415364 -1 3 3
897 1 7.627916173010437 8.823449737120763 2.262306424789073 -2 1 -2
1211 1 17.209134788449806 -0.049385222576018295 0.9426944665397863 1 -2 -3
1308 1 10.228541600367752 11.750710729704139 3.5766519381290998 -3 1 -2
75 1 7.752032124427865 10.721861161373985 0.24158576681334476 2 0 1
357 1 9.109889291470543 12.675509911309907 -0.15886827451158475 -1 2 2
438 1 11.45025966380055 11.528807202581968 0.7041098810903634 1 0 2
1052 1 9.9170247337221 13.32614425120097 2.2085825341156484 2 -1 -1
1129 1 9.812748187913977 9.969642006440946 1.5944323466903652 0 0 1
936 1 14.747211374559875 8.354358504946422 0.9941435001199501 -1 3 3
1397 1 14.876630319088287 9.610835850329702 3.6085092329548303 -1 0 -2
1915 1 13.774378379254085 11.069076669667371 1.2021703164474 1 1 0
1441 1 12.799782678378358 9.215992816528432 2.1197611200666113 -2 6 0
2035 1 16.666275546843377 10.693483195554087 2.5278243388711124 1 1 0
2017 1 12.275122294008005 13.083662601716865 2.2870183272096605 -1 -2 0
839 1 13.959729822633495 13.707176078006459 0.3285558969920106 3 -1 2
1037 1 11.734713049242782 9.491673091050549 0.16023960490921862 0 -2 2
742 1 16.04233494319939 12.480929353444793 1.200154338920454 -1 -1 4
328 1 1.5394796757484412 1.576922137913177 14.142377407137717 -2 -5 -2
182 1 17.03078312835539 9.602597057011513 0.2887187642989246 0 3 -1
961 1 18.628231089293145 9.604305272130414 2.1074742090982466 0 -4 3
820 1 20.33353313515357 9.573842190831284 3.99747950069798 1 2 0
1305 1 17.13164901735396 9.186968392562852 4.370874897609735 2 0 -2
1446 1 18.320421280849235 12.447501806018218 0.972582132912944 -1 4 -3
919 1 18.436222672413745 11.503789423044461 3.32649816061886 1 0 1
1035 1 19.864075170769258 13.449152966532305 2.718490879339814 2 -4 0
2015 1 21.66484222104526 13.750084383941024 1.2390271651341216 1 3 1
1312 1 22.872989073229085 11.015398272488124 2.850191600508152 -1 -1 2
1261 1 23.492136535528196 12.267303245996617 0.7482884115100439 1 0 2
1039 1 24.92408187459546 12.559622651431225 3.4317177217801067 -4 5 1
1159 1 20.306972875440362 11.138401386559684 1.7648185194898378 -3 3 -1
1196 1 23.87839272725066 10.472500047250964 4.831167594606552 0 -3 -3
997 1 24.296130026088097 6.050997762377661 0.036365369840735684 0 -1 1
2009 1 24.549220058257987 9.95249340506547 1.796614502406491 -3 -2 0
1739 1 28.781037219466075 11.046194494124242 3.6187776021789215 -4 -3 -1
53 1 28.191058311294665 12.084395249199181 1.4464208544939 5 0 1
1348 1 -0.4069603696354263 9.368857379060673 1.6556057348952242 1 0 -1
716 1 25.781406360786942 11.953196012365561 0.8418908334538935 0 -4 -2
844 1 26.665492575396406 10.485873985345583 2.757763350776632 0 -1 1
1090 1 27.414886052196763 13.03232560420128 3.3716578388022787 -3 0 0
1667 1 -0.3833215889411755 -0.5165793616088702 4.132065333811737 0 -1 1
645 1 1.400725352415058 1.590510014465278 5.023018431452815 5 1 3
1480 1 28.505289502854716 1.192290004468633 5.740071449915085 0 1 1
308 1 0.588606228332393 1.9553322521911283 7.344215874259576 2 1 -4
1750 1 28.87799450970773 3.5313616867718656 5.983309905512478 -3 2 1
488 1 2.294353357696151 3.270493125030161 6.9607157367557235 2 1 1
1172 1 9.635424241621095 0.3840684355824725 13.765987533456496 1 0 -2
1435 1 5.697100346100322 0.7411867961887475 3.6618641962402974 -1 -1 3
571 1 3.6766486120080026 1.4370436893024472 5.2332708368395116 1 0 -2
1260 1 3.187356103858897 4.248289409992621 4.810041055033187 -1 1 2
1486 1 5.308596655523269 2.7536188117252482 6.1768300541377075 -1 2 -4
178 1 5.73645203347581 0.38815134594652434 6.197012696209697 -2 -4 -4
2006 1 4.04596371877555 2.1710128962219035 8.090430605767914 -1 0 0
1556 1 6.731325264439673 2.045694552332192 7.652411488739139 -1 0 2
74 1 2.8981317945476706 10.783152439664406 -0.39763637602278923 -1 -1 -2
324 1 26.02800757488176 13.15709659713282 8.528255850784237 -2 3 1
854 1 8.251272612548739 0.9420707465590044 9.321823413868653 0 2 4
1395 1 8.425015929697652 1.5187765140669907 5.46568848422797 0 2 0
705 1 12.808129034027413 3.2348124419852318 8.30606141034335 3 0 -2
670 1 7.413208332578181 3.656611450554756 6.286820745933115 -2 2 -1
826 1 10.104090444396142 0.483484083822026 7.401190882607217 2 0 1
1125 1 10.23836401681196 5.44359352788053 3.659014802040062 -2 -3 -2
1564 1 10.047928246893443 3.2343947422233184 4.656389215126822 4 3 -1
597 1 11.827199604253364 2.2131326184716524 6.423226888142363 -1 0 -1
693 1 15.123709778558368 1.978902305451657 9.006844388573638 -2 0 1
1698 1 13.36319550917884 5.439342837809025 7.796625219151686 0 0 3
1372 1 14.149644319504729 1.5168440646644923 7.0153262382875035 0 2 4
327 1 12.916523591973995 0.7637396262033911 8.786549021190542 -4 3 -1
1195 1 17.160069807726 0.6663507123913863 7.798561457742116 -3 2 1
1045 1 16.56029799914974 2.382279560615543 6.061022153931479 -4 3 1
1466 1 15.715712572824952 0.3620748784640003 5.22127417762579 -1 2 -2
1840 1 15.491698902807311 3.980266905122396 7.776343738893193 0 4 1
1245 1 18.97358161081615 0.13085528162811944 5.17796318414629 0 1 2
1943 1 19.877786117872073 1.455196222870644 7.6208951455113265 -5 1 -2
145 1 20.08566120071214 3.1616863786731777 5.298658451407869 0 -2 0
1066 1 18.14301464098571 4.1264007211034475 6.8159292881837645 -1 1 0
215 1 22.262217440712327 1.4064650916892822 4.800712605388878 2 3 1
509 1 24.11508846205015 1.3137966464112416 7.607733427141742 -1 0 1
1004 1 21.948040573285677 2.204156755612402 6.784833120146444 -1 1 -2
1854 1 24.356214452737056 2.9239573867708493 5.938635635308015 -2 1 -1
1051 1 23.940614203567257 -0.32975531068552943 5.389901160828073 0 -2 2
1199 1 22.6256052820237 4.146952685405244 7.7031392374824925 6 4 1
1062 1 21.181584473201198 -0.4017453877795151 6.297623731158645 -1 2 -1
1027 1 11.106723897802231 10.971736001278035 14.038577387816812 1 1 -2
1192 1 24.4672658054175 1.5314504784483942 4.027812967435291 -4 2 -1
1417 1 28.202003475213115 5.390011296909471 5.088133011464002 -3 -1 2
879 1 28.545436910765318 4.556799204383349 8.187311387288833 1 3 3
1349 1 26.419881877996566 2.7473752370151248 4.565781518708326 1 -1 -3
788 1 0.7220836916866558 -0.5589029380046527 -0.5736739501191808 2 0 2
792 1 25.87602667780138 0.851751958727786 5.8585302277199345 1 -3 0
1715 1 13.513072064214775 1.5392074143993857 -0.010232739783123446 0 2 0
63 1 25.88841987437972 0.49305050048031984 8.879005290797805 0 0 0
1827 1 25.06407740008038 3.945875336631347 8.023713463031601 1 2 0
871 1 26.95671006538347 2.7289446786794103 7.207767944966313 1 -1 1
1074 1 0.3399499231804074 6.656548764684577 5.726959979929734 -1 1 3
1609 1 2.7407652411213896 6.5318992585113715 4.2357346874185 4 3 5
1644 1 0.8179552749785466 5.662134933779993 8.471998254243747 -3 3 1
1406 1 2.222149657792923 6.311964518263199 10.336615580538076 4 -1 0
1254 1 0.5073108624872156 8.72848952169123 6.724566616746017 -2 2 1
2002 1 2.477254802551959 5.700885489047194 6.571402387853024 0 0 1
646 1 3.034574919840769 7.199956033727501 7.987490062651204 1 -3 0
648 1 0.6626289831132635 7.767825706944395 9.124999320438945 1 0 1
101 1 2.4421460451068877 8.68033088288111 5.5501681438348855 0 0 4
752 1 4.810557526645373 4.94382015858101 6.431614381913332 4 -1 1
778 1 6.8300370429290345 4.851901090741805 3.99494231648172 4 2 3
1215 1 3.424182120184054 4.966453328021908 8.770824332717329 0 2 1
731 1 4.725781299161065 7.532726461199228 6.2708014185836145 0 -1 0
1272 1 6.662008124078149 5.894338182487593 6.020920452044224 -1 2 3
532 1 5.784060339778931 6.349291431242958 8.483426783961384 0 2 1
744 1 7.881733761876834 4.985603373777069 7.8701188807622255 -2 -2 0
1726 1 6.755079825172472 7.863019022192358 4.4075542824105725 2 2 2
1858 1 11.192738184019886 7.118047581275362 5.577831005178531 0 0 3
294 1 9.99837491927668 4.853748971032041 9.151252580553255 1 -1 1
1478 1 9.052701624645115 5.696916844480892 5.711440428533968 0 -2 -1
988 1 10.75139728921485 6.096115705677807 7.478167590137975 2 1 1
1753 1 8.760042262935231 8.151894075231649 5.698812398834614 1 1 2
1967 1 8.854143425307083 7.865726013102838 8.12680231414813 2 3 0
369 1 9.307813838293532 2.9081850322853935 7.348935157988905 0 2 3
1688 1 12.132051169178732 4.85080495496456 9.94150826398984 0 1 -2
1755 1 11.65090524493428 4.551084810162358 6.050138337577937 5 2 2
601 1 14.138062768876726 3.6333411184285778 5.654607635745748 -1 0 2
1186 1 12.754327544495833 2.5108768948882463 10.443057326644295 -1 3 0
1791 1 13.544627106517078 6.080529132055357 5.569796185116361 0 3 -1
1885 1 13.049794072160065 7.595359794804946 7.290576694423806 3 -2 0
1285 1 15.197383083514053 7.727112278028818 5.332444633676813 -4 -2 3
903 1 14.735708356302501 9.165647831360234 8.069757833963287 0 1 2
2000 1 15.402024190622155 6.5128797886382275 7.653931459841802 2 2 0
624 1 16.004244555654786 5.414422314018337 5.607799886311025 -3 1 5
1153 1 21.314365107587502 5.010081330907279 5.789664743997159 1 1 -1
1893 1 17.98232695226337 7.067284331935848 6.15528523725745 -1 1 2
151 1 20.15883831462342 7.625330271913887 5.895085207213356 -4 -4 0
194 1 18.58639616052818 8.204395679535608 8.24247847825316 -2 0 -1
1380 1 20.174536766082966 7.97430813704495 10.326073342536931 4 2 -1
12 1 17.300553062085395 5.795555628755598 8.358472016328731 -1 1 1
1198 1 16.615823317535007 8.90465552626334 6.741101750494162 -1 5 0
1758 1 22.570961421093735 7.338157525086179 6.185586038204842 -2 -1 -2
338 1 22.748809768448417 3.715913703088683 4.176367600655165 1 0 -3
209 1 23.57295875812477 5.972056669321958 3.080215173755326 0 -1 0
998 1 21.566506702270225 9.922726753340239 5.864209796826223 1 1 4
454 1 20.65553291271727 5.852329050457385 7.8129773715506605 1 1 0
914 1 24.745192575420603 7.4029070539883675 4.812160019383589 1 -2 1
1631 1 21.02203936656652 8.592869862163038 7.921493786708471 2 -1 0
1699 1 22.988030308762973 6.828742654723313 8.398179838037564 0 1 -3
768 1 24.388657636195468 8.695320816879317 6.685888091991019 2 -3 4
502 1 23.788846587170266 5.5221541289232 6.358765889182001 2 0 0
1987 1 28.12648350869631 6.912627068679024 8.153320049518443 2 2 -1
1888 1 25.37010926434038 7.034451322400954 7.732829378972362 5 0 -2
193 1 26.669201370601964 4.851891192376872 6.878461340290248 -1 0 0
1883 1 26.853051583358376 7.117561364630478 5.931528952657757 -1 1 -1
337 1 26.678749277418007 8.20668799259376 9.640357678634892 -3 0 2
896 1 3.6426683389114265 11.32937018383757 4.393129521835684 2 0 1
500 1 1.597766955099671 13.25941312229938 4.633508473752629 2 -2 2
992 1 1.2549475159583647 10.930567371520262 5.336978805523859 1 -1 2
497 1 28.525593307049274 9.759785641461129 8.817407730112066 3 1 1
445 1 0.9153463114729461 13.248719458491196 9.26351686633869 -2 -1 -1
1226 1 2.311931666284998 9.540756371467493 8.666584964765542 -4 -1 0
304 1 3.051419033054048 11.94257163057952 9.100816310524026 2 -1 -1
511 1 0.5353819454518944 11.404964184989185 7.295511477705969 1 1 3
253 1 2.611427540445994 12.313973931458248 6.907563155695942 1 5 4
279 1 25.760927557971513 12.027753135322236 11.061999769382 -1 -4 2
1587 1 22.741491646922032 0.710766585340411 -0.2954047248271348 -1 3 -3
1629 1 6.859410875161696 9.431089494480826 6.951987572847922 1 1 -1
7 1 4.599061719491529 10.121256761881952 5.9826379697005105 -1 4 -2
986 1 5.913982142867207 12.02621046496501 5.270190564632925 3 1 1
1472 1 5.777230357992852 11.159831648509398 8.284992946070627 1 -3 -1
9 1 4.661789080846484 8.7280862979527 8.26615622343805 -2 -3 0
1187 1 4.6813107212575575 12.42247616495578 10.509434811876408 2 3 -3
2046 1 9.058475388315271 10.339648754998716 7.398432466372221 0 -2 1
1594 1 4.645598754795666 13.529223187375884 7.9927790477253335 0 2 0
306 1 8.430190592451936 12.17166935088115 5.124251918412309 0 -4 -1
1259 1 9.797645633359519 9.60303927261259 4.351346710308844 -2 0 2
1415 1 10.956775033549574 8.947025328363084 7.219948955345077 -1 1 -2
197 1 12.253821094707286 10.647218955015473 4.505230581114151 0 -2 -4
1811 1 7.340778450465836 10.00600079209219 4.69732608424578 1 1 3
770 1 10.701851419088717 11.690254582307961 5.733733728055444 2 -1 1
974 1 0.8851372362329055 3.793195005059385 13.06080306490831 0 -2 -1
105 1 14.029762181979287 13.86513955053894 7.946463187845522 -3 -1 1
566 1 13.062083230940146 11.355350278957212 7.268457135904746 0 -1 -2
271 1 11.884607301221005 13.590811897055 6.526724364774171 2 -1 -3
387 1 13.954574215163579 11.829108434623052 3.270708889704622 5 -1 -2
612 1 14.261824024331741 10.250102700447156 5.630411063107645 3 2 -3
507 1 12.918445500476341 8.400772484942678 4.676766523878707 3 0 -2
1121 1 15.180190881323696 11.454896849602957 7.408711152160324 1 -2 -2
1239 1 14.214382611089569 12.888876982740035 5.243332506869746 4 4 0
186 1 12.797002277210272 12.63925637252561 9.559804449069844 5 2 -1
1580 1 19.328048588706025 12.508283416534955 9.186279538022944 0 -1 3
1653 1 16.24805785094093 12.748029186169726 3.5896878015591147 1 1 3
1337 1 18.65761950369797 10.183193900942754 5.668808122040721 3 1 0
547 1 16.422117425556486 11.240320187094511 5.391398103134006 -3 0 -1
1495 1 19.592920551271675 10.400341389317925 8.084064795273443 2 2 0
1364 1 17.980221566053878 13.335719381324608 5.204757910725539 0 -4 0
1784 1 19.639090287855733 11.981634982186867 6.393731284708351 -2 0 0
957 1 17.656015051880424 11.386654428171196 7.641098477206425 -2 2 2
412 1 16.224982088334343 13.474989756443625 7.001894672811289 -1 -1 -3
277 1 18.656247999841284 13.957177551949897 7.465607522497276 3 -2 3
1887 1 24.322853802250286 9.908438353420772 11.020090230380147 -4 0 2
1283 1 22.76821300917995 12.109431952228235 6.1107641658402265 -4 0 1
1112 1 23.83320741287617 9.523339424736124 8.526665462260155 -2 0 -1
187 1 21.761795937809314 10.98169461505866 8.141819773199082 2 -1 1
1077 1 21.07652645598452 11.919918476056898 4.09213686701534 1 0 2
1142 1 24.858617753150938 11.23048952047904 6.874788869816804 -1 -2 -5
133 1 21.224310881136226 13.27996144625187 7.45723583112426 -5 0 -2
404 1 23.767990216470746 11.88633582643118 9.287094899098344 0 0 1
228 1 0.7931485735799184 13.932726777228325 6.9351282686201134 0 2 4
1042 1 21.55751197420568 13.050448315894847 10.007277734057292 -5 3 -3
211 1 24.360895648625334 13.870322564141473 6.4671913623232005 -3 0 2
1152 1 26.639013353122056 11.50497694705241 5.159139494749455 2 2 3
57 1 28.828355395201516 12.547825740269548 5.37328518847541 -1 -1 0
1430 1 27.57229760084186 11.94292948904747 7.252421616331475 -1 2 -1
1863 1 28.69621466546401 11.749589793770932 9.744738943835117 -2 -1 -1
1843 1 28.148789654824416 9.979155893466713 5.858566950299423 -4 0 1
2039 1 26.238376039941897 9.163297748483064 4.745634179461818 1 -1 6
1482 1 26.714609701147964 9.017964175351224 7.499625757229644 -2 1 -2
1666 1 27.046328395621998 13.896031249883402 10.548849789822146 -2 1 2
1473 1 1.9606137170110136 2.280595433525633 9.07402439771309 -2 2 1
950 1 28.260346852411715 2.86112114973912 9.676880276826335 -4 2 -1
68 1 2.013601248425808 1.6074091137395725 11.290724845643755 -4 -3 0
1476 1 0.8132359322406157 4.011586071417161 10.283846216186367 5 2 1
456 1 4.368131439184758 3.070858312934493 12.567889743117853 -2 -1 3
1867 1 0.18865803914228618 1.0244994223743862 9.676952686496174 -2 0 -2
723 1 -0.2359350288426879 1.8578320948625362 11.717852058501322 -4 -4 -2
570 1 28.487574408880416 4.387877866659579 11.842806889483077 -3 -2 0
958 1 23.602927256686982 13.677925183425705 13.407241127404802 -4 -6 -1
1356 1 6.054113062876286 1.641170359398282 10.247126002618263 1 2 2
1518 1 3.351560304981865 0.22971927422696792 9.532893227542699 0 1 -2
1868 1 4.237027480481473 2.9978040701494493 10.346321003682812 0 3 -3
549 1 4.289258622936332 0.8765822049532552 11.549495743285473 1 -1 1
1265 1 25.13459703724564 10.905367782544289 13.072924623536062 -1 -1 3
1270 1 7.880046688631936 1.0108653205691098 11.964082333120611 2 5 -1
2018 1 5.5522176839575845 4.053821508324806 8.515549491798524 -2 1 -4
990 1 3.156727673640981 14.09188821312566 2.9736429653147516 0 -3 1
766 1 7.598366500146874 5.473339826501046 13.666398026464957 1 1 3
1176 1 22.15274051135583 10.462185495464684 -0.2934126394406672 -5 1 1
1111 1 8.053150916192413 3.2910280856185703 9.635075845408085 -2 -2 0
64 1 3.8819368732469295 -0.5692329781804624 7.207860197978664 3 -1 -1
1730 1 9.841594822337944 2.5788705889471095 11.389326868688356 -1 0 -2
366 1 6.628824318255045 3.8618759129969034 11.771250505879435 -2 -2 1
1235 1 10.334852998548278 0.245122952533409 11.340093915579578 -2 2 2
1786 1 28.868278059482094 0.3534627843639292 13.622322999569967 3 -1 -1
1 1 8.890379905003789 11.774577232725466 14.022102774767053 -1 -2 -1
260 1 10.82923029279002 2.2778842751494266 9.134176910693455 -4 -1 1
1589 1 14.877473892319355 -0.4473082660576545 10.423623467669955 2 -1 0
1019 1 17.997451313825888 6.527039539606023 13.081782670515496 -1 0 3
1743 1 11.410863304862712 1.893769149184938 12.819975560428784 -2 -1 -1
1525 1 11.803799837457747 4.283944068085753 12.20371096310563 0 1 1
1862 1 15.437131299085937 2.7866801767827902 11.381797612131553 0 2 1
1227 1 13.70679946728094 1.8836102448473873 12.77108074352805 2 2 1
1754 1 15.654831893391425 0.7892590946345062 12.448747843339616 -1 -4 3
819 1 16.992838848828736 0.6247880592706165 10.121622601352033 -1 -3 3
1929 1 13.939170935651582 4.416749486370518 12.263077657547708 -1 1 0
347 1 19.962245568631257 1.6369688833610119 12.710537498202957 0 -3 3
1938 1 26.923517612084616 10.083402696546038 11.088113067929202 -3 -3 -1
1904 1 19.190912407929154 1.7842967295500873 10.442708854525693 4 -1 2
1136 1 17.59583681327891 2.820701868520247 9.375306516171804 -1 -1 -1
227 1 27.510356521819396 12.132013141372786 12.738329736863259 -1 1 1
1977 1 18.888499609604175 -0.3669390666348826 12.058361849444957 0 0 0
210 1 17.60999458671281 1.8027319874323071 12.302121612212416 1 2 0
1801 1 22.08613005117717 3.049052989441047 13.510813453557875 -1 -1 -1
1597 1 21.651075875204775 1.4245443474605155 9.346200560685352 4 3 -1
1268 1 22.098101286528998 3.5752048358711335 9.897836147811503 -3 2 -5
855 1 23.516453640280947 -0.08019539871722714 10.131965080701145 -1 1 5
720 1 21.217597748206437 -0.1792192658084072 11.708158321053883 3 0 3
155 1 22.46503220101179 1.7903106606383554 11.699755378382896 -3 2 -1
323 1 19.951126488097216 3.7886186263882875 8.366976230358972 2 1 0
1487 1 25.11011928024098 2.9640578682911465 12.964845720627219 -1 2 2
1206 1 26.12842422510154 10.721917458171013 9.019280093465829 -3 -6 -2
856 1 24.486136461441493 2.0897026091963595 10.28797609873374 0 1 1
1682 1 26.64476664770945 5.169570867228533 9.39872484765662 -5 0 -1
1895 1 27.039168325769293 1.1751871001152472 11.101389667511661 0 5 -4
1333 1 27.359848809651925 2.4945303275463635 13.156898735624685 1 -3 -1
1896 1 26.267819537029172 3.580454839237172 11.038232926617681 1 2 -2
859 1 0.9972970027119974 8.412167242244646 12.837052717225935 3 -2 5
732 1 4.602689693841811 7.440608715208034 10.48280893615346 -1 -2 0
1746 1 2.78112125621208 4.6088135257020735 11.855489957024245 -4 3 4
202 1 0.6451667600630624 6.055645063053634 12.375658182182622 -3 2 -2
1234 1 3.026422092132904 7.453664565769881 12.5422779358096 1 0 -1
1848 1 27.310409141296223 14.03274488258291 0.7607283497486468 1 1 0
978 1 2.3750036930631824 9.050311638571335 10.88240069175843 3 1 -2
1790 1 28.66893826424726 5.294699249572607 14.145011853181664 4 0 -1
1165 1 4.9093176130752925 5.387938419625588 13.363719056593593 2 -1 1
492 1 5.005361266703618 5.110239539778431 10.774757595820311 -2 1 2
461 1 6.54339804587597 6.758921238248362 11.96717176998927 1 -1 1
1830 1 7.892116974584177 9.387078558567943 11.31734051780625 -4 3 4
1031 1 6.678730132808727 8.361193660204384 9.722404937931152 -3 4 0
835 1 7.780830920186256 6.114861738224199 10.157080272923542 -1 3 0
580 1 9.533410453143532 5.005846064674579 11.786236943837189 -1 2 1
1107 1 10.19853768298931 4.238612403253892 14.069363057012263 1 5 -2
79 1 8.461910238205617 7.820257781520098 13.067207802762464 -1 4 3
748 1 12.426900310823134 9.506431815005968 8.75863205831833 1 -1 1
564 1 9.503115596666852 7.528297996546227 10.537885857587394 -1 3 -1
777 1 11.501837187642822 7.3229600903557674 9.44039270310648 0 -3 1
1975 1 11.219682235898016 6.6217631773926575 11.893816050734522 1 1 -1
1918 1 10.438301917702065 8.80287527333967 12.026459934319877 0 3 -1
1502 1 14.076812157665664 7.34837361398835 9.622806899644402 4 1 3
1787 1 14.817960168745051 4.682518408938438 9.690966294745078 -5 3 -3
651 1 13.365509896500376 6.215554429472685 11.163124911082562 -2 1 0
1861 1 12.558898911925798 8.864131779486994 11.148044063766795 -1 1 0
522 1 16.443535650248673 8.38418826880027 9.423932740491137 2 -3 -1
733 1 22.915691972140912 13.41343291361242 3.4496998243530648 -1 3 2
510 1 16.508232516177074 10.323197756398912 11.414875119983254 0 1 -1
824 1 15.504863766130594 8.21193426957846 11.457872477526289 2 2 0
1768 1 24.098032279864473 0.5735641033235668 12.696856063801539 1 3 -4
43 1 19.062702733141442 5.492504407046503 9.769025072158957 -3 0 -1
1936 1 18.618941953380453 8.580947804029226 12.1566924669003 -1 2 -2
466 1 20.212210282560193 6.3705781938389725 11.900356306746893 -3 -1 2
1497 1 16.722948311397186 6.300388262960067 11.012043283919718 0 0 1