LAMMPS data file via write_data, version 29 Oct 2020, timestep = 300000

2048 atoms
1 atom types

-0.7050452641985565 29.05704526419332 xlo xhi
-0.7050452641985565 29.05704526419332 ylo yhi
-0.7050452641985565 29.05704526419332 zlo zhi

Masses

1 58.933

Atoms # atomic

187 1 0.7658206969507781 2.095520900092452 3.60550638673931 2 0 0
1126 1 28.24897612042462 2.748201007800016 3.3290235459335653 -2 0 -3
1216 1 16.57553031018153 13.252210933796148 1.3255182252381221 0 -4 -2
40 1 4.69150145792178 1.1178155030529153 2.9036137385505905 2 3 -2
1030 1 2.2456472924995774 2.565193635682102 0.9598249648057622 -1 0 2
1211 1 1.9291441075413953 4.429013500344916 4.20705455336493 0 -1 -1
906 1 2.1818465559464966 -0.45193402499466434 9.421758840217226 0 -1 0
689 1 -0.6460818580752905 1.500868931609947 1.4202855128340048 0 0 3
44 1 4.025100156812447 1.4128359097036043 -0.5833592603092537 4 -3 2
174 1 3.88512523894733 3.477065276470812 2.155823650139217 3 -2 2
1513 1 5.874412038039916 4.3810800609325975 0.7682108744735232 1 0 3
2036 1 7.316211910709619 0.31461918552338 0.07465305095199926 2 -1 0
18 1 6.054367950591119 2.929163767237514 3.4500752260163035 -2 -4 -1
1730 1 5.0226335172747225 -0.03824132433227423 12.438911674435998 -1 0 -1
152 1 5.642360118519193 1.8862431084016236 0.8882702129879145 4 1 1
1504 1 10.019454438834789 3.01677097695578 3.122706122924452 0 1 1
1121 1 11.753564696001547 2.692992051125395 1.3675146061398742 0 -1 -2
1068 1 3.349897985013155 9.79490277003241 12.489860444907988 -5 0 1
486 1 22.622526658621602 -0.16759908311524763 13.108005117579683 -2 0 -2
1191 1 8.103539009722466 3.248925672915305 0.24447854197685137 -3 2 1
2022 1 8.132943852255494 1.6719672001511188 2.019304488783314 1 3 0
1627 1 13.600556319370554 1.4117150048911848 2.3603148598825734 -2 0 1
329 1 26.795923674721596 1.4275653189591093 13.226403677782708 -4 2 -1
1909 1 6.044111689248864 0.8026402149751393 10.512311046467714 2 -1 -2
1659 1 14.724149051057903 3.4991388335921894 3.3044034536251434 -1 0 1
1693 1 16.74207083483362 2.107144324585023 3.207523870052426 1 2 1
1074 1 22.169962898990534 10.812059517507029 -0.4562569611901853 -2 0 2
1494 1 15.764555005361736 2.8452861256650177 5.626899543640813 -1 1 2
610 1 12.211686698406801 3.4508004021131518 3.5726684722978117 2 1 0
582 1 27.593912226747648 13.844107255768787 9.755699024617245 -1 4 0
709 1 14.770194921829786 0.28463882907213656 3.713197574646882 2 1 0
834 1 13.925237847382505 2.4505666338345717 0.4643653859999055 0 1 -4
1598 1 2.6315403038592597 14.08624402003587 3.066215969034531 2 2 -2
209 1 18.034192170924587 2.4960123370444456 1.0093808192923084 1 -1 1
694 1 19.376969266318316 0.9857869840392259 -0.3296447432598527 -3 0 2
1543 1 -0.3431005232025796 -0.28560593471674345 13.344624618092022 1 1 2
319 1 20.910756055245876 1.05543597405547 4.405165981614424 -1 1 1
217 1 15.743039659164161 0.7358561527107652 1.3738864335848877 1 2 2
1625 1 18.744105111968395 0.6304860843540074 2.9770730487823447 1 0 -1
1456 1 19.94194127975513 4.99623863749476 2.670101575234027 1 3 0
1803 1 20.405844663728832 2.4536416169555015 2.1587246370677864 -2 3 1
439 1 25.318389695790852 3.9475569851781147 1.5513108187700229 -1 0 1
1096 1 22.798916556751543 3.818674608867094 2.065899395769947 -4 3 2
895 1 22.616786750185604 1.3663996244451786 2.767510688857704 -3 -1 1
141 1 21.045397584281044 -0.045675577139926093 2.0831094462984696 -2 -1 1
1786 1 15.664219545354168 9.886886114497145 0.5163667006859352 3 -1 1
1351 1 22.055688116568888 3.465368733248985 -0.07812152958633634 1 0 2
1252 1 23.815037767550933 1.7425894077545538 0.6452548238180893 -1 -1 -1
732 1 27.029062168954862 0.04976374435642894 2.6554396133442673 0 -1 1
1556 1 26.831799005992046 2.2853072890762895 1.1660880573330459 -2 0 1
1439 1 0.13337380608506955 4.1711549661324305 2.2477718715806247 2 0 0
1429 1 -0.14696622713969776 -0.2737242816302455 2.9862529235097823 0 -1 -2
799 1 25.952101252031298 -0.5628883045975486 6.681297004928914 1 2 2
1755 1 0.5800792411399633 11.984211278083562 -0.4867722011588632 6 1 2
1026 1 28.962581741991947 4.9056193778747055 4.139824402301518 -4 1 4
1431 1 26.023069065461552 2.5940499571155757 3.5617392242131594 -1 1 0
1881 1 0.5945475376651859 6.668632118542608 2.6713706308397613 1 0 1
817 1 2.3606615741157713 7.212586702779315 0.6089449981057482 -2 3 1
1844 1 2.359674183895688 4.998998484069679 1.8775951711527803 -1 3 -2
1900 1 4.502383466041245 6.065236796234683 1.3870392580549495 0 0 -1
1871 1 1.1230854300247872 4.78894590711746 -0.28367257170363047 5 2 0
1158 1 28.40849124774867 9.445755457517864 1.8091519223814139 -1 -1 1
698 1 2.731512883633859 7.102721287947428 3.1487704704881616 2 0 2
1873 1 4.2052775244722955 4.89040620319953 3.781194658566398 0 0 0
479 1 3.86335693265508 4.909377689571616 -0.44222577079289815 1 0 0
455 1 6.223098009051374 7.796948531377479 0.7559897883522255 1 2 1
1808 1 14.084682758827856 12.301409004728841 8.108066955569148 0 0 -1
1326 1 6.2224483683026905 5.774480216409955 3.0452054206634425 0 1 1
837 1 6.386107099972995 9.935809785697241 0.15614153828018895 2 0 -3
1686 1 6.2758436943817415 -0.5694589803157655 1.9651727312724012 2 2 0
964 1 9.958119919616438 4.50115632834681 1.1246077011353242 -1 -2 2
1271 1 7.956599789220821 4.079362682269438 2.3431539911672346 3 5 1
1855 1 7.891996811736364 5.810470674392825 0.7202933572865535 -2 2 0
1757 1 2.1886103397864796 0.6157499883910511 2.5563384329905197 2 1 0
1324 1 11.485628287003145 10.404720975149642 5.644023640088284 0 0 1
670 1 10.018636472470156 7.823481434779374 2.404905300246958 0 1 1
782 1 8.853256186895894 8.226543232720676 0.24048805567533682 3 2 1
634 1 11.653875871843558 5.806698177057764 2.9828910832316806 1 0 2
499 1 9.044647093309983 6.246915325063506 3.9509767319289626 1 2 2
1817 1 11.205739017146412 7.342391899251433 4.665100868192727 -2 3 2
1614 1 4.265675926161319 0.1805685920666511 5.184683735643439 -1 2 -1
135 1 11.236363246565524 6.659997092916861 0.5077748535684365 -3 2 0
179 1 13.199706178673319 5.270905794383013 1.3300001641685215 0 -1 -1
467 1 13.734278924795053 5.443481745296662 4.804309148562257 1 -1 3
1728 1 -0.17535003313866604 13.72146055216704 11.947487630435544 -2 1 1
367 1 16.15966235514373 3.671048273070566 1.0616340660143238 1 -4 1
918 1 13.358401029375456 7.300043753905323 3.8317884661437898 -2 0 1
1846 1 13.41780348400965 8.386506242175155 1.6850877373175233 2 -1 0
1508 1 24.23364259609202 13.861285952641273 -0.644274275038798 -3 1 3
1214 1 12.0360533745827 9.51840999128332 3.6723698053348324 2 1 0
225 1 14.82630735852937 7.243221320885356 0.04341231001475443 -2 0 -1
1198 1 17.863035887489243 5.571806568674634 1.5800554824792719 -1 4 0
890 1 15.46576277321304 8.527992662452784 2.4048288934795816 -1 2 5
485 1 17.676960168476015 7.207605238984563 3.187768111693752 1 -4 0
1537 1 19.062863100752608 7.673830380563677 1.1325943483865726 0 2 0
188 1 17.772998012372604 9.630356344139186 2.6647683633756105 2 1 2
1754 1 15.403349480156237 5.82304486722439 2.211811430037331 0 -3 2
1883 1 17.06455449596261 7.991547337198279 0.529355110831061 1 1 0
1043 1 27.618823484228507 12.196143941574277 11.764384453883011 -1 1 0
2040 1 21.647223289975877 6.941852321877396 1.5939770859864217 -1 1 -1
624 1 20.34386675342215 4.891231340631015 0.46815377760025845 -1 0 5
868 1 22.223237844648303 8.36532005343269 3.3501518783275293 1 2 -1
1880 1 20.08646440073214 9.975918555972743 1.631681467493849 -1 2 -1
1227 1 24.138855597360497 8.479363802938208 4.592393105929098 1 2 -1
416 1 24.425741549318648 7.523633890548005 0.9912819708232705 3 -1 2
1651 1 22.09579064228463 -0.6364340262905088 3.946949027536122 0 2 -1
1807 1 23.441565443136682 5.505211746094584 1.0231366708393599 1 -1 0
1861 1 21.142501148335125 8.45229680553655 -0.23114456748859946 -1 1 1
620 1 27.65213596837994 5.25594670746787 1.5783613608448621 0 3 -1
108 1 26.619798756601796 4.189614371236406 -0.40223111886499263 -1 3 3
547 1 10.500945254601607 12.715882997743318 12.035069974095363 -2 1 -1
967 1 25.55168467220524 6.526751053433672 2.741143589257946 -2 0 1
1301 1 14.19174181145479 -0.6049564838389863 5.737949083242995 -2 2 -3
913 1 -0.7031613627768358 7.161156516562711 0.8624003266385178 4 2 1
1612 1 8.367651131385555 12.02364877851593 0.1661261220245751 2 -1 2
1519 1 26.62979356340739 7.311126672258881 0.7584235589576174 1 4 2
351 1 26.3177399971069 8.89674080113819 2.733796550105558 3 0 0
2034 1 26.429169147392226 4.934701447532364 3.887779005212649 -1 0 0
361 1 28.208668090777063 6.915656194236985 3.136360088900226 0 1 1
1099 1 3.935229701829879 8.677795034949453 0.9471281879466698 -1 0 -1
662 1 0.4073204802767181 8.631340566060803 -0.23002265065945765 1 -2 1
264 1 10.538831275364855 -0.4648696947726805 5.8423806669414855 0 -3 -2
1566 1 2.0157508107974653 11.323045451335531 2.2218765684201327 0 2 1
68 1 3.271046892009227 9.482917763103156 3.8372172298890836 -3 -2 0
1564 1 -0.5671399290540249 11.660713251810606 2.0625537289328615 5 2 0
7 1 0.41641630295256604 10.450442148900322 3.714113740579821 0 4 -1
748 1 6.038007806050887 -0.44796452856516583 7.566063941681072 2 -2 1
603 1 1.2454950858160088 8.992220096161407 1.8404841035496835 1 -2 1
1882 1 -0.6561823903761876 13.847949474363524 5.206282138274212 0 -1 0
653 1 9.309283392336555 10.067051795238779 1.1924711231962635 1 0 0
96 1 5.414269579644765 8.710464775433985 4.003078288366805 1 -1 0
1505 1 4.073761601050829 10.914052606314948 1.3672472546225203 -4 1 0
1422 1 3.2485088494679144 12.890950310516597 0.6378650185283747 1 -1 3
1719 1 2.0062375679715836 10.285128133483664 -0.2334930103119353 -3 -2 1
1341 1 6.105756398617931 13.252418220050167 0.5292465921140939 2 -2 2
73 1 5.726140969309968 12.029914707641856 4.235475074182122 1 0 -1
446 1 5.35436689507817 13.269950803241244 2.4115449366078763 1 0 4
1292 1 6.933613136325792 10.854530290292477 2.303332977628008 -2 1 1
1001 1 21.68205259015419 1.1546426079679104 0.14059785791759905 -1 -4 -1
211 1 7.448190282915457 7.664185536095539 2.6579138896600996 0 0 2
1233 1 25.496811487286056 9.407889773428428 10.134152363776264 1 1 1
1140 1 7.649799147058744 12.747633033330844 2.6057617768713968 0 4 -1
838 1 10.328710876548232 10.83911508191308 3.307954090528229 1 0 1
1924 1 11.597995514489261 9.558005749983785 0.9625568775781177 -1 -1 0
1606 1 28.133229750875955 13.647433963697962 0.4267287434224185 0 2 5
230 1 10.415523161952652 12.106354193260302 1.179210229528368 1 -3 2
111 1 10.976549627405458 12.745854569121176 4.99540249595882 -2 2 0
427 1 12.366341912171109 11.782021801470377 3.2167561740414436 -3 -1 2
252 1 18.764763345660647 13.151074619032803 -0.394821222656664 0 0 -3
1443 1 27.584474618046258 13.626963285642466 7.335703308100397 0 2 3
183 1 13.568091888589956 10.91388871010823 0.8927023505891598 1 1 3
340 1 12.599867765248701 13.030810443089711 1.3725233848210747 0 -1 -2
557 1 21.578335181973546 -0.2626731698677314 9.13449501700859 0 2 0
1913 1 14.431549422664945 12.849986580190901 2.729605307322706 2 0 0
1885 1 13.373209122964466 12.222339159418079 5.720437009731303 2 0 0
460 1 14.11357332778622 10.635901467239721 4.085102768463313 -1 0 1
1288 1 15.232328708550181 13.76466056293828 4.653256043166013 3 1 -1
1545 1 25.289536011705096 -0.5591979142323567 12.40560143870578 0 3 0
797 1 -0.019915959337674316 11.244614544054334 10.581243622126781 3 -3 1
523 1 16.09666840000806 11.387895919309658 2.776727526694523 -1 2 3
83 1 20.504498369005002 13.458930548451082 9.728499623928432 1 -1 0
488 1 15.39059618474731 12.184672344691569 -0.31861772230706564 0 0 1
1200 1 12.148786214670352 13.769341990265161 3.4015107018547477 0 1 -2
735 1 18.681143114212297 11.787726955984587 2.3420787431893113 -1 0 1
1328 1 17.83952754140051 11.149231327069206 0.5609865549316566 0 1 1
320 1 19.682725072089745 12.824735105582587 4.17677905214392 2 0 3
615 1 17.626717188310973 10.876927766525133 4.538604967667376 -1 -3 1
1623 1 12.395170231170638 0.30796134651403406 0.6497195190969176 0 1 0
982 1 21.17789085053155 13.592919195601233 -0.04969029856833895 0 -2 1
1672 1 22.09301468146328 11.809023048310678 1.532392791977208 0 2 -1
1174 1 9.831339851925364 13.628984265092551 2.850683951174533 1 1 2
717 1 23.78729911998612 10.310829527220687 2.706614504036561 0 -1 -2
905 1 22.758060752657922 12.305073590508595 3.6607226402289506 -1 2 -1
630 1 22.611758534286015 8.886950139745661 1.1934555592715732 0 -3 0
1630 1 27.485520871299425 13.901557354605677 2.964745206519662 2 -5 1
472 1 10.627718423237427 -0.17471791431303185 2.366380807122657 -1 0 2
1403 1 24.391144822237663 12.155199027209486 0.9902330185176595 2 -4 2
200 1 25.506070320732015 9.689350224248448 0.43048414914492517 -4 -1 1
809 1 28.436729412811676 11.057487926002056 -0.36425029574534895 0 -2 3
1304 1 26.557471587950143 11.986108819100698 -0.0883531079935137 -1 -3 3
814 1 8.27130790162927 -0.5437101192657412 12.758245015415854 -3 -3 0
1064 1 9.567392563310625 10.607216988840658 13.122158207470273 1 1 -1
1695 1 4.410025332787043 4.8136396246394515 6.456055721444479 -1 -2 -1
1689 1 4.042093334136215 2.6852092296118135 5.0097243873493875 1 2 -3
1870 1 1.5567182905476584 1.550988799724049 5.7198272348883075 0 3 2
259 1 2.3811638996111784 -0.5580580618030626 6.998030683952818 3 2 1
976 1 3.6610119719885947 4.09332059275218 8.66841964051777 2 -2 1
660 1 1.1494103631388954 1.3044856741763864 8.257277529806322 -2 1 2
1569 1 1.8578892871360173 3.628281375296557 7.229368151372522 3 2 -1
1989 1 1.4251731647118469 -0.2687381790242351 4.581392224795284 0 1 2
811 1 3.7693307514683205 1.7366328659975943 7.199137084774721 -1 1 0
758 1 6.49860453689005 0.5986761541280414 4.013139238225618 4 -1 -1
2038 1 6.302887831851672 5.14235057609285 7.839450931200556 -1 2 3
1791 1 7.480505884903126 3.5770895376609078 7.039818760296648 0 0 -2
1289 1 3.712025487048689 1.8970943839278505 9.751496765890892 0 3 0
1875 1 5.738906283185205 1.8392512061960349 6.022215634896185 3 2 0
1557 1 7.6694185895028735 0.7798838685930638 6.493626522757807 -2 -5 2
1367 1 8.24278309765993 3.178329482461123 4.9864789433167385 -2 -1 -3
339 1 1.5487988506447654 2.687326501422116 10.125643478520756 1 2 -1
1012 1 9.401299502784692 1.1237891561440043 4.442188796550367 1 1 1
278 1 9.746176769301394 1.326756839650645 0.7106943663493415 2 -1 0
1540 1 13.275695452410972 3.2369388318155363 7.926947936900888 1 0 1
1671 1 9.578851139460726 1.204321082229162 7.70563180462273 0 -4 0
475 1 10.7437443413155 4.71086545821424 4.84934121924037 3 3 -2
1463 1 10.25603696348219 3.7801501274211855 8.405018826542708 3 1 -2
399 1 7.910528985900253 -0.16823720334162473 9.344313839812218 0 0 1
1858 1 27.15790540048478 9.403106701116913 8.58974494238102 0 0 4
1433 1 10.25297073995803 2.6678785389954487 6.1320163433608865 1 1 2
13 1 18.00210428401838 12.70500344492145 13.370443020920385 0 -1 -1
1926 1 14.237868447903178 1.0394046379526698 7.126771540777082 0 3 1
498 1 13.519584750825624 2.871465864526403 5.4712482912487435 -1 1 1
119 1 11.951034852876429 11.319941017834498 13.493723723143615 0 -1 -2
208 1 15.813264998170766 2.5299534726833985 8.185425943724786 2 -1 2
449 1 17.479430703526194 1.4815653706064071 5.095736983376072 -2 3 2
356 1 11.974571788035322 1.2336478573041079 7.444855813540206 0 1 2
1851 1 19.38005503159296 1.805451104582283 5.985684089294445 -1 -1 0
1548 1 16.74445968727602 0.48013581501573444 8.100910178855592 0 0 1
513 1 21.170060896886028 -0.318887059822337 6.827113562348752 0 -3 -1
528 1 19.9624548341345 2.680121659098637 9.727690290917481 -2 3 1
1177 1 20.42925085098531 3.8789164547117965 6.071916553103136 0 -2 -1
272 1 17.690434002913253 3.3602565141155045 6.8833707240723 -2 2 2
1401 1 19.64114622854594 0.8251611050815268 8.350355892106663 -1 1 -2
1891 1 25.020044099346354 0.7229756143257076 4.645274510592673 1 -2 0
1637 1 26.876627638364305 -0.052352822928233844 -0.07369871242699233 2 -2 1
907 1 24.26570136914458 3.5423075150481207 4.255816512067106 -1 2 0
1241 1 22.970516590563886 1.3623518060562887 5.499751474568228 3 2 -2
1495 1 21.352860186079862 3.832498532956617 4.100773656312636 2 2 0
224 1 21.36863186982934 2.0209023280372715 7.4485629986378346 -2 -3 -1
1902 1 6.46447361400253 6.30996740182089 13.96973340199738 2 2 1
680 1 -0.31095722683382826 0.28492778755962933 6.049083393293078 1 1 -1
538 1 23.462701524304663 0.7571093031701914 7.763792172051621 1 0 -1
589 1 27.231375101591105 3.4619523285559026 5.780439060836442 2 -2 -1
644 1 27.676450051113008 1.1255366269701679 5.308238643094069 0 -1 2
1384 1 19.307677941466586 7.990046194662414 13.585466254788924 -3 -1 1
924 1 -0.23654475810279413 2.7086836032564117 5.607658286366635 -1 -2 2
30 1 24.972185051046914 2.176781498309021 6.611431856945805 0 3 1
697 1 -0.5431700721235206 3.467525577700549 7.884108776656257 1 -1 -2
1622 1 0.3592794807091073 4.98044536712876 6.239149737250009 0 -2 0
214 1 2.5959685658940743 6.22146634179189 5.105530861739161 2 -4 -1
933 1 -0.14357858509189347 6.869453869456853 5.109550474848995 0 1 0
1374 1 28.103563164250385 5.953979772561314 8.214479998175918 -1 -1 -2
1438 1 0.5626996680756771 6.950008670545904 7.668054410714644 -2 -1 2
1850 1 28.36278919241695 8.911660765420448 4.24964767992028 0 0 0
1947 1 0.20347213119869934 8.960499991249927 6.0465390511831565 2 -1 -1
1707 1 6.252004621059832 4.3509880567486645 5.209135926004278 -2 -2 3
671 1 5.27541625007541 6.666376517717494 5.384994420468306 3 1 -2
1171 1 4.658250033720453 6.227944996952198 9.8870707539718 2 -1 3
291 1 3.4360916355408717 8.544277587492937 5.961519678874946 0 1 0
227 1 7.197586941509025 7.04847986075341 7.037886340147706 -1 2 1
381 1 6.186677191821465 9.033265694980177 6.751803768439238 -1 -1 3
707 1 7.614321893528091 8.071404504334858 4.887378303949172 2 0 0
115 1 2.943833448753356 6.319674039844568 7.761122673582403 1 1 -1
864 1 6.809436536773553 4.735344831082523 10.094757322399689 4 -4 1
1023 1 11.906728631187665 4.997922951206533 6.657057163567093 2 -2 0
394 1 8.600543691884791 4.868240946763404 9.036280931813803 -2 4 2
1125 1 10.86322199899978 6.223329535374862 8.423462002220116 -1 -3 -3
398 1 8.440360298928699 5.242923455563846 6.02991445466938 1 -3 0
733 1 11.394280023632392 8.7063517485915 9.551364195384492 0 1 1
1966 1 9.388794614455753 7.597846697754338 6.936536275171677 -3 2 -3
1335 1 14.932235397250016 4.424356309723922 6.795301004539103 3 5 3
163 1 13.674971959919798 6.423187140634962 6.900960854346771 0 0 -1
2047 1 13.03987832022904 6.177245835856659 9.175109708024305 3 1 1
973 1 13.474090979866457 8.671336295337357 5.7670314066979005 -2 1 -2
243 1 17.0048302875795 5.828754110101057 6.532591899729982 -3 0 -3
1321 1 16.618255340283444 4.581721011330256 3.7262730357395695 -2 0 4
941 1 15.718712809620406 8.28663396450503 6.5615140672987575 2 -1 2
1957 1 18.906057509046214 3.0871772487993527 3.8522317607089382 1 2 2
1347 1 20.06832161964149 6.9611794007092485 3.88742996701565 3 0 1
452 1 15.981222764565636 6.967029594538744 4.5892961697722106 1 3 1
625 1 15.822759553589801 9.314990996013996 4.458927438878995 3 -2 0
1181 1 18.294646534921522 8.133577234881056 5.427720684582413 1 -2 -4
2025 1 19.23619997594878 4.68052328020184 7.885390736633143 -1 -1 0
722 1 18.723030353980544 5.332381160546232 5.252666113103561 0 1 5
1079 1 19.724737778840037 7.370749036000227 6.995961459176769 0 -2 1
2009 1 17.385855983846277 8.17434960435119 8.679091626930292 -1 0 -1
271 1 22.92835708778263 10.30349462116636 4.793469841908274 0 -1 -2
435 1 23.37300565972188 5.538126180049014 3.5773340981178112 -1 -1 -1
2010 1 21.3907448765446 5.91735025713941 5.372884401791597 1 -1 0
592 1 24.59663583598107 5.7852941118802015 5.7022978557448045 -1 3 2
90 1 21.324479522772034 8.676091028873987 5.593756746997002 1 1 -1
1897 1 23.345221093985888 7.59570598356979 6.641720058213029 -2 -1 3
1307 1 21.581099272948595 8.505498043639578 8.01030894608594 -2 1 -2
650 1 25.167059459247305 9.59267161174064 6.674633082157732 -2 -1 3
1992 1 21.657531476574047 5.962302882162432 7.598761605061489 1 1 -1
861 1 25.852207512405585 4.536300279133086 7.564083134273407 2 -1 0
1524 1 26.183418956829957 10.785148404487899 4.851172443333018 -2 2 2
1665 1 23.11886660293018 3.5254191922202374 6.343969488572181 -4 -1 2
1923 1 25.777834655781756 7.294391642598141 7.256045445642651 -1 2 0
1845 1 27.458202203162383 5.774465182206693 6.144523729124422 0 -2 0
326 1 26.472824286947358 7.720437692174274 4.911812379299581 -2 -2 2
1255 1 3.429714953779725 12.088200682856675 4.122243608992573 0 4 2
1951 1 28.11921158009074 11.643979083239703 4.4463008068311085 2 1 0
1270 1 14.178324566207388 9.22385396812144 13.730542197755279 1 4 0
1332 1 0.6406128323930298 12.382575356171357 7.187002168659092 3 2 -4
1160 1 3.831850449657681 12.853387575639765 6.586197342574238 -5 2 0
1325 1 0.8070809690086322 10.119984616420771 8.398386876364476 1 -2 -4
38 1 1.7310295794893373 11.133483298921334 5.689753683213802 1 -2 -1
1941 1 28.021605748287108 8.032592176230825 6.886791288876838 -5 1 1
1240 1 25.241324449609543 3.398518067768265 13.420588885520154 0 1 -1
1280 1 10.59953111705574 0.6815066775398122 13.953286119484858 0 0 -3
590 1 6.879240425266337 12.934776136984654 6.079830577135162 -1 -1 0
1654 1 0.13486637948744296 13.52587882043227 9.622378155975447 -2 0 1
1145 1 1.3135252810367342 8.263261680817985 4.379534323889754 1 -1 -2
1818 1 4.438148350847281 10.602842377611653 5.464150252616984 0 0 -4
904 1 3.081608471487716 10.970333008639544 7.841909193783469 0 -3 2
1075 1 4.479911616099633 9.17544313633835 10.04129521952758 1 0 -3
798 1 5.494338901650704 11.217269392212968 7.576276069228722 0 -1 -3
255 1 7.202746942265837 10.552078416347141 4.900618712407476 3 -4 -3
280 1 8.910229995463153 12.535637810633084 4.392808443760025 -1 2 0
1393 1 9.466525220482428 9.373289369021565 5.233442179023616 -3 -1 1
165 1 7.923296610245316 9.670181543753861 7.691739784308812 -4 0 1
1337 1 9.30643057079024 11.547584080745215 6.990202997704894 2 1 0
62 1 10.136844180026028 9.633946120346373 7.681999970037907 1 -3 -1
509 1 -0.24014625838679754 9.666109930982858 13.218127495590927 0 -1 1
1613 1 9.655010103206752 13.823629438254075 7.49717814096234 1 2 -1
358 1 11.900891682810467 7.948297488828203 7.164728410674333 -1 -2 2
1500 1 13.526204535665261 8.75309027794261 8.455142467217252 -2 0 1
1149 1 11.748858809716099 12.935475829954408 7.207194980338048 0 1 0
1758 1 12.79678787745151 10.575157254073753 7.338556978911816 -2 -1 -1
678 1 15.282609480063616 10.46962195569378 7.546208149819332 1 -1 2
1348 1 16.903031353649403 10.630871156282355 9.366266737217408 0 1 -2
385 1 29.003643600688104 0.017032737144336618 -0.5802355943600321 0 2 2
1402 1 15.957939377354176 11.711614683666332 5.8483663932367245 -2 -1 -1
1946 1 17.51058910672678 10.076667967011899 7.018018071901058 -1 1 2
1434 1 19.54042413861746 9.834876748639587 9.394821263139336 -2 0 2
234 1 18.768373015551227 12.041369039462568 6.449432507587413 -3 3 1
1405 1 17.275963595940464 13.200599336372958 3.862648837847326 0 -1 0
539 1 17.401185084403913 13.962027919850838 6.283387399192367 -1 0 3
466 1 20.90933187151312 14.021685063515184 7.418948500128931 -3 -1 1
353 1 9.611869498176352 14.146239783205862 0.6418935645542321 -2 3 1
1242 1 26.251156566857908 11.470849246385411 9.970899811461637 0 -1 1
1336 1 21.360833476092296 11.826900407240682 5.952166423195324 -2 -3 1
1400 1 20.013534462520823 9.692089911846255 3.992130664466779 -1 -1 1
170 1 24.266387152779526 12.197986730503873 5.949985427250527 -2 0 1
540 1 20.018350478023848 9.878482340418286 6.92574181083477 1 2 1
1560 1 22.910808718068335 10.401327938823483 6.9711489290045 1 -1 1
1908 1 22.825390900845026 12.81515709328703 7.696283699134138 0 3 0
1936 1 24.466780120390027 11.101241649640986 8.561893966743694 -1 2 0
1670 1 21.36985641909126 11.356115330297817 8.572059326783561 2 3 2
1491 1 24.823616202887525 12.779571102811637 3.3206358695457805 0 1 -2
88 1 21.620142448983493 14.135717622373521 14.019952697067167 -3 3 2
110 1 26.346009372454382 13.076618709948232 5.278244485732777 -1 0 0
1425 1 28.632633383886194 11.44274021450358 8.328267094246835 -1 -1 0
451 1 28.590625001655635 10.593931812793112 6.1238841788295115 0 0 2
2013 1 27.018332521688613 11.348813044786757 2.5087409836801826 0 1 0
755 1 26.046382284341416 11.769895787633946 7.367163522352675 2 1 0
1228 1 1.1503037333270782 -0.058992361376322466 11.482124154487385 1 2 0
1357 1 2.953485910950683 4.489932426935458 10.970231793624983 -2 1 3
1221 1 -0.6746266785743145 1.7356694058927435 12.453543340555594 -2 -1 2
122 1 28.954371909515594 1.6113622348334475 9.886482166173135 2 -2 -3
410 1 19.29266435538411 -0.4721190808788651 5.36052636691466 0 -2 1
932 1 2.399886940280433 1.5900026456537395 12.226194140011886 -2 1 -1
1981 1 11.945428042704103 1.3309754748414253 4.957909307226155 0 0 -1
2014 1 5.983529515255936 1.7999954246824963 8.25202497248998 0 -1 -2
974 1 7.271479457830301 2.791858084689288 11.509056878023872 1 -2 0
1903 1 6.151366586014283 3.3044749398078697 14.056085550509282 2 1 -2
544 1 6.840357337170706 1.0826592166982645 13.656928428935393 2 1 1
1156 1 4.851988201774932 2.2583311853580756 12.072623669528015 1 1 -1
706 1 5.2328800525056955 3.3988458783587747 10.220746300985647 2 -2 0
1800 1 7.29113649860238 10.225118148055163 14.045483462152575 0 -1 0
1022 1 8.116046144021594 2.424230540132163 9.127974679475555 3 -4 -2
1291 1 28.800696626321383 3.2708495094377876 0.04429174544637682 -2 1 5
1370 1 10.99019297948964 1.7545382139587642 9.331254221376717 1 -1 1
1136 1 9.04682784837509 1.1565876010412564 10.8646542841355 -1 -1 -1
1948 1 10.758648047566552 -0.04902012956452462 11.475258743290253 0 3 1
1638 1 12.006678691257507 4.3502852057862205 10.060486099529914 -1 1 -1
1346 1 11.594148953034722 2.014061880124461 11.920359058814176 2 4 -1
705 1 16.57967742217367 2.019140377981961 10.654453865694848 2 -1 -1
42 1 16.338032888248854 2.6739137794243866 12.691518155505428 2 2 -1
1859 1 13.952382543194426 1.989046275349406 12.309237399276675 0 3 1
1662 1 13.248911425031528 1.8050315707875786 9.549786865150441 0 -1 3
949 1 14.520425094362066 3.9248679520533747 11.104096314326691 -1 3 -2
1087 1 13.446582847238991 13.195749360031908 13.940500815245368 2 0 0
495 1 10.26874666775381 8.499998719758228 14.172466650685823 3 -3 2
1619 1 16.174032889820346 5.5991217084894584 -0.2345253605119581 1 0 -2
1841 1 14.563194400321967 0.3140379665105051 10.817100062844144 0 -1 1
597 1 16.633222893811087 0.3308792140701835 12.328609919338824 -1 -1 -1
2006 1 18.42836897046809 2.2427812971952665 12.016978017901026 -1 -1 1
612 1 20.955233720049456 3.625897573132171 11.985811705307773 1 3 -1
711 1 18.926554397632966 0.8832492879489275 13.981663987890776 2 1 3
1298 1 18.134558478028694 0.45169836362360427 10.235664964735161 1 0 -2
131 1 18.856599722164127 4.99071291911235 11.551674057009581 0 2 -1
1722 1 17.88430091239219 3.8993293630492003 13.625919278339815 0 -1 -1
463 1 20.75437443516545 0.6477766999364076 11.172955223547136 -2 -1 -2
1949 1 25.425090121273048 0.5571479184844765 9.194205001818684 1 -1 1
336 1 22.338577378387445 1.8280086599385559 10.017436565915146 -1 -3 0
1558 1 23.280487404223354 12.477735929818312 13.210874873885052 0 2 2
266 1 21.59570251475481 1.7238986009451889 13.21524411357864 1 -1 -1
1780 1 23.645360984330004 -0.08991262839657665 10.793960882052108 2 -1 1
832 1 22.911739918080215 3.9554270401565708 12.778761585337579 0 2 -2
424 1 1.2134936841870063 3.346943124671121 13.36384416517109 1 1 -1
316 1 24.380230197909203 10.85107694539563 11.35806253738207 0 -1 0
1041 1 27.14453642720315 0.6672860133884295 10.928923719267411 -3 4 0
1940 1 23.082514118371876 12.755998376474015 10.273771149956035 -1 -1 0
1834 1 25.115460170416895 0.005451154807175285 1.6963829214244517 0 1 2
196 1 27.807694514678808 4.396678252032604 9.887546205628874 -2 -2 0
1263 1 8.350497014232237 13.460283784988507 12.499886183827787 -1 0 -2
1197 1 27.571355979497522 7.80381687902103 13.761051580674769 -2 0 -1
1427 1 26.9604225015093 2.6462384537460366 8.760098143244484 -1 1 1
1587 1 28.038341045302733 0.3695568300675125 8.101478830133724 -2 2 -1
928 1 27.160285181751536 3.1241508355506746 11.63749508631549 0 0 1
1593 1 25.056592006115785 1.9343644246431864 11.16165528086407 0 1 -3
1963 1 23.966215902117945 2.8755724217787937 8.788086638486606 -2 0 1
1930 1 26.923715701730682 6.977029135578635 9.945590365438637 0 2 -5
414 1 1.582954398670994 6.9363357922391 9.778449520372682 1 -3 -2
884 1 -0.31721373667889013 5.801781041839482 13.601532118504117 -1 2 -1
1942 1 1.0622986379626989 4.856808124313606 9.144755626654803 3 -2 1
1677 1 2.687452132680432 8.398300553764955 8.540748824085993 1 3 2
1738 1 -0.5559004416223523 3.8703470940714215 11.597634275799578 1 3 -1
346 1 28.73527659522024 7.7914929235980726 11.774438623835776 2 -1 -1
1523 1 1.5786349692098463 5.716465944622926 12.489369525537326 1 3 0
543 1 -0.09781652284064835 6.0047970439734275 10.66642456601476 0 -2 -1
206 1 29.040686105904015 8.434444159451397 9.345020652762285 1 2 0
1316 1 2.2035712428335104 8.08543840882898 13.8689483318342 -1 -3 -1
511 1 6.954292374245989 7.839098653753556 9.4999297775825 1 1 2
1905 1 3.925220498032586 6.5843435107973285 13.182752005820642 0 2 0
921 1 3.316934759704753 3.9563426041645853 13.413565907382576 1 -1 -2
1002 1 5.174812408438413 4.862278425795059 12.151839324673693 -2 -3 1
1238 1 8.009014463470104 6.3435387198489295 11.741696050539286 -1 1 -2
392 1 11.90986986911304 11.665309277903823 -0.5086662226135993 3 1 -1
1700 1 5.699556590343101 7.367579654399098 11.758366000314535 -2 -1 0
28 1 5.024119859200579 7.148710712719463 7.869819885819657 -2 0 -1
794 1 25.488592367799672 13.294369613320002 11.582977733588507 -1 1 3
1371 1 8.80467883437667 2.303266836451156 13.507693802169047 1 0 -4
1109 1 9.644650486475028 3.661771472993281 11.068365954408005 3 0 -1
1025 1 7.07734082435013 9.336891155882498 11.903776874289074 1 3 -1
105 1 10.182403020513412 6.245199197509053 13.16774587747577 -3 1 1
1682 1 9.041321820947616 7.368966962688898 9.290794183005186 -4 1 -3
310 1 9.449481586703968 8.640747319821811 12.08993328371857 1 -2 -2