LAMMPS data file via write_data, version 29 Oct 2020, timestep = 300000

2048 atoms
1 atom types

-0.5030297086369995 28.855029708627832 xlo xhi
-0.5030297086369995 28.855029708627832 ylo yhi
-0.5030297086369995 28.855029708627832 zlo zhi

Masses

1 58.933

Atoms # atomic

760 1 3.44010911775837 0.9027278783065291 2.6475282284288593 1 3 2
20 1 0.9503071698441563 0.20129377956508832 2.4623878995162207 -1 0 0
1447 1 3.6966412117639127 3.310717468371348 2.5757324156121664 2 1 -3
873 1 2.4525672301748918 1.6003399466105672 -0.032042727882793276 -1 -1 0
315 1 1.0168045542766622 2.6877351929816524 1.8304948096054847 -1 0 2
1872 1 2.1186845923578916 2.171182440597237 4.358510908114632 0 1 1
1127 1 22.81197930026852 -0.14733966245650432 10.200551346274894 0 3 0
492 1 5.736713294334488 1.3982440445422493 2.448845603711175 -2 2 2
261 1 15.039451414164706 11.413150006282526 14.078317944101197 -5 -1 3
573 1 7.587962573118604 0.9467500159941571 0.31751174811931593 -1 -1 -1
1392 1 5.825705561620774 3.5875171267866914 3.2354134327134974 3 3 4
1806 1 7.99778754439088 2.5370160437873404 2.8483428946052722 -1 0 1
828 1 7.523808268796941 -0.24792775306200165 2.6740011891055304 -1 0 -1
1033 1 24.36377584221139 13.65006671417112 1.9396535567548283 0 -2 -1
1310 1 8.917650560860409 3.325699089147501 0.5061725615910413 -2 1 1
1847 1 10.182245345548722 2.412908067239589 3.7143660153043356 1 0 -2
443 1 12.277274946726418 0.32424845596949525 0.5444009797690901 3 4 1
762 1 9.813049991528944 0.6937852974581249 1.8753444581067065 0 1 0
191 1 11.636925752775234 0.17546084232844694 2.9736311361817274 1 -2 3
981 1 13.092076301462685 2.2855737305186454 2.846359957034146 -1 0 1
11 1 9.611212632014892 4.743803598463023 3.111602968800919 4 -1 -3
817 1 7.715704300781525 13.87806502210836 1.1963019782618347 -4 1 1
455 1 6.388491244865733 -0.19857462068404702 13.04269806005742 -1 3 0
1665 1 14.619984623849 2.5886311504990185 0.9456138751359482 -5 -1 1
75 1 14.210931454171414 0.24497029208187726 2.1353102401740043 2 1 0
1799 1 13.797176085967315 4.729729262330091 2.034166874706125 0 0 3
1998 1 22.10657058306893 0.10154259631657647 7.680928461343308 1 1 3
1985 1 16.790863186519523 1.0106926572737556 0.6823283096900374 0 1 3
1886 1 16.700175174620064 3.5255755943529463 0.9592947987715645 0 -2 4
1643 1 18.197970042677547 -0.01927502289634453 4.8914690303705495 -3 2 -5
535 1 19.286142945100053 3.15507520297923 0.9718229991095693 -4 -2 0
1243 1 18.064070640500276 2.112154637770132 2.5838188480340665 1 0 -1
890 1 20.41767745526335 1.5690982935092586 2.226970517286431 -1 0 5
381 1 20.01559521163403 3.796692224324995 3.5705388514199576 0 -1 3
859 1 19.3693386198906 -0.2500662105990702 3.093253411869481 2 -1 6
1055 1 15.602274160483825 1.4997304014514588 3.233796563895672 2 2 -3
1120 1 22.08701272467996 3.496694807520538 -0.0457867513121023 1 2 -2
1803 1 24.597407505700993 1.5016718316773576 3.2594704499091174 -2 4 0
534 1 22.25953510918128 2.3355204611651055 2.225288063417114 1 2 -2
1566 1 22.864170455230564 1.2840438529357898 0.07493585008279968 -2 3 0
597 1 24.35627706740499 3.1825881783824403 0.2562740540516377 -2 1 -1
721 1 28.152312636006684 0.9024517154524507 1.7288618436294279 1 0 0
991 1 24.19120016566479 3.8157523029625686 2.58647395671859 1 -1 2
1213 1 25.59278224223739 0.42440530472740057 1.5414376902732472 1 -2 -2
134 1 28.736722558258585 4.199956804551673 1.9072653796247856 -2 2 -2
181 1 26.847839913257317 2.648571538431605 2.649103227374231 -2 0 1
1219 1 -0.4186053961515487 1.853868652373409 4.008592523434194 1 -2 1
1924 1 26.522688465529413 2.7136460116039935 0.21765569125634243 -1 -1 2
1908 1 27.110574636350563 8.963349428282868 11.531795012285349 2 4 -1
676 1 27.788432406816383 3.7950534535803184 4.581186147647373 -2 -3 3
1770 1 15.105171730680924 5.36926114029245 -0.498479727663802 -2 -1 -1
33 1 3.516223935917229 3.5700860709394133 0.28573016121600503 -5 -1 2
1629 1 0.5174024487549691 4.102962623228644 3.9673515110580686 1 1 0
1679 1 2.1414322663483736 5.159765558135305 2.6237034847925176 -1 1 -2
1987 1 1.687853227525999 5.073130481128986 0.41807407493168114 3 3 -1
1622 1 0.0924501735140858 6.5322449272244505 1.4290950230693316 -1 -1 0
386 1 3.6585440797812936 6.483654121121454 4.24154224665125 1 -4 -2
655 1 1.639585948441745 7.712418808137716 3.348741864760419 2 -1 0
771 1 2.678575688529215 7.093610814066098 1.1791400630194229 -2 2 2
1585 1 0.5146373186508653 -0.12202179484940934 -0.10040593087033156 2 0 0
1443 1 4.576197918339808 5.483871713660582 1.7880636452871785 2 2 3
2036 1 4.744897624778434 7.91748594795102 2.0296550461242004 4 0 2
1635 1 6.203479847833457 3.1939659607016635 0.7496131234465673 0 1 1
283 1 7.332949390606808 9.955049018364287 2.8606755726294977 -1 0 2
805 1 7.051523856299577 5.2387977740744525 1.7765811646654233 -5 3 0
509 1 5.85671937260214 9.51318450172193 0.40168991949891675 0 0 1
1410 1 3.439653451830569 9.321034436521204 0.09417540507711553 1 1 1
866 1 5.813275561123972 5.896890099507591 3.8597816834417245 1 -1 2
1554 1 7.152291591624663 7.795333665612048 1.2747675310767166 -1 0 -2
1067 1 9.253612595474582 5.514849280653994 1.0083814724222115 0 4 1
1725 1 8.290336823598656 7.1524339498560385 3.0717334886401875 2 -1 0
1415 1 10.95996534393908 3.0837003761638186 1.6527429869061376 0 1 -2
544 1 11.088332677534861 6.738128469497582 0.14180801393523224 1 0 1
1834 1 11.556384107642671 5.559172140987582 1.8349333181245107 1 1 2
435 1 11.250394276315294 9.217351458488395 0.04334159255934156 -1 -3 0
1433 1 12.719675226591987 8.357570236643074 1.5984452609817237 2 -1 1
254 1 10.603366715115003 7.564714319393049 2.324873381264238 2 1 -2
974 1 15.551537829659763 7.641607077628635 -0.20249064289517 0 -2 0
1047 1 14.406832144761657 7.325950080446931 2.940420132058003 -2 1 -2
1372 1 13.456149752112326 6.5818306430005755 0.5086626326663799 0 2 4
1114 1 15.799375857673764 5.5933600915057315 1.833192111017158 1 1 3
278 1 15.840422850711478 9.729750880158859 3.520677957121409 2 -2 -1
1772 1 20.452448533386928 -0.11512992691691798 5.701296588572986 -3 4 1
579 1 3.5252180993689146 0.11348503194508719 12.27763914010083 -3 -1 0
1562 1 17.91395279996153 4.738286061636168 2.434758011717165 -2 -2 -1
626 1 16.70494190176572 6.602343269102863 4.01559769271725 2 -2 -1
689 1 17.950030583455757 5.872406927136572 0.15542503696976961 0 1 3
888 1 17.333062910326696 7.880164073791132 1.7875388368891918 2 0 4
1914 1 18.979460526621395 6.517546580487219 3.8955319176294916 4 -2 -3
674 1 19.88196290104071 6.3175164244081 1.4888487849202683 -3 -2 2
1162 1 18.389698509793163 8.795441809671322 3.964988711131193 1 0 -3
479 1 20.219300665372735 8.727924603487685 1.760871805839296 1 1 -2
1563 1 22.25895034928388 7.3310833703161045 2.5075110404139833 5 0 -1
1058 1 22.048384473509415 4.7974365129847465 2.3018102308709985 3 -1 -1
1586 1 21.36503777849726 5.83596519644221 4.4260993511875295 1 0 0
130 1 23.949436272376182 8.6645717189838 1.1806821234505853 2 2 1
2040 1 23.846430128089494 5.261553192648165 4.583069411349662 -1 2 -1
1300 1 24.722764363968267 6.713018788355398 2.599041046447398 -1 0 -1
678 1 20.793353176902826 8.538588645750187 4.377436467209089 1 -1 3
108 1 28.6691445630358 8.91024511249229 2.32037725350825 0 2 3
422 1 24.36099592479173 9.166018104553814 3.7125090259175204 4 0 0
1995 1 26.136736172443776 4.9937496273092385 1.175555593700922 1 0 2
1692 1 27.282234709062948 6.967891142493224 2.2973702740899884 3 -1 2
66 1 26.49647829946612 5.705764984017075 4.156243307572033 0 3 4
434 1 25.8463218300696 7.537980116973262 0.38500019336150293 2 -5 -2
288 1 15.486319987928004 -0.08555615997101484 10.604186137966133 -1 -2 -1
224 1 23.743095546672215 5.6606263909939685 0.8192437064621636 -3 -2 0
1419 1 28.019530511396276 8.743199516516235 0.21753268366819223 3 2 -1
84 1 1.0652137320677997 8.7865760628754 0.9712305543445625 -5 -2 1
70 1 0.5100652088924156 12.63401454041027 2.22483582572612 3 3 0
269 1 3.0823932788801414 12.084983942153562 2.685198487315471 1 -1 -2
581 1 2.9163010282241775 9.476770258736627 2.284295433195943 -1 0 -3
1064 1 0.8622882342345655 10.46969486558996 2.7429083344526664 3 0 -1
1736 1 3.141231664612581 13.996709058508987 0.3045991268453059 2 1 -1
247 1 2.115272726021516 11.259387097786094 0.7059706723806598 2 -3 1
822 1 6.253589737620115 6.349859485811501 13.551936569250238 0 2 -3
302 1 27.762045269840982 12.93856921162023 10.341195080367138 0 -2 0
538 1 22.784196668119534 14.047941797540657 4.09268878914488 0 -2 1
1610 1 25.209430641445124 10.750438704963692 12.784673339722701 -2 3 4
185 1 5.247781791626338 6.951943796438816 -0.30930617734980126 1 0 2
176 1 4.49302415211326 11.538286831601976 0.32284304842739653 0 3 2
613 1 4.969041815275129 10.59816733687266 2.577149418655982 -2 0 -6
1185 1 6.909429675988696 11.787261128406913 0.8780637848442123 2 -5 -3
2047 1 5.01793604035573 13.497967289158481 1.727128047625064 5 3 1
1126 1 6.630460302274827 12.792626867683945 3.37030426348167 -1 -3 -4
838 1 7.293803503198835 10.954305599691688 4.908098272845701 0 -1 1
56 1 13.606396187843353 0.11367935970498644 7.1748226188897 -1 -1 0
41 1 15.900565960127809 0.3612901518745749 8.38671506368233 0 -1 0
682 1 11.863945130269434 12.724153837052436 -0.20979386217793788 1 -4 1
298 1 3.755770272189187 13.024662025905604 7.759878857393064 1 -1 -1
715 1 9.165612171499918 9.261121665984879 1.530071918019365 4 3 1
2000 1 10.633369486108515 10.350972160575095 2.9943844669409994 2 2 0
27 1 8.208921674063077 0.3445768317372071 11.436952273161065 2 1 -2
120 1 9.01004100959648 11.903369622688558 3.17493923356059 4 -2 3
144 1 11.292615300327563 12.629067627400724 3.3506333105517516 -3 -3 2
24 1 9.640280962585868 11.732241939249512 0.6989479107455352 -2 1 2
1461 1 2.604112264555663 4.347809732342169 14.010253523547252 -3 -2 1
560 1 15.000473210064994 9.103691995536265 1.5406456534375943 -3 0 -1
1414 1 14.712545989505317 11.793096932819648 1.3061948311879268 1 -4 2
1123 1 12.441796832992638 11.22643964979253 1.616681204213577 2 1 -2
1833 1 13.269849481306844 9.981688226504442 3.5077715372613287 -1 -2 2
929 1 14.409204056897382 12.220001215003826 3.648667605646244 -1 -3 2
1007 1 19.070947458434496 0.22246721829532823 0.6873126852154239 1 0 -1
857 1 28.22498527815619 9.314692974158095 13.484500357882581 -1 1 0
1206 1 18.651999222234025 12.94292270435112 2.6761392148272294 -3 -6 -2
1919 1 16.1466938883667 10.17769479411856 -0.2581479542577566 4 0 3
1849 1 19.05850201155281 9.924653641836091 -0.039779183933747464 4 -2 -1
1171 1 16.91822767074285 12.122548273920735 3.8709109822304857 3 -3 2
1042 1 17.789657717087096 10.258661490005021 1.7160867523200252 -5 4 -2
704 1 19.043874629160037 12.71709333513966 4.952005001383199 -1 0 -3
60 1 20.158669575364137 12.362149702455614 0.37654801680588446 -1 1 0
1568 1 17.206554642884527 12.306004143798736 1.0800963924488118 3 5 -2
1236 1 25.502517415384723 13.333879769128172 9.488706103815927 0 0 -1
792 1 22.016906764077966 9.765398497182785 2.9620352631097573 1 -3 -1
692 1 21.27871960529282 12.528357664732706 2.228825701591793 1 -3 -3
1217 1 24.272004561810782 11.047981683093994 1.0985607377877287 -3 0 -1
742 1 19.660505544247883 10.963518734326092 2.9831390522458254 -2 -1 4
1884 1 22.441391774578364 13.531090900590005 0.6029225539545631 0 -2 1
1545 1 22.030221243284892 10.68978519397755 0.7125403248504869 1 0 0
384 1 23.540433497675764 11.681841805475814 3.488908725453642 -2 1 1
563 1 20.4317340704187 1.755779856479891 -0.4091118051207833 -3 -2 2
1735 1 26.33600063209971 9.67285181391716 1.8053560798383685 -1 1 2
2009 1 28.434696967372375 10.90550177609168 1.328387225784905 -3 -2 1
1591 1 25.147385261220485 12.734213033764943 11.696801139476097 -3 3 0
1321 1 25.54708111626367 13.87850529301653 7.112980617512926 -3 -1 3
277 1 28.260714595663487 13.394099738132844 0.7281269598896287 3 -2 3
324 1 26.113104702897516 11.942020106400458 1.6800325243164824 -2 4 1
379 1 27.63696312069996 12.5772878627914 3.108570638655843 2 0 1
1233 1 25.263777686958804 13.625371272020772 4.6477429367952094 2 2 2
927 1 0.7343297397216104 -0.16569265633389468 4.966089540818378 2 -2 -2
18 1 1.4304685819246754 3.7620278006770578 6.996411362011255 -3 -1 -1
341 1 1.4593486158348243 1.2857447758167484 6.630274857871855 1 -1 -1
966 1 0.5824380593258893 4.905527469403277 8.672443985129437 1 -3 5
2048 1 3.5790078615015775 -0.10739469114207767 5.499212398623633 5 4 3
1670 1 3.8695457543052116 2.510593082002816 6.871946818310455 2 5 2
1368 1 2.4854874109217304 1.8959109846918651 8.896849246095332 -2 0 0
360 1 27.38226461096651 11.828527725313014 12.409289899535786 -6 1 -1
860 1 4.741102167685926 1.8751040886284822 4.807436358500964 0 3 0
1492 1 3.827621824378337 0.3558352795218114 7.820304599589118 1 -1 -7
1369 1 6.646938011595594 2.3016502039998223 6.8556842398069575 -1 2 4
292 1 7.0546175107128475 1.3730512618472575 4.84434105080423 1 1 -2
508 1 5.654354815243035 4.245303014040697 5.899233543393694 4 5 -2
349 1 7.865455616860192 4.489785325218702 7.275671591587266 0 0 0
1225 1 6.678643858179987 0.16873140116080476 8.749906674365231 -3 -4 -2
465 1 5.630657523359295 0.14477827238009955 6.484716952831733 4 0 0
1279 1 7.907738124483322 0.11827813854923741 6.705445269215158 -2 -3 1
1269 1 9.51125059458571 1.8127986043040427 5.785602623299439 -4 -2 1
1497 1 11.843337375507733 2.1094130961973985 5.311111932319432 0 0 0
466 1 9.275353969818513 -0.06179759885681163 4.423230978738242 -2 -1 2
511 1 9.729533688363377 4.4107271116361035 9.099780622902784 1 2 3
207 1 11.110787247900305 0.6200726606294429 7.052568612822918 -2 -1 0
203 1 11.825159548372298 4.393606346939102 3.679230696733253 -1 1 -1
696 1 10.149934417928913 4.656182984882493 5.4794258752357905 1 0 3
1885 1 11.13756225841968 3.210285204256182 7.595865252112853 3 -1 0
218 1 15.8252408901351 2.1475646188695126 6.316491499426831 3 0 -1
65 1 19.91421369015788 -0.017490073656977745 12.980659255338747 -2 3 2
1767 1 14.054107309982776 3.1108155226711696 4.694010801525262 -1 1 0
1904 1 14.387588949041714 1.7888320321838882 9.93823960645834 4 -2 1
1943 1 13.30098970630668 2.4005077356375533 7.303141185628701 -5 1 -1
90 1 14.585680705151763 4.421675756484029 7.31388623351314 2 -1 -3
1485 1 16.40656025381751 2.8737065389228675 8.824431907610878 3 3 1
1651 1 13.693363208487245 0.4682749024352394 4.7905707072226935 2 2 -1
1714 1 26.233711632777435 11.177740339220984 10.207941988803041 -2 2 -1
1703 1 15.803710135601927 3.9470375877556005 3.257000533642662 4 -3 2
943 1 17.00239902588789 2.7762804321797834 4.462501027154485 -4 -1 -1
1362 1 18.320102664951968 1.0612940615427484 7.014707617207922 -4 -1 0
1579 1 19.383720996728712 1.9730113696502087 4.702665602936267 1 -4 3
843 1 16.269406744317443 4.882240705153674 5.783148999149554 -2 -1 -2
314 1 18.23030295694617 4.473066329036623 4.74685221020923 -1 0 3
249 1 18.29454771960176 3.4058762054468277 6.983463673789302 2 3 2
659 1 20.784991124168357 2.016292214435058 6.78131284304126 -1 -1 0
547 1 21.888407865060827 0.9445460060274897 3.8852309552692947 -2 1 0
994 1 -0.14946134646027065 1.9785443563426939 -0.09168650223387781 1 -1 2
939 1 20.94862097422653 3.777862597727599 8.18445207990738 0 -5 -3
522 1 20.175814064902198 4.413047880267718 6.176803649913901 2 -2 -1
1150 1 22.130043967200947 3.2860331759498136 4.326376609824312 1 1 -1
64 1 22.815059253102298 2.0248710000641146 6.138047724349576 2 -1 -2
225 1 22.781475248316504 4.507899523628396 6.366767617842095 -3 1 -4
1621 1 24.897695234035588 0.9237579885301772 7.859984903156944 4 1 4
1529 1 23.304431463633207 4.85474952282167 8.813481564758131 -1 4 1
281 1 24.57566548841131 6.307589319848546 6.928323210931153 0 2 1
77 1 23.05329301469248 2.3202176253576314 8.78042536177008 -1 3 -2
936 1 26.725260665932716 2.405447156934562 6.903842404035537 -2 3 3
244 1 25.183696004847313 2.835623084856299 5.092873441760156 1 1 1
969 1 28.773982812821142 2.335112295865739 6.302390599699617 1 1 -2
1691 1 26.873652211835882 1.1730712643473937 4.869246748960878 0 3 2
818 1 24.685013518151415 3.4852486842673525 7.439601119547401 -1 0 1
287 1 27.593016903396652 4.034948667485205 8.377479073941794 -1 -2 3
1235 1 26.232419766736555 4.8235749312093175 6.26416312600794 -2 2 2
227 1 -0.1138442487038715 2.2075009771867107 8.801834876794853 0 1 1
1940 1 25.5194304210357 3.4790787822835214 10.120900517726133 -1 1 1
652 1 28.702258042401905 4.84576802907999 6.6562523529549305 -2 0 -1
1133 1 3.930690031654777 5.6997388228737185 6.9949151767645645 0 2 -1
640 1 1.500476521258943 5.474529891410749 5.28534254453184 3 -1 1
392 1 3.4204435161464324 4.1961843067469875 5.03509632719873 3 3 -2
1807 1 0.1378793993171169 8.801856410427005 4.901006057671894 1 -1 -2
656 1 0.8680158381261931 6.920159643807034 7.210361636403199 2 0 3
470 1 2.6374566685142575 7.793485537965902 6.138765614785443 -2 1 -2
1135 1 3.0011019254106044 8.9139449815075 8.59972996159844 0 1 -1
830 1 0.7647658162773046 9.117253789431606 8.774303641337614 -3 0 4
1482 1 2.393520232543048 6.43219569787037 9.41177557575392 -1 2 -2
326 1 5.591248334031346 4.4894364867127985 8.612947887181615 -1 -2 3
1981 1 5.200805517084248 7.094819948233544 6.093574757729195 2 2 -2
1177 1 7.927581480055128 3.7575238331048837 4.811849097396042 -1 -1 1
1366 1 4.337081642948977 6.948806689285587 8.929951744792838 1 1 -1
2035 1 6.406909697897983 6.300127717198179 7.734206509202908 2 1 0
128 1 7.242391899276661 8.43913549437303 5.555140491111598 0 0 1
850 1 5.375825471697091 8.557019689458537 8.034049452360286 -1 3 3
21 1 6.62514090467772 7.605700997768674 9.687057444666385 4 -1 -1
405 1 4.990629905171137 8.871853748342437 4.453268479599011 1 0 4
617 1 7.665758242109812 5.331686793595105 9.754087886927335 -1 1 -2
252 1 7.689044933885135 5.853394432575706 5.404031982055482 2 0 -4
385 1 10.56115330596948 8.355212442212471 6.995040581612125 0 2 2
514 1 10.467834336232357 5.812163442283566 7.3032359787643735 2 -2 3
1804 1 9.092328049654498 9.230620219334059 4.1942477144122865 3 3 0
1925 1 9.804014407516465 6.904184484855435 4.749768488482347 -2 -1 -1
1876 1 8.457989353377966 7.3608469497617905 7.352679800567148 0 -1 -1
1605 1 14.397351332205279 5.618163807634754 4.619270353769853 -1 0 2
587 1 12.47166756305339 4.494608614224648 6.183260066615057 1 -3 -2
1765 1 12.361702431756148 7.069226648599311 6.421361523886648 -2 1 1
1324 1 15.07767300924869 6.849749072409667 6.7476161607284775 -1 -1 0
1684 1 12.176302924912743 6.80069777641447 3.8997529574034555 0 -3 1
1142 1 14.362281533530352 7.968411062563405 4.976069590604805 0 -1 -4
205 1 15.272849929681529 9.620955394635166 7.38273453549733 -2 -2 1
1312 1 16.471515456628033 8.585290839141964 5.437785768035241 -1 -1 2
1110 1 13.803818664449945 8.336202099046119 8.876496466474135 2 2 -4
1416 1 18.012681934583973 6.191432144890671 6.323959198644282 -1 2 -1
73 1 19.25546539151668 5.288041673754424 8.214653052840335 1 0 -2
645 1 17.27320633444011 7.979840875222454 8.19309805919787 5 0 3
1157 1 18.922833187283395 8.726832196827065 6.3580558240379865 -5 3 0
667 1 16.747425729901998 5.376181050728486 8.093010762374712 6 4 -1
167 1 20.235589624987917 6.957270780998525 5.994272947820162 -1 0 0
2011 1 19.569584067368567 7.804670998307953 8.552331846694488 0 -2 4
460 1 21.819254736536003 6.267972681559771 7.32074070185141 -3 0 1
52 1 23.73256481697841 7.640264229008302 8.437564335445906 -4 -2 -3
1143 1 22.632876569873062 7.5475205742273594 5.148355811284695 4 -1 -3
1606 1 21.557923385037128 8.70327635279576 7.114915429743789 0 1 4
602 1 24.15355164647503 9.311341419973603 6.405298116720407 -2 2 -1
1758 1 27.09729064730542 8.843983012247081 3.9217196435751926 -3 -1 -1
1407 1 25.037167847332057 7.50326628843853 5.030448777974313 1 -2 -2
1602 1 25.86426152036872 5.500480845177581 8.573113174653912 -3 -1 -4
2014 1 27.456527913102 5.573403137000481 10.263149139069753 -2 1 -2
475 1 28.753634315095415 6.520190930460709 3.862305477184079 5 3 -4
147 1 27.521636441966123 6.915501453463917 5.957074233614274 -2 4 0
5 1 28.631492201311914 8.883282933464576 7.128007298953116 -3 1 -1
183 1 26.426331637879287 7.780726639573919 7.9496821301571785 0 2 2
487 1 2.491622378632424 9.91780329359666 4.504908713141025 -1 4 -2
1934 1 5.299643279021759 -0.397340323238656 3.959797847742478 -1 -2 1
74 1 1.372716010595349 9.728508406947427 6.608004803440224 -1 -1 -2
1931 1 0.8355980285111673 12.213336109792229 4.635697918382136 -5 1 0
781 1 2.379500086596968 11.550259687034275 8.996308951663721 1 0 -2
1488 1 1.250307319435244 12.88202487856059 7.058623492979503 -3 4 -1
214 1 2.949088680804807 11.861956823421098 5.785120640267543 1 -4 -1
263 1 28.527222736091133 -0.012020567026563733 6.8137981084441375 -4 2 -1
1899 1 3.9381594854596322 9.796434603048311 6.685584688930915 2 2 3
1465 1 4.725259882644039 11.109895707863153 4.731809431037008 1 2 3
934 1 4.7347848816664575 10.714778234878207 8.650854962122683 -3 -1 1
81 1 6.107509006784108 10.488426329920946 6.656297094621391 -1 2 -1
1212 1 6.212328924772665 12.609712880511488 6.041732156331018 -3 -1 4
1237 1 7.486900404724614 9.548091342557672 8.65421914678812 1 0 1
879 1 8.439985629098691 13.313290399359422 4.801271431612758 1 3 3
1590 1 8.895527572679317 9.80202607910804 6.643041755746123 4 -1 0
720 1 7.9996055350768 11.661040419308447 7.992764848581167 3 -1 3
1881 1 10.656399138073972 12.638080959858959 9.132990574425785 1 0 1
971 1 10.889401890210884 10.882709448742755 7.234764825291465 1 -3 6
325 1 9.998794724163039 11.3916509399849 5.318600717198193 -1 4 2
1926 1 9.624027905108704 13.018841161028366 7.00803707891019 0 5 1
1955 1 4.085878501677832 14.112704078067507 10.510248934308844 1 -4 2
958 1 13.073823527549997 9.431531413713705 6.729690835310143 -3 -5 -1
747 1 11.643460214339123 8.848511764371947 4.856924682275271 -1 -1 -1
554 1 15.011085271268124 10.792948988190853 5.524420067236899 0 1 -2
2037 1 13.403505476601001 11.810803002681697 7.3205531641344495 2 2 4
1155 1 12.235938804833458 11.528624202360508 5.273212461088682 0 2 1
17 1 16.512109376144146 13.367277797125425 5.746118039805241 0 2 -6
1996 1 14.122991864639905 10.683750682016285 9.335540907488047 -3 1 3
54 1 20.94423290521204 12.337980437943253 13.426200717467415 -1 -1 2
867 1 13.371843210030717 13.23208747324503 9.143816053531403 0 -3 0
135 1 17.5673073859642 10.281292928704227 8.444568153958823 -4 2 -2
1962 1 20.37349518512635 13.576237284099271 8.468428966462413 -2 -3 -1
346 1 18.446343170673302 12.2919305259534 7.423996154496085 1 -2 -4
1264 1 15.688573054192917 11.958612242178388 7.639196010277766 0 2 2
1260 1 17.396712719702705 10.825437842170032 5.863402703489361 -1 0 2
424 1 19.13768853058886 12.221391079734119 10.085194726236663 2 3 0
1595 1 20.035834432164876 10.406455576119805 5.316547777880303 2 -1 1
854 1 19.88224623433898 10.338123572746207 7.959209027813861 -1 2 4
1707 1 22.468143014143024 9.975507314525592 5.049643203894631 -3 -3 3
1569 1 23.478562090865694 13.276470160462521 8.034799821513163 5 1 -2
299 1 21.2346324485016 12.290724887082199 4.6358479057336375 2 -2 -6
485 1 21.09939721171824 12.048041700498802 6.945821927436479 0 -6 0
688 1 25.15375570869086 11.50769739482406 6.697037918255775 1 1 1
1483 1 23.366017532668387 10.94094346000156 7.789143221298394 3 3 2
309 1 23.169602553759226 12.22318790611065 5.8188010044973435 1 -3 -1
1379 1 18.765865100908975 11.464652229513323 12.37520172190803 -1 -1 -3
1539 1 28.456044392640962 10.844547954677273 4.400792717427465 -2 3 1
1863 1 25.98449924932673 11.102873394638946 4.190627229296302 -2 -1 0
1780 1 27.715502145263628 9.693760265824762 9.010508667245835 2 0 1
1138 1 28.66919141194872 11.302822910061881 6.70211524586942 0 -2 -1
276 1 25.09883426092211 9.694940029423035 8.815397853355833 1 -2 1
1319 1 26.907528443776947 12.241417198802164 8.054401938586945 4 0 2
1613 1 26.515304591450892 9.58622217375926 6.37631341342874 2 1 0
373 1 27.191747336508733 12.64676707213938 5.541618431090975 -2 2 0
1588 1 14.684046225759545 0.3702951990319656 -0.3967532675424581 5 3 -3
362 1 -0.31621427534745833 4.287548988177822 -0.2786300305152566 -1 1 -1
1546 1 1.6833696880128106 0.850961193750847 10.857895566089065 0 0 -1
1650 1 26.49394608030309 1.1363986443210055 14.003963831801226 -1 -1 -2
200 1 4.491355607131625 0.28835688232603995 10.10142723499981 -3 -3 1
1109 1 2.2283511920917736 2.217327110907986 12.610691574973808 4 1 -2
1441 1 3.6450957424755375 2.6131765731783037 10.922532679295449 -2 7 0
96 1 0.5452444312195226 4.142874326163626 12.740799417802583 1 -1 -2
1481 1 1.407865766134027 3.5475278910622308 10.524848904207069 0 1 1
165 1 7.3859988938392975 2.9292935367704405 9.535747451757473 -6 1 1
1965 1 5.29077883630696 2.2569729093064232 9.010178845709333 -2 0 -3
1122 1 4.729025949830243 13.529421522818295 4.508508276303033 0 0 0
735 1 5.585630372845939 1.5674384596358837 11.747329329222278 0 0 -1
291 1 6.93611072999871 1.8680222519016065 13.598006372886061 0 0 -1
1327 1 4.90442958769952 4.635496131591073 13.824187911590721 -2 -2 -1
1596 1 8.503059218389463 2.6004854991842947 11.4465352624074 0 2 3
565 1 22.14994153797864 10.393974953543852 11.659555131671304 2 2 -2
94 1 8.909109629816427 9.960959933502634 13.355145842971138 2 2 -4
172 1 12.301618522698268 1.3361340269072384 8.96555676966174 -1 -2 1
505 1 7.079416403669687 4.384441020828289 12.605390763268964 1 -1 -2
1892 1 10.691611797656007 2.539019234133673 10.622928474077439 1 -3 3
944 1 9.64291373730379 1.4060098009423307 8.687459614238728 -2 -1 -2
340 1 10.492125143894421 0.3590058322987286 10.766656932143034 -1 0 -2
474 1 11.426441034116325 1.2006969120383821 13.032286387672519 0 -1 3
1939 1 21.362519199154967 7.842683131793374 13.954444422298568 2 4 -1
898 1 12.4112081675301 3.5993882074429067 9.959614022665066 2 -1 -1
647 1 12.451054928672797 4.156369038314745 12.494515786438859 -1 4 -2
1282 1 12.971915066125252 0.4652780471039555 11.286380180761073 -2 0 1
1821 1 14.22447863270616 2.72807293173794 12.039458013380727 3 3 0
1580 1 14.779161536866841 4.6157247997260535 9.879738267818812 0 -1 2
1255 1 4.617500469264152 2.524061506808664 13.633632062202182 0 6 3
92 1 16.325122362565338 3.377512454064931 13.309512270922111 -2 1 -1
189 1 15.642407317921352 0.4768513095294169 12.971604297408408 0 -2 -2
901 1 18.65097594773598 2.761221656840856 9.233138990140503 -2 -3 3
241 1 18.552429515457874 4.217106092094315 12.521833427313169 0 4 0
342 1 16.930654678369976 2.444079724197856 11.059528989538304 -1 1 0
275 1 18.07407580766052 1.399103927477878 13.59284324443634 0 0 -4
9 1 25.510880908252005 -0.44860336157263814 6.359036571619953 -3 -3 0
1815 1 17.02764059959742 4.866484863840141 10.878666341360162 2 2 -2
364 1 19.30475086963017 1.9973140851351552 11.609717222581123 0 -1 -1
529 1 18.148460399632214 0.48071994104802074 9.29096682571542 -1 1 -1
1547 1 19.57379309602738 4.8425763706734415 10.629086032357488 1 -1 0
1536 1 0.5533383353768939 11.698701375240152 13.2507881287454 -3 -1 0
1805 1 23.31229031504236 2.674446026474232 11.283972181942376 2 2 4
428 1 23.976808786337806 1.1609314126276051 12.562959572240212 -1 0 -3
802 1 21.812832365910054 0.7944314139846966 11.96849601604625 -1 -5 0
1504 1 22.552246753884866 4.243453340924158 13.17504791584114 -1 1 3
719 1 21.225687844249883 3.152973277666503 10.618157624767838 0 0 -1
780 1 20.765063103366124 1.4335662768210677 9.313403686558496 0 0 -2
947 1 23.21141662947518 12.159405257705266 12.767097971964256 1 -1 1
595 1 25.032785050402275 0.39086927884006295 10.233024069204413 3 -3 2
2046 1 26.635993661571995 1.758851516529886 9.087817423855183 0 -1 0
1673 1 -0.28648524497798533 1.457369314751129 11.70836273280093 -4 4 2
1153 1 13.320809560190318 5.933540898020345 13.771302170576561 2 1 -2
1043 1 24.32123025210891 4.797111648676048 11.206060985815112 0 1 -1
741 1 27.970181834709358 0.31798371642728396 9.99738570218211 -3 -2 0
426 1 26.356169364728082 1.9951732628433416 11.764288202532567 2 1 -1
383 1 18.481616770897894 14.118305188348291 -0.07342702788398436 1 -1 3
305 1 28.24933703385829 3.559899800243067 10.696415208468146 -1 -1 1
1963 1 28.141645891176623 -0.31873508771057946 3.6347287461540354 -3 1 2
751 1 28.720681232508547 7.33864756940308 9.347247246219425 1 1 1
1907 1 3.2848839603750135 4.067770274665421 8.905049422305309 -1 -1 1
313 1 2.597425839396982 7.792328234458518 11.37419260319144 3 -2 -1
1204 1 1.0937872743605734 6.661940011903651 13.01922990434507 1 2 0
1136 1 0.5444414284502697 5.825385483164599 10.826476423445218 0 -1 -1
1828 1 27.929149859316453 6.651506583794643 12.483682487561401 -2 -4 -3
1194 1 2.868754309304078 5.107879244102313 11.550578219839451 0 2 -4
235 1 4.621786276393958 9.314970146201553 10.689070839465465 2 -2 2
1501 1 5.5458798368422375 4.280229536635957 10.882597946612039 2 -1 2
1489 1 25.764845157861494 5.363139133496125 14.105851682177436 1 3 0
604 1 4.892270200520086 7.114769899110136 11.455467636311786 0 -1 -1
71 1 7.419173377421681 6.6811880889110205 11.762547061480063 -2 2 2
794 1 3.4243840059720294 6.935371368301391 13.542303438200896 1 2 1
1093 1 6.55769104631941 8.61239443143137 12.931487242261191 -1 -1 1
137 1 9.037092658792101 7.234362301678946 9.943171142000352 2 -1 -1
1210 1 19.85079168328035 -0.4415447366814931 7.9424922721659765 4 0 1
1345 1 9.760673865473212 7.1873168531498255 12.27696507830266 -1 0 -1
979 1 10.258666456244102 3.4790530015898424 13.202958667869297 5 1 1
1393 1 14.304439285522964 13.333731963906354 5.878292258060685 -3 0 0
1209 1 10.98042613732638 5.7928105095576194 10.269336097225581 4 2 -1
233 1 9.309775863122017 4.741328720032716 11.384256602453299 1 1 0
1188 1 12.511204893078734 5.290523609804112 8.48163700302092 0 2 1
624 1 11.586533013381985 7.344775297965997 9.051359251619226 -4 1 4
208 1 10.838973642712405 5.713609253673429 13.7185784282845 1 -3 4
1641 1 14.14683678668884 8.321226272411117 13.744097959716798 -1 2 1
1733 1 15.682864381371258 6.720071596745119 9.686482063051129 2 1 2
1992 1 17.746130173507446 0.0820161769581984 11.829564998389285 0 3 1
239 1 13.261623079181527 6.358937885280762 10.861046418576626 1 3 -3
542 1 12.039244696914947 7.584161299427965 12.627533774655246 -4 -2 -3