LAMMPS data file via write_data, version 29 Oct 2020, timestep = 300000

2048 atoms
1 atom types

-0.14712580697908884 28.49912580697253 xlo xhi
-0.14712580697908884 28.49912580697253 ylo yhi
-0.14712580697908884 28.49912580697253 zlo zhi

Masses

1 58.933

Atoms # atomic

473 1 2.902711797246512 1.995032593314638 3.655527035214645 1 -1 0
1324 1 1.8232085351880447 0.26989353383540493 1.9156357147153762 0 -1 0
1803 1 0.6509559163501941 3.0936443049708533 4.242849036269379 -1 4 0
800 1 -0.043931828207805224 1.426994500818961 0.14320514440156146 -2 -3 0
430 1 1.1207463485078573 0.47512532000214724 4.294412201973339 -1 5 1
909 1 1.2787435555060902 2.977229616514696 1.8118344662219883 -3 -1 4
642 1 3.243566454584853 4.4644510767609376 1.382782632380696 2 2 1
357 1 1.581390355211803 13.903408313308477 10.919254477106579 -1 2 3
142 1 3.776093759690255 2.0169010475425813 1.5762904540529095 4 0 -1
230 1 5.949385981545077 3.8371035569427443 0.943586078813738 1 -3 0
261 1 5.7100070399406935 0.7920405123330138 3.412010705158888 -4 -1 3
1761 1 7.423915056080101 2.6194727696409013 2.9117015565126025 1 1 1
1192 1 6.268438884037254 1.4888834765108125 1.1169364588731714 -3 2 -1
175 1 5.071067815336374 3.235151063223313 3.0860685050160264 0 0 1
280 1 8.040963010757638 0.3760218390420057 3.0127677081957644 -1 3 0
1061 1 8.328683172027116 3.754027871981947 0.7525732842538437 0 -3 -2
1733 1 11.069035493292093 3.1077148997675796 0.5198818181998319 2 1 3
290 1 10.02775415668269 2.3692371267543377 2.5336831334413317 -3 0 -1
1535 1 8.594447963338176 1.428669456495109 0.9028294278547622 -3 3 -2
1483 1 10.875177888347205 0.7613183505533515 0.4919295252378274 3 3 2
1909 1 11.852105737848605 0.9955029673195415 4.544467761132693 3 1 -3
234 1 11.220249906694859 3.3527608508517885 4.398487963132115 -3 3 2
530 1 27.250373901093504 13.544046711161531 13.591270685010285 -1 0 -4
1518 1 12.144348179218499 4.228698865662774 2.4156581897421607 -1 1 -2
1467 1 14.545063120292308 3.820409753322971 2.096018805447109 2 3 3
10 1 12.27864858695257 1.8259556928241243 2.282869150141631 2 2 -1
228 1 14.549704267306875 1.3776428609895774 2.144636454310202 -1 2 6
569 1 13.308557167961682 2.6242132787739036 0.287114974482317 -1 -4 3
456 1 13.459336266388453 0.22542891840675516 0.39992611353115304 -3 -2 4
936 1 16.83106833207544 0.11744725834621306 4.203583427199327 -2 3 3
1887 1 13.740484962340595 2.789553075847173 4.271353052023002 -4 0 2
311 1 16.307174902743093 2.4145905008159603 3.9866545742837376 1 3 0
836 1 17.184114368981483 3.506188220633412 1.822243604052617 0 -1 1
1424 1 19.390851676771227 3.1664468128037466 1.5054797994922855 -1 0 -5
252 1 18.81443133012072 2.207445070462753 3.8578692442002627 2 0 -3
1228 1 17.37103459437489 1.139651869024176 1.941001829076526 0 1 0
141 1 19.8482286828746 0.6006187600407827 1.7071531438359875 -4 -2 0
760 1 20.59160480316303 3.9244269631359634 3.38791779110449 0 3 2
1159 1 23.018632683127635 4.2154883823507605 3.0305061141921046 -3 3 -2
1822 1 21.779287668084002 2.673268885979925 1.378551325660573 -4 0 2
71 1 21.208029426516532 1.6047179646992584 3.4926099575001412 -3 2 2
672 1 23.557016189189874 1.8401965187824174 3.1959998508355385 0 5 -1
1999 1 22.188121427207562 0.38266484165663683 1.5009554920657755 -2 3 -1
670 1 24.02555126769959 2.35790677998957 0.8856359852473015 -3 2 -2
1599 1 28.160023347261713 1.5145990435768284 2.475975852140102 0 -1 -4
499 1 25.47071102732722 3.5330975484636777 2.400156842695609 0 1 3
1841 1 26.572991805079702 2.299154768469035 0.7576726896619221 0 0 2
332 1 25.754940266117657 1.0913793839974673 2.740985788985551 -4 -1 1
1139 1 27.836402022386956 3.931268841836234 2.2295489362843934 0 2 -1
1371 1 27.012997600328333 2.566158475248059 4.303762200612212 2 1 -2
1074 1 27.351955074891293 0.18155548057459792 4.460939972939952 -2 2 2
1687 1 25.961334688580415 4.598096817235371 0.41323880626584397 1 0 -2
1820 1 18.93534530448939 0.04714981790566952 9.713657984776471 -1 2 -1
2043 1 2.3272666063406993 4.694301199410739 3.5156532874723796 3 4 0
355 1 2.973598265730947 6.690256563785838 1.5531035226507073 -1 -3 1
317 1 1.8986907835833886 7.3570012728816865 3.587711903459757 2 -3 4
35 1 0.8982026719733398 5.7911978629456495 1.7094410463110123 3 3 2
2011 1 0.12571892750059643 5.5294968052124025 4.070492683043022 1 -2 5
693 1 0.16177869419765245 8.241318201904678 1.8706993386750868 -1 -1 2
1473 1 2.578010603782394 8.93611692707529 1.456439926145092 -3 2 1
711 1 2.8007315400992177 -0.14340811600298764 6.141211829978958 4 2 1
23 1 4.405907218057565 7.898746143732385 3.1231347315515 -5 -2 0
1953 1 5.207805186122689 6.170519594767322 0.990189377666749 0 0 0
132 1 4.705494476035368 5.491807800113058 3.095386406864811 3 -3 -1
1660 1 7.1377627344278745 4.933647002671026 2.8139553490726894 4 2 0
242 1 4.874782953104742 8.50033875774264 0.984066797163806 -3 1 1
1493 1 7.3189997281046475 8.423682930421844 0.6761731512249288 2 -2 -2
87 1 6.551918964532962 7.365291271960846 2.653332358385504 0 -2 5
197 1 7.630569307709278 6.008876508293059 0.6245280107447679 0 -1 -4
861 1 9.634941549723619 4.569180744255664 2.541000832145708 2 2 1
1092 1 10.185956922404886 5.472294296406539 0.28668508872223697 1 -1 -2
1717 1 11.270457875776174 6.670337684550823 2.1540364984240883 3 -2 -1
1395 1 8.891793639234988 7.018017857175866 2.5059376710401926 0 1 0
726 1 9.540127481123818 7.757953136353646 0.18712806232487328 3 2 0
338 1 11.029057695034059 9.068028207255036 1.9908332982320291 2 1 -3
1465 1 10.224358944142232 8.236941643078461 4.220277293051924 2 1 3
605 1 10.80601954819927 5.798591430720015 4.376060557541096 3 2 2
1246 1 8.410413432564441 9.266238030053465 2.4646470802063365 1 0 -1
1224 1 25.031672982721652 14.043643005713218 8.074918245583547 0 2 3
1308 1 8.31364017902332 6.174564799555707 4.656359904048417 -4 0 -2
325 1 15.566285914778582 4.590889160059116 4.168685780896358 -2 4 2
1019 1 16.941435957990578 -0.02449555783225138 14.118118885335113 0 0 4
1651 1 13.083835665693838 5.343725163041292 4.364089698749591 2 2 -1
60 1 13.724543059961412 6.3455006999109465 2.242979923799853 0 2 0
2012 1 12.751236426563294 7.730743920402979 3.9242510822480368 -2 1 0
6 1 15.11649905726761 6.990252548896603 4.0498068887086625 2 1 4
1269 1 13.445341934109944 8.65218437914776 1.6507661287677229 -4 -2 1
651 1 15.755756783215343 8.218362074659382 2.0226292892740494 -1 0 0
322 1 15.968288631541872 -0.0015362644368333012 0.135126559185001 5 1 0
347 1 18.10902185915259 4.845925589448804 3.685529060667365 0 -3 3
507 1 16.30042144548898 5.871135189154104 1.707123747695471 3 0 -1
83 1 18.925637396604422 5.360302447502677 1.3001397601070417 -2 -1 -2
1323 1 17.521071896648543 6.994938049331253 3.5918576987960638 -5 3 -1
965 1 18.03811374518108 7.681589080769761 1.263180613266997 0 0 1
687 1 19.492957726583825 8.622128452094953 3.1332821216505353 3 -2 -1
1449 1 19.978603216667103 6.319356569849815 3.388245137733417 -1 -2 2
1664 1 23.71045834617538 4.663224347234818 0.5978398856907937 1 3 4
813 1 21.317986983180894 5.037015691225051 1.2127819272612783 0 0 6
382 1 20.51275894333049 7.314817163739556 1.2210939345310448 -2 -3 -1
1777 1 22.41344581047432 6.505881070644014 3.0172815150898615 -2 -1 1
370 1 22.770935230145724 7.002334118704818 0.6928203573392948 1 3 -1
1035 1 21.946658905948247 8.752374017663332 2.4532926317667805 1 -3 0
960 1 24.293899665120676 8.078338650207105 2.3574551166343745 4 0 -2
426 1 24.782913875517544 5.674494965026763 2.5283269791330696 3 1 -1
570 1 28.143551364722818 8.386350206826064 4.300319363759394 -3 -2 -1
1309 1 27.17492941286075 6.423329962488716 2.1646581679002366 -3 -2 4
455 1 25.171553801964947 6.694265072046501 0.179867056748239 -1 3 1
1646 1 25.99312884221817 7.453379346881013 4.062436756274516 -1 2 2
1712 1 26.502971581260795 4.99805191029107 4.283007868506015 3 0 2
406 1 13.973204456930551 14.058902782128598 13.59386046677287 -4 1 1
596 1 24.737697557877993 9.115118070180365 0.12568230222582405 -5 4 1
454 1 1.254413204118082 9.85123335310832 3.356369464775079 1 1 -1
1251 1 1.966749933725048 11.461415238105984 1.469989441945522 -2 -3 0
1826 1 0.7523893102384253 12.309583511753479 3.352623884842085 -5 2 -2
623 1 3.6845762435914686 10.2639124227236 3.138053910086574 -1 1 1
1385 1 3.2192757496802393 12.716026891045061 3.1430524668432893 -3 1 0
634 1 1.5432849968649767 13.994220517916723 1.433537661780159 3 0 2
1848 1 3.7415159610314928 13.379879306534693 0.8945434364950986 1 1 1
1419 1 5.5365332213106395 12.201700916651864 2.6114917868328735 4 2 -1
859 1 6.72380162295267 10.774594429624392 0.7423454555498744 2 -1 6
1115 1 4.330532529775688 11.035051714372251 0.9338627025093154 2 0 2
476 1 6.167874160798079 13.228037913585796 0.3557028545139881 -1 0 0
779 1 5.938402688382835 9.90797350348541 2.7591218680818876 -2 -2 5
1072 1 6.763597227570758 13.341130216604132 4.435912012242975 0 5 -1
826 1 24.60238122219365 10.491199842818103 10.14306143215079 2 0 1
1194 1 7.911343385088996 11.707139239016032 2.512651389934499 0 1 -4
8 1 10.327578992100245 11.355132148051641 2.020990637539973 -2 -1 -1
250 1 9.894172130596193 13.707553614910296 1.9371262824331739 0 0 -1
327 1 11.773931292439435 12.31721873421648 3.8325061345141114 -4 4 -1
1173 1 9.13102275706433 10.129429709494547 0.4477572966906471 2 -4 -2
1462 1 9.26336439576849 12.878951082081489 4.04512179885321 -2 1 1
69 1 9.917037855842118 10.63722026763684 4.129967022681298 1 1 0
748 1 8.407745898872367 12.579417616525184 0.3733978294495919 1 1 1
2028 1 1.0581462739964576 1.2893353779851342 14.017898807535765 -2 -1 -2
696 1 4.507035807254772 14.15519981040367 4.9515431877416916 1 -1 3
689 1 14.656969362354333 9.399092465419784 3.6829338040017743 0 1 3
1990 1 12.292581233480904 13.117850403370424 1.7070808896124932 4 -3 0
633 1 12.2441902874813 9.925985422322224 3.8619930127623023 -2 1 6
1925 1 15.215164916462122 10.5462315681428 1.4599980577012646 -2 -1 -1
1903 1 12.966057781778956 10.91781728738987 1.5889064484129662 2 1 -3
1122 1 14.031455237076685 11.8541076185433 3.428279651885129 0 0 0
2005 1 14.741834421995181 12.808841018296897 1.347778695567154 0 -2 -1
943 1 26.764934438685145 13.29448217432962 9.938312708286688 -4 -2 -2
1339 1 17.02850937723774 9.508766138671058 3.620505338345549 5 0 2
600 1 16.466971672621845 11.83185915134205 3.2779570830865965 0 -1 2
985 1 17.54843074794529 10.090203725488069 1.3636446046780946 5 -1 4
1700 1 18.814025748460956 11.125556596043438 2.9992498758091792 -2 -1 0
1496 1 18.481676353158385 13.530682950482122 2.8466571709647006 2 -2 2
1118 1 17.062185461673344 12.597699096779156 0.9573204212254096 -3 3 3
1494 1 19.732102393445025 12.141613965541609 0.9742047137153733 1 -1 4
246 1 20.08262269809815 12.549987789183646 4.654507048776202 1 1 -2
858 1 19.912101900475967 9.629589914095892 1.0831457541232918 1 0 1
1656 1 22.519777286554834 9.628959230559794 0.10674891022040339 2 1 0
999 1 23.767095407903383 10.381596316713036 2.0366490144966245 -1 -1 1
1985 1 21.254662653771746 11.239168831120647 2.6450487037717743 1 1 3
116 1 21.026192321717765 13.531574668566737 2.6450265330381786 -1 0 -1
389 1 23.236118296846563 12.793413433426473 2.258082037372282 -4 -4 1
289 1 22.02842468510432 11.875479942376993 0.33169526928559995 -1 -2 0
566 1 22.47786524779019 13.699948628065728 4.538440601552829 -1 -1 -1
106 1 22.985619761872854 11.067212784390954 4.503020384226532 -2 1 3
921 1 23.81967857260556 13.84115437757187 -0.052368455484970586 2 -1 -1
568 1 26.52595279928199 9.147658432348146 2.336878668866663 0 -3 -3
445 1 24.454174954049613 11.652545535281687 0.06008639992391629 -3 0 0
890 1 28.317191620839843 10.956390397383862 1.6002065332439561 -1 0 5
1696 1 24.78970060542993 12.608394614368263 4.038963978948457 2 0 1
1196 1 27.681426314135642 10.94381963052645 3.9469803999055006 -1 -4 -2
1698 1 25.919847014774618 11.636910852821114 2.066591745456066 -2 -2 4
1278 1 27.08741943808542 13.157301874005721 4.00842703001772 0 0 2
120 1 25.377418342930163 10.149271058208942 3.959315641959207 3 -2 3
603 1 27.880213651901713 13.755819339014874 1.867745018501196 3 -2 4
1163 1 16.029161916287727 14.14227103914135 3.2454225033136503 -3 -2 -2
525 1 28.304070902136225 3.7634191292422003 0.007422286707934683 -4 0 -3
313 1 1.4495534106372374 0.86348984961587 7.982606136244787 3 -2 -1
1582 1 2.2226782703646575 2.2728532130801704 5.8707829551959305 -4 -1 -1
440 1 1.0526433251450191 3.1460168986095742 7.721040464413633 1 -2 -1
365 1 3.40330986936504 3.7943203365829414 7.661207215116376 4 -3 -1
1123 1 3.887378679682918 1.3917076309898118 7.891298263018623 3 1 -3
400 1 4.110185129261641 4.122483491788878 5.369313159593686 1 1 0
1658 1 4.485530268215567 1.6492234292388677 5.468252112437299 -2 4 3
1109 1 7.0180401049189625 1.9553020322535266 5.326135116350347 4 1 -2
1811 1 6.12589205960816 0.7426895678397659 7.191532435894876 0 2 3
1793 1 7.394593738881051 2.3442862319760054 9.25656136157671 3 0 -5
1256 1 5.865439603002792 3.2816257087061818 7.241237707082447 -2 2 -2
1263 1 6.402154584078921 4.288593412861951 4.919635215843931 -3 0 -2
1267 1 4.9889124454033755 3.260796122897573 9.47952290264999 0 1 0
1828 1 8.273704397879703 2.7385913918298486 6.986446112512582 -1 -4 -3
752 1 8.643053843400104 3.789582833046983 4.617922365986553 3 1 0
618 1 9.460305797035579 1.4497863811769287 4.637375516111154 -2 -1 3
1799 1 8.775153625996529 0.3544962798883433 7.041705516068283 0 0 3
1699 1 11.755021739417622 3.583122201717927 8.640495265966338 0 1 -4
1830 1 9.700221825455365 1.584162167631775 8.817031710301269 -5 4 3
531 1 9.150791458832398 4.0622863454182445 8.606180932803344 0 0 -1
868 1 10.968044385582393 2.352833793607429 6.773928924268277 2 2 -2
1650 1 11.36192522674424 0.079446632897238 6.6399767888520635 0 -1 -2
1553 1 14.154162873999907 0.3884350763323092 4.460722727930643 0 6 -1
814 1 12.14779302781799 1.117090116967214 8.763055832541502 -3 -4 1
1064 1 12.533124497738724 4.166222503540822 6.253389854569233 3 0 -1
723 1 13.33599255163213 1.7838781064833171 6.452197782101204 -5 -4 -2
483 1 15.781903655332325 1.6825219863438587 6.376104523200987 2 -4 1
698 1 14.801016787677483 0.6607328753431717 8.337691579732665 1 0 1
975 1 14.048535309714985 2.930155530530473 8.500143783719732 0 0 -3
1583 1 14.921854562907093 3.867593794573682 6.291568064993279 2 1 2
1127 1 19.746239425045438 0.06327483952719085 7.599014144158508 0 3 0
554 1 18.053236789063497 1.1647915597613745 5.959361327094811 0 2 -3
1381 1 17.381965517805504 0.6068114791705199 8.042297588548006 1 -1 1
1653 1 17.396275939088206 3.643329160047993 5.760595696553838 2 2 2
783 1 18.93619706571244 2.5867486492123275 7.6538581479122865 2 -1 2
771 1 16.570796365990226 3.1557452616744666 8.084029072961396 -3 2 1
249 1 19.829122491297404 3.588018945083307 5.650010700627882 3 3 2
1083 1 19.970112774246182 3.942302165956243 9.357280219460472 3 -2 2
1028 1 20.326783393930434 1.1134533237198272 5.634587675278517 -1 1 1
189 1 22.262183927680482 3.121119461321305 4.925581404997206 -1 -2 -3
1867 1 22.084787623328495 0.45645027905751145 7.761580799216546 -2 1 -2
1238 1 23.798766056735573 2.162673554492673 6.675256000694765 -2 1 -1
1740 1 21.51826735856187 3.0442491287957685 7.529138175472862 0 0 0
222 1 22.671135035933723 0.5739632570967108 5.316807518763714 -2 2 -3
891 1 22.40178749328262 4.74084843419273 9.288910277540174 -2 1 0
1851 1 23.194114122761896 4.450602923159766 6.886959578163644 0 -2 -1
48 1 23.19387509467895 2.3536383975169493 9.468333437940288 -2 0 -5
1749 1 -0.06582087933553282 1.6958397650150312 6.150214705053293 5 -2 -2
2022 1 24.6664834851166 3.6108302467397464 4.667203418330076 2 5 0
26 1 24.978501384636807 1.0845567621185996 4.959532235993716 3 3 -1
1435 1 26.71984663281995 0.038601665678051345 6.719262287893655 -2 0 2
1075 1 27.61871743831413 1.8822439600738918 8.400915239427174 0 1 -5
1303 1 25.23882320172251 1.2830358867653116 8.37914046733927 -1 3 -2
1476 1 26.21732151556595 2.515466476464675 6.684519440079014 4 1 1
1628 1 24.855895699896656 3.9592539491110417 8.484656332602933 1 2 0
1572 1 27.250963936838744 4.45686767326031 8.438125282921819 3 4 1
1436 1 27.926322990151895 4.175098719170985 6.077283646934638 2 4 2
101 1 1.6735826580955089 4.712547192568274 6.006703962950007 1 -1 4
2007 1 3.4951751449750232 6.454931068089088 5.098025898379282 0 -2 -2
1336 1 1.1378974008735256 7.357153144032229 5.855689754439282 -3 -3 -2
1639 1 2.6870682730748396 6.362227804177587 7.737441749130316 3 4 2
1893 1 0.26129283406363724 5.751711883900632 7.87022495235361 1 0 2
1388 1 2.1843001329576195 8.84265677786278 7.55233977032385 -2 -3 3
1393 1 3.0430944532464737 8.853563005309407 5.125963602163377 -2 0 0
232 1 6.844543532406645 4.9005859434002055 8.975314629124577 -1 1 -3
92 1 3.7797385904550276 8.050430338079096 9.216826276678555 -1 2 -1
1883 1 5.941875605503883 6.736805021090246 5.004043123611836 -1 1 -2
208 1 5.169802428528256 5.658378939137515 7.0454396146651 2 -3 4
937 1 7.596821074017015 5.393176477626679 6.867609811075073 3 2 -1
512 1 6.197693353391153 7.2950766646896 8.90576165544124 1 -2 0
720 1 4.6103017754612745 7.983316153832856 7.015101892797682 4 -1 3
983 1 7.240972394881683 7.979123196911372 6.698561388149037 -4 3 -1
1592 1 5.392970431376479 9.332284943180483 5.0121058355086525 3 -3 -1
1266 1 7.726481043230834 8.677670994795383 4.495168024352012 -1 1 3
1719 1 10.080882111163124 4.938775271170926 6.518321583481029 -4 -2 1
1728 1 9.022419141928971 6.4451153863098 8.476862539793592 -2 1 2
438 1 11.312320436994117 6.209099872037297 8.251454116008869 0 1 2
492 1 10.692586033151679 8.46028593423054 8.311772629100297 -2 2 2
1299 1 8.162047524059654 8.63586843709613 8.741787105676174 -1 0 -4
745 1 9.43686259089983 7.306889330838622 6.313590208971931 -1 0 -2
1156 1 11.826329648968441 7.084772224738049 6.0086523321267675 -2 -1 -3
757 1 11.266141001984955 9.397692116935255 6.1845644658234775 2 -4 -1
513 1 13.619277059659296 5.205367837699853 8.192250292519565 0 -4 -1
130 1 14.195780084355624 6.355671902265674 6.122647212379103 3 2 1
351 1 16.106093542617984 5.748293638273134 7.960972648833206 2 -2 0
1758 1 13.686834918069877 8.892512277319682 5.9028546778201525 -3 -1 -1
474 1 13.06335427364244 7.6520805571644255 8.031146880762549 0 -2 3
224 1 15.2397419156565 8.560059819000212 7.731371712860275 -3 -2 -1
341 1 16.24124977608013 8.2626538385506 5.525849707839731 1 -1 -1
811 1 16.96426578861952 5.925674416356078 5.709755909088345 -1 1 -2
1268 1 19.50425903463927 6.356467981284942 5.7091326121404755 -2 2 -5
1730 1 18.337762365768477 4.971113781398758 7.480946719758293 -1 -1 -3
593 1 17.72817881238766 7.467791388338385 7.340900022729153 0 -4 3
227 1 19.48875131691573 6.49729734006644 9.061348665540244 0 1 1
511 1 18.44935442424822 8.623380846332243 5.435011861136126 2 2 3
47 1 18.964374631744683 8.949783371583091 8.947492848124966 -1 0 -4
1969 1 20.381670914067286 8.003913891256692 7.257995703181489 0 1 2
1981 1 23.483941748979667 8.538681413843328 4.647328022421301 1 2 -2
1751 1 24.02684527309438 5.851620669437971 4.812434040788929 1 -1 -5
154 1 21.661774314771783 5.496517783468556 5.090527879404376 1 -3 1
1722 1 20.986936410407438 5.507905256204052 7.382695889908261 1 -1 -1
888 1 21.195870242586814 7.852068962484907 4.790715434744968 2 -1 4
997 1 22.847681312882074 7.0898943981656775 6.72004783560054 0 -2 2
1095 1 24.161590652871787 6.204427198602259 8.489395630039411 4 2 3
1076 1 21.98462375388732 7.2929571725094435 9.059032855746128 0 1 -2
536 1 23.821596440858563 8.825431557519938 8.597974528475271 -1 -2 0
195 1 22.21045424442402 9.446244909612739 6.6750605525467535 -5 -4 0
606 1 28.41947404212646 8.27136885867671 7.674815321109542 3 0 5
639 1 25.712846729693133 4.909926576634344 6.5852803147746135 -2 -3 2
1666 1 27.543579880258214 6.738466869232296 6.092225541423806 -3 2 3
1279 1 26.51083182519335 6.885066374560252 8.341170960811 -3 -3 0
1353 1 25.323185788897888 7.459103670676707 6.37184982042989 0 1 2
1197 1 26.866515683370075 9.380734957941955 6.034365968069084 -1 -3 0
1694 1 1.3649350352792848 13.811799485193584 7.565700715493307 1 1 -1
1261 1 1.8361570210007367 13.812775392239026 5.152437844114859 2 -1 3
1591 1 1.658217954496153 11.296667683653117 7.320100012732574 -3 3 1
399 1 2.5984910021858942 11.242918189574679 4.9203674519621625 -2 0 2
1890 1 0.6997849703577526 9.831027640028505 5.713968900865902 0 2 0
1392 1 2.9563241027142233 12.876695115972183 9.326822225216134 4 3 3
1672 1 3.425256911619657 12.943825121741309 6.9006362995703165 1 2 0
1946 1 -0.03444041185894238 12.118456246729716 5.770418746093115 0 1 2
403 1 3.4687465341744996 10.495109754783813 9.507696366077665 -4 1 -3
833 1 0.2856135906052435 12.478785132690449 9.226967160992215 0 0 2
1292 1 0.9093951761673968 9.99733730864329 9.368803566421365 -3 -1 3
1961 1 7.214290248423323 11.084136074332726 4.590631192568666 1 -2 3
1721 1 5.7746017451294405 9.766444253924329 8.923469272021517 2 0 2
989 1 4.0680072016638835 10.440502709430996 7.03651029000227 1 -1 -1
1989 1 6.100489586165272 13.168563991740765 6.620122677485865 2 1 -1
288 1 7.584096710481317 13.60928132940828 8.48204096096596 0 -2 -1
544 1 4.895252797127421 11.699421520356958 4.912594628779531 1 -1 1
1474 1 6.444749261465435 10.417807189408796 6.733993296843227 -3 -3 5
1780 1 5.504620690001766 12.103471780008446 8.774276366563042 3 0 1
599 1 7.928458357474616 11.34473470206137 8.480288941616804 -2 -3 0
1454 1 8.514696249722473 12.38325051742467 6.435883794211595 -4 0 1
1862 1 10.018724267384824 12.88422463025569 8.280824107605701 1 1 1
563 1 8.903537244779761 9.861906317346762 6.504011042132127 -3 -2 2
1389 1 10.813207565003268 11.67412638098637 6.136082796510657 1 2 2
562 1 10.243050834871823 10.623945529099702 8.205050181670034 -1 -2 3
969 1 15.755115684279202 2.352713518772428 0.1102695379027806 1 1 -1
408 1 14.46702476912702 13.67423033800244 7.49235328541298 -1 3 2
1590 1 12.613514720090336 12.372115742941823 7.850325801628121 5 0 0
1484 1 14.92169691877877 11.019076753799252 7.652264126586258 -1 2 -5
434 1 12.686772171305249 10.123403488650787 7.941972467101262 2 -6 -3
76 1 13.148624898659456 11.181089903452344 5.78043291935443 -1 3 0
1617 1 15.282735576505003 12.919421920027892 5.170278059561099 1 -2 1
502 1 12.832036205353994 13.516667763293041 5.749245879087714 2 0 0
1918 1 15.564069069167594 10.504669815079435 5.467134474100931 0 3 -1
186 1 17.71438285748512 14.082894725556304 8.883319978009428 5 2 -2
1502 1 17.785810489678553 13.844349175894774 5.114761202640294 4 1 3
1833 1 16.630195494189934 12.659479075023617 7.305666762532842 -1 -2 2
1022 1 17.911783016064412 11.325135081216379 5.314559114160619 4 -5 -2
1908 1 19.19145684207969 13.086045421877193 7.102983232007249 3 4 -1
931 1 18.079966208598606 11.563399185983974 8.94185202248385 1 0 -1
402 1 19.597522829532487 10.520205329199186 7.112737293332309 1 0 -3
1685 1 17.23695270177499 9.85549517350909 7.481575523498867 4 -1 -2
1116 1 21.222853083703633 9.623973374293643 8.79700132726235 4 -2 -1
25 1 20.544819244553082 10.181984743132166 4.7002263306897625 -3 3 -3
292 1 23.111456903292087 11.252078298621692 8.481210905772405 0 1 -2
770 1 21.65605792854334 11.726489328847336 6.314913811824006 3 -1 1
625 1 20.734538929397353 12.113049569512713 8.740052997002184 3 -3 1
170 1 23.96907341928118 12.728092400438143 6.632256990251065 -3 1 -1
553 1 22.63652892653571 13.709678387252984 8.41950340112984 -3 1 4
307 1 26.01849709525294 9.401643800751406 8.411471024015313 1 -1 1
2034 1 24.46206574566917 10.182513915809368 6.373114899241793 -1 -1 2
1029 1 27.876196918870342 10.809525424749836 7.8579647647519 0 0 -1
1565 1 26.153988584491096 11.785327037850676 5.958958279163298 -1 1 1
418 1 25.33590734834125 11.670484055729688 8.277739356727004 -2 1 0
1415 1 27.401996646071474 13.392606325342944 7.563213843977827 0 0 -2
1538 1 2.378546527057992 2.531099461996469 9.668019975845334 -2 0 3
1053 1 23.56036666279479 12.598314030929943 12.517798379326628 -1 -2 -2
1363 1 2.8289606544139767 0.06948545956697524 9.850496723187533 -1 0 -2
68 1 0.7222481526084111 0.9204536863871589 10.353001379576614 -4 -4 1
273 1 1.5039429999363396 2.700147107723565 12.0640881556546 0 -2 1
1219 1 3.507670315253447 1.49407735081854 13.79135804847807 2 -2 1
394 1 0.11622629928895795 3.4046744685634707 10.081848639652154 -3 3 2
265 1 3.6290629576246802 4.272797454647017 11.360221527232698 2 4 0
1571 1 2.8781791755739814 3.968185151397991 13.621821130370527 2 -1 -3
1813 1 0.1967080160987728 3.816814394448846 13.756520167008258 0 -3 0
1856 1 24.420080858971694 -0.0011036648825114848 1.1207255749035374 1 -4 5
1816 1 4.026534659609385 1.7606392907127126 11.509086775838886 4 4 -1
82 1 27.793257200592087 11.19988410370298 13.784542625168475 0 1 1
735 1 25.779685960310644 11.762503452681056 11.791719572149246 -1 -1 -1
731 1 5.2122943294433695 0.7109278860576868 9.715532365800652 0 -1 -1
188 1 5.915148479001216 0.7938133950820905 13.626293517255368 4 2 2
1598 1 6.416197830341013 2.2504908647206134 11.459523068720353 2 2 -4
1629 1 5.247843585353503 3.2865927279741816 13.306466821459136 1 0 0
1094 1 7.716331881575195 2.78045710771127 13.317410761968482 -2 4 1
535 1 18.015001535999986 1.9106576478134798 -0.12669407609235264 -4 -2 0
774 1 8.275233923734564 0.12367976070615128 13.364109741402597 1 0 -3
253 1 11.0521636162384 0.9004336618702686 10.800670803142038 1 5 3
1321 1 10.242958643595633 2.1180228398426384 12.996179657731423 -2 -1 2
1846 1 8.703498983795523 1.2092524563017688 11.078351653715131 1 -2 1
866 1 10.620553040538663 3.133197859032325 10.82217477808222 1 -1 2
1679 1 8.310406676541671 3.91474230857171 10.960679079961427 -1 1 -2
899 1 12.198887801386135 4.187084430905838 12.611996553881228 1 0 4
503 1 9.65795223275869 4.470648928249764 12.88144432781549 0 -5 1
1258 1 13.931251161334943 0.2954724289893443 10.607308049717364 -4 0 1
1950 1 12.585610769853172 1.654585506513131 12.63587981131376 2 2 -2
276 1 15.196665037378073 1.3645674315531766 12.276981783902848 2 -2 1
1662 1 13.216819463395538 2.616998807128206 10.62232195206251 1 -2 3
16 1 15.245433076460774 4.433342626241861 9.978307443834264 -2 0 -1
607 1 14.603324694970834 3.638101780298179 12.158339212893788 1 0 -2
1965 1 15.793215203603195 1.9518496838840367 9.94518288144951 -3 0 -3
1541 1 21.547208001245338 14.157131349378751 0.4055641050412446 1 -1 -2
576 1 26.381666082310772 9.363749756656851 11.967367847204777 2 1 1
70 1 18.39691111541643 2.2728305841987644 9.835187605826155 3 3 -1
1917 1 17.666251606890306 1.009413004208227 11.920628032224165 3 0 -1
123 1 19.923874563644297 1.749623103803129 11.759325360749871 3 0 -5
567 1 16.973914817251703 3.1301854136556746 11.87689200937585 2 3 -1
1861 1 19.02012814535771 1.7509066941514202 13.988992540134005 -3 1 1
1178 1 19.334846740890946 4.2090626675391976 11.5802207042556 -1 -1 -3
1497 1 18.442790772211545 3.8842728634245294 13.636176461194756 0 0 0
380 1 28.471375266719676 12.415630178971226 11.607202470202052 2 1 -3
1041 1 20.878372516632133 1.5692092970549163 9.343955832489055 -5 0 2
550 1 21.45532621278896 0.6135093170771723 13.542017800947157 3 0 1
938 1 22.17010339050872 0.608825377781022 11.17002375105139 -2 -1 2
1638 1 22.9933450555544 2.1163337075215436 12.867002356698183 -1 -1 -3
1418 1 21.714418964941025 3.337273573920343 11.069674503639062 -3 0 1
1864 1 20.832774813709385 3.3015633334829126 13.289688314701474 1 -4 -1
90 1 24.064508008087756 3.665157372207309 11.18933712852545 2 -1 -3
1513 1 24.592802769096217 1.1155683347723644 10.968212316648165 1 1 4
1151 1 27.624419675823333 1.9331797656265577 12.059179739967622 -1 2 -4
1782 1 25.991402312799302 0.4141016916703074 12.87487313944293 -2 4 2
1529 1 26.735256052712238 0.37590161805772315 10.381274478424594 -2 4 1
558 1 25.556668470503567 2.933721417217371 12.841497474973721 0 6 -2
968 1 26.256011175488354 2.8420474526518253 10.321562604721988 1 1 4
1314 1 27.346397102695583 4.428891793450837 12.029198785356346 3 1 0
1158 1 1.1707949592259057 7.383721848570049 9.57814792851665 -2 0 -2
1987 1 1.8993816609435918 5.044705840817498 9.623558152370816 3 3 -2
359 1 1.1051616372221202 5.016943401133674 11.911544719548386 1 2 1
838 1 2.7892020268279296 6.594282961743401 11.297890531482865 0 -1 0
1463 1 2.439041674084151 6.46359089651756 13.493856343894842 3 0 -3
1397 1 0.5513954960805222 7.475109851590442 11.860397451343664 0 0 -2
1992 1 2.4480350997369262 8.957753602563413 10.955303823750286 0 3 1
751 1 1.9516645769731356 8.95510568677138 13.398735157373274 2 1 1
486 1 4.4126336175092895 5.720248584743303 9.326372056469651 -4 0 -1
786 1 5.876272399632998 4.690581353995005 11.23225038237247 -2 -2 5
1971 1 7.233989534620442 5.1924017724648355 12.98210673071694 3 4 6
1955 1 4.446830124489178 8.11296489472176 13.101241774828985 1 -4 3
1612 1 4.758794329269761 5.771217067774099 13.188232141355623 2 0 2
1365 1 7.871231631880132 6.498605474915982 10.61913300523048 -4 1 1
1934 1 6.872747416786293 7.471943759808875 12.989039325615082 -1 -2 1
1231 1 5.185026052541932 7.028616697899624 11.09156003645546 1 0 4
681 1 7.183258391037811 8.91035418827687 10.963465337929728 1 -3 -2
923 1 10.299049320769816 5.480832950228051 10.543713358838815 5 -3 1
305 1 9.225219554486046 6.796581848186959 12.613407083465574 0 -1 0
1745 1 11.682887886930775 6.572742099821122 12.659632091819512 4 3 2
1149 1 9.67480347318077 7.941068107536012 10.561440837214036 0 1 -2
1858 1 11.285528597987168 8.938350051340194 12.253438554665037 0 -1 3
340 1 12.892304723976848 5.034891081585876 10.477580053166283 -1 0 -2
1676 1 12.258279959120689 7.230211690171788 10.352569237660727 1 1 -1
140 1 14.518130674968706 6.676919144486452 9.9525798760891 2 -1 -2
1338 1 14.197844441260633 6.065370812898198 12.400142742574635 0 -1 -3
1756 1 14.30896910804237 8.990460176426032 9.927993670242534 -1 -6 1
959 1 13.611187871486374 8.331767974726866 12.11104527731245 2 -1 -1
1957 1 16.04364763549239 8.146835130673495 11.855616986978593 2 2 3
1618 1 15.654171192913795 4.771637457952985 13.976570675808418 1 4 -2
1734 1 15.658305162631066 7.263561495427213 14.059432250119329 2 -1 4