LAMMPS data file via write_data, version 29 Oct 2020, timestep = 300000

2048 atoms
1 atom types

-0.45001603008721425 28.802016030075908 xlo xhi
-0.45001603008721425 28.802016030075908 ylo yhi
-0.45001603008721425 28.802016030075908 zlo zhi

Masses

1 58.933

Atoms # atomic

1303 1 0.2307773720563263 -0.03393921279513634 3.153722848543892 0 3 -2
10 1 1.963683286817167 2.3050735139291145 2.894142290221398 2 2 -1
1728 1 1.3798447705422467 0.8943485984620276 1.0895804322505602 -2 1 2
937 1 3.2043466398724947 4.204503417943026 3.7869504881230664 3 2 -1
1599 1 3.8542205926912203 0.3597440758410577 0.770861150180953 1 -1 -4
313 1 3.9882622198539828 0.8549187198119574 3.1208060475156483 3 -2 -1
261 1 4.9653355287274845 2.9618995962534846 2.8436634973745685 -4 -1 3
1308 1 0.8588294675958035 3.1674603265475874 0.44615174856786 -4 0 -2
234 1 3.607542224498225 2.9199411380370526 0.8086367087816402 -3 3 2
441 1 27.430319071061597 13.82577339798161 1.91839054849732 1 2 -2
2039 1 6.819654127243272 3.9079509788339015 1.743194141298667 1 0 5
1105 1 5.783108922345134 1.7395762525994134 0.9472566162734593 2 3 -2
1887 1 6.398439760285875 1.1865142019557555 3.155446211474988 -4 0 2
184 1 6.047111738732085 3.1278394087489323 4.958867344701995 4 2 -3
1622 1 8.431716125522511 3.134176910387087 3.3405957182775494 -1 -1 0
25 1 8.325756753245397 1.3430966322542803 1.2585857256443795 -3 3 -3
986 1 11.126770909234429 1.7333974344621046 2.3132623917700585 2 1 1
60 1 11.681346478818266 0.9138109275473905 0.3147936823397126 0 2 0
1543 1 10.738126106412988 4.090956648542991 2.6203712710573703 1 1 2
1035 1 12.583421315610892 3.119979712733854 0.32207651406560744 1 -3 0
1886 1 9.354478567151304 3.1929411110239485 0.6739964126364859 0 -2 4
687 1 14.40082414562638 12.687042795073522 -0.04636020053075385 3 -2 -1
1620 1 13.129124501557325 3.102841349697298 3.00889654344104 0 -1 0
676 1 13.401324993924904 0.6370156439061099 2.669367712339269 -2 -3 3
1884 1 16.396265737008605 1.6041812609816635 0.23704677657096895 0 -1 1
456 1 14.902842177209768 4.486559070380073 1.2991989197186735 -3 -2 4
393 1 11.443369432780472 -0.34020119271648164 4.388975001352544 -3 4 3
1028 1 15.242715529069896 2.5501620119679536 2.324696268554136 -1 1 1
896 1 15.140585679508527 4.638127529867549 3.8309861487851578 3 0 0
1496 1 22.60445936319954 13.644347104162005 1.8579064847646944 2 -2 2
483 1 14.113100368946323 0.8853832479528319 0.4175808024256238 2 -4 1
991 1 25.379293379825278 10.147621343352554 14.079672822962415 1 -1 2
114 1 17.845531432151127 14.071663007543032 1.5576340118577447 -2 -1 1
1988 1 18.78398664513812 1.6055237499435928 0.7335194263452585 0 -1 1
891 1 19.255649810904885 3.312288605295066 3.0689908653095643 -2 1 0
997 1 17.13530991607668 4.111094947947392 1.3487654200622095 0 -2 2
325 1 17.342271186164503 1.8795130240021285 3.0023075520736113 -2 4 2
791 1 21.279676967756437 0.8765179579448432 2.267036489865587 2 0 1
536 1 27.095570885268124 12.612991783463565 11.350663995093576 -1 -2 0
1576 1 0.072258712829667 5.591480770096246 0.8217733359373525 0 0 4
2036 1 20.94098806058259 3.0320015421477637 1.4465236188648098 3 0 2
680 1 21.877693386188902 3.1057178942173786 3.6696169196299335 2 1 -3
1687 1 23.675961648391464 1.6786944052982578 1.1878167603004586 1 0 -2
71 1 21.447038132009396 0.9369203484290605 -0.13765515889920732 -3 2 2
455 1 23.39836774493792 4.776984103490238 2.7883691324491475 -1 3 1
1999 1 18.33047110005321 0.2011279700910268 6.4221520732075925 -2 3 -1
1238 1 24.22992464743436 2.5500452919810805 3.391760864692085 -2 1 -1
120 1 22.82162085773335 3.7913290461796114 0.4452622016142169 3 -2 3
1856 1 28.7796944958746 2.466270869307951 2.2086996923695312 1 -4 5
886 1 28.16620974622073 0.28575372493081275 1.1536071096826646 -3 -5 2
1393 1 26.07170338769592 2.3666918259748893 1.8446348310344742 -3 0 0
1309 1 27.04841547321518 1.328464325313809 3.6441886174270515 -3 -2 4
718 1 25.88045064625372 0.5921729845089483 0.07361869746415217 -2 1 1
1489 1 25.0347234600712 0.09189886045949991 2.2358446495609896 1 4 1
1336 1 25.81804579176829 4.218306189759118 3.401276197811169 -4 -3 -2
596 1 27.424080210539742 4.17052668914 0.8927960357766307 -5 4 1
1353 1 21.37816094567495 14.102672048234245 10.512631613559424 0 1 2
182 1 2.244580768873139 6.257694092167698 2.145312585800924 1 2 -1
570 1 1.0544929839048474 6.540641224609752 3.9990475516085358 -2 -2 -1
634 1 1.674021208252955 7.548432924010422 -0.02505315558125004 3 0 2
660 1 0.5086480646548387 4.582264115320269 2.8381848541513186 -3 2 4
101 1 -0.0946832354283017 7.751220213237206 1.9871151014280066 1 -1 4
1628 1 27.893285734874283 8.143065791606885 4.628511966049045 1 2 0
683 1 5.409298956076993 3.300972226781966 14.014940027875255 0 2 0
2043 1 4.016342904824912 6.846468627690147 0.03526330999635385 3 4 0
230 1 6.344052393777609 5.778276469550957 0.09363918905910895 1 -3 0
618 1 4.038032350965654 8.066002627574042 2.1722863935109844 -2 -1 3
1953 1 6.628848748647351 7.590416668734184 1.6959508297337695 0 0 0
2006 1 4.694107385370925 5.230134807512283 2.0124103862507132 0 0 1
266 1 8.562088393717676 5.89720647410014 1.7369807927771266 0 0 -1
8 1 5.6727854245945935 8.183265186274 4.001568101147609 -2 -1 -1
13 1 6.604487187073623 5.284174526812804 3.957968008748324 2 0 1
338 1 5.7388426608975225 8.824097291184765 0.015797295214665108 2 1 -3
1385 1 7.670111462596674 9.278234974151875 3.000893604591231 -3 1 0
1733 1 8.965444018130352 8.1042553213462 1.345359597026862 2 1 3
607 1 10.55019693629565 6.452011241954583 2.959032991503999 1 0 -2
1228 1 12.144180997955756 7.330343759839808 1.295231327431028 0 1 0
104 1 10.514188381937839 8.855766374026526 3.244052095172313 1 -1 -1
715 1 10.854997419774406 5.320796495639512 0.3697662483872647 4 3 1
1722 1 12.84366149401829 5.172117762451026 2.231293723598597 1 -1 -1
1257 1 13.58388588783627 8.885697043871847 2.4785238611719564 2 2 -1
1140 1 14.575951300509193 6.675391782796187 2.1768083305602373 -1 6 -1
1020 1 15.892519083195142 8.615121824069803 2.028116679862934 1 -4 3
783 1 15.491293562023873 6.966798513521599 4.1487672114725385 2 -1 2
1173 1 14.402244485065186 7.812049764758077 0.14944637964141605 2 -4 -2
615 1 13.11878546816585 5.371030905016075 -0.12520447167436644 -2 -1 2
1511 1 6.403355324375412 14.13382365763574 9.115395585263817 -4 1 -2
1752 1 16.75013322665587 6.129512253057043 2.105706303686375 -3 0 4
555 1 16.28321561387431 10.09683960837526 3.8925654499252813 -1 -3 0
1787 1 17.700989225098674 8.486854520790434 0.7212155237289428 -5 4 -2
1424 1 18.837545029423374 6.279760308875713 1.7560429614178408 -1 0 -5
250 1 17.732699074424296 7.9899504902885745 3.3853821056242817 0 0 -1
698 1 19.299738116170218 5.913474245790194 4.241183522754121 1 0 1
185 1 20.84529794636196 5.357593828375493 0.45429843626561395 0 0 2
1777 1 20.89300985169548 5.280785636761137 2.7354011510906155 -2 -1 1
1712 1 22.88933447023016 6.3606290678003194 1.265472817547285 3 0 2
382 1 22.54753679971978 7.059751074869737 3.667823873208585 -2 -3 -1
1840 1 20.701223501446087 7.494729654568596 1.5023185179082912 0 4 1
1981 1 23.436872776671777 8.619970461303687 1.9673233967026746 1 2 -2
520 1 21.835525466023228 9.906489926196864 0.13916812952657487 -2 1 -2
639 1 24.78051003869939 6.510184216670126 3.3381128445847805 -2 -3 2
648 1 24.891289350466728 4.748275790906545 1.0317539625842187 0 0 1
890 1 26.672634255532486 8.025971352617638 2.2216364187294984 -1 0 5
595 1 27.546621126012724 5.80215790409239 2.809761214631262 3 -3 2
507 1 24.9678561237914 7.568384347670769 0.3595282540890026 3 0 -1
740 1 27.37715508582584 6.455079596460198 0.2928959726851409 1 2 1
1123 1 3.842023661086065 9.686187691314434 0.8974230550646061 3 1 -3
739 1 0.5594121413519426 7.53661489927404 13.574086451701783 5 2 4
1955 1 1.7183418166224023 9.18122625872418 1.9455120571613937 1 -4 3
1196 1 0.17227170093247435 12.525402721871611 0.5195971171717503 0 -4 -2
563 1 3.5029684493318993 10.53635326188845 3.1175670117304355 -3 -2 2
204 1 2.531708852261823 12.265680330102775 0.7767640441653172 1 1 4
414 1 2.6383151126134874 12.878970017976657 3.2163570387118745 3 -2 0
192 1 3.7214974789737205 14.046389542113683 -0.1475616963678434 1 0 -3
350 1 0.8273976980326505 11.351279464483891 2.069299622447301 1 2 0
341 1 7.662073826936526 10.249499751605864 0.8743464439473232 1 -1 -1
1239 1 4.575306523622788 12.296704075294159 1.8446334150376487 4 3 0
1134 1 4.90619656602718 12.412350846425554 4.443980131058205 1 -2 -4
1269 1 5.696196464200579 10.057042657246054 2.152102103355565 -4 -2 1
1072 1 6.284779270324536 14.012327960146841 2.8127263357870076 0 5 -1
779 1 6.988663077675142 11.739567141931266 2.916658292323988 -2 -2 5
465 1 6.547244630209485 12.451904082149694 0.6386418154549574 4 0 0
899 1 7.584885699412013 13.796073261696638 14.141183040835152 1 0 4
1101 1 11.172659610439615 9.407554838415567 0.7221395137496824 1 2 3
1990 1 12.091330337103937 10.982852889347116 2.0810934915822323 4 -3 0
513 1 9.473649988480512 10.753372403111472 2.271825136188265 0 -4 -1
746 1 8.896037054143234 13.348471834217346 3.1452175394435757 1 2 1
1799 1 9.34908104768343 12.255774410229073 0.8054421228810311 0 0 3
1615 1 10.604700397940478 14.044686842208849 1.5919423113238076 -1 0 2
841 1 15.64424045149273 9.88871168704845 0.22529064350075967 -3 -1 2
2001 1 13.409472152725114 10.259785008114555 0.27832138840280884 2 1 0
1903 1 11.710325729230906 12.163037083863493 -0.037726823607596605 2 1 -3
1590 1 15.000272622857604 13.550861352235886 3.6617738158779742 5 0 0
1322 1 14.7175330458145 11.308094213743475 1.8389578634711214 -2 -2 2
965 1 13.260660660697503 11.859667651672556 4.1440655863876446 0 0 1
983 1 12.844324680420364 13.2427647284008 2.098061678540145 -4 3 -1
205 1 16.58591969640827 12.049816326742212 0.40565541697937035 -2 -2 1
1642 1 2.6534059396226253 4.953542455643982 0.13504861093961384 -3 3 2
1623 1 18.126229637644435 4.150691565207864 13.90441002632367 -2 2 -1
98 1 3.03613739411914 2.438874750956447 13.784522514266445 0 0 -2
960 1 18.9292745787682 12.21595684841596 -0.0019336200436153028 4 0 -2
1729 1 16.745186625246603 12.370785759155824 2.9590028962317803 1 0 -3
1113 1 17.64092265090143 10.546816536849386 2.051300833113969 1 3 2
747 1 26.370723364867047 12.416067054200308 14.015535777209656 -2 -2 -2
541 1 19.38637602626347 12.204757104736917 2.623012362470048 1 3 6
44 1 19.59034991154916 9.773348159258022 1.2452808809835967 2 -4 1
1908 1 14.594739805567329 11.692590584576315 13.959513542072775 3 4 -1
1985 1 19.14066997724656 10.141980932890952 3.881006123510237 1 1 3
1224 1 16.919165419523594 13.62047468490747 11.473841607010593 0 2 3
1500 1 28.06738402795949 -0.34448557600742963 5.173120950837123 -3 1 1
244 1 8.518017616250011 9.257966975893163 13.729816512693912 2 0 1
1817 1 27.431361572808107 10.732133568028392 10.208530226311538 -1 2 3
1925 1 21.26315920128532 12.156340872686432 0.4579844174034634 -2 -1 -1
1388 1 23.814363402920698 13.036579351998734 4.1105322389541925 -3 -3 3
9 1 23.699461747701555 10.818464905074872 3.2298290613803142 -3 -3 0
1531 1 21.444109164974513 10.30647106901043 2.5360113080185296 2 2 -6
1476 1 21.61562444929705 12.365724093393244 3.5169418858783725 4 1 1
348 1 23.29561783072335 11.37143405317331 1.1786462118061733 2 -3 0
1354 1 -0.20671813366189576 9.812573318384995 0.6419579495487051 1 0 0
68 1 25.718949268065565 10.07494301684105 1.815537938023048 -5 -4 1
858 1 25.06411561586529 12.899275527046056 1.4639872993346992 1 0 1
488 1 28.54834175286706 9.851548344406515 2.987202803179159 1 0 1
1197 1 0.8758712316873456 14.169942835473696 2.0526353787726914 0 -3 0
1565 1 25.89318700815555 11.934484339014814 3.705876373749673 -1 1 1
984 1 27.289147824089348 11.48308107983758 1.1908683660737982 -1 -1 0
1635 1 28.400332859217208 12.32422327931279 3.3664831378244764 -1 1 1
1014 1 2.013419828251929 0.12001944172711909 4.876323405268269 3 3 1
1803 1 0.5861324791754796 -0.0034166316032939736 7.059921399446445 -1 4 0
133 1 0.37647742353905755 1.9551555268030185 4.589806447582692 -4 1 -2
1324 1 28.568140371739666 4.047731111523327 7.308364900703061 -1 -1 0
1296 1 1.5588714890993933 2.533152675765818 6.927857471918513 1 -1 -1
1585 1 -0.1975094647579992 1.8908772678950494 8.59151399961195 2 0 0
1267 1 1.805066215934029 1.3805439233046422 9.09852617935612 0 1 0
239 1 21.425664680827857 0.1313974675008861 12.923529763211219 1 3 -3
1061 1 7.534763888986051 0.8891588345547956 5.733819251486587 0 -3 -2
1583 1 3.0901970726228285 2.2255553991067467 5.121608801450863 2 1 2
199 1 4.883410287456946 0.6702413139121852 5.798802470298808 1 -2 0
440 1 3.1621453091419096 0.48499735524412435 7.1686249032321 1 -2 -1
2007 1 6.512291184934158 2.785715877719447 7.3089520847858775 0 -2 -2
1621 1 5.724705640940586 0.2651421499369978 8.0214291917013 5 1 4
265 1 5.536086212908863 2.8327864696506713 9.342705304342687 2 4 0
1339 1 9.344897873715883 0.8323732193915832 3.9139017907367055 5 0 2
731 1 9.356414702514957 4.905046663444847 4.535476936820881 0 -1 -1
1355 1 8.696338525244727 2.8411478531117487 5.928642415805939 0 0 0
1201 1 8.193551115852697 1.1774139552627436 7.92189188196166 0 2 2
616 1 10.05034026771383 0.5529185279206563 6.3600578150075835 -3 5 2
1793 1 8.466032123279705 3.6918895392729985 8.810586770917805 3 0 -5
1665 1 11.043717939639304 3.4292544385185706 8.588770943403036 -4 -1 1
1699 1 10.81859167164783 2.82089218391047 4.819983577460167 0 1 -4
370 1 25.64326617253478 11.965725442683546 9.690552487371754 1 3 -1
168 1 10.035439192942063 1.3478098176598734 9.215429521865605 2 1 -3
432 1 15.548533800921081 1.8388987231794012 4.617185726615013 -2 2 2
1289 1 13.7732038328633 3.8669472902870936 5.6945918494426255 -1 4 1
284 1 12.768195254211777 0.013369307179440792 6.647052069843527 0 -3 -4
221 1 11.988178741732215 0.2430641465384039 8.833452365980804 0 -1 2
174 1 12.264041416066144 2.3786581169717067 7.027852611981559 4 -1 -1
1710 1 13.066675068886145 1.684946313176471 4.841619594214208 -1 0 2
70 1 14.48936831111071 1.7787741752611175 6.867531027959462 3 3 -1
969 1 18.871584721661925 -0.06954696631213769 2.9573915088340326 1 1 -1
1653 1 16.386218285779925 3.616703215133149 6.096236657218563 2 2 2
1721 1 2.4826389698324856 4.991121486012678 14.027706156039383 2 0 2
249 1 14.647382730962839 3.828009623467926 7.9339968559887435 3 3 2
1420 1 18.119713740765334 2.135519073684712 5.0253501603194675 -3 0 -1
1912 1 16.886162359713936 -0.045083647558894546 8.398835359213495 1 3 0
1740 1 17.212822722855343 2.074172575944958 7.679218552762745 0 0 0
1150 1 18.52978063713818 4.0031661794483675 7.319416260578569 1 1 -1
844 1 20.167542338354863 1.5018954722426183 4.400752228024267 -1 0 1
189 1 17.26557044256132 4.525027392979412 3.976210430177236 -1 -2 -3
423 1 19.343097675638887 2.9830770859919267 9.252620446762183 -2 -3 -1
1713 1 19.561367061606283 0.44358287095986937 8.93997404246166 1 -1 0
466 1 19.6811796278907 2.0965072233700153 6.9468936074881515 -3 -1 1
577 1 24.66973280381601 11.685401604726898 12.415527638864983 -3 2 1
975 1 19.54767627944051 3.995005336237594 5.232569361912096 0 0 -3
629 1 22.89138715979123 0.6659069369272783 4.484291004767528 -2 5 1
1975 1 21.255349218407524 0.31609826419015485 7.147882491617785 1 1 -1
1268 1 21.97947808499977 2.784488960265248 6.114725408635072 -2 2 -5
964 1 24.08118253338352 3.282170879549537 7.890735696396396 0 -1 1
873 1 20.849990479356613 4.073298695869485 7.421315912215461 -2 -1 -1
1182 1 23.50974200902784 1.2655831831992548 6.655071352942674 2 1 -1
1436 1 27.76527214462172 1.8253140078507726 6.281947772253515 2 4 2
478 1 25.875685883092785 0.617220958886 6.930014066337658 -3 0 2
481 1 25.71752285581296 2.6609826451904874 5.765869742997502 1 2 3
1398 1 26.34960166198084 2.622498440981321 8.167376476168574 2 3 0
1639 1 27.59757993398943 3.6609317615692287 4.3214047971159415 2 4 2
928 1 26.698987813213655 0.5334528486863608 9.554953014919214 0 0 1
90 1 2.541575118207699 6.008858250306608 6.021195622904018 3 -1 -3
1086 1 2.8279157385521407 8.417264212129085 4.184661264485773 3 -1 -2
394 1 1.0691706378548533 4.099985557559683 5.129779103186896 -3 3 2
1128 1 4.0429413805734935 2.574266907896807 7.496866558089759 1 3 -2
1107 1 1.0477299589234623 7.806401204449632 5.8013268993094105 1 4 -2
760 1 0.31164622546047127 6.079746574175442 7.391841316975171 1 3 2
1314 1 1.6912608263304922 8.195651510895278 8.365263440194068 4 1 0
1666 1 28.470049202764066 5.860140502267153 5.133390293984711 -3 2 3
519 1 3.9520979546933788 6.027159423185139 7.903115213383854 2 -2 2
280 1 2.0705833926291097 4.53602472426472 7.751633680487309 -1 3 0
512 1 -0.406246718187127 7.683676566012677 9.127650128351979 1 -2 0
1679 1 3.97271086507961 6.334568139003751 4.154607744877564 -1 1 -2
449 1 4.780160328550386 4.685854469296856 6.284858074866589 -2 3 1
1780 1 6.6004270620387375 7.331964012180054 8.868063905529002 3 0 1
486 1 5.83327462291228 6.832742132856589 6.473115595264496 -4 0 -1
751 1 4.337300936798068 7.940793615260537 9.034653315612296 2 1 1
1064 1 7.5265693672164815 4.998895758874045 6.162393538882372 3 0 -1
1109 1 6.029967098504956 4.879773508738905 8.211018618957473 4 1 -2
1446 1 3.6854160474225015 8.051641730268436 6.766765768095511 1 5 -3
1445 1 8.393186703341032 7.1121488549152545 4.27419684536819 2 -2 0
1761 1 6.720515139297296 8.863426672111958 5.841476224480767 1 1 1
1405 1 11.840758125278013 4.990461265603059 4.60307138320505 -1 0 0
1106 1 10.728380991251559 7.458852979462487 5.302488550746827 3 0 -2
1883 1 10.092092700121144 4.567634974256036 6.593731736747919 -1 1 -2
340 1 10.940701421880998 8.769482562929314 6.934119592688953 -1 0 -2
1395 1 8.63761196815918 7.903918849260668 6.914374523207475 0 1 0
842 1 8.433554717479455 5.986108285201112 8.469308051131136 -3 1 2
531 1 10.98059957443925 6.397507666427343 7.7866195559243625 0 0 -1
792 1 11.867551768727466 7.126689704136925 10.215362297497839 2 -3 -1
1950 1 13.106402604409368 6.95216566270337 3.8901941805005036 2 2 -2
1381 1 12.44489126043881 4.821438816202802 7.315716003670724 1 -1 1
1149 1 14.963403576278361 5.84510719035113 6.113368676092102 0 1 -2
633 1 13.032733895674168 7.431995967138609 6.322164224646239 -2 1 6
1122 1 13.533579189486245 6.787204170679608 8.345456915909354 0 0 0
1770 1 16.749841388873683 5.60673194879169 7.827243012134591 -2 -1 -2
1969 1 16.61837983010698 7.9794879453219 6.1984768311878895 0 1 2
1618 1 15.780682679174886 7.887976671035746 8.700355022630562 1 4 -2
600 1 19.1564745911732 8.359823649078985 5.543724923798769 0 -1 2
508 1 19.64829917764851 5.221639018641987 9.197304993125659 4 6 -2
315 1 17.65899970655891 5.93876875799081 5.875490966968573 -2 0 2
1851 1 18.251689826678216 7.329889200443281 7.741684994292482 0 -2 -1
1758 1 19.941287759481632 6.122505931592325 6.634265486005027 -3 -1 -1
1578 1 20.333832450366835 9.325366364148119 7.749173731866666 3 -2 1
1645 1 24.03758705347004 4.244144588221625 5.1619760426104575 1 4 1
1751 1 21.598028213825195 5.231259289180697 5.1240545626657985 1 -1 -5
1293 1 21.28769373526105 6.966739472687101 8.332618450270035 0 3 0
26 1 23.10093611394572 5.354940735361333 7.123970162381382 3 3 -1
1041 1 21.429441378866784 7.544905219267774 5.867532301890325 -5 0 2
324 1 20.515640790465945 8.256782705871144 3.5436876712232883 -1 3 1
1664 1 23.652906443652803 7.134482181877169 5.584562004310903 1 3 4
763 1 22.76837481209317 9.345984609975382 4.6840488659084425 -1 -4 2
2040 1 23.651191306356594 7.051598093904469 8.948052538455872 -1 2 -1
860 1 26.00288750637425 4.716808912147489 6.760452966142163 -1 3 0
1142 1 25.673241808977025 8.99192841169349 4.036806944186058 -1 -1 -4
655 1 25.411243974515997 6.801867710833179 7.705898076850984 1 -1 -1
292 1 26.099408529325665 6.737361998895561 5.214339422851953 0 1 -2
1572 1 27.672044803014657 7.728133782914226 6.97139032239382 3 4 1
1820 1 27.322390506057395 5.842389757717098 8.803779934073427 -1 2 -1
94 1 25.208373487223064 4.87436665271123 9.147139122121493 2 2 -4
1813 1 26.788372080536355 8.652559155100343 8.830918299671184 -1 -3 0
1459 1 1.0390717793172608 9.982964672325169 4.685084784811445 3 1 -3
1890 1 1.6010336283182793 13.137203235675777 7.074322378308434 0 2 0
203 1 11.517747461845856 4.984179048561711 14.13317274048042 -1 1 -1
175 1 2.736796870276012 12.080238106107407 5.138093149086458 0 0 1
1397 1 2.3976807645016716 9.744039236341035 6.870213834999429 0 0 -2
275 1 0.7997139265874225 13.4170327432605 4.702950376797416 1 -1 -3
1591 1 0.3702637340362177 11.326854169009458 6.166792030515189 -3 3 1
1158 1 1.8492885657147702 11.071088621630121 8.580992711761196 -2 0 -2
132 1 3.9885371093877087 10.47362143418529 9.15437475081059 3 -3 -1
23 1 4.31784120092934 10.076749658650817 5.090210642025305 -5 -2 0
665 1 5.415420674716377 9.57483382404995 7.471537991514562 0 -3 -1
1266 1 3.864496093262942 11.700059768141989 7.04629231370957 -1 1 3
1961 1 6.632681872839919 11.207911681769136 5.691048344109455 1 -2 3
752 1 6.199130174413551 12.04326691058014 8.030721376860901 3 1 0
410 1 14.249221409834867 -0.192653622633766 8.653358835704239 1 -1 2
977 1 7.113853566659592 13.529673255559604 4.9257638498664695 2 1 -2
1948 1 3.587545897184114 13.403642662634434 9.034610525658607 3 4 4
1557 1 27.567398771187626 10.674920879304329 12.81160095546373 -3 -4 2
663 1 10.837441278455884 12.354313218378989 3.7799654535779936 -1 1 2
1518 1 12.272682326444896 9.537702963350547 4.419075696361673 -1 1 -2
1012 1 8.553235904164074 11.666759697360495 4.656696442963528 0 -1 2
511 1 8.916879810532299 9.24127414941765 5.198741064637982 2 2 3
623 1 8.919279747112654 11.07627471852983 7.176947732494667 -1 1 1
866 1 10.654472812492116 10.905898714496198 5.7426690411922925 1 -1 2
1419 1 10.157751106505717 12.969095988205112 8.072443467214018 4 2 -1
599 1 9.456766142190816 10.011883074102496 9.64276567955349 -2 -3 0
135 1 7.98262678176644 13.343750159501816 7.284647533376407 -3 2 -2
2012 1 13.244230036245893 9.219234898238055 8.605629934289848 -2 1 0
1243 1 11.442758699281892 10.868430304675405 8.331511501813223 1 0 -1
1236 1 12.126520407030194 13.048279561627 9.127655337242317 0 0 -1
327 1 12.00802019733939 12.650420467444158 6.359029163973702 -4 4 -1
811 1 14.544192813300794 8.923126007112005 5.016485429062534 -1 1 -2
427 1 15.170932491599766 9.803237332713314 7.285671707941079 -3 -3 1
12 1 15.344508261174692 11.782379806895856 5.371506570959772 -1 0 1
351 1 13.020624341889002 10.54501452386145 6.529028174774599 2 -2 0
1237 1 14.240515128977838 11.644351512540645 8.180633537816723 0 0 1
418 1 21.323963470160756 11.658055735511333 10.9544405480597 -2 1 0
999 1 18.775382416505735 11.877622255116982 5.228987753750643 -1 -1 1
1209 1 17.732033495058403 9.438753792548296 8.349260479562814 5 2 -1
679 1 16.852667631287844 13.607315996675736 6.017504296767803 2 -3 1
213 1 16.6929018601127 12.024119491628326 7.766614098240851 2 3 0
1163 1 17.742374316090412 10.044306686765546 5.996233482752094 -3 -2 -2
195 1 18.985465250800225 13.950611027231943 7.17245856207799 -5 -4 0
1656 1 19.370470219345535 11.474384505230914 7.593077839425018 2 1 0
888 1 19.742272580333378 12.946226304103783 9.219227679773901 2 -1 4
542 1 25.796506772518143 9.497555158723463 11.665570258594695 -4 -2 -3
1562 1 20.87129615159573 10.280954912284127 5.800940473511744 -2 -2 -1
787 1 21.509146307525143 13.403166511841137 7.79885063093815 -1 -3 2
1429 1 22.625030057608377 11.627924308071629 6.121529443366218 -3 -2 -4
1159 1 23.174519190134944 8.967060160000276 7.270191602156481 -3 3 -2
1076 1 22.027995291948336 10.890383383057424 8.63112967720925 0 1 -2
1696 1 24.47228687908148 10.777649621280647 8.01217029602614 2 0 1
849 1 23.95996013552992 13.39012712462623 8.355331551573652 0 1 3
1766 1 24.765394940447266 9.165559749777783 9.436912095632755 2 1 1
1933 1 26.94939576860014 13.455808645174862 8.273126359411497 -1 -1 -3
1279 1 -0.2821241908601487 9.614843783196642 7.622603114810385 -2 -3 0
568 1 25.580668666900273 8.754985674360423 6.412649428871486 0 -3 -3
1556 1 27.911720454877404 12.839592366428054 5.974296305093004 -3 0 2
1263 1 24.797667362807786 10.817476391724007 5.554445945494572 -4 0 -2
383 1 -0.25016915133424167 12.137520907874515 8.516112091610992 2 0 3
307 1 25.425922244043598 12.939918867077923 6.453935684145953 1 -1 1
39 1 27.448815868910266 10.457981903702896 5.214210815373975 -3 0 0
454 1 27.03504170424661 10.836308338170074 7.639398175661336 0 1 -1
1231 1 0.7277500310865133 2.7980312191340566 13.066211815440736 1 0 4
74 1 2.5937165106805327 1.7045604491275088 11.337600357502462 -1 0 -2
1130 1 0.707800148293543 0.26024365463670196 11.826900289842923 2 2 1
1571 1 0.7017148202415819 3.1074928533829045 10.642202758563128 2 -1 -3
1893 1 3.2455835286550982 3.530377974041795 9.87255814406974 1 0 2
1418 1 16.82607317599704 -0.2770088295883971 12.657737213374896 -3 0 1
310 1 18.174916061399635 8.517211363141943 13.993310173641657 1 1 0
1206 1 6.869936700898986 1.1745248206651615 9.745866000568752 -3 -6 -3
1094 1 4.5094437218808086 0.3411660555617527 12.447766319732315 -2 4 1
188 1 4.3083063743796375 0.766042903898126 9.856658575057608 4 2 2
1598 1 4.8495626249060875 2.664210487506739 11.52898192041897 2 2 -4
587 1 6.520651693486339 1.672083945627349 12.407212062692263 2 -3 -2
624 1 23.121867279552973 10.124526837714434 13.055699139426693 -4 1 3
2005 1 24.094169820293253 9.575090507935704 -0.28658218495282384 0 -2 -1
61 1 9.537359980142512 2.6583214034171414 13.370326875155948 -1 -4 1
1830 1 11.808417176519447 0.9286351831396409 11.154828799012616 -5 4 3
1843 1 9.145861885391827 0.3585239250469495 11.607412577115307 -4 0 1
824 1 8.669102513329696 2.581585003199063 11.168549381899219 2 3 0
167 1 11.68431605815446 2.08513911026463 13.082237324939808 0 0 0
944 1 10.98959748353561 3.097000633141439 10.788777973755485 -2 -1 -2
588 1 23.45947677720077 10.91041796435238 10.593220712638185 2 -2 -2
689 1 10.021309937021218 13.583434670108545 5.899772098449436 0 1 3
331 1 13.152083054105312 2.1627442449033927 9.361294807139831 -1 3 -1
336 1 14.935588956647129 3.715053636092934 10.99727577958259 0 -4 1
1103 1 15.765282448886834 1.566065664718435 9.453239068498773 1 1 -1
785 1 14.26237975969201 1.2726280443020266 11.534236151049996 -2 -1 3
131 1 -0.22934043474518778 -0.1625838363781017 9.659263778751793 -1 1 0
45 1 16.204412314715185 2.0009525123021676 12.200763347704255 2 0 4
14 1 13.154639240571305 -0.20392435611179402 13.213740936508351 0 1 0
1202 1 25.1479941217665 0.30276063816211196 4.86326627082885 -1 2 1
638 1 16.305195256956196 -0.20675890029436697 2.5084924064744927 4 -2 -2
1278 1 20.68181501937078 13.57363545398099 5.5262629079603425 0 0 2
1944 1 17.713313413219467 1.2291264394787182 10.382775165385816 5 -1 -2
1965 1 18.926843368538343 2.937385708720607 11.54791578591877 -3 0 -3
365 1 18.867081483220467 0.6105897031104068 12.287981030384374 3 -3 -1
1734 1 20.745495975061516 1.5651265265210563 10.591354002206963 2 -1 4
48 1 17.023936078003416 3.7772083448988916 9.444829864162205 -2 0 -5
1974 1 9.504595323838988 0.042119212419454544 -0.008607579764197792 0 1 3
235 1 22.733470616720922 12.755024614756257 12.849734092070422 1 -2 2
1866 1 26.297201427204506 4.642046551777701 13.95751240671328 1 3 -1
1219 1 22.78349021314986 0.41845740044908963 11.107722960936758 1 -2 1
640 1 21.05543012874385 4.0793325560834 10.827022928920595 2 -1 0
63 1 22.019560362485258 2.09021424458228 8.427619254576195 0 -1 -1
1250 1 21.545823643255616 2.687783805466869 12.543189038463114 1 -2 -1
359 1 23.05644400595368 2.8363174658624475 10.4723623151901 0 2 1
278 1 24.17288386972472 1.445815909915683 9.085192416312562 2 -2 -1
733 1 23.986966313839453 3.493659398392989 12.62238635086558 -2 3 2
1584 1 24.588719762179466 1.0716727826975434 12.418282959149073 2 -1 1
1246 1 4.862566469553084 13.837801573353657 6.92413155997688 1 0 -1
330 1 8.293130427839671 0.2923864821946355 13.714839579823437 1 -2 -1
223 1 28.242835615826806 1.6176042566624274 11.112069153854698 0 -3 -1
198 1 28.021887783925834 3.6865276122294004 12.290175228704578 2 3 1
756 1 26.89182374081833 0.20510567931442703 12.159339549640702 2 1 1
1879 1 28.44796749544529 0.8270076129257238 13.514127005925316 4 1 -1
838 1 25.883675195419315 2.466680665854796 10.674828256700655 -1 -1 0
1153 1 26.491856628811497 2.2583325221412998 13.369636922767839 2 2 -2
1538 1 27.905059221314836 3.993848999617473 9.670267957314724 -3 0 3
514 1 0.3118945355491869 5.33377745246357 12.69204136327667 3 -2 3
1544 1 0.8854706053472647 7.383231450777983 10.994350026673368 0 -1 3
707 1 24.825798020832778 14.092528304937273 13.157125035450841 1 1 -1
273 1 2.3625727909987115 3.989049476699803 11.958617839199674 0 -2 1
561 1 2.8737948589102187 8.779750430970745 10.586021769175074 1 1 1
1553 1 2.696324263722138 6.271226498310161 9.773390846492902 0 6 -1
558 1 0.5304733238703299 5.217130555236848 9.642347979850777 1 6 -2
1452 1 7.401892873605763 3.93533305677801 13.385959711999153 1 0 -2
1312 1 4.671834125627318 7.339653956090512 13.978970376881035 -1 -1 2
1992 1 7.303628433375296 6.613217479102162 12.945406816042496 0 3 1
1769 1 4.688738223248486 5.133215987377875 12.614773379812364 -1 1 1
477 1 2.6429224955196773 6.711826594003373 12.4717943086613 3 0 -1
400 1 4.6547953673096485 5.219720844277829 10.306291720862014 1 1 0
1997 1 5.765213739948363 9.506482925757169 10.076822935860559 -1 1 -1
1934 1 5.209518768322462 7.6014761882078865 11.33902665741814 -1 -2 1
1532 1 6.6215282409031255 4.410228536697936 11.24635205099362 1 0 -1
253 1 11.41723216321407 5.500473530605777 11.845383150369148 1 5 3
1676 1 9.138431883225778 5.066863499218225 12.124167858807068 1 1 -1
1499 1 13.030454769599935 3.6623330329471884 12.061085194959077 0 0 2
786 1 7.706801223350119 8.494997781641299 11.28905935884764 -2 -2 5
1455 1 7.73223497125289 6.165753463444637 10.610240429340873 0 2 0
1650 1 9.744086831347168 7.839779111148989 9.457573605266358 0 -1 -2
723 1 9.981349559555037 5.08526279650179 10.071936934785219 -5 -4 -2
1730 1 9.793314700358698 7.7477259423580005 11.803837785006742 -1 -1 -3
1805 1 15.49661396971539 -0.2980060858736596 6.426558096736692 2 2 4