LAMMPS data file via write_data, version 29 Oct 2020, timestep = 300000

2048 atoms
1 atom types

-0.09024279408511582 28.44224279407682 xlo xhi
-0.09024279408511582 28.44224279407682 ylo yhi
-0.09024279408511582 28.44224279407682 zlo zhi

Masses

1 58.933

Atoms # atomic

473 1 3.062141830588493 2.352920399694489 3.9851933180502606 1 -1 0
1324 1 1.924919483950513 1.3629529929803672 2.0674110987871526 0 -1 0
1803 1 0.6229497318286187 2.9841897390395484 4.140454491179494 -1 4 0
909 1 1.330456646634406 3.7087013092265715 1.892412275376387 -3 -1 4
642 1 3.650432740341597 3.2637357138022995 1.761943831759148 2 2 1
430 1 1.1484224279436577 0.6206333594387267 4.264419810530077 -1 5 1
800 1 0.525868650854651 0.3221590313960993 0.4085496981757598 -2 -3 0
1296 1 3.512840576392927 -0.001695225329568839 4.117381264542584 1 -1 -1
258 1 2.3501849058941797 2.4265177339514996 -0.06390286697780925 -1 0 2
142 1 4.197804893536392 0.9489459536182339 2.0063100651164656 4 0 -1
261 1 5.597391091804814 2.192440273888277 3.605373115197484 -4 -1 3
1761 1 7.268691046672349 4.100835673632022 2.9951974222184563 1 1 1
230 1 6.090358664390135 2.9013989431477336 1.389374712734512 1 -3 0
1192 1 6.521254101514367 0.4775787233317479 1.6868126950841875 -3 2 -1
175 1 4.8287494612527 4.451986198115844 3.6204154967358555 0 0 1
280 1 7.9000250030076336 1.8369260917263937 3.221597662662392 -1 3 0
1061 1 8.513150865630985 2.8420213208828566 1.0455549658867174 0 -3 -2
1733 1 10.848194171332194 2.3285615778575974 0.7880596545780874 2 1 3
290 1 10.147227088644048 1.7488982970952185 3.0429677901074035 -3 0 -1
861 1 9.680194398608059 4.080046249392902 2.833624198270487 2 2 1
1535 1 8.913272816713725 0.47384902312492927 1.2205765897038472 -3 3 -2
1483 1 11.378051640742346 -0.016407971730339768 0.6803467619804382 3 3 2
1518 1 12.082761836606972 3.3524167906399054 2.619073445975429 -1 1 -2
10 1 12.661533610651423 1.1213924347238606 2.518299322726953 2 2 -1
1467 1 14.622154082237607 2.67576982006502 2.193237088233272 2 3 3
1887 1 13.704800877509255 3.5367418433672753 4.369784792787972 -4 0 2
569 1 13.176642898370952 1.970874568861992 0.1739693268912818 -1 -4 3
325 1 15.901681049150646 4.060372650958509 3.9564160480571013 -2 4 2
1553 1 14.061495857229783 0.8520513642454742 4.497011329974403 0 6 -1
228 1 15.022686440659822 0.4374151736509576 2.2260827342426586 -1 2 6
1101 1 12.55830790992229 4.261650645538581 0.41102121792085056 1 2 3
969 1 15.553361276544738 1.5588988267509045 -0.06625349417207138 1 1 -1
555 1 14.911450802209844 3.864905397152136 0.04948872750310987 -1 -3 0
311 1 16.339536994458932 1.7703699552556087 3.937831997499762 1 3 0
1424 1 19.258998048672197 1.989404258456978 1.3564253648035556 -1 0 -5
252 1 18.75187888576987 1.151715284047149 3.5306441080213236 2 0 -3
836 1 16.94549521597876 2.448348021587321 1.782954167499714 0 -1 1
347 1 18.235923338241072 3.633944533026153 3.5044685059647627 0 -3 3
83 1 18.818048312693904 4.487095097001826 1.3585558841359087 -2 -1 -2
1228 1 17.477580948900453 0.09282311318445052 1.6748780487602304 0 1 0
760 1 20.424388558857878 2.9986885859682846 3.0652042325107796 0 3 2
1159 1 22.99624150211529 2.5407624085907554 2.7173562772287574 -3 3 -2
1822 1 21.7488338756308 1.55059662700856 0.9403085514444993 -4 0 2
1664 1 23.597599165336796 3.3872653515241096 0.5426774965827169 1 3 4
813 1 21.02465754459451 3.755063061581207 0.9924523277264139 0 0 6
71 1 21.050213136656602 0.6483781835453702 3.1568932411954607 -3 2 2
670 1 24.150629775421386 1.0746013018964014 0.7876968274749833 -3 2 -2
672 1 23.423174886910218 0.1527560153435161 2.8629064470741317 0 5 -1
525 1 -0.06014310048205829 2.6963250666001137 0.17903816842480463 -3 0 -3
1599 1 27.991039883186332 1.6787699308892599 2.4517113078880035 0 -1 -4
499 1 25.516764842432643 2.074239150001042 2.567061616604865 0 1 3
1841 1 26.56412125728984 0.7315784700421774 0.6390360867650627 0 0 2
1687 1 26.07146842257606 3.056399543903076 0.3344950900561237 1 0 -2
1139 1 27.364326341415207 3.9930397533090094 2.200156817357665 0 2 -1
426 1 24.85624776905346 4.526062358535618 2.431034150902593 3 1 -1
1371 1 26.685219825412894 3.248190207948858 4.343336095961006 2 1 -2
1074 1 27.15445526414282 0.884147569830032 4.640386732975527 -2 2 2
2022 1 24.33407775067532 3.6373948695856435 4.5695605061303795 2 5 0
2043 1 2.3125307496395915 4.709504422227665 3.9194699791181424 3 4 0
355 1 2.9260820070876137 5.580178152671659 1.7927065343155784 -1 -3 1
317 1 1.745058063914583 7.082611964812237 3.6433692682621976 2 -3 4
35 1 0.37925228933926197 6.013261958660439 1.987936293104812 3 3 2
1473 1 2.463721919955178 8.093097766188151 1.7142452381214028 -3 2 1
693 1 0.07367758749649841 8.643492473331413 1.7791872009173795 -1 -1 2
2011 1 28.392956456257433 5.170678699046233 4.175590310011697 0 -2 5
23 1 3.717623469067858 9.224402741024777 3.436869102692136 -5 -2 0
197 1 7.756597081843021 5.224560401363394 0.9797076475138762 0 -1 -4
1953 1 5.297020468203608 5.325634399322841 1.4135151940875457 0 0 0
132 1 4.184669265210117 6.739872110339006 3.6240716948244267 3 -3 -1
1660 1 6.781097108183226 6.452422029606249 3.014915564671113 4 2 0
1493 1 7.092933811463831 7.514539274511786 0.8495813968035775 2 -2 -2
87 1 6.1347441192643455 8.721327538899342 2.996880346656215 0 -2 5
242 1 4.704608471449282 7.61224598957857 1.3809072446032864 -3 1 1
1092 1 10.28558760032687 4.638325581576931 0.5711335964394353 1 -1 -2
1717 1 11.56100948083943 5.661529666842031 2.5129073584106356 3 -2 -1
1395 1 9.12881635883541 6.425395835147901 2.778568842353889 0 1 0
726 1 9.592860009493743 7.021085139466568 0.37859948306009844 3 2 0
338 1 10.991107524509232 7.93130850287031 2.3351617574407006 2 1 -3
1246 1 8.510594526873474 8.77483231066861 2.64467207103726 1 0 -1
1322 1 11.481510037468759 8.971140266851659 0.24182515153273032 -2 -2 2
1173 1 9.056242516430107 9.437766062860126 0.33537007842888195 2 -4 -2
646 1 12.05186304331836 6.562255076854277 0.24242242572462702 0 -3 0
60 1 14.068156652273753 5.100152787415419 2.2084922789341026 0 2 0
1651 1 13.196280255217577 6.106838782511486 4.263336150549561 2 2 -1
2012 1 12.484004159679309 8.591081013633415 4.108213952868368 -2 1 0
6 1 15.413418511914982 6.376668412066014 3.90077307433023 2 1 4
1269 1 13.359091918961363 7.460368620486278 2.1257277557761474 -4 -2 1
651 1 15.726168495567252 7.298354356773152 1.6228362718151168 -1 0 0
689 1 14.895257303946488 8.715363256015797 3.838631740727631 0 1 3
841 1 14.392916907656275 6.181032696438911 -0.04863125521955577 -3 -1 2
1925 1 15.171394252131947 9.642372997628344 1.4843002326546935 -2 -1 -1
507 1 16.55136727254282 4.8001983807145265 1.6526664686266503 3 0 -1
1323 1 17.696865339783763 5.906279761323427 3.5501504631843597 -5 3 -1
965 1 18.24077649961155 6.768305883876659 1.095655827825346 0 0 1
687 1 19.556600355056936 7.657103164911922 2.8754640282814683 3 -2 -1
1339 1 17.26009505142597 8.22648485129537 3.2127332406439435 5 0 2
985 1 17.640301535049687 9.178560552750016 1.1067997913412024 5 -1 4
858 1 20.30700098645923 8.694268344616852 0.7106520654480856 1 0 1
1449 1 20.06813103792676 5.402433419915952 3.160856600385904 -1 -2 2
1777 1 22.4149157825805 4.801691511079042 2.611718206441591 -2 -1 1
382 1 20.71084302778406 6.151611861035799 0.832526856289925 -2 -3 -1
370 1 23.136694502851263 5.8132498269550865 0.6111630043514195 1 3 -1
1035 1 21.912401195958154 7.334890373526936 2.634229069363129 1 -3 0
1656 1 22.611083039914007 8.097095178771042 0.5025172781195278 2 1 0
999 1 23.693117594289333 9.339682719403246 2.240250668947947 -1 -1 1
1981 1 23.146435254820418 8.380505188016697 4.430744416722558 1 2 -2
1751 1 23.66085633554397 5.902306996711029 4.514327104454657 1 -1 -5
25 1 20.682727544187962 8.586446789126388 4.76476083401338 -3 3 -3
960 1 24.32935928663457 6.986869051737789 2.480993694735549 4 0 -2
595 1 27.856181562362053 5.036567349269388 -0.05522144303831034 3 -3 2
596 1 24.991126179657684 7.70831917856009 0.2769024073396791 -5 4 1
570 1 27.98281565114521 7.6519391631812645 3.9468095459636334 -3 -2 -1
1309 1 26.588897995458538 6.480727923384657 2.206257258127767 -3 -2 4
455 1 25.539086146156336 5.468996659124471 0.3478570820865755 -1 3 1
1646 1 25.56749748240432 7.97163378417976 4.295354550016693 -1 2 2
568 1 26.039923902117607 8.821822755595903 2.0721841502150093 0 -3 -3
1712 1 26.059133089514916 5.515297037892054 4.236393406745715 3 0 2
454 1 1.3720419008530789 9.512130648823234 3.631897413432241 1 1 -1
1251 1 2.0248910774416555 10.431039297301055 1.3479580728937883 -2 -3 0
1826 1 0.864656129726919 11.857497553381707 3.4371292430911744 -5 2 -2
623 1 3.3217154286170096 11.467500021066895 3.4549545284086016 -1 1 1
634 1 1.415579679402718 12.752780040648942 1.3660019961756502 3 0 2
1385 1 2.801961010796956 13.808072797682527 3.3826557210603863 -3 1 0
735 1 26.007579204598045 13.197967749302762 11.977191456586047 -1 -1 -1
1848 1 4.00824301660341 12.292765686100458 1.1147151215922426 1 1 1
859 1 6.551220418700665 9.767556760155497 0.8475485798659398 2 -1 6
1115 1 4.256393736137739 9.935371261335675 1.32587228855824 2 0 2
476 1 6.513309565845952 12.165733232759086 0.8160616504214036 -1 0 0
779 1 5.686923158698456 11.042967705406225 2.9538659695638554 -2 -2 5
1536 1 7.592064614843161 13.513199006601187 2.710034241597463 -3 -1 0
1419 1 5.2545518421067055 13.411122790644406 2.8868038694560654 4 2 -1
1247 1 8.105820962043923 14.066886585669899 0.3346449803879376 -2 2 1
1194 1 7.912066078586147 11.112006422764667 2.4496583494008686 0 1 -4
748 1 8.726934814626796 11.85332156577606 0.14841383613150683 1 1 1
8 1 10.430551569488024 10.418104003859083 2.2817990003649204 -2 -1 -1
327 1 11.528237834556665 13.533896573007254 3.8725105583733352 -4 4 -1
250 1 9.905928689473404 12.630893784112752 2.378339975403348 0 0 -1
1462 1 9.151941868035959 13.970038869650057 4.522184325914723 -2 1 1
266 1 11.175026243195191 11.351576684175887 0.20617080843464802 0 0 -1
633 1 11.904145891258874 11.00918687951695 4.120094981723466 -2 1 6
69 1 9.51584043627719 11.59142124240144 4.602699943715921 1 1 0
1903 1 12.802752045991319 9.868755814875854 1.9656075219363962 2 1 -3
1990 1 12.536277946154842 12.314788014361008 2.053547938746488 4 -3 0
1122 1 14.419331275027613 11.179771656155683 3.723707039483483 0 0 0
2005 1 14.797301263938465 12.03268345962997 1.42956216823662 0 -2 -1
746 1 14.036523606833308 13.675601378012649 3.5375240944333526 1 2 1
1163 1 16.324375626312907 13.123359434898276 3.1160230807469262 -3 -2 -2
1700 1 19.062993234545715 10.07203076625624 2.936842823740151 -2 -1 0
1791 1 19.15795345633004 13.303357802378136 0.5406386136669019 0 3 0
600 1 16.71990277512581 10.679686642470921 3.1516750744264197 0 -1 2
1496 1 18.618087918082622 12.303177977744408 2.669521124466608 2 -2 2
1118 1 17.225632419837424 11.466586769893777 0.9191760249200274 -3 3 3
1494 1 19.615594379927764 10.986318979951072 0.7255068411695191 1 -1 4
804 1 16.826261244838925 13.91544878886513 0.8613572842641496 1 0 -3
315 1 19.794047560032595 13.29029589007374 4.565102237928748 -2 0 2
1985 1 21.403874966038458 9.654691839597115 2.606331713978899 1 1 3
116 1 20.9330991997128 12.000835304769266 2.530273543857201 -1 0 -1
389 1 23.274159970539287 11.66845986837183 2.186405204382888 -4 -4 1
289 1 21.944038374004727 10.555773394474105 0.29730578107086475 -1 -2 0
1541 1 21.515218109825568 12.843975967575117 0.4967298456891497 1 -1 -2
566 1 22.348506767631548 13.035738809916477 4.257684328283745 -1 -1 -1
106 1 22.81389441980466 10.658917023070316 4.367632760856165 -2 1 3
945 1 22.885795641472356 13.996131984902705 2.118357581693923 5 1 -3
246 1 20.41723161325676 10.894627924468951 4.690936690810841 1 1 -2
890 1 28.081857497587983 10.938069695342197 1.659548287272102 -1 0 5
445 1 24.331052747859616 10.059923127120488 -0.025223027039586274 -3 0 0
1196 1 27.390762962601762 9.981170602671382 3.736976033039503 -1 -4 -2
120 1 25.07982206319896 10.287836166672642 4.050710416090493 3 -2 3
1696 1 24.640023926465908 12.606828534054168 3.9594307753464006 2 0 1
1698 1 25.53277087893646 11.097717426817539 1.850567814165784 -2 -2 4
1278 1 27.02887642491217 12.291680778300005 3.629634878944031 0 0 2
603 1 27.594449971799577 13.400456727972045 1.6323186701454142 3 -2 4
1750 1 25.16253335064301 13.562456706489805 1.7486083559750791 -4 3 1
1781 1 23.288733534759274 0.08879899260627866 9.032654653811397 -2 1 2
928 1 1.6922434624484224 0.6410862249623968 8.257522111175888 1 0 1
711 1 2.3891780425543776 1.6633632822120157 6.178607088679384 4 2 1
1582 1 1.7336194478142979 4.078199780739893 6.083652562633607 -4 -1 -1
313 1 1.2516387012434596 2.9858280007495805 8.134944357006084 3 -2 -1
1123 1 3.2950934043764764 4.009531116234974 7.99728462705305 3 1 -3
1749 1 -0.056192266973196105 2.074582006759543 6.249837497225321 5 -2 -2
386 1 4.040888091310088 1.348346656231063 8.08323392114303 1 -5 -2
1253 1 6.464362512262521 0.21789030853850883 7.5271673577912175 -1 4 -4
1658 1 4.249431697166962 3.352692487933537 5.824542947634465 -2 4 3
1109 1 6.705209235519058 3.6499225917230396 5.204276564437424 4 1 -2
1811 1 6.010280538431613 2.53294447935029 7.362120967514075 0 2 3
1459 1 7.233919200454438 1.3473343433443294 5.498749782008424 3 1 -3
1913 1 4.863362858332368 0.9086602073672827 5.911145898535015 3 1 1
1793 1 7.065355506524976 4.565748912134255 9.301771969340926 3 0 -5
822 1 7.508779627707214 2.1643189688415214 9.407771441099307 0 3 -3
1799 1 8.146284222449832 3.6070675912593475 7.248946370151549 0 0 3
234 1 11.124323399045645 4.398974275948802 4.724434109118067 -3 3 2
1650 1 10.472522238583435 2.726196269101281 6.672961181782716 0 -1 -2
618 1 9.042157885562306 3.043816430322767 4.878205864583488 -2 -1 3
1974 1 8.756103658785136 1.1028287214187404 7.533881841200976 0 1 3
1830 1 9.969232411861023 2.7901829254163717 9.139932516141178 -5 4 3
1909 1 11.789327556263324 1.7813256799900727 5.021025763925626 3 1 -3
1770 1 11.126915765056655 0.10992792915344468 6.899461226367575 -2 -1 -2
1304 1 10.36114474673188 0.25006985965095185 9.199113114246446 -1 -3 1
184 1 9.494511289735433 0.6933803402050353 5.143539688788804 4 2 -3
1699 1 11.745631091782853 4.337955110532136 8.430526823937985 0 1 -4
814 1 12.154288380971622 1.9333128625009368 8.431713256069417 -3 -4 1
1526 1 15.190845149235477 -0.08006676278370789 8.49614510826077 2 0 1
698 1 14.645062173491754 2.315889900725844 8.415089919539966 1 0 1
723 1 12.996072914005902 3.3733384474737527 6.634005005221317 -5 -4 -2
483 1 15.291647069257335 2.437349511830423 6.055428788207131 2 -4 1
284 1 13.523475493796449 0.7925275762117973 6.737225777608625 0 -3 -4
1543 1 15.739360644958571 0.005856227246235371 5.990223654676132 1 1 2
1381 1 16.30518233615576 4.083713093038456 7.697995992802499 1 -1 1
1653 1 17.709314170837267 2.7554827818042456 5.8380861843258955 2 2 2
554 1 18.235321681494035 0.25301977424868866 5.742865959478105 0 2 -3
1127 1 19.24320942310436 1.9161488648129494 7.648519450292351 0 3 0
1168 1 16.807714634552426 1.5128377763044782 7.7258064797676935 -6 -2 0
783 1 18.896307504329023 4.5041600050966135 7.699980719357357 2 -1 2
1028 1 20.093855046926727 1.992523560422621 5.225181191160114 -1 1 1
249 1 19.602293455464135 4.446463546701379 5.370947675718889 3 3 2
189 1 22.502841580725352 1.627975057753172 4.957039046865737 -1 -2 -3
1238 1 23.787163644393786 2.6661949769841966 6.656598460750056 -2 1 -1
1867 1 21.818774482573424 1.0171137591771204 7.17072298757655 -2 1 -2
154 1 21.872468753971944 3.974493189715159 4.7375428206732115 1 -3 1
1922 1 22.90609315022847 2.5909610639643468 8.88547679084173 0 3 2
537 1 24.387560689426508 0.298801973293165 6.884087356013168 -2 -2 -2
1740 1 21.262730837895283 3.345987684415771 6.907976443320732 0 0 0
1041 1 20.416028368315963 3.4731241787365277 9.270111485764684 -5 0 2
1902 1 26.862212953114515 0.061883547283403284 6.845877030950743 2 3 4
26 1 24.779244517810632 1.0550011008805835 4.693965436059249 3 3 -1
655 1 25.416459164996105 1.7328633994147118 8.86031190212595 1 -1 -1
1435 1 26.277735307732236 2.468985715460803 6.668273153872535 -2 0 2
1075 1 27.2571556819042 3.669886969128448 8.552205975080046 0 1 -5
1906 1 27.829443876773574 1.351956168418636 8.539968997156365 0 1 1
1436 1 27.85254824643293 4.4215977380543885 6.242652612662219 2 4 2
1303 1 24.615513763932633 4.049364565984519 8.795163647997267 -1 3 -2
1476 1 25.5539609185033 4.622562451432042 6.513004560972841 4 1 1
440 1 0.7354734922644901 5.164123668820009 8.020773188453902 1 -2 -1
365 1 2.7973217665627366 6.538965517758323 7.855730030268714 4 -3 -1
101 1 1.3024214085440629 6.333345593743162 5.87408912280227 1 -1 4
1336 1 0.7102299521546904 8.626262533474852 5.911593251652014 -3 -3 -2
2007 1 3.088246828889716 8.04935589050601 5.473398059752772 0 -2 -2
1893 1 0.16051019185827764 7.514758004733919 7.943897911937404 1 0 2
400 1 3.804100884534386 5.691133604574352 5.844318269963461 1 1 0
1639 1 2.1700532267785175 8.986966360001968 7.79793514097013 3 4 2
1256 1 5.509808040773948 4.832325863924872 7.319416475469955 -2 2 -2
1263 1 6.262357591683235 5.879977318496692 5.314543587730698 -3 0 -2
1828 1 7.606772944454994 6.059573452997293 7.230474169198873 -1 -4 -3
232 1 6.5691915191244314 7.029462968232757 9.195498038872584 -1 1 -3
1883 1 5.596332834573259 8.17254629497761 5.26427613987433 -1 1 -2
208 1 5.151900079035342 7.144953283106338 7.425542892203155 2 -3 4
937 1 7.148051985327125 8.62124171277101 7.16456442578535 3 2 -1
1465 1 10.079024975955145 9.201721692362812 4.539443681031394 2 1 3
605 1 10.686491576807681 6.7847485414028235 4.690693823536217 3 2 2
1308 1 7.963317813240437 7.590531064648403 4.894407955163229 -4 0 -2
752 1 8.581561524819884 5.397529114469146 4.846931929524874 3 1 0
868 1 10.040818824468673 5.193724449794086 6.736317760227271 2 2 -2
531 1 9.42338807400716 5.199155740248489 9.110239002520153 0 0 -1
1719 1 9.561538478802829 7.760412715548114 6.63280704244233 -4 -2 1
1728 1 8.937589158362872 7.674406065750306 9.02338588983634 -2 1 2
438 1 11.151915657332975 6.896491363657991 8.398012472288798 0 1 2
1156 1 12.042608658021264 8.210287019457926 6.40052545601 -2 -1 -3
492 1 10.633403977715695 9.352522498278727 8.377170618563424 -2 2 2
975 1 14.180297419286383 4.7705350099256565 8.265048536800046 0 0 -3
1583 1 14.731548460094768 4.9845595520093315 5.969060558376492 2 1 2
1064 1 12.35469852400389 5.809221655368882 6.534953234653207 3 0 -1
513 1 13.62796720062806 7.227217180236505 8.18806566092208 0 -4 -1
130 1 14.2614845043001 7.4622039829617215 5.840045737591979 3 2 1
771 1 15.901199172224297 6.521284936212343 7.658889178555805 -3 2 1
351 1 15.399368374611944 8.884769410733412 7.512014661664202 2 -2 0
341 1 16.71519638939973 7.57765046837408 5.580199814938279 1 -1 -1
1730 1 18.403985487094808 6.848882101612807 7.561364236182658 -1 -1 -3
811 1 17.284191481643397 5.144706069374768 5.869509701481049 -1 1 -2
1268 1 19.081882769841144 6.911179309826163 5.296755567520688 -2 2 -5
593 1 17.683412815824347 9.306677829437172 7.48454989186683 0 -4 3
1083 1 19.833524818485806 6.249650310720323 9.413277710045044 3 -2 2
227 1 19.218622725754685 8.837445955138142 9.276667153623801 0 1 1
511 1 18.473291289100793 9.508675371208458 5.210207112849667 2 2 3
1748 1 17.441366015806274 5.579564139993178 9.517230904367137 -2 -2 1
1969 1 20.121945529643767 8.434972276784778 7.035788847068203 0 1 2
48 1 22.16646034998044 5.148719137427706 9.111099816451052 -2 0 -5
888 1 21.41020817721548 6.212035200616326 4.8434301258484975 2 -1 4
1722 1 20.818685282408303 5.8344674033298745 7.14035785798066 1 -1 -1
1851 1 23.09120770675881 5.208128401394926 6.836013221285171 0 -2 -1
997 1 22.646371127077224 7.615106984632334 6.687440970064023 0 -2 2
891 1 21.56685139731892 7.695665335160519 8.850391677447565 -2 1 0
1095 1 23.854891055742144 8.893935127766134 8.589460689173555 4 2 3
1628 1 24.10380432860496 6.488144151959527 8.656368017303901 1 2 0
1572 1 26.563438419645337 5.910063495536165 8.25618549320816 3 4 1
639 1 24.986245103949877 6.95342732812304 6.400029237115164 -2 -3 2
1666 1 27.31848611192234 6.772937010817792 5.997305218075613 -3 2 3
1279 1 26.185824487022884 8.316425961937401 8.115030663929424 -3 -3 0
1197 1 26.81311611019813 9.089890672653508 5.940286274627476 -1 -3 0
1353 1 24.463322926146382 9.585803294807226 6.2396971253371385 0 1 2
1388 1 1.5306817029876558 11.558948592486084 7.6930206329309705 -2 -3 3
1393 1 2.6160564160521176 10.37518625495688 5.517608382770827 -2 0 0
1890 1 0.31973218850395335 11.037463725302064 5.6798814536686075 0 2 0
399 1 2.058950091160204 12.747398813038311 5.4721863850701205 -2 0 2
1672 1 3.5808350855333573 14.047526268844125 7.0789736641079575 1 2 0
403 1 2.946766509982558 12.849102287267225 9.497025936609418 -4 1 -3
92 1 3.749252763770496 10.38790480576043 9.473042034902178 -1 2 -1
1946 1 28.29075621432401 13.360016560962082 5.500211632558543 -1 1 2
82 1 27.26116434480624 12.088477923802431 14.11264123917708 0 1 1
1266 1 7.446339451634434 9.988273636534336 4.762179644082948 -1 1 3
720 1 4.406581076534846 9.285423407320675 7.238485752583539 4 -1 3
989 1 3.8494726465583025 11.60548358091612 7.322722861255742 1 -1 -1
1961 1 7.002972383836532 12.31498058086225 4.833713982618161 1 -2 3
512 1 6.02083445429512 9.541726733417178 9.172232598019812 1 -2 0
1592 1 4.946781460418522 10.462658775404813 5.126495944621656 3 -3 -1
983 1 6.445030166662332 11.026147095462735 7.093195381629137 -4 3 -1
544 1 4.510031988880527 12.704203091475758 5.307402953136927 1 -1 1
1721 1 5.3589840983569585 12.223934326465635 9.0735915585844 2 0 2
1474 1 6.041015271936796 13.364085993141975 7.052315427900327 -3 -3 5
599 1 7.802794002763356 12.51155950850269 9.052987658727893 -2 -3 0
1299 1 8.274968330686367 10.00261489517063 9.035080566167606 -1 0 -4
745 1 8.878650315865958 10.369110558472345 6.671412010439699 -1 0 -2
757 1 11.242963242298138 10.586292220889057 6.418027138784869 2 -4 -1
563 1 8.484642130375418 12.742448943781861 6.630004445371486 -3 -2 2
1389 1 11.139507189651487 12.987951227975868 6.363414936976423 1 2 2
562 1 10.038578566508464 11.718532088860576 8.42177226722778 -1 -2 3
1758 1 13.587449403790215 9.946599150100239 5.799619063039949 -3 -1 -1
474 1 13.035892402828644 9.714551055668984 8.215183084265423 0 -2 3
224 1 14.700706356511914 11.497115094741782 7.5000719846284545 -3 -2 -1
434 1 12.472054294893715 12.190478389977093 8.18363745858763 2 -6 -3
76 1 13.189694633685718 12.402536413781606 5.568436380770621 -1 3 0
1617 1 15.583475812374854 12.662338355315475 5.5201024405804 1 -2 1
1743 1 15.94624279556673 12.941470387615983 9.253714414031665 -2 -2 -1
1484 1 14.329681463715772 13.929753936989991 7.436331740871032 -1 2 -5
1918 1 15.97352672207822 10.05898033757295 5.480041621388352 0 3 -1
1685 1 17.063084470478998 11.720745424390547 7.273413434855079 4 -1 -2
402 1 19.54074890853567 10.984765913625507 6.92338624409471 1 0 -3
1022 1 17.955773326553597 11.862924819451987 4.94856979506001 4 -5 -2
47 1 18.625689072787075 11.187438815181913 9.237805936209114 -1 0 -4
1908 1 18.9156312092 13.397842040970005 6.79185714875262 3 4 -1
931 1 18.19990687389806 13.612843728773548 9.107352863875539 1 0 -1
1578 1 16.411204779439764 10.447567828954826 9.400873272164564 3 -2 1
1342 1 27.693154665480115 9.671370274485252 14.087272926611101 3 -3 -4
1076 1 21.054089365844177 10.319812783041261 8.723773238327633 0 1 -2
536 1 23.174057956253968 11.21196332390541 8.297525241034476 -1 -2 0
195 1 21.934852763884543 9.917696182982722 6.4321080165229745 -5 -4 0
770 1 21.60814504409187 12.331424858716538 6.512404266740539 3 -1 1
2034 1 23.93525760038697 12.00047705366635 6.1519784314746015 -1 -1 2
1116 1 20.550238532866878 12.769849506737394 8.613476587537379 4 -2 -1
292 1 22.81510336386917 13.533302517376624 8.286574415878247 0 1 -2
606 1 28.18406434976572 9.983920709354516 7.86621853733547 3 0 5
782 1 25.813254987173792 13.852810233333551 5.630246816146192 4 2 0
307 1 25.743800430978332 10.738349169120067 8.131253160642538 1 -1 1
1029 1 27.68259261146717 12.328142180326957 7.578867931432686 0 0 -1
1565 1 26.359611171752526 11.440218731169342 5.793397240884762 -1 1 1
418 1 25.0981129110394 13.112362024447746 7.961639889877679 -2 1 0
519 1 3.1976707240448285 0.03785478852749266 9.941173478432654 2 -2 2
94 1 2.59029892532688 0.12660775112836264 12.214099859899237 3 2 -4
873 1 1.9680200696815153 2.5668895956815967 12.126524215477115 -1 -1 -1
1363 1 2.834960999246712 2.5304422514865337 9.883945904540592 -1 0 -2
561 1 0.8549706891655899 0.8842528549482913 10.430367797520752 1 1 1
1219 1 2.853902764894834 4.201327075271927 13.722039984165683 2 -2 1
68 1 0.44608911977590615 3.4896763451646367 10.20700664548163 -4 -4 1
1816 1 3.865645762459688 4.214433061121036 11.51227631305319 4 4 -1
160 1 3.5649231692958865 1.7725077826168842 14.049656739403629 4 2 0
1810 1 5.694516146083674 0.5069141597082765 9.92305097783043 3 1 3
1128 1 4.354231160789598 1.707277108906256 11.704502615009726 1 3 -2
731 1 5.20221213856952 3.0317530890223443 9.666185294988194 0 -1 -1
792 1 6.687925085341998 2.1523143871458403 11.710352540938672 2 -3 -1
188 1 5.359532494104857 3.277303205393979 13.40245119887938 4 2 2
1834 1 5.92056522387572 0.679079196289221 13.552130173538094 1 1 2
1094 1 7.906589956906502 3.742494937560221 13.507516899803344 -2 4 1
1598 1 6.24935931492537 4.551555184271767 11.436338381402134 2 2 -4
774 1 8.296840047788846 1.277485739986682 13.50419295788928 1 0 -3
1928 1 10.655515098879588 0.33474357649411435 12.86710495332677 -1 0 -5
778 1 9.021058541922125 1.2797734888268637 11.113236450441681 4 2 5
253 1 11.567926533864195 1.8654974564635438 10.849977059636668 1 5 3
1321 1 10.088587244995276 2.7213607857997326 12.833724589069892 -2 -1 2
1846 1 8.62242776089132 3.690691637984931 10.992364709311683 1 -2 1
866 1 11.045511531771343 4.295490862170428 10.903300751282186 1 -1 2
1950 1 12.394974464590764 3.350680652307809 12.609382907137764 2 2 -2
336 1 15.254337718722025 0.13078032358260208 12.02543702352167 0 -4 1
1258 1 13.719103693181545 0.9986399867141376 10.259749100835954 -4 0 1
498 1 13.119878577982362 0.8240105495056016 12.605153829186822 -4 2 1
276 1 14.836691231589734 2.575431493195022 12.04064278351368 2 -2 1
1662 1 13.30943509280793 3.502696642361059 10.309354575914602 1 -2 3
16 1 15.807767762079088 3.90350259333344 10.149110314905553 -2 0 -1
1618 1 15.861456549035815 4.114843446357572 13.798778565611782 1 4 -2
1965 1 16.063159138658428 1.5089999236324203 10.227629410829115 -3 0 -3
70 1 17.921326926615734 3.094498400655061 9.496748771747505 3 3 -1
27 1 16.436214835392697 1.6066586582800366 13.776668182515662 2 1 -2
1820 1 18.519180445963833 0.6899813958867116 9.587319373464235 -1 2 -1
1917 1 17.807890618376604 0.7505336944952846 11.908284905440485 3 0 -1
123 1 19.6974885959374 2.2077891018715277 11.393889455263697 3 0 -5
567 1 17.3041661237516 3.1825528654128843 11.974814998013514 2 3 -1
1861 1 18.850400215313776 2.311068490485102 13.633096362487082 -3 1 1
1178 1 19.175639431413202 4.603512166914371 11.236350498679988 -1 -1 -3
129 1 20.883379974105296 1.0607781486709884 9.424713962027552 -3 2 1
1103 1 24.019285708702697 0.12291446362404343 13.110391512880334 1 1 -1
550 1 21.286491345598492 1.2485160942818545 13.281292375296946 3 0 1
938 1 22.54891147927634 1.1532269887139155 11.241166925816033 -2 -1 2
1638 1 23.3363364931761 2.5479708130987873 13.07269441026036 -1 -1 -3
1418 1 22.01899575895957 3.4207723521223437 11.043226759201676 -3 0 1
1864 1 20.60299148321411 3.9620992040943257 13.100621318977618 1 -4 -1
279 1 27.189605624473714 -0.0215819150071348 10.60280216266157 -1 -3 2
1513 1 24.388719599757017 2.9636596478858013 10.901292899265894 1 1 4
860 1 28.382464827052438 1.589906041297442 12.329567377690763 -1 3 0
3 1 25.00622764886552 0.5926528917187834 10.862297645699082 -2 2 2
1151 1 28.016702760614905 3.8709624907719187 12.33583472130221 -1 2 -4
1529 1 26.893429266471436 2.3580841895050932 10.707185446052371 -2 4 1
1782 1 25.774158408534134 1.9444712137210551 12.772866436675583 -2 4 2
558 1 25.42207638996433 4.304236414679784 12.79276984945369 0 6 -2
968 1 26.369852955491382 4.79767371102067 10.524877919744263 1 1 4
1538 1 2.2432855315086275 4.9951719432406945 9.866543188724064 -2 0 3
273 1 1.3445670803840848 5.19010282155272 12.020391415262008 0 -2 1
1987 1 1.847003435327752 7.474028186054853 9.934715897099542 3 3 -2
265 1 3.3954605648570286 6.658131843942717 11.608585593104918 2 4 0
1571 1 2.430223121485286 6.65474955084837 13.847097323308313 2 -1 -3
359 1 0.7868095016394038 7.591317556655476 12.07825898330112 1 2 1
1463 1 1.8942322061606558 9.058810294808037 13.804562003097098 3 0 -3
838 1 2.6330024617394625 9.152196014578678 11.519412589258149 0 -1 0
486 1 4.217982989461184 8.022428839702801 9.562422919140666 -4 0 -1
1267 1 4.668133705977276 5.547756513939643 9.577647769016684 0 1 0
1629 1 4.86649483601381 5.7109824767624175 13.582037904773198 1 0 0
1971 1 7.301452417196064 6.05428921440473 13.33428128861146 3 4 6
786 1 5.781491948605966 6.948153506983293 11.490647537909748 -2 -2 5
1612 1 4.363644365923765 8.143049391560464 13.33754486290889 2 0 2
1365 1 7.393130186955747 8.613544893974801 11.101214083343432 -4 1 1
1934 1 6.801967645875041 8.481494103194873 13.50683314025131 -1 -2 1
1679 1 8.072242190335038 6.20349855145794 11.02743868432173 -1 1 -2
503 1 9.659874489368333 5.24293852507936 12.723346713394692 0 -5 1
923 1 10.45917925093007 6.783632356076399 10.820129608271888 5 -3 1
305 1 9.047892874574263 7.764180210029657 12.59658044029844 0 -1 0
1745 1 11.506289342002152 8.330185414506925 12.617066718952174 4 3 2
899 1 12.03109980856741 5.823022524435344 12.45240299667259 1 0 4
1149 1 9.878505120989326 9.379822729298066 10.691091286087188 0 1 -2
1676 1 12.274763621350411 8.327164834046014 10.151154382676726 1 1 -1
607 1 14.256837699539583 4.9072697647955685 11.969979239768737 1 0 -2
340 1 12.77109103787491 5.87103135932134 10.152460030517217 -1 0 -2
140 1 15.144660677166277 6.267465531906367 10.063827597092557 2 -1 -2
1338 1 13.782993210945909 7.518001233597197 12.03428806751343 0 -1 -3
1734 1 15.303948930008843 6.523837668033661 13.707308333779686 2 -1 4