LAMMPS data file via write_data, version 29 Oct 2020, timestep = 300000

2048 atoms
1 atom types

-0.8217712339732373 29.173771233968523 xlo xhi
-0.8217712339732373 29.173771233968523 ylo yhi
-0.8217712339732373 29.173771233968523 zlo zhi

Masses

1 58.933

Atoms # atomic

422 1 2.2178381502366933 1.9502064372332586 3.4340523782468226 2 1 0
132 1 1.8889996548359704 1.543892548842484 0.41235644760288537 2 -1 0
1312 1 3.442072218231008 4.212652674983958 3.694893578739727 1 0 2
1152 1 1.0357590813000523 0.8224851337066257 13.336572579295664 1 2 0
744 1 0.34673140850808615 1.577276809173226 2.0139936590156613 -1 -1 0
102 1 0.9216186402612261 4.4033600171070235 2.087822683378019 0 -2 0
249 1 28.500477427082135 3.2474189734909675 2.2454078128240216 0 2 1
982 1 6.110781468616238 10.129691094104913 -0.3937231611584092 0 -3 1
134 1 0.04071470787104381 0.5025247526925021 -0.513365639584086 -2 0 -1
38 1 4.335038297418043 2.1916545292730363 2.9045875973836464 2 -1 0
989 1 8.577985540503208 3.3200656595635465 1.6686021580532593 -1 -1 -1
100 1 6.710425892298337 1.7396779975144931 1.2430181564894696 -1 1 1
1174 1 2.437632355737953 -0.13507845093706772 2.066196297252733 1 1 1
1087 1 8.851022693597978 0.6428986702911885 0.7911142901702239 1 1 -1
907 1 4.463564482670123 1.915250773288499 -0.1450591791889524 0 1 0
1065 1 12.552110140882485 12.680315164961552 9.930998182057335 -2 1 0
2015 1 5.6701163308948255 -0.08688722289805795 2.54585799604538 1 1 0
1472 1 8.507479154138162 4.1582745158257595 3.6120221499326632 1 -1 -1
1962 1 8.60039802571007 1.3838396873507013 2.909981397916893 -1 0 0
777 1 11.488574405204456 0.4566062553855901 2.8213792355183713 0 -1 -1
1170 1 17.398897863147976 14.087898138962732 10.108841506277223 -1 0 -2
1117 1 10.595986540991623 2.9161740629669106 0.9606920150482965 1 2 0
50 1 19.962398927488696 11.920344724994466 -0.5544581083416553 0 0 1
1548 1 17.069589612650773 -0.741856855383659 1.922708101162653 1 0 1
1661 1 12.956673419669311 0.9023276874908541 0.5865325412030142 0 2 1
1238 1 12.905557959211983 4.901148825689076 2.029508013297629 -2 2 -1
1903 1 15.25061834096093 1.3063367815612366 1.8673861825190237 0 1 0
1291 1 16.025277444688374 0.6437290616431208 -0.03849336663476999 -1 2 4
1651 1 25.973748284592812 1.9127213964859875 -0.6664484916970354 -1 0 0
298 1 16.986694410173993 2.0726441651274072 3.0310277421041265 1 -2 2
1294 1 12.423647607620932 2.4918703528715684 2.516968827912227 -1 -1 2
1042 1 14.027384856289801 3.2474391161238376 0.02439972794666556 -2 1 0
391 1 23.676228316448533 8.481250968382101 13.27242766068467 -2 -2 -1
226 1 24.122948830687424 11.874412771925815 1.0384614602292996 -1 0 1
1184 1 16.57734103797997 3.0581726258884316 0.257290988649723 0 -1 2
713 1 17.896639829249448 -0.6792749714422643 -0.33516572487702995 1 2 -1
1473 1 18.743945234702505 1.011018387943377 1.9642833186227313 2 2 1
921 1 20.46316678083752 3.576570280813094 2.467228857510432 0 0 -1
1735 1 17.630401700315307 4.063971539298408 4.054864818038626 -2 0 1
74 1 19.261545109740275 2.721215480429654 0.5529167671075645 0 1 0
1196 1 18.42993745239299 4.830668710922072 1.284326119306097 1 -1 1
736 1 21.425713488482423 1.5998496825151043 1.724968169161555 1 1 0
159 1 22.90308803480225 3.466741740021953 1.6996092981902162 2 1 0
948 1 22.29032463942938 2.343193614647558 3.849928380368702 -1 0 2
1419 1 23.99881265709696 1.4976596731401708 1.1986865066904766 1 4 2
1677 1 20.06876323518568 1.7749238204007503 4.085660436101423 0 2 3
543 1 23.34872472951891 0.2880650917015559 2.7576575539717587 -1 0 0
1931 1 23.74629798287715 3.1427186677375687 -0.7433311494474979 -4 1 1
1567 1 22.653265244610733 13.641776318263227 13.838322096994023 2 1 0
327 1 5.708348617507792 12.128885137455075 3.2588598326824965 -1 2 0
1928 1 26.12052333937832 2.6062846973948686 1.586668553304885 -2 0 0
1336 1 28.074144059045985 0.5729102806383599 2.386074307740444 -1 -1 0
255 1 24.651914520471458 5.707629998585091 1.6493150751678267 3 -2 -1
1522 1 25.811753908035953 -0.13340390326549922 0.941668095630728 2 1 0
668 1 28.610382011778974 2.525977540648987 -0.05928079537303066 2 -1 -1
1916 1 24.391994750965313 2.8606394272467646 3.2641918722016374 -1 -1 1
1659 1 26.35139758640048 4.531618650248857 3.4323969361014495 0 0 1
1474 1 26.060799948804796 -0.28042290513726875 3.5854410046310115 -3 -1 3
1027 1 13.959209007022116 0.44906602216316815 13.802514997130672 1 0 -1
722 1 3.022139765613184 3.5507510410125542 0.7152172367912211 2 2 4
631 1 -0.5085367332661318 5.40370670519347 0.5972524524663658 3 -1 1
1277 1 1.9624652355868188 6.18828612101671 3.5452914808258535 2 0 -1
506 1 0.8531986592017615 7.160578284790732 1.5106998352078609 3 1 0
545 1 1.6537121392636687 8.073007236476824 4.679399642220283 1 1 -2
1761 1 -0.6089666249221409 8.547712626269083 3.284105354066101 2 1 -1
606 1 0.9358511151878846 6.831460332605857 6.803321145576516 1 -1 2
1068 1 2.0591259953114096 5.287095081675583 -0.08891202117760966 -3 0 1
173 1 6.668051695111175 6.125907453168357 3.552460319969237 3 1 -1
1454 1 3.5562149700948957 5.868708134414992 1.6699202801276058 -1 0 1
1105 1 8.293464165703515 7.0323589569455445 2.016123761391646 1 2 0
1697 1 6.671080901094874 8.91244081727993 3.2618078292448587 -1 -1 2
1727 1 6.1795602872148985 3.495465767354718 -0.14628671241355706 2 0 1
1203 1 3.228541524262999 8.661271603971619 1.3770832755902247 2 0 0
1469 1 5.636399815736971 5.167568153844181 1.441422593061314 1 0 3
1400 1 15.417722693328567 3.960129732593896 2.346067968425361 -2 -1 0
1125 1 7.826681300525538 10.958654574590103 1.7462140086926636 1 0 -1
958 1 10.1876177047063 5.222614250165147 1.7768230567838992 0 -2 0
518 1 20.20915447823099 9.665264705847578 0.4021511958280015 -2 1 1
35 1 11.150501023959745 7.346317796295423 1.3735675504635227 2 1 1
857 1 12.105945183347675 10.319320390826544 5.137780381960919 1 1 1
796 1 13.48737738428557 1.0024933071525952 6.423154144839392 2 0 -1
555 1 2.1267660118902247 -0.6827974208787586 4.499447919591719 0 -1 0
924 1 12.903623952963628 6.845188229602277 3.393502930659465 -1 -2 2
680 1 15.417970648375736 7.632915120716293 -0.5539876097959158 0 1 -1
2030 1 13.835299452169805 8.830603584175282 2.4494515269905204 1 2 0
980 1 15.530761616012907 7.022873834310737 3.816442760389556 1 1 1
1863 1 13.485404962399931 6.848927732392365 0.9943157327572558 1 -1 -1
1525 1 8.646977340266922 3.2987201464166986 13.678462211974015 0 2 1
77 1 11.656062712515297 9.319657223869623 2.5876876762392502 0 2 -1
484 1 13.471748219775437 8.870506002647986 0.08383474622629683 2 -1 0
1549 1 21.280340783417287 13.915576097642344 0.4912055880833728 -2 0 0
1098 1 15.510327515990909 5.437000051158673 0.18942383767843274 -2 -1 0
1345 1 18.4922664977103 8.908637752441685 1.7862864862346384 0 1 0
1250 1 17.34610240584901 6.400126989328724 5.590425935976227 0 0 1
1913 1 6.56189498652721 13.203138717531553 4.946138189170879 2 0 1
602 1 20.557468074538136 8.604823647009413 2.3661974623230613 -1 2 -1
1194 1 17.271735816044483 6.399507096676766 2.9392880021502914 -1 0 -2
386 1 15.93233267164204 8.89034481144305 5.629983578044328 1 -2 -1
1731 1 21.21751653384153 3.0207278543812497 -0.15841544306450295 -3 0 2
566 1 19.260669285948506 5.587907179743532 3.071645581470194 0 0 -1
1795 1 22.997927296281713 5.685789531163803 -0.4091521311324064 1 0 -2
853 1 21.101422165643676 5.2507689998714735 1.1924181175271444 -1 -1 2
1176 1 22.157467834926475 7.34695036262557 1.1571833472518456 -2 1 0
1978 1 21.087365502334197 7.4012662203060895 4.986482275654912 -1 -1 -1
1167 1 22.843063680670106 9.48217929114375 1.2561379066257872 0 4 0
1378 1 26.48079565694177 7.974013356478819 13.652621991615204 0 0 0
443 1 19.74571915269951 7.315152675382 0.47324206564880056 1 0 2
762 1 22.966960541505433 4.9222946140690755 3.7892581153266036 1 0 1
383 1 22.884806725977995 9.957235586183266 3.5860762701938764 1 -1 1
493 1 23.920032174340264 7.7853341468562185 -0.18241097780600146 1 0 -1
419 1 26.30888797369306 3.3800079389394666 5.931823398752146 0 2 -1
414 1 23.015538320689643 7.245760832263368 3.323055516017366 -1 -1 0
947 1 23.486623311867145 13.94810377887059 10.208554728500268 0 0 -1
1876 1 26.520967014151424 6.834211879373601 2.719774699850881 -1 1 0
1555 1 28.4273138053578 9.185474319738614 1.1050558477135508 -1 -1 0
537 1 27.067466950878174 4.457765783778282 0.5323659546427415 -1 0 1
1028 1 27.050668161217615 7.365681407885651 0.3871520004234079 0 1 0
1296 1 -0.6139552517600217 10.947085779518291 3.0890753826100656 0 0 0
4 1 6.719209764615468 0.12569248658799315 -0.5972369390860867 0 -2 0
557 1 0.9184100956751031 11.540768177652426 0.8368479166833944 0 1 -1
66 1 1.4375338160269129 9.69514169735334 2.5611056545257607 0 1 2
2010 1 4.028198872101269 11.319454672368947 -0.4670582430212923 2 -1 0
1751 1 0.7242776255234094 3.2776853972303943 -0.014742245673109555 0 0 -3
1829 1 5.025731638745649 9.978310028271624 1.5506010490352358 1 1 0
374 1 1.2953616727457482 13.514467477267305 -0.497958990038545 -1 -1 1
2036 1 5.8645370835184245 12.398795871761084 0.754382420860551 2 0 -1
1461 1 2.8255158521316686 11.540687309469371 1.817221199453872 -1 1 0
1407 1 8.12046179885383 9.230560195370268 0.25252989168706375 1 -2 1
1047 1 11.222302611454323 5.340299743126774 -0.5340208723433115 -2 1 0
1984 1 3.9036436235390886 8.040726554652995 3.9340230418265936 2 1 -1
1850 1 4.6159340078640225 10.251191781032553 3.905759883804598 2 0 -2
1580 1 25.123976786547747 4.072838039650869 13.953450278260084 1 0 0
216 1 3.6514039081086533 12.70383350358753 13.144566790472936 -1 -1 0
1467 1 11.36251757992638 11.571096229054088 -0.5791343506453799 0 2 1
1154 1 0.14569751229423755 9.758450409984158 14.073200801296437 1 1 0
765 1 7.374733564706711 11.058899215241853 4.002637185747607 0 1 1
672 1 13.289448547288387 2.4043533949463636 12.236376537378606 0 3 -1
1476 1 10.375745960064135 11.04828525917893 3.652408957766184 1 1 2
372 1 9.89964740710951 11.01975782121093 1.0294464440444568 -1 0 2
1025 1 10.78391426071274 9.40789145037672 0.041002749887846024 0 2 -1
785 1 11.060503916546423 13.922244118107024 4.27339962359014 1 -1 4
285 1 8.761691887007723 12.569054719526333 3.693197907027744 0 2 0
1808 1 2.7058108827378926 -0.35527282344870065 10.606989873482599 0 1 0
1709 1 5.5236550834942255 2.773167897086259 13.292481726179133 2 2 3
653 1 15.948817168624473 7.709744000035187 1.612812154928759 0 -1 0
1444 1 11.47078963646591 12.759415297460615 1.9467696298764938 -2 2 -1
665 1 9.306742626677192 7.3510694510148955 -0.6659630822828373 0 -3 -1
1656 1 12.884691494362075 12.673133039393207 4.397373262084862 -1 1 -1
307 1 15.246081005106305 12.69643790978981 3.208442311457376 1 -1 2
916 1 13.33751219132794 11.295827732983618 1.5723817661576147 3 -1 1
213 1 1.390339404655847 13.606796013936663 5.642852219034843 2 0 -1
125 1 16.223232430173894 10.027408869201741 2.838173745413504 0 1 1
1241 1 19.381053519897375 11.558399303753868 1.6068661585464405 3 1 -1
1379 1 16.668480420255637 11.82225812302747 1.312810973471048 0 1 -2
429 1 21.899458582250293 11.393847650490741 0.35321910399659573 -2 0 0
2002 1 20.00077600883242 10.389546715439003 3.4602575519363903 0 0 1
467 1 19.137926023791053 13.877969590778967 1.9765842722455904 1 -1 3
1803 1 17.943056049052387 10.114012862260216 4.863623887678787 -2 3 2
1792 1 24.439682886378776 12.462880755031778 11.384813039946046 3 0 1
538 1 21.725673621407577 12.341509279797284 5.957449030659843 1 0 -1
1861 1 25.061876524823735 10.459151558753462 2.693662844177649 -1 0 1
743 1 26.188333322909685 13.501584033474083 2.2290203879762465 1 0 2
1878 1 22.999263663911357 12.476758830738705 3.8964942696349762 -1 0 0
373 1 25.435555258484342 8.401011758744872 1.3764279698758277 0 1 0
306 1 21.228532955547173 13.011707728681747 2.7849382434944845 -1 -4 -2
899 1 17.33580856228892 13.686608252303342 3.8509615910070254 0 -3 3
401 1 26.991339810651642 9.471211749220082 3.6847313444064307 -1 -1 -2
835 1 26.798612534300158 10.757581754408026 1.1795102052925923 -2 1 -1
533 1 27.37273042308925 11.853203692600395 3.8343989778372265 -2 2 -2
1490 1 28.277473343996427 12.261804928898231 1.3781400096369256 2 1 3
245 1 14.543523278619652 -0.39383968492523136 8.398653933616623 0 1 -2
902 1 0.8699779177289957 12.92514195026952 3.3031441651152225 0 0 3
1589 1 3.5356177559866966 13.27909876731774 4.5766430920757895 0 -1 0
919 1 10.756019224896049 -0.7106203110452136 11.995095307190994 1 1 1
1071 1 3.1597596233154315 0.9962674236468563 7.483028986125003 0 2 0
406 1 1.609538698398206 4.847216593317207 5.674951168195704 -1 0 0
1434 1 28.139346746919845 1.5367040522896849 6.448146086227876 -2 0 1
1857 1 -0.4093451288726505 1.2898764187782858 4.642438073133504 -3 0 1
1959 1 2.9614071694162822 5.205716160921072 7.441026747302999 4 2 1
1052 1 5.116485430603851 -0.05233550740047144 7.110877710485905 0 0 0
1711 1 0.4750237110169033 2.0166092927802466 7.194665423446082 1 1 2
812 1 29.13492470016734 4.902222549126289 7.13605818244001 1 0 1
1871 1 6.508684759320575 1.6028001129567842 4.337376808937049 3 0 0
1722 1 4.263021669269809 1.1181334247808916 4.723615557212192 1 -1 0
709 1 21.44852210529144 9.208555008451436 12.993039675196211 1 1 0
940 1 5.8131018128276395 3.687181944154963 6.194547551372639 3 1 -1
1492 1 8.018673660497878 3.725291315875669 7.725481777123383 1 -2 -4
237 1 10.322937148478637 0.9828902876912802 4.992474841157396 0 -1 0
1572 1 2.9357503454954634 2.906413885878324 5.43635211802213 2 4 1
224 1 8.531647163733433 2.3199450058716025 5.268766090833891 0 -3 0
235 1 12.489504178305477 1.0314439994303668 8.546933147022491 1 -2 0
1347 1 10.3354969355508 2.914876668350953 3.085655155259954 4 0 2
251 1 10.154179135964425 2.726868953300301 6.655499903740373 0 0 -2
1673 1 10.570375548232477 0.023485201391433064 7.082764874149368 -4 2 2
69 1 12.300945423775383 3.3381199692111814 7.54512876176973 -2 1 -1
146 1 25.499806870192334 3.3347290647827235 11.755399837585431 1 2 0
1653 1 15.990095273939698 0.8245853186573813 5.469887748854284 0 0 1
1037 1 13.253033834834907 -0.20319986537626344 4.163676490029076 0 0 1
221 1 12.047389243355296 2.4107393156246353 4.922270635344282 1 2 1
847 1 17.46890307239375 14.077266057651569 -0.156803987959784 0 -1 -2
1470 1 14.373238343113721 2.232315595740779 8.611010497681944 0 0 0
841 1 14.146332755405453 2.0724845254059594 3.928684740191014 -1 1 1
1537 1 16.104284222134243 4.366083201532526 5.718826132356487 1 3 0
1303 1 18.315324239370753 2.1573732325949346 5.730179550789015 -1 1 -1
885 1 20.353252068450058 0.21123445267952 5.96095430508359 -1 2 0
891 1 17.70589159235139 0.3236952143781928 7.156196259226523 -1 0 -1
1146 1 19.644366068456925 2.353851297233394 8.068619110085878 -1 -1 2
513 1 16.450033459508372 0.21279406116585386 9.951747774274605 -1 -1 -1
1036 1 8.355514045667155 5.002940625932392 -0.3561863403943711 1 0 1
1504 1 21.08598207329012 2.8240400861963115 6.260434819728139 -1 1 2
845 1 22.537536619487142 0.7409916910488776 5.41688814894575 0 2 0
1648 1 18.916853122603865 0.01968839567715175 9.232941481228517 1 0 0
819 1 24.410477747171107 4.6124332771437855 5.728873586621988 -1 -1 1
98 1 24.712766884401496 1.3380904642652953 5.023906250156261 -1 0 -4
361 1 23.307672562569486 2.504227591980829 6.87442544895653 0 1 -1
1412 1 21.54738113993762 0.941984995552424 7.894999720103435 -3 0 1
174 1 24.37002887301351 0.10443135532303882 7.122593036659055 1 -2 1
1214 1 26.343339544496192 14.155193985901203 11.215598380989702 3 0 0
933 1 26.575727710937656 -0.18638023103538992 6.006382932414627 0 0 1
479 1 0.6468023575514235 3.2526808733707515 4.041838038512369 1 1 2
1812 1 27.36113467150224 1.936315133343161 4.216031970917601 1 -1 1
1038 1 28.350049530325748 0.6335934390340541 8.984028893286448 -1 -1 -2
897 1 26.063691004598635 1.6269781294457015 7.5211264646361276 -4 1 0
628 1 3.2749351037218997 7.214346812537032 5.9991099394511735 0 1 -1
1224 1 28.971759182808057 5.814376305045887 2.6492586827606397 -1 3 3
1447 1 -0.05875217909808894 10.688330980055268 7.748188009368684 1 1 -2
945 1 29.080074382490217 8.375013577980443 6.848991098107463 3 1 -3
433 1 2.1296589798983323 6.9654706305105645 10.775214540432101 0 0 1
337 1 2.8036361915005448 7.628665962195232 8.250850507266458 1 -2 0
1851 1 0.8649932940374998 5.421396410481312 8.904173515132351 0 0 0
1988 1 4.045424020808809 9.460369018753925 6.1759857076507805 0 -2 1
726 1 5.976124205913244 3.9166376994512424 3.9546297564529977 1 3 0
1568 1 4.495388896315712 5.655775294664959 4.956148631225024 1 3 -1
1278 1 9.249699962980777 9.219352645186932 2.5553616369572216 0 0 -1
1787 1 7.092823442240318 5.327193977655928 5.487036842507617 -1 2 -1
1610 1 4.930367311471188 6.671469373223831 7.688481201509925 0 2 2
1822 1 8.010193791273926 6.6637587418219795 7.822382406168709 -1 0 0
844 1 7.500116722517191 8.605176494785692 7.1139699771551745 1 -1 1
1138 1 6.148505226043995 7.352994493693094 5.894525610776266 0 0 -2
568 1 9.050720147963649 4.945512298785212 5.873272387034607 -1 -1 0
12 1 8.707743459591875 7.954623311023699 5.198544324212304 1 0 0
1395 1 10.649107766054774 7.38674014136612 3.9034487982585935 0 2 0
1145 1 10.732168682791286 6.593492770908995 6.0758049599428405 1 -1 -2
671 1 11.690453255592207 8.698274001530894 7.115484990716135 2 0 -1
1340 1 13.229579245382707 8.697447680816937 9.09716856424205 0 -1 -1
1881 1 14.229939371206799 4.805280313608455 4.063412032140025 0 1 1
697 1 11.127262245730504 4.559952290745352 4.32884065350262 2 0 -1
1617 1 14.469653312437506 2.940437601575276 5.954748508266653 0 0 1
266 1 13.067558236654351 6.846118454530999 7.517052509828556 1 2 -1
514 1 13.71790412165186 8.241194806864199 5.278084939282175 -1 -1 1
210 1 14.441588155019254 4.390890301586771 7.937390048125513 -2 1 1
1614 1 12.858659022338163 4.83113464532765 6.001512666291562 -2 1 2
2037 1 14.340035195959434 9.29053250735385 7.268531406962429 2 2 4
1667 1 14.99997647878542 6.5999383184468225 6.131965570922371 0 1 2
551 1 15.71562886460315 7.933836762396123 8.663472037562679 0 2 -1
1554 1 16.21124584468283 2.1735738431052765 7.189950848015759 0 1 -1
1935 1 18.357417545850357 8.011222690069054 4.06679937060838 1 1 1
2033 1 18.092034220666495 4.160073676162893 7.311139398766796 -1 1 1
328 1 17.739285106694556 10.366014750668876 9.483758048777744 -2 -2 -2
1405 1 19.96134412638441 9.383587722816404 6.051365912869239 -2 0 -1
398 1 16.59329128437092 5.813297850602546 7.877179474320982 1 -1 1
1943 1 18.96303322729629 4.7767417663962 9.35329384325587 -2 -1 -2
1337 1 19.188451530409036 6.1808423002479405 7.551415926486667 2 0 0
424 1 19.262433082243028 8.830531115099383 8.350037543863237 0 0 0
620 1 20.55620327953904 4.654745947052789 4.759233629284773 -1 2 -2
1737 1 21.30136903754782 7.722024875261521 7.088900198060595 -1 0 1
833 1 24.922401847665522 6.512740497858194 4.180844812904281 -1 -2 0
2011 1 23.24200917504271 6.997542922181453 5.9315946824880355 0 0 2
1809 1 24.334070328431046 8.674182359598522 7.15065369459925 1 2 2
1329 1 24.97017035217198 3.5469449040437366 8.522239563742193 -1 0 0
1401 1 21.51766614393707 5.340774008666611 7.1689084589983665 0 0 0
1778 1 23.12232073836108 6.234404970099894 8.60578550708362 -4 0 1
930 1 25.511933075960787 6.524999475704266 6.524694475802202 -3 2 0
912 1 27.35364800058027 6.305995643174663 4.525018665915585 0 0 2
622 1 28.631724324920853 3.653984678858672 4.838291178070708 -1 2 0
289 1 28.275041119337065 8.075906956793887 9.656059806050557 -2 -1 -1
82 1 -0.4323640161143605 5.938925215888104 5.338295883988741 2 1 -1
865 1 26.88377695524707 5.392199278769341 7.5147859198974505 -1 0 -1
1000 1 27.66765881727903 10.275125583747684 5.751919847634499 -3 -1 0
1417 1 26.47064364461338 8.450588884818192 6.045955882677558 -1 -1 1
829 1 27.76376306963196 11.94347355870789 7.429635146563957 0 1 -2
22 1 25.559470781416593 10.782801688731402 7.058124065604759 0 0 0
1061 1 26.809871948798087 11.903749720903797 11.425198008314094 -1 -1 -1
156 1 -0.011049989058817933 9.614784505934516 5.355427893437611 0 -1 0
1895 1 1.4644440307001951 9.028025279852034 7.011330455657915 1 3 -2
1897 1 2.0794434108909585 10.892251919192443 4.766939840717008 -1 0 1
1388 1 -0.10115208707445777 11.902266778615244 5.5840978024150285 0 -1 2
376 1 2.41346453194733 9.739105848950814 9.32449902177661 -1 0 0
274 1 1.9771683358559677 11.391811274144725 7.220658215220443 3 3 2
1060 1 28.516996704405408 10.668921215203522 10.047644129883516 -1 0 1
998 1 1.4237478380812423 11.807877500426327 9.811372383995447 1 1 2
1220 1 6.22331791973922 12.597562206642776 9.671387732201397 -1 -2 0
941 1 6.723353086982379 11.322452717027838 7.870608566892063 2 -2 0
1256 1 6.375030309962176 10.234864332630847 5.776176665694997 -3 0 -1
308 1 5.960368177824552 13.511447139741199 7.711341081208779 1 1 -2
779 1 5.713914091886948 10.11929930151674 10.424332689421007 0 0 3
220 1 5.264986916459086 9.281612407644545 8.126212877258489 3 2 -2
710 1 3.8980588191569554 11.159053532880742 8.716364115354303 0 0 1
888 1 27.277945050871573 10.16788697455962 12.901123134493224 0 1 3
1009 1 4.532154435485058 11.997446867574787 6.345057256882586 -1 1 2
1909 1 23.643861555926392 14.17280401918407 2.2028685167200175 1 -2 -2
1879 1 9.25331254284053 10.06742994425169 5.955683308087235 2 -1 1
1505 1 13.033402729628342 11.776513569566818 6.643399305073327 -3 1 0
1430 1 10.529378267107546 11.760311016758006 11.189510118427425 0 3 -2
700 1 9.226786141445487 10.338283770163416 8.540925951819762 1 -1 1
1421 1 8.387757226252745 10.972520047360069 11.182475303518437 1 -1 0
915 1 8.768706418327625 12.564328635341129 8.687692035506634 1 0 1
627 1 10.991718591129148 12.04168949223143 8.170806519010279 -1 -1 -1
936 1 10.43097308573058 12.130226722807603 5.819800562227117 -1 1 3
1234 1 17.885885090942576 11.770173063858351 3.1099557635670467 -1 -1 0
699 1 13.865039929216676 13.785458592393795 8.009965515007826 0 0 0
1578 1 15.478006596438046 11.928096909169494 6.966670865393745 1 -1 1
556 1 13.761188769990046 10.887099444744953 8.911919931193799 0 2 0
825 1 14.368860296955342 10.813931358742359 4.091608749903535 -3 0 3
180 1 19.995625543408412 -0.6309655001965434 3.7943094245046156 0 2 0
1160 1 22.3961130864362 11.217621286243668 13.832056964148158 -3 1 -1
986 1 15.735718498890769 9.94926235196457 10.121093825944076 1 0 1
677 1 17.18136520676936 11.940976489380953 5.513451705066037 -1 -1 1
1964 1 19.617134592693503 11.457108094292753 6.131878946341729 0 1 2
61 1 17.21546987802007 8.195414383956004 7.372727620058532 -1 -1 1
878 1 18.91885962170686 13.262780065592224 8.10529437104382 -1 3 2
187 1 17.392174260529583 10.637072489158712 7.171249154755079 1 1 -2
300 1 6.886446674548111 4.978177225714957 13.579753845773485 -1 1 -2
987 1 19.504263950450465 12.771472304305215 4.080471650504881 0 0 0
377 1 4.2435187605946565 6.660037209574073 -0.686156145141673 2 2 -1
789 1 22.788104759084142 9.820792642714657 5.707012801301735 -1 1 0
166 1 28.431115187697728 14.036812538300795 4.7847566825139705 -1 -2 2
1408 1 23.52824161755183 11.667651415352585 6.849802714872516 1 2 -2
1284 1 19.79500208208359 11.073239625114145 8.641478653836812 -2 2 1
926 1 21.899447423266665 12.402811809942122 8.658163567421383 -1 1 1
764 1 21.809116069318137 10.083067908568596 7.985741689520287 2 1 0
335 1 23.48777739049615 14.023271865920139 7.5824766519231535 0 0 1
1148 1 0.24700992668769817 13.204946251542323 7.716246157236039 -2 2 -1
1351 1 24.763227407902676 8.693590968563553 4.301637763342067 -1 0 2
323 1 24.950444444388765 11.280580898897556 4.7646321345189495 0 0 -2
408 1 25.670664846096905 13.489685299349055 6.508793757726433 1 0 2
410 1 17.95048790777613 10.42812932275826 0.1054982301693318 -1 -1 1
971 1 0.048939839137423946 4.643745358553133 12.251149434924926 0 0 1
1143 1 6.083394202494943 7.896240461074308 0.28589069473047757 1 -1 -2
1497 1 28.750208198789537 2.8694990026298206 12.8894467589831 -1 0 -2
1265 1 -0.8118693791317095 3.2025454549902177 10.260487925723213 1 1 1
189 1 2.325075088552712 1.887997443109536 9.952230549848565 1 -1 -2
866 1 0.7702793566451747 2.453092223752332 11.603829935954938 -1 -1 1
481 1 3.1363899767677212 3.0398778563576654 12.284005962041512 -1 2 1
24 1 2.0208578585252854 3.200425436692666 8.19054290144526 2 1 0
1441 1 3.320583684957466 0.4185849427889461 12.808554816343293 1 3 -1
348 1 1.1142003703658339 0.12238305782092862 8.78929060873847 3 -1 0
599 1 4.610875052721857 0.8579424831548421 9.29559700744953 -1 -1 0
1396 1 7.012123863871814 1.6113061278921612 6.693451627765863 -2 2 -3
1451 1 15.778626063245891 9.961083641787068 0.140737747605287 0 0 1
675 1 5.068786430206933 3.602639083716447 10.93808427433693 0 1 -1
955 1 17.673454991165446 0.03648175363838657 3.9342041737900315 -2 1 0
900 1 6.641714054892967 -0.5382392428667899 9.445945262401086 -2 -2 -2
1859 1 5.628375022557271 0.5790679112395127 11.423155558247139 0 3 1
99 1 8.529073225104984 0.906601600867452 13.179883384721808 -2 0 0
455 1 10.520101214388172 1.98963585647518 11.965826319896331 0 2 0
1612 1 10.033926779800048 2.1223191564553545 8.938005522133608 2 1 1
724 1 10.309046417266805 4.694827459569301 7.795286669627 0 1 1
1316 1 6.6310813492244955 2.0224013067910485 9.010829231276729 -1 -2 -1
394 1 8.205764608580461 1.2535790196850658 10.146532904751691 -3 1 1
701 1 9.363370337520184 13.091458157661743 1.0171223943236136 -1 1 1
831 1 9.612766626401054 3.8246195105578114 11.300513754574421 1 0 1
399 1 11.915447348804172 0.7129381792018494 10.724530731290487 0 0 1
1781 1 12.695133493403876 2.854429896224836 9.881651006021663 0 2 1
1180 1 27.558216576861472 9.570275712245886 8.123778074708925 -1 0 4
1681 1 24.2850979608232 0.4902443036600228 11.549905035882531 -2 1 0
918 1 0.4866615083053749 -0.3535641101669874 3.1572104132258367 0 -1 1
288 1 16.80146373629729 4.611549643259005 10.219701775925255 0 0 -1
1258 1 15.27111591348692 4.99933193534479 12.252464131568907 -1 2 2
1169 1 15.353966675828836 3.0206031595306158 10.514752471546075 1 2 0
1488 1 15.794542878701606 1.4994504773188937 12.378028460130038 -2 3 -1
658 1 3.6316223428850556 13.274293147555523 0.013238758088781832 -2 0 1
58 1 14.03397641021683 0.6460362507061097 10.354751262635085 3 0 -2
985 1 24.438677521184324 -0.28801365660211886 14.110734540476903 3 0 1
450 1 3.7254542952917493 -0.20260369143220391 0.135261736638852 0 1 -1
635 1 17.405850980879936 2.926727671724626 11.433209553726948 -2 1 0
690 1 19.684775485110777 3.2359988711096017 10.91605988258516 0 -1 -1
1982 1 20.816315826351236 1.3119717744945882 10.122197746298346 0 1 0
1754 1 22.112102078816534 -0.3851393489769126 10.950807328844512 0 -1 1
1815 1 18.13138347543808 4.705619467086012 12.5104898886525 1 1 -2
1201 1 0.10026824735787077 0.02926473452681444 11.133567532184534 0 0 0
1858 1 19.282350079594067 2.0538224919719155 12.892839406707642 0 0 4
276 1 8.07450768467515 12.443089927592787 6.289261698699438 1 -1 0
1190 1 25.512639406148274 13.858513631149293 4.422705785414582 0 -1 -1
975 1 24.216569497998453 2.1500496687955377 13.34763368188584 0 1 0
498 1 -0.8159126479802548 -0.46668538780655333 7.178618308564484 -1 1 1
1271 1 15.985583780171211 13.787961623806329 12.824624160453862 2 3 -1
1561 1 14.456152675548063 12.910621339523518 -0.1158372192378132 2 -2 0
2009 1 23.196094732027113 1.3718766416070967 9.549967022877517 1 1 -1
725 1 21.808450478395613 2.6519988405482597 12.23762014120065 -1 2 -1
630 1 20.621102889420026 4.765671612225673 12.718721565415837 -2 -1 -1
1979 1 28.590952165155404 1.0390578189540738 13.916183482336235 -2 -2 0
1274 1 28.507051613175854 12.795535451764762 9.498872375336745 0 2 1
806 1 27.601561550435758 1.1930036559460175 11.53265057747823 -2 1 1
1866 1 27.767304960520462 5.005155965257506 11.731347138223688 0 1 1
746 1 27.501320114395416 3.4533436848937793 7.988999999249442 0 -1 1
355 1 26.931408050987745 2.9384437711416354 10.31547455399817 -1 -1 1
811 1 25.799841360349824 0.5983538606093333 9.20237197596428 -1 0 0
333 1 28.718923566250584 5.636275863927952 9.636408350521872 -1 -3 2
578 1 26.578096891718904 2.270296693493551 13.4194611892027 0 1 0
879 1 27.68586548230599 0.13947809356670549 -0.2876733762121204 1 3 3
155 1 2.2623877424506738 4.3659808553166775 10.5981434680205 0 1 -1
1806 1 0.6385714237470963 8.090659485618877 9.720836869027199 0 1 1
634 1 1.805881564825723 8.473491143909124 12.68253848502947 2 0 2
646 1 10.944484779300568 0.22840509443241697 0.16572978437668473 1 -2 0
1588 1 18.203308130910614 13.975574604655774 6.02269056954195 3 2 -1
676 1 0.09152096816634259 6.913281546225524 11.788927134506055 0 -1 -1
500 1 0.6824072610455505 9.931705140340512 11.238552074190684 1 0 -1
1006 1 4.624222410144453 3.224169838034462 8.154021090594497 -1 -2 0
823 1 4.382294049904212 4.618517934186919 13.725652236778394 0 1 -1
1468 1 6.366753584589911 4.736368228058746 8.35168576453726 0 1 1
1662 1 4.257959075907102 5.5101426542367475 9.406269967406566 0 -2 2
80 1 3.908807573879713 5.690722130960124 11.85912079497402 1 1 -1
108 1 5.965904911438457 7.209852436310568 9.4964445405795 -1 2 1
114 1 7.241397879459511 4.782511292597911 10.959729564551607 0 1 0
64 1 5.767916289733662 6.600016335952936 12.723264147459474 2 -2 -2
456 1 3.947337354415466 8.343302636235359 10.314059244506165 1 -1 2
186 1 9.525179091912547 5.719606803213778 9.819364215429594 1 1 1
1357 1 7.371198205597315 2.479717732603658 11.767685807442271 -1 0 2
1496 1 9.81678596891041 8.176602192998379 7.711025308026368 2 -1 0
139 1 11.749967261274373 5.219440774470786 10.823452902090153 -1 3 -1
1577 1 10.459264792253613 8.790507846813135 10.047633440603766 3 1 0
964 1 23.572490053575383 11.253431705050115 9.163507855825094 -1 -1 1
1768 1 8.874184326415737 6.280156230910642 12.358351322340386 0 2 -2
874 1 11.543867309836259 4.651170321083186 12.878666055717646 -2 2 -2
121 1 13.771152446057954 6.114482889478947 9.705332883071524 0 -2 0
1779 1 11.518905922508466 6.7457897214104 8.828983391367364 2 -1 2
830 1 12.567850663789958 10.503649531719951 10.955816163613745 -1 -1 2
2022 1 12.048322181914228 10.580212841859513 13.322855578228088 1 3 0
1374 1 21.71142600412679 12.377291431524679 10.946138596147803 0 -1 -1