LAMMPS data file via write_data, version 29 Oct 2020, timestep = 300000

2048 atoms
1 atom types

-0.11236982956318187 28.464369829556155 xlo xhi
-0.11236982956318187 28.464369829556155 ylo yhi
-0.11236982956318187 28.464369829556155 zlo zhi

Masses

1 58.933

Atoms # atomic

473 1 2.917531417641566 2.368622244324145 3.683231709001012 1 -1 0
1324 1 1.547738198095596 1.3754650333822351 1.949609079805898 0 -1 0
430 1 1.0548089512708307 0.29673050551654284 4.098031584531272 -1 5 1
1803 1 0.5796484771044632 2.703066086196597 4.107503572128518 -1 4 0
642 1 3.8569084898528416 3.2253688103580904 1.6514457309895918 2 2 1
909 1 1.5155451822874826 3.6173765478837367 2.0134578844678668 -3 -1 4
2043 1 2.887644922438119 4.857595173007426 3.6828627045670697 3 4 0
800 1 0.3212521297417098 0.2179935498771023 0.0457686641689381 -2 -3 0
142 1 3.989958325884966 0.8541956490198178 1.844946991056384 4 0 -1
261 1 5.419235704479155 1.8813990221613592 3.5046784311771932 -4 -1 3
1761 1 7.664982154506796 3.64175349088232 3.3375579065974654 1 1 1
1192 1 6.497987991998584 0.27541841896468916 1.446743750764232 -3 2 -1
230 1 6.2279946205100885 2.688158638821837 1.5133094194670598 1 -3 0
175 1 5.340980432400705 4.22963838585914 3.6227732876205514 0 0 1
280 1 7.774632772876735 1.3334215478053557 3.1868730642338403 -1 3 0
197 1 8.106965554109285 4.696842714383463 1.1925754934277462 0 -1 -4
1061 1 8.538542815648793 2.372449097046105 1.090644391073154 0 -3 -2
1733 1 11.045740855529598 1.9280653182154368 0.7921548615111351 2 1 3
290 1 10.277860248518524 1.1382279899304306 3.0193881132889553 -3 0 -1
861 1 10.094440006305732 3.515029169048655 2.93017642897302 2 2 1
1092 1 10.351032222277091 4.195890481520672 0.6386907687670466 1 -1 -2
1518 1 12.242469208096768 3.056938639715022 2.5529450212120537 -1 1 -2
10 1 12.67705528689084 0.5661744427853452 2.7231237483496993 2 2 -1
1467 1 14.785297012095393 2.567197544016179 2.5152696159992516 2 3 3
228 1 15.089324408681204 0.09475327479954482 2.467174319016572 -1 2 6
1887 1 13.782744347123225 3.837841722431324 4.3691611032187625 -4 0 2
569 1 13.341620450956594 1.6657634358813513 0.5417357615140896 -1 -4 3
325 1 16.236839862843084 3.727843136434983 4.067508133494881 -2 4 2
1101 1 12.679528521900119 4.13000426070201 0.3764034286451543 1 2 3
1553 1 14.056137725534448 1.4137299142476727 4.562447630575513 0 6 -1
204 1 10.643733571544338 13.220486696458465 -0.07743659813443586 1 1 4
555 1 15.065046625465957 3.4924673021580657 0.023489172666830677 -1 -3 0
311 1 16.42917075329366 1.3899743812815732 4.079371039554171 1 3 0
1424 1 19.302558875890803 1.7232179381463548 1.308251347917661 -1 0 -5
252 1 18.947348972668465 0.8953199624863584 3.479994180798028 2 0 -3
836 1 17.051656649412852 2.3116485501432766 1.8240564128793217 0 -1 1
347 1 18.349553190893804 3.076384131631805 3.677964592643342 0 -3 3
83 1 18.816063586167058 4.159367996997395 1.4669840419378946 -2 -1 -2
82 1 27.336112494913454 12.139581616553878 13.941944614303265 0 1 1
507 1 16.40956447136859 4.62749965572984 1.6095568743467394 3 0 -1
760 1 20.646961711984247 2.481676128535436 3.325653896286414 0 3 2
1159 1 23.09308641499224 2.3075605764363685 2.843438917967403 -3 3 -2
1822 1 21.588337929044876 1.2039339666908306 1.125954172810226 -4 0 2
71 1 21.258403327398852 0.20094470723895358 3.3753787320090094 -3 2 2
670 1 24.181335465106468 0.8806777475400095 0.8300579158610673 -3 2 -2
1664 1 23.87809818673294 3.299691919915155 0.7461767325114157 1 3 4
813 1 21.249879288315405 3.5929075671239867 0.9417957369463461 0 0 6
672 1 23.676806979322745 -0.0798364130744417 2.952330833311928 0 5 -1
1777 1 22.622934529039718 4.617061057742097 2.630980153811487 -2 -1 1
525 1 0.00824200249155993 2.6057425407267356 0.2638377036863914 -3 0 -3
1599 1 27.888974544560078 1.494878450595212 2.2202767214741965 0 -1 -4
499 1 25.437594074223814 1.9969505069373876 2.573155813912581 0 1 3
1841 1 26.522977927303657 0.5831699374875166 0.31519891716260595 0 0 2
1687 1 26.301777941734997 2.980331686063757 0.5826397035570658 1 0 -2
1139 1 27.565800686846718 4.002007723389176 2.1967504519240215 0 2 -1
1371 1 26.801801078294314 2.9232131896930538 4.355249806580664 2 1 -2
426 1 25.015788842826257 4.484130975181575 2.5220807077548604 3 1 -1
1074 1 27.25298560120575 0.6422821713960344 4.327640577458415 -2 2 2
2022 1 24.34798853962467 3.4484963149410914 4.491591670882614 2 5 0
26 1 25.01665069079133 1.1332542688363605 4.7411337635773405 3 3 -1
355 1 3.3928919577756704 5.550786679637714 1.4259482315586924 -1 -3 1
317 1 2.113666226746462 7.091484339321972 3.5764461664781924 2 -3 4
35 1 0.7268793540696905 5.797577573022875 1.9220837497270118 3 3 2
1473 1 2.6712741858585094 7.942171293227393 1.547316661440726 -3 2 1
693 1 0.2578408759828667 8.208537774213436 1.676210715402624 -1 -1 2
454 1 1.5104916624298124 9.23179216375062 3.4897890802669216 1 1 -1
2011 1 0.2879457863983965 4.975151932459325 4.065086413663058 1 -2 5
23 1 4.067561015169499 8.918376836781817 3.3481444692719324 -5 -2 0
1953 1 5.72403820911121 5.110194640318008 1.3883551277289312 0 0 0
132 1 4.632234615515912 6.526091109874387 3.375049881371992 3 -3 -1
1660 1 7.129944075611711 6.143056015604459 3.2526187537874067 4 2 0
1493 1 7.429125801224405 7.044624290011434 1.0066887702832086 2 -2 -2
87 1 6.450052907708125 8.353980926177265 3.2299940107065663 0 -2 5
242 1 5.053660570948064 7.546444991926028 1.2880506905751241 -3 1 1
859 1 6.872954703955078 9.398172245439799 0.9690344153512362 2 -1 6
1717 1 11.81332709728456 5.51309149558358 2.7056196600989466 3 -2 -1
1395 1 9.358417661352119 5.796702775846609 2.9111290522959745 0 1 0
726 1 9.756033812959943 6.619343309751707 0.720368966559979 3 2 0
338 1 11.147732043470793 7.648840345510421 2.2722855911168214 2 1 -3
1246 1 8.832656610563202 8.073728205274769 2.7984757239524716 1 0 -1
1173 1 9.286848172908973 9.083716558585257 0.3792713503730035 2 -4 -2
1465 1 10.319302168590937 9.127361087958235 4.762250409968711 2 1 3
605 1 10.620448010429225 6.84664619936955 4.694151330179606 3 2 2
646 1 12.087856965643827 6.332813144412205 0.3110121730745646 0 -3 0
1651 1 13.29499897165553 6.412472697493155 4.292252004226858 2 2 -1
60 1 14.163218347797367 4.876560996277905 2.2486693391785932 0 2 0
2012 1 12.49999274052775 8.551623791022752 4.284234815496974 -2 1 0
6 1 15.553322823375213 5.9951467818265005 3.8842852980152194 2 1 4
1269 1 13.538896895077624 7.330318012901536 2.0693530813639347 -4 -2 1
651 1 15.862499267461956 7.023724400287658 1.5990739434211796 -1 0 0
689 1 14.921112945518896 8.373176528482569 3.875172125035944 0 1 3
1925 1 15.42712654199952 9.3524629773666 1.5610753353020044 -2 -1 -1
184 1 9.8948236331977 -0.028650730914287062 5.076027276664617 4 2 -3
1323 1 17.876653035018585 5.5661825875139685 3.4451015475196334 -5 3 -1
965 1 18.348745346225325 6.611867746619441 1.298175307509765 0 0 1
687 1 19.678654328966395 7.217252030900613 3.1726037915644403 3 -2 -1
1339 1 17.175616327135106 7.900461880054168 3.4965768327538718 5 0 2
985 1 17.821537202279746 8.979129508146837 1.3885656427662305 5 -1 4
858 1 20.229155161797273 8.53565767569998 1.0190785038397105 1 0 1
1449 1 20.240702487071694 4.946242241427486 3.1300621203399746 -1 -2 2
382 1 20.54926667073082 5.821985131556344 0.8569882580066622 -2 -3 -1
370 1 22.89921927392778 5.660608216791987 0.2531514819995811 1 3 -1
1035 1 21.844189339784347 7.142759017349099 2.617458409287055 1 -3 0
1656 1 22.618546026324378 8.117998520825775 0.5898706273575753 2 1 0
1981 1 23.283835242095233 7.912964731888236 4.496291866395782 1 2 -2
999 1 23.89151061684809 8.967936833622025 2.3926363766922942 -1 -1 1
1985 1 21.58296724756827 9.548019830193676 2.8273883313211092 1 1 3
1751 1 23.862887096365192 5.80154197089728 4.472508963795132 1 -1 -5
960 1 24.225964656185248 6.59599535566366 2.2533952773163914 4 0 -2
570 1 28.09687080272044 7.239265448174695 3.7870957645707333 -3 -2 -1
1309 1 26.727183913185858 6.1915541380548875 2.0809754418098376 -3 -2 4
455 1 25.28619737302406 5.31285424446184 0.25395708357371277 -1 3 1
596 1 25.094747429859115 7.720924463247115 0.14748076589306341 -5 4 1
1646 1 25.705776476134584 7.413041985801802 3.863398882298823 -1 2 2
568 1 26.37654176291141 8.554323797429877 1.9415082704725553 0 -3 -3
1712 1 26.452249564869742 5.333838011463132 4.303586307746269 3 0 2
772 1 27.43137738754279 7.174383074788838 -0.03278755477173917 -4 -1 2
1251 1 2.2011571729841157 10.38335531686789 1.4380509612877135 -2 -3 0
1826 1 0.9512559419556232 11.582306725495444 3.398789317750548 -5 2 -2
623 1 3.553523655856663 11.369728263948783 3.207411478277949 -1 1 1
634 1 1.6506249331905087 12.773581137795354 1.2898398990054756 3 0 2
1385 1 2.9562268917063492 13.645842363625261 3.0839704380637025 -3 1 0
488 1 0.5063877026491315 13.95807664962791 3.2397160326469456 2 0 1
1848 1 4.058468095597298 12.282314189163008 1.053144238157061 1 1 1
1115 1 4.532378721797385 9.867425845127748 0.9881739885933929 2 0 2
1419 1 5.342519335461705 13.35328307812907 2.8893505427481125 4 2 -1
476 1 6.4500330170051186 11.718121127511754 0.7698417344954088 -1 0 0
779 1 5.906262740150392 10.870657158538801 2.8249218348681087 -2 -2 5
1536 1 7.671466785381971 12.690893582764547 2.5975369277987834 -3 -1 0
576 1 26.434895627346055 10.547397361443904 12.072453002448698 2 1 1
275 1 26.75618948544193 11.87700036188787 9.9197423597676 0 -1 -3
1961 1 7.021908671691228 11.66174826482627 4.720843901316795 1 -2 3
1247 1 8.331434005995746 13.700168141768735 0.38343176410147867 -2 2 1
1194 1 8.266240201436965 10.38392372241971 2.613455630922957 0 1 -4
748 1 8.766805961191613 11.34882099005028 0.48244265131648134 1 1 1
8 1 10.720245811587276 10.050563079612552 2.4561921271121805 -2 -1 -1
327 1 11.316709509397844 13.310695501407254 3.980785250537835 -4 4 -1
250 1 10.13474258697498 12.41603925446915 2.1224221324056636 0 0 -1
1462 1 8.990859205907075 13.91190501560157 4.439788260954018 -2 1 1
633 1 12.052328397231284 11.011452755334615 4.1231960906622245 -2 1 6
266 1 11.277543431299613 10.934296224059725 0.2921457839395385 0 0 -1
69 1 9.545177664068312 11.450579163773947 4.4916778794878445 1 1 0
1990 1 12.505868599001774 12.025811697678755 1.9618589344057589 4 -3 0
1903 1 13.108879731970791 9.673218210842547 2.1750603600073286 2 1 -3
1122 1 14.520921557135997 10.799730040634206 3.8099546014899066 0 0 0
2005 1 14.844940376276078 11.932350822974467 1.526066261776914 0 -2 -1
746 1 13.621122788752174 13.423450463801418 3.7174237020105374 1 2 1
826 1 24.35141886486193 12.865705346352675 10.069796307675633 2 0 1
1163 1 16.013548735113485 12.678867016515508 3.442845199573485 -3 -2 -2
1791 1 19.13233418230688 13.057299665504319 0.8688573757711128 0 3 0
600 1 16.863335230401532 10.331583536465754 3.3909953790315286 0 -1 2
1700 1 19.171724852881738 9.576791143373962 3.2007738804009573 -2 -1 0
1496 1 18.655256876441808 11.910972675543665 3.095090987625819 2 -2 2
1118 1 17.255251753407705 11.214067510797985 1.105988490173002 -3 3 3
1494 1 19.50639518404164 10.759618867636636 0.7897998615530776 1 -1 4
804 1 16.704640407671196 13.68686096300685 1.4358195075340854 1 0 -3
735 1 25.951242291648498 12.947657290381835 11.878055225334421 -1 -1 -1
116 1 21.1095661652925 11.898511179480401 2.5671963213357767 -1 0 -1
389 1 23.421825567514688 11.173301527835987 2.2301647029936533 -4 -4 1
289 1 21.940776659266035 10.398661270272934 0.45284309135054746 -1 -2 0
1541 1 21.490369252074682 12.705962208230138 0.24559638380211796 1 -1 -2
566 1 22.56584084374798 12.7589739289417 4.139182625492338 -1 -1 -1
106 1 23.099683169832726 10.381328487783428 4.566432408932208 -2 1 3
945 1 23.047083407132348 13.64692107745708 1.9144317293944906 5 1 -3
921 1 24.14213348469712 12.333389395104051 0.08146425448274 2 -1 -1
1196 1 27.729446010447965 9.608524938319608 3.6119553476313997 -1 -4 -2
890 1 28.35544371644808 10.579816951519776 1.6240818715821315 -1 0 5
1696 1 24.910739529330467 12.29730709239507 4.022323180974935 2 0 1
120 1 25.256590038507166 9.962373158109191 4.053664115106781 3 -2 3
1698 1 25.93974229560854 10.947011130363187 1.8939491823270473 -2 -2 4
1278 1 27.286215850269574 12.012895473429545 3.484155659355687 0 0 2
603 1 27.88782828820932 12.95387742049822 1.445552786016071 3 -2 4
1750 1 25.536051748869575 13.286991183450263 1.7201356201707143 -4 3 1
445 1 24.39417085744222 9.986246426549009 0.21452811292566049 -3 0 0
928 1 1.6690641214089297 0.4601978049064507 8.212721168872372 1 0 1
711 1 2.55257803666848 1.4441485817048838 6.033465935218491 4 2 1
1582 1 1.7839843377775035 3.6378606939347247 5.98106959412182 -4 -1 -1
313 1 1.4891083283606954 2.7894164155097307 8.117963335735919 3 -2 -1
1749 1 0.0629968335618191 1.6090145064177508 6.224607439779757 5 -2 -2
1123 1 3.3171852889040125 4.563397237140002 7.616776311722392 3 1 -3
386 1 4.0473534458766 2.241358255267572 7.726982143559213 1 -5 -2
1658 1 4.184543671535961 3.2441584983731873 5.5068914476256685 -2 4 3
1109 1 6.783003424309735 2.839357297198741 5.403645458010077 4 1 -2
1811 1 6.520878331370582 1.7951663369896853 7.532746124296342 0 2 3
1459 1 7.495888962889376 0.5518666537775355 5.541024406457553 3 1 -3
1913 1 4.969424817509339 0.982820911834803 5.7713457229256955 3 1 1
1256 1 5.681137700570631 4.066110211294156 7.376186391435204 -2 2 -2
822 1 7.2274982408340955 2.8869044922821567 9.463167667200343 0 3 -3
1909 1 11.566276658013477 2.116520849954041 4.790101809110438 3 1 -3
1799 1 8.11179848954918 3.8631394222421727 7.281820917272444 0 0 3
234 1 11.482221520301827 4.427189569602233 4.810672972570283 -3 3 2
1650 1 10.652553200670578 3.1469682305448896 7.001571001425907 0 -1 -2
618 1 9.14633562027176 2.2325791583631363 5.223101070073059 -2 -1 3
1974 1 8.861975179691186 1.5344315828640036 7.515296505700089 0 1 3
1770 1 11.06287777883661 0.8470720155605905 6.917886474346645 -2 -1 -2
1830 1 9.861616009547904 3.158880975861099 9.252963856285099 -5 4 3
1304 1 10.411461789859137 0.6929479521386179 9.245623541183264 -1 -3 1
814 1 12.301645231303745 2.423481521183611 8.60948227614992 -3 -4 1
752 1 8.84576088952184 4.609436415626643 4.985057001370596 3 1 0
595 1 27.88418529827576 4.965221116322148 -0.10749369442610632 3 -3 2
1543 1 15.76869871415767 0.39171531918253566 6.175607826355197 1 1 2
698 1 14.540880612697341 2.8618090095272732 8.552887874184297 1 0 1
723 1 13.064443448360493 3.786360433111446 6.70047441022974 -5 -4 -2
483 1 15.373495552740472 2.818009395799643 6.248426692533167 2 -4 1
284 1 13.683333716479867 1.2850517246028277 6.8784531837178235 0 -3 -4
1526 1 15.17880277659243 0.4487809368828152 8.693495641442249 2 0 1
1653 1 17.72139108875347 3.3246764837879113 6.074475847415916 2 2 2
554 1 18.13040977588019 0.6862043588856968 5.944611243069923 0 2 -3
1127 1 19.31312656494962 2.6542225121664687 7.914428540344556 0 3 0
1028 1 19.964120128927004 2.2190228459791723 5.574350787617735 -1 1 1
1168 1 16.93460991089099 1.8482786897515882 7.894878651031004 -6 -2 0
1025 1 19.53411239361947 0.22069194824928973 7.872415531634054 0 3 0
1381 1 16.43871964375829 4.483729397546917 7.91485261711461 1 -1 1
1041 1 20.31880677291989 4.359127243431485 9.569383173135773 -5 0 2
189 1 22.286346659642607 1.364504966505194 5.144635871173273 -1 -2 -3
1238 1 23.916531395775078 2.5931553035873756 6.798683280685426 -2 1 -1
1867 1 21.51123436918663 1.8775015116013631 7.274497507094083 -2 1 -2
154 1 21.77279945324843 3.8338026014799564 4.765725031990599 1 -3 1
1922 1 22.533889169960613 3.466196454415742 8.61960143981063 0 3 2
1781 1 23.065864599505392 0.8885485711169134 8.925074819370954 -2 1 2
1322 1 11.855607542333242 8.66426903542093 0.21800740041065364 -2 -2 2
1740 1 20.94042060975986 4.264504154865826 7.048104658356831 0 0 0
537 1 24.169688876437103 0.2407406214239019 6.825174787690185 -2 -2 -2
655 1 25.375356812138484 1.4673067651230958 8.686795193313067 1 -1 -1
1435 1 26.355462979331456 2.1705930995053357 6.561371702344556 -2 0 2
1075 1 27.637995156422214 3.222311927542117 8.38650293229934 0 1 -5
1303 1 25.131387698858997 3.870346522867401 8.556228733546334 -1 3 -2
1906 1 27.7714003167842 0.7970127693592202 8.466252299883651 0 1 1
1436 1 28.022209940479893 4.07286760297067 6.104940428669845 2 4 2
440 1 0.8987272380432565 4.975447042531991 8.112482614533176 1 -2 -1
365 1 2.980829941204332 7.036054316173218 7.757947735360225 4 -3 -1
101 1 1.677403125468944 6.005064917422568 5.987661685643271 1 -1 4
1336 1 0.8898565013537527 8.32075381825145 5.6886603719222455 -3 -3 -2
2007 1 3.2214204392636665 7.969310281025571 5.465786339517526 0 -2 -2
1893 1 0.5597429016364072 7.385956958255145 7.968804101583132 1 0 2
1266 1 7.778414903716029 9.365733785448173 5.027619629851719 -1 1 3
400 1 4.007444263282177 5.612171706061204 5.452419965338679 1 1 0
1828 1 7.622833865201298 6.4669218660299315 7.267361330129846 -1 -4 -3
1263 1 6.5367298055304195 5.072412405267206 5.493268676478667 -3 0 -2
232 1 6.238239318569817 7.489433710468448 9.330534345814874 -1 1 -3
1883 1 5.7369582723726955 7.5213000285065705 5.383822942654004 -1 1 -2
208 1 5.230324292815222 6.429591058790147 7.484556169086744 2 -3 4
937 1 7.100502163097636 8.828163193723675 7.256533268443815 3 2 -1
720 1 4.521876956110531 8.959787067069428 7.320761439817277 4 -1 3
1793 1 6.771384460491185 5.227118521310657 9.122828944259068 3 0 -5
1308 1 8.281926719308336 7.016212307539219 5.042136397512159 -4 0 -2
1699 1 11.687189441232967 4.756987876725984 8.613116977859242 0 1 -4
868 1 10.084475453800485 5.531871738744626 6.79944424720084 2 2 -2
531 1 9.20338538180302 5.4233109759970395 9.004736713669017 0 0 -1
1719 1 9.501599404408113 7.911623548718932 6.773059959422141 -4 -2 1
1728 1 8.638802681258209 7.973294428695645 9.10103153979953 -2 1 2
438 1 11.102598913538197 7.102879361079367 8.510975283350666 0 1 2
1156 1 11.896941622659735 8.424105602209966 6.5052951705499265 -2 -1 -3
975 1 14.12018870143936 5.341687258522169 8.490444432682681 0 0 -3
1583 1 14.857195574837087 5.368446425686837 6.040945672578892 2 1 2
1064 1 12.31316377372966 6.031945735318723 6.51358647009188 3 0 -1
513 1 13.429298455005757 7.836270506877681 8.407138168936402 0 -4 -1
130 1 14.222144741566701 7.596970430982788 6.103540476445757 3 2 1
771 1 15.897537395219455 6.935682657194579 7.808389851075292 -3 2 1
341 1 16.491339185749627 8.417698743465197 5.772079921227747 1 -1 -1
249 1 19.4031851515899 4.902244560557284 5.409868996853353 3 3 2
783 1 18.82713456795812 5.152811765981592 7.854936746942633 2 -1 2
1730 1 18.207902876887378 7.517192174204205 7.715515123323506 -1 -1 -3
811 1 17.257804136579875 6.063771542684948 5.913999122462577 -1 1 -2
1268 1 18.886429439214265 7.554893937626285 5.25241736230076 -2 2 -5
1748 1 17.420854508802773 6.0288112918412935 9.595460284702094 -2 -2 1
227 1 19.208732214785076 9.227286164346724 9.34667588612749 0 1 1
1722 1 20.357438263906555 6.710335120877049 7.032085137882767 1 -1 -1
25 1 21.062361970094255 8.530063969087458 5.01515099220222 -3 3 -3
888 1 21.345961491400878 6.185958375285334 5.019120742890469 2 -1 4
48 1 22.109944721453193 5.923363084910117 8.683250917701724 -2 0 -5
1851 1 23.256786409777447 5.048046393861411 6.60520015588924 0 -2 -1
997 1 22.708230794677913 7.413059811443753 6.749721477210403 0 -2 2
1095 1 23.96381708534785 8.658627396782894 8.622479267274558 4 2 3
891 1 21.4964694091885 8.38396372073224 8.644315637051815 -2 1 0
1476 1 25.587275867887826 4.365663879721374 6.423063511867109 4 1 1
1628 1 24.578517975008715 6.342831456159278 8.536606924156557 1 2 0
1572 1 27.056476540290284 5.683495595307755 8.328937788583742 3 4 1
639 1 25.179669701193273 6.793036747207453 6.168722987536476 -2 -3 2
1666 1 27.80413113317743 6.495532333629219 6.057626420514717 -3 2 3
1279 1 26.621845119241446 7.92038037866608 7.990499160366763 -3 -3 0
1197 1 26.89273573606859 8.61476359979055 5.655410677186319 -1 -3 0
1353 1 24.481367018090808 9.182148235039252 6.384241625913948 0 1 2
1639 1 2.1928073387359115 9.623846665548818 7.555117981936189 3 4 2
1672 1 3.398333923484015 13.617261215530625 7.019372515077097 1 2 0
1388 1 1.442330637914807 11.8962874972212 7.445208081665023 -2 -3 3
1393 1 2.7567460433064848 10.28541331706747 5.267664527081689 -2 0 0
1890 1 0.3596820490077905 10.670660749254328 5.3947630606322035 0 2 0
399 1 2.2987470195947886 12.462984002748312 5.247933482138433 -2 0 2
403 1 2.876829711475684 13.092977594762866 9.303509961968837 -4 1 -3
92 1 3.3079308259934543 10.850408663769219 9.5421012373136 -1 2 -1
1946 1 -0.0539624760350519 12.938167157684399 5.585037512125327 0 1 2
989 1 4.042631096163967 11.43063003092221 7.228280882519864 1 -1 -1
512 1 5.734551553975503 10.090549546501624 8.990313763126494 1 -2 0
983 1 6.653662526730175 11.14391677136439 7.056923624741654 -4 3 -1
1592 1 5.2259075185013515 9.995744358112725 5.130970166113849 3 -3 -1
544 1 4.840557923972979 12.236147735951864 5.216077443192427 1 -1 1
1721 1 5.264164196953768 12.375930991111424 8.98509609487564 2 0 2
1474 1 5.932245187982624 13.590894448417377 7.046643908079898 -3 -3 5
599 1 7.541755880853572 12.941862608888998 8.888422490842148 -2 -3 0
1299 1 8.12932458042243 10.448891632566859 9.007605733661899 -1 0 -4
492 1 10.38579869452787 9.519081695771286 8.56392990711739 -2 2 2
745 1 9.020679747752913 10.40243199313855 6.695743489324414 -1 0 -2
757 1 11.351372711621213 10.891380687634726 6.454122836051016 2 -4 -1
563 1 8.42338673586829 12.736811893373263 6.483720796779823 -3 -2 2
1389 1 10.869993566796417 13.160874250129842 6.341900038996136 1 2 2
562 1 10.064294908709925 11.94690965884346 8.278044270155965 -1 -2 3
725 1 25.314467063264953 10.709000398889193 14.170042421846452 -1 1 1
351 1 15.234599344610437 9.396568370356707 7.662352850184625 2 -2 0
474 1 12.79640821025641 10.082237935305443 8.19937107627503 0 -2 3
1758 1 13.619686589122622 10.09830772034786 5.830795141360179 -3 -1 -1
224 1 14.599299513160357 11.993840691908728 7.7588288978070326 -3 -2 -1
434 1 12.434493566700288 12.926042930108558 8.109240718791462 2 -6 -3
76 1 13.299200775520887 12.387908842956449 5.792716274582472 -1 3 0
1617 1 15.483644341452168 13.551920453283449 5.67552938074146 1 -2 1
1918 1 15.903803236674673 11.015370821241135 5.761016144607354 0 3 -1
1743 1 15.77423548856001 13.649450888954652 9.296657181943258 -2 -2 -1
279 1 27.124379625400547 -0.0888840932678292 10.561170269141256 -1 -3 2
1969 1 19.82001838533245 9.273758960365496 6.918469144320734 0 1 2
315 1 20.182737171318795 13.269095080312376 4.737981555878573 -2 0 2
511 1 18.21863068206005 10.26086258922938 5.397608771682614 2 2 3
593 1 17.53605864061507 10.045853121650229 7.6158676413699045 0 -4 3
1685 1 17.159294216226513 12.505630108330392 7.416115290882875 4 -1 -2
402 1 19.490685557927566 11.845835784652227 6.858939713515749 1 0 -3
1022 1 17.785579611558774 12.768279846091152 5.037272114663544 4 -5 -2
47 1 18.7153925981711 11.73564848264083 9.11070698163478 -1 0 -4
170 1 23.709342318908405 13.95996600518539 5.92888327998386 -3 1 -1
1116 1 20.58726601017939 13.461877649027413 8.63339862391704 4 -2 -1
246 1 20.602428603403872 10.844559451421448 4.76281221793512 1 1 -2
1076 1 20.93807914635603 11.085608333938522 8.566035316871 0 1 -2
536 1 23.297477323575354 11.218270963550694 8.450009400652975 -1 -2 0
195 1 22.15657173652049 9.967914793498203 6.66756397864978 -5 -4 0
292 1 23.114513759007853 13.72049903639957 8.247254436491382 0 1 -2
770 1 21.90202544019267 12.418498555539053 6.556652393453267 3 -1 1
2034 1 24.282322799078376 11.597138821728562 6.3279886963032626 -1 -1 2
606 1 28.29349662776382 9.84961702453791 7.517960196887772 3 0 5
782 1 26.159677364958597 13.490477404264377 5.666220430821837 4 2 0
307 1 25.81674749034484 10.393496046923733 7.870050717195006 1 -1 1
1029 1 27.62860205899094 12.089636261731034 7.632274448957178 0 0 -1
1565 1 26.63444337744471 11.057183606486987 5.681682792221941 -1 1 1
418 1 25.514226204987693 12.94563968582408 8.05181267501995 -2 1 0
873 1 2.0101192802341683 2.7048305459364683 12.183213649669828 -1 -1 -1
1363 1 2.532882056443703 3.8364599812007945 10.020869197770258 -1 0 -2
1219 1 2.6270205578929158 4.376778702070089 13.94145681628155 2 -2 1
561 1 0.5614601721108106 1.9263716895295526 10.237191317475391 1 1 1
519 1 3.002419940703836 1.515780079951541 9.924468904064565 2 -2 2
94 1 2.357893183479248 0.4109884172567456 12.18960033179219 3 2 -4
68 1 0.004714935033373127 4.5265749051380615 10.263040033384327 -4 -4 1
391 1 7.997775810408237 0.2551508930904276 9.248546958031385 -1 -4 -1
1406 1 7.094353824462471 0.14342708732188109 11.610623602179931 4 0 1
1810 1 5.5443489543158595 1.1830145468452773 9.659551591234667 3 1 3
731 1 4.909533671262782 3.568082779228292 9.678640155824937 0 -1 -1
1128 1 4.246817172571197 2.102867663287675 11.845677727914248 1 3 -2
792 1 6.512365195139666 2.5216922012388214 11.763365436953539 2 -3 -1
188 1 5.205784401594593 3.6521102017808604 13.765432194952568 4 2 2
1834 1 5.758353530934784 1.1230075091675262 13.681571633050183 1 1 2
1094 1 7.792656890513697 4.039765270384603 13.560753947464727 -2 4 1
774 1 8.097378145184573 1.6690729362630297 13.466760496520045 1 0 -3
1928 1 10.532217670525629 0.9901586487496135 13.02354467861453 -1 0 -5
778 1 8.93752108326074 1.7481960888073758 10.91824345395497 4 2 5
253 1 11.339010526526373 2.168611196223361 10.843690748955082 1 5 3
1321 1 10.1282104992386 3.3036230699439124 12.689675668771576 -2 -1 2
1050 1 24.652692947745592 13.073932425088284 14.138223457451739 -1 -2 2
1846 1 8.474258904233814 4.2094361192495935 11.031504420282342 1 -2 1
1950 1 12.493067530890409 3.879876183795466 12.771208243893904 2 2 -2
336 1 15.327648585128873 0.5587058551657854 12.28942964406053 0 -4 1
1258 1 13.674277962136706 1.4289390392794947 10.378517560374629 -4 0 1
498 1 12.903131786962689 1.4460678663218607 12.833272725166472 -4 2 1
276 1 14.625698970530694 3.0212327036907807 12.104484782459664 2 -2 1
1662 1 13.083785580211757 3.7702343956279765 10.361568604905447 1 -2 3
1965 1 16.126729061484458 1.9269886492055988 10.395472900971193 -3 0 -3
16 1 15.594944758595872 4.307682638726662 10.159904537593771 -2 0 -1
27 1 16.291944279972597 2.126173274292329 13.83274294874394 2 1 -2
1611 1 20.068414021541837 0.23580816395636228 11.542833144562097 -1 1 2
788 1 19.247720532822825 0.2378626225456129 14.00940165790726 1 0 2
1820 1 18.457078099226273 1.1050206184518372 9.70418312428041 -1 2 -1
70 1 17.928375049992344 3.6325074697993744 9.589330794977723 3 3 -1
1917 1 17.927977864896217 1.0331269372761729 12.272083375822456 3 0 -1
123 1 19.384329681938947 2.8234316298397615 11.404100631236602 3 0 -5
567 1 17.11531779829997 3.5444074414015967 12.025534867240498 2 3 -1
1861 1 18.711127904655964 2.8289922782405688 13.873822871648397 -3 1 1
129 1 20.766415897580053 1.8447003816664778 9.577045253365013 -3 2 1
550 1 21.012387568347023 1.973188119493014 13.166029135857986 3 0 1
938 1 22.418264565592146 0.8469197743493814 11.417622419024022 -2 -1 2
1638 1 23.5983365955105 2.1747991148141477 12.9981188945472 -1 -1 -3
1418 1 22.02866194507892 3.286460586424715 11.095416817393554 -3 0 1
1513 1 24.320680103032313 2.4871170974330257 10.546433090074661 1 1 4
1103 1 24.254690497335094 -0.10758065714375115 13.077839332904741 1 1 -1
1864 1 20.635055592957716 4.26638072219166 12.98338932822677 1 -4 -1
860 1 0.019749693351898717 0.9309361873873878 12.44209190587591 0 3 0
3 1 24.67149736167738 0.20892506293746194 10.610007443173986 -2 2 2
1151 1 28.018244758409338 3.318127179334289 12.471969453845691 -1 2 -4
1529 1 26.77124983750922 2.40336771707823 10.631941077485111 -2 4 1
1782 1 26.04649979219279 1.5276160549918187 12.758619287226631 -2 4 2
558 1 25.413136056165694 3.9583852377922373 12.42977324702114 0 6 -2
486 1 3.845035463405332 8.354156952485678 9.684521315157394 -4 0 -1
1816 1 3.8621025859834033 4.45547526495459 11.82758259296765 4 4 -1
1538 1 1.90206079792909 6.171127157661248 9.741221015378512 -2 0 3
273 1 1.354678546784676 5.296576143543375 12.020036215507284 0 -2 1
265 1 3.2978328479816743 6.940082501611438 11.666841440648035 2 4 0
1571 1 2.2814247522433426 6.8186862046255845 13.918159336216751 2 -1 -3
1987 1 1.2162565585192135 8.881505686852336 9.698698470487043 3 3 -2
359 1 0.9530613118305893 7.6235790325441775 11.920623956612546 1 2 1
1463 1 1.6855176945294634 9.013272241853027 13.822748086630362 3 0 -3
1267 1 4.458865641948908 5.853650221034046 9.67715241732265 0 1 0
1598 1 6.084188162531542 5.064785348966766 11.627221933616896 2 2 -4
1629 1 4.661995050158278 6.063489449198263 13.412985384041235 1 0 0
1971 1 7.139388764258157 6.684398714997722 13.317695417098987 3 4 6
786 1 5.669328700926497 7.465394615557228 11.587372559401764 -2 -2 5
1612 1 4.211528055430172 8.571247397696855 13.288413237454458 2 0 2
1679 1 8.071193655238124 6.654854950697818 10.989864216589535 -1 1 -2
1934 1 6.468155706953911 9.062876849180208 13.304128253424906 -1 -2 1
1365 1 7.464439713361116 9.268813553025275 11.107747459086287 -4 1 1
866 1 10.78561543067328 4.681911670904159 10.908319598148136 1 -1 2
503 1 9.54556013232309 5.8792827819401685 12.726347808408821 0 -5 1
923 1 10.344775012279175 7.382001569557061 10.801982606373246 5 -3 1
305 1 8.88506236451999 8.366679464080097 12.865468975135787 0 -1 0
1745 1 11.358804201943483 8.846747341881356 12.752910570993029 4 3 2
899 1 11.790882352180727 6.395240682465781 12.695479548350546 1 0 4
1676 1 12.209610202463315 8.86397183715554 10.313284732283174 1 1 -1
1618 1 15.79000187409992 4.724278928051888 13.738021699695429 1 4 -2
607 1 14.278438550943036 5.609844864590617 12.114416015421062 1 0 -2
340 1 12.606757517944592 6.271315501592277 10.477665379472484 -1 0 -2
140 1 14.855491227747828 6.861897006075426 10.105574075008597 2 -1 -2
1338 1 13.708590109852134 7.934796165983565 11.986664280985948 0 -1 -3
1734 1 15.42093706671196 7.260269159876789 13.787576113587216 2 -1 4
1957 1 16.093369499822842 8.514353811168137 11.795660050010842 2 2 3
298 1 4.130679999625158 -0.004705727098329518 7.980115814418976 1 -1 -1
1083 1 19.826901853193622 6.799955984390102 9.455410284325591 3 -2 2
1230 1 16.81454708650034 8.513017893530261 9.470864430044013 -3 3 0
1497 1 18.275611929676746 5.182180280177302 13.76371949375383 0 0 0