LAMMPS data file via write_data, version 29 Oct 2020, timestep = 300000

2048 atoms
1 atom types

-0.44888784386396985 28.800887843853936 xlo xhi
-0.44888784386396985 28.800887843853936 ylo yhi
-0.44888784386396985 28.800887843853936 zlo zhi

Masses

1 58.933

Atoms # atomic

1679 1 0.2685001139932647 3.932887832715381 0.5917056860517445 -1 1 -2
834 1 1.543645455751255 1.0184406496680867 3.5542925580975906 1 3 -2
919 1 28.78603122848394 2.259267239560991 2.5027741157985024 1 1 1
1314 1 1.8924951438422664 3.144266316229432 2.2224381655914907 4 1 1
948 1 0.6629384412404125 2.7267329975523875 4.7383125297268185 -2 1 1
111 1 2.977706533162011 0.7719065859804994 1.6133220632339995 -1 0 0
1065 1 7.781486675089337 1.0351380235592513 1.013781614937948 -2 -3 1
364 1 4.058432296553895 2.773574352437944 0.5339580468427053 1 -1 0
623 1 3.890721827890916 2.1736144386611134 3.135938692185117 -1 1 1
1591 1 6.863890404551182 3.7604498027414355 1.7503368425250159 -3 3 1
1582 1 6.485161227038208 3.9731055522429166 3.905938436445415 -4 -1 -1
537 1 5.074948197482677 0.46214346295545816 0.20147610777950498 -1 -2 -2
1258 1 6.037551127233177 1.667429815308029 2.3760048688450537 -4 0 1
1671 1 27.675127220204438 9.593362726300528 -0.17283061293575092 0 -4 1
884 1 26.3003151130686 0.8162850270454824 -0.07440640558658485 -1 2 0
168 1 8.544759590183915 2.5214489353732628 3.104787537045863 2 1 -3
294 1 10.217221691229357 0.6281557209291504 0.34444691271961336 1 -1 3
1221 1 11.040731759415898 1.5500968095617693 2.9026846129446864 -3 -4 3
1658 1 11.57284773254905 2.9293407701300342 0.7215421750973388 -2 4 3
164 1 9.195625378555237 2.8976102332430966 0.6910518626828004 0 0 2
1460 1 9.265353044554468 0.0667622137281546 2.4992470637045137 2 2 2
780 1 7.376560768474889 6.452721681690802 0.574577306733574 0 0 -2
350 1 11.08941619428413 4.909999641528596 1.935561601217736 0 2 0
439 1 9.799313865814852 1.9892016598776738 5.130774578479131 -1 -2 1
1952 1 21.9290755186246 10.31487419274268 12.801551556846276 1 -2 0
456 1 12.876523174999692 3.447882588351216 2.5604920064288264 -3 -2 4
1535 1 12.936907992268427 0.3595510536195937 1.3795191043487671 -3 3 -2
541 1 14.819021538495182 1.527926567026221 2.7660853270212273 1 3 6
1228 1 14.49984004348255 3.933314640726044 4.43936201793151 0 1 0
1113 1 14.846369115853438 4.732151286433824 2.004996219042365 1 3 2
867 1 20.128519066404415 12.473371087600041 -0.28534256113314993 0 -3 0
574 1 16.1602962625351 2.8783245705835805 1.592836335024681 -1 -2 0
264 1 13.068084482557369 5.484344002518598 3.4978848110678817 0 -4 -3
746 1 21.6798693789908 10.497923535794083 -0.14050515256979346 0 2 1
174 1 15.473565265179149 0.8074197380459784 0.490468874064626 4 -1 -1
848 1 17.59137492632184 1.5452780468572764 3.3484001191512975 2 1 -1
2029 1 18.12710739905871 0.9501678957610127 0.978997304643207 2 0 -1
407 1 18.271305877465736 3.5288297538543505 0.9640670737357315 -1 -1 -1
1459 1 23.50151465024986 -0.37202458126672716 8.057192384367692 2 1 -3
182 1 22.016779762849183 13.971120015226068 7.5646155336312315 0 2 -1
1162 1 19.709767095788195 1.5015413165210743 2.6526934210174313 1 0 -3
503 1 22.908183298392338 12.224820076851678 11.349773404241184 0 -5 1
418 1 26.95284752261602 12.7847407113294 9.60571568578483 -2 1 0
1382 1 20.59717024336021 2.320231552524733 0.7843326618141961 -3 2 0
1840 1 22.74267304572107 2.3009012634028574 2.340432338622567 0 4 1
1712 1 23.48682278587453 0.5645873000997885 0.8266396947781012 3 0 2
986 1 20.176967089881494 4.210295931346672 2.5792843435205697 2 1 1
31 1 22.9970808806682 5.2165587596323615 3.6952922447128707 -3 4 3
332 1 22.271922882003516 4.207855631282352 1.2473233599071691 -4 -1 1
577 1 24.23289370811596 0.4569810896300044 3.5965484604058284 -3 2 1
1026 1 21.22268175113684 -0.1179799558428769 1.3955291045605147 -4 1 4
1170 1 21.53969135419615 0.9960924042652672 3.737466033906874 -2 0 0
1495 1 28.49436613035165 0.34728562171693544 3.4771277766101156 2 3 0
1795 1 26.482746011352383 1.307915698388717 2.529443614336353 2 2 0
1551 1 28.153823964504724 1.8221209445557855 0.24125181452990085 0 -2 -5
1642 1 24.5157820344946 2.8922133202784526 4.137136643974468 -4 3 2
1030 1 24.736232216649505 2.8361569456694293 0.7432591045831973 -2 0 2
1048 1 0.49245664215561036 4.631771212570368 3.373489609976661 4 1 0
1555 1 21.4189552278241 -0.2652720699490917 6.8271844888237085 -1 -1 -2
281 1 1.6065413409375426 2.161281335333763 -0.2230858394193484 1 2 1
1304 1 2.9880588485858506 4.801809638077867 -0.011321427348818691 -1 -3 1
528 1 10.958766047746106 7.184775920646216 -0.3137633288047077 -4 3 1
738 1 4.012065514221119 9.528918088829512 0.4613993589107658 -3 -4 0
1376 1 1.9221169401547198 8.473160479165376 1.2991394214202157 -1 5 0
1590 1 -0.19580381375037698 6.789620233093054 3.791820958917403 5 0 0
958 1 2.0857818076742847 8.069480007664302 4.0128359349899085 -2 -5 -1
1933 1 1.9334260342926908 5.980369920117835 2.0740631649795485 0 -1 -3
731 1 9.365618711275504 0.6882237727443112 14.175090159132033 0 -1 -1
340 1 4.650234975893967 4.288035577883898 2.4461018509270307 -1 0 -2
53 1 5.3084563830517055 5.251089852152468 0.2690451488654997 6 1 1
1463 1 4.143849221776986 7.130810537418469 1.8021554509339377 3 0 -2
612 1 6.379041391678834 5.905022402284186 2.3800502677411792 3 3 -3
587 1 6.350545322825813 8.200634459678396 1.917619895191022 2 -3 -2
184 1 5.614572894796414 7.808273264218423 -0.2253167224457286 4 2 -3
1043 1 5.761892921249622 7.566782758577073 4.374564427405096 1 1 -1
1180 1 7.759203105931446 -0.1128456938086651 4.290773860781493 1 0 6
313 1 8.019396883229703 8.886478730441834 -0.04350932054443735 3 -2 -1
650 1 8.673256692358471 5.106835418989222 2.4012513022878585 -2 0 3
1439 1 9.450131802613338 7.294809153642152 1.623853052277393 2 0 0
440 1 11.890221930867263 7.148575262295656 1.8137882351415833 1 -2 -1
779 1 8.108572952855766 7.363370096992218 3.6039184750426054 -2 -2 5
916 1 11.021566190299973 8.674025615419797 3.991161621156996 3 0 3
977 1 13.03191466856849 8.417671733368747 0.26114825517708184 1 1 -2
1477 1 24.492883578492666 10.18518824937493 12.093639118186655 1 1 2
1392 1 16.473230237386183 7.4751716556109535 0.32704433263324717 3 3 3
696 1 13.000970327811466 5.2771798203273725 0.7518015123968693 1 0 3
1925 1 14.496906443872458 6.860044371680661 1.61165002569206 -2 -1 -1
143 1 14.154361024424222 8.230594442067892 3.621462777859519 1 -1 -2
339 1 16.532407903199086 8.212482274106003 3.192547261890966 0 2 -2
481 1 16.850166510817488 6.160461861283815 2.122893487238444 1 2 3
1071 1 17.496624293123872 9.226631885843803 0.9987575654007348 3 0 1
1451 1 15.020207188956487 9.049079143482901 1.4868875532495478 0 0 0
1075 1 15.365471651959972 6.160998683059185 4.202820263450951 0 1 -5
1090 1 8.40814821851129 -0.3260813956099748 11.958541866989622 -2 0 0
1449 1 17.291679398670084 4.172667535747618 3.480354269244559 -1 -2 2
563 1 18.821439660972615 7.128591370621048 1.1626157439564757 -3 -2 2
629 1 16.73571383992588 5.013966457336068 0.14029710822334152 -2 5 1
594 1 19.119547435187563 6.35307178122896 3.4456316424764935 4 1 2
87 1 20.40834561378665 5.434378255384488 0.6739972643375503 0 -2 5
1579 1 18.869600719825073 9.4030524355946 3.12301493556241 1 -4 3
1433 1 23.070693062941857 6.574063078220846 1.4442918942245535 1 -1 1
1333 1 21.137750449503635 6.697777337282589 2.581858579256055 2 -2 -1
383 1 21.12574551971229 6.190167221901129 4.854265836653321 1 0 3
325 1 24.151920708879516 8.78240384491555 3.172182928714451 -2 4 2
1215 1 25.07708209382443 6.72682290646642 4.15897460868464 -1 3 0
1252 1 22.83498061009525 8.850663069655138 0.9806052847129638 -1 -3 0
1009 1 23.118847523096214 8.271955407087955 12.27059089218066 -2 -1 2
1960 1 27.135594284379096 3.785067009896186 1.232328695947395 -5 2 3
1187 1 25.20125127326517 4.832023532259778 2.8016651467053193 1 3 -2
984 1 25.687694431761265 7.033415436306837 1.9921157045615252 -1 -1 0
1860 1 28.01930545913519 8.144913315026262 2.0030483609209884 -3 1 2
347 1 26.592978183954713 8.995682039609418 4.068987189432567 -1 -3 3
464 1 -0.42459846284000596 6.0909930111537305 1.319316101122109 4 -2 0
291 1 25.898730684761645 9.295577397331217 1.2748957875799178 -1 0 -1
698 1 27.493748668540213 5.2627471729302995 3.3343950558044297 1 0 1
234 1 2.155754564554054 12.725249699171803 4.436581663559965 -3 3 2
665 1 2.330654896974208 11.200964185129834 0.5813038466854235 0 -3 -1
1422 1 1.4708139003223528 12.854992474232255 1.68069123743382 1 -1 4
443 1 1.8457696711089029 10.551946605873544 3.034889512922671 3 4 1
645 1 0.26594502716419044 10.25359079235968 1.3828843229129149 6 0 3
980 1 -0.03660994042364851 12.085774066169709 3.7112975517208238 0 0 1
147 1 27.979230027198113 11.609169924280149 13.148273181596846 -2 4 0
1349 1 3.0570087748424553 13.44873757927594 -0.15389018815111288 2 -1 -2
1227 1 26.71210222074567 9.553182254375175 12.555437360004635 2 1 0
298 1 3.5895452579257174 12.30827524513635 2.6917891192473706 1 -1 -1
1093 1 4.189192536292806 9.196094805359674 3.060750643627239 -1 -1 1
1506 1 6.196934177555266 12.971468146949068 2.111768737385906 0 -1 3
786 1 6.929363445879501 9.559808278354124 3.8842654666213905 -2 -2 5
1266 1 4.896718991062871 11.730797770252254 0.5496056813246072 -1 1 3
1901 1 5.350316287752522 11.251523502541945 3.662143043666113 -3 -2 2
1485 1 6.842549563678484 10.41404660260607 1.5986344904265177 3 3 2
680 1 0.5038576127352938 0.19287195822432168 1.5614676272122403 3 1 -3
866 1 7.293558860688991 12.450458567679519 0.21885270287976988 1 -1 2
1306 1 17.47789666533175 14.14456729081279 5.855767746475471 -1 0 0
1370 1 8.89906522082964 9.275463104836716 2.2750348010210115 1 0 1
1041 1 8.911109178007079 11.217916604882703 0.5101445533314536 -5 0 2
120 1 8.251392405528275 11.674795164753606 3.2083940799806543 4 -2 3
1380 1 11.139774738330477 11.659148053149595 1.5064435475582116 5 2 0
1488 1 10.680521720338442 13.311084077700043 3.2978704168950443 -3 4 -1
387 1 10.67286054277261 9.362573180303462 0.5215861013064064 5 -1 -3
661 1 9.13948101374639 13.552164376848214 1.4901899904079485 -2 2 -2
739 1 8.44924739871274 12.039623308094123 13.796831470219132 5 2 4
1994 1 12.69946364091019 11.659993887721573 3.968688565457187 2 0 -1
782 1 12.760261589135771 13.09115343875229 2.2777861203685514 4 2 0
1511 1 12.694188544540983 9.613980704236313 2.490744277485308 -4 1 -2
357 1 12.942962043032338 10.884876550527178 0.2946519046468914 -1 2 3
1723 1 15.63674439088168 11.341664029774186 0.2592850142503236 0 2 1
488 1 14.535964623709852 11.306614569686786 2.349228617437271 1 0 1
1973 1 0.1102283489788406 7.82146510453159 -0.14954777836281574 0 2 2
309 1 20.796255627011874 12.858522576238133 12.55531453125315 1 -3 -1
1946 1 15.056396796599387 13.256214594147169 3.68810312178422 0 1 2
1939 1 21.248307529649765 9.256515058702472 2.973743192958527 2 4 -1
1149 1 16.285196483319822 13.221146995786675 1.705111633191248 0 0 -2
1103 1 19.217097880281983 14.061068667070039 1.5606581023323924 1 0 -1
1324 1 16.921233108436006 10.912154867776914 2.8260575955660423 -1 -1 0
1371 1 19.79581166877071 9.479981615339796 1.0607233752401557 2 1 -2
614 1 17.92560262360439 11.486893306740512 0.87898702356128 -2 0 2
940 1 18.099487064266995 13.107797222027191 3.3980634583044553 1 2 0
1645 1 20.07671663055232 11.62002801378001 2.0204389504742255 1 4 1
46 1 24.009271218332145 11.172268485709003 0.21443997037646167 1 -3 2
1142 1 24.54913482628357 13.192813319395798 1.4572396133322183 -1 -1 -4
63 1 27.131079410045373 10.075250171172822 9.899231170958055 0 -1 -1
1649 1 21.814747568312256 13.217219498134199 1.1389013714817124 1 -3 0
1518 1 22.81396041070954 11.129685046295286 2.3776711042326513 -1 1 -2
8 1 23.068655382187906 10.269493084312673 4.6239224992988515 -3 -1 -1
48 1 25.020981207447655 11.142487139703295 2.7244056881268643 -2 0 -5
1961 1 21.421119018251076 11.70128126596225 4.531091742113236 1 -2 3
648 1 25.37383560615301 10.873019010392762 5.109584867323714 0 0 1
524 1 27.685062894977307 10.539978406835132 2.4270968241770636 0 -3 2
1073 1 27.055980822622054 12.902415403723218 3.085350795242267 -1 1 2
1188 1 28.61303739409992 13.344493333025556 1.486677360612906 0 2 1
23 1 26.4869940415766 11.90448767819964 0.5919436062284049 -6 -2 0
1230 1 -0.08795160282892583 9.325531784753435 4.02106301651887 -2 3 0
1879 1 25.432906624376095 -0.3666630373420864 9.776500832625914 4 1 -1
117 1 6.294612249710112 13.614810844663518 12.78480720676475 -4 -1 -1
1158 1 -0.17457881683151533 1.1136767752236116 8.321717524915044 -2 0 -2
472 1 1.8352190172955343 3.224619762943285 6.493547969902184 -1 0 1
64 1 2.798412855923173 3.995164312496499 4.0523185688357435 3 -1 -2
760 1 1.9094305725736076 1.1522357905275427 7.8400520461027945 1 3 2
221 1 0.017106195628806053 3.650626650112735 7.831059469626291 0 -1 2
16 1 28.374348225172653 3.8361447344710964 9.99011933505828 -3 0 -1
686 1 2.883260379627779 1.5485645767497478 5.38142368792153 3 1 1
1618 1 1.210199184795747 0.04040497026875034 10.091444936444212 1 4 -2
1908 1 1.7095126899045634 2.700971330064118 9.750501222600565 3 4 -1
899 1 5.368676066555214 0.5480245056124703 4.486019833704342 1 0 4
1419 1 7.273333086314295 1.8661496372214206 5.413537861163379 4 2 -1
1800 1 4.29386065847365 0.37828786784847 7.220016521024787 -1 1 0
997 1 4.959832635887398 2.906930172110012 5.228448129101261 0 -2 2
1486 1 4.024702646682002 3.025164841053124 8.006818136182176 -1 1 -3
743 1 6.313965281759942 1.1303739273776054 8.582130501585215 2 1 -1
72 1 3.9974242310599566 0.9612714588954183 9.561253630289 1 2 -2
1117 1 6.079843349298506 3.295817861326252 7.053681539775088 4 4 -1
1244 1 6.028308916271217 3.340029840314124 9.415832514675476 0 2 -4
1452 1 6.462011044878915 -0.2366961930893219 6.6853897563242235 1 0 -2
789 1 12.885873571636228 0.4822218255074685 3.898544923378388 1 0 -2
1810 1 11.92129759130483 0.386142616430589 6.1230290880699805 3 1 3
1409 1 10.393058453276184 3.7861642637784625 3.925485197494525 -1 1 1
351 1 8.270968310607836 2.660195433032834 7.956491922674127 2 -2 0
494 1 10.551929261488205 2.773558142417267 7.259901360234056 -1 -1 -1
497 1 10.88195977975794 0.5913367176055166 8.27471473402154 4 2 2
1264 1 9.10834043341552 0.2349874467471066 6.788455538310962 1 2 2
1025 1 8.371770875585565 3.799093909760935 5.773041891506671 0 3 0
131 1 8.398645539888397 0.09879100097815496 9.067947116972107 -1 1 0
1696 1 15.10470417594765 -0.3726160129863999 4.290191862426078 2 0 1
1219 1 12.91835256121724 2.2155285326691625 7.526829442678988 1 -2 1
327 1 12.13477666262119 2.647309549002674 5.328640741911586 -4 4 -1
1151 1 24.756397653156114 13.626639327467931 9.930463603632692 -1 1 -4
1327 1 14.83238143582502 3.542900228981375 8.135498898937103 -2 -2 -1
824 1 14.345733383996366 1.122127314871909 9.337332673372883 2 3 0
315 1 14.751198298260224 1.979549366966594 5.493125446834612 -2 0 2
792 1 16.85652840319525 3.3856429698758 5.554145454308131 1 -3 -1
178 1 18.960647741738477 2.4378219154563814 4.769624471960519 -2 -5 -4
276 1 18.772195635447382 2.5553467057491375 7.177369671308832 2 -2 1
1678 1 17.261667666919045 0.9765516897791318 5.58986503478689 -1 0 -2
1406 1 18.952838868299715 0.33424925830485397 7.2246311299427095 4 0 1
359 1 16.40077861128458 1.614297166049047 7.5877327693168635 0 2 1
1895 1 13.64156824516384 2.295302271436071 0.100368189251686 2 6 -4
1464 1 20.73976457040868 2.4170662680949357 9.013809062265548 -1 2 0
345 1 20.770911083044837 2.016404287618972 6.523503334489078 -2 0 2
446 1 27.279965075602917 13.93012712371296 11.686978465172043 1 -2 5
322 1 21.09799086759994 4.536720879995251 6.448754073161481 5 1 -1
30 1 21.30745361425071 -0.380053891174811 9.17244179376815 1 1 0
802 1 22.987461129182122 1.175136597860589 5.739960796703844 -1 -5 0
1842 1 22.775603222504394 2.533070829031251 7.7907479336681895 -2 2 2
561 1 21.794379828717936 3.258978420861228 4.329293959115409 0 1 1
259 1 24.733548770100988 4.461073368744632 7.7225234491707475 2 2 -1
287 1 24.75576488409856 1.7018077713222444 8.533928647895861 -1 -2 3
1300 1 27.004781443983525 3.00199486349562 4.052136877901351 -1 0 -1
1393 1 26.206307381910094 0.7842003180881074 4.842343030580002 -3 0 0
271 1 25.2211370887995 2.1842252873190304 6.440671291117072 1 -1 -3
2026 1 26.521384739419403 0.3387112862673437 7.331907963485383 -3 0 1
1190 1 27.888192951436714 2.2049587135648645 6.274184957141628 -2 1 0
236 1 27.031858255196013 1.7545900607730744 9.524620090813663 3 0 3
240 1 3.6343891902751837 4.656565792821537 6.277446870497342 -2 -1 2
1691 1 1.763132170097419 5.932010482928607 5.692334588764596 1 3 2
991 1 0.7259981049345452 7.9959989882898235 6.041544385592696 2 -1 2
166 1 3.3927109060410574 7.168271043461499 8.077524088853046 1 -1 1
167 1 3.6240550320146427 7.715825097947942 5.513703311702694 0 0 0
1682 1 1.211512969562667 7.085241687177748 8.105100377551215 -3 0 -1
1310 1 2.171123763993268 4.8180654170013835 8.612152810356 -2 1 1
1585 1 4.158629725194055 6.054528428216391 4.109622508818051 2 0 0
2042 1 4.908428096491684 5.418638822466472 8.98864934808814 2 3 0
246 1 6.903761492718438 5.636221429115662 5.277571396734338 1 1 -2
289 1 7.09903168733231 7.475255839137259 8.604151604431298 -1 -2 0
544 1 5.243872460221387 6.5754315698592265 6.863381409701719 1 0 1
1040 1 7.318927445464678 7.874275795068385 6.075628519373713 0 2 -2
1729 1 6.9074103915924905 5.279012310186657 7.668748101556272 1 0 -3
132 1 9.482186830267455 4.666753000574849 7.875700944153255 3 -3 -1
1907 1 9.13524560110323 6.3414822040858665 5.665477293513324 -1 -1 1
1702 1 10.674052170194479 6.220963583915594 3.8108129692924955 0 0 2
607 1 12.062793618550929 6.458504988584195 7.9281715313298005 1 0 -2
239 1 10.819492562194274 8.037585873833017 6.375370566235242 1 3 -3
1243 1 14.991788101232354 7.752963029574129 5.7732130844331015 1 0 -1
909 1 11.158241604257476 4.985172823455001 5.866918889217264 -4 -1 4
1309 1 12.553652181025056 6.932014058189007 4.9517616909073485 -3 -2 4
829 1 14.53545712396631 6.8475621842998695 7.946274890221131 -1 -1 -2
1578 1 13.471962028685288 5.027708799665973 6.193441267219902 3 -2 1
362 1 12.727367381555945 8.832147435538278 7.591329156941338 -1 0 -2
385 1 16.91932696089755 7.838114361847541 7.516253801560529 0 2 2
55 1 11.778786149042137 4.288277769451546 8.78576364354862 -2 -1 -1
1988 1 19.446053806596048 8.055922839137859 4.972325486259215 0 -1 1
94 1 16.35837410230998 6.055481317470489 9.309207548027706 2 2 -4
1456 1 15.88043069091112 5.246994621911425 6.346243889144421 2 4 -1
47 1 19.163710574270496 4.829278981827507 5.272834685235179 -1 0 -4
1743 1 17.43265134452949 4.080737545395645 8.020509936357094 -2 -2 -1
1979 1 19.90961034025286 4.400511060268835 8.34269635931524 -3 -3 -1
1563 1 20.62885463060092 7.37452480045372 6.938831630971834 5 0 -1
1317 1 18.60387908296368 6.302111321544209 6.995179931071864 1 5 2
1605 1 17.317046806667044 7.064254038671775 5.274283122425047 -1 0 2
1377 1 20.664205618190607 6.493545321052665 9.40768285278897 3 1 -1
1789 1 22.21825695726909 5.146368825198756 8.370381380544044 -1 4 0
1766 1 23.3977123032531 6.067062586125706 6.358399756580869 2 1 1
1565 1 25.6947061660194 6.722982998809181 7.333929945952296 -1 1 1
374 1 22.46063592001684 7.989624443684985 5.202566413551826 -1 1 -2
485 1 23.331659176899933 3.7643752511089366 5.921909777346221 0 -6 0
296 1 24.640512178166098 6.4678463780482645 9.173305930856777 -1 1 1
1379 1 22.908911729168217 8.226235370351207 7.451902118795262 -1 -1 -3
1086 1 26.892246727703863 3.399248923677384 7.705882430317688 2 -1 -2
519 1 28.526713143404905 6.1398686137214336 7.48834336211311 1 -2 2
1817 1 28.385101658617657 4.625223911253946 5.509798614707246 -1 2 3
1280 1 27.237700708726308 7.657355003634436 8.873063649815148 0 -1 -4
105 1 27.40105580029612 6.596208877209883 5.575031498409219 -4 -1 2
1638 1 25.87865500564731 4.577997344748726 5.234266620390083 -1 -1 -3
1257 1 0.5704306104290247 8.44125192078987 9.923983441771743 2 2 -1
1318 1 25.143318832536927 8.64027882909434 7.8533580861029275 3 -1 -1
1205 1 27.168414389838887 8.917613936058574 6.316167675525524 -1 2 2
1128 1 26.828186561102527 5.471271707059496 9.440232594756576 0 3 -2
1562 1 20.81158853630498 13.74804985252649 3.350308495268862 -2 -2 -1
1402 1 3.158300691995568 10.335022440467327 5.215877669919473 0 -1 -3
1312 1 4.364254561557342 13.576718820667267 4.891678802275392 -1 -1 2
2 1 4.753337373987593 10.977725140326298 9.069436371399838 2 -1 0
1967 1 -0.3919755412124386 9.28755058525977 7.599668996627175 2 4 0
130 1 0.7692726458244536 13.270991384791175 9.126733477719004 3 2 1
1948 1 2.5498105307107317 11.878383080771965 6.866696677170664 3 4 4
380 1 0.7838377490054709 10.413524874796536 5.9825151348671195 3 1 -3
671 1 3.315675908310072 9.523927139405352 7.570482490419067 5 1 -1
223 1 1.3916905528702428 10.593631752254034 9.316210097721417 1 -3 -1
1470 1 5.126542326289807 13.698476008921249 7.88260545186963 0 -2 -2
914 1 5.454337171823762 11.800057785695545 6.150335909408484 3 -2 1
885 1 5.21462725066546 9.384700706307715 5.834990082468039 -2 3 0
1176 1 5.575152444555345 9.143629725388909 8.163126198911527 -4 1 1
951 1 7.5760656570200275 10.836468455543043 5.968158953936265 0 -1 1
751 1 3.512263561752342 13.00120882093796 9.162848327919713 2 1 1
1911 1 7.619577534815781 12.997377376637303 6.996248362405078 -1 -1 1
1346 1 6.97736225829701 12.864166739205631 4.667188953663497 2 2 1
869 1 10.377121683988383 11.017133421140649 3.39558764933261 -2 -1 1
1492 1 8.807257265591756 9.369688296760149 7.655032960744755 1 -1 -7
894 1 11.460007211028142 13.273557222288987 9.17370012454346 -1 -4 -3
1985 1 10.767928738428843 9.086125758757444 8.964284771263005 1 1 3
1569 1 9.129195860264716 9.297701265506015 5.008022241310294 5 1 -2
420 1 11.275910180866605 10.79740998408958 6.778718724714846 3 2 0
907 1 12.081595282173051 12.816422960198208 6.8094729171806385 0 1 -2
1536 1 9.841406444453444 12.386837139500917 5.383075323645214 -3 -1 0
1629 1 12.800486608073381 9.48398530205304 5.237802688689741 1 0 0
209 1 14.056875864095527 11.643312545257142 6.212276464882684 0 -1 -1
26 1 12.888098035863731 11.404905410524632 8.380087983713404 3 3 -1
845 1 15.645577653111184 10.014540905623887 7.250749295358189 -1 2 1
479 1 14.912713115787747 10.26404896849751 4.621407674156561 1 1 -2
1932 1 14.156890925008547 13.519655307905511 8.325613330880355 1 0 4
905 1 21.193205661154614 11.700679073304533 7.380725412316412 0 2 -1
1223 1 16.555946682120364 12.608213918118116 7.661592953272214 -1 3 1
1201 1 17.268474670847112 9.6126520657206 5.418319128822215 0 1 2
981 1 17.28936066116929 10.248221702536222 8.545330611315876 -1 0 1
335 1 16.871672222747776 11.807880901262594 5.393183526233153 1 0 1
438 1 19.173023514655206 11.271282714834584 4.530764309209352 0 1 2
822 1 21.074509530129006 9.632388821354184 5.96426552669584 0 2 -3
1173 1 18.629852217758376 11.693737948148268 7.037490261114942 2 -4 -2
805 1 18.962361854573103 9.128692976647196 6.988590831771531 -6 3 0
379 1 19.83068717737943 13.300377742901532 5.606364026578204 3 0 1
1454 1 19.184787086922526 12.094143849512266 9.222009585072628 -4 0 1
570 1 23.763281720342768 13.26189912413519 3.5759285097193843 -3 -2 -1
1353 1 20.711392360778945 9.204020612982786 8.468525059143527 0 1 2
1764 1 24.875772703285 8.651899111578116 5.737326564167717 1 -3 3
1281 1 23.469915202321737 12.53301634271382 5.622050229391926 0 -3 -2
12 1 24.769359866964244 13.171825122579916 7.582082818483908 -1 0 1
235 1 23.669291146135066 10.738623249722936 7.132184750680754 1 -2 2
280 1 26.356516632570596 13.114371304463107 5.384481706854856 -2 3 0
1210 1 -0.34828723321357535 6.539853644500121 14.001053880443044 5 0 1
1375 1 0.3014950358177363 13.03228022645155 6.781129635914853 -2 3 3
2004 1 27.762502492050935 10.957189166978997 4.927378433883257 2 0 5
90 1 26.661102222532087 10.778929563442063 7.543610673374364 2 -1 -3
1133 1 28.679815587050534 11.418789145696298 8.568558327468303 -1 2 -1
1203 1 27.390655097571 13.441033199869713 7.489738738448306 1 -1 2
910 1 0.875363719133412 0.145077402013986 12.566703825263001 -1 1 -2
1448 1 2.049099313735527 2.4881434009001864 12.289035627418725 0 -2 0
591 1 0.46995972807302344 4.22107987564949 13.646306978270562 0 0 -4
1513 1 24.65954727979083 14.033976448227683 12.403498142572145 1 0 4
1557 1 -0.21654308682211937 1.8830727787074633 10.97037590755567 -2 -4 2
1917 1 3.534537817869762 0.4855123590261248 11.653230725142528 3 0 -1
1841 1 28.559911596266616 1.925200607249879 13.17290884334664 0 0 2
162 1 3.8630352134735437 4.003225276263956 12.74866462442245 -3 0 0
799 1 10.59308760470715 8.814351500457791 13.898056474884777 2 3 2
1029 1 25.403754723216643 5.115754748938178 0.16787922425218016 0 0 -1
1531 1 5.531889691757711 2.915396147061471 13.854085249710627 2 2 -6
827 1 7.487150717516263 1.7783481808866748 12.817353681983205 0 0 3
572 1 5.515984717657771 2.173747482089034 11.494285502881024 -2 1 0
1873 1 6.977075592191617 3.9780835733002737 12.186465136297086 -1 -1 0
249 1 3.7221226128368157 3.555533088352184 10.342301157813163 3 3 2
1854 1 -0.38189530275178746 0.1942287936124948 5.784476730712365 -1 1 -1
1683 1 2.676345489396505 -0.10155315477227334 -0.3938220521550174 0 -1 -1
791 1 10.174185784786516 2.858190003006886 9.602862443849634 2 0 1
1126 1 26.334993988792903 13.12273076431881 14.003344885382866 -1 -3 -5
2027 1 7.9276119268501155 2.115875849101153 10.433860665862527 1 -1 0
823 1 11.567524463945974 3.6381815664330253 11.352686470654909 -1 0 -2
1834 1 10.02525798043938 1.4755061697886545 11.893674258281056 1 1 2
1381 1 9.418461995942527 3.549464305828878 12.27525407146812 1 -1 1
1539 1 11.292067879793276 2.0058911484897903 13.93808486912149 -1 3 1
517 1 10.821220594987716 12.752728976711639 13.667370289251512 -1 1 3
431 1 11.936106286537562 1.2390768419864624 10.34214715611791 0 3 -1
320 1 13.711276568437716 2.531012020011673 12.782216084385578 2 -2 2
1148 1 13.477845261946454 3.186439917907651 10.138193275088614 -3 2 -1
559 1 15.117466578987203 1.497370800378372 11.379177666279752 -1 0 1
173 1 16.113511087272435 2.260776892705727 13.398063139268052 1 1 -3
1868 1 16.329427157439426 3.5570447873166273 9.990435941704098 -1 3 -3
724 1 16.592526553814324 0.42321195511680565 9.627039870483985 3 2 2
1100 1 17.181952641599807 0.33893494051279205 13.275719221517608 -2 3 -2
1734 1 17.551117130585602 3.7644943395663306 11.982807202412678 2 -1 4
1580 1 18.800446904064017 0.19146391479523428 9.618356655653276 0 -1 2
1523 1 17.939048912681507 1.381298944482928 11.631226765375114 0 2 2
1267 1 18.418217322202914 2.82804741206873 9.529415092224063 -1 1 0
1006 1 18.05626834504296 14.031732140242909 9.918916846998474 -3 -4 -2
208 1 19.38596528660468 0.43773147791935474 13.556036991791071 1 -3 4
806 1 19.81866678067687 2.7941598600717166 12.324288567645256 -2 -1 3
1323 1 21.702624169909484 -0.2921997534726798 13.404966727695019 -5 3 -1
549 1 23.209757071621 3.3646785441726172 9.93660997091615 0 -1 1
1237 1 20.533557732416796 0.5262562631041154 11.107837603095758 0 0 1
1472 1 22.177634860650606 2.170465893627084 12.034987065361292 0 -3 -1
1612 1 23.130924242133204 0.8014930078256044 10.27369443142643 2 0 2
1572 1 25.32575072376462 3.796598927925226 9.90431087648942 3 4 1
484 1 23.951527764392004 0.5059041919866465 12.737226739500372 5 0 -3
399 1 6.342743149175614 -0.09122366696244055 11.003048349346457 -2 1 1
416 1 25.07153705424971 1.7095281944733016 11.330855252832682 2 -3 3
514 1 26.78776571127102 2.989453045302665 11.672149626945544 2 -2 3
1081 1 24.089414288307275 3.45289263214383 12.605932579570526 0 0 0
241 1 26.8592974847869 -0.009095434858213292 11.887925792760583 0 4 0
1254 1 25.861943401469688 12.159017158348135 11.725893611803523 -4 1 2
558 1 25.88172668381244 1.8431857151571527 13.80335933227589 0 6 -2
141 1 23.799027701804853 12.041717401756841 13.534571173807041 -4 -2 -1
2012 1 2.510876094415376 6.207371606910494 10.304815302345748 -2 1 0
1277 1 19.760249964118877 0.2394380285139983 5.026564649186233 2 1 0
844 1 1.1187813694944184 4.652086027533618 11.285525976648541 0 0 1
1748 1 2.8630711006197216 8.560376487224705 9.858455211619916 -2 -2 1
1350 1 2.355653139968939 6.009983800269305 13.37064410299227 0 -2 1
774 1 1.1067155448456691 7.528007328639419 12.155521550803169 1 0 -3
1824 1 3.743517760795239 7.740999500931398 11.912342062357704 1 0 0
1311 1 9.288639676748387 13.875104156152057 12.000953489295602 1 1 1
627 1 20.900214015908425 8.874336972942313 11.002418689007257 -2 -5 0
736 1 4.619671970883946 6.4831891968495965 13.55602067835987 3 -1 2
1038 1 4.978487572238211 7.668066486498029 9.936745098832672 3 -3 -1
1473 1 4.495712465550934 9.078049460002461 13.453119595511822 -3 2 0
1418 1 4.9833247465986705 5.457598817286549 11.351392667809662 -3 0 1
1272 1 19.332657833742253 13.742854798350887 7.7675837661273945 -1 2 3
1462 1 6.921697076162056 5.558994268056443 10.057698495957634 -2 1 1
458 1 6.448640710466406 8.024682304307028 11.752882963615994 1 0 0
1951 1 9.362059389727031 6.869884309486827 7.91644163298311 2 2 0
617 1 9.280211098440518 10.807276268511458 10.114487174389287 -1 1 -2
237 1 21.11505007735304 11.061792143074863 10.477739516253004 2 -3 -1
157 1 7.644017808512501 6.0814571832956 12.346603544412536 1 2 -2
476 1 15.78701949013904 13.70984692454842 9.805098974826667 -1 0 0
1224 1 10.34144680901848 6.596666227575291 9.909254451876585 0 2 3
770 1 9.009417554582361 4.579191929251876 10.175480271025096 3 -1 1
1653 1 8.442593019812703 8.295898812054233 10.225323551547802 2 2 2
1209 1 13.051803915606163 13.865357354837572 4.667955631125533 5 2 -1
1268 1 10.146413500603224 5.8836014354373924 12.17301240408058 -2 2 -5
1989 1 12.698364520427802 7.539354196835536 9.845409187015123 2 1 -1
1116 1 13.812258745683001 5.496493011825543 9.621109728804438 4 -2 -1
165 1 12.986582571000076 4.728054000592061 13.407038986687818 -6 1 1
640 1 15.36897763032596 5.956309114207282 13.321980524151844 2 -1 0
183 1 15.04111510727293 4.114851226867898 11.727775980291044 1 2 2
154 1 12.27587780709517 5.733019029168466 11.24097515579335 1 -3 1