LAMMPS data file via write_data, version 29 Oct 2020, timestep = 300000

2048 atoms
1 atom types

-0.5905128322321929 28.942512832224438 xlo xhi
-0.5905128322321929 28.942512832224438 ylo yhi
-0.5905128322321929 28.942512832224438 zlo zhi

Masses

1 58.933

Atoms # atomic

186 1 3.0577982892677635 1.181260870871219 3.772622490864592 5 2 -1
686 1 2.420028902781262 2.8930723126603493 1.6180008286996856 2 0 1
506 1 1.4199574280794423 3.79960902124085 3.8466966656015362 4 1 -1
1284 1 0.9681269341883489 0.606202753639348 1.7030201387178607 0 0 2
390 1 0.5637318502091986 0.9577890239767357 4.042592134540004 3 0 4
1883 1 3.2493010981527606 14.034745166818688 6.247231914860731 0 1 -1
1805 1 8.216200437640847 9.320355979548767 0.6815937485106618 3 0 4
297 1 15.395155406603362 13.217082066849457 9.72979115980305 2 1 3
796 1 3.3725296376256124 1.613251156692567 0.05652790325619461 4 -1 0
1233 1 5.737405948654507 2.5620628642422694 -0.4652414167079676 2 3 1
1038 1 21.738515664522712 11.044475069103868 13.842281866641516 2 -4 -2
1802 1 4.611428913734977 1.7208498940258043 2.0015887488932864 -2 0 1
943 1 6.7328382211845295 0.1744712048003253 1.5848810120275991 -3 -2 -1
814 1 13.184014678593158 0.4315722189265414 8.745324355150153 -2 -4 2
1978 1 28.252555939330936 13.475047391833732 1.2969313757745011 -1 0 -2
1792 1 5.837838260830218 3.8395428307348007 2.599301212882095 5 1 2
989 1 7.118087359224699 1.9388134271578576 3.4271334484072016 0 -1 -2
600 1 8.901146386012734 0.14850743980001335 12.76736865345183 1 0 2
774 1 9.617454891834196 4.2472313450140975 -0.034142580606947415 1 0 -2
853 1 7.96359375600683 3.5759313724864628 1.5731477782550183 1 -4 2
471 1 9.512293233597354 2.57331347974381 3.110924430626348 3 3 1
1343 1 9.302887033956212 5.9031614929011065 1.2225372550091307 -4 -2 -2
1091 1 9.635227471451948 1.5705612507499778 0.7472662787927551 3 2 -2
1030 1 11.384228602242663 3.696884489251265 1.8071863792774359 -1 0 3
84 1 8.990024102650988 0.2887739361671635 3.07721371807524 -5 -2 1
1948 1 9.491477924582163 5.518750216928577 3.587464746319675 1 3 3
175 1 13.652422150266881 3.329854752106795 2.6676422249075915 0 1 1
1475 1 11.451843336005805 1.6279101665635358 3.1732673202672963 -2 1 2
1147 1 15.17916051541398 3.775020694637494 0.8710512847726648 -2 0 2
427 1 14.165296521377902 1.1879658149010042 1.9568117602210138 -3 -2 2
1172 1 17.07011380432707 0.502373934488282 2.173794558972724 1 -1 -2
49 1 17.970832473519643 2.437039745613899 1.0698727313473175 -2 4 0
1973 1 16.353743916584317 0.49293559546862586 4.256988369535638 0 2 2
592 1 10.781383932321974 0.47114508477032313 4.9931618775536615 -1 2 1
1672 1 10.960703568552379 14.085675045621722 0.43440651997171864 1 2 0
937 1 18.11123614422545 -0.26532221400935424 -0.004285399338691875 2 3 -1
941 1 18.053818528632398 5.4424453327406805 2.2132532640837335 2 -1 3
1571 1 16.214627769606167 2.6730232157727714 2.7080157731451537 2 1 -2
1857 1 20.142040073912913 2.8222642420954385 0.5860700866908648 -4 0 3
155 1 20.42623385638815 3.9462382255024595 2.6259320025853654 -2 3 -1
1439 1 18.82205741009907 2.08838154392949 3.3296205415749793 1 0 0
1404 1 17.613875363402283 4.071068595029375 -0.30480277264641004 1 0 0
690 1 19.53471044953514 -0.5836282711447005 12.863803295517808 0 2 1
990 1 22.078979622297876 4.795453827063223 4.207989132995034 0 -2 1
1138 1 1.4599708723988076 2.597468449014855 -0.5030967835792711 0 -1 -1
388 1 20.44755888020087 0.18669073223232013 -0.068703228310112 0 -6 -1
1191 1 21.92276359540107 1.282755597200419 1.3839601355962439 -5 2 2
698 1 22.434761246660067 3.250066830008296 0.5522473305682709 1 0 2
87 1 5.154787756708875 -0.07633937662194579 3.48096688477752 0 -2 4
1937 1 24.744909659185996 1.486224510043285 0.6023174412176855 -1 1 2
910 1 1.9053993178935067 4.840670614249086 0.0023846541837773128 -1 0 -1
930 1 14.315318666059456 1.434526136619 -0.36815153210472495 -2 1 1
457 1 28.531838620660604 3.122275820312472 4.165584394473592 1 2 1
1949 1 27.923271322383535 1.4447963400501718 3.0511823948602568 -1 0 1
1499 1 24.104935711334672 0.2762997054865052 2.3973253447560654 0 0 4
673 1 0.15834472274767342 2.765038602287371 1.9533592085922291 2 2 1
1660 1 27.13885990444163 2.008148252006161 0.7447389085393119 2 3 0
1064 1 25.492164453895207 2.8164852360272037 3.0943992046508164 2 1 -1
1407 1 27.527129122093115 -0.037282726714961245 -0.3137213996243666 1 -2 -2
1427 1 0.3827925068157755 5.196622893624673 1.9972897051897571 1 1 3
841 1 1.4474026160330147 7.33058733463986 1.4264380932485494 -1 -1 0
1856 1 2.9578956804815997 5.910411456894944 2.6087324374022036 2 -4 5
1292 1 28.289639225300142 6.328657520645669 1.076530288060413 -3 -1 2
1252 1 3.0291157535272983 7.645111639678179 -0.44192667976215355 0 -2 -1
1505 1 3.425553504819116 8.755887083548055 2.0690423641594666 -3 1 0
176 1 1.541150668639065 6.2237904171719505 4.23162494792096 1 3 1
737 1 10.334039115709453 1.1597876371511657 7.244222345137735 -3 1 -1
243 1 17.152036302385735 13.140683254155617 0.5104753672550326 -2 -1 -2
1634 1 4.302141771667841 4.253614105311155 0.7901107130282066 1 3 1
1334 1 4.502448359048005 6.330074708394128 1.0318780330652537 2 1 1
809 1 6.9152632184083105 6.151702042326326 1.498839622891091 0 -2 2
2008 1 4.894359277699513 5.6740037091635065 3.496962638569931 0 1 3
1176 1 6.563881429771235 7.758180092522789 3.3283682590277097 -4 1 1
1989 1 5.889687917106918 8.642901583367594 1.1024652775156012 1 1 1
583 1 20.812128667066652 13.572440819303475 5.649383139793171 -3 -3 1
353 1 11.725123325172877 6.20666892657012 -0.170732811687056 -2 3 0
1287 1 10.941299564008208 8.023059567113826 1.1945543455541867 0 -3 2
490 1 7.300262443252456 7.169877948252854 -0.5020796598350473 -2 -1 4
1800 1 11.324508869943694 6.050281523257545 2.5645062256437496 -1 -1 0
260 1 11.546848087276087 8.401311960709275 3.3077583177391396 -4 -1 0
153 1 11.683364203828077 4.24730501241079 4.1494434809707865 0 2 4
844 1 9.971724869515715 7.38347194316811 4.854328376454029 1 -1 1
548 1 8.87495248346495 7.870257592487386 2.477287332554055 0 2 -1
1686 1 13.613251397213212 5.322795614651553 1.4022522446670853 1 3 1
177 1 15.393968195867451 6.401953692077481 0.7681933337634954 -2 1 3
1787 1 11.211708657955322 0.22124231978485165 13.361232503148855 -4 3 -3
314 1 13.276922091173995 7.763809247667815 1.4799646515449885 -1 0 4
1829 1 15.285146791035435 8.924843390986704 0.7242363516988068 0 3 -1
1774 1 12.6408759967266 9.91628501966205 1.76703603767041 -3 3 -1
1476 1 13.855216676757156 6.873196850618378 3.4457396223526295 4 1 1
873 1 3.5315639131121257 7.339996612643155 12.508992076555266 0 -1 0
979 1 13.844448151751987 4.837496638194275 5.0537168844088365 4 2 0
1466 1 12.037582563324397 9.072646395698037 6.219392377480327 -1 2 -2
1074 1 18.692256823127092 4.434918417584101 4.216008232163108 -2 1 3
1570 1 17.52933481765883 6.386752211779011 -0.16122442108207635 -2 2 0
105 1 16.16028821726161 7.76720642768813 3.358787088920184 -3 0 1
401 1 20.695573367775715 5.2675129105562295 0.5313124885326481 -1 -2 -1
1630 1 19.58377198419826 7.552153692506499 1.2208342186376726 1 -6 1
1923 1 17.48335298035927 8.308202719897965 1.60960787485315 -1 0 1
1180 1 20.29897728327807 6.503635272499524 3.4624254518902475 0 0 5
443 1 12.689695669443726 3.480013442887704 0.0015687067224390283 2 3 2
1186 1 21.697536090330765 7.1123571569473345 0.1630942530386117 -1 3 0
1873 1 23.568116260937586 8.521709101978963 0.9666610542899812 -2 -1 2
248 1 22.614705603669723 5.41085776942125 1.9581822556536435 1 3 -2
545 1 22.04540960457426 7.738711725908598 2.6411440920314777 -2 1 0
1406 1 22.728112361476605 2.6815228111835183 3.0834016745732646 3 -1 1
474 1 24.548390865140302 8.150091881959499 3.1580456507431856 -1 -2 3
1619 1 24.521613397857635 6.301207492844608 1.2142780977394279 2 1 -3
1046 1 26.399937824202055 8.274113169304938 0.6728242115988141 3 -4 3
343 1 3.6496285927468115 13.51826767205519 2.735748781982429 -2 0 2
128 1 0.5869243695176916 13.89522321767455 7.213284811451777 0 1 1
2016 1 24.8001645792773 3.7336159186882254 0.8040427591405348 -3 2 1
1698 1 24.65484366896802 4.989807269057168 3.109668098855724 0 0 3
1840 1 26.834067565745627 4.541356095246218 2.2068010160610396 -1 4 1
72 1 28.674178746812547 5.658360330783447 3.9556775799651573 0 1 -3
1843 1 26.760634692108006 7.2437773409179 2.894487893396141 -4 0 1
1893 1 26.751597743033265 4.4456953224392155 5.02178381098019 -2 1 2
531 1 28.874502647810033 8.452725154357786 1.168060546072103 0 -2 -1
1093 1 1.4679984335745093 12.517293183909949 2.302091576215759 -1 -1 1
2027 1 0.8964817696093954 12.554534651736985 -0.041779974979308854 0 -1 1
1251 1 24.1424253005235 14.11802955595294 7.539397751383973 -4 -2 -2
945 1 2.0801975027768562 9.778123479484616 0.3239598811259877 6 2 -2
1710 1 11.182140128499041 -0.575390280053427 1.9498946543199822 -2 0 2
824 1 1.8983631812941129 10.50979889144309 3.259812677212381 3 2 1
123 1 17.99816485558915 12.933646063101042 13.83560369702016 3 0 -5
702 1 2.876088703251595 14.11932210651453 0.4165862639054658 3 -2 2
376 1 12.844050401347316 -0.27170207993634865 11.277486421098326 0 0 -2
1691 1 4.662776397766797 10.03546614069823 -0.26189426571978053 0 3 2
644 1 4.7416803515760675 9.970986771636644 3.441769750840175 1 -3 2
1885 1 7.452765661214075 9.794903745064158 2.7884960547320725 3 -2 0
544 1 7.959795236580719 9.378469897129529 12.649936009171443 2 0 0
1913 1 6.968753682736183 11.28270266957152 1.0946883900360138 3 0 0
983 1 6.046367653910372 13.559176227715325 2.187155260316393 -3 2 -1
1021 1 3.829088577411028 11.540341874792814 1.7184092217749325 0 0 2
870 1 7.713865520505786 11.987530623925517 3.60549622741149 3 4 2
501 1 26.60157013070963 8.747945618619022 11.134367147743765 2 -2 -3
652 1 28.601170105896156 4.160255551172099 0.05132305001548931 -4 2 0
142 1 8.279544291890053 13.651041528391763 1.1307202158677874 3 -1 0
224 1 10.225436271511198 10.074576621342846 2.1319358436647717 -2 -2 0
1729 1 13.547529113480396 10.922796560898863 -0.252464447360659 1 0 -2
321 1 12.444385199459067 10.926201630973928 4.1702697008181415 3 0 1
646 1 15.622373086695628 13.96155926929921 12.765251270214256 1 -3 -1
893 1 9.79438623723829 12.250930454131927 2.8790636139388757 -1 4 -1
1803 1 9.356890538520126 9.67617962252103 4.237799923573243 -2 3 0
438 1 9.620367796374309 14.104761135591579 11.151123659604643 1 0 1
118 1 14.318843282460008 9.633970609691405 3.4950100983173433 3 -3 -1
679 1 16.680493947879576 10.247609425691948 3.0304684205880945 2 -2 2
1620 1 15.045240704699502 11.063061008344631 1.6083458457755366 0 -1 0
776 1 13.862712880582876 12.56314330528835 3.2562380429892728 1 -3 0
488 1 14.639916994234978 13.016804253763059 0.916582868290148 2 0 2
1398 1 16.164511466987577 13.21788604503969 3.060665809671812 1 2 0
1139 1 16.932372356688667 10.674004089027356 0.255855620328747 0 3 0
1689 1 12.133896561623494 12.082980739966716 1.6203563910598868 1 1 -2
1540 1 18.57373297196257 8.389478880829273 3.705011403405754 1 0 1
391 1 17.68156223808235 14.132430384201848 4.430927324513478 -3 -4 0
78 1 18.131843416688444 12.097534759399785 2.2485878999411435 1 -1 -1
385 1 19.762932062945655 13.424050300704119 3.3884425430307563 0 2 2
1879 1 19.12379850753505 9.981926268252101 0.6286238337584047 3 -1 -1
1057 1 26.315862183150177 13.018397320044373 11.903401857136048 0 -2 0
1347 1 26.2535216679353 5.92353687836221 -0.057867026094985174 2 -1 2
766 1 4.792716082657144 13.244729275199035 11.687418049608553 1 0 3
1339 1 22.77808639511973 10.981397536596248 0.6556240230226127 3 -1 0
895 1 22.881731368173412 9.956600591343827 3.231676171052313 -2 -2 0
1265 1 19.787801350828495 10.82543496531137 3.591751795120789 -1 0 3
1459 1 21.22046837531192 9.694390618010315 1.7273034151384818 1 2 -2
191 1 22.382228343710086 13.31629811247759 3.96027561848003 1 -2 3
1414 1 23.895897456160366 12.177639811942027 2.575032802536718 1 -4 2
1958 1 21.358231796606738 12.040223822291837 2.255974628653849 -2 -1 1
1323 1 9.585305979971942 12.02189668193691 0.5467123385305241 -5 2 -1
1887 1 27.678890165716684 10.467507654465289 0.02005825852092835 -4 0 2
493 1 25.099514027958673 10.077371051068361 1.6682197115635238 -1 -2 -3
753 1 25.13974099948302 10.610089884645408 3.884090738678328 -1 3 2
1087 1 26.539796631751607 12.006774061576634 1.8535277148814582 2 0 1
1319 1 -0.056997487483039344 10.709638522523706 1.62482514954754 5 0 3
1932 1 27.38886519637216 9.825440999344453 2.375932201145668 -1 0 3
551 1 24.58645581810642 11.866796828068633 -0.04699757177241215 1 2 -1
1478 1 18.938984695135524 -0.40590086678128806 3.913346565143339 -1 -2 -1
1410 1 2.011522583023402 2.498752558677055 5.469810732236634 1 1 0
569 1 2.001565969413276 1.0751492417510733 7.611917007083596 1 -4 2
1969 1 1.2133493049211417 -0.5587724581737518 5.521960512046677 0 2 2
731 1 -0.07642812189263137 1.914033159934295 6.573808532818148 0 -1 0
2039 1 25.91113588494774 -0.40374895297643565 11.334800947628219 1 0 6
189 1 3.5835344856806817 1.9005522725385902 9.113154525209973 1 -2 -2
1500 1 27.248987781440157 12.354599762917935 9.725010856442175 -3 1 0
1688 1 3.814297461580969 3.1834918663901326 7.036348956978832 0 1 -2
1401 1 3.751278192925784 3.53117572232149 3.582012027729144 -1 2 -3
1795 1 5.057792818969082 1.7208534268472038 4.97310899923075 2 1 0
340 1 5.587211205898821 4.348504493213405 5.576820124050407 -1 0 -2
1732 1 4.778678118758706 0.8854187966626481 7.491361400113076 -1 1 1
182 1 6.838753699653891 2.9341505030157724 6.812959525665462 0 3 -1
575 1 20.093668920247367 12.917475389392573 0.6406000678076553 3 0 3
235 1 7.138114511175259 0.9137216212123846 7.376932890331761 2 -1 2
572 1 7.982464402854781 3.5908635663005235 4.830050497405065 -2 0 -1
1084 1 8.618737293604113 1.626444721139872 5.752389459526289 -4 1 -1
586 1 10.40335813955972 3.0521448086227023 5.476235736494114 0 -3 3
1938 1 12.489031934557703 2.37180638110433 7.506413501623081 -2 -2 -1
279 1 9.80491404796383 3.0235290151344403 7.7780420854829195 -1 -3 2
135 1 12.063223256642779 -0.22547518498445113 6.752157792222365 -4 3 0
970 1 15.02411091257529 2.537555518363769 4.6167617060045245 -3 0 -3
574 1 14.575687571977564 2.2500372659871934 8.795696946785995 -1 -2 -1
896 1 15.601986187936749 -0.046724849788693734 0.4928546134875822 2 0 1
1446 1 13.35457295946601 0.26636637255709494 4.031750342656156 -1 4 -3
1432 1 14.6250033871591 0.8766573150802248 6.46146398446779 0 2 -1
1160 1 12.70355695466847 2.324239568901085 5.043519734466519 -5 2 1
132 1 16.20243350261978 2.345751761761773 7.113317169344839 2 -2 -1
1209 1 19.885606346293226 -0.09444309917466814 6.034647502097626 3 3 0
1502 1 17.34095455011968 -0.22041312096121973 5.965991427211317 4 1 3
211 1 18.40359530200558 3.573348483420748 7.392168222837131 -2 0 2
1542 1 18.354854815586823 1.11407212572365 7.604858828268121 -1 -1 -3
468 1 17.56862773777365 2.160903727931702 4.997756368213464 3 4 -1
1830 1 18.967456591905787 2.995386653481701 9.490242832659964 -4 3 4
965 1 24.48699555437212 13.73421618796511 13.499081906645578 -1 -1 1
1150 1 20.70601571531459 1.421146730970242 4.246982770952966 1 0 0
1801 1 23.18880712810495 0.49435498501386 8.527520581342644 -1 0 -1
960 1 20.807678750131988 4.371906949933837 7.752333082629548 5 1 -2
823 1 20.278346952130992 1.9709713436890168 7.6664512515542516 -2 -1 -2
1898 1 24.132908463908546 1.5709052372191334 4.54894627635346 -2 2 3
1970 1 22.811614640485747 2.891703556742458 7.9209308051076945 0 -1 0
496 1 21.04261528305287 1.5462261611583115 9.729441887792229 -2 0 -2
1823 1 -0.37274578373512784 13.388571808342917 3.598078548419843 -2 2 -2
2032 1 23.558589345480296 3.9927069148346304 9.485983816691006 0 2 -1
1073 1 25.415735549369888 1.6723333161361609 9.638866333843339 -2 2 2
712 1 5.561345781825896 0.1361163037684492 12.71387913697284 -3 0 -2
923 1 24.879775859106573 1.0059571438992765 7.014124451637853 3 -2 2
877 1 28.080986733644036 5.550976257294338 6.760461097487596 -3 0 -2
1013 1 28.761222344230735 1.7406132618923844 9.259060867952364 3 0 2
1871 1 25.09166624938698 3.3891486450994415 8.053603335132168 5 2 0
1375 1 26.338344979147767 2.4083721415233397 5.897836867371189 -3 3 3
1692 1 28.003996990902085 1.0662947061115946 5.373965245284785 3 -1 1
24 1 27.4641441221506 3.40408831638711 7.87671768349305 -1 0 2
238 1 27.18101714499268 0.972451390507113 7.586962452851218 -2 -1 -2
1162 1 3.1356256195408876 8.159447984296378 4.39805902419332 2 0 -3
1465 1 1.9376108455453904 5.519117019177591 7.623222347467085 1 3 1
897 1 0.1521318417134293 4.305112297452808 5.961327168362267 -2 1 -2
1257 1 0.2214534812972936 6.921109911619223 6.220450648163601 1 2 -1
1918 1 2.9155783325668487 7.54021527453042 7.07028204033205 0 3 -1
1944 1 3.139984549853923 5.053367887581662 5.538066173734246 5 1 -2
350 1 -0.5586479359324796 10.688978578322123 6.4585873176645405 -1 2 0
934 1 0.3776325577640752 8.31211099645668 7.950367552863401 -2 -1 1
150 1 5.216945961695874 7.733579810804118 8.488605323749399 0 1 2
1681 1 7.266949090677541 5.699028695950555 4.432189180745852 1 -1 0
1442 1 6.170191615349408 5.696032129560225 9.61919017314005 -6 0 2
1171 1 4.976811988893993 7.222600186117939 5.382891824153768 4 -2 3
749 1 3.9942915090609192 10.036692597271347 5.886478254885765 -3 1 3
984 1 4.4327631108746175 5.735225259593756 7.502280574706511 -1 0 0
947 1 7.919749022045172 4.814237897658598 8.26297817219008 1 0 1
706 1 6.741851618579137 6.023820548099288 6.75918939242928 2 0 -1
1354 1 6.444000296907315 10.374724289410537 4.968285979701681 1 0 0
1731 1 7.650799858223808 8.176621104114611 5.545893105607096 -3 0 0
1585 1 8.154188538500412 8.795101671117935 8.623505717942443 1 -2 -2
1851 1 11.679052442098769 4.5982348115400535 6.647414865330725 0 -2 0
1892 1 11.000015470096121 6.771115528732314 6.8055673063278155 1 -3 3
1704 1 8.93025145571183 5.290417647735153 6.122689002199226 1 2 1
957 1 9.24346777710494 6.855310833353088 8.543329757740397 -2 2 2
1486 1 11.019879847612977 8.315705683710075 8.872762762015103 -2 2 -4
1294 1 16.202518445577848 4.170703412782395 8.427329105266505 -3 -1 3
1454 1 14.352131245911814 3.9835603511345905 7.1163742869149855 -4 1 1
1935 1 12.984742126007259 4.342207345160743 9.065025619444775 3 1 1
1739 1 13.52843283044404 6.718406930742902 7.3360467882203215 -4 -2 -1
1589 1 13.977640262521856 8.264205277851309 5.431241992036771 2 0 0
1463 1 12.129489286793438 6.589223295241175 4.88088209517428 2 0 -2
723 1 15.654623967960681 5.170402522645695 3.1184419056257444 -4 -4 -2
1559 1 15.587764379909448 6.847136434886947 6.33479090566535 -3 4 -4
147 1 15.310517649661884 6.310969034981528 8.951676653807619 -1 5 1
1996 1 21.039501082712935 8.857283367521768 4.528163566070693 -3 1 3
602 1 16.330858414382618 4.328831447619304 5.402478134439094 -2 2 -1
1205 1 20.15622713225078 3.048002388649508 5.665117553318342 0 2 2
2004 1 17.743313045205056 6.536347294506032 4.923385579660084 2 1 5
1345 1 16.199518598775345 9.361057536027058 5.156485867079477 -2 0 -2
1597 1 19.443558468224587 8.293003707627022 6.03746549776808 4 3 -1
1163 1 19.742417268227616 5.893769203063323 6.042260354612114 -4 -2 -1
517 1 17.5047917652088 5.883282961845929 7.277400439838608 -1 0 3
1718 1 14.496070910591598 8.898304076417146 7.761453774628254 -2 2 6
833 1 21.262407200178654 7.048626670976209 7.500884636917435 0 0 1
405 1 16.801597817996537 8.76240989247212 8.447303026987234 2 -1 3
63 1 24.645880099791245 3.9876651229946987 5.1989548150233285 0 0 1
1980 1 23.20677640938775 5.262692914963813 7.078693955255332 0 1 3
854 1 21.79606250638487 6.929826908000563 5.5372139657246695 0 1 4
1881 1 22.282645336854497 2.9868054678464286 5.737136222669067 0 0 0
113 1 21.748282294512176 5.755387934431467 9.82221398839752 -2 0 1
788 1 22.069955824737793 7.928485805412485 9.348402987305711 1 0 2
1534 1 23.565094145705967 7.7915035478302315 7.122712660958635 3 1 0
1673 1 24.072172868466645 6.6418196175488 4.71152531701083 -4 3 2
1415 1 -0.3352819355876647 8.00803216043 3.5566401328803554 -1 1 -2
370 1 27.92949677181016 8.61771379470019 6.59810652497662 2 2 -1
1330 1 26.984325834482267 6.7924201166632185 5.227275751941066 -2 0 -1
1567 1 -0.46611919932324253 4.9754568464327456 8.77104985273021 3 1 -1
1817 1 25.61876764633135 8.179216263493187 8.348575238730795 -1 2 3
1098 1 25.320354274512564 6.085447968314169 6.930313644986574 -4 -2 0
94 1 26.979681989100296 6.457484249597653 8.47344885993345 1 1 -3
271 1 24.33888164589459 9.051472809305375 9.8299320944721 1 -1 -2
1834 1 1.4699547179466257 9.33205082080644 5.630384074239136 1 0 2
422 1 2.696725361498809 8.624631775240063 8.952636325785651 4 0 1
1382 1 -0.14503374377043843 10.964402646510125 3.860049096890851 -3 2 1
17 1 3.158062240040461 12.032999153492053 4.797375656295639 1 1 -6
1336 1 0.9015942762843743 12.502162616668416 5.355825665217204 -3 -4 0
1193 1 1.6642534250523622 10.364689853508557 7.7626800811369225 1 0 -1
620 1 0.1740191077923997 11.057232497557948 9.49796122143463 2 2 -1
1344 1 25.646813098669806 10.7743014979865 10.774155850855315 -2 4 1
1304 1 5.622610642533513 12.489985362140207 4.084408621886338 -1 -3 2
377 1 24.667095216928228 11.350053926236598 13.036736770917667 4 3 0
986 1 6.389661181240141 9.56727015905877 6.894346452811575 3 1 1
982 1 4.26847813156787 10.222699909494892 8.224829990913335 1 -2 0
352 1 5.166282678399551 12.00872686005473 6.619352207334817 -1 3 0
334 1 2.7288674265598267 12.324089841067632 7.478872305272027 1 -1 -4
345 1 7.05982467136879 13.373867575901937 6.417337584509304 -1 -1 1
1763 1 5.093726385139111 14.019966613541028 7.702819493336065 1 1 1
696 1 8.915671203989488 13.086694683635368 5.1939901905714745 1 0 2
1983 1 9.8445340466269 9.027308084493871 6.495428541555615 7 -6 -1
165 1 9.591640184655676 10.632803398088356 8.716553241468374 -6 1 1
787 1 8.270763168019444 11.035312396949998 6.3056455275900865 0 -4 2
1216 1 9.15799978742438 12.916852025429485 7.701682825100853 1 -5 -2
23 1 6.8751223008964315 11.943521275307996 8.281306580283553 -3 -3 -1
1104 1 10.460492401797646 11.524482386829481 5.372767806104592 0 0 2
654 1 11.061995261684288 10.60551791613616 10.290977272003731 2 1 -3
304 1 11.141142410924434 13.24114029632736 9.355336931809802 2 -1 -1
1349 1 11.550671745242798 13.149724006090008 3.9607172392443957 2 -2 -3
1421 1 12.115316567155643 11.525167473028517 7.113065020778976 1 1 1
1905 1 14.481534351801116 11.745175912755244 7.9989000567397675 -1 1 0
329 1 14.339958044921925 10.610601710660516 5.767446236403865 -3 4 0
98 1 11.331555928872941 13.641095829456221 6.484004039556891 0 0 -2
718 1 15.40160002357079 10.367233348963827 9.494734428217615 -2 0 1
510 1 13.757415070747575 13.203160640017447 5.493978585218556 0 1 -1
720 1 16.481141532953504 11.828296399247558 5.262006097229363 3 -1 3
1027 1 12.971195542393396 11.96209701490986 9.86473935281911 1 1 -2
446 1 18.632903179315498 10.426585081922441 6.026575092052886 1 -1 5
1408 1 18.44077127563224 12.715547997113772 6.453075687295687 1 0 -2
154 1 17.146690516145064 11.475147020220296 7.916235083100114 1 -3 1
1325 1 18.98461479400313 10.227971768047476 8.193809492308079 1 -3 -3
384 1 20.018649674236844 12.4057513096676 8.092252876148653 -3 2 2
571 1 17.637350391646535 13.575538675762889 8.995804372911913 1 -1 -2
180 1 15.858989883205954 13.47880267317842 6.938611794990705 0 2 1
1305 1 23.124016345533153 9.454951072567095 5.289436832355781 2 0 -2
1212 1 25.465670537790935 8.538419736204956 5.743160420498783 -3 0 4
90 1 21.246496594652957 9.422446571266516 7.421095960898157 1 -1 -2
1974 1 23.67328090883938 11.73943261927102 5.039905701978985 -2 1 3
1413 1 21.384780713751628 11.203358419791043 5.622028714191183 0 2 4
344 1 22.53871984230895 12.650441511659439 7.5536888893193055 1 -5 -2
775 1 11.058191917274744 1.7140438936256754 9.330598631624092 6 -1 2
1390 1 24.61569695318812 9.979409607954423 7.397170064456449 1 3 6
1506 1 25.455029746547964 13.149077227621037 5.373900289051634 -1 0 3
1771 1 7.7206400973513425 1.8747785112665927 13.930340865284878 -2 2 6
379 1 24.86471933734332 12.274341605421606 8.866596906322636 3 -1 1
1551 1 26.8194594213475 10.568843092656548 8.471438023781161 1 -2 -4
579 1 26.22673400554739 11.02967629059512 6.073912464321891 -3 -1 0
1109 1 27.417986378791046 9.23589384831362 4.60267088444039 3 0 -1
2023 1 26.55493838417109 13.780770157650519 7.896734117194766 0 2 0
286 1 26.987590623669064 11.975407931308922 4.13708472144567 -1 -1 1
2017 1 28.5925266106318 12.302214964255034 8.097038536509656 -1 -1 0
283 1 3.616113560104421 -0.3679779356760974 5.479712923003548 -1 0 2
645 1 1.6591053304070207 0.8420509737303223 10.355143255711974 5 0 2
1246 1 3.071035571765022 -0.40271511097113105 8.509944119666166 2 0 -1
974 1 28.828600211925796 0.45702101434266873 13.638810738872117 -1 -2 -1
58 1 2.5709623930107903 2.752375787227905 11.563717343157524 3 0 -5
2002 1 1.5654731901188668 1.1000472848170282 13.151855355050937 -1 0 1
1007 1 1.1328387087915495 3.046938881662306 9.324527003600572 1 1 -1
485 1 21.412226461561094 11.317636169789559 11.412761004110548 -1 -6 0
740 1 4.621650630893736 5.264735425431961 13.78320837667352 0 2 2
778 1 3.457332728580659 1.6847795372976542 13.378261946132431 4 2 2
1584 1 6.817029284090359 4.4068133095276565 13.097526649686895 2 -2 2
419 1 4.464452860469895 4.9237304036885865 11.403420276461 -1 1 0
1026 1 3.816506547702806 0.5696498881852075 11.342892698582789 -4 0 3
785 1 5.2199834870313975 2.317477832325072 11.597849369111948 -1 -1 2
282 1 5.714704548334592 0.8877557897798387 9.566522304174997 0 0 0
1696 1 7.41599878964953 2.6091123495525137 9.011885248346303 2 1 1
1984 1 21.999567279432256 0.8244796449027043 6.100174888151203 2 1 -1
127 1 1.1454078473873004 3.658250159036136 13.493265220191898 2 3 -3
981 1 10.48042075046617 1.5103436667337293 11.556091628399823 -1 1 -1
1637 1 8.932539055821318 1.1007551112480272 9.198059305103344 2 -2 0
1059 1 9.304971791292541 3.355208956812008 9.844301523992721 -3 1 0
781 1 7.639254796015507 1.6238615777479697 11.430178280070706 0 0 -2
479 1 10.671571012831135 4.921626236053468 8.494149060431713 1 1 -1
1807 1 12.589130818856857 2.4445632271555504 12.893046768737824 2 -1 -2
898 1 21.88449780536648 12.945773715233566 9.653792011411348 2 -1 -2
973 1 15.334290492162163 0.7424553597665022 11.448013320484144 -1 2 -3
482 1 11.409649425824822 3.8145872619899333 10.990795752694337 -1 6 1
1496 1 15.113111082045611 2.462819253471638 13.380329134904919 2 -2 0
455 1 13.12890086307024 1.7073695662125283 10.64213240246182 0 2 0
801 1 14.976224941902704 3.104945174737564 11.100130646864665 3 2 0
1658 1 20.299907259305474 9.63944166989142 10.229218377121645 -2 4 4
465 1 6.351562383376921 4.7146107629799925 -0.4947106070162053 3 0 0
1434 1 19.550915766359612 2.6405078163482694 11.588492426999004 -1 0 3
550 1 10.633247374341018 12.567807600858249 13.7448878665926 4 -1 1
1557 1 19.554619428422683 12.359068200436084 10.559499332159218 -3 -5 2
122 1 17.58312132810827 1.1763285528682101 11.893484598022683 2 -2 -3
1804 1 16.975175662836207 2.1852084223490436 9.704358722097924 3 4 0
1849 1 19.379517172881034 4.993475790711075 11.150892712372114 2 -1 -1
1520 1 17.75814336445879 4.624209057084182 13.398938989905577 1 0 1
692 1 19.153863173122414 0.6462923995077254 10.13741736488094 0 -3 -2
192 1 15.728539021455852 -0.07764214616094323 8.58524126721909 1 1 -4
621 1 23.198379587545883 1.9524120374448022 10.447210780982354 3 -2 -1
942 1 20.338934047902985 3.6194524322941852 13.603517108601663 1 2 1
1533 1 21.300871940947136 1.2300840451473074 12.538610131914735 1 0 0
2036 1 23.641548815247734 0.21818755782148358 13.262214973904195 3 0 1
497 1 22.94892620383337 2.917345429510415 13.240954280160908 3 1 1
1254 1 23.798949321599512 -0.3097990994245688 10.87607919164952 -3 2 1
1131 1 25.72127901851614 4.692349850873308 9.716635467163911 -1 2 2
669 1 26.41900419890974 -0.13242977712527704 1.4731616237836667 1 1 2
1143 1 0.14488742981764335 2.350214444134618 11.75517032236132 4 0 -3
610 1 -0.33076562337217863 -0.27035187115936116 11.280658891296234 3 1 -3
552 1 27.413212912117473 1.5353847488215342 11.317579754923619 -3 2 1
206 1 27.553360439555213 2.4208943676364525 13.28868994848145 2 1 0
117 1 26.205508743259973 0.5285369790319687 13.911767170147652 -4 1 -1
1289 1 25.224981413170088 1.6466750740029017 12.13411947131809 -2 3 0
1786 1 27.681153758315315 3.8523448721077997 10.35341880031159 3 0 0
1988 1 28.62991713051221 4.869418219669911 12.869873338234644 -1 -1 -1
374 1 25.916837875239622 0.6086479361876758 3.8129675122537545 -1 1 -1
31 1 26.937051245330895 10.710060204005378 12.919666784590374 -3 2 2
1372 1 3.428521537568602 -0.21498192605916927 1.5449425194853106 1 2 4
523 1 2.914721237697246 4.277002280331284 9.389844895026837 -1 3 2
203 1 0.41537688540038387 4.4902538561265315 11.03174372740318 -1 1 -1
489 1 2.320570524795434 5.217559818721665 11.904593148565176 -3 -3 1
227 1 0.6531224450832305 7.056561304846887 12.122918766640161 0 2 1
885 1 0.940343045270964 6.5534418395259575 9.515473944221931 -2 2 0
1564 1 2.182758785128345 8.892541911193005 11.209219183488985 5 3 -1
555 1 0.11776690666591871 8.737379984868642 10.391461631793137 0 -3 0
2005 1 -0.4395514711246767 11.520653320402905 13.740694821478199 2 -3 -1
59 1 5.668517693571462 8.908759901955644 13.036702855162963 -3 -2 -4
143 1 5.835707829372427 6.629117468963404 12.348083803907494 1 -2 -3
647 1 5.277476022491488 3.2944612177329122 9.278883883067085 0 4 -1
1472 1 3.1921283329774424 6.456350754774818 10.00396856311507 1 -3 -2
2044 1 8.220294170572272 6.596630538019935 12.139685956687456 1 -2 -2
1351 1 7.646422605330223 4.074995661974115 10.912859224569242 1 1 2
364 1 6.901122617433891 8.092549729512076 10.6511675436102 1 0 -1
1877 1 6.160667448936504 9.924243612751852 9.185171138122135 -1 5 1
233 1 9.96271237372558 8.411211492644735 13.458604250793439 2 0 0
1199 1 9.454468091094359 8.21454714683852 10.695305692122044 7 4 1
278 1 22.47820015113133 -0.32625529092623545 3.9676104374832546 2 -1 -1
1811 1 9.33197513643547 5.437527532536739 10.373134725622176 1 1 3
1568 1 9.023938995898684 3.726710607425832 12.81864679054199 2 4 -1