LAMMPS data file via write_data, version 29 Oct 2020, timestep = 300000

2048 atoms
1 atom types

-0.20688689132735405 28.558886891319595 xlo xhi
-0.20688689132735405 28.558886891319595 ylo yhi
-0.20688689132735405 28.558886891319595 zlo zhi

Masses

1 58.933

Atoms # atomic

473 1 2.8591376477192663 1.4866090873231768 3.650381302004141 1 -1 0
909 1 1.0807708898297077 3.210556058850663 1.954682286716607 -3 -1 4
1324 1 1.7115668908906911 0.8970153280926219 1.9351962313925446 0 -1 0
642 1 3.5332013498947927 2.6991218440899205 1.5343507556196312 2 2 1
2043 1 2.515759000699294 4.03451965611634 3.8221441683025033 3 4 0
1803 1 0.45964091845622246 2.0385766398896803 4.0588486290493835 -1 4 0
826 1 24.656960629631815 13.246708665259845 10.37118187451177 2 0 1
2011 1 0.06202992431863574 4.528900233473703 3.7073512754423597 1 -2 5
142 1 4.069368816321597 0.3784840283616492 1.532397380652296 4 0 -1
230 1 6.117482486686036 2.5312039815427427 1.189519417911532 1 -3 0
261 1 5.3725310094524765 1.6803493118084947 3.566135872995957 -4 -1 3
1761 1 7.4354124476946675 3.3383262154372404 3.1356882366540466 1 1 1
175 1 4.974278146074133 3.855479418090714 3.186409051269453 0 0 1
280 1 8.250120511383152 0.9509092371780432 3.1217090973728396 -1 3 0
197 1 7.85465723541509 4.403713636995145 1.0271889986017557 0 -1 -4
1192 1 6.510643902795204 0.15212748626864242 1.413819634449967 -3 2 -1
1061 1 8.587933514514972 2.035761334423618 0.841348870540062 0 -3 -2
1733 1 10.942381410633358 1.8471059057629482 0.7951449240809143 2 1 3
861 1 9.883328943546244 3.059808116388029 2.810730218923654 2 2 1
1092 1 10.159227006429647 4.099356266923988 0.5812972245450774 1 -1 -2
290 1 10.525567161515303 0.5903773146782828 3.145706327802165 -3 0 -1
1518 1 12.249479062574267 2.755793277929768 2.538115609528488 -1 1 -2
1467 1 14.739898352027803 2.677729989519235 2.174761330156608 2 3 3
569 1 13.334769935236222 1.5001558675293212 0.40168425973968513 -1 -4 3
1887 1 13.245006857499988 3.9047967347840498 4.374203645507484 -4 0 2
1101 1 12.692668282639573 3.9228673038353667 0.240338116342508 1 2 3
1553 1 14.030865850774031 1.5226076800080488 4.352283096621436 0 6 -1
325 1 15.578541635179025 3.911964033472584 4.145544821731924 -2 4 2
10 1 12.882607125144165 0.5800115752893031 2.5955162220989854 2 2 -1
228 1 15.273813177731961 0.2383481497079793 2.5545319269102102 -1 2 6
311 1 16.591036656516618 1.4997643971349417 4.232232148393852 1 3 0
347 1 18.475192116601264 3.2484883281298496 3.7557842953324343 0 -3 3
836 1 17.173855188609277 2.568143222503794 1.8440575540770832 0 -1 1
1424 1 19.413790504336095 1.6024929531517111 1.2029045710747415 -1 0 -5
83 1 18.858598927731336 4.112936725452064 1.3409298003210655 -2 -1 -2
507 1 16.397178114219603 4.765717903007904 1.8446438241985454 3 0 -1
252 1 19.0403427510281 0.9203109236659206 3.5955913666313064 2 0 -3
760 1 20.868368137110668 2.6602423604739975 3.0057206176611966 0 3 2
1159 1 23.219284174876442 2.174965088857094 2.7342648238279597 -3 3 -2
1664 1 23.761567422370792 3.1321876833436195 0.6989684489391919 1 3 4
1822 1 21.974254794194206 1.18014947543013 1.0757177265908646 -4 0 2
813 1 21.3081338500886 3.702183828072168 1.0056684937838665 0 0 6
670 1 24.34997687952022 0.5853360617685971 0.4379204902860745 -3 2 -2
1777 1 22.66246934718932 4.663683717683072 2.6870808543646225 -2 -1 1
1342 1 28.272377686900807 9.391411880235697 14.006038285725642 3 -3 -4
1599 1 27.92881171590509 1.2367865419423745 2.314499781377636 0 -1 -4
499 1 25.499520685957293 1.7116321531881682 2.255613479017498 0 1 3
1139 1 27.245872495869833 3.5639002833935303 1.993555852904585 0 2 -1
426 1 25.07058110758349 4.174037162081073 2.366048127607284 3 1 -1
1687 1 26.2388233781521 2.605353519761246 0.13172292191685692 1 0 -2
1371 1 26.72240930300901 2.461134206119809 4.251962154984222 2 1 -2
1074 1 27.501833812171984 0.17347228935441306 4.756031988007365 -2 2 2
1841 1 26.748503167571535 0.08356895029048261 0.4673091483001699 0 0 2
537 1 24.209072229792266 0.158775529934727 6.97852820876105 -2 -2 -2
355 1 3.054006823598644 5.065223531163893 1.497787319859782 -1 -3 1
317 1 1.865306790354487 6.486686201343968 3.2874601348892627 2 -3 4
1473 1 2.427754460183828 7.508585332747506 1.1903712095718897 -3 2 1
35 1 0.6205394689031287 5.704781545053612 1.5071526102327348 3 3 2
454 1 1.1184632583438614 9.000492005779405 3.206829095369758 1 1 -1
693 1 -0.09445104674627566 7.9538965240485275 1.481909719110142 -1 -1 2
23 1 3.7601649067330443 8.551035828747949 2.8520918994245195 -5 -2 0
1953 1 5.395620513371581 4.803710108773668 1.0747279947047887 0 0 0
132 1 4.274365940464957 6.26584033064005 3.0731988701571007 3 -3 -1
1660 1 6.712359275763381 5.731414830733702 3.2277561085200315 4 2 0
242 1 4.754721708466114 7.418413925155794 0.8955444368166772 -3 1 1
1493 1 7.160679924537449 6.633743618610322 1.120718975291805 2 -2 -2
87 1 6.088551550435683 8.202906874383821 3.0238677227990154 0 -2 5
859 1 6.524436666642913 8.936699121924306 0.8063133019291695 2 -1 6
1717 1 11.403110970148774 5.097044321054597 2.6096948515316343 3 -2 -1
1395 1 9.102964655516711 5.539456477604109 2.731775356753181 0 1 0
726 1 9.503619005164616 6.5654660059428895 0.6833697074450976 3 2 0
338 1 11.12998338091268 7.497394116225581 2.399657699383479 2 1 -3
1246 1 8.51240663202908 7.718994753726671 2.6499707658422893 1 0 -1
1173 1 9.076902074212628 8.797728417482565 0.43827331747899767 2 -4 -2
595 1 27.926836416160572 4.437659774983214 0.037626830986351695 3 -3 2
60 1 13.972217138962066 4.918913821359099 2.0533366632027574 0 2 0
646 1 12.066910871828107 6.192448165648494 0.4541364437865012 0 -3 0
2012 1 12.576747973696873 8.646248607582598 4.235791441369899 -2 1 0
6 1 15.441428138338559 6.158398849335323 3.74444354845815 2 1 4
1269 1 13.464292245671519 7.517147907106294 1.9092357190194242 -4 -2 1
689 1 14.772866220640719 8.42538595617691 3.6469784826161815 0 1 3
1651 1 12.901650356132434 6.194942987070557 4.154991016329353 2 2 -1
1925 1 15.110619039437887 9.223119917802203 1.5811728234783131 -2 -1 -1
651 1 16.014735303622075 7.065158370665118 1.4999714823344579 -1 0 0
1903 1 12.841574040880053 9.915315589076723 2.0362679492408615 2 1 -3
1322 1 11.654711818477328 8.499610049423309 0.20415860592155122 -2 -2 2
1617 1 15.531417815795134 13.789636383735917 5.83118119527399 1 -2 1
1323 1 18.15890540362355 5.6248364476707895 3.4436996731317087 -5 3 -1
1339 1 17.36222293943908 7.7988346090233875 3.358207462358928 5 0 2
965 1 18.413049580016832 6.563317500283026 1.3787927316182684 0 0 1
687 1 19.8029638285538 7.262382849447639 3.2144860526630743 3 -2 -1
985 1 17.87790488041624 8.770908028087044 1.308644138411318 5 -1 4
1449 1 20.40132295272794 4.870184955828198 3.2349394210870024 -1 -2 2
858 1 20.091887292957747 8.506658659234533 0.8002899503466983 1 0 1
382 1 20.761529752314626 5.918129137781659 0.8917832821434757 -2 -3 -1
370 1 23.38459641086039 5.572316981022905 0.9131179576142339 1 3 -1
1035 1 22.28203625519666 7.044343436395249 2.8989701672114268 1 -3 0
1656 1 22.604617793600944 7.87785678900871 0.24600749495880198 2 1 0
999 1 23.979335879790195 8.773322015910757 2.0102455621067925 -1 -1 1
1985 1 21.677076470672958 9.348711394056872 2.571116336757623 1 1 3
960 1 24.630144889125138 6.557181098272073 2.3810020519698636 4 0 -2
1751 1 23.90573040142795 5.664602199260298 4.57188287345741 1 -1 -5
455 1 25.669742055680853 4.925690074783551 0.06657060334896236 -1 3 1
1712 1 26.44275164378071 5.021453819859747 4.23861997569362 3 0 2
570 1 28.29983274064063 6.869652994841016 3.7310301084227806 -3 -2 -1
1309 1 26.766602538368566 5.955465426173995 1.9696445559029319 -3 -2 4
568 1 26.380334379222337 8.21131815228214 2.0976083711444047 0 -3 -3
1646 1 26.010035472300487 7.578899133654192 4.470555970949614 -1 2 2
841 1 14.656072553121696 6.015981500804894 -0.08946461531638267 -3 -1 2
1196 1 27.621577419749322 9.467413344443175 3.891978549867522 -1 -4 -2
1251 1 1.6580571455175261 10.02036666276275 0.7772798808199896 -2 -3 0
634 1 1.6387992296576763 12.421620756758081 1.0472456960663121 3 0 2
1826 1 0.5895729913450072 11.289874650748263 3.0179621267979475 -5 2 -2
1385 1 2.8087154452661345 13.463611310517273 2.843783720687356 -3 1 0
623 1 3.0248023699157702 11.108819558025452 2.7959781869341946 -1 1 1
488 1 0.1336271679363107 13.831664143490352 3.087601581298914 2 0 1
1848 1 3.884706790068285 12.110801457037695 0.5572780216479966 1 1 1
204 1 10.631241199566146 13.402805015647886 -0.1460584470426598 1 1 4
1115 1 4.085160953700591 9.776814168423375 0.6184689720944951 2 0 2
1419 1 5.35704911549794 13.089369648685249 2.5691089630719803 4 2 -1
476 1 6.247526784985381 11.324073612506833 0.5762491019225701 -1 0 0
779 1 5.430808339487438 10.513482299253335 2.4880755151515364 -2 -2 5
1072 1 6.662180781742297 13.833033726384008 4.5984700016780256 0 5 -1
1536 1 7.910033447497231 12.68391897333735 2.4146511547626908 -3 -1 0
1194 1 7.987957119762644 9.978488286158083 2.3108276808268973 0 1 -4
1247 1 8.309170984528372 13.806904525164814 0.08410608047966156 -2 2 1
8 1 10.466357649103546 9.869373329692074 2.5279569624920097 -2 -1 -1
748 1 8.57305453209351 11.350089055733987 0.1640144537043895 1 1 1
250 1 10.146820113822994 12.177963170790441 2.2558792313772473 0 0 -1
327 1 11.300156130981362 13.387705370093142 4.107315557257671 -4 4 -1
1462 1 8.95573026888683 13.788543461119882 4.281415523641648 -2 1 1
69 1 9.591592299896872 11.362771259147678 4.370787521613619 1 1 0
1239 1 5.783887996859345 13.699542130177226 0.34959120281332845 4 3 0
530 1 27.269742292676604 14.108478649931206 13.891821296256818 -1 0 -4
633 1 11.785748699986277 11.086614304944248 3.867831619730313 -2 1 6
1990 1 12.26120107023815 12.284814889595363 1.7844592638512642 4 -3 0
1122 1 14.084225899314678 10.657716687252641 4.0427767259275305 0 0 0
2005 1 14.645115583607323 11.66902526417717 1.5896754748662558 0 -2 -1
746 1 13.998340284138974 13.328479421583083 3.7973625665692152 1 2 1
1236 1 14.221504586133294 13.886846434420814 1.424584771650607 0 0 -1
1543 1 15.709080937416221 0.32093430420061 6.4120273014771305 1 1 2
1163 1 16.096757866233368 12.775692563045133 3.169440019310453 -3 -2 -2
1700 1 19.264600634175956 9.734809424338877 3.3312202270827846 -2 -1 0
600 1 16.563700992017928 10.390770629620809 3.4687162775338396 0 -1 2
1496 1 18.489882455783924 12.08147507860592 3.2475259914729495 2 -2 2
1118 1 17.162431490374573 11.171489501139524 1.0234476173965545 -3 3 3
1791 1 18.869638865226825 13.201128157752045 0.9347746402199493 0 3 0
1494 1 19.36341277021215 10.90624397816261 0.8146977862984974 1 -1 4
804 1 16.593059836284155 13.654199875189951 1.1151969514214255 1 0 -3
1541 1 21.242847197308823 12.923677117894396 0.47323603301298733 1 -1 -2
289 1 21.88013505185237 10.71666984783699 0.24078273983579102 -1 -2 0
116 1 20.811601598977656 11.750484851435685 2.604723075685891 -1 0 -1
389 1 23.487640465404755 11.22335160138386 2.1368956909822123 -4 -4 1
945 1 22.81796442564216 13.700206966859579 2.249932384584538 5 1 -3
566 1 22.548088467873683 12.669648314612068 4.571212560942625 -1 -1 -1
106 1 23.02089542879508 10.280119761483878 4.603667644980427 -2 1 3
525 1 -0.17126033900597903 2.104599881588068 0.1629257229877678 -3 0 -3
1743 1 15.79233271711328 13.963479578576353 9.293463118384613 -2 -2 -1
890 1 28.158245465501178 10.184751514851552 1.4661681998166776 -1 0 5
120 1 25.136756228646345 9.664030768713426 3.7253709658207046 3 -2 3
1698 1 25.991052835561785 10.850031092625894 1.6549148425852525 -2 -2 4
1278 1 26.978446971141004 11.981525927616824 3.7397295156822548 0 0 2
603 1 27.81725779000624 12.51229488877795 1.4830438978873826 3 -2 4
1750 1 25.27997005867663 13.218645586046039 1.9250524124328794 -4 3 1
1696 1 24.7058169917086 12.112228053140795 3.9456130115963424 2 0 1
82 1 27.85607384527182 11.846999986016415 13.561976881842776 0 1 1
711 1 2.393922932922298 0.8720857556560677 6.026443336104107 4 2 1
313 1 0.9805269628375757 2.4145180251346314 8.201964497454627 3 -2 -1
1582 1 1.7446576587431168 3.058085199928943 5.880098852798523 -4 -1 -1
1123 1 2.855071052789614 4.395825545756563 7.441584503602932 3 1 -3
1749 1 0.219181277694595 0.9366491597195445 6.409128101964277 5 -2 -2
928 1 1.6500379605519857 -0.0360277000994188 8.10060809594684 1 0 1
386 1 3.647529499001655 2.0135778717933706 7.742333899226137 1 -5 -2
440 1 0.5872729045561264 5.015266435655373 7.742614250694166 1 -2 -1
1658 1 4.3304928584262505 2.77252161642714 5.519791897278627 -2 4 3
1256 1 5.527429358068498 4.0109637023344265 7.366864895490612 -2 2 -2
1109 1 6.740109348809911 2.444408792833441 5.398164524959171 4 1 -2
1811 1 6.07255541048952 1.512868320704397 7.52488117086922 0 2 3
1913 1 4.862186964620737 0.46017243658549534 5.791234250373915 3 1 1
1799 1 7.9712474646202605 3.683514479156498 7.131064141989047 0 0 3
1459 1 7.422691481759039 0.2076495568461928 5.127070277529545 3 1 -3
391 1 7.635706584019511 0.029270284882493558 9.36255131513428 -1 -4 -1
822 1 7.46173691571771 2.5339473507039103 9.428484897070947 0 3 -3
731 1 5.148517679548426 2.9812858980783004 9.525324685512766 0 -1 -1
234 1 11.006054579623408 4.168960090365884 4.933937371130878 -3 3 2
1909 1 11.724370113719784 1.8769329148135503 4.973420670793527 3 1 -3
618 1 9.411672915354455 2.098364803784673 4.989823046899747 -2 -1 3
1974 1 8.438347103788345 1.4210672928598018 7.084198605964601 0 1 3
1650 1 10.340708220705189 2.9158385459640384 7.20110291007563 0 -1 -2
1770 1 10.944222934945792 0.7297848292384074 6.9319246705191455 -2 -1 -2
1304 1 10.015380902795298 0.9903881091919826 8.991000663736981 -1 -3 1
1830 1 9.330869450338977 3.756216221084326 9.232682693068325 -5 4 3
1699 1 11.788979592976386 4.471767618360317 8.588205437443913 0 1 -4
814 1 12.252482338789818 2.1168169657983533 8.458889613998245 -3 -4 1
723 1 12.919139275480083 3.2368140310116504 6.562403297108191 -5 -4 -2
483 1 15.133997817668599 2.544984085444233 6.298985388001536 2 -4 1
698 1 14.326694146773859 3.2631756757376764 8.71388278009228 1 0 1
1526 1 14.820430847398438 0.666773993189631 8.562721867962214 2 0 1
284 1 13.379605602796845 0.7875564918030487 6.655955262294487 0 -3 -4
587 1 8.229735120777757 0.019022169522951965 13.570956980502284 2 -3 -2
1168 1 16.84880884068337 2.068536609506078 7.9387095161432715 -6 -2 0
1653 1 17.396268532867676 3.5067645623933403 5.8733816777202055 2 2 2
1127 1 19.37229416924408 2.855344466953935 7.43835724677366 0 3 0
554 1 18.21347676623145 0.9910517754327315 6.018634126607717 0 2 -3
1028 1 20.092175855708522 2.4716448426054756 5.309715190317238 -1 1 1
1025 1 19.764390613924455 0.32176711794481005 7.983536223318724 0 3 0
331 1 20.394165953512733 0.0031108299022525876 5.485430384699415 -1 3 -1
154 1 22.22044522776585 3.676519216472045 4.968948707704928 1 -3 1
189 1 22.87100502888588 1.3435428282677269 4.974349712884352 -1 -2 -3
1867 1 21.72169904141022 1.9596206860462573 7.120400443310629 -2 1 -2
1238 1 24.022783781508682 2.658939171389289 6.961488661758596 -2 1 -1
1781 1 23.036746819078516 1.145431605750955 8.864474015608943 -2 1 2
1922 1 22.459535626428785 3.6460289860899744 9.194251787673505 0 3 2
442 1 0.11059955768298596 12.103011306219457 11.430484530977964 2 -1 -3
1740 1 20.902429006791436 4.496338813510269 7.121880796573169 0 0 0
2022 1 24.57309890553836 3.1458250280098206 4.4308961707709855 2 5 0
26 1 25.11342687966686 0.7966967194041701 4.653826785829509 3 3 -1
1436 1 28.277081629956047 3.400921864025685 6.046070588702737 2 4 2
1435 1 26.184170154810726 1.6956037426858699 6.634839230705131 -2 0 2
1906 1 27.82963213110693 0.8863875346664485 8.64524892241187 0 1 1
655 1 25.44362806610223 1.6341302898380567 8.86007722438837 1 -1 -1
1075 1 27.264629904112834 3.5022441657881345 8.285006659951387 0 1 -5
1303 1 25.036699065573234 4.0690944980154535 8.877724530960705 -1 3 -2
1476 1 25.834465583789246 4.106133503311982 6.376406878684013 4 1 1
365 1 2.663632620166396 6.879783211270472 7.730878606726492 4 -3 -1
101 1 1.1493478377245043 5.772516449569808 5.655614555862423 1 -1 4
2007 1 3.1257745675274378 7.537412616623876 5.080176429813661 0 -2 -2
1336 1 0.723421905468254 8.329775122201342 5.349667204345825 -3 -3 -2
1893 1 0.06854450373846455 7.50181235326086 7.765570270492423 1 0 2
1639 1 2.1567882509915535 9.045765466706928 7.247665548950315 3 4 2
400 1 3.639982334389588 5.246009305830256 5.466739280459308 1 1 0
1266 1 7.327136664493893 9.264827221877047 4.577956044040425 -1 1 3
1263 1 6.02968163213009 4.958658071707298 5.354814541132625 -3 0 -2
1793 1 7.056327862593894 4.9234474081007855 9.114279797736698 3 0 -5
1883 1 5.420596385927263 7.116270800046044 4.990064624499881 -1 1 -2
208 1 4.664437653142725 6.3920136650107136 7.0940943308368665 2 -3 4
720 1 4.692781532203217 8.68197449430982 7.072549169447681 4 -1 3
937 1 7.034097415417021 8.420218239459855 6.92210882815818 3 2 -1
1828 1 7.15352775773765 6.16739150299166 7.063651680425947 -1 -4 -3
232 1 6.3207684761102465 7.176562120354588 9.032788227539058 -1 1 -3
1308 1 8.125945169505318 6.981790166963146 4.9895267425564 -4 0 -2
1267 1 4.216166168619552 5.352067946629387 9.40092710941563 0 1 0
1465 1 9.9264670634839 8.796953216939663 4.733558531958283 2 1 3
752 1 8.735658229709722 4.391287650095637 4.828305597347926 3 1 0
605 1 10.544775244351765 6.507619528864077 4.872124716263734 3 2 2
1728 1 8.23596754759465 9.244489943344671 8.746604321401595 -2 1 2
868 1 9.737666695313518 5.389625777598267 7.1670465710824836 2 2 -2
1719 1 9.385553026604224 7.649609990148662 6.975776754434267 -4 -2 1
438 1 11.342920177497842 6.84904409350767 8.346428250135054 0 1 2
531 1 8.7224660885089 6.337254695795692 9.167149463365885 0 0 -1
492 1 10.712135108133014 8.93375781418876 8.211104290250097 -2 2 2
1156 1 11.779745930613542 7.982317029754643 6.326936513999964 -2 -1 -3
1064 1 12.391196860601696 5.549788079978504 6.516341445562658 3 0 -1
1583 1 14.908736768169637 5.063187538731364 6.1408767390607535 2 1 2
975 1 13.992714968844814 5.655017538136188 8.337771673487406 0 0 -3
513 1 13.62031970781321 8.321929626240708 8.265284133312049 0 -4 -1
130 1 14.188813877094864 7.338712462068974 5.985237868389224 3 2 1
771 1 15.841655385094569 6.903404834006767 7.634130284840304 -3 2 1
1758 1 13.39210703632511 9.791203778914843 6.201287062483444 -3 -1 -1
1381 1 16.32554449992627 4.383089881705432 7.921919241136964 1 -1 1
341 1 16.292414736644876 8.669690241878834 5.859381670367374 1 -1 -1
783 1 18.476835700396197 5.244669439625311 7.595781320607052 2 -1 2
249 1 19.392231187779043 5.090905771815495 5.419777271894771 3 3 2
811 1 17.03445078119346 5.843657895278439 5.693340307000916 -1 1 -2
1268 1 18.736377183359526 7.685976766576844 5.28373669995693 -2 2 -5
1730 1 18.13666820031634 7.858602388933406 7.655406974569523 -1 -1 -3
1981 1 23.614836454322905 8.123918234683144 4.3332591275402725 1 2 -2
1722 1 20.56732413960493 7.080262447394721 7.012639684341578 1 -1 -1
25 1 21.28220580867471 8.400616018785882 4.9972401999587674 -3 3 -3
1851 1 23.222951327911538 4.879485826359131 6.865773947314741 0 -2 -1
888 1 21.5926179738929 6.048005633073849 4.991291224684582 2 -1 4
997 1 22.90704765361928 7.341312644057166 6.751465173770744 0 -2 2
48 1 22.28116933993398 5.9318475028230155 8.867298510112128 -2 0 -5
891 1 21.453755981442093 8.612002520072128 8.579114795011233 -2 1 0
1628 1 24.58503469029775 6.432035294954634 8.666594073462784 1 2 0
639 1 25.335067664687198 6.489550030620255 6.4543941291518125 -2 -3 2
1666 1 27.664215426574973 6.191304780363068 6.076527815536965 -3 2 3
1572 1 27.019655697833496 5.775921233356853 8.451106775304705 3 4 1
1197 1 27.186747344509655 8.502621071710418 6.364703313168354 -1 -3 0
1279 1 26.458923694462378 7.977320443891559 8.323563805674233 -3 -3 0
1353 1 24.90564687559071 9.08493522721876 6.322319139801248 0 1 2
1393 1 2.7289611609316227 10.024270552672046 4.871200159165442 -2 0 0
399 1 2.134003549055872 12.298796724034426 5.081661396011117 -2 0 2
1890 1 0.19619586462253286 10.805307557851847 5.349515948200199 0 2 0
1388 1 1.6969180487881799 11.505789754930682 7.226574224869509 -2 -3 3
403 1 2.5771400739290082 12.542028184093116 9.125437186644346 -4 1 -3
1672 1 3.71700825880899 13.688155558355916 6.958081384822786 1 2 0
92 1 3.457341180058036 10.077255586949583 9.275890651318702 -1 2 -1
1292 1 0.1014183940921527 13.360649013315971 9.060822768304861 -3 -1 3
1591 1 1.2054385578609046 13.716044966263317 6.9686492648922505 -3 3 1
1946 1 28.39126851302881 13.019369376687647 5.115120478963537 -1 1 2
27 1 16.060077117837235 2.547242227278378 13.867624318101345 2 1 -2
1961 1 7.277503288274346 11.565363305835595 4.372708318030137 1 -2 3
544 1 4.486375165332073 11.77972521032339 4.8726630908865225 1 -1 1
989 1 4.037313709813077 10.975941970722188 6.8984489750545235 1 -1 -1
1592 1 5.080353318217747 9.51241470411434 4.722334308688337 3 -3 -1
512 1 5.885425950135048 9.781406037367635 8.85828582791524 1 -2 0
983 1 6.468935523039968 10.869499406825026 6.579260706431398 -4 3 -1
1474 1 6.005581753925682 13.001568608527597 6.909156449064334 -3 -3 5
1721 1 5.077373902782082 12.167716382832607 8.920912089504045 2 0 2
1299 1 7.895090038476406 11.654816250944167 8.4157676041959 -1 0 -4
757 1 11.251651060120915 10.29205564942455 6.277193319347065 2 -4 -1
563 1 8.399063272062477 12.610068361478758 6.4319346362007765 -3 -2 2
1862 1 9.796115506291123 13.83209995363536 8.287179047869015 1 1 1
745 1 8.76098492429539 10.05131742585506 6.2846888946286015 -1 0 -2
1389 1 10.749702076180808 12.624091956008492 6.463425631183662 1 2 2
562 1 10.068857400783017 11.145898891876842 8.570062562781933 -1 -2 3
735 1 26.110491794573722 12.536747537423036 12.208801159600773 -1 -1 -1
434 1 12.35721249126634 13.20721208019138 8.385800946957552 2 -6 -3
351 1 15.404646238368766 9.734827319164747 7.674861215516266 2 -2 0
474 1 12.513923483616255 10.727312718666047 8.433606346606807 0 -2 3
224 1 14.723149451688856 12.097050226633467 7.62148418095052 -3 -2 -1
76 1 13.06957018782705 12.091232370387747 5.598364158328935 -1 3 0
1918 1 15.70466404727008 11.43004223440139 5.440235427401438 0 3 -1
1050 1 24.746053567172147 13.639776443896828 14.098271876535819 -1 -2 2
315 1 20.27408763558529 13.576705717853985 4.796292329339814 -2 0 2
1969 1 19.93607209854577 9.687222924706536 6.820988988427371 0 1 2
593 1 17.557140482072963 10.230086302818522 7.5067735591997415 0 -4 3
511 1 18.17775760816725 10.607917379496124 5.332948089039943 2 2 3
1022 1 17.771277203075478 13.283578811069024 5.149850071622391 4 -5 -2
402 1 19.529773168233774 12.19222278081694 6.852317273847034 1 0 -3
1685 1 16.956518932921064 12.793302171346426 7.539932623851452 4 -1 -2
47 1 18.722937186404817 11.828309733619706 9.194357804066657 -1 0 -4
1095 1 24.041825454990736 9.094286552179481 8.305922045987911 4 2 3
1116 1 20.699016009902408 13.756722529811766 8.605884875082804 4 -2 -1
246 1 20.73719472341121 11.132558599629656 4.980037863652727 1 1 -2
1076 1 20.87804530785594 10.924277591815645 8.763127602600337 0 1 -2
770 1 22.032650854102076 12.34146267586602 6.8841282442899265 3 -1 1
195 1 22.304569283611137 9.935878534795325 6.761375783982027 -5 -4 0
536 1 23.885589909148212 11.6899932641971 8.590766616565789 -1 -2 0
2034 1 24.36271642508454 11.588622013215653 6.29957734080396 -1 -1 2
275 1 26.986809601146305 12.061287640705027 9.95900548330651 0 -1 -3
606 1 -0.08247894049830953 9.772945491715634 7.686621267592542 4 0 5
782 1 26.16173998797502 13.181805993921921 5.64818225750015 4 2 0
307 1 26.16980308847728 10.53125107440884 7.955882572646539 1 -1 1
1029 1 28.033773108597096 12.024921874426612 7.3940496353686544 0 0 -1
1565 1 26.591393516887315 10.680442302968558 5.794443844024592 -1 1 1
418 1 25.86445831585851 12.995179378473722 8.131971144638902 -2 1 0
160 1 3.4223219280949566 1.7537286528354386 14.127057628178656 4 2 0
94 1 2.146397286157334 0.15163708790159913 12.195972121304886 3 2 -4
1363 1 2.374927893866852 3.701128205272317 9.837137961719629 -1 0 -2
519 1 2.773494082003982 1.3981330315424425 9.909223964640464 2 -2 2
873 1 1.9642966015334435 2.5607853327373276 12.018871555691613 -1 -1 -1
561 1 0.09075154497663274 2.0976288295335617 10.428535630797812 1 1 1
1219 1 2.999544269942485 4.07300942075508 13.754961005535336 2 -2 1
860 1 -0.01391868142498609 0.6453747254395109 12.555339735892407 0 3 0
1816 1 3.9576781496512146 4.09504726066421 11.682742895484777 4 4 -1
266 1 11.01797769852815 10.905308696515899 0.2181435826630445 0 0 -1
1810 1 5.09278848099004 0.8260831214685727 9.603903926684602 3 1 3
1128 1 4.32461201809867 1.8138302541665636 11.854042818592209 1 3 -2
1834 1 5.683436980328379 1.293795692577094 13.51573420656971 1 1 2
1406 1 6.898265120497948 0.7427887055425739 11.392181683466628 4 0 1
188 1 5.339922666763244 3.6856411243779013 13.740382948250948 4 2 2
792 1 6.395467698141938 3.3889593329225884 11.53915664971987 2 -3 -1
774 1 7.698935159122479 2.437943839698664 13.256394520039505 1 0 -3
778 1 8.96678992282882 2.250549273889615 11.12095135960888 4 2 5
1928 1 10.270585027115612 0.9773790314088884 12.93334654958187 -1 0 -5
253 1 11.199811771149735 2.7087542671867135 10.684076282772711 1 5 3
1141 1 11.508785076620265 0.2502212553439661 11.061279972579845 0 1 2
1321 1 9.964950067594534 3.649059518538605 12.691948848574844 -2 -1 2
596 1 24.954475443717513 7.464052998367129 0.11580523685822097 -5 4 1
498 1 12.73621215934438 1.6271386116222564 12.724722975610812 -4 2 1
336 1 15.183287646294062 0.6712280873470999 12.345048289590316 0 -4 1
1258 1 13.63148855367829 1.6688268928868137 10.533401392326837 -4 0 1
276 1 14.562048558878866 3.362406291740524 12.150063082001807 2 -2 1
1965 1 15.976914310263997 2.188932102893544 10.488225147282348 -3 0 -3
1950 1 12.203332392704624 4.1865172497086665 12.896841072969346 2 2 -2
292 1 23.076606274300516 13.96556148766224 8.634391176156702 0 1 -2
1820 1 18.0051297581859 1.2074323647014964 9.879918899961414 -1 2 -1
1917 1 17.680546379903877 1.552679968516116 12.150269175487747 3 0 -1
1611 1 19.85881845209968 0.3965623062767917 11.41834671903728 -1 1 2
123 1 19.827195514476227 3.041272899605833 11.684464100573361 3 0 -5
567 1 16.886107188645976 4.041137489657423 11.907186711796868 2 3 -1
198 1 1.7523782620397343 13.801792903851913 11.014174753975752 3 3 1
1861 1 18.534480482720618 2.971573494615566 13.855412766796556 -3 1 1
70 1 17.809650162362683 3.594714833292922 9.566021119376181 3 3 -1
1041 1 20.15935405879506 4.503839163186162 9.477132851140366 -5 0 2
244 1 7.799447778374949 14.11576665445216 12.458756953128997 2 0 1
788 1 19.307672937685496 0.48130552718101416 13.902910048944788 1 0 2
129 1 20.74196339535896 2.0138843175874004 9.70835325852729 -3 2 1
550 1 21.218028762833693 1.88263713622624 13.219643160054519 3 0 1
938 1 22.348415632659385 1.0152066257592094 11.136052047658644 -2 -1 2
1638 1 23.58927470817718 2.8177626018859305 13.14169600630434 -1 -1 -3
1513 1 24.2207326426664 2.6512563255382946 10.81290372458092 1 1 4
1103 1 24.111321957154143 0.220288204587401 13.054513917836443 1 1 -1
1418 1 22.053071653103352 3.5423237032083774 11.449779243479636 -3 0 1
1618 1 15.736970004941861 4.926343893195569 13.86058727930165 1 4 -2
3 1 24.70505307063362 0.22459223236813408 10.633593072285166 -2 2 2
1151 1 28.385178450345506 3.0356645277402725 12.52282692221837 -1 2 -4
279 1 27.0019123501006 0.6732153633846855 10.798437911429883 -1 -3 2
1782 1 26.109102953072075 1.6895164957388777 12.645960199219976 -2 4 2
1529 1 26.649580088330964 3.3705267122584073 10.896872468416486 -2 4 1
558 1 25.510494452544016 4.228568472141821 12.69027893545325 0 6 -2
486 1 4.009992480956968 7.926547126933002 9.356945686000598 -4 0 -1
273 1 1.551098750933105 4.942237721450453 11.967826293698018 0 -2 1
1987 1 1.4510412905011414 8.626628919584338 9.488171979736002 3 3 -2
1538 1 1.6013155154597556 6.283212024844233 9.752846278956003 -2 0 3
1571 1 2.6062262265981677 6.523801628756927 13.774265824146855 2 -1 -3
359 1 1.2417021263468095 7.354288411550179 12.070302904835911 1 2 1
265 1 3.458859903018749 6.631019286192738 11.538869011425453 2 4 0
1463 1 2.1337691844300712 8.844095185498254 13.627262520037844 3 0 -3
838 1 2.969956930160185 8.977002112446888 11.544297900248418 0 -1 0
71 1 21.432528448511906 0.15101903352757323 3.3311292301350894 -3 2 2
1094 1 7.333419499704237 5.079442572657227 13.03889161398399 -2 4 1
1612 1 4.401290666957478 8.27187754191939 13.406458472212915 2 0 2
1598 1 5.854346031560324 5.798726536855294 11.002290661685146 2 2 -4
1629 1 4.826769587797498 5.9133581218504805 13.415907220145494 1 0 0
1971 1 7.00880115255541 7.405955571197264 13.147087155914447 3 4 6
1679 1 7.694060232467605 7.436984810232109 11.003321980447675 -1 1 -2
786 1 5.278628966905161 8.26197787703567 11.15245156203329 -2 -2 5
1846 1 8.386794144558277 4.801852604647837 10.984485405147613 1 -2 1
866 1 10.907074391110452 5.226102806408351 10.915683820321474 1 -1 2
503 1 9.356023214872474 6.302949100426704 12.733868258787373 0 -5 1
923 1 10.232276534588255 7.645598482203754 10.876246262628234 5 -3 1
899 1 11.676403400901073 6.729835675521114 12.67740358563082 1 0 4
305 1 8.91542824167337 8.93964052524176 12.51854989117951 0 -1 0
1745 1 11.342815444498136 9.37505739944385 12.755115101024446 4 3 2
1662 1 13.143637719179674 4.145192819319866 10.593505144364284 1 -2 3
340 1 12.7506698126661 6.792084715285523 10.090666526026638 -1 0 -2
16 1 15.452175214307129 4.8022143402843795 10.163899186169209 -2 0 -1
607 1 14.278741031210998 5.936800958439233 12.125312172342426 1 0 -2
140 1 15.232790712388427 7.274749512561383 10.165573679920282 2 -1 -2
1734 1 15.303478731791653 7.329173845088605 13.83487076237009 2 -1 4
1338 1 13.4368600622949 8.102434417313262 12.043974721068345 0 -1 -3
721 1 15.009160256837047 13.780382210508936 11.645129818377313 1 0 -1
1957 1 16.18192248938924 8.825214007725446 11.959812439868115 2 2 3
1083 1 19.77426755806708 6.98823569973663 9.52080366086394 3 -2 2
1748 1 17.430802966416834 6.040860916100739 9.522172076493918 -2 -2 1
1441 1 16.668811843055835 6.550992576391735 11.924913795455927 -2 7 0
1497 1 18.170615262607544 5.566950775822863 13.714489470053428 0 0 0