LAMMPS data file via write_data, version 29 Oct 2020, timestep = 300000

2048 atoms
1 atom types

-0.13487507917844077 28.486875079171426 xlo xhi
-0.13487507917844077 28.486875079171426 ylo yhi
-0.13487507917844077 28.486875079171426 zlo zhi

Masses

1 58.933

Atoms # atomic

473 1 3.0434749307551674 2.9432771410308884 3.663128088415462 1 -1 0
1324 1 1.495170690793209 2.009574487013477 1.8918583340373707 0 -1 0
800 1 0.40219475911463665 0.7875438753023067 0.2533581941666868 -2 -3 0
430 1 0.9476334316437003 1.341706914368209 4.193942227020461 -1 5 1
1296 1 3.2305693846300345 0.7295286022556217 3.8981542769080884 1 -1 -1
1803 1 0.5960937233571815 3.6225428012823526 4.079613028622245 -1 4 0
642 1 3.3604899818227425 4.1402747583825485 1.5513650282376763 2 2 1
909 1 0.9075959431980078 4.235490991383373 1.77316451785388 -3 -1 4
142 1 3.8351492585447846 1.6922108444280308 1.5796856747744459 4 0 -1
928 1 1.585035582210652 -0.10330762520877812 8.159650849598298 1 0 1
1454 1 8.089652287845855 14.113307798773162 6.348125828094906 -4 0 1
261 1 5.3305343992832706 2.067838554514575 3.389644137831138 -4 -1 3
1761 1 7.34863318836165 4.218938327481698 3.2094497173803136 1 1 1
1192 1 6.364044151761474 1.02008065917188 1.468468136420004 -3 2 -1
230 1 5.793734844100424 3.6710780341486773 1.3539639649620985 1 -3 0
280 1 7.7021069831295925 1.8132634314148586 3.2194708872554734 -1 3 0
1061 1 8.221860292922187 3.137658369882271 1.0920647577114975 0 -3 -2
1733 1 10.515180259200566 2.533035138905932 0.6340022101704212 2 1 3
290 1 9.985735946007338 1.6795398901253764 2.819511351769383 -3 0 -1
1535 1 8.678932649654955 0.4631587795686448 1.2114100882211856 -3 3 -2
1483 1 11.178884298778685 0.12087233987764445 0.549931676873718 3 3 2
861 1 9.617361751820503 4.2067692739951665 3.044537118711593 2 2 1
234 1 11.49072000803441 2.9463711792496037 4.613632136432049 -3 3 2
1518 1 11.885964730976596 3.5159713826332455 2.384944725640726 -1 1 -2
10 1 12.428965397410972 1.2775637490609801 2.3969042379668335 2 2 -1
1467 1 14.455343949124963 3.067762080298861 1.9601451876585076 2 3 3
228 1 14.83615488697932 0.9021434375699109 2.1964860314301893 -1 2 6
569 1 12.982185689040705 1.97104945330666 0.13957764233418152 -1 -4 3
1887 1 13.729973161550879 2.3114245124049337 4.156274689093635 -4 0 2
325 1 15.588243876660082 4.1410596212661535 3.681618373958307 -2 4 2
1553 1 14.359298545309809 -0.04262738082870393 4.445505597981939 0 6 -1
1590 1 12.007089901709012 13.609897248512366 8.13853100355909 5 0 0
311 1 16.054001656255764 2.016731901157289 3.933467446474853 1 3 0
1101 1 12.336317667000849 4.277580894917069 0.2214637033520147 1 2 3
1424 1 19.13128013895802 2.3268880745978433 1.3544095999998704 -1 0 -5
252 1 18.587175771113543 1.6134279189701548 3.60559096973196 2 0 -3
1228 1 17.188169759208378 0.4196498639953874 1.8464762473389558 0 1 0
836 1 16.769669474505747 2.571345292024441 1.760387114986193 0 -1 1
347 1 17.98911897255146 3.886009523692559 3.352139606229917 0 -3 3
83 1 18.716475672478325 4.586094189086433 1.235295195232245 -2 -1 -2
760 1 20.538778348042655 3.40911059369164 3.1106713596176827 0 3 2
1159 1 23.068730009752997 3.1995299642413904 3.0633397985534168 -3 3 -2
1822 1 21.78421920304053 1.9025899828367412 1.2034622052654091 -4 0 2
71 1 20.978639199124757 1.021374322422868 3.4973535759875163 -3 2 2
672 1 23.507500381558756 0.6174139365798202 2.9295931434477005 0 5 -1
670 1 24.135698059443122 1.63696329977182 0.7636366733483875 -3 2 -2
1664 1 23.465572059346755 3.9279741311072245 0.7271501051564788 1 3 4
813 1 21.082580721448586 4.449661974619072 1.0450008744040575 0 0 6
1599 1 27.76402074879097 2.323526708554797 2.4469783292606526 0 -1 -4
499 1 25.409397102550656 2.777471749462458 2.6168680054288322 0 1 3
1841 1 26.654107488562786 1.2340373173496202 0.6248625013045838 0 0 2
332 1 25.913434006792748 0.36757365797545993 2.83570847871777 -4 -1 1
1687 1 25.88647812949162 3.5095421972627348 0.3900767007627691 1 0 -2
1139 1 27.08018516046058 4.593929272670983 2.1655479441691643 0 2 -1
525 1 28.27129582807364 3.154151743828328 0.1910725771737078 -4 0 -3
2043 1 2.312432304119648 5.295796769109153 3.6413858031415267 3 4 0
355 1 2.798004114159506 6.382298786534928 1.5347804893027586 -1 -3 1
317 1 1.7429997970451232 7.555172878839703 3.6647287926463106 2 -3 4
35 1 0.4378347152954908 6.7372906603028255 1.6922070720789575 3 3 2
1473 1 2.487073710360557 8.845941154103704 1.4537561015862444 -3 2 1
2011 1 28.398709605395442 5.799497367763169 3.6747071631808845 0 -2 5
693 1 0.06996245802760925 9.101912924784779 1.7551828328584755 -1 -1 2
175 1 4.979015916955557 4.520863457224364 3.6536479703639166 0 0 1
1953 1 5.063262101437084 5.8790495842963075 1.0143191884315437 0 0 0
132 1 4.145358796802749 7.100225769199839 3.3676924496655003 3 -3 -1
1660 1 6.476330235867278 6.554140854212814 2.661091837615416 4 2 0
1493 1 7.26880810815496 7.824966916968267 0.6249521340650076 2 -2 -2
87 1 6.137808601346395 9.037742330777931 2.927466044895097 0 -2 5
242 1 4.708771999271532 8.132248261917614 0.9986576073449562 -3 1 1
197 1 7.722313663309813 5.422534770467577 0.8397126258007696 0 -1 -4
1092 1 10.117369371185175 4.965421174593525 0.6702823591115145 1 -1 -2
1717 1 11.334220656409666 6.188683737638893 2.341879981647753 3 -2 -1
1395 1 9.040226062122024 6.618744432466209 2.8486575722978174 0 1 0
726 1 9.680320404783501 7.338120888757451 0.25432339967865075 3 2 0
338 1 10.878914596394235 8.54339938259858 2.1924823321286935 2 1 -3
1246 1 8.532883488298141 8.96865277459389 2.6136303718518796 1 0 -1
1465 1 10.358313947054073 7.935923073747201 4.426305707430364 2 1 3
646 1 11.971575038850096 6.790328174633157 0.004827160335285519 0 -3 0
605 1 10.814890087282212 5.469407437278521 4.663302052659811 3 2 2
1651 1 13.324908725127525 4.785820757342484 3.95811033157553 2 2 -1
60 1 13.765747073858284 5.592322021436305 1.8550900538158783 0 2 0
2012 1 12.722668347406689 7.178623926506914 4.093081249131712 -2 1 0
6 1 15.249913909344924 6.567407302617125 3.6145067212594797 2 1 4
1269 1 13.278382119253074 8.001926310902673 1.8539330571629393 -4 -2 1
651 1 15.784839228721808 7.42916622534186 1.5726933729391999 -1 0 0
689 1 14.696762749417386 8.90341201332897 3.7131814674594557 0 1 3
507 1 16.428316037569495 5.112713691701665 1.463179515808432 3 0 -1
1323 1 17.518617916807408 6.236569303723922 3.394160172082239 -5 3 -1
965 1 18.064320241542312 7.051299070083503 1.303260262865096 0 0 1
687 1 19.286402648634514 8.151896324691954 2.916949359233392 3 -2 -1
1339 1 16.92650043421164 8.44370357747027 3.316454921330404 5 0 2
1449 1 19.882656704789717 5.8090034236802195 3.159469106915486 -1 -2 2
858 1 20.27372437442716 9.191868497398229 1.1070303410482114 1 0 1
382 1 20.41143167060617 6.820035789952654 1.0466982275658896 -2 -3 -1
1777 1 22.281572169949847 5.450122357405911 2.8132231155470624 -2 -1 1
370 1 23.149405657727982 6.328203943782693 0.7186485610350167 1 3 -1
1035 1 21.736170404719637 7.724693283629569 2.845654782546951 1 -3 0
1656 1 22.512257809159813 8.596367665496885 0.80498056773285 2 1 0
1981 1 23.104614895330812 9.002695903853706 4.590533444624158 1 2 -2
960 1 24.306362993924616 7.365199569543835 2.5053913303831825 4 0 -2
1751 1 23.73420092575543 6.403382259537599 4.78998998269518 1 -1 -5
570 1 28.012758160885134 8.13078380587703 3.8388895351789167 -3 -2 -1
426 1 24.767972650650457 5.021072741311277 2.4518527654455546 3 1 -1
1309 1 26.740356917041893 6.979208294985298 2.0853522236180857 -3 -2 4
455 1 25.434539407697343 5.851810847516527 0.36260493787514714 -1 3 1
1646 1 25.540427893831833 8.302979833374659 4.3342229312229 -1 2 2
596 1 24.967287234139064 8.358676215741351 0.41232807545059347 -5 4 1
595 1 27.97612188330322 5.502747899420712 0.08702441862655405 3 -3 2
772 1 27.25478069157611 7.7860852016913915 -0.0032998652017099117 -4 -1 2
568 1 26.266584375373988 9.460490063302517 2.1345761167062007 0 -3 -3
1712 1 25.99048740054034 5.931061046328166 4.3196158035416685 3 0 2
23 1 3.777938394577718 9.63312326940418 3.3767448297773153 -5 -2 0
454 1 1.3093178699161498 10.048656020142104 3.669346440628085 1 1 -1
1251 1 1.7379276831615893 11.213197195900825 1.5131401774898574 -2 -3 0
1826 1 0.8556415869458025 12.44615988194185 3.6470476925227167 -5 2 -2
623 1 3.39347168034292 12.124396047860456 3.25563623454253 -1 1 1
634 1 1.4543010184271847 13.50110724236228 1.4431250142098102 3 0 2
1848 1 3.9217122023265647 13.154268459821395 1.0891728469881898 1 1 1
1115 1 4.348325915449796 10.772575254728844 1.1571712467617457 2 0 2
1419 1 5.089372422292907 14.04316550488392 2.915681244206531 4 2 -1
859 1 6.741560227968589 10.354006515786837 1.0664080772807532 2 -1 6
476 1 6.226861829318793 12.682528330737812 0.637813296660628 -1 0 0
779 1 5.830462646065469 11.704564548975926 2.8961460230982796 -2 -2 5
1536 1 7.7137210238223455 13.777488749198806 2.631710806318675 -3 -1 0
1961 1 7.23519869916329 12.510681631295384 4.693627904113177 1 -2 3
1266 1 7.698757885327972 10.031923746033064 4.675582848037876 -1 1 3
1194 1 8.264601442303096 11.363983753724996 2.6774637116006845 0 1 -4
748 1 8.65035054602211 12.403794640319212 0.4827255999744282 1 1 1
8 1 10.591250661428566 10.815236675717804 2.1246030589776277 -2 -1 -1
1462 1 9.719837972833615 12.99118431177769 4.408488828267856 -2 1 1
69 1 10.040845719621057 10.631545266847985 4.49684594035679 1 1 0
327 1 11.926125823125679 11.997484648962585 3.897597471090931 -4 4 -1
250 1 10.125087591506103 13.165357560335952 2.0550957329415596 0 0 -1
1173 1 9.10218382153534 9.80487880136645 0.3598451634659516 2 -4 -2
633 1 12.338283871326967 9.586579666195249 4.008165406712346 -2 1 6
1990 1 12.372911095158184 12.720357753966576 1.5067372940314547 4 -3 0
1925 1 15.356226823430669 9.798328394471604 1.4885838237540823 -2 -1 -1
1903 1 12.97479359341033 10.410724985987443 1.7541933722894807 2 1 -3
1122 1 14.455208597448134 11.201214243072213 3.396510183006681 0 0 0
2005 1 14.726727035756094 12.2994946372175 1.165013728446284 0 -2 -1
746 1 13.902542412231464 13.591401096202844 3.446595597065471 1 2 1
1163 1 16.11583834694045 13.26270564987358 3.06981709156301 -3 -2 -2
1576 1 26.31089098371627 12.464873656457915 -0.09512582084965526 -1 0 4
985 1 17.865424880694754 9.473007742665601 1.1608889899584245 5 -1 4
1791 1 19.190759750483437 13.760884817802596 0.7457100488161292 0 3 0
600 1 16.77411044307199 10.88802691364345 3.2487896892505908 0 -1 2
1700 1 18.971585275664708 10.50284945475285 2.9882158738300935 -2 -1 0
1496 1 18.43278793626981 12.953763074469565 2.9659429299661513 2 -2 2
1118 1 17.328962264454546 11.807346017738478 1.1311424965642582 -3 3 3
1494 1 19.486904330391702 11.553826901459383 0.9675659724607171 1 -1 4
116 1 20.89349809428709 12.619261879163018 2.685903198655304 -1 0 -1
999 1 23.820050460394846 9.781141290193023 2.470863287423438 -1 -1 1
1985 1 21.464109775603013 10.262847993369451 3.0214985280355036 1 1 3
389 1 23.272197378501033 12.098674534909815 2.3783677212192145 -4 -4 1
289 1 22.002104651785032 11.14421215994181 0.710978575036876 -1 -2 0
1541 1 21.558595800792574 13.480674808344785 0.3837023187725359 1 -1 -2
921 1 23.858929547190897 12.940510622736534 0.20791473245119185 2 -1 -1
566 1 22.259816992383925 13.606716591427416 4.553969093438931 -1 -1 -1
106 1 22.83341207007018 11.296340049020259 4.743189180001763 -2 1 3
1750 1 24.994210562022168 14.01673042582377 2.0486737463921285 -4 3 1
445 1 24.355213637351007 10.711237149347738 0.38576875564374014 -3 0 0
1696 1 24.708152687962226 13.088690790280383 4.386858947138159 2 0 1
890 1 28.084177522535654 11.435565668965902 1.7252497092943742 -1 0 5
120 1 25.20187980992243 10.613283291077062 4.6221794978518265 3 -2 3
1196 1 27.60549843531524 10.5012322417475 3.9768929232423282 -1 -4 -2
1698 1 25.834717167821218 11.823255023718918 2.5630168196901817 -2 -2 4
1278 1 27.216749026881857 12.898456576456065 4.048192746331298 0 0 2
603 1 27.485255410475936 13.797870853274013 1.8173167409063637 3 -2 4
24 1 27.061614823752386 10.141683297147738 -0.03450325884125788 -2 1 2
1495 1 0.284066198970407 0.4303597311418592 6.264734358532182 3 3 0
711 1 2.6002420819521563 1.3045852021630429 6.0987337293864154 4 2 1
1582 1 1.9591453393606226 3.9555873639972017 5.976507212762413 -4 -1 -1
313 1 1.4173341667588162 2.4827483686020773 7.920208700882007 3 -2 -1
1123 1 3.780409727514261 2.7621514424180202 7.9165100317105885 3 1 -3
82 1 27.424309323916397 12.284631931525666 13.962906295112154 0 1 1
1913 1 4.937984862553088 0.6483782636954722 5.687140805290584 3 1 1
1109 1 6.789408048283903 3.5632574512864372 5.407065706168657 4 1 -2
1811 1 6.098582671791842 2.1540603651273655 7.368772780854739 0 2 3
1256 1 5.427602289399331 4.6603591198675955 7.332194476203496 -2 2 -2
1658 1 4.415353614813051 3.2169006880216626 5.495871348114403 -2 4 3
1793 1 7.0982335907177685 3.6621305115720957 9.134049431003607 3 0 -5
822 1 7.405610181508489 1.1594328754102474 9.264149154473296 0 3 -3
1459 1 7.402545198183327 1.1677693605229076 5.459113005063845 3 1 -3
386 1 3.8229498866538547 0.2542473514984936 8.12756733277334 1 -5 -2
1650 1 10.555594294099624 1.717743703853537 6.66334716565512 0 -1 -2
618 1 9.11733240746786 2.904749152677584 4.93298160395617 -2 -1 3
1799 1 8.492535715124557 2.5674907674002028 7.4518565673032064 0 0 3
1830 1 9.924065131680724 1.4489145519743174 9.006101493990704 -5 4 3
868 1 10.229171349479039 4.107191657637948 6.620925541956598 2 2 -2
531 1 9.541952032421698 4.042750013974382 9.117793572578199 0 0 -1
1699 1 12.004364002785321 3.1208592053432134 8.370533265540928 0 1 -4
1974 1 8.656516438884113 0.1142983160064373 7.274441540752715 0 1 3
184 1 9.608355668185213 0.42983742241918654 4.7673991143102965 4 2 -3
1909 1 12.153601915750608 0.5982182935843728 4.813800047672212 3 1 -3
814 1 12.251780811274008 0.6676985034000946 8.42963878985788 -3 -4 1
698 1 14.629671747433953 0.8859297908022079 8.311343935961153 1 0 1
723 1 13.179968595525242 2.071939149358161 6.5157372708830925 -5 -4 -2
483 1 15.760957511827469 1.0685325699516297 6.0963100355961855 2 -4 1
975 1 14.260039907409386 3.675301600785242 8.190480237205017 0 0 -3
1583 1 14.91642472387754 3.6633989443831525 5.917590120324437 2 1 2
1064 1 12.559610008382506 4.515890474749949 6.2668636581339925 3 0 -1
1168 1 17.21784202257883 -0.10662898708986202 7.969706625139333 -6 -2 0
1653 1 17.46701905207415 2.8696743428151334 5.786546495210185 2 2 2
783 1 18.683207652670568 4.059128531750687 7.542150102254453 2 -1 2
554 1 18.173815286543878 0.5494440566705179 5.654511456523786 0 2 -3
1381 1 16.601238095391956 2.466519412798571 7.884077517110386 1 -1 1
1127 1 19.145271676524096 1.8320799142947704 7.53177092443536 0 3 0
1028 1 19.802439234217324 2.6470516312191923 5.346960855255039 -1 1 1
331 1 20.407319616748687 0.1954630252944176 5.6775792359307085 -1 3 -1
537 1 23.858692462318544 0.7320790288164214 6.861229033171578 -2 -2 -2
189 1 22.13307137196295 2.2736702169403236 5.247030525123133 -1 -2 -3
1238 1 23.57696991402542 3.161936539364525 6.839385549415893 -2 1 -1
1740 1 21.01762640563875 3.711066015953138 7.141774600969873 0 0 0
1867 1 21.583785402020844 1.3574611788491981 7.422162603225943 -2 1 -2
2022 1 24.405624557633153 4.122477787149912 4.81906670629439 2 5 0
154 1 21.679051258638175 4.527912458018111 4.958024562434919 1 -3 1
48 1 22.568187485729204 3.6171760304287783 8.98062916923673 -2 0 -5
1922 1 23.315444881598914 0.992187271893296 9.140608350589867 0 3 2
1041 1 20.62073975183094 2.572204504376718 9.54140761706115 -5 0 2
1074 1 27.090836725892416 1.3723928580231535 4.64916260517206 -2 2 2
1749 1 28.315212033141687 2.709885806148425 6.177779451122796 4 -2 -2
1371 1 26.672157269242533 3.5561635888753287 4.479753329403269 2 1 -2
1435 1 26.364054645345945 1.5886808599402675 6.771173853531297 -2 0 2
1075 1 27.563514663176335 3.371518658587369 8.58152175407415 0 1 -5
1303 1 25.073383224428618 2.634432915679673 8.59703722137621 -1 3 -2
1476 1 25.872948270534152 4.152563113159805 6.769178672976532 4 1 1
26 1 24.57947569593029 1.760560068398638 4.854754947308386 3 3 -1
1906 1 28.056620555251364 0.8776675154359439 8.613769714007484 0 1 1
655 1 25.825305292289634 0.14236547701983232 8.728832483807937 1 -1 -1
440 1 0.6059268886514978 4.900850590968295 7.996095357788603 1 -2 -1
365 1 2.8956264006532706 5.546315322692243 7.856465365366271 4 -3 -1
101 1 1.2364855817293314 6.551207992651388 5.954019725846997 1 -1 4
1336 1 0.9666345995687382 8.985994487544952 5.892852176439906 -3 -3 -2
1639 1 2.413558306265035 7.9151850809472535 7.699613809979161 3 4 2
1893 1 0.15226541129850085 7.522993820813002 8.014541367055 1 0 2
2007 1 3.3037475826601517 8.285004552319675 5.405405273300558 0 -2 -2
400 1 3.6140319747529235 5.722286822098016 5.544086541101176 1 1 0
1828 1 7.956848097910914 4.85748797786839 7.2778578842901425 -1 -4 -3
1263 1 6.089681167340196 5.948576718190519 5.16157005690124 -3 0 -2
232 1 6.383812817273755 6.111896538100797 8.933021698852098 -1 1 -3
1883 1 5.6928526653944225 8.240743885699834 5.064143408091491 -1 1 -2
208 1 4.789095541723547 7.09676720139278 7.22677161722204 2 -3 4
512 1 6.03175070387712 8.53483304924671 8.727550085324213 1 -2 0
937 1 7.2815105699575815 7.276144179172572 6.9693526283704665 3 2 -1
1308 1 7.84360572348617 7.633690018728899 4.638659393919688 -4 0 -2
752 1 8.482896741021202 5.333635912516162 4.985613175394139 3 1 0
1299 1 8.423805325188676 9.045670603618424 8.860086068851317 -1 0 -4
1719 1 9.719743157833376 6.698417230203483 6.582930514919198 -4 -2 1
1728 1 8.81915992990062 6.550742946529993 8.79437649791443 -2 1 2
438 1 11.204586451001019 5.617387337284965 8.33043759650427 0 1 2
492 1 10.73292077048362 8.038838163587698 8.404132842003797 -2 2 2
745 1 9.091859387611748 8.97265801710406 6.449141591123811 -1 0 -2
1156 1 12.035738792769749 7.138186745461345 6.377379642280891 -2 -1 -3
513 1 13.671534786947202 6.113714896609163 8.012255028560185 0 -4 -1
130 1 14.42366046740669 6.17653529908514 5.725632468400824 3 2 1
1758 1 13.781929512446647 8.491851298918446 6.005326212681204 -3 -1 -1
474 1 13.241404221440813 8.581479959801802 8.314585498990139 0 -2 3
351 1 15.662664996081066 7.437202309213518 7.7948673090921705 2 -2 0
771 1 16.248759069965523 4.981639755402547 7.662404338607185 -3 2 1
341 1 16.434624480280334 7.545286877346337 5.5630129651938836 1 -1 -1
249 1 19.28770553697985 4.881520952726805 5.310128065547558 3 3 2
1730 1 18.083550469866886 6.595013881111448 7.450593538624687 -1 -1 -3
811 1 16.926451733533263 5.156064704838797 5.517439989299399 -1 1 -2
1268 1 18.944308232918644 7.208834621087005 5.145841216339694 -2 2 -5
593 1 17.44194837025143 9.006955466978877 7.366842876748509 0 -4 3
1969 1 19.86307713870149 8.617705150904518 7.022394557800518 0 1 2
227 1 19.810467714378127 7.326375517607795 9.29604700388702 0 1 1
1083 1 20.14610146832129 4.939607583137838 9.36061227516631 3 -2 2
888 1 21.34480052470027 6.933196633457777 4.88636595841365 2 -1 4
1851 1 22.83293726060159 5.396628481304617 6.764085850949689 0 -2 -1
1722 1 20.53644626318043 6.2620838413803845 7.225024734719212 1 -1 -1
997 1 22.414164875132407 7.868074594863051 6.8177598928103675 0 -2 2
1076 1 21.575522667735214 8.997820421270953 8.94989625528596 0 1 -2
1095 1 24.128106963449873 7.77060387069629 8.523429513914548 4 2 3
891 1 22.308634078626284 6.230705224887672 8.886133031550743 -2 1 0
25 1 20.619546939117498 9.18838185178816 4.8312380353809825 -3 3 -3
1628 1 24.541162506183035 5.1567667345793 8.567079257633232 1 2 0
1436 1 27.97531628204517 5.031457703460464 6.0695755491105405 2 4 2
1572 1 26.90559745273879 6.0034647433976405 8.269298674041439 3 4 1
639 1 25.040986009809913 6.664280686126089 6.559754570937897 -2 -3 2
1666 1 27.48604906417021 7.476531682340167 6.112397394665036 -3 2 3
1279 1 26.32454098298527 8.330509647120568 8.382839382731387 -3 -3 0
1388 1 2.085115834595993 10.30099088449969 7.5689168115149155 -2 -3 3
1393 1 2.8615171485829083 10.72698785358829 5.3150762071675555 -2 0 0
1890 1 0.3117334856940013 11.420973043025068 5.746748350224705 0 2 0
1591 1 1.4559043228884165 12.843326293264061 7.809091706347028 -3 3 1
399 1 2.1775351744477285 13.268962978912947 5.5213631096776705 -2 0 2
1946 1 28.456150833780207 13.807409589699315 5.86636425456523 -1 1 2
989 1 3.821422988597652 12.194686400435303 7.114372959896789 1 -1 -1
833 1 0.08358053334936902 13.91940798580852 9.6147976149931 0 0 2
720 1 4.511164126290661 9.654116722858733 7.064520174993316 4 -1 3
983 1 7.072312466504829 9.673957110521702 6.903477132651549 -4 3 -1
1592 1 5.346507298094322 10.836905810443747 4.963217712596079 3 -3 -1
544 1 4.549607727915863 13.177187642157172 5.184991030806989 1 -1 1
1721 1 5.508446933719613 10.890835333546402 8.807464157001139 2 0 2
1474 1 6.328922197407855 12.397678339985795 7.069009209788163 -3 -3 5
1780 1 4.971399095384573 13.525250893115613 9.010004128419416 3 0 1
141 1 19.682705955074034 0.059494342019768 1.7022544272442408 -4 -2 0
599 1 7.927387164222186 11.469115884662145 8.650871355529256 -2 -3 0
757 1 11.335659176018039 9.498029547734296 6.346518461268627 2 -4 -1
563 1 8.780947490893466 11.588551698181327 6.458062008206073 -3 -2 2
1862 1 9.6763789610125 13.12651728582884 8.17641247387198 1 1 1
1389 1 11.232527229181775 12.129918728645313 6.387408586353517 1 2 2
562 1 10.192397731466608 10.624024211177568 8.316602624134308 -1 -2 3
224 1 15.152617545366144 10.069216683528035 7.523749343002683 -3 -2 -1
434 1 12.680002143489475 11.13389385255879 8.08460474295779 2 -6 -3
1484 1 14.362548520112878 12.755985254228605 7.4288647846377645 -1 2 -5
76 1 13.442081358156056 11.166770390333923 5.820825807206342 -1 3 0
1617 1 15.330993189352993 12.220634095185142 5.308987457449237 1 -2 1
502 1 12.985937112814673 13.601917290458177 5.60406188209038 2 0 0
1918 1 16.02946032583339 9.94854945231195 5.396281190048841 0 3 -1
1743 1 16.273328747314743 12.595301798898054 8.976236507359141 -2 -2 -1
315 1 19.804698313644856 14.116779187859395 4.8618635502988825 -2 0 2
511 1 18.246042224660883 9.430583936298126 5.0398921725701245 2 2 3
1685 1 17.166849773851816 11.392047210638838 7.112084724379703 4 -1 -2
402 1 19.47729118754461 10.698356366965372 6.810743294262542 1 0 -3
1833 1 16.65029664702614 13.868363061739979 7.094604794827548 -1 -2 2
1022 1 17.958757036247754 11.947877876037694 5.008006410969652 4 -5 -2
1908 1 18.910026682516225 13.079090947195388 6.826963334174115 3 4 -1
931 1 18.570289605789796 11.973840977050735 9.001455204652919 1 0 -1
47 1 19.217386136121284 9.659807034039012 9.136185033485006 -1 0 -4
1578 1 16.745520677546466 10.245106119109085 9.352063570830541 3 -2 1
178 1 26.961894702077835 12.44692515431603 10.246782503856217 -2 -5 -4
246 1 20.410977708543683 11.62300898970347 4.772861995974351 1 1 -2
536 1 23.47695910935944 10.571968635483026 8.360285270855725 -1 -2 0
1116 1 21.034187818881158 11.369091237283536 8.633015472544423 4 -2 -1
195 1 21.94589665324453 10.0456407100596 6.572323137405939 -5 -4 0
292 1 22.89670801384402 13.075186667410003 8.462373491680635 0 1 -2
770 1 21.43502266065976 12.504881207599531 6.602829737557656 3 -1 1
625 1 20.460130158886322 13.918976919969447 8.656357876236783 3 -3 1
2034 1 24.0298938610861 11.962427245519088 6.582813750736115 -1 -1 2
1197 1 26.883309201829654 9.823071292291669 6.126940683573521 -1 -3 0
1353 1 24.580516777568818 9.241053821146163 6.623660279162399 0 1 2
606 1 28.320148520682125 9.968772388107839 7.801614821250332 3 0 5
307 1 25.9282255128334 10.878032634255245 8.290982365753237 1 -1 1
1029 1 27.724584657554935 12.468757718441571 7.822594070710582 0 0 -1
1565 1 26.38272894289112 12.055911251242948 5.98430799211466 -1 1 1
418 1 25.487338187477334 13.281944702852337 8.206081364431764 -2 1 0
1229 1 23.664616219824076 11.70195032482748 12.340655375395686 -1 2 1
561 1 0.8761562734069264 -0.13387715887002982 10.605106493253539 1 1 1
873 1 2.037992431064052 1.5716167219140211 12.239363570216852 -1 -1 -1
1363 1 2.711895423767313 1.6478102314667613 9.82758580097143 -1 0 -2
1538 1 2.2949992306831972 4.058853915714811 9.83078402363546 -2 0 3
68 1 0.49546695058875223 2.366760083184754 10.339876118284415 -4 -4 1
273 1 1.4683649534803929 3.9230304037179673 12.175993416510513 0 -2 1
1816 1 3.850378365440516 3.082909291996025 11.536755131654497 4 4 -1
1219 1 3.0569088488833165 2.9469668211205984 14.163619945398187 2 -2 1
1069 1 24.97949248690029 9.399652708651077 10.139867416124034 -1 1 0
1128 1 4.292167194930117 0.545410116284748 11.58939279693088 1 3 -2
1267 1 4.697303247413508 4.395424525647505 9.809304188400896 0 1 0
792 1 6.695358786732935 1.2165786494690594 11.583525353759905 2 -3 -1
731 1 5.176726933190235 1.9487490545532498 9.765771899392773 0 -1 -1
188 1 5.307015722488342 2.1746406568007637 13.323834307680276 4 2 2
1598 1 6.185706147520032 3.6026130130635345 11.518253330788031 2 2 -4
1094 1 7.741896556607185 2.5658323700587693 13.475211915963207 -2 4 1
1629 1 4.785050997538699 4.732771564993917 13.292544844041522 1 0 0
778 1 9.136641634385954 0.19768914869051818 10.94271141335872 4 2 5
253 1 11.703412855212742 0.79415715704633 10.773156194982626 1 5 3
1321 1 10.119316352485692 1.87760695340741 12.677373734994747 -2 -1 2
1846 1 8.553487468093856 2.5630585332581894 10.886790880487347 1 -2 1
866 1 11.179437554982893 3.1920680883012507 10.68510194695211 1 -1 2
503 1 9.726685780637782 4.450277472203144 12.71500375610576 0 -5 1
774 1 8.293825263627522 0.15898907243392246 13.16493702296247 1 0 -3
235 1 22.144280805450904 12.818801779170752 10.586522268411871 1 -2 2
1950 1 12.43287671513631 2.5639506137368375 12.76642890222693 2 2 -2
276 1 15.053210257907752 1.6443997841443316 12.278911541349638 2 -2 1
1662 1 13.61315623445443 2.3081996814016095 10.108315413210443 1 -2 3
16 1 15.833636845391311 3.6960433424137213 9.91414977904699 -2 0 -1
607 1 14.425855492927425 3.9747911480250995 11.892296160159106 1 0 -2
1618 1 16.196217498885723 3.5196184700348625 13.963494969325492 1 4 -2
498 1 13.242231565836079 0.022254320696773855 12.559864563552626 -4 2 1
1965 1 16.20415613531931 1.3376819949108478 10.130176234104542 -3 0 -3
1820 1 18.82409368325758 0.7527176850603442 9.652374213091845 -1 2 -1
1917 1 17.731834140663906 0.34887270392905273 11.909088980258636 3 0 -1
70 1 18.09845180544491 3.1345055728515683 9.77191833628257 3 3 -1
123 1 19.79943059366547 1.9787932001717143 11.816608467350074 3 0 -5
567 1 17.165878751995145 2.631027716530485 11.861230383517432 2 3 -1
1497 1 18.595394631130546 3.702076496239094 13.551494331237516 0 0 0
1861 1 18.903866446465543 1.1653254330178084 13.86937912652421 -3 1 1
1178 1 19.24666004070299 4.515165715873919 11.424463941065175 -1 -1 -3
27 1 16.399880543558304 1.1798918720060905 14.082767712199706 2 1 -2
129 1 20.96611417937394 0.21601768693320555 9.56865167623178 -3 2 1
550 1 21.47458115489281 1.0560735201630178 13.422719000231737 3 0 1
938 1 22.32242316972792 1.6829227383100736 11.29446669638927 -2 -1 2
1638 1 23.659778928424778 2.853488727321587 13.04160821327363 -1 -1 -3
1418 1 21.789003668983185 4.01940384168053 11.104539671628832 -3 0 1
1864 1 21.247288167072817 3.328534095520477 13.346297700037647 1 -4 -1
1103 1 23.92688541019853 0.4338817441498064 13.39760524263223 1 1 -1
1513 1 24.312414894615465 2.8372003695820123 10.730167462328076 1 1 4
380 1 28.07794164746911 13.819280939928877 12.174060966741294 2 1 -3
3 1 24.91467237553084 0.0778902784490407 11.037438605792605 -2 2 2
860 1 28.320980698195186 1.0136591168472036 12.31233812002884 -1 3 0
1151 1 27.536140409871408 3.7246266462357966 12.111045869742009 -1 2 -4
558 1 25.213354151367284 4.507467358426063 12.614543627405862 0 6 -2
968 1 26.195401985732985 4.638825451997354 10.272795644927847 1 1 4
1529 1 26.666828982575026 1.8835741079193884 10.43870700836456 -2 4 1
1782 1 25.883693900721525 1.9157759465017272 12.718020507961285 -2 4 2
1158 1 1.2366046352064473 9.120131114156697 9.676177729082085 -2 0 -2
265 1 3.3756252712795014 5.562419976437796 11.509444767039437 2 4 0
1571 1 2.4667158657255666 5.541546332087093 13.906284294420866 2 -1 -3
1987 1 1.6558247697711017 6.485032573670215 9.792902859651202 3 3 -2
359 1 0.9165619384379531 6.571755999311222 12.156693341286338 1 2 1
838 1 2.8717053423609213 8.054099523151741 11.45914883877581 0 -1 0
1463 1 2.133448175275061 7.7630388819418785 13.901391733673039 3 0 -3
1397 1 0.5685089350261714 8.937820021644347 12.050044185825216 0 0 -2
1813 1 0.09038659934406804 5.124595699021152 13.956610449196859 0 -3 0
92 1 3.815846273922262 9.324804390936336 9.458220389828849 -1 2 -1
394 1 28.45369579783805 5.083499165839112 10.216239783537521 -4 3 2
486 1 4.0450712878089625 6.7697919852774975 9.532584114275926 -4 0 -1
1971 1 7.321810800510921 4.94469743654446 13.299688469083836 3 4 6
786 1 5.789292471477204 6.006479251683177 11.627977588293586 -2 -2 5
1612 1 4.258821265480283 7.157911237862658 13.370794202296995 2 0 2
1934 1 6.689200481287121 7.589513305589663 13.252102498471025 -1 -2 1
1231 1 5.36269656223229 8.35612728661862 11.186301173457712 1 0 4
1365 1 7.501101943543532 7.493954279820155 10.802865183511377 -4 1 1
1679 1 8.028047685167346 5.075691229741085 11.00838817773386 -1 1 -2
923 1 10.400956712792802 5.839995402458962 10.724589074914668 5 -3 1
305 1 9.044793452176945 6.806908335483337 12.65173480988159 0 -1 0
1745 1 11.493357749385293 7.465382626667675 12.474148909228044 4 3 2
1149 1 9.943311781063796 8.255554540761763 10.741999589463298 0 1 -2
856 1 8.385232564314899 9.175916554466669 12.614377887216651 0 1 0
899 1 12.123526271537397 5.0017247824622135 12.332485944972003 1 0 4
275 1 27.398495815171913 9.843339133381004 10.082525015922517 0 -1 -3
340 1 13.093284688366996 4.819553144221627 10.174563926156791 -1 0 -2
1676 1 12.36475257975016 7.10678046344373 10.241943538575656 1 1 -1
1756 1 14.740822417036991 8.276685889766888 9.99770631409432 -1 -6 1
140 1 15.283184078802876 6.0506541245702286 9.83697476597359 2 -1 -2
1338 1 14.013589807508467 6.541541892081587 11.978672509403626 0 -1 -3
959 1 13.412668113640638 9.181743959316487 11.811636705619662 2 -1 -1
1923 1 14.949717140616222 8.383120570816848 13.509768461052023 -1 0 0