LAMMPS data file via write_data, version 29 Oct 2020, timestep = 300000

2048 atoms
1 atom types

-0.07384561859255356 28.425845618583192 xlo xhi
-0.07384561859255356 28.425845618583192 ylo yhi
-0.07384561859255356 28.425845618583192 zlo zhi

Masses

1 58.933

Atoms # atomic

473 1 2.91762408077454 2.515861724327698 3.934383493540925 1 -1 0
1324 1 1.621923464710165 1.759515433662933 2.081148769770655 0 -1 0
1803 1 0.5799784129430274 3.065935345382682 4.3389457036154075 -1 4 0
909 1 1.0345087120213872 3.967059768033466 2.084346038704138 -3 -1 4
642 1 3.7149328745631665 3.589261786244235 1.8450455309817504 2 2 1
430 1 1.0380284804630786 0.7666120763267535 4.296963764141034 -1 5 1
800 1 0.2260024972361418 0.7023436720117544 0.3357673799366754 -2 -3 0
1296 1 3.5738022792628725 0.32408283116552766 4.284090603060513 1 -1 -1
630 1 2.657881402957677 0.22758207701769922 0.12340067342511127 -1 1 -1
142 1 4.055142132013627 1.2856884142224627 1.9668967616636874 4 0 -1
261 1 5.534671429464666 2.350651399638852 3.60724009881322 -4 -1 3
1761 1 7.467439815260823 4.230933761805581 3.082351056644488 1 1 1
230 1 6.05101826878264 3.240263738221132 1.365464009258732 1 -3 0
1192 1 6.446012340810566 0.8409992952524723 1.7379548235151843 -3 2 -1
280 1 7.953252310140202 1.897472373085308 3.322193392184428 -1 3 0
175 1 4.950627764655199 4.745429764980369 3.596874343691439 0 0 1
1061 1 8.594739197965328 3.037895706025584 1.2140366895654764 0 -3 -2
1733 1 10.850607618853845 2.427610908509756 0.800426568951532 2 1 3
290 1 10.416992994594315 1.977890485648309 3.0407168936421614 -3 0 -1
861 1 9.877620398695347 4.337933204931303 3.04279609271518 2 2 1
1535 1 8.998288837980256 0.6071464401246358 1.3748094291266006 -3 3 -2
1483 1 11.265256521440472 0.19714131551228442 0.6632965290055197 3 3 2
1518 1 12.203950389520895 3.588319496388168 2.5391589659388463 -1 1 -2
10 1 12.7660986925141 1.0841121065518473 2.5010106656159046 2 2 -1
1467 1 14.598572746258645 2.9223106092853977 1.939495361359349 2 3 3
1887 1 13.795237501367648 2.7407169164346636 4.2834885294616685 -4 0 2
569 1 13.188244587313235 2.0075556224450057 0.10041987832966212 -1 -4 3
325 1 15.648570369540803 4.239478696073262 3.728934898331703 -2 4 2
1553 1 14.311264188349552 0.2653015654893407 4.266043226131726 0 6 -1
228 1 15.154925577639279 0.46743404277334955 1.9652439577171186 -1 2 6
1101 1 12.724298694835749 4.382744596500447 0.15292666304708452 1 2 3
1928 1 10.6118889687562 -0.06556797349499632 12.800474599503763 -1 0 -5
311 1 16.171077226681014 1.8638666227800162 3.6900246251741207 1 3 0
1424 1 19.420386896753083 2.127426127966261 1.3366642794430013 -1 0 -5
252 1 18.586647942135496 1.4537753618377822 3.5581901951039043 2 0 -3
836 1 16.909678898528295 2.568797537717391 1.500703246961322 0 -1 1
347 1 18.060472834194673 3.7148013715320967 3.297382080050446 0 -3 3
1228 1 17.468932205680623 0.22027174965533708 1.6750235438887666 0 1 0
83 1 18.7264003668189 4.602636034509467 1.1839468477348032 -2 -1 -2
760 1 20.546773499555016 3.25348163768668 3.307422014435034 0 3 2
1159 1 22.848610122379885 2.844533415290266 2.809214633391235 -3 3 -2
1822 1 21.719936600470547 1.8160386757826508 1.0132642234583096 -4 0 2
1664 1 23.60288210325947 3.7557764085844876 0.8142616202794187 1 3 4
813 1 21.18704875233547 4.136223759935138 1.00877815982988 0 0 6
71 1 20.984596521287997 0.9816486679727146 3.2461545070589497 -3 2 2
670 1 24.106863199603104 1.3088938601499513 0.9363345759318653 -3 2 -2
672 1 23.50773429121547 0.6468594875675935 3.151209415020584 0 5 -1
525 1 28.357341042106654 3.0431203503547266 0.17762231504638265 -4 0 -3
1599 1 27.78146890762488 1.9642002473736704 2.4409823820086807 0 -1 -4
499 1 25.3226873726562 2.555071095500049 2.6012582731781353 0 1 3
1841 1 26.454171158274754 1.1632180836899704 0.6104015869140448 0 0 2
1687 1 26.078800099727715 3.5330885093037008 0.4777731366984601 1 0 -2
332 1 25.854058833003002 0.07623325140346515 2.6712426313067463 -4 -1 1
1371 1 26.616327302209545 3.3080039884790846 4.43290968130777 2 1 -2
1139 1 27.24916959834399 4.436862500454794 2.296921817707934 0 2 -1
2043 1 2.484916539183159 4.849304597405864 3.9761527116663897 3 4 0
355 1 3.3098247425202136 6.001209393218331 1.8359148475784322 -1 -3 1
317 1 2.1099478668097156 7.247683434770088 3.6849415330320245 2 -3 4
35 1 0.7938994694890933 6.366520476757209 2.0277527047658985 3 3 2
1473 1 2.5374471792977213 8.301295180747585 1.516041658753016 -3 2 1
693 1 0.12704932335976155 8.72091596640597 1.7766570258002758 -1 -1 2
2011 1 0.11713241520569923 5.423644091613694 4.1432763087900195 1 -2 5
1810 1 5.820871732903762 -0.033493998270817116 10.102962216922451 3 1 3
718 1 1.9064723982919354 4.92037547939346 0.029822779695938398 -1 1 1
197 1 7.975425389801639 5.39543557067699 0.9529098499238611 0 -1 -4
1953 1 5.611830772533757 5.513027735573676 1.405997394004727 0 0 0
132 1 4.548088482424676 7.15214032263027 3.6946594651588796 3 -3 -1
1660 1 6.883087479555463 6.560753988417436 3.278791569701264 4 2 0
1493 1 7.410362432794163 7.652475031204641 1.022292283482498 2 -2 -2
87 1 6.372657549977893 9.024058894289235 3.0285658235577384 0 -2 5
242 1 4.987766508325842 7.834256531206026 1.2741199673072747 -3 1 1
23 1 4.00722182872698 9.478660926141671 3.2971700760460028 -5 -2 0
1092 1 10.420657148294147 4.79283850488732 0.61425563570711 1 -1 -2
1717 1 11.76663610931236 5.968977559013097 2.3942648619600666 3 -2 -1
1395 1 9.279699188018279 6.6694124408745115 2.963037260103444 0 1 0
726 1 9.791294499545419 7.212134193797699 0.5398627084123543 3 2 0
338 1 11.099448809806663 8.300385403990125 2.3246732064709117 2 1 -3
1246 1 8.726344882873478 9.012067647863988 2.7541345984620187 1 0 -1
1465 1 10.386073925011 8.565730682059908 4.671491325927569 2 1 3
646 1 12.125322982149784 6.7306799202512915 0.051555091951271614 0 -3 0
1322 1 11.59714954222409 9.020454817404048 -0.002477062979465011 -2 -2 2
60 1 14.082965675149303 5.219138916630709 1.9231892804205022 0 2 0
1651 1 13.203418309454612 5.11075811948538 4.279686795690471 2 2 -1
2012 1 12.79267706745443 7.733868721964441 4.055683838932868 -2 1 0
6 1 15.243061567923371 6.527603325312421 3.6337501720564593 2 1 4
1269 1 13.46520936059069 7.647322463541221 1.8204551334414125 -4 -2 1
651 1 15.958768225783032 7.353823504849565 1.4815409978218212 -1 0 0
689 1 14.79554700316692 8.865000431837556 3.542522108015794 0 1 3
507 1 16.388782143542763 4.946657232105864 1.46638805378025 3 0 -1
1323 1 17.60847634328769 5.953195632731313 3.4146695488167293 -5 3 -1
965 1 18.212073280742782 6.908883870928263 1.2361129015071257 0 0 1
687 1 19.631476815087254 7.913602773048107 3.1492488082156584 3 -2 -1
1339 1 17.31774190920918 8.475154639621538 3.2345449194040192 5 0 2
1449 1 20.025949051819424 5.6460919013083055 2.853358850091297 -1 -2 2
858 1 20.14162853604503 8.841027579409797 0.9084727209919465 1 0 1
985 1 17.646070338626085 9.297378296126857 1.0135501468794756 5 -1 4
1777 1 22.496654853608874 5.2133619228541495 2.846313026276497 -2 -1 1
382 1 20.63803469278141 6.598911255513159 0.7390236247116049 -2 -3 -1
370 1 23.027247434910276 6.021011167903154 0.6175945605334805 1 3 -1
1035 1 22.021427752695068 7.479303675835705 2.6406167047415807 1 -3 0
1656 1 22.584063589770476 8.576510609078941 0.4558490732896767 2 1 0
1981 1 23.16833333034702 8.663605469714128 4.47812016145251 1 2 -2
960 1 24.43314511343051 7.3052498011825415 2.4561992176582517 4 0 -2
426 1 24.930252232577267 4.943549027267592 2.445363277035026 3 1 -1
596 1 24.94214585235058 8.288347188565758 0.2219969783100369 -5 4 1
570 1 28.219049854420515 7.772528418883164 4.143392042739802 -3 -2 -1
1309 1 26.835647656445367 6.802621826419047 2.290270293288429 -3 -2 4
455 1 25.436468132881316 5.803492210004213 0.2801076066001757 -1 3 1
1646 1 25.634031699968567 8.198384058857465 4.3172865040352475 -1 2 2
595 1 27.909412872895267 5.361300791095004 0.19847414284821874 3 -3 2
772 1 27.284128960228553 7.714306591817028 0.029643187325559303 -4 -1 2
1712 1 26.202756869810763 5.767833192774323 4.420084359861917 3 0 2
568 1 26.347500668227575 9.135055164995421 2.1992915301761795 0 -3 -3
454 1 1.5634628388717158 9.62407476155542 3.571012713703741 1 1 -1
1251 1 2.202026722640702 10.670358834503604 1.4855426753460321 -2 -3 0
1826 1 1.036193872955969 11.983737212928885 3.5689662869517145 -5 2 -2
623 1 3.4368668596410323 11.831925179259796 3.3744458759107734 -1 1 1
634 1 1.6785230192089022 13.065734483166692 1.3487855254170846 3 0 2
1848 1 4.070771781214274 12.654027412183297 1.0800898283876172 1 1 1
859 1 7.004080141536065 9.894337096054755 0.8465266242401783 2 -1 6
1115 1 4.493976093038061 10.24682840361796 0.9600910850546329 2 0 2
476 1 6.446304874850018 12.279285137630717 0.7867845076937342 -1 0 0
779 1 5.706665481927523 11.397544410816202 2.856878329509337 -2 -2 5
1536 1 7.713119453991527 13.669258504155568 2.576138297720913 -3 -1 0
1419 1 5.33678449193492 13.687256937718944 2.7688333625183725 4 2 -1
1961 1 7.042129625731303 12.524064008249669 4.632699728696069 1 -2 3
1266 1 7.584894690205225 10.294468969270884 4.772124803685992 -1 1 3
1173 1 9.284196207979104 9.552073486119873 0.36172876319326247 2 -4 -2
1194 1 8.19496880425642 11.218806308030253 2.5694491549444805 0 1 -4
748 1 8.733923840596296 12.028318859714608 0.33813282925608423 1 1 1
8 1 10.548746406988093 10.694485983464448 2.343907103748891 -2 -1 -1
327 1 11.55418881847743 12.862431325439378 3.932964766502103 -4 4 -1
250 1 9.950248586975494 12.966383845498642 2.197888870186275 0 0 -1
1462 1 9.275615903512175 13.532695474190636 4.536586417013151 -2 1 1
69 1 9.84985505338973 11.108629681246004 4.7104177456511565 1 1 0
633 1 12.11604346664136 10.302154952362617 4.117556480233133 -2 1 6
1925 1 15.29624734439992 9.627380104820318 1.3276564402814492 -2 -1 -1
1903 1 12.954799707168787 10.027158576809407 1.8763231505996907 2 1 -3
1990 1 12.490828737850881 12.285477883067484 1.8310702763821807 4 -3 0
1122 1 14.351089985521256 11.270654894581122 3.56414957065234 0 0 0
2005 1 14.875579733182345 12.005643629195314 1.4709326617733745 0 -2 -1
746 1 13.740600421631946 13.62865755236355 3.4815577525450423 1 2 1
1163 1 16.278246930912033 13.212288341720043 3.214622785339704 -3 -2 -2
1700 1 19.15233522019614 10.185441555084227 2.8763420006044123 -2 -1 0
1791 1 19.11602709516309 13.659622821447755 0.5338763225080914 0 3 0
600 1 16.73553603855453 10.721933790295152 3.118408448962784 0 -1 2
1496 1 18.728564857230392 12.58064037823252 2.7295537164935486 2 -2 2
1118 1 17.383797727763127 11.556884592449617 0.9883689522469399 -3 3 3
1494 1 19.77452093766975 11.287053202436413 0.7226131994262224 1 -1 4
804 1 16.749606453563437 13.855726324513912 0.9468234135725833 1 0 -3
999 1 23.893572188912312 9.614734161777504 2.38581754989521 -1 -1 1
1985 1 21.55678843470878 9.79340370866965 2.568265125984802 1 1 3
116 1 21.124157183277056 12.186312617041109 2.587621244085429 -1 0 -1
389 1 23.518957891795207 11.992726453633411 2.211660779337255 -4 -4 1
289 1 22.126234082412015 10.916066415507931 0.5634785886054248 -1 -2 0
1541 1 21.651443279420498 13.189786826663903 0.4064355921670435 1 -1 -2
921 1 24.031763799078664 12.983549325844933 0.02057132404043699 2 -1 -1
106 1 22.763619090424623 11.024816221759657 4.434358439298292 -2 1 3
566 1 22.266770185175876 13.386042958013796 4.394155839034175 -1 -1 -1
445 1 24.460003959633614 10.575732399290517 0.11991888639849135 -3 0 0
890 1 28.301880100006095 11.053042490994386 1.7620984805805715 -1 0 5
1196 1 27.658825619150402 10.116768866735994 4.052641203571884 -1 -4 -2
120 1 25.154356686106233 10.539713306523206 4.217737223182888 3 -2 3
1696 1 24.715920350736265 12.858159507006153 4.033191799303958 2 0 1
1698 1 25.825228994137372 11.454894385163866 1.9137889497886196 -2 -2 4
1278 1 27.106517311222277 12.405677936694344 3.8872911751496586 0 0 2
603 1 27.752373529061213 13.369676621556033 1.745731725782778 3 -2 4
24 1 26.83943357329609 9.950840521258982 0.052244125651148776 -2 1 2
1750 1 25.3008826715189 13.739091148405533 1.8504146738595535 -4 3 1
1902 1 26.570252219858627 0.08537133040263001 6.843534641544123 2 3 4
82 1 27.231392169753416 12.303217006955608 13.930018155601614 0 1 1
711 1 2.33600641402379 1.7805813124361103 6.415608173969771 4 2 1
1582 1 1.638804125795628 4.222046276019415 6.252583475964221 -4 -1 -1
313 1 1.1721127111777034 2.9752546155677018 8.34427772881768 3 -2 -1
1123 1 3.548859308406611 3.3860296026414347 8.104351575772686 3 1 -3
1749 1 28.37139469774715 2.180973719781326 6.489483929090641 4 -2 -2
928 1 1.8136181812308971 0.49678773776981755 8.382087394888634 1 0 1
1658 1 4.197759941589018 3.4946436834522046 5.618371620638164 -2 4 3
1109 1 6.649173665299364 3.8571661657864804 5.418932979945956 4 1 -2
1811 1 5.931647945475705 2.689388224067798 7.503570628855886 0 2 3
1459 1 7.156338047762254 1.544387173969068 5.674603291028776 3 1 -3
822 1 7.380922175438213 1.756623066173331 9.334197225399135 0 3 -3
1793 1 7.050544585540014 4.178911279555078 9.284423088473115 3 0 -5
386 1 4.081714584715713 0.955470110179039 8.23171038597427 1 -5 -2
1913 1 4.834122848305272 1.22671476404021 6.0640104938915185 3 1 1
1253 1 6.529617002145578 0.22336252425692182 7.671935263476786 -1 4 -4
234 1 11.385025190258116 3.537530660644546 4.857282425993207 -3 3 2
1909 1 11.997997853319893 1.092108609889509 4.976328956216669 3 1 -3
1799 1 8.276313189741991 3.0373788622063516 7.381304795175197 0 0 3
1650 1 10.536618073193655 2.1614914449827105 6.807926649129851 0 -1 -2
618 1 9.027713006396564 3.116126722875385 5.087288251361323 -2 -1 3
1830 1 9.903112224283758 2.18102964798321 9.286489970636465 -5 4 3
1699 1 11.566159491730971 3.7848845740557153 8.47607800602848 0 1 -4
868 1 10.12122380917115 4.615842121454379 6.691079844885273 2 2 -2
531 1 9.510296226255123 4.611533507546419 9.212614247870528 0 0 -1
184 1 9.542213119749144 0.7656401691720943 5.049267111743636 4 2 -3
1974 1 8.776418185076263 0.6695626368486678 7.503425397463663 0 1 3
814 1 12.165392354678112 1.4194749998981677 8.575895681160635 -3 -4 1
698 1 14.582350979208012 1.9369582123710174 8.390350219041537 1 0 1
723 1 13.053046286401331 2.879505940505839 6.759683437535984 -5 -4 -2
483 1 15.297576228456855 1.7077845177701594 5.948145648598858 2 -4 1
975 1 14.010109640588615 4.412490813881241 8.30713474261408 0 0 -3
1583 1 14.78179674595415 4.265743489351862 6.04276777762579 2 1 2
284 1 13.514998674724978 0.2550990839868771 6.668819831492885 0 -3 -4
1381 1 16.29008975138814 3.7448348220394982 7.59740678055675 1 -1 1
1653 1 17.380317916092245 2.8285156256828774 5.523923823077172 2 2 2
554 1 18.011096516993952 0.5891009604690581 5.780037692238636 0 2 -3
1127 1 19.17881181962424 1.7841171362519315 7.561534735954012 0 3 0
783 1 18.6986624852823 4.092833644376615 7.28773978429859 2 -1 2
1028 1 19.88013025771642 2.387455064500886 5.385829670341499 -1 1 1
1168 1 16.87606176574078 1.0858596166547352 7.948604025268176 -6 -2 0
2022 1 24.2401394747821 3.908125977186134 4.670366067375566 2 5 0
331 1 20.48248183122473 0.11603655841537583 5.3941263394267285 -1 3 -1
189 1 22.368507724571895 1.8901309924739522 5.042678540149452 -1 -2 -3
1238 1 23.558573127200148 3.0845433277750143 6.847658203066529 -2 1 -1
1867 1 21.55321149885831 1.2330229807318582 7.1813585354384095 -2 1 -2
1740 1 21.097839184337193 3.5925017646948887 7.132990878758756 0 0 0
537 1 23.996077840861496 0.6500130938999757 6.933947528011904 -2 -2 -2
48 1 22.36913563073525 4.421643608324992 9.013673696936081 -2 0 -5
154 1 21.89931862401935 4.393151505500407 5.055255524382887 1 -3 1
1922 1 23.133715431593608 1.9095999303142914 9.065867469167472 0 3 2
1074 1 27.231553734707084 1.056789945175337 4.633238709426868 -2 2 2
26 1 24.826834474493005 1.646994876736209 4.830429387029045 3 3 -1
1435 1 25.92972694705518 2.5862522783740647 6.633473051155701 -2 0 2
1075 1 27.34702565310055 3.6980641898547284 8.515633009183803 0 1 -5
1906 1 27.89173912983321 1.1882574759854672 8.715038726761726 0 1 1
1303 1 24.879160599592414 3.827087617855063 8.614852768495009 -1 3 -2
655 1 25.456518881697367 1.4819976949528058 8.724752578362944 1 -1 -1
440 1 0.5307353205588086 5.453268395949143 8.082473276381755 1 -2 -1
365 1 2.9262043094756764 5.843291542922087 7.9721390612373835 4 -3 -1
101 1 1.376394445677608 6.601522230333272 6.012679553027523 1 -1 4
1336 1 0.976001320581867 9.031519253991489 5.985269856686459 -3 -3 -2
2007 1 3.3032744857580263 8.268037633364827 5.488677495872311 0 -2 -2
1893 1 0.1495370579568015 7.9145597425952205 7.932149768652392 1 0 2
1639 1 2.5681520411204337 8.344639573336652 7.824144412977026 3 4 2
400 1 3.77284871785411 5.933279850662785 5.712688248304343 1 1 0
1256 1 5.246378545940825 5.0720135546868645 7.375729867769887 -2 2 -2
1263 1 6.162388239681101 6.236479514871181 5.53309195365301 -3 0 -2
232 1 6.4550011046599725 6.600609131815057 9.147670274656038 -1 1 -3
1883 1 5.65123259705182 8.578269997495791 5.328755342620489 -1 1 -2
208 1 4.979307463292531 7.527392176975579 7.402083316544063 2 -3 4
937 1 7.324232017125979 7.923173714254925 7.184879512811657 3 2 -1
512 1 5.863108569752537 9.130342317016282 8.868993639187348 1 -2 0
1828 1 7.822760641160715 5.445387861870334 7.230343794000939 -1 -4 -3
1308 1 8.072843847984334 7.910501282085947 4.811251853526514 -4 0 -2
605 1 10.979129927780203 6.125916751132533 4.759804330110378 3 2 2
752 1 8.49357617146407 5.410396573395439 4.870284291820925 3 1 0
1719 1 9.532974546674765 7.04833710522312 6.641503273272743 -4 -2 1
1728 1 9.016666915234929 7.143197249093602 8.974209256029445 -2 1 2
438 1 11.18322291640478 6.313541810555533 8.390170056779667 0 1 2
492 1 10.616893216737216 8.86914246531917 8.302899463595823 -2 2 2
745 1 9.084640284981802 9.585714194101842 6.479220161251226 -1 0 -2
1156 1 11.992719216795734 7.689644861387571 6.470715906115507 -2 -1 -3
1299 1 8.40422987281944 9.687987495862926 8.768771286075694 -1 0 -4
1064 1 12.431298097673602 5.2350808404658915 6.469598227535874 3 0 -1
513 1 13.578010757688226 6.92860793529776 8.21003542528733 0 -4 -1
130 1 14.232672065029412 6.602770006717027 5.801548444811642 3 2 1
351 1 15.261738261064291 8.590799286054184 7.306044800354304 2 -2 0
474 1 13.00218817924461 9.340916363000451 8.164462522605108 0 -2 3
1758 1 13.610965113511426 9.350164285136891 5.722501671734322 -3 -1 -1
771 1 15.836194621354613 6.114506825084008 7.629740003592254 -3 2 1
249 1 19.474218653312533 4.700288770009671 5.046072579111886 3 3 2
341 1 16.448923947136855 7.630257141854206 5.406737780141789 1 -1 -1
1730 1 18.250164482420736 6.434629230823107 7.348039140922725 -1 -1 -3
811 1 17.018311179772898 5.309889355001984 5.618145137767745 -1 1 -2
1268 1 18.8453229917652 7.141475665256101 5.17130188907924 -2 2 -5
593 1 17.678271043066502 8.914322231554197 7.195328353426509 0 -4 3
1969 1 20.243299251924977 8.13699196703753 7.06051266340534 0 1 2
227 1 19.19000978288268 7.730307687354129 9.132639648184982 0 1 1
1083 1 19.921322743421037 5.053547566862313 9.151213258628072 3 -2 2
1751 1 23.792956551851404 6.275047018327893 4.638377150281623 1 -1 -5
25 1 20.876571421650954 9.12426626576928 4.843374585397288 -3 3 -3
1722 1 20.578287595274748 5.8099944085499455 7.01114867497939 1 -1 -1
888 1 21.367292325511407 6.675393209308757 4.735757896280618 2 -1 4
1851 1 22.988373166349056 5.490982640709635 6.986176038517923 0 -2 -1
997 1 22.652208171369498 7.7025718513248345 6.633313895363626 0 -2 2
891 1 21.75364537518992 6.9011531751216575 8.79171548205344 -2 1 0
1095 1 23.741583905225937 8.880715615665775 8.444981217657782 4 2 3
1076 1 21.317726075040113 9.415384549052403 8.724955032299633 0 1 -2
1476 1 25.33809032090162 5.026872384145492 6.623211721523132 4 1 1
1436 1 27.799924691665606 4.483324209130611 6.21023597466765 2 4 2
1628 1 24.245865115299793 6.454091982874284 8.669887303825998 1 2 0
1572 1 26.730484686356203 6.156611605875054 8.402863973746756 3 4 1
639 1 25.12812371875342 7.357969686044561 6.562778915648152 -2 -3 2
1666 1 27.454862681665713 6.75812341600984 6.2321076639021005 -3 2 3
1279 1 26.2975896309247 8.551920269229 8.512292554532873 -3 -3 0
1388 1 1.9088820514788682 10.797822447445359 7.6822999187241585 -2 -3 3
1393 1 2.7963408951615127 10.67083001247888 5.470154200498703 -2 0 0
1890 1 0.4229115528663706 11.47625901910752 5.879947030120009 0 2 0
399 1 2.3684708194983566 13.166759116343096 5.3900798993959125 -2 0 2
1591 1 1.335901842540385 13.280817935140417 7.577051769541284 -3 3 1
989 1 3.8644791885055176 12.247479338227642 7.131547664418099 1 -1 -1
720 1 4.343816439501089 9.88798811126471 7.158623318117312 4 -1 3
983 1 6.718752711974352 10.55641830052323 6.981110967760859 -4 3 -1
1780 1 4.982962435779085 14.079977406752317 8.79103876597098 3 0 1
1592 1 5.153252339880039 10.956353137485452 5.102463543585886 3 -3 -1
544 1 4.792560049899328 13.319836198479098 5.178103258330329 1 -1 1
1721 1 5.38374076042585 11.655789169848124 8.916904712967087 2 0 2
1474 1 6.221486807566892 12.97383308393549 6.976958578303199 -3 -3 5
599 1 7.9034811788343635 12.129011482820609 8.74799535573949 -2 -3 0
757 1 11.477454333148517 10.202887316120608 6.41429027432529 2 -4 -1
563 1 8.532030141637524 12.14731428275555 6.524539349584981 -3 -2 2
1389 1 10.949640629171636 12.832533162569746 6.381037442335569 1 2 2
562 1 10.152829753243806 11.28101399551822 8.179980549894486 -1 -2 3
1862 1 9.60601401708608 13.773579326237018 8.132161681342994 1 1 1
576 1 26.112373212094553 11.107679405366987 12.039174456764693 2 1 1
275 1 27.384828646535063 10.093277571426515 10.212394472631262 0 -1 -3
224 1 14.816741818609108 11.072226370386431 7.3754152964101 -3 -2 -1
434 1 12.57026146294381 11.824342362543957 8.133864041570638 2 -6 -3
76 1 13.141084478055172 11.95776052813156 5.65829981476782 -1 3 0
1617 1 15.534712212192039 12.424324481276932 5.472526368739925 1 -2 1
1484 1 14.466232380864408 13.410605199451547 7.308364356013916 -1 2 -5
1918 1 16.0427801550521 10.066898107478185 5.410570858553594 0 3 -1
1743 1 16.042748236118094 12.516090120328355 9.1303386397134 -2 -2 -1
315 1 19.86318086695381 13.753112059416924 4.427840474225578 -2 0 2
511 1 18.420422814808408 9.469801952596791 5.116021374633159 2 2 3
1685 1 17.34997576371351 11.338453255657647 7.245296546737924 4 -1 -2
402 1 19.80140436315668 10.631621254929556 6.864766299791907 1 0 -3
1022 1 18.09361123495976 11.888383875411789 5.020017935839454 4 -5 -2
47 1 18.785043806758186 10.385939836493215 9.034099637090069 -1 0 -4
1908 1 19.26230498338283 13.0909424771614 6.73358187846729 3 4 -1
931 1 18.357313387671393 12.927419391775937 8.958810063752273 1 0 -1
1833 1 16.8845197262996 13.891812629032051 7.1668569142862975 -1 -2 2
1578 1 16.32862086370038 10.070541121692017 9.044386576684955 3 -2 1
246 1 20.29951704552048 11.345278470113739 4.676535547741988 1 1 -2
536 1 23.22582312946885 11.435192816529206 8.341393304616785 -1 -2 0
195 1 22.18542507907724 10.021242058405125 6.595781709975755 -5 -4 0
770 1 21.574026653276814 12.45468122115554 6.564321642759726 3 -1 1
1116 1 20.69326118192961 11.838861970178275 8.788713014427165 4 -2 -1
292 1 22.647241176757067 13.7003332367574 8.388603154123386 0 1 -2
2034 1 24.10877057319258 12.061419938844727 6.235896649024727 -1 -1 2
1197 1 27.043543145582028 9.195418704173061 6.1115788714640304 -1 -3 0
1946 1 28.304853949133086 13.683990346321226 5.6352550063535976 -1 1 2
1353 1 24.604058078857292 9.67701950809886 6.420307003697646 0 1 2
606 1 28.010173140188314 10.412242452501983 7.916509571905001 3 0 5
307 1 25.623268150526737 10.882287717914178 8.217372686683484 1 -1 1
1029 1 27.46149300681086 12.749184923116971 7.7350389472822645 0 0 -1
1565 1 26.451547913190247 11.505548040175011 5.965263301320666 -1 1 1
418 1 25.12758415951307 13.201454382165627 8.144128815295277 -2 1 0
782 1 25.918012758668272 13.998820636238744 5.880819371201812 4 2 0
873 1 1.9078801250996322 2.005231199010501 12.392320629482043 -1 -1 -1
1363 1 2.712296073055105 1.9894252677866624 10.04887968974614 -1 0 -2
68 1 0.34091499058261276 2.7123885408085324 10.659805821064403 -4 -4 1
273 1 1.3467636180188454 4.337683649362097 12.26896146295776 0 -2 1
1538 1 2.1225009479636463 4.410758499370619 9.89607556989876 -2 0 3
1219 1 3.0553243579204517 3.5869492220102646 14.073381636122836 2 -2 1
561 1 0.8986839858800787 0.3540270416781088 10.701629944692376 1 1 1
1816 1 3.7607699274139894 3.561007737017414 11.779995357292679 4 4 -1
2006 1 6.087097482310801 0.002862287310772871 4.078158105989814 0 0 1
1385 1 3.005025169687645 14.127100783626279 3.1800241087732806 -3 1 0
1128 1 4.320085434133252 1.172835635432472 11.792503252974097 1 3 -2
731 1 5.149529995923367 2.5485319526479855 9.939266421267938 0 -1 -1
792 1 6.68338032418152 1.6605948096999315 11.676534423572617 2 -3 -1
188 1 5.294478979338547 2.713902058592142 13.566417522075298 4 2 2
1598 1 6.221511322975825 4.0499355167030355 11.586981605638625 2 2 -4
1094 1 7.8479582350065975 3.2289155744503635 13.440348374182593 -2 4 1
1834 1 5.985341047963949 0.22383792874212316 13.614846051235281 1 1 2
774 1 8.371237439284883 0.797997169005218 13.523478668811157 1 0 -3
778 1 9.104434111443753 0.7907584152347672 11.175190365131021 4 2 5
253 1 11.520226509342022 1.437760910288879 10.940531984627203 1 5 3
1321 1 10.163966852020788 2.3518360699995284 12.847135750410027 -2 -1 2
1846 1 8.532770887246729 3.2792504039111234 11.082120427357543 1 -2 1
866 1 11.040358622910627 3.8319125015064155 10.888095045478892 1 -1 2
503 1 9.549932693017771 4.992316196629085 12.590672381343696 0 -5 1
498 1 13.11639544288959 0.5482992630467693 12.618537982527254 -4 2 1
1950 1 12.544241938172407 2.9138018907355416 12.718673360192962 2 2 -2
276 1 14.952827678016524 2.1942016579376857 12.096637697586173 2 -2 1
1662 1 13.33423522340798 3.0064568835026133 10.295164676779683 1 -2 3
16 1 15.840498924599922 3.4625423342778094 10.003217200891562 -2 0 -1
1618 1 15.920750028255187 3.772579718084183 13.774352151097915 1 4 -2
607 1 14.492982434520258 4.652363746035971 11.890778188946483 1 0 -2
1258 1 13.856291851297877 0.6080647406759117 10.296516955033772 -4 0 1
1965 1 16.248971594373643 1.0451884983255841 10.308642418218232 -3 0 -3
70 1 18.11314196566676 2.85501388192782 9.465794938839306 3 3 -1
1820 1 18.71970018814392 0.44761125446183325 9.56592564422978 -1 2 -1
1917 1 17.825325412018184 0.11907248496922335 12.094440270130688 3 0 -1
123 1 19.59948828466754 1.7340491140227492 11.551482866057816 3 0 -5
567 1 17.46702292820366 2.588662898472038 11.739937159807758 2 3 -1
1861 1 18.93897705959105 1.5712907767189124 13.804201447209032 -3 1 1
1497 1 18.303853897923393 4.079496600565068 13.519223777547767 0 0 0
27 1 16.547483520585907 1.4148249531869599 13.711904276821075 2 1 -2
1178 1 19.27954951631046 4.141452571805997 11.328512847127797 -1 -1 -3
1041 1 20.655810980998023 2.5536017788709278 9.371118556289957 -5 0 2
129 1 21.205964889237332 0.09028049936661667 9.434040920718358 -3 2 1
1103 1 23.642945871371975 0.34853094739141854 13.25370511575524 1 1 -1
550 1 21.235056904581356 0.956288422188649 13.45653947750677 3 0 1
938 1 22.147652944843138 1.3709278466763652 11.34241412570526 -2 -1 2
1638 1 23.17540696616563 2.778042664171368 13.140217441765834 -1 -1 -3
1418 1 21.731864688842805 3.6818375018506213 11.15619880562116 -3 0 1
1864 1 20.634270740927796 3.4057168929488526 13.323909155958736 1 -4 -1
1513 1 24.105742118723736 3.1758177336333038 10.910671625415057 1 1 4
860 1 28.04080555746689 1.5402778439372968 12.555963609564992 -1 3 0
1151 1 27.45302658803482 4.0217060102688515 12.386939511685208 -1 2 -4
1529 1 26.432529217252533 2.699775284141822 10.480341501433044 -2 4 1
1782 1 25.65971446705089 2.1546100182166565 12.717634894896788 -2 4 2
3 1 24.683080885300203 0.7440723485753721 11.00804362480176 -2 2 2
279 1 26.86460861326583 0.26140447929389343 10.562198656228606 -1 -3 2
1813 1 0.18943876260338827 5.278540109342961 14.095357129871644 0 -3 0
1987 1 1.7096434089905475 6.934240406527578 9.720723397167713 3 3 -2
265 1 3.2225210483791935 6.035096640693837 11.4912220522619 2 4 0
1571 1 2.55447512465289 5.9943425009741125 13.823214124398712 2 -1 -3
359 1 0.892332545220748 6.840664092205252 12.098897539653864 1 2 1
1463 1 1.986207918521397 8.43700944413527 13.738793768878393 3 0 -3
838 1 2.8158578143701036 8.541153093644834 11.48972819641552 0 -1 0
1397 1 0.42606187926132416 9.309253599755975 11.943945756406116 0 0 -2
1158 1 1.2101257715073415 9.404922304696576 9.559705971909008 -2 0 -2
394 1 28.279862303208514 5.23644959599746 10.34819263758325 -4 3 2
1267 1 4.639890514924082 4.927265490914832 9.82888551976923 0 1 0
1629 1 4.894719667884064 5.255029598253038 13.434028441778976 1 0 0
486 1 4.136650659364117 7.406726931516769 9.714194007886128 -4 0 -1
1971 1 7.341191056946942 5.717348528641152 13.333600726323166 3 4 6
786 1 5.659112847671317 6.461891998909575 11.512741443192377 -2 -2 5
1612 1 4.344765096458061 7.645593550643233 13.376805674191086 2 0 2
1365 1 7.52339353196205 8.289613410197923 10.822019827206967 -4 1 1
1934 1 6.762163636861156 8.287520474050611 13.182304849429741 -1 -2 1
1231 1 5.196039597203801 9.014515404652391 11.32238792415128 1 0 4
1679 1 7.962933282276078 5.851054649346695 10.822703467649328 -1 1 -2
923 1 10.427330775313367 6.274024926558818 10.787038203086109 5 -3 1
305 1 9.081299034350609 7.396819318808232 12.5587595044818 0 -1 0
1745 1 11.524131371905625 7.906498301015452 12.56818434938334 4 3 2
1149 1 9.952850159348742 8.77615533861663 10.699114318820136 0 1 -2
899 1 12.08711908461765 5.357151110777446 12.461605905465277 1 0 4
340 1 12.785914001718771 5.448946602999083 10.098966206875865 -1 0 -2
1676 1 12.202583470819985 7.89950603987711 10.07316788385369 1 1 -1
140 1 15.227308240831782 5.971877152104467 9.954060309061093 2 -1 -2
1338 1 13.826648220918768 7.028333106084817 11.732625878065093 0 -1 -3
1734 1 15.381106279003262 6.197077658403788 13.491623274454927 2 -1 4
1756 1 14.674628885181344 8.436306874114116 9.91211744494471 -1 -6 1
1923 1 14.86525687882225 8.595434889504629 13.305175123523068 -1 0 0
1287 1 12.542205942564117 9.520150867049177 14.08084827935304 2 -3 1
1230 1 16.937578094873395 7.695446686478446 9.309985999552884 -3 3 0