LAMMPS data file via write_data, version 29 Oct 2020, timestep = 300000

2048 atoms
1 atom types

-0.2340690549737019 28.58606905496519 xlo xhi
-0.2340690549737019 28.58606905496519 ylo yhi
-0.2340690549737019 28.58606905496519 zlo zhi

Masses

1 58.933

Atoms # atomic

473 1 3.0351220864807513 1.3394194186912334 3.584208659267838 1 -1 0
909 1 0.6963173392774751 2.6722662645746236 1.5804750097503857 -3 -1 4
2043 1 2.6565931863485344 3.654412618998292 3.5440563973052686 3 4 0
1803 1 0.8727424272910622 1.7848656378204701 4.016928277969279 -1 4 0
1324 1 1.6513486845845284 0.4457955990838365 1.8434301762473746 0 -1 0
642 1 3.242322274794546 2.1975480738035227 1.300902276285143 2 2 1
2011 1 0.3204192988396243 4.4209693336618106 3.8189451929689913 1 -2 5
355 1 3.04341189009664 4.566738227359756 1.4111792934688685 -1 -3 1
230 1 5.933347476456126 1.8187593498177463 1.2086886928418203 1 -3 0
261 1 5.298122539257842 0.4871688903025214 3.477678573857831 -4 -1 3
1761 1 7.345165816310952 2.552239987523897 2.9841418570083142 1 1 1
175 1 5.145658880844546 2.95975844773486 3.1436400816545413 0 0 1
1953 1 5.517781155914314 4.118507895035261 0.7960485251380545 0 0 0
197 1 7.862151299921999 3.5515667880803656 0.674356032263707 0 -1 -4
280 1 7.622555749291361 0.12433326688589608 2.656440906165773 -1 3 0
1061 1 8.45278030522658 1.478948132175752 0.592777992659095 0 -3 -2
1733 1 10.717120927001552 1.0953211342471407 0.38461536152324394 2 1 3
861 1 9.673971705365753 2.225838203100554 2.4948551240865924 2 2 1
1092 1 10.323238707088725 3.382673371661416 0.5769276444203036 1 -1 -2
290 1 9.894182491833359 -0.06944103268528984 2.407680272191334 -3 0 -1
234 1 10.988737464552445 3.261375018647828 4.306331577400809 -3 3 2
752 1 8.728172572913984 3.8903963675935866 4.4551030971047565 3 1 0
1909 1 11.58304139194229 0.9509717716207071 4.5365515522908355 3 1 -3
1518 1 12.342882396300489 2.074534957247318 2.3218358287418273 -1 1 -2
1467 1 14.676682202463837 1.663027577526041 2.0990941205564893 2 3 3
60 1 14.269762541919672 4.019092309844424 1.9706434662917447 0 2 0
569 1 13.262211456175573 0.5007999860009749 0.6616220248092759 -1 -4 3
1887 1 13.56094165598851 3.002097011994916 4.227188543252478 -4 0 2
1101 1 12.750174613833478 2.961847334273826 0.05487699601785834 1 2 3
1553 1 13.879683304155026 0.7809367164362215 4.155963424331101 0 6 -1
969 1 15.814066124812388 0.3974104398304207 0.10512207544171304 1 1 -1
325 1 16.013447319629194 2.838140241423545 3.698071556698044 -2 4 2
555 1 15.042674261372515 2.670099317237164 -0.22099641662462433 -1 -3 0
507 1 16.35662211977813 3.821617860276138 1.3518257467169887 3 0 -1
311 1 16.49008391363252 0.5912546952880966 3.880157170978129 1 3 0
347 1 18.33646959618615 2.161977638176244 3.811928253523333 0 -3 3
836 1 17.12527096811991 1.5739323793503277 1.7958586112791313 0 -1 1
1424 1 19.346464733661886 0.8445299087258653 1.662688216749954 -1 0 -5
83 1 18.541567817098738 3.2544979722518645 1.3925451629567243 -2 -1 -2
1449 1 20.090672321407254 4.564802791068136 3.2414620521232536 -1 -2 2
760 1 20.926225436915544 2.1807486349009015 3.534321491452604 0 3 2
1159 1 23.157486895815826 1.7419348514666004 3.31806464779191 -3 3 -2
1664 1 23.697106294567025 2.6216642464548365 0.9836140071294428 1 3 4
1822 1 21.74209516565492 0.8288892652441437 1.4409462664668438 -4 0 2
813 1 20.995110311809718 3.0868529561483866 1.3280929932532017 0 0 6
1777 1 22.766206625608024 3.8850293008528354 2.9442337394937574 -2 -1 1
670 1 23.890843034496125 0.3144035008852125 0.8229575063157284 -3 2 -2
71 1 21.386679356190818 -0.20582292753946824 3.3981074438948315 -3 2 2
595 1 27.795888574393956 4.142566193458015 0.006417982464319183 3 -3 2
499 1 25.309685680147567 1.0498194192773187 2.776912632609578 0 1 3
1599 1 27.743675702083628 0.5881200497874499 2.16885909575447 0 -1 -4
1139 1 27.478560417065722 3.2809960412585144 2.400232047543236 0 2 -1
426 1 25.338760374601254 3.3106910522223316 2.731893711846855 3 1 -1
1687 1 26.29581421423909 1.9492765088883153 0.6038169333506418 1 0 -2
455 1 25.506238213678643 4.409480738596481 0.670178486065156 -1 3 1
1074 1 27.564783315118603 -0.19789278863439463 4.399333692122361 -2 2 2
317 1 2.168150869441539 6.073017504626341 3.528767778506331 2 -3 4
1473 1 2.282519803237479 7.274360380979707 1.2986578603580536 -3 2 1
35 1 0.6750441017739381 5.188779456726012 1.7474852344728489 3 3 2
454 1 1.5855640435133762 8.490453168923636 3.4649610303573124 1 1 -1
693 1 0.15503388120450728 7.639496991060273 1.7717888564816318 -1 -1 2
23 1 3.92803169536103 7.885762150067819 2.991207968951519 -5 -2 0
132 1 4.644064456988457 5.345080270489773 3.0111542584456044 3 -3 -1
1660 1 6.938437573978851 4.955044171889873 2.635437195834339 4 2 0
242 1 5.065644709969588 6.431738220365091 0.9922120442666111 -3 1 1
1493 1 7.3703089917733156 6.037443884886266 0.395426362392846 2 -2 -2
87 1 6.5387026413456795 7.273419581993281 2.7566347154280786 0 -2 5
859 1 6.895862485760345 8.470364006014284 0.7202926486807519 2 -1 6
1115 1 4.2573767345102365 8.861730928479671 0.6232014462037037 2 0 2
1266 1 7.684126989405994 8.452324930970065 4.346536746815444 -1 1 3
1717 1 11.902731173299005 4.583566662138922 2.32135706288408 3 -2 -1
1322 1 11.6487144824576 7.735376226021058 -0.1658157372942209 -2 -2 2
1395 1 9.55021615989085 4.650622556657122 2.26223669568153 0 1 0
338 1 11.063586742521027 6.883291923267833 2.072038695269618 2 1 -3
1246 1 8.758312632141351 6.9598812579994975 2.326752493585072 1 0 -1
726 1 9.894613721727508 5.831362610634644 0.05065411913176693 3 2 0
1465 1 10.171828715348648 8.226853822449796 4.135482002900495 2 1 3
1173 1 9.1852722926994 8.089589324676103 -0.006774490729339944 2 -4 -2
605 1 10.818377907620299 5.841939377368175 4.146991745235502 3 2 2
8 1 10.756693008457681 9.086094975387823 1.9669657111256322 -2 -1 -1
646 1 12.373383298290507 5.27088067044608 0.12753007815067302 0 -3 0
2012 1 12.501182436012906 7.990303311852044 3.878645281914493 -2 1 0
6 1 15.544406227954184 5.0654287193596295 3.678313123177488 2 1 4
1269 1 13.760916051978064 6.512914145628094 2.1191621985624143 -4 -2 1
689 1 15.00564495240834 7.647312744359428 3.6663041012441266 0 1 3
1925 1 15.249175514607415 8.580479393635299 1.4250665409833143 -2 -1 -1
1903 1 12.973404939447988 8.82203762744993 1.4650140470889241 2 1 -3
1651 1 13.317536877136613 5.412137441092908 4.2365167359070846 2 2 -1
651 1 16.13678763157584 6.303036943463764 1.6617711983322423 -1 0 0
1323 1 17.791721605836074 4.584652988966938 3.521823932068857 -5 3 -1
1339 1 17.435320130205284 6.966610789932261 3.383802262789954 5 0 2
965 1 18.592723384835686 5.773097141720408 1.494490621642865 0 0 1
687 1 19.79789593948246 7.015660860890733 3.0893073770817128 3 -2 -1
985 1 17.900148405368085 8.038760492690917 1.3475196813558783 5 -1 4
1700 1 19.27967812869318 9.347341084323533 2.93789353950295 -2 -1 0
858 1 20.16721581077643 7.965937568265234 0.9641247561061983 1 0 1
370 1 23.3307763640289 4.938533661039216 0.8542756795574453 1 3 -1
382 1 20.76587538537098 5.495583174760354 0.8137624607474128 -2 -3 -1
1035 1 22.27810348035114 6.178167654635064 2.9365456277683792 1 -3 0
1656 1 22.99421522289266 7.151918634593692 0.8830071632979426 2 1 0
999 1 24.24922897675072 8.223274659683636 2.6581162971307033 -1 -1 1
1985 1 21.725302653527574 8.794812214873119 2.6559900168668573 1 1 3
772 1 27.46204706916851 6.613362757720536 -0.05356543126616961 -4 -1 2
1712 1 26.478902156633474 4.62065231813233 4.22961135068444 3 0 2
960 1 24.679466417054783 5.850270591774966 2.632764217973872 4 0 -2
570 1 28.226501978785123 6.617775634227323 3.7419184270008476 -3 -2 -1
1309 1 26.969644105577107 5.62247806807917 2.10425110150012 -3 -2 4
568 1 26.734060771329133 8.226573752296096 1.9398743426625167 0 -3 -3
596 1 25.240330346251337 6.837447230437745 0.2729028067577005 -5 4 1
1196 1 27.99210025977374 8.926319410277554 3.911395601538419 -1 -4 -2
445 1 24.84465380477061 9.235775394259392 -0.1509994511677474 -3 0 0
1646 1 26.020057590279688 7.364125562296336 4.182903106187593 -1 2 2
1251 1 1.922586576302697 9.742475371527865 1.3289187941135872 -2 -3 0
414 1 3.5918825273066517 13.615182520968268 0.6400731653870796 3 -2 0
634 1 1.7391850333145924 12.058858619328388 1.0079935193129725 3 0 2
1826 1 1.1907286181795493 11.010532127030022 3.2593272010331678 -5 2 -2
623 1 3.520080323346949 10.527556556559174 2.9752889259709887 -1 1 1
1385 1 3.0423915106302046 12.907844180918602 3.1056739140396536 -3 1 0
488 1 0.7243017815295526 13.370465058114545 3.058852566576666 2 0 1
1848 1 4.055406195915289 11.3554215877123 0.6261740989268163 1 1 1
1239 1 5.97207520618739 13.362293723762107 0.22662109467876962 4 3 0
1419 1 5.230292327824754 12.622953094020644 2.4189231685588655 4 2 -1
476 1 6.537966313627099 10.91088160711565 0.27542578416307106 -1 0 0
779 1 5.659764590194087 9.58625503556518 2.419560368134827 -2 -2 5
1536 1 7.701146005887594 12.087368444209238 2.486157441034693 -3 -1 0
1961 1 7.0242576508936345 10.884144399963148 4.411975262201809 1 -2 3
1072 1 6.707091212298149 13.422065363678502 4.346400659207434 0 5 -1
1194 1 8.20040890380063 9.577800431160247 2.613478926542239 0 1 -4
250 1 9.96227925861254 11.490825153809826 2.0711576444884012 0 0 -1
327 1 11.560365663341695 12.871769896756168 4.0489353121774085 -4 4 -1
1462 1 9.131316100773098 13.008382657857627 4.047687238718512 -2 1 1
633 1 11.835665459634084 10.478768601188081 4.1316611405108254 -2 1 6
69 1 9.52659320458612 10.495006988385695 4.218959189938653 1 1 0
1247 1 8.238145069100215 12.920779122976958 -0.1121773756456597 -2 2 1
1012 1 9.71282378737152 13.987536168692188 2.030172684867026 0 -1 2
204 1 10.65686026616782 12.498592373476788 0.16366354337921002 1 1 4
748 1 8.815803207042102 10.55127374732127 -0.0527652127106083 1 1 1
1243 1 12.292506899188522 13.503445793881266 1.8175145292476365 1 0 -1
1990 1 12.452261052516079 11.144509536882236 1.6607332600283042 4 -3 0
1122 1 13.961731556222519 9.889435948592627 3.4994355038309606 0 0 0
2005 1 14.849602637395046 10.68975660802853 1.4561894488824498 0 -2 -1
746 1 13.831444159733325 12.324085215287823 3.4722545183084876 1 2 1
1236 1 14.84735323446306 12.936530684426495 1.5341508606425551 0 0 -1
600 1 16.799356913861008 9.372883319624215 3.2455771200439925 0 -1 2
1163 1 16.369009112836363 11.752455663322104 3.3288752375391177 -3 -2 -2
1496 1 19.006776130391067 11.645662731230962 2.4986610760461656 2 -2 2
1118 1 17.490228984116488 10.244034075119638 1.080175559654794 -3 3 3
804 1 17.468328664929814 12.897304993630783 1.2471152517250692 1 0 -3
1791 1 19.515616793769524 12.414917705122303 0.24742916411030463 0 3 0
1494 1 19.98100405220663 10.300061357054775 0.6522404195546236 1 -1 4
679 1 18.610419335824545 14.153074038876914 2.88353047509403 2 -3 1
427 1 20.75476166574079 13.196231311434952 2.1305527394128796 -3 -3 1
289 1 22.456798768362997 9.682053788217278 0.6267604338337212 -1 -2 0
945 1 23.175574743371286 12.901117091818918 2.44163115084884 5 1 -3
116 1 21.50452262583697 11.054156464782546 2.697544668472822 -1 0 -1
389 1 23.847112250492156 10.567489426372358 2.8250165550768394 -4 -4 1
1541 1 21.942523301061446 11.996052379834188 0.23843382852539713 1 -1 -2
921 1 24.296860439096534 11.774978285356147 0.35565591004608776 2 -1 -1
91 1 23.739965067539238 14.005046032883971 -0.14940998865045074 0 -3 -2
315 1 20.385878301641025 12.391627947562107 4.430618673538125 -2 0 2
120 1 25.652804767037324 9.555220714579816 4.15843618585577 3 -2 3
890 1 28.389644116441747 9.906643829771147 1.4222141103021446 -1 0 5
1789 1 27.276360918573445 13.520682640514826 3.643149689172869 -1 3 0
1698 1 26.026401997270145 10.528682303775282 1.8817861720175917 -2 -2 4
1278 1 27.733041649040036 11.20043046822576 3.6409392139092565 0 0 2
603 1 27.761718281960608 12.314686032895562 1.0134924238111895 3 -2 4
1750 1 25.561450934112468 12.85914814677786 1.9082531476493672 -4 3 1
1696 1 25.49282008912657 11.930455506269066 4.207504720712564 2 0 1
1624 1 24.79722442860459 14.15020289139109 4.05974399865535 -2 2 1
928 1 2.1300903602560184 -0.16299160043453753 8.313019922864195 1 0 1
711 1 2.6051184302162245 0.5263195120758992 5.9048561041559315 4 2 1
313 1 1.4818086023712438 2.0790284408086044 7.967929014314878 3 -2 -1
1582 1 2.1954222096864076 2.6826265459506864 5.752086385660006 -4 -1 -1
1749 1 -0.0007081674885627554 0.9232024575505589 6.250178524746511 5 -2 -2
1123 1 3.336623110917252 3.7570995269665897 7.585349705319155 3 1 -3
386 1 3.877353843612476 1.3784936957647662 7.760851958204475 1 -5 -2
1436 1 -0.19233530131908338 3.4067012131901926 6.253948639997505 3 4 2
440 1 1.2146416319208788 4.520824998962641 8.167801133365643 1 -2 -1
1913 1 5.170698883757382 -0.1582383503209438 5.756816131622142 3 1 1
1658 1 4.347161662165381 2.3858532979108293 5.432956685778446 -2 4 3
1256 1 5.74455128533922 3.153926019343198 7.100802816239198 -2 2 -2
1109 1 6.703392901059229 1.6048925005249801 4.964349531522242 4 1 -2
1811 1 6.7570260737569505 0.9534906282635434 7.318310903828335 0 2 3
1263 1 6.266428804669903 3.8999653008313624 4.899167187473458 -3 0 -2
822 1 7.730147225671213 1.7318705944628665 9.121948526464513 0 3 -3
1793 1 6.872953326855655 4.407778828663995 9.027715235213284 3 0 -5
1799 1 8.046009701888503 2.9448816170447096 6.8020244123922815 0 0 3
1770 1 11.235993795136181 -0.11122999379223457 6.858693358964728 -2 -1 -2
618 1 9.038295129012093 1.2522118436112994 4.792058627398184 -2 -1 3
1974 1 8.898805756450964 0.3369882427568084 7.160200736524308 0 1 3
1650 1 10.564082208239705 2.476745588839832 6.547274714575875 0 -1 -2
1304 1 10.074821638528347 1.3934935996211555 8.711496904798826 -1 -3 1
1699 1 11.750827278288401 3.6352076551102392 8.27271233651352 0 1 -4
1830 1 9.385104700508416 3.730747357151002 8.51641676415387 -5 4 3
814 1 12.442899379734472 1.3087963847717876 8.6194589497385 -3 -4 1
1526 1 14.725533505764629 0.8944854813236163 7.987372223414315 2 0 1
723 1 13.148342302891368 1.9736306261679855 6.425582179349432 -5 -4 -2
483 1 15.508817310353232 1.6872030916528509 5.7475412265680434 2 -4 1
698 1 14.338168792689181 3.269636932586574 8.311184839556987 1 0 1
1583 1 14.703579135248644 4.171043907821769 5.893898775948584 2 1 2
1064 1 12.308823971122344 4.243365830146537 5.995717041597941 3 0 -1
284 1 13.668435155203357 -0.20632009711544724 6.3581106804716185 0 -3 -4
1025 1 19.75850014548514 0.4005413187299084 7.62357380345124 0 3 0
1168 1 16.833042949725606 2.5609592744472507 7.925359965067621 -6 -2 0
269 1 17.11946123648766 0.17167386602491502 8.20509717332001 1 0 -2
1653 1 17.22017874055563 3.6296203440522596 5.666321544858594 2 2 2
1127 1 19.124611449108162 2.6277576923278065 7.519535250983686 0 3 0
554 1 17.777540829147114 1.3820296158271868 6.088196285593668 0 2 -3
1028 1 19.437400481768424 3.5293610018762114 5.384349336632426 -1 1 1
331 1 20.020688173095436 0.9896213999432368 5.253365804231201 -1 3 -1
154 1 22.12608095794739 3.265685868832841 5.195633021030544 1 -3 1
189 1 22.545829609371367 0.628813168732348 5.382095989464921 -1 -2 -3
1867 1 21.40555836392537 2.13780860625379 7.101436415423432 -2 1 -2
1238 1 23.742804241037778 3.8966095143459025 7.093027118390099 -2 1 -1
537 1 24.277384449464947 1.4043517819269826 7.211369131131224 -2 -2 -2
1781 1 23.1327280412778 2.456331346143764 9.065187775276188 -2 1 2
1740 1 21.085209886345098 4.409522521774507 7.11160628677978 0 0 0
1886 1 22.186672273281506 -0.19888122447707346 7.605572475258533 0 -2 4
1859 1 28.257723123454365 -0.15983928043275242 8.423888964998502 -2 3 1
2022 1 24.48836350852441 2.6468563847613127 5.078156315997706 2 5 0
1371 1 27.016161947269808 2.1228128083111435 4.632819994685306 2 1 -2
26 1 25.23488846221478 0.23451112035088784 5.192773649663604 3 3 -1
1435 1 26.408366271471177 3.5951503095756383 6.424227370663903 -2 0 2
1906 1 28.212775787079245 2.5049134234898944 8.516050069809483 0 1 1
655 1 25.728107696122116 2.9919570562621947 8.846472269180339 1 -1 -1
1844 1 25.957748132101713 0.742641736249689 9.354877737625701 -2 3 -2
1902 1 26.566669736986853 1.0759635029257661 7.020264455080059 2 3 4
365 1 2.8594296144272735 6.378386431002524 7.608855154406272 4 -3 -1
101 1 1.6900243788224072 5.12322110859279 5.70260162904034 1 -1 4
2007 1 3.703234772070473 7.203083857383426 5.196856571916554 0 -2 -2
1336 1 1.2813211205436148 7.692186471323509 5.646364667362342 -3 -3 -2
1893 1 0.5252979893086202 6.813366915513911 7.962649566656852 1 0 2
1639 1 2.4619604762160283 8.566974469071907 7.7773838485735745 3 4 2
400 1 4.052921349967374 4.760830142942308 5.366831527750117 1 1 0
1592 1 5.2508314447109585 8.911293867482655 4.923803606811964 3 -3 -1
1883 1 6.116132925828247 6.4425011091228015 4.9881270741418735 -1 1 -2
208 1 5.2417031089186255 5.674008381594794 7.0690088324897316 2 -3 4
720 1 4.828901025085133 8.046881830344043 7.1236014186437036 4 -1 3
937 1 7.22814265218851 7.414456771724708 6.882395396338031 3 2 -1
1828 1 7.568160876924312 5.271181022649433 6.705538575555684 -1 -4 -3
232 1 6.647833812485257 6.629692906156991 9.033431001260668 -1 1 -3
512 1 5.8557452896735045 9.256037615993547 8.883770875897637 1 -2 0
1308 1 8.413636636604728 6.429846634153899 4.623426080400479 -4 0 -2
868 1 9.936541180203733 4.838434943492338 6.340903879039228 2 2 -2
531 1 8.899994126631292 6.243772760484857 8.541719002936105 0 0 -1
1719 1 9.636364404288408 7.173146296507378 6.346561251305745 -4 -2 1
438 1 11.2844825704318 5.818516041502231 8.116508339110005 0 1 2
492 1 10.919527133575377 8.369312409658646 8.22303045982924 -2 2 2
1156 1 11.979583905373296 6.738647226059541 6.185949813828609 -2 -1 -3
1728 1 8.294705041471792 9.044545030775426 8.350621719496502 -2 1 2
757 1 11.512628287214762 9.000824939147137 6.179606921507689 2 -4 -1
975 1 13.776864666214154 5.569501940700526 8.00656516114177 0 0 -3
513 1 13.246627805172286 7.882679937173586 8.036097428926844 0 -4 -1
130 1 14.335208395367932 6.570072931567677 5.887852945008472 3 2 1
771 1 15.67829060578066 7.335981876246521 7.649040306757236 -3 2 1
1758 1 13.707590659352727 8.661111263843527 5.653356609331607 -3 -1 -1
1381 1 16.2583474841382 5.097901617621789 7.582288777324679 1 -1 1
341 1 16.307880508348653 8.69459193899344 5.560522401260254 1 -1 -1
783 1 18.841213727218097 4.9381613318216475 7.247668367083154 2 -1 2
249 1 19.203787535220076 5.989283544236555 5.0933968370004195 3 3 2
1268 1 18.672414571237343 8.398993786271056 5.0250902278214316 -2 2 -5
811 1 16.81683560819199 6.017051328687924 5.576843308112008 -1 1 -2
1730 1 18.164947376748934 7.485463706315294 7.455714155675007 -1 -1 -3
1969 1 19.934463118434564 8.96170912077422 7.253009008393346 0 1 2
1230 1 16.780033035371876 8.48380985270561 9.37194080666262 -3 3 0
1981 1 23.67537760733443 7.164357093792825 4.727723815387094 1 2 -2
1751 1 24.071229800302476 4.819259963848669 4.58874812614569 1 -1 -5
1722 1 20.481903706034725 6.7485515661412965 7.083795845840992 1 -1 -1
25 1 21.34588510857201 7.772750007581578 4.996056834572517 -3 3 -3
888 1 21.527622327042785 5.523258551829966 4.9115817672149635 2 -1 4
48 1 21.92086541191236 7.805935663340309 8.810117847835972 -2 0 -5
997 1 22.625406739916457 8.554841073884992 6.750645196191952 0 -2 2
1851 1 22.934913336815082 6.245924372250706 6.8188138943137515 0 -2 -1
1628 1 24.38665943233602 7.809350311648407 8.546625221800026 1 2 0
106 1 23.182219079864783 9.353159591535317 4.616571799926295 -2 1 3
1922 1 22.378267520469635 5.029090052714002 9.043130684301259 0 3 2
1075 1 27.403465468782755 4.6541065274443705 8.077121794127107 0 1 -5
1476 1 25.519427181470288 5.884901313609395 6.2236967450236955 4 1 1
1303 1 24.845618304059208 5.303200397390022 8.65951247399735 -1 3 -2
1666 1 28.03233091079745 5.8240095066762425 5.958690296985211 -3 2 3
639 1 25.07287380738379 8.148866159193195 6.437919206448029 -2 -3 2
1572 1 26.795392889663333 6.895358703182514 8.065823529260388 3 4 1
1197 1 27.608597098094616 8.236981406153092 6.315060314215591 -1 -3 0
1591 1 1.2234025479515227 13.556020631349483 7.56854943348163 -3 3 1
1393 1 2.958716747087893 9.505813075522836 5.263740545931606 -2 0 0
399 1 2.379723571543129 11.83539095572043 5.194993506716818 -2 0 2
403 1 2.734482520705026 13.336217159847655 9.332514281982174 -4 1 -3
1388 1 1.7189099420211 10.828345338624722 7.437842333939763 -2 -3 3
1890 1 0.37810464451099735 9.989164705824669 5.500161567354483 0 2 0
1672 1 3.718836102514016 12.33877879347313 7.41064785301471 1 2 0
1946 1 0.026277317360547614 12.404362761534035 5.448877076079635 0 1 2
92 1 3.221958834321059 10.407529681365302 9.260294849358754 -1 2 -1
606 1 -0.21899947322538 9.754284373615066 7.736570652282348 4 0 5
696 1 4.286778630499351 13.505106039199957 5.184367369975975 1 -1 3
989 1 4.471005407346333 10.26528338193007 6.859196575584102 1 -1 -1
544 1 4.831465386462633 11.271485740259152 4.584867290760813 1 -1 1
599 1 7.4721469283997966 13.669169211100646 8.44426702405574 -2 -3 0
983 1 6.683271056993223 9.9174810950556 6.644833063156875 -4 3 -1
1474 1 5.934655946010668 12.3383516439631 6.672321176853576 -3 -3 5
1721 1 5.472460841758244 11.49702165800031 8.945418716553402 2 0 2
1299 1 7.840591748347768 11.349193519445413 8.409485285632472 -1 0 -4
1780 1 5.076573562240475 14.011883144776826 8.942836772592328 3 0 1
229 1 10.57758266794561 14.020638582626493 5.8121056727777844 1 3 -5
563 1 8.44794381016695 11.812428110509389 6.212379621481612 -3 -2 2
1862 1 9.943674993837645 13.114862923917885 7.735597695287762 1 1 1
745 1 9.040674928816978 9.411461957288985 6.0860357701720496 -1 0 -2
1389 1 11.367675036978046 11.520696184108196 5.983918870699357 1 2 2
562 1 10.220241559860787 10.67518159732517 7.7771078818459 -1 -2 3
434 1 12.267555827571503 12.816313089192956 8.077951024354647 2 -6 -3
1617 1 15.440128336057414 13.499771139773298 5.030040814177171 1 -2 1
351 1 15.053467788845326 9.565316713193791 7.405089756409081 2 -2 0
474 1 12.49482921423988 10.244550263565532 7.890502213959884 0 -2 3
224 1 14.843014414091444 12.482614360553528 7.5913281329399735 -3 -2 -1
76 1 13.580361967813769 11.195193240698911 5.959538539568984 -1 3 0
1918 1 15.883853958358628 10.931666084804924 5.615461906607324 0 3 -1
502 1 13.119051571879206 13.587719971207388 5.8524585461833505 2 0 0
593 1 17.65171027793775 9.812165949906978 7.264289846971202 0 -4 3
1022 1 18.054479610671848 13.238207891749477 5.010349158028163 4 -5 -2
511 1 17.93756645044556 10.771193515411834 4.748898162350594 2 2 3
402 1 19.668305440840697 11.429749776733571 6.526931402099364 1 0 -3
1685 1 17.582460234427373 12.057502239149755 7.543582203600978 4 -1 -2
1908 1 19.04518702225647 13.895407912864036 6.983304045828202 3 4 -1
227 1 18.867962732103177 10.78010525125368 9.058295417307697 0 1 1
566 1 22.753661390719554 12.304945332156208 4.628863491600652 -1 -1 -1
891 1 21.415828655788182 10.114135685298244 8.849361186789691 -2 1 0
246 1 20.820044156777584 10.062654629001837 4.93322099104114 1 1 -2
770 1 21.53306771982243 13.350321975942537 6.609259186544105 3 -1 1
1095 1 23.789718333342055 10.312891710391076 8.550123863677001 4 2 3
1076 1 20.80844099118093 12.62490842156577 8.527974303711177 0 1 -2
195 1 22.2598683892014 10.994824347790919 6.7877157039522755 -5 -4 0
536 1 23.02662411341962 12.889860868398964 8.554763598280175 -1 -2 0
2034 1 24.26430107826793 12.979900619922041 6.373718439936987 -1 -1 2
1353 1 24.45409408658722 10.503285395955876 6.246669870456999 0 1 2
1279 1 26.226619203422082 9.460303789213462 7.984568742094648 -3 -3 0
782 1 26.742003830742227 13.247375487729714 6.0523361133525775 4 2 0
307 1 25.525022303498147 12.036811362714625 8.026998325532235 1 -1 1
1029 1 28.102877644982822 12.090282841164967 7.944479298659397 0 0 -1
1565 1 26.931888109533634 10.864903865044147 6.079525003857762 -1 1 1
94 1 2.3171944534711026 0.20122055356160795 12.08529108837556 3 2 -4
160 1 3.3763847983587363 1.8127318305759008 13.599232391191627 4 2 0
1875 1 0.775407408092267 1.1315621674805918 10.185881572539257 4 3 0
519 1 3.1324803605857197 1.399806712043752 10.229798226732415 2 -2 2
873 1 1.776727456555137 2.593498238839631 12.082688534277501 -1 -1 -1
561 1 0.08062503721117076 3.539778976803081 10.254156495939627 1 1 1
1363 1 2.578051542983863 3.6596636052239124 9.827009425390845 -1 0 -2
1219 1 2.739941870457021 4.451075538920764 13.650491412370672 2 -2 1
860 1 -0.008224913223762259 1.1134867610971673 12.541335798357107 0 3 0
1001 1 1.498393766859076 0.2137112206648829 14.136056011217553 -1 -2 -1
73 1 4.6272541065244495 0.3973302107011121 12.144520649241546 2 0 -2
1810 1 5.633290775049446 0.378443839696445 9.56159878719841 3 1 3
731 1 4.815355869897296 3.0086123693983597 9.798050746412013 0 -1 -1
1128 1 4.355015046752065 2.980551759100916 11.936827102677015 1 3 -2
188 1 5.753259950418698 2.409327389915061 13.738205831502965 4 2 2
1834 1 6.464462085014542 0.16682958686253024 13.737563091668418 1 1 2
1406 1 6.5773240218216085 1.9238867241792255 11.177763063376265 4 0 1
1094 1 7.931004035606355 4.561939541382456 12.988882981067011 -2 4 1
792 1 6.049065880052669 4.491185757773338 11.472261816356744 2 -3 -1
774 1 8.39227988798872 2.166183748080603 13.082668270167765 1 0 -3
778 1 8.467484114175004 3.455785616960928 10.965942187891011 4 2 5
616 1 9.165512275055761 1.110825461665046 10.941192372889937 -3 5 2
1928 1 10.840543612928785 1.5525021376337464 12.742263173531887 -1 0 -5
253 1 11.425157558995014 2.666615023550255 10.68359636291863 1 5 3
1141 1 11.45360163460091 0.2289356275732337 10.647038714071229 0 1 2
1321 1 10.3301278166393 3.936762309039575 12.820757476262136 -2 -1 2
1821 1 15.585925093513726 0.5919573894911245 12.107026998017352 2 3 0
27 1 15.996741300369884 4.295449979513721 14.066006949526043 2 1 -2
1912 1 13.047440354745738 0.8323749520204919 12.526049950948336 1 3 0
498 1 12.67359048432832 3.3088592777786854 12.502037249509018 -4 2 1
336 1 15.13709500217283 2.776226916410385 12.388963339297337 0 -4 1
1258 1 13.869534644982329 2.1113876355724273 10.444805036014756 -4 0 1
1965 1 16.023540601612574 3.9291643335306237 9.971175434512189 -3 0 -3
1662 1 12.808014046709344 4.525759935041946 10.298152060244405 1 -2 3
1523 1 14.235533046377084 -0.01514076136997744 10.34697862861607 0 2 2
788 1 18.89380979790465 1.8076602081595907 13.78736805784936 1 0 2
676 1 16.25836286188932 1.3202334464031533 9.863469443264776 -2 -3 3
423 1 17.98937826199995 0.15265503429888416 12.005661973977675 -2 -3 -1
1820 1 18.67258702980136 1.3542888652550578 9.563295677772127 -1 2 -1
1611 1 19.553515668503337 2.194755743268192 11.447693408558038 -1 1 2
1917 1 17.266358814311623 2.7145672629815385 11.675224733374462 3 0 -1
70 1 18.379388966192884 3.784980659655738 9.701407975824596 3 3 -1
1861 1 18.448032198392358 4.282297187470904 13.887162804069646 -3 1 1
1011 1 23.653036129752184 0.061462296186483634 9.600798217912065 -3 2 -1
1160 1 22.866713243055 -0.019586290524436833 12.047755990237436 -5 3 0
129 1 20.772170894502832 3.292794221585837 9.829479747979914 -3 2 1
410 1 21.172381555055736 0.8507995252606051 9.705580886077621 1 -1 2
37 1 21.181633089551344 1.0547562377832052 13.618897627311581 -2 4 0
550 1 20.71370402017044 3.542587456297279 13.122621040266878 3 0 1
1638 1 23.190639785354694 4.040538672129825 13.030076910582006 -1 -1 -3
938 1 22.064065889125757 2.238015336266084 11.624642878446004 -2 -1 2
1103 1 23.78854472976528 1.7585243479159853 13.455114061219007 1 1 -1
1513 1 23.91748538429375 4.099474221069915 10.627461871740806 1 1 4
1905 1 27.83970404639324 -0.030593746056844395 10.859386825135926 -3 1 0
3 1 24.512421233593393 1.9008319283192736 10.964977790188195 -2 2 2
279 1 26.982957766711355 2.200074009404119 10.875364575773048 -1 -3 2
1151 1 28.367822370978033 3.748654065849797 12.535861215327119 -1 2 -4
1782 1 25.73052935130456 3.104930016090944 12.669890615210015 -2 4 2
29 1 26.273116761524463 0.7461673285805465 12.591342005300286 0 -3 3
1529 1 26.526896731745115 4.5170831987451985 10.6682546101016 -2 4 1
1816 1 3.8066509579234227 5.550982179546112 11.750154016146528 4 4 -1
273 1 1.4331431525566685 5.261884169878343 11.4670471423968 0 -2 1
1538 1 2.0175993919442736 6.726032054881963 9.969195596471666 -2 0 3
359 1 0.536994891050687 7.4842570106203175 11.613433111428368 1 2 1
265 1 2.907489033077069 8.339219448358794 11.750769414180336 2 4 0
1571 1 1.9759155127943453 7.017991669405338 13.357157962864761 2 -1 -3
1987 1 1.2530846210274413 9.178172415351657 9.569351232367143 3 3 -2
1463 1 1.352588515023807 9.266335994692845 13.41745237380801 3 0 -3
1267 1 4.319652736586724 5.358586288599668 9.413593039468395 0 1 0
486 1 4.0340787777124145 7.904143018547732 9.43884744938003 -4 0 -1
1598 1 5.616546403193148 7.34136770436468 11.272503161738516 2 2 -4
1612 1 4.290832934340028 7.265876649820317 13.311420642658923 2 0 2
1629 1 5.004877815422957 4.890678703871257 13.60166521933408 1 0 0
1971 1 6.772978708036176 6.625180753238596 13.154478443066166 3 4 6
1679 1 7.783644335257346 8.327574000385969 10.50550225225337 -1 1 -2
1846 1 7.859467040067514 5.985618370274848 10.872531316269626 1 -2 1
1934 1 6.799862727478612 9.223380656532376 12.729384114166205 -1 -2 1
866 1 10.318482810872341 5.003402645647631 10.462018611889933 1 -1 2
503 1 9.543383055321629 6.341003271988821 12.64797888836535 0 -5 1
923 1 9.933706709018598 7.506775178443245 10.209079298970995 5 -3 1
899 1 11.821383004343135 8.22168325264502 12.331683759608381 1 0 4
305 1 9.479812116132543 8.922528827082672 12.376349356652419 0 -1 0
1950 1 12.034617843637264 5.680181445119273 12.389136777212336 2 2 -2
276 1 14.419127039564906 4.9782351438042225 12.182373423581609 2 -2 1
1734 1 14.815947167852485 8.902816699192215 13.772663089876296 2 -1 4
340 1 12.445175718784073 6.956017592773086 10.119915326310142 -1 0 -2
16 1 15.302346031620065 6.156743993263759 9.919323295326565 -2 0 -1
607 1 13.937071368754168 7.431132645295185 11.909455950933811 1 0 -2
140 1 14.604733294483514 8.820348430069492 9.855363072735479 2 -1 -2
1618 1 15.549644626348362 6.527265951355738 13.744160644048126 1 4 -2
1441 1 16.215062789973285 7.71184330138168 11.484717730196946 -2 7 0
1497 1 17.91212692150701 6.761808174404559 13.896058791579712 0 0 0