LAMMPS data file via write_data, version 29 Oct 2020, timestep = 300000

2048 atoms
1 atom types

-0.7907343480440492 29.142734348039323 xlo xhi
-0.7907343480440492 29.142734348039323 ylo yhi
-0.7907343480440492 29.142734348039323 zlo zhi

Masses

1 58.933

Atoms # atomic

1440 1 3.4048142633130176 6.224712673859729 2.638073265041008 0 2 1
988 1 3.4437525978298718 1.6664466308701846 2.2020404603870105 1 2 1
879 1 2.137095901077504 3.184753134628497 3.363240535407966 1 3 3
540 1 1.0286981824466324 2.0089870715447153 -0.153368695803487 1 2 1
1135 1 1.1853154464322446 0.8248160002359095 2.4457525348813274 2 1 -1
607 1 -0.6796086885104982 0.15009503220539633 3.841173723176894 3 2 -1
1318 1 2.5941108528288583 4.621407571777777 0.8268156436734915 1 0 1
1742 1 25.947145248013207 7.817409465836501 13.76734933985356 1 1 -2
1272 1 3.3210961575763918 0.13316046831110528 0.19909076597472075 0 2 3
243 1 27.006805011798093 10.366280765405877 -0.6240669217133599 -2 0 -3
573 1 7.936242568464696 4.609496651199049 3.5068183021855655 -2 -2 0
1371 1 7.631586155814571 1.6204835035857994 4.746545992590537 2 1 -2
66 1 5.597532184064006 1.4024718893781762 0.312317117587682 0 2 3
470 1 6.550769951592739 3.125375821088803 1.8734287237033125 0 -1 -2
765 1 -0.3797186922885061 9.71933536550562 1.0588638163935606 0 1 1
949 1 12.998776445041457 -0.19461765948490195 11.869611782440204 -1 2 0
55 1 9.473883193782532 0.48961508197460457 3.4958307066649263 -2 0 0
99 1 11.569022468800862 1.000970643523766 2.564976075010674 -2 2 2
1734 1 11.484754384650774 -0.6095912430427967 4.411777137184656 3 0 2
1510 1 10.202158183599572 0.8547144232001569 0.6963394829592429 1 -4 1
1472 1 10.32328388763641 7.405779936675891 0.342045324081516 1 -1 0
386 1 23.78394421903384 13.608787488658256 4.046803446611089 0 -3 -1
1862 1 1.1721882181067007 0.5869145523262498 13.411972470554847 1 3 1
304 1 12.138933032799608 3.2031645229891073 4.017697566040696 1 -1 -1
1682 1 14.304205802441457 1.6077577550192763 3.814501651523531 -3 1 0
115 1 15.383184188902648 3.8696300912111132 1.0507395067865561 1 0 0
1196 1 15.809581083152755 1.6366492199836236 1.625474055282035 1 -2 0
1113 1 16.625337139504005 0.48480601170146786 3.62418387219802 -1 3 0
886 1 13.579576312283947 2.0263129887285847 1.7629943096694078 0 -3 1
1764 1 22.388776666052365 -0.6245992885934797 10.553759143754158 0 0 2
1544 1 6.2608452171367635 0.9355870454353525 10.722004047042239 1 1 3
1775 1 18.030773554435534 2.256164176562331 0.21961008053783604 -1 3 1
19 1 17.67601318544874 3.0773458851156708 2.2719258203942205 -2 -1 2
1925 1 26.666755328254297 12.24431352537406 13.332257272239364 -3 1 -2
1964 1 19.97156061653012 2.8255624205783363 2.9308007825903366 -1 2 2
1285 1 17.163312801256723 4.7492305063912275 -0.006807141498184843 -2 1 1
1082 1 16.687182951773792 5.1519659645223435 2.615663597214046 0 -1 -3
1035 1 19.02992597998915 1.0443290262345315 2.2394803314696405 0 -3 1
1622 1 16.501821009311968 1.905992004931477 5.802970888425248 -1 -1 -1
1689 1 18.277027660474886 -0.3824163134390034 0.361968601589467 1 0 -2
546 1 7.489666213994864 2.538362515817499 -0.34269019887134944 0 -1 0
1178 1 19.01595112318737 1.6974500546532694 5.346907726243032 -1 0 -3
1259 1 22.049280500135815 2.133910429700461 2.816305696740369 -1 -1 3
1290 1 7.487956515537707 12.839273349593714 -0.24900635042355457 1 2 0
571 1 20.992173714472912 4.915293189615026 3.095108986460926 0 1 -1
648 1 20.487579862819175 4.515983190812931 0.23683958152953677 0 -1 0
291 1 21.281088689479077 -0.5080731536598392 2.934741186040589 0 2 -1
469 1 23.93573199628281 -0.002361413993747563 3.8494996346392165 1 0 1
797 1 25.40027211585192 2.558183696479311 -0.2934387811206386 2 -3 1
104 1 23.134205698674826 4.05837469625971 3.753658515476408 1 1 0
806 1 25.502277926919362 1.4169508473468229 2.140078962571851 -3 0 1
1897 1 24.910578643082374 4.382713754819241 1.9804880019695132 -2 0 2
485 1 -0.2141157939443209 2.913705477903106 2.115052609639313 1 -2 -1
779 1 23.17389153373683 1.991296991331767 0.8098181361681569 -1 -1 4
975 1 25.95516338364738 0.037941233195391666 0.2661595566013357 0 0 0
1963 1 27.73446437720697 0.029499413501128613 1.9487736475611848 -2 1 0
2021 1 18.24270501350776 1.003619059368467 12.009274868600336 -2 2 2
1561 1 0.8999448736377418 5.121549924898115 2.1446367804653494 3 -2 1
764 1 1.2479219691740986 8.692891781427594 0.03637642143498576 3 1 2
1066 1 0.535577619528681 7.3439518831304955 1.8599509254767952 0 3 1
217 1 2.1248086165551436 9.31893738571355 2.9262319785721385 2 3 1
1134 1 4.14324633940368 8.55493813726951 2.2222499586331725 -1 -3 -3
1731 1 2.9942104053771645 9.926979359121752 0.5569450399999976 -2 0 1
708 1 28.842998998823766 7.385343822677575 3.6935420238111725 -1 0 0
1916 1 1.4196951836645222 6.199251509527334 -0.34854619977664447 0 -1 0
1273 1 3.2769598406731655 7.153972434187744 0.6099619070355993 1 3 1
1125 1 4.911632214074337 4.176162482480976 0.4146860655831264 0 -1 -1
105 1 10.056238613647379 5.361617137080215 2.583256202850673 -2 0 2
699 1 7.3022350912489795 5.545332634674576 1.3648668552138234 1 2 1
1997 1 5.907193441428638 5.502666703040483 3.8063310003377975 -1 2 -2
258 1 5.57004160554249 7.035817079178928 1.1239611340883318 -2 -1 0
621 1 13.68042488202921 4.127414275730058 13.816092329679487 2 -1 -1
1286 1 8.935169924239524 9.226479463819567 3.2472293823515255 0 1 -2
774 1 9.182192059509578 3.7247260109793823 1.425222387381595 0 0 -1
1751 1 10.426362314527196 8.019592227271342 4.7463899233741 1 0 -3
524 1 26.198518914461474 13.938256904465904 3.9795312741799895 -2 0 2
1720 1 8.151601576169798 8.045526581679841 1.5823926235286003 -1 1 4
677 1 12.223456160676694 5.638116184931911 4.044323937551887 0 -1 2
1687 1 12.591836131704499 5.975994865476788 1.6473927402593556 0 0 -1
628 1 11.2378236797672 2.857598070036865 -0.44943347898072833 0 1 -1
1147 1 2.6836808628733757 13.064089114377895 3.9552627014213266 -1 -2 0
244 1 11.628224205056343 3.2603335189926206 1.6275876638599778 1 1 2
1180 1 9.868476643244442 10.895710443875096 5.419199790127558 0 0 4
441 1 15.949439451513728 2.9027898377832733 3.904770460686689 2 1 -3
320 1 11.711697880054473 10.373627961316567 1.122818759029804 2 0 3
1570 1 13.295644241180266 8.376920744743687 2.9608393737034655 0 1 0
1336 1 3.505362411382997 2.4122640760785727 -0.4367952300902107 0 -3 0
1208 1 12.976054939370878 4.094708947387134 0.3424109542835472 -1 1 1
1906 1 14.508543520026766 6.243141653500035 0.4050741576509109 0 -1 2
1762 1 12.491214463196181 7.234370542074856 5.63438646426276 2 -1 1
1821 1 17.0979369558543 4.981020391486742 13.536047107943467 1 3 -1
286 1 15.024248114568394 8.783931766127854 0.9884002396555889 0 -2 1
1346 1 18.852569927905208 5.596459165761092 1.3569902212680751 0 2 -1
667 1 18.99018849427206 7.732672435743623 2.0144994476046216 3 2 -2
7 1 20.874181479065292 6.530807557357936 0.9582172444943651 -2 3 0
812 1 20.52792667508519 9.712715403677372 2.8846367404880056 1 0 2
728 1 12.479200992165424 8.133602519982485 0.7497257193574309 1 -1 0
569 1 16.72004801921667 6.846392212640231 1.0992957865261461 0 -4 1
1778 1 21.760360618425842 12.629087931570991 11.956903596321048 -4 0 1
408 1 23.523930709055897 6.321655925929182 3.0664169575587357 1 1 4
1935 1 24.829881932146172 5.738207754863417 5.0919042720130445 2 2 1
1758 1 17.11133936822901 -0.35131750228524533 10.189310817276391 -1 -1 -2
1670 1 20.86168494029497 7.223455984614489 3.8964469846095238 0 2 2
1743 1 22.674739532356803 8.132874738429951 1.6738053593426736 -5 1 0
276 1 22.740138568698455 8.949409129751 4.072545372562026 0 -1 0
814 1 24.54947638607407 7.151083060330027 0.6601814843689038 -2 -1 1
127 1 26.374613929494018 8.279939256318224 -0.18301090879821114 1 2 -2
1036 1 24.43474867349333 4.961182805118614 -0.39726176882919095 0 -2 1
139 1 27.351478834063748 3.0099923534550665 1.1746128374046023 -2 3 -1
1673 1 26.452968989109884 5.990995195772177 0.19425797782680543 -4 1 2
363 1 26.104079913964682 4.340735569183384 3.765298826321594 -1 -3 0
1538 1 28.46031721993983 5.619658501966192 2.363237926615785 -1 0 2
1467 1 28.157354470433035 4.228817092161196 5.00116796795579 0 2 0
212 1 22.92039116117244 0.1808052638585983 7.310318237030662 0 -1 3
1077 1 3.87541155966057 11.264065207792617 2.4642550979369875 0 1 1
2016 1 0.9786528603296814 13.06571808138406 -0.21098697766433294 0 3 2
1843 1 -0.2602394537305629 9.480410333173964 3.388547253607797 0 1 2
1069 1 1.4274155055604645 11.082745995827292 1.3800009951910845 -1 1 1
1546 1 28.524280771773213 12.115266992794645 0.3703193629982364 -1 0 1
987 1 28.83113250275796 11.452124013218368 2.6898611013385065 -1 0 0
860 1 10.204328002923548 9.393461083039107 -0.2622564941676109 -1 2 -1
619 1 3.3662498631626825 13.25868860323712 1.362487964266979 3 -1 -2
698 1 6.06732694972225 9.732175888996661 1.2897487996863153 2 1 0
527 1 3.8565953238372543 11.485899237851752 5.3151213023527815 -2 -3 2
1277 1 5.795804760831173 12.098705578029639 1.0022762628695472 2 0 -1
1331 1 8.344555134993568 10.732113866895066 0.9859138453245342 0 0 1
369 1 6.648869051168444 10.156653685663677 3.6403151337183566 -1 0 1
734 1 26.447725516547038 -0.03989896641406787 3.7401735219424035 2 -3 0
1723 1 7.8449207510550085 11.73115450768261 4.91623397664844 2 0 1
789 1 11.993602165793211 12.964334124942114 1.4644815906784672 -1 0 0
167 1 7.988347838291222 11.831142886678567 2.849796702460994 -1 0 0
2046 1 10.794577369968538 8.18333821530753 2.462498699975042 -1 1 1
1919 1 10.258560817012814 13.473402897851752 3.5583983395280177 4 2 3
1474 1 10.718311194142133 4.40169785594976 12.99733262187083 -3 -1 4
183 1 10.135513277995011 13.334371266489537 6.200502495065061 1 0 3
247 1 0.48759318476707403 12.782852213654529 9.471799047182259 1 -1 -1
428 1 20.549191689669016 11.46001610317457 13.704914621014153 -1 0 -2
1376 1 10.362721458184215 11.608528247021699 2.583997592256779 -1 1 0
1229 1 14.139033398038674 10.969799603390047 0.48737787615713346 0 0 3
1160 1 13.284096772058662 10.653643702147342 2.9307550423062714 -4 1 -1
103 1 15.970020660341445 12.765852350497356 0.3610193620797668 -2 -1 -1
1539 1 11.801855611747108 9.791312779382213 4.484899571860486 -1 2 1
1710 1 14.645912229597059 12.38804637307918 2.3084347108142906 -1 1 0
1030 1 12.431244447320204 12.362826782906268 4.039306556116898 -1 -1 1
90 1 14.756592571167987 13.101305766241259 5.118889382034791 0 1 -1
233 1 16.819003650580427 11.46003405799515 2.2084660912521206 2 1 0
1232 1 17.821717810190755 9.800060183700333 1.306976901306717 0 2 -1
140 1 18.293901755989275 12.359450002944453 0.3655103725446722 0 1 -1
190 1 18.3687650779108 10.391049891913042 3.552287817979658 0 -2 -1
924 1 8.138797743640438 -0.7223364520701389 4.767072789097717 -1 -2 2
962 1 13.596504975780038 -0.5236215487386433 2.6636995552509117 -1 2 0
271 1 21.934203373342143 13.678841742593828 2.4229066912617303 0 -1 -1
639 1 20.348799891524237 8.718689117211406 0.4915129500170976 -1 -3 2
505 1 22.055717405836468 10.775068358532208 0.398596265820121 -2 -2 -1
1258 1 20.005212202431338 11.120681416822743 1.47739860392401 -2 1 3
943 1 23.113377174520124 10.668575859259738 2.5052438438615834 -2 0 0
462 1 21.023798360238224 12.997986952341108 -0.11683305798469679 1 -1 3
622 1 25.37886706508354 10.30665932260951 5.280251395714916 -1 3 0
1532 1 19.64074062316 13.683378155325677 1.9900207927838993 2 -1 0
1992 1 20.86136770179163 12.223634335563274 3.270625039105412 1 1 0
864 1 -0.5493222235454325 4.083677568007872 0.045650223110298094 3 -2 3
1566 1 15.064445272448046 1.2239354579636865 12.398558892493723 0 2 0
1526 1 24.187511754420733 9.471615282256897 0.7647150894732844 2 2 1
1054 1 25.68983511100938 12.394537494159202 -0.30940118136796013 0 0 2
1755 1 23.94120986656481 12.032794325180271 0.9540869808371184 5 0 1
1060 1 26.370902338349786 11.051853245849008 1.5458745771985156 -2 -1 1
1340 1 26.720813994424667 13.361669717120417 1.39544122548202 0 -1 0
1023 1 27.706083801304096 8.142080704639762 1.8159365890169807 1 -2 1
1485 1 24.94606229400715 11.637659201396554 3.383095272489008 2 2 1
26 1 2.5047838651701486 0.20161497497669967 3.820017389042527 3 1 0
1583 1 11.853328661519393 8.208971007764793 13.01808021568738 2 -2 0
1014 1 3.613409314209366 0.2949932366116734 6.088877225105336 2 1 0
1315 1 1.8673806656263863 1.7184394387509254 5.437413977857493 -2 1 -2
608 1 28.251446220675803 1.8945054967385033 -0.6373532481887155 1 0 -1
1433 1 1.2185888457687288 3.464321013208207 6.576246430616655 2 2 2
1869 1 28.755403008293747 7.995252145429308 13.180399965902225 0 3 3
1577 1 3.4720794805665456 4.513506386772692 4.831995675333689 3 1 0
1812 1 22.811007016307613 13.843606320894427 -0.6592969742885141 1 -1 1
1122 1 1.218589403417087 5.427611062018911 7.490744498257181 -1 -1 -1
668 1 1.240349440079045 4.034313903050244 9.38756112116964 2 -1 -1
1248 1 4.877241008156845 1.629424565842331 4.133138646511832 2 1 3
1479 1 4.197531171316486 3.886353885099747 2.5502877300184825 1 0 4
1721 1 13.01876919252329 0.2551779802975813 8.998376013195479 0 1 3
733 1 7.74489354605614 0.8694419985247888 6.926166116357361 2 0 1
1106 1 5.7972755376398775 2.2185822541498257 6.26145174654134 1 2 -2
720 1 3.6976803854450724 2.5423305741719653 7.177294973040185 2 1 3
1708 1 20.4769449581388 2.147715237419229 0.7386851324038195 -3 2 0
210 1 9.821721941887187 3.1270347933545644 4.017211866261842 -1 2 1
1613 1 10.175347170727786 1.0492168565849285 5.7848537192128315 0 2 -1
1139 1 17.109722433094134 13.30714587795843 5.9484959874569 -1 2 -1
1782 1 10.401928930500663 3.0941651898833586 9.89257978726965 0 3 2
1249 1 9.632280441092167 2.2186822291609976 7.9803477775370535 1 1 2
2012 1 8.258993049856837 -0.19110833466686983 9.28210208089163 1 1 0
752 1 6.801525213460366 3.994772060998155 7.839471156119616 0 0 -1
813 1 11.568995743987978 3.0508284447440963 6.434060429754848 1 -1 4
663 1 12.029351080507572 13.214775446548591 14.114428059506508 0 -1 1
1469 1 12.711573643598996 0.9769490396399152 5.519632196069111 0 0 3
407 1 15.05352396325501 0.13553565233324283 5.402862677761797 0 -1 -1
153 1 14.003251871893074 3.4303840232657326 5.321682207402762 -1 0 3
1628 1 15.347717813774393 0.02202803253465857 8.252222276897294 0 2 -1
688 1 13.677268566278645 1.5955545881581243 7.368078460011034 2 2 0
367 1 16.05579669692529 2.317843990914618 7.808174917719004 2 -2 1
1330 1 14.089581424531112 4.600524190961335 7.541704320863005 0 0 1
1016 1 16.567903964890085 4.499909152730988 8.991323900694901 1 3 1
759 1 11.765819735936105 2.3858862924152064 8.570838532657968 -1 1 4
1246 1 17.78758189657679 -0.5489741761187844 5.508887717953934 1 -1 1
211 1 20.577396810258136 3.9298881116282374 5.724086768550333 0 0 1
1288 1 20.266025106389243 2.5650254872552405 8.65408836461307 1 2 -1
96 1 17.873999772599255 0.7821536814072552 7.946963761206943 -1 0 0
1047 1 20.162562422594583 0.2461894682566257 7.128942310969934 -3 1 -2
1355 1 17.97558315984127 5.472348808700116 6.971014496136937 0 1 1
1809 1 18.254437699470436 3.15284750984109 6.861427438626961 1 2 2
494 1 19.26611321719882 5.724111463878764 4.485699769713339 -1 1 0
357 1 0.7992265172242745 -0.7236605728742305 5.435529839688644 1 2 2
400 1 21.271906929014015 0.8476750256800598 4.947753327658966 1 0 0
691 1 24.069584010220815 2.4109669973384085 4.704677192419089 -1 0 1
1803 1 22.498717476569226 2.444319500294889 6.2715625226802745 -1 3 2
1793 1 25.305623391029002 4.25615883183063 8.547294697958275 0 0 -1
1971 1 25.486236087506278 3.883642000966737 6.20665039534776 -1 3 4
1999 1 24.347649456627593 2.322367245346483 7.3771224493954985 -1 3 -1
1365 1 27.931719383462173 1.8303437717407833 3.590817018899954 -4 0 0
884 1 28.78893227907681 13.625813138982751 2.234026159484032 -1 1 -1
519 1 -0.20654087912202557 1.8196711114470272 4.789863152534768 3 0 2
1406 1 27.255281869632086 2.086700381453247 5.648090923373204 2 1 0
696 1 28.87321079931327 0.4503385266054625 7.344057610839007 0 1 1
1287 1 26.287452776584566 0.5794519611911859 7.72608390908678 -1 -1 0
768 1 27.715626867002584 2.631054367187031 9.975650859447684 1 1 2
664 1 -0.0978390704209644 1.805095682146252 9.081072334230592 1 0 0
716 1 1.5392917231957437 11.204566860234804 4.011342902604477 0 0 -3
1010 1 1.6461517592651327 6.313513539975891 4.461140143166842 -1 0 -2
110 1 2.1384935760795423 8.89648911299135 5.30022269705931 -1 -1 -1
1205 1 -0.3508539494788208 6.474083185630561 5.8335805938298835 0 -1 1
338 1 28.03038793644121 3.0258906067207283 7.559782619139094 1 0 0
541 1 1.1881781671993341 6.233931728343514 9.631732697487223 1 2 2
486 1 3.910123203983951 6.744995183333874 5.083221991279913 -2 0 0
1609 1 3.8965047130774613 4.384296065618894 8.335964713898681 3 2 5
373 1 8.75340039895516 6.929912420571383 3.590730252881708 0 1 0
300 1 6.07099922572962 7.583746828316384 3.262251050382302 -1 1 -1
877 1 7.343153162110388 6.5052543898665665 5.530304009201051 -1 2 -3
1848 1 5.542150514150366 5.0187813275149065 5.836780562495472 2 0 1
660 1 5.682010742954587 7.889707541136364 6.117683396247004 -1 1 2
1686 1 7.767171491556795 8.842660632664472 5.586028734277278 2 0 0
88 1 5.705647497675078 6.365786040428657 7.812465280700707 -1 3 1
1126 1 7.226564138381345 9.126883322170936 7.879197466904969 0 -1 -2
1005 1 13.888515649041295 4.4663856242735935 2.6046491775616794 -1 1 -1
1733 1 8.440244176971003 4.1745167810528345 6.250667967233771 4 1 1
1750 1 9.447705484458265 4.818053766503889 8.304040779740724 -2 0 1
230 1 10.257269618240656 5.420168322075528 5.049752990007873 0 -2 1
771 1 10.329152504492686 11.30774968567407 7.747247367821725 -2 1 1
1945 1 10.159670026678208 6.613737744368182 7.321649999299089 1 -1 -1
1198 1 11.129449629119101 7.115859980769109 9.20565347574311 1 3 -1
364 1 12.111687156155293 5.486922520680932 6.589711314794286 1 1 -2
1488 1 12.05829277413239 9.3060701162667 8.87742502875085 -2 2 -1
753 1 14.348175315267456 5.750993751747841 5.346691105132865 1 2 0
1516 1 10.491286772168701 9.064266018511546 6.730913592067062 -2 1 -2
461 1 16.974113375419336 7.011892046008312 3.5901658306501654 2 -2 -1
1431 1 15.961214984835346 4.263608534352074 6.158596023079101 0 1 1
1632 1 13.144842252470863 6.986986620369723 8.231709487008299 0 2 -2
577 1 16.81355688968526 8.351811401035997 7.588054676378883 -1 0 -1
1511 1 16.606753929128132 6.561300102957864 5.590285518857513 -2 -1 -1
74 1 15.865605998204567 9.234928972505392 3.1499567273159257 -1 1 0
342 1 19.426763341256574 8.747535274275675 4.568087138841097 1 1 0
1362 1 14.814560699736766 6.652794446564609 2.8725658212218583 -4 1 1
551 1 17.817303444366935 3.8714723847976558 4.414397745008733 0 2 -2
1462 1 18.60635614846101 9.458301225792855 6.827601011096963 -1 -1 1
1455 1 20.350007999664015 7.293522666400854 6.3379340509752415 0 0 -1
567 1 18.77576802446339 4.837567541084103 9.252954872046018 2 1 -1
416 1 19.40063498711092 6.853194940066674 8.125403996354253 2 0 0
857 1 18.807658118134846 8.872373107981787 9.645694983605837 0 1 0
169 1 20.829102210245075 5.22459791573818 7.325714075999196 -2 -1 -1
205 1 23.413664861996125 4.919894471915903 7.275427379823178 -2 0 0
1257 1 21.41348752051632 10.036897048552085 5.260155531471885 0 0 0
1804 1 22.2948473419237 6.6279199053675155 8.312044549654791 1 1 2
820 1 21.994086513532743 5.696263265485195 5.288725015226621 0 2 1
1226 1 22.674963811420128 8.260357583549638 6.638919849666855 -3 0 -1
152 1 0.1820856004085668 4.601770052029293 4.4243242824133215 4 1 2
845 1 26.767490892292415 5.798097501489665 6.932525808241231 -1 2 -1
1552 1 25.808326059525555 6.602588759745581 2.7547139103895772 1 -1 -1
1123 1 26.8798533434761 8.079772869151746 5.331403934057733 -1 1 -2
911 1 27.512668818342163 9.941218121682628 3.6452522078110325 2 0 0
356 1 0.1557144912900934 8.706119152461932 6.637340190550769 0 2 0
1657 1 24.57860985181368 7.920473521630095 4.698994786547155 -2 3 2
1464 1 24.787664498180234 7.366857551919942 7.983870110834541 1 2 0
844 1 -0.7271800823603698 6.309039868241788 8.06070785105953 1 -1 1
1584 1 -0.6930903340588597 10.768798970726579 5.510161244807884 1 -1 2
912 1 6.4991982504737695 0.5753458118657973 2.7643002130626217 1 0 2
143 1 -0.35704022893407855 13.053065987982615 4.498529773098443 1 -2 -1
1662 1 0.9834277857297788 13.234815004524322 6.681286805386068 0 -1 3
940 1 22.892308012448567 4.180186534817336 1.0139547542286516 2 2 -1
329 1 1.6596744058276562 10.631616135784434 6.571309017524074 -2 0 1
1555 1 3.2444576693936815 13.91472423301607 6.2467571622678975 0 -2 0
1185 1 2.501851898796016 7.396442428915069 7.359564627886796 1 -2 0
1921 1 4.45066911872521 9.648957920098587 4.219140064806344 -3 1 -1
1127 1 6.033892049249756 10.419071949003873 6.173502817077047 1 0 0
204 1 5.311443713675088 13.869078052358743 8.61154112268032 0 0 2
72 1 2.934514852173043 12.324945353778606 8.05924400745342 1 1 -3
873 1 3.9164009476882695 9.370584440179076 6.529278216273087 -1 -1 1
149 1 8.882063322347216 13.06040262414741 8.668858377301913 2 -1 3
1578 1 5.400703575111264 12.641715930203516 4.391279692388536 1 -1 1
120 1 5.270981048158994 10.998205630400786 8.513101434898688 3 1 1
207 1 5.710394615026285 12.904001664638997 6.563641706641536 -3 -2 -1
2015 1 8.122506575776194 13.782049112982087 6.596281180428614 1 1 -1
769 1 3.7208683809315604 10.131563511350214 10.196417855901856 0 -1 0
805 1 7.95672363334128 11.05255600171856 7.083191768755962 -2 2 1
770 1 23.53148059590834 13.491814625128608 8.036279188384562 -1 -3 1
420 1 11.133059911865383 13.178342095737992 8.485589429335205 2 -1 -3
816 1 9.423342162424303 8.76717231914952 8.801752555416686 0 -4 1
1004 1 10.845164100866732 10.859940886542255 10.054126390104503 -1 0 -2
517 1 14.587056741783444 13.486452055155548 7.83111126738623 -2 1 3
1263 1 12.876249949793529 11.465145596799914 5.98838985035143 0 0 -1
746 1 9.829828538315308 5.187418576891908 -0.24933761911864283 1 0 1
176 1 13.93121873030496 9.850758906824883 5.022598552338213 -1 2 2
270 1 14.76912924193956 9.084305622098134 8.541438765224418 -1 0 -2
325 1 12.90245813515088 11.419004142191188 8.559458713507318 1 1 3
808 1 13.08615168384291 9.43104695284005 7.00996250255621 -3 0 -1
1237 1 14.864037624293168 11.393565428633687 12.087922702658874 0 -1 -1
1582 1 14.924919480039385 8.070229050946017 6.136623769747249 -1 1 -1
1658 1 15.501023562384786 10.600098379572872 6.882044884892988 1 1 4
867 1 18.37607615270575 13.182661393493992 3.942704209450585 1 -2 1
1254 1 17.36784148288423 12.241526822323076 10.605406272197186 -2 1 0
958 1 18.282885733715496 13.338562934279802 8.467807516943873 -1 -3 0
918 1 16.338128597909332 11.017390884421111 4.915337332386844 -1 -1 1
1678 1 16.79048737533158 9.061440508654158 5.069575970054187 -1 0 1
568 1 19.30074381965853 11.800528961981735 5.823096143275238 -2 -1 0
839 1 19.347976488129284 10.830809869487368 8.899534662340713 2 1 0
610 1 21.139379914021006 9.85233499731665 7.519661026848208 1 1 0
894 1 23.089293899122787 11.342580222099963 4.954338452419286 0 -2 -2
499 1 21.141831738918135 12.968993380510126 7.7978194687378455 0 1 1
1558 1 15.060267609050946 11.386732434949744 9.554787996001032 0 2 1
502 1 24.44943942464186 9.671133042352581 7.711917359738681 1 0 0
1320 1 25.75061660245376 12.688016682236315 8.277198586819425 -1 -2 0
1740 1 23.146481694223432 11.390465875838917 7.152324155327196 -1 -1 1
1797 1 26.994389923196742 13.823655343526266 6.693056256472723 0 1 2
296 1 25.546426092648645 8.994910027261659 3.149470918385357 -1 1 1
1983 1 26.98803390115107 11.980037751699415 5.022466211494975 3 -3 0
1017 1 24.92678998481432 12.402284864432678 6.083100956361406 -3 0 0
627 1 28.733369019945755 12.472423542510729 7.496560557054774 -2 -2 -1
1271 1 26.941676796674315 10.838587061334106 7.321582933538947 2 4 -1
1923 1 28.560259363183107 10.322161042455786 9.455510360443439 1 1 0
267 1 0.4248368740865316 8.600528544163433 11.154463234120625 0 3 1
1693 1 27.52715294138512 8.483291864327972 7.9223698684378885 0 2 0
552 1 8.11739995567993 1.5111416793295556 1.7174017597231268 -3 -1 0
1441 1 9.42949566274526 8.92608722171421 13.011107079276373 1 4 -1
128 1 24.493459052947145 -0.12032122443663118 10.383808369266252 -1 3 0
1753 1 2.2575708249613173 4.70546333552469 14.168977967822588 0 2 1
643 1 12.304504521744049 0.3202468519275108 0.5877575052242445 -1 -2 2
1727 1 28.83181535359566 13.303160635411535 13.24859816455755 2 0 1
896 1 1.2875954624936896 0.5213902748475798 7.352595139420178 0 -1 2
1518 1 2.6683290707412306 1.8714824552312836 12.484755083552706 -1 0 -1
142 1 14.480526390998998 0.7844788499849058 -0.2816257083806246 2 -1 0
685 1 7.687430850516149 2.4855640088700377 9.634994565987537 -3 -2 1
1635 1 5.88068953679728 0.5470515579382331 8.152913782933133 -1 2 -1
747 1 7.473431056413107 2.2094007780780522 12.366888010970628 0 0 0
1499 1 4.590344812830041 3.158265009212505 12.468434556892205 2 0 1
1074 1 4.161211386288472 0.742738753589113 11.233195906636219 -1 1 2
1669 1 9.14734211782002 0.42686204147238893 12.087103536401628 0 0 4
272 1 23.200628038733015 12.69169893662885 14.029802992573108 -2 2 0
483 1 5.438555130182378 2.532022293081197 8.950714359089357 3 -3 2
1189 1 11.454177890473957 0.06785256515652294 7.414225625215046 0 0 2
1398 1 11.107439276252832 0.9260076997855811 10.649644026618427 1 4 1
1889 1 28.648122240360266 0.8829317543421433 13.504104096289907 -2 0 2
1430 1 11.585234777249523 4.616547377619804 8.468501671503093 -1 2 -1
1329 1 10.394633548249397 2.2413875268759478 13.101509378531787 0 0 0
1928 1 11.15808748876783 -0.38085183246785437 13.571593692476203 -1 1 -1
1037 1 12.609589210299054 3.405211550773174 11.299236832826335 -1 -1 0
1924 1 15.968213072962355 1.6932625017499894 10.332537502722777 -2 0 -1
1333 1 25.348336914083205 9.195164890608655 11.574881324807816 0 -2 1
1659 1 -0.20576791925885207 -0.03413155817726554 1.048331743442802 0 0 1
117 1 14.366079726795949 2.722504964162056 9.363880499800905 -2 1 0
46 1 14.857012071469473 3.888788202951006 11.611663780643127 2 -2 1
1283 1 23.910138371336302 -0.481831257149948 1.6017416832962765 -3 1 2
891 1 15.967961925980573 5.716748103755377 11.110711583072762 -1 1 -1
518 1 12.729649678771116 1.9897002035572635 12.874612838617724 -1 2 2
823 1 19.28041973597869 0.251350675202886 9.595970575818638 -1 1 -2
1000 1 19.36271404402987 2.915984873234393 10.84978085361697 -3 -1 0
384 1 21.214206210065356 1.593420914476738 11.360162946912233 -2 2 0
403 1 18.82108734985897 3.235159484799948 13.113166031155588 -2 -2 -1
1373 1 17.741434176033025 2.2711177214688 9.559483171825853 -1 1 1
412 1 16.74970014056794 2.80085113303035 12.122234889284895 -1 -1 -1
1509 1 20.716751005320198 4.553287054879253 12.428325196641165 1 -1 -2
1498 1 20.59800174769412 1.3699312078104104 13.64076847969 -1 0 0
1159 1 26.528675825418766 1.2993824817550763 11.589113626190972 -2 2 -1
841 1 26.63694717601917 10.117729783795271 13.053060418142595 -1 0 0
1817 1 21.88131893880349 4.111780822814897 9.370557964509366 0 3 1
337 1 22.792209370514797 3.231030341281282 13.290016319290583 0 -1 0
1949 1 25.643304386675275 1.9007644069875003 9.784306952808228 1 -1 0
279 1 12.52115052347691 13.789797935816697 6.405525178436973 -2 -3 0
530 1 22.568697804943078 1.8199557839132523 8.842544211256769 -1 -1 -3
91 1 28.306686432575717 11.592530287389232 11.816294936780253 1 -2 1
1119 1 26.233704284003778 11.773592294282558 10.749587536004798 2 0 0
1714 1 3.510258050954132 0.5892214782847005 8.578607504425165 -1 1 0
443 1 23.581307307931866 3.335146075593279 10.550357962339852 2 0 1
1989 1 27.84188203395051 0.591595037679737 9.76214846468588 -1 1 2
481 1 22.390398399725882 13.37719707043553 5.954905800412868 0 1 1
257 1 25.415539494591172 3.8173373596217353 13.261114018565438 -2 1 0
1547 1 -0.4866214275645666 1.5340501648716751 11.232597326933217 1 1 1
1944 1 0.6336800004913139 3.06078501733199 12.780375095755058 3 1 -1
1053 1 27.887533024221867 3.2853310557122413 12.259401009181486 -1 2 0
95 1 27.672081478643562 12.793037209497982 9.588798265986224 1 2 1
1041 1 16.84230719281802 13.837775714108169 2.5706255553013504 -1 2 0
1749 1 2.256301287857749 4.3830293264089875 11.551261095580921 3 0 -3
1641 1 3.5283186730420315 5.886817113779112 10.154499726142864 0 2 1
1653 1 -0.6191497151049237 4.143711411189879 10.812626143412343 1 0 2
1607 1 2.7990688379511144 8.114102515713546 10.462945236134686 1 1 0
1403 1 2.9370498902401776 6.678389496834891 12.349629061376099 2 -3 2
1918 1 0.06530368228671724 6.052320982608829 12.399680169539879 -1 0 0
786 1 2.017886193037872 8.849930356686892 12.933033793969138 0 -1 2
284 1 4.900608949030005 6.910835435011273 13.528758750284815 0 -4 -4
1114 1 20.578639107298628 -0.1736357349065274 0.4911262963552756 1 1 0
447 1 7.807367142211593 6.564646750224014 7.822815221733004 2 1 1
1142 1 6.812844858595504 4.56153098546188 12.655054283804613 0 -1 -2
1859 1 4.396729273270412 8.168527164979002 8.604851441646463 0 3 1
1605 1 2.8998966124616987 2.730624173444989 9.946550829011285 0 1 1
1846 1 5.3426208199173235 4.828197167081577 10.933525706689784 1 -1 0
245 1 5.738343785200007 7.484808402174947 10.36359168155036 1 2 -2
910 1 6.814379622760868 9.38350159750618 12.909497423678708 1 -1 0
1703 1 7.402014273301301 5.48211868786136 9.85283212573389 4 -2 0
1696 1 8.749166259329485 4.055115470613088 11.372067186133496 3 1 0
131 1 11.633493996785266 5.679151574173167 11.034003371517308 0 0 1
1388 1 7.779187816256819 6.89087481579238 11.974663923084394 -1 -1 1
1350 1 9.973891780855618 6.590627542789105 12.52509469869644 -1 -1 0
98 1 9.337648250391199 6.605840601691768 9.882653423566625 -1 0 -5
24 1 8.299981847489839 9.192346207393571 10.977788158983133 2 1 1
51 1 10.637193651696647 8.612571362518588 10.854456816488604 -1 1 2
1954 1 13.538795942916224 6.2243753198324905 12.69508603165673 0 1 1
706 1 15.176815160798125 6.315815778879976 8.01841346146035 1 -2 1
730 1 13.876926256765902 5.107366697445213 9.656899733650327 -1 0 1
1802 1 11.647928380796051 12.960185458413383 11.008157648808169 -2 2 2
1369 1 13.570228064530058 7.537704191749565 10.67677948725588 -2 2 3
1242 1 17.5474916038484 6.976765804603466 9.260649506415495 0 0 0