LAMMPS data file via write_data, version 29 Oct 2020, timestep = 300000

2048 atoms
1 atom types

-0.17049590639859602 28.52249590639056 xlo xhi
-0.17049590639859602 28.52249590639056 ylo yhi
-0.17049590639859602 28.52249590639056 zlo zhi

Masses

1 58.933

Atoms # atomic

473 1 2.7114509759050436 2.3288714945175326 4.008028993362669 1 -1 0
909 1 1.1953715702885808 3.8362068633295605 2.1154120807628805 -3 -1 4
1324 1 1.5828104588675747 1.4907246055972578 1.958895559139072 0 -1 0
430 1 1.0647645037716922 0.45678050592702835 4.657256922774485 -1 5 1
406 1 13.894577078110547 14.086264035321598 13.401070538378452 -4 1 1
642 1 3.506299217876839 3.4509956208329635 1.8114619095172757 2 2 1
1803 1 0.3323366184169225 2.9036999612525833 3.9312483946816963 -1 4 0
525 1 28.502503048621943 2.878311013943959 0.35295078483187137 -4 0 -3
1228 1 17.39904996448945 -0.046018801944363474 1.7982153953339708 0 1 0
204 1 10.532297398965639 13.261414200638276 0.18438677466874842 1 1 4
142 1 4.038669509246202 0.9710268933444512 1.8938375800596408 4 0 -1
230 1 5.8926350728918235 3.064890473068152 1.5346068823795131 1 -3 0
261 1 5.336535650013552 1.9799699729509377 3.7360578812857894 -4 -1 3
1761 1 6.977780464262518 3.9561890053047346 3.3020221192680452 1 1 1
1192 1 6.363482564764389 0.7333298092674682 1.3602787455747654 -3 2 -1
280 1 7.683085194570181 1.7335602165817492 2.9721183543350573 -1 3 0
175 1 4.6912262360546295 4.573198777358613 3.7263245318126135 0 0 1
1061 1 8.152569147604636 2.395083522338142 0.8403050048662937 0 -3 -2
1733 1 10.489619394390942 2.119529492989935 0.728139393454804 2 1 3
861 1 9.354345746582208 3.4829054401665767 2.975608335266376 2 2 1
290 1 10.29129276119636 1.3874472024645166 3.038577450609806 -3 0 -1
1535 1 8.958916806525563 0.2618756278767331 1.2103244096124506 -3 3 -2
1518 1 11.844376582140562 3.2456086749074196 2.51339572805095 -1 1 -2
1092 1 9.896586071099248 4.312893254074253 0.6557085014230031 1 -1 -2
841 1 14.446767573821246 6.014097597164183 0.18891965326631177 -3 -1 2
1101 1 12.272004159365135 3.8068958436180624 0.15865181734822853 1 2 3
1467 1 14.37857000495875 2.5658459555075463 2.0883866596380645 2 3 3
10 1 12.513358253990587 0.7394818537883611 2.6861882212852555 2 2 -1
228 1 14.837992492761089 0.2265772685818933 2.2610168616830895 -1 2 6
325 1 15.59875689898385 3.6106899805773907 3.842693671718619 -2 4 2
630 1 2.8224047264280716 0.16768175858474138 -0.03411146957535857 -1 1 -1
1553 1 14.123383978782964 1.38606143155421 4.406635822033616 0 6 -1
1887 1 13.071355630271146 3.6172533073231317 4.268692990452324 -4 0 2
537 1 24.15630182467679 0.40950138444973594 6.908340302913729 -2 -2 -2
311 1 16.492577868814458 1.4189168087548611 4.055450626746707 1 3 0
347 1 18.26629472776979 3.6713845850632474 3.4353183315295164 0 -3 3
836 1 16.642624974615302 2.148354560399253 1.804150184109557 0 -1 1
1424 1 19.210064921330403 1.7872169415700554 1.2673068527376068 -1 0 -5
252 1 18.737871408514756 1.1960479555797061 3.4388238451344493 2 0 -3
83 1 18.790135185461974 4.239176827550146 1.0453956978973444 -2 -1 -2
800 1 0.2910966592350643 0.35238876984507594 0.23969147348471026 -2 -3 0
760 1 20.48683723398261 3.080699866784934 3.0228067794851774 0 3 2
1159 1 22.92442823061981 2.4975108258857412 2.878312443175644 -3 3 -2
1664 1 23.660976639614105 3.439853468296639 0.7200689753358231 1 3 4
1822 1 21.803471662779533 1.3785439157461794 1.008066860170225 -4 0 2
813 1 21.047661815168674 3.6577639459101263 0.798272447431639 0 0 6
71 1 20.950742792675243 0.5967123259749265 3.1943076469961693 -3 2 2
670 1 23.98799527575476 0.7555544244537518 0.6448147568170536 -3 2 -2
2022 1 24.103710385166927 3.45375297072076 4.609349280105223 2 5 0
672 1 23.43958246021329 0.1852484565153999 2.947772474347407 0 5 -1
1599 1 27.75852240467385 1.7618938475808639 2.4738127433437236 0 -1 -4
499 1 25.34818116578438 2.0167199770675492 2.5087276712862323 0 1 3
1841 1 26.619438820623518 0.6980158182101287 0.7055531325385926 0 0 2
1687 1 25.959950107675194 3.0408721913414074 0.3756877836134773 1 0 -2
1139 1 27.39874049903489 4.1518498058622635 2.0001346825700237 0 2 -1
1371 1 26.738471099585574 3.0510689358926824 4.3722771731294525 2 1 -2
426 1 25.052721711064386 4.2140495946738765 2.697576088591278 3 1 -1
826 1 24.911639812110376 11.955626137258067 10.031316826514503 2 0 1
1074 1 27.297928009960327 0.7921107478744098 4.530611635570007 -2 2 2
2043 1 2.332642365890058 4.562716614690272 4.001123162235632 3 4 0
355 1 2.8343732264176134 5.636017189957559 1.9832868818658702 -1 -3 1
317 1 1.711801420979937 7.102132621072836 3.7057836395228323 2 -3 4
1473 1 2.277016242067311 8.140810033473867 1.2528259792353182 -3 2 1
35 1 0.5100092781639656 6.0895388905465175 1.6564724702571465 3 3 2
2011 1 -0.06632058000563151 5.254147024683621 4.097065230414707 1 -2 5
454 1 1.0586112789014284 9.405209516497154 3.242802308679446 1 1 -1
23 1 3.5388064387695106 8.99300150137943 3.166195844711889 -5 -2 0
1953 1 5.2227376631972415 5.325334499744263 1.4188354433885504 0 0 0
132 1 4.1655438730683185 6.785722731744897 3.6304737125991986 3 -3 -1
1660 1 6.467799733827951 6.504440610525075 3.02359532037219 4 2 0
242 1 4.970097810996601 7.635522799116504 1.4458830852553153 -3 1 1
1493 1 7.132666981761463 7.080319857762438 0.8028110872265977 2 -2 -2
87 1 6.341924612599891 8.836981028032069 3.047744443594548 0 -2 5
197 1 7.557273546801535 4.831972453820244 1.3138930545136103 0 -1 -4
1717 1 11.354128483420212 5.559716559007452 2.4304013469703865 3 -2 -1
1395 1 8.849655285960846 5.7300817558832176 3.1125741909672233 0 1 0
726 1 9.822423825405895 6.773363523278474 0.6705355694370114 3 2 0
338 1 11.104482001542422 7.887933202137196 2.428755051848942 2 1 -3
1246 1 8.635618908043156 7.960981911876292 2.8002176125328484 1 0 -1
646 1 12.17225839900128 6.368517356025927 0.3223288480717316 0 -3 0
1322 1 11.617875742119722 8.827219769678214 0.28649989721593655 -2 -2 2
1173 1 9.13161430234473 9.104376002528596 0.6284629322341558 2 -4 -2
60 1 13.689183129849928 4.8277277232665154 2.210650879486322 0 2 0
2012 1 12.374600836799814 8.525031822280978 4.153279424721476 -2 1 0
6 1 15.3554015846155 6.280268476694365 3.9382817682642077 2 1 4
1269 1 13.353236973637564 7.2989184843866 2.2291111722543824 -4 -2 1
689 1 14.835562296418425 8.99602296833075 3.815025993905563 0 1 3
1651 1 12.767671943586048 6.153283448926363 4.214877385974427 2 2 -1
651 1 15.61074618872246 7.373004593404493 1.805209100219366 -1 0 0
1257 1 13.923496862772643 8.277620033302629 -0.10282482134773888 2 2 -1
507 1 16.27044048383374 4.491232371211728 1.4208700835446162 3 0 -1
1323 1 17.454771545937458 5.91469637644608 3.364717330348063 -5 3 -1
1339 1 17.12671211993666 8.270861771380954 3.244671417908964 5 0 2
965 1 18.06748610779754 6.536103839157472 1.0969215673188164 0 0 1
687 1 19.530747148382584 7.6647226760250655 2.8922877189853895 3 -2 -1
1449 1 20.033086995988608 5.388278107752348 2.9638284655671843 -1 -2 2
985 1 17.588438162003087 8.998192695634673 0.8935897407495086 5 -1 4
858 1 20.197653530348703 8.44073173958001 0.8201383187301505 1 0 1
382 1 20.748548385107465 6.162864832190341 0.8246694992167347 -2 -3 -1
1777 1 22.380486389606336 4.911565869503635 2.6373130489169094 -2 -1 1
370 1 22.884183908064944 5.700637323545581 0.20678641112898782 1 3 -1
1035 1 21.987785084728475 7.182991191842441 2.635564549281188 1 -3 0
1656 1 22.532131351485592 8.220810004332119 0.5034382948491665 2 1 0
1751 1 23.83887294683704 5.91134302440301 4.2382554799884815 1 -1 -5
999 1 23.88940012782506 9.119347644788892 2.2608434345511625 -1 -1 1
960 1 24.37476468717932 6.6101842192006774 1.9455095624368726 4 0 -2
25 1 20.85730809187917 8.862463178120235 4.844169141632801 -3 3 -3
693 1 -0.16021483355968158 8.576809497390505 1.340136082644377 -1 -1 2
570 1 28.09542742442569 7.722585073038017 3.8359777015795746 -3 -2 -1
1309 1 26.741149529675678 6.5331446060224 2.0321390153497947 -3 -2 4
596 1 24.84034304016495 7.736118873759924 0.05069641859999535 -5 4 1
455 1 25.4088557221557 5.2810932779668684 0.21504846088131735 -1 3 1
1712 1 26.194604393528294 5.568789851211102 4.361055923134192 3 0 2
568 1 26.359496762876084 8.943400671153045 1.8370718981928484 0 -3 -3
1646 1 25.795179240819873 7.987322494538869 3.9474985227560104 -1 2 2
595 1 27.68388229595809 5.18425592023038 -0.042452996709837126 3 -3 2
279 1 27.471052446131825 -0.06516448722903598 10.790313540321904 -1 -3 2
1251 1 2.0029961463240626 10.729431884242953 1.3762072642159608 -2 -3 0
634 1 1.3938298194977035 12.794652663992865 1.1811068483276819 3 0 2
1826 1 0.9595231310117021 11.945039003873656 3.335938930016392 -5 2 -2
623 1 3.4170250735489636 11.561961814291804 3.1935916108718434 -1 1 1
1385 1 2.720978394154736 13.844380173208991 3.004017296670216 -3 1 0
1848 1 4.0599392193633 12.268097134661884 0.8681248300919029 1 1 1
258 1 2.1683542388357004 2.4030582843144237 -0.10956674031364591 -1 0 2
859 1 6.973262296008352 9.739267850079143 0.806140785207424 2 -1 6
1115 1 4.298553464664943 10.005485492937328 1.1882768177049126 2 0 2
476 1 6.5270609341469585 12.004117976977122 0.5807323833101364 -1 0 0
779 1 5.905786918419962 11.2491413115761 2.872422794638841 -2 -2 5
1536 1 7.7430699329990915 13.063159862686296 2.6047688381936553 -3 -1 0
1419 1 5.322875906195676 13.387966191706552 2.7846117640893415 4 2 -1
1266 1 7.273028365244006 9.769629232954296 5.034895347087718 -1 1 3
1194 1 8.20314875332895 10.411509238478622 2.7747686945819345 0 1 -4
8 1 10.530034340889518 10.095549491787919 2.6772579563928365 -2 -1 -1
250 1 10.229659590120848 12.392727465686853 2.308526156575342 0 0 -1
327 1 11.65852624898836 13.872193599267936 4.0104281542857905 -4 4 -1
748 1 8.81309311492637 11.595731388945964 0.5286215121646983 1 1 1
633 1 12.077891595530955 11.125012260617845 4.201276069446085 -2 1 6
266 1 11.220437712330002 11.005750193621614 0.5759353124085879 0 0 -1
735 1 25.8725926295561 13.158403926384814 11.843516487206752 -1 -1 -1
1247 1 8.132898029832644 13.94028337632182 0.20249124288427167 -2 2 1
1925 1 15.365133566620047 9.585924990952323 1.3531272251715374 -2 -1 -1
1903 1 13.160866826143229 9.757284932080028 2.0693607782476477 2 1 -3
1990 1 12.624196355361576 12.451866293125267 2.295723599792732 4 -3 0
1122 1 14.407214418948167 11.334558316501692 3.893432231053887 0 0 0
2005 1 14.84741856740938 11.791014301911185 1.50169235302388 0 -2 -1
746 1 14.117568520763413 13.769760800466548 3.9194978689049194 1 2 1
1163 1 16.271292258597327 12.97728848867127 3.3193675703361607 -3 -2 -2
1700 1 18.969107573402344 9.979892377096212 2.658626198323407 -2 -1 0
600 1 16.79567010091965 10.520401709757621 3.176789329861554 0 -1 2
1496 1 18.741300278558967 12.320226716768028 2.6301696139984756 2 -2 2
1118 1 17.30826944414811 11.41696945293067 0.9094467419813421 -3 3 3
1494 1 19.613128549723143 10.965386384125681 0.7309777967639209 1 -1 4
1791 1 19.15220827088995 13.322143672269162 0.42398722399417965 0 3 0
315 1 20.061734045937563 13.55364020881064 4.383288104160074 -2 0 2
804 1 16.751768920682565 13.828163729061293 0.9750577243428815 1 0 -3
246 1 20.213318303502014 10.890625724730171 4.6118540569719935 1 1 -2
945 1 23.035589880199957 13.851935185298645 1.889315187005527 5 1 -3
1985 1 21.395122082217277 9.500045174465894 2.503278911769871 1 1 3
116 1 21.232436918921813 12.099190322461634 2.532490547730479 -1 0 -1
389 1 23.678558195172453 11.530505923730729 2.053014168176876 -4 -4 1
289 1 22.198792632959762 10.650232679722357 0.5670727274006088 -1 -2 0
566 1 22.58616028360724 13.279735558056219 4.055515144461434 -1 -1 -1
106 1 22.79042014337094 10.72257517452938 4.303014491420966 -2 1 3
1543 1 15.909586730115858 0.22019503426082465 6.032377461099002 1 1 2
1526 1 15.06838820544447 -0.11886094726100752 8.471172751891421 2 0 1
1696 1 24.738657319833287 12.676069123819174 4.054837601406471 2 0 1
890 1 28.06873100227739 10.797903315819285 1.501322997855656 -1 0 5
1196 1 27.52080156943264 9.93271433830313 3.7920367791058824 -1 -4 -2
120 1 25.218438891862096 10.205008282895406 4.102756199946316 3 -2 3
1698 1 25.929483885451504 11.276905167648307 2.0121399026739213 -2 -2 4
1278 1 27.330593491149035 12.51779103582318 3.763464626760696 0 0 2
603 1 27.808908163883903 13.278252215166377 1.3520969416249073 3 -2 4
1750 1 25.529221932210323 13.615458930150087 1.6542031288989987 -4 3 1
1781 1 23.311881976656966 0.1626523037450217 8.968670290022816 -2 1 2
7 1 12.993964267896482 13.022168625641124 0.004199312318924869 -1 3 -1
711 1 2.248324706797931 1.458427210707515 6.330121738160117 4 2 1
313 1 1.1785839166040466 2.813075924875942 8.236943183456903 3 -2 -1
1582 1 1.5519855682711798 3.7449212477436196 6.087061733788783 -4 -1 -1
1123 1 3.21846341087568 3.9272513978941914 8.136117150483338 3 1 -3
928 1 1.8085093441305153 0.3548446311345763 8.399210111966598 1 0 1
386 1 3.897851046267543 1.368276343996566 8.23775077672118 1 -5 -2
1253 1 6.518828681051549 -0.02840174020263278 7.69800332460347 -1 4 -4
1658 1 4.07025249685128 3.1723499681680294 5.848233896147719 -2 4 3
1109 1 6.404477915256026 3.3199438472388834 5.53025249847442 4 1 -2
1811 1 5.924377093909664 2.4225377072237104 7.668335794915059 0 2 3
1913 1 4.735012691216912 0.9878015431410239 5.955124983918464 3 1 1
1459 1 7.178812307553374 1.165468550400412 5.680505110029845 3 1 -3
822 1 7.474236647596536 1.8738955590653745 9.377207486451718 0 3 -3
1793 1 7.006956855906724 4.9026307541989045 9.388630219266124 3 0 -5
1799 1 8.210108645423267 3.8602897663238114 7.3916217533117 0 0 3
1909 1 11.809583936770453 1.6990049866171963 5.126066125463674 3 1 -3
234 1 10.918295663712682 4.218289260559153 4.898883013963963 -3 3 2
618 1 9.141075468468332 2.5144407148223396 5.244265600376206 -2 -1 3
1650 1 10.675357648383521 2.5840160814405944 7.001751865755354 0 -1 -2
1699 1 11.561650007254554 4.4551954486338925 8.353070243028476 0 1 -4
1830 1 9.754670711740449 2.785986918808792 9.258957344149975 -5 4 3
1974 1 8.681727355438113 1.1206013221429798 7.708519264301691 0 1 3
184 1 9.737908831482228 0.26852600399041004 5.265179497620374 4 2 -3
1304 1 10.08072040452361 0.20779210753922667 9.230559878249368 -1 -3 1
1770 1 11.101748327097436 0.0007155849021499849 7.148705267834821 -2 -1 -2
814 1 12.103240288355599 2.0522580746980736 8.804277752705167 -3 -4 1
284 1 13.449965348206632 0.8084200841596789 6.703611793146535 0 -3 -4
723 1 13.036160801394123 3.3381741870513086 6.6412809954681045 -5 -4 -2
483 1 15.142171400109515 2.5510285213184187 5.975091263289871 2 -4 1
698 1 14.600606737785748 2.15707534225504 8.37370132492033 1 0 1
1381 1 16.39392700607405 3.972447745062441 7.615118320273304 1 -1 1
1653 1 17.654958582303507 2.98122012008016 5.688444612367402 2 2 2
1127 1 19.34811247347656 2.0807071387755287 7.803951825180183 0 3 0
554 1 18.259840452463425 0.45203260232354037 5.783766209236116 0 2 -3
1028 1 19.98055295836125 2.298331870785013 5.333772187788686 -1 1 1
1168 1 16.912716696263026 1.4963851002703241 7.853685995516647 -6 -2 0
249 1 19.55787387490182 4.64674521711186 5.211129573521948 3 3 2
783 1 18.823632450491893 4.570722562117671 7.362669137494907 2 -1 2
154 1 21.86351444268396 3.9426875808341295 4.7401166452153145 1 -3 1
189 1 22.411338861728964 1.5376714624343832 5.140882589384889 -1 -2 -3
1867 1 21.543644746352644 1.1266162377337372 7.267203494672694 -2 1 -2
1238 1 23.5011497479978 2.882523719285571 6.912277341475163 -2 1 -1
1740 1 21.279111287572643 3.5998909786617217 7.069960507283105 0 0 0
1922 1 22.717588028166887 2.5626117818930574 8.952981843555389 0 3 2
129 1 20.694917432580063 1.1293785202482591 9.506318853008034 -3 2 1
1041 1 20.250302402618935 3.7735106884880385 9.502682854430883 -5 0 2
275 1 27.51944641474225 10.999716213652015 9.922128652165917 0 -1 -3
1749 1 28.414635757603563 2.0183619270582276 6.225800350782278 4 -2 -2
26 1 24.916411706023226 1.2094470356672646 4.645245555752912 3 3 -1
1435 1 25.947080030487207 2.3880201905863845 6.545057012876716 -2 0 2
1906 1 28.010391418004904 1.2098804316065326 8.574799612712754 0 1 1
1075 1 27.224829046578797 3.4128220612569273 8.394147919615751 0 1 -5
1303 1 24.803009665775257 3.9309754273361666 8.54537469273646 -1 3 -2
655 1 25.31883280913707 1.6311556220270023 8.817925314622933 1 -1 -1
1436 1 28.118025757292198 4.529216582386963 6.229743940635534 2 4 2
440 1 0.7150061198764566 5.237348548730821 8.01036591155199 1 -2 -1
365 1 2.859089924476482 6.905071398980147 7.837414060131465 4 -3 -1
101 1 1.2308301704731102 6.292329156969071 5.841155400354454 1 -1 4
2007 1 3.2683592752205466 8.018044447160042 5.458379172470986 0 -2 -2
1336 1 0.6207715136759651 8.632889125443374 5.813523226814128 -3 -3 -2
400 1 3.7532715262595917 5.6101079289875555 5.952702472299661 1 1 0
1893 1 0.18772391351665152 7.469317779984466 7.783601045512797 1 0 2
1639 1 2.057795654750352 9.194302989335245 7.694847510930183 3 4 2
1256 1 5.531408675063699 4.609950933398353 7.532437301326209 -2 2 -2
1263 1 6.32063650201564 5.66226587782395 5.322042448489902 -3 0 -2
1883 1 5.642968531355048 7.972112053459938 5.172056082112835 -1 1 -2
208 1 5.144790740716654 7.131338569280678 7.427041832107748 2 -3 4
937 1 7.100475867269779 8.640642772171146 7.232460825912554 3 2 -1
1828 1 7.615258038504869 6.304214597848619 7.4431746148394975 -1 -4 -3
232 1 6.573472802451527 7.160560937470181 9.395611977728098 -1 1 -3
486 1 4.294829989985888 8.17781737458452 9.822653163163611 -4 0 -1
605 1 10.51605662540007 6.6341025963165015 4.665930033318081 3 2 2
1465 1 10.071375777583423 9.188433471525363 4.756431346644608 2 1 3
1308 1 8.0034556137135 7.432796225776072 5.115158393831127 -4 0 -2
868 1 10.144472199360791 5.423193002553209 6.846722238941289 2 2 -2
531 1 9.48041150518474 5.325896744915287 9.07971603460663 0 0 -1
752 1 8.516902954185491 4.895457664672639 5.366252116791704 3 1 0
1728 1 8.903240752537007 7.7194220575929595 9.066254936266363 -2 1 2
1719 1 9.526000038793553 7.856027719522661 6.815172055961533 -4 -2 1
438 1 11.149287915040208 6.967856711120812 8.551216532379023 0 1 2
492 1 10.38710716741549 9.33605483489608 8.490326054683266 -2 2 2
1156 1 11.906549190215388 8.164793295852611 6.5797230661506525 -2 -1 -3
975 1 14.090129606780367 4.878597118049773 8.208414714325581 0 0 -3
1583 1 14.686829710962737 5.049380968921972 5.882221740315935 2 1 2
1064 1 12.541465879551467 5.796253271671657 6.486097706397277 3 0 -1
513 1 13.583209682507801 7.235623587558088 8.178067823515823 0 -4 -1
130 1 14.172044422569114 7.48237796899575 5.814086516949587 3 2 1
351 1 15.171268546201015 9.031446129209888 7.6283802145957536 2 -2 0
771 1 15.859185841167776 6.556789947805637 7.58287139137643 -3 2 1
341 1 16.353537559748613 7.97659102592371 5.643516938069073 1 -1 -1
811 1 17.07630765681521 5.44669323041938 5.748843196750667 -1 1 -2
1268 1 18.826212396618153 6.790242832098408 5.187783290675081 -2 2 -5
1730 1 18.317015519998122 7.009739860075139 7.41864739428935 -1 -1 -3
1969 1 20.07089903668089 8.483615378491429 7.072871261497074 0 1 2
227 1 19.217337461697674 8.649795826871289 9.308279950236154 0 1 1
593 1 17.560983233785763 9.542100552255302 7.585260808803876 0 -4 3
1230 1 16.73452352776052 8.264696119807795 9.45306756692778 -3 3 0
1981 1 23.13207779431631 8.275953701775451 4.506047754496249 1 2 -2
888 1 21.354164544334505 6.645416505552594 4.930395276165541 2 -1 4
48 1 22.188593958189873 5.151201534988561 8.938762969632174 -2 0 -5
1722 1 20.764761936864982 6.127006748066773 7.003913820977407 1 -1 -1
1851 1 23.319284967051328 5.240808438526357 6.694951566479823 0 -2 -1
997 1 22.614142463899356 7.554624337458982 6.526645517777739 0 -2 2
891 1 21.76625273817737 7.626011926405174 8.730673031473422 -2 1 0
1095 1 23.66047210427543 8.867959462770052 8.661214730331745 4 2 3
1628 1 24.40185893243791 6.478586796742902 8.625053107585366 1 2 0
1476 1 25.548556075405624 4.621460897413362 6.314837014226485 4 1 1
639 1 25.066074490526862 7.009559727366866 6.381146316319644 -2 -3 2
1666 1 27.48307998184389 6.785085830495399 5.951592774618299 -3 2 3
1572 1 26.685134583247123 6.004125448960552 8.339989481540206 3 4 1
1279 1 26.355469496020124 8.41783799103672 8.299518797624057 -3 -3 0
1197 1 26.83554739125034 9.020840377380384 6.154513698934933 -1 -3 0
1353 1 24.543677398482142 9.484292830085494 6.447631533053122 0 1 2
1393 1 2.344116289647826 10.169549699701216 5.2260693577360104 -2 0 0
399 1 2.477112330501439 12.60995979559074 5.340733357926879 -2 0 2
1388 1 1.4095571961115636 11.38145690572949 7.37028471890584 -2 -3 3
989 1 3.7044439639142026 11.384879093894497 6.997948911180677 1 -1 -1
1890 1 0.08997426573860445 10.839076804822634 5.639147916416067 0 2 0
1672 1 3.9394221132603437 13.728140578862591 7.024608340002012 1 2 0
1946 1 -0.030502608645637252 13.433617530988347 5.523025747702914 0 1 2
1961 1 7.319636755789101 11.982791852781613 4.607154966559657 1 -2 3
720 1 4.517388819023891 9.33489376447106 7.596572365747253 4 -1 3
544 1 4.873801474486784 12.39505829845706 5.156078434601749 1 -1 1
1592 1 4.73684533724321 10.015508885573162 5.123308131472331 3 -3 -1
983 1 6.33421877929865 11.338350004760718 6.799465830887793 -4 3 -1
1474 1 6.360853940677849 13.637893746202181 6.992380274659218 -3 -3 5
1721 1 5.261829201971226 12.503710665363638 8.874762735955212 2 0 2
512 1 6.057127211418831 9.60445634310294 9.214545681149701 1 -2 0
599 1 7.804310338036347 12.603778029441626 8.897255885790678 -2 -3 0
69 1 9.661760259413162 11.631090395224376 4.575784414863466 1 1 0
1299 1 8.249663059351647 10.27218650269763 8.84876611855774 -1 0 -4
745 1 8.951446780348618 10.166350853360019 6.569480523926415 -1 0 -2
757 1 11.455646465171982 10.634214435877867 6.460063190162488 2 -4 -1
563 1 8.635938839337074 12.671974558234107 6.478362733700381 -3 -2 2
1389 1 11.07251227608066 12.930033092324349 6.226773716503033 1 2 2
562 1 9.878306398467007 11.942587012938949 8.230721343746639 -1 -2 3
474 1 12.811103343717345 9.83164056591597 8.35946634434203 0 -2 3
1758 1 13.635398438364827 9.685447564588062 5.871622394133931 -3 -1 -1
434 1 12.326028934910049 12.37265041159436 8.199066366957796 2 -6 -3
224 1 14.783985542030718 11.486758492143869 7.384469003826493 -3 -2 -1
76 1 13.24133749411539 12.277120049290179 5.732913783129254 -1 3 0
1617 1 15.787664032226347 12.905916101100315 5.673745705299603 1 -2 1
1484 1 14.23850693702123 13.984854396273006 7.481842891478908 -1 2 -5
1743 1 15.637847107932123 13.258874397948045 9.406078828154222 -2 -2 -1
1918 1 16.00179951180007 10.369241602845438 5.666934535582795 0 3 -1
511 1 18.45959221727384 9.233793913855077 5.185725327420776 2 2 3
1022 1 18.117120743172492 11.775374721112634 4.905334445529793 4 -5 -2
1908 1 19.02321536555747 13.652733263682938 6.685274243923166 3 4 -1
931 1 18.014212208746777 13.704029307067247 9.0695446841495 1 0 -1
402 1 19.469230694218613 10.923204568198052 7.1014314481964105 1 0 -3
1685 1 17.313377589484826 12.063424377987078 7.576527734333503 4 -1 -2
47 1 18.77388088901305 11.316432382418457 9.275732847335627 -1 0 -4
1578 1 16.182557459197547 10.869503865881043 9.520627623653187 3 -2 1
1076 1 21.03489325014232 10.135489343798223 8.82717145157127 0 1 -2
1116 1 20.50256338439976 12.65055682703582 8.443777274366157 4 -2 -1
292 1 22.73249133174353 13.456969564612063 8.111795348078736 0 1 -2
195 1 22.1904812107055 9.915018501959338 6.62101092062394 -5 -4 0
770 1 21.180436497022697 12.311954600860947 6.27948914972473 3 -1 1
536 1 23.4287101769063 11.269502321566591 8.400743600112952 -1 -2 0
2034 1 23.613339488918722 11.819011848599706 6.126238043925552 -1 -1 2
576 1 26.423800386258467 10.641550774766579 12.033751754433691 2 1 1
782 1 26.204169642179476 13.836804398331289 5.481050677635862 4 2 0
606 1 28.285048302277218 9.901917556869746 7.792051373207641 3 0 5
307 1 25.80377223650351 10.85063512937474 8.176051474974978 1 -1 1
1029 1 27.823777621654568 12.367132661101335 7.763407789597778 0 0 -1
1565 1 26.265344822172157 11.397286716439586 5.9676813292820565 -1 1 1
418 1 25.1309846332734 13.161910737581628 7.800241912281659 -2 1 0
178 1 26.819558368667565 13.647789015606334 9.510491910598605 -2 -5 -4
94 1 2.293377401953614 0.41588137471073405 12.545137409798079 3 2 -4
561 1 0.923864210084786 0.9691860901402822 10.568079684932785 1 1 1
1363 1 2.6115562557161476 2.719038683925893 10.179971185445968 -1 0 -2
873 1 1.7580598142329948 2.6878857341905 12.312357289297218 -1 -1 -1
68 1 0.4021696787740433 3.7950248709949195 10.355459993406967 -4 -4 1
1816 1 3.8662156779278707 4.308545294251275 11.677992992608756 4 4 -1
1219 1 2.8115763554421007 4.126668492839881 13.771154303052066 2 -2 1
160 1 3.4534022559223745 1.7723589583709787 14.130567518058674 4 2 0
1810 1 5.5272763360437285 0.6227255192153213 10.147963017230015 3 1 3
1834 1 5.96202422639247 0.7351213939674779 13.470948878316209 1 1 2
731 1 5.131611470219427 3.199176477519515 9.876578499105328 0 -1 -1
1128 1 4.059366399340135 1.6284170016125863 11.834194695883532 1 3 -2
188 1 5.320123855774491 3.287928128353789 13.402133810128896 4 2 2
792 1 6.865442435652093 2.2919255478270344 11.692221086284842 2 -3 -1
1094 1 7.455936792926623 3.9847224397987366 13.660549155786585 -2 4 1
1598 1 6.413651823616854 4.747411689787412 11.544794546478565 2 2 -4
774 1 8.302747609120507 1.5382750757393582 13.613095342575733 1 0 -3
778 1 8.968844991548849 1.1456680382144824 11.225657858404697 4 2 5
253 1 11.464396205900982 1.65153285681714 11.140898937133663 1 5 3
1321 1 10.051330416003973 2.803348958805677 12.818236303265918 -2 -1 2
1846 1 8.581642634903623 3.639637053868523 11.058008876876702 1 -2 1
866 1 11.026749700761634 4.149597576611572 10.91002227738161 1 -1 2
1928 1 10.605511262337046 0.175807423439946 13.004918200695307 -1 0 -5
336 1 15.345493132152802 0.15668118702576128 12.187693364165954 0 -4 1
1258 1 13.691344476658756 0.9501578318963848 10.607686919142248 -4 0 1
1618 1 15.797362540347331 4.358241257683085 13.63660811605574 1 4 -2
1950 1 12.428217984255298 3.47011696273557 12.526779518117527 2 2 -2
276 1 14.777489575709122 2.7341850306035194 11.979971300764417 2 -2 1
1662 1 13.223918380941972 3.390636935743131 10.230488601607783 1 -2 3
16 1 15.519826414850408 4.094274167483726 9.97435949601712 -2 0 -1
498 1 12.938042589648727 1.0612393950879875 12.882893619635439 -4 2 1
2006 1 6.073500345784912 -0.12540082390905383 3.7062144416158707 0 0 1
1965 1 16.124614062729545 1.5057692253678454 10.301814047171955 -3 0 -3
70 1 17.904442047867192 3.3130520938915127 9.449381488054424 3 3 -1
1917 1 17.788073226558645 0.7394626247160601 12.00783588034997 3 0 -1
1820 1 18.362663270359594 0.5526970283157988 9.763472886293254 -1 2 -1
123 1 19.60378190972478 2.1951993141407686 11.279667024352817 3 0 -5
567 1 17.005078154402682 3.200801228486607 11.84350000149228 2 3 -1
1861 1 18.76651747891675 2.6109150451225194 13.566969940900869 -3 1 1
27 1 16.29972715516328 1.898905331327319 13.830057767229432 2 1 -2
550 1 21.177422146340945 1.5073832180659017 13.327690552727736 3 0 1
938 1 22.29657504124158 0.9336506433096703 11.237764309893723 -2 -1 2
1638 1 23.61981172285472 2.692740007816156 12.974687123977581 -1 -1 -3
1418 1 21.991292130598275 3.3301711090266677 11.149224901163015 -3 0 1
1864 1 20.77743569582261 3.83100254585237 13.058589801722443 1 -4 -1
1103 1 23.980976258994847 0.26334695591455437 13.329732291557535 1 1 -1
1513 1 24.455862691789275 2.805395584456781 10.80856879632297 1 1 4
3 1 24.745318340798896 0.3950730121765612 10.967004365513187 -2 2 2
860 1 -0.15945499266427632 1.3909439521362525 12.65802974086504 0 3 0
1151 1 27.720184470445954 3.6890189615483377 12.275840292892564 -1 2 -4
1782 1 25.920265583025767 1.8738284365668036 12.69526688535164 -2 4 2
1529 1 27.14508602455157 2.3024695580816803 10.494072487501542 -2 4 1
558 1 25.28428321099188 4.324172179279139 12.723253439986129 0 6 -2
968 1 26.4388226210061 4.496573161337689 10.412411665913984 1 1 4
273 1 1.3809786379708369 5.129605540210477 11.987707293211653 0 -2 1
1538 1 2.379323334054475 5.518937234886017 9.87348497829841 -2 0 3
1571 1 2.021348103190618 6.678797005731745 13.753725721938439 2 -1 -3
1987 1 1.7788170836878978 7.980664918134584 9.676777745626893 3 3 -2
359 1 0.7597157496178442 7.585583040085737 11.852157081009947 1 2 1
265 1 3.391703329472712 6.599977153530945 11.619318232847414 2 4 0
838 1 2.664848622891039 9.366911751014348 11.625597819790167 0 -1 0
1463 1 1.7176535709039251 9.087468657799288 13.764143103923228 3 0 -3
82 1 27.416194936934748 12.000591577985821 14.061052950508726 0 1 1
1267 1 4.616890111151255 5.819463373657306 9.579585130709104 0 1 0
1629 1 4.567446989019171 5.835517000151589 13.450387460323933 1 0 0
1612 1 4.1641757303165505 8.344340352705226 13.161597636278582 2 0 2
1971 1 7.355564072291319 6.380797568822505 13.457585523503159 3 4 6
786 1 5.761141299277111 7.105596037362533 11.621602684738185 -2 -2 5
1365 1 7.59317742231803 8.92507885547495 10.805279021716135 -4 1 1
1934 1 6.5910881518278 8.747478609923391 13.310595675983876 -1 -2 1
1679 1 8.112987306533554 6.246772006149926 10.983631592575914 -1 1 -2
1231 1 5.194041830361796 9.700080271360678 11.566980514448192 1 0 4
503 1 9.476038068292825 5.338646167267156 12.746876005652009 0 -5 1
923 1 10.532097927133105 6.695353162085271 10.974980107906445 5 -3 1
305 1 9.103979186605029 8.123641871469806 12.84360413174467 0 -1 0
1745 1 11.452098832108621 8.507006017542768 12.468887114326458 4 3 2
1676 1 12.247675253491154 8.255486718244994 10.142737468592612 1 1 -1
899 1 12.070581277955176 5.94231260072213 12.581513312276362 1 0 4
607 1 14.320244956918692 5.115101020764626 11.854393417321564 1 0 -2
1734 1 15.444633653515483 6.89135722255512 13.892280829690252 2 -1 4
340 1 12.774131541257853 5.678384562742311 10.127446681442816 -1 0 -2
140 1 15.160530859114276 6.614568801785878 10.027363184216513 2 -1 -2
1338 1 13.715687135483671 7.611335110742802 11.839915108602414 0 -1 -3
1756 1 14.500994346455197 9.039429609079868 9.832935776552757 -1 -6 1
1923 1 14.713525086802377 9.151768354531082 13.521716844690609 -1 0 0
1957 1 16.060298765442443 8.21502271094763 11.804429904527211 2 2 3
1083 1 19.873157954148844 6.22168996959151 9.168122248503188 3 -2 2