LAMMPS data file via write_data, version 29 Oct 2020, timestep = 300000

2048 atoms
1 atom types

-0.7610956637682449 29.11309566376255 xlo xhi
-0.7610956637682449 29.11309566376255 ylo yhi
-0.7610956637682449 29.11309566376255 zlo zhi

Masses

1 58.933

Atoms # atomic

1331 1 3.29898545352851 1.5311465687554193 0.5792699779845691 0 0 1
677 1 0.8324838736520757 0.8497400337965038 3.294894072574146 -1 -2 1
684 1 -0.28566672782354496 3.6273843214543895 3.387082017027253 3 1 -1
497 1 2.1377434429056668 3.812314922678052 3.4800200734166467 2 2 0
404 1 1.0751837495955128 0.37378433840896763 0.2179714589871089 0 1 0
1356 1 0.9271378447019565 2.6595291024452803 1.5074040520278293 0 1 2
1236 1 -0.7565632737820955 -0.24236353636448438 1.9612474684613042 1 0 0
1260 1 3.275118267595184 0.08288364937535597 2.5883578176040096 0 2 2
518 1 7.526314509238867 3.0569045600264304 -0.5979646674873551 -1 2 2
113 1 6.899378600652398 4.037166039614192 1.565309398928152 -1 0 0
328 1 3.818219785047586 2.3362274431896735 3.6215180413648573 -3 -3 -1
263 1 7.439359159367381 -0.1389725738604909 0.7683382006873751 -2 0 0
2012 1 5.995464363885825 2.0155764046094133 1.1425056938539817 1 2 -1
1514 1 5.475016953246485 3.9257874006363425 3.4083862119002797 4 3 0
861 1 4.181645712237419 4.010032228645642 1.4755195453113363 3 0 1
908 1 6.659485705271185 1.927078398714246 4.038313214152509 -5 0 1
1713 1 5.988112268414418 -0.48235549124903027 3.656042750181828 2 0 1
1812 1 9.562647446146054 3.1240667641568174 1.8162675713371748 2 -2 1
319 1 9.95429321967353 0.1950357247830019 1.9210234801964385 1 0 0
719 1 11.9671228781667 4.006549842749423 1.597378491217309 -1 2 1
1835 1 10.75275280376805 3.991829150904765 3.9252666524069673 2 1 3
355 1 11.476702458138115 1.9524552516155076 0.6716686754163463 -1 -2 0
1706 1 9.945781536005649 1.3102014544317924 4.174253047933356 -3 0 2
1800 1 8.062843496597985 1.5344860104872091 2.295483125034339 -1 -1 1
435 1 9.209372424566427 0.978492706666896 -0.4764582358791953 0 -2 0
809 1 9.921310336139271 3.3456858081667376 -0.702953379517858 0 -3 3
1459 1 11.949853624427963 0.014381634489376127 -0.7052118360403519 -1 1 -1
810 1 12.919511320605697 -0.7228601295673639 1.7986169529048666 0 -1 0
1053 1 14.05357756237689 -0.5749948531484312 4.093120068084667 -1 1 -1
1932 1 13.547937598285062 2.7444419503181314 2.4150399782473544 0 0 1
199 1 14.434141132110609 0.6749321528000749 1.4506368373080347 1 -2 1
1097 1 14.355329725759244 4.011425345653057 0.8682861833668327 -2 -2 0
940 1 16.045983932255425 2.2187158065468724 1.234554326891531 3 2 -1
564 1 12.183035704327112 1.006389613978465 3.1762747732446495 -1 2 1
245 1 15.198783332963602 1.3556891548775916 3.788751254329285 0 2 -3
1020 1 14.57217415004084 1.999229998073662 -0.5720273509407505 1 -3 3
1101 1 16.46262718515056 0.048707550339967653 2.5136874330933074 0 1 1
1579 1 17.01480926365916 2.2726546082002184 3.15867549383664 0 -2 2
1202 1 19.828141671731384 1.3058678987297903 1.8183896311189272 0 1 1
1048 1 18.664870346162978 3.4301369360161535 0.8673848154351944 1 2 -1
2004 1 19.025475723909782 3.822934632914463 3.0796202113504396 2 -2 4
1487 1 20.364058827613256 2.3957682471581103 -0.6067176367411652 -1 2 0
1312 1 17.83133034790681 0.9415057182746067 0.2708624046672454 0 0 2
660 1 21.71714232357999 2.3115771751672547 1.9425165901129935 -2 1 2
141 1 24.407811124694305 2.7682864421289923 2.088595767017617 -2 -1 1
1816 1 23.004444187549407 0.9941548650735381 0.2587102733002058 2 2 0
1567 1 24.844425424871496 1.1210465514601868 4.068912263652251 3 1 -1
1953 1 23.511289387278392 0.42500064441157326 2.5152041658091235 0 1 -2
456 1 23.167059560097837 3.1500907043705384 3.958055180495946 -1 -2 2
772 1 23.352503380623013 3.9147640059068767 0.6597753312344861 -2 -2 0
363 1 21.388838547580992 -0.19847832308086844 1.7730521211261254 -1 -3 0
739 1 28.838897193840708 2.0131633159521534 1.34916555068444 1 2 3
750 1 26.87732886605286 3.0843905646844583 2.9968385526217745 1 0 -1
427 1 27.825537328666275 0.7310887789107818 3.7671542815673913 -4 0 2
439 1 26.390870855712674 1.070379787063616 2.212849272592356 -1 -1 1
12 1 25.058373391723304 -0.3097608646752404 0.2250449783276115 -1 1 -1
1185 1 28.003355444367926 3.3221359355363624 -0.6805422562444637 0 -2 0
1405 1 25.283530773601022 2.2360256267539182 -0.39237308826749157 -1 0 0
1663 1 27.394617633153413 0.31450810385344274 0.04591455349035578 2 -2 1
1675 1 1.630839715142434 5.1923284850705285 1.3000881424316226 -1 0 2
1759 1 0.44989377770153127 7.804523449660625 1.000386397281931 1 1 -1
1448 1 -0.7537263736594646 5.539220750382216 1.4018425739767029 0 -1 1
479 1 2.2909414509339654 7.494654412778276 2.4342376026204167 1 1 1
1372 1 -0.48574726082031044 7.157875943726186 3.1944318336458206 1 2 2
475 1 2.4636118047409394 4.632556456801122 -0.4846049670846355 3 3 -1
928 1 1.5718313267758521 8.500935966359126 -0.7565811793744537 0 0 1
1181 1 3.6862092235485884 6.631346313781284 0.3752060898081728 1 -1 -3
971 1 3.6260664329061827 5.744262251300625 2.7138583873681426 -1 -1 3
457 1 5.8422528218855385 6.079605150844704 1.5589269090539748 1 2 0
1428 1 6.256679374226722 8.554775575767852 -0.2914668842115083 1 2 -1
1723 1 5.105280462365634 8.10657999994382 1.7195428490111087 3 1 1
1168 1 7.047461016899044 6.564227018728677 3.927050257595001 -3 -1 0
1923 1 4.53605505824355 7.5135486039700545 4.079489555082818 1 1 -1
1443 1 6.772390843946063 6.1740862867782225 -0.5816765931544232 1 2 3
1190 1 5.498782419241949 4.501124011787313 -0.6700599011846471 0 -1 -2
1297 1 8.360224247681064 4.7569247208971195 3.1931907831357758 0 1 -2
1149 1 8.075944152216342 7.391089573745832 1.0200271414772781 0 2 -1
1329 1 9.914579606129795 6.109066347285104 2.1321093950976406 0 0 0
414 1 8.717130612145388 4.991201239183595 0.5586678181230524 1 -2 -2
521 1 10.522674007504177 8.324956181917717 0.3251272729059287 1 -2 1
1265 1 11.792373776399426 6.20114029646659 3.394946842067961 0 0 2
1714 1 8.791825995604926 8.461007707455444 3.0516660949758503 -1 1 0
192 1 10.85485598941725 5.861728390437546 -0.1334586928781233 2 1 -3
1971 1 11.5218367392691 8.61722426191934 2.8790436376959296 0 3 5
380 1 15.84662194675608 4.220559146893196 2.8324446464750666 1 0 -2
223 1 13.082917086889097 5.700609388466005 -0.3632445061796427 1 -3 -2
1358 1 13.16768624862281 7.650257600416271 1.49335980828991 0 -1 0
840 1 13.547631052710532 5.227923558220073 2.6617530602353088 -1 -3 1
1684 1 15.128415096597 6.850726787056697 0.37013607082687683 1 0 1
1136 1 14.249658655669442 9.065876489789916 3.692911073172392 0 -1 0
47 1 18.479942283262428 7.323953418883777 0.11077054695802258 -2 2 -3
240 1 17.66966601555843 5.7683214667455225 3.565072030961841 -3 -1 0
1892 1 17.002262907292543 8.44334382402398 1.4945945300472072 0 -1 2
1787 1 19.65353074379616 7.03033430613104 4.154147112727873 -2 1 -1
1506 1 19.361395000014607 8.9016767134486 1.9638275194463208 -1 0 1
1817 1 16.813587556205135 5.164526737866716 1.0194659562790083 -2 3 2
1250 1 19.33089991693235 6.040316285921172 1.9086764651732047 0 0 0
1379 1 16.605023701621494 7.492730310669785 4.126238700936596 -1 0 -2
181 1 17.106949277722432 9.148166344099874 -0.47833378481798405 -1 2 2
191 1 20.87032227798011 4.382188315862227 0.278973685302337 0 -1 3
544 1 20.795157684315814 7.20045163118753 0.15291354493849763 2 1 2
679 1 22.997338428617503 6.645533741489431 0.5808063566601713 -1 -1 2
1544 1 22.143077024627225 5.071395408463207 2.460657055513528 0 1 4
49 1 24.312608760736083 7.038014319359499 2.5598204318748112 0 3 0
1493 1 23.437205108156906 8.972335812857455 1.4898525015421948 1 -1 -1
1655 1 21.959258620843954 7.34600093002479 2.5017640832744625 -2 1 2
317 1 27.251693391945675 5.892267678304073 -0.5270868122975321 1 -2 3
171 1 25.87349346820375 4.454542298243694 0.6545014036986818 -1 0 1
1639 1 26.403400632113986 7.8585833203284885 4.152334978926786 0 2 2
1180 1 27.04390272379316 5.511930318544886 2.5116079579316484 0 1 5
572 1 27.753130543248997 8.143745961522383 2.226971120754265 -2 0 -1
38 1 27.788865878638973 8.432972213828926 -0.27195893122510206 0 -2 -1
683 1 24.962718046022783 5.206521395593728 3.7385089021500564 1 2 0
1030 1 25.82689882836131 7.128065791205505 0.9409406862800793 -2 -1 2
2034 1 25.147921382861394 9.037391256332462 -0.05963046306256514 -2 0 1
1912 1 2.600381185146311 9.299706445344398 0.9615863417415291 1 1 0
166 1 3.266825709238482 13.355530341541485 2.55421696178834 0 -2 2
1749 1 3.1490483163288037 10.631372508624771 3.601841001375954 3 0 -2
708 1 0.5084072860222213 13.15686490994727 1.5689611027149306 0 1 1
617 1 2.5117941767528524 11.573524994029274 1.309513233245025 0 -1 -1
1289 1 0.7135618875354302 11.657147711771287 2.9907172724644053 1 3 0
51 1 -0.3074449108178251 10.164521965183559 1.0259898192631929 -1 2 2
2038 1 0.8044826218357879 11.362056178241811 -0.5928527762659097 0 2 3
1357 1 0.3825080445144027 9.268152274967923 3.124462727937146 -2 0 3
714 1 6.469136237974782 10.898527547965578 -0.5152534692419507 -2 0 2
567 1 4.432237697953552 12.920101507384318 0.452926440118282 3 1 -1
1681 1 4.529698712289295 10.788761994338465 1.243884587535741 2 -1 1
1987 1 5.4817024856247025 12.056626618348368 3.023578112504415 2 1 -1
711 1 6.895650358980411 12.611829457025884 1.2840216443737353 2 1 3
528 1 7.296252111606121 10.085600707839875 1.6917454019028528 -2 2 0
1781 1 5.96827656744069 9.628122695158872 3.712887480458517 1 1 1
1755 1 9.260982115042832 10.727514483239407 3.8010956825234494 5 0 1
1083 1 8.589179189924195 9.435872958302241 -0.2959523156999339 2 -2 1
73 1 8.711628913414698 13.335597927247143 2.3169497360930698 1 0 -2
2009 1 8.899516131746037 11.354676443293787 0.5169675195233379 0 0 -1
1621 1 10.553891341967814 12.18107175632942 1.637375782924948 5 -1 2
1979 1 10.222473339647586 9.978892177219945 1.9010978729261638 -1 -2 0
118 1 9.95620853875164 12.847587821703339 4.11806277242782 2 -2 0
1034 1 11.96316705602818 10.581139683969475 4.014632052123987 1 2 2
1661 1 14.591046391195349 12.015330236175078 0.8096876837205069 1 1 1
42 1 12.471154125444498 9.732285809779139 1.238989917791396 2 1 -2
316 1 14.847406738433595 9.467733844926679 0.8556631134752255 0 0 2
57 1 15.167211907307122 12.248058346539725 3.0450674357739724 0 -1 0
421 1 12.731974422990232 12.40299499494825 2.3619185014121835 -1 -1 2
1112 1 12.410085737275342 12.30729214923025 0.01759684606053502 -2 -1 0
173 1 18.49598081479381 11.399347259222608 -0.3611408254029231 1 2 -2
584 1 16.418053492365644 10.200401981045166 3.626645776128023 -2 -2 0
1826 1 16.83544854539305 10.94040853761639 1.2558967988584957 -4 0 1
1096 1 16.65875447439011 13.779368627760782 1.2878084516241919 -3 3 2
473 1 17.746102736492272 12.600174320590567 2.892694656912698 -1 -2 0
283 1 20.073289843428384 13.946448283813206 3.428516105547966 -2 -2 2
1247 1 19.85326662733385 11.739046908592087 2.2161589404952404 -1 2 1
1829 1 18.98314789334184 14.086364603080796 0.6946458353074956 1 2 -1
1873 1 22.271096817709598 13.48323332899529 3.7766571477061355 -1 0 1
1352 1 21.70621585528546 12.42927491839044 1.966053795651019 2 1 -1
1654 1 23.32469166582716 10.868578542155676 2.784294546562847 -2 0 1
1013 1 21.019292479016258 12.416906382027207 -0.012180170914945276 2 0 3
712 1 23.008899527694208 10.732543651321869 0.047304558291292764 -2 -1 1
589 1 23.33939735028117 13.17494978360294 -0.6432576840671393 3 -2 -1
932 1 23.84430241409211 13.312902646972463 1.784512868201252 -2 0 -1
1980 1 20.684421756334153 10.02993758911007 0.31301468651230446 -1 -1 1
1920 1 21.328605918877262 9.543099718998656 2.7472550463725924 0 3 3
1226 1 27.866733947093362 12.500775125703575 1.1251333723127293 -4 0 -1
1452 1 25.449341631744076 11.88390108044423 0.9313805882524187 0 0 -2
1662 1 27.7928192862635 10.944221229076888 2.8473472522990693 0 -1 3
246 1 25.947460902865355 12.948767012204433 3.284112770438849 2 1 0
311 1 28.356538786106015 13.139079349273114 3.850994349916875 0 1 0
372 1 25.598902733903074 9.667141327078149 2.475817143834695 -3 2 2
1204 1 2.4786462889395535 0.6474709777373682 4.6987963640961645 0 4 2
515 1 -0.03284648588944805 -0.6165485112137904 5.040443348240452 1 1 1
1852 1 0.44632878129525677 2.9269334012077795 7.559977284009548 0 1 3
1985 1 0.3879334482997494 1.7791678958030763 5.165064961828117 -2 -1 2
657 1 2.5323776246449707 2.9032462470168405 5.991406443047788 5 -1 0
1062 1 -0.22187952191223015 0.9883693307016692 8.935331971869848 1 1 -2
242 1 2.009434126400842 1.352940210791684 7.435108636508625 -2 0 -1
581 1 0.6616341379331012 -0.6434051163706265 7.3680278932544745 -1 0 -3
1461 1 7.760999106559101 -0.22165426428440382 5.336548872190151 -2 -1 0
2017 1 4.375963386418136 3.912940988332511 7.332298249926772 0 0 0
851 1 4.719000597149012 1.6012700701387144 8.350840044473177 -1 0 -2
1659 1 6.500648053748764 3.6643111087728393 7.510345568113509 0 0 1
1104 1 4.410097604965117 1.312094909907466 5.893177001151314 0 1 1
1732 1 6.747312246218864 1.6723262622305386 6.5871039415226615 -1 1 0
722 1 7.1989074589910445 4.0517328175483005 5.20775001247655 1 1 5
577 1 5.900246483946163 -0.13550435174531805 7.720106308201814 -1 0 -1
800 1 11.414022417764116 0.30286217368360635 8.45134678108201 0 -2 1
209 1 8.945965595083075 -0.2325867283429064 7.526458857879506 2 -1 1
336 1 9.12121436019494 2.424418567754774 5.865296142164092 -1 -2 0
634 1 10.907871275669956 0.8670201330237322 6.254355608616341 2 -1 2
151 1 8.812804906453268 3.793561535431266 8.138126986167464 -2 -4 0
1933 1 11.145868413994377 3.30455063943874 7.02023432670844 0 -2 -2
673 1 12.506353828308178 2.5471380285087113 5.013421985614924 1 1 1
1456 1 13.33991429042896 -0.025832473451278926 6.421979507362899 2 3 1
1445 1 14.657027525752142 1.4811093814975296 8.030634327157655 2 -1 -1
1288 1 15.41493699069683 2.042616250776903 5.957582801509405 2 2 -1
1710 1 14.81298501800401 3.982956317902757 4.857668311614419 -1 1 0
1078 1 13.772663222774039 3.454520474179227 6.984818480503935 0 2 1
1838 1 16.033346166548444 3.6663133900361524 7.564800777768825 -1 3 3
1170 1 12.574644449117232 2.76681954345442 8.790525430010463 0 0 -2
1982 1 16.962251470720215 0.004744923774598342 4.912039269652973 -2 2 0
227 1 20.44571471118416 3.112853627086277 7.2016269292487625 -1 2 0
1871 1 17.964813854374153 1.955111052653944 6.849804670001878 4 2 -1
1467 1 17.079997251266168 3.800182482624731 5.399979849744273 1 2 0
128 1 18.704787757784064 1.7231862635165403 4.700266447656805 -1 3 0
1403 1 16.66473639982232 1.192513732976454 8.969627262082263 2 -3 2
622 1 18.011747558603965 3.49768656886454 8.644481974721911 0 3 0
326 1 19.085222976614773 0.5012728401861468 8.314278664547473 -1 -2 2
107 1 19.327142746634163 -0.5374891238987319 6.355367903267743 2 0 0
764 1 20.878566255921616 2.9864367417942694 4.600863235565335 2 0 2
1470 1 20.655396876478076 -0.03712569925453957 4.430696370943252 0 -1 0
1631 1 23.457956004399453 -0.5776500013739785 4.626518110260495 2 1 0
1644 1 20.96169513253803 0.996745743472716 6.585243946182927 -4 1 0
443 1 22.461486422414687 2.3080686390965632 8.609915213172018 1 0 2
327 1 22.68069271428915 1.2627421323909256 4.9749506500165115 -2 1 0
884 1 23.915472790402006 1.723244749496402 7.051609012189039 -2 2 -1
1314 1 22.503754185750886 3.8547478236967736 6.185785458721752 2 1 1
977 1 21.99484103074302 -0.040014522288457144 8.885907811087797 1 0 -1
322 1 24.555603669605258 -0.5232328825999464 6.965589916118065 3 2 1
992 1 26.3676628502066 1.116132285626831 6.276419455685033 1 -1 0
645 1 26.75697754115023 -0.5829040945962052 8.425791775886589 3 0 3
632 1 28.895971220298996 1.0268668240791072 6.818107688857754 2 0 -1
1262 1 27.177892230972024 2.23002588517545 7.970019482807967 0 4 -1
1229 1 27.752615800542053 2.6595812421481364 5.310779496327521 -1 1 3
1742 1 25.328050473691416 3.32143680095127 5.504680924329307 2 1 -2
1001 1 25.065803592507788 3.148083002738325 9.019519200631018 -2 -3 0
765 1 1.407686586492788 6.117233088526433 4.281158430772643 0 0 1
568 1 2.2561500845110127 5.0768941426231 6.739914286205058 -1 -1 0
1462 1 0.37334455146325474 4.226548809301559 5.54272907716864 -1 -1 1
102 1 2.235752608994676 7.989129756034707 5.7014902459161005 -1 -1 -1
228 1 0.027404588171186295 8.329518022397433 5.505422400764914 1 1 3
299 1 -0.03613616819102394 6.086053367968737 7.027472055994633 1 -2 -4
656 1 1.1966833082215431 7.6205310352441025 8.258669418280363 3 1 2
754 1 1.8270898782231635 4.724295375761698 8.921735643069027 2 0 1
1794 1 7.564777583973324 8.730565820403985 5.365389475115522 0 1 -3
1243 1 3.8845953631651673 4.3000532898483455 4.8180496340219845 2 0 -2
1532 1 4.603333731204237 5.573611924435091 8.991219239432477 2 -1 -1
1548 1 5.354787985514112 5.81993237595527 6.212057428348103 1 0 1
1383 1 3.695937501161662 6.778781310972783 7.183986680471126 -3 0 -2
555 1 3.7512531225474426 8.534537380162142 8.660021929871323 0 -2 1
652 1 6.318902736068752 8.174880797745953 7.341376800992334 -2 2 -1
1862 1 6.758923265297233 5.739572100758988 8.517109637527676 0 2 1
1604 1 7.373452395634427 6.36786261555491 6.374870241175982 0 2 -1
643 1 9.6629823609658 5.401996667301147 6.797823785483115 -1 -2 3
897 1 9.94629159243013 8.872882846613715 5.234037780791728 -3 1 -1
1390 1 9.47831627468098 6.7220207325113455 4.322882283847215 1 2 6
847 1 9.405131008310596 7.926219879399872 7.23227376870411 -1 -2 -2
111 1 11.384154378922856 6.745315973951333 6.224180173687313 -2 2 0
124 1 10.058971224758936 6.1271776141040935 8.849554505441828 0 1 -1
1325 1 11.780984180796613 8.868733490739494 7.297290070606561 1 -1 -4
69 1 12.014935566225743 4.891553568631001 8.125184943700933 -1 0 0
745 1 14.263258158790338 6.736713126324382 4.313574883112965 1 0 -1
1320 1 12.613784498456557 4.887238626413188 5.366432155459458 0 -2 1
541 1 12.432488215494256 8.268937346140094 4.913816710763676 0 2 3
682 1 13.408182956585074 7.068375404836637 7.479019720684768 0 -4 0
1712 1 15.260780573509372 6.00708695802944 6.277203476240489 2 -1 1
1680 1 15.935776557859423 7.80447801879691 7.571632007603615 1 -1 3
1556 1 14.752056800444988 5.619281789341695 8.555472576619811 -2 -1 1
447 1 13.830477494743974 9.06378564902972 8.428141438163081 3 1 1
1351 1 19.316457551572476 4.348449720743207 5.715973266414919 1 0 3
1539 1 18.500561199998124 8.281929042143377 8.569847300344145 -1 4 1
1305 1 17.618244489302953 5.62734156921786 6.750036958429939 1 0 -1
1969 1 19.401148800802385 5.622057716690072 8.030076254301914 -1 1 0
1174 1 18.268760942227065 7.854631466385893 6.231091605895806 0 1 2
526 1 17.092480442746982 5.51771172199644 8.84820748932321 0 1 0
946 1 21.53014188599827 6.15678077461898 4.265470448834389 0 3 1
801 1 20.684567178510214 7.8276862971385555 5.993283249780578 2 2 0
1840 1 24.577013108612764 8.056858186019705 7.593165202197664 -1 3 1
1578 1 22.913717350621344 8.873331918052518 4.622202439805087 1 -1 1
1240 1 22.21530776763048 6.0470038105978645 6.4419278693051965 0 1 -2
770 1 23.845276068219054 6.7960374227694915 5.190600755700472 0 -2 1
1411 1 24.280691635600853 4.906430799040882 7.7305510214620075 -2 0 1
715 1 22.505906890932522 7.1103515832360875 8.481821222549193 3 1 0
1988 1 20.771886887003998 8.916483072687091 8.519324092831909 -1 -2 1
545 1 21.730284484187983 4.94561155019878 8.612854245002747 1 2 -2
1754 1 27.757180803650293 5.376819071844941 4.800257925986598 0 -3 2
1347 1 28.178014215983076 9.157177718046118 4.424917833008377 3 1 1
1087 1 28.084601048777145 4.54252527618379 6.8494262943219395 1 0 -1
1279 1 26.192153153223245 6.034641631016965 6.528453039789247 0 -1 1
308 1 29.069439850577332 5.440038685685751 8.932948098919473 0 1 -3
989 1 28.102519253500663 7.6869496442298395 8.11618697540489 0 -1 -1
864 1 26.807873387675702 8.30345659106334 6.5141049176414105 3 -3 3
1230 1 24.91800875513986 9.133834486998959 5.527335345777162 -2 1 0
918 1 1.442759775256019 10.545593903524745 5.0057151650982625 -1 0 1
1377 1 1.7373674782383994 9.677238377907905 7.173744121245604 1 0 2
120 1 1.2452440558242923 13.622572341433301 5.1118961796684745 4 1 0
741 1 0.6434987991333931 12.21868548600451 7.498382642412038 0 -2 1
467 1 3.353722457362468 11.482740048585336 6.564706204070083 1 -1 3
214 1 0.6946643004958508 10.218655582184292 8.982862441072848 2 -4 -2
83 1 3.082711246656572 10.72078462865755 9.194051902566526 1 0 0
1656 1 1.6121150559903428 13.892312885316448 8.127863269365529 1 2 -1
400 1 4.35822350904017 9.364261422401324 6.079409343243233 2 -1 0
1760 1 5.410749150753056 12.824314187737988 6.225759645480073 0 -3 -1
705 1 3.833147376730783 13.007821486218383 4.571123760117986 3 -1 0
1140 1 3.8362833395770766 14.00699949396467 6.642547954150202 0 4 -1
230 1 6.565681639623719 10.52200675232292 5.942380979301308 0 -3 2
1056 1 7.303716572682676 12.383267777764713 4.247807513591663 4 0 -3
295 1 5.482520868268752 10.644604398092143 7.8757691660257265 -2 -2 0
2039 1 7.018215429555232 12.474748462814738 9.009841212890692 3 -1 4
25 1 3.9358945765243964 13.115156461554452 9.095907251342268 -2 1 -3
149 1 9.736607557754798 10.844760712674322 6.518832248473419 3 -1 3
1080 1 8.25426528040231 9.858249779452063 8.139802640999093 1 1 -2
590 1 11.950425045091558 10.713787764468622 8.808998045173004 -1 -1 -1
346 1 9.816579519588858 11.928133893113841 8.459574968955135 1 -1 0
1272 1 11.142407975933322 13.02274394075847 6.88335043540903 0 2 2
1121 1 8.339850270682517 12.681090926078735 6.788602573828458 0 -1 -1
600 1 12.1081562424004 13.924238140676353 4.302139722567652 2 0 1
1463 1 14.293498542518789 9.440385718013726 6.212440429121205 3 1 -2
59 1 12.227379663031599 11.058919217719245 6.179759433763457 -2 -2 -2
1399 1 14.605662234017531 11.588840510604525 5.324907723712353 -2 1 -1
1757 1 14.606063774034235 11.22573871953042 7.949831130292873 1 0 0
1733 1 15.7180586876187 12.972855886163357 6.789863229272332 4 0 1
2023 1 13.388805497403926 13.127753456189854 7.133112557539513 0 2 -1
698 1 14.260014356738592 14.12047159173889 4.621986198791617 1 0 1
1553 1 18.489691792549507 9.50755731897438 4.236523454950243 0 3 -1
890 1 17.14935805046911 12.000378161900297 5.072688907188399 -1 2 4
1653 1 16.71864612933385 9.788589976195587 6.519151914610413 1 0 2
1540 1 19.66974103571083 11.27760912766774 4.431088781708779 1 -1 1
1877 1 16.903599035611922 12.015604139297633 9.101330280015384 -1 3 -1
450 1 18.157246044293153 12.481767530355606 7.085405231653432 -1 -1 -2
655 1 19.254715009095502 10.296330454883625 6.824364897897035 1 0 0
1261 1 20.569440157836716 12.326984739784033 6.282351400010007 0 -1 3
1449 1 19.489284833127368 11.190998690773506 8.863496233100848 1 1 0
1707 1 19.089989674849484 13.988514382051642 5.817356915776905 -2 -2 2
709 1 23.428961556260642 13.30903422340652 6.387411868427181 2 0 0
675 1 22.1329797045622 11.216256419795725 4.609290987806759 0 0 0
88 1 21.731187899583663 9.730416069400828 6.316591828919475 -3 3 1
353 1 24.311428645924774 11.665429811121452 4.817826831299609 -3 4 1
546 1 23.931517776625416 10.704578914814476 7.118501695435365 0 -1 1
1458 1 21.575054454789743 11.327256233323162 8.098634307130395 0 2 1
1866 1 23.174252608464755 9.22658900959823 9.160065550200915 0 1 0
1091 1 25.040154958737073 14.158155075244812 8.380935026697479 1 2 -1
1936 1 28.43484736512178 11.79603611459637 8.71384857319989 -1 2 0
504 1 25.19650926606974 13.900909546434148 5.216254170523513 0 0 -1
542 1 28.797764080235797 9.79669619629604 6.798875874459824 -2 -1 -2
2006 1 26.4031820885599 10.809304930282382 4.629763592299858 -1 -1 1
270 1 28.861165643265643 11.569503359906571 5.429826698904559 -2 -1 -1
1326 1 26.484988009610614 10.517141916911967 7.344103270486679 0 0 0
742 1 27.10101726159205 12.739614298028002 6.346679732137125 -1 0 2
915 1 2.338284968964701 2.311124298280112 9.409332801629246 1 1 -1
1565 1 0.5431570141409241 2.128479052793995 13.786526832208969 1 1 0
14 1 0.6749236848857256 2.9967367014860313 10.827302908581004 -1 0 1
1954 1 2.1655106992747943 1.3628436946832245 12.104951857931333 1 0 1
1355 1 0.05421791404870657 0.4557786503795893 11.700534186057276 0 1 1
1360 1 2.0101715388814845 0.027263325474424227 9.937896466942897 2 2 1
6 1 2.5554872088481435 3.465807117350823 12.527529199314136 0 2 2
2026 1 3.377112866940835 0.5580661932445417 13.772063855297624 -2 0 2
982 1 4.430704058271398 -0.03348296622555802 9.618334950582812 0 -1 0
1114 1 7.10458817961349 1.9163950627947153 9.383473548372553 1 1 1
596 1 3.978232983717267 2.339563079715757 10.764293752381766 -3 2 1
1523 1 5.814833598897496 0.6526215195085339 11.368387780899699 1 4 -1
2014 1 6.6620329809889975 0.9881062459375443 13.59700144221131 0 -1 -2
1036 1 6.265224466797377 3.3732035200139645 11.80137206810725 0 -2 1
1032 1 7.241213168554278 -0.5673883467950342 9.75524125842158 3 0 2
488 1 5.564968962499812 3.5851932025733184 9.693974312895127 -1 0 1
804 1 4.607400299906789 2.425677790138087 13.216536638139871 1 1 -2
92 1 3.670726089921378 -0.7280997986751558 11.693273994517238 0 0 -1
1468 1 11.86247964450582 -0.4698925289639112 11.258478693824618 0 1 1
106 1 8.989514744174679 -0.32405756424391974 11.082534118340796 -1 1 0
212 1 11.924969538080205 3.2982192389162597 12.246808888052882 0 0 3
1002 1 9.791063356163876 1.5645080137231888 9.265268648540628 -2 -2 1
1741 1 9.630960248353944 0.5901038832231009 13.224766024847929 1 0 -1
773 1 8.432289019032732 2.4127484040043776 11.861333901131292 4 -1 1
198 1 10.417613590443478 3.64382300476037 9.623749445466213 2 1 -1
156 1 11.370334765909083 1.4991468237854164 10.959161081926377 -3 1 -1
1743 1 9.622226666276141 3.902933560157104 12.94598679569749 -4 1 0
1808 1 13.951071819085849 -0.15535470085020975 12.070839098264985 0 1 -1
229 1 13.3999815021344 0.4755255352808194 9.55435901969191 1 -1 -3
1466 1 15.113858613134012 2.046170949716437 11.295989310355328 0 2 -2
1737 1 16.18271729457718 3.10338705271832 13.112094291710525 0 1 1
1620 1 15.016147719752956 3.3228180817513184 9.592676618579686 -1 -1 -2
1416 1 13.965547691830674 2.105431571650143 12.938318954358435 0 2 -1
1179 1 15.997944676038003 0.6571201980033379 13.71378771953856 -1 2 0
1054 1 12.08370864530985 0.7925634745067147 13.847663822709993 1 1 1
76 1 16.92687085041946 0.48995395018036914 11.671621772564356 -1 1 -3
67 1 18.91629690239125 1.896202843465304 10.209819149073391 -3 -1 1
1530 1 18.607663786906226 2.9019735032346583 12.72423142614651 -2 1 -2
146 1 19.064161396488913 0.6545530394785055 12.275061392597209 1 2 0
339 1 17.075062141466915 3.037923595123177 11.038073530777766 0 2 -2
1072 1 20.83252539546979 2.66215233667606 12.080198838147444 0 4 -1
1793 1 23.081524625562317 -0.6851148505858866 11.136272965690882 0 0 -2
547 1 20.863145377841587 -0.1722627054321335 13.57539292560829 -3 1 -1
334 1 24.19238601417414 4.188857322359176 12.525489307624595 1 -1 -2
446 1 21.062429055614324 1.4147277640268654 10.159932277517346 1 1 4
1945 1 23.348031364751762 1.663140941241974 11.033138678894252 0 0 -1
1024 1 24.736546082668184 0.7281177892182005 9.386569784611833 1 4 0
845 1 22.100606018760026 3.7810091739960496 10.605626907974173 -1 1 -1
1108 1 23.792617004456165 0.3698536718576806 12.794139312790119 -1 -1 1
756 1 22.861509462320257 2.2547982517161094 13.907223727825603 2 0 1
556 1 27.714387928152828 -0.5094893929655562 12.757410114739066 0 2 0
1797 1 28.626960563403955 3.0904638709432626 9.678870841389571 1 2 2
1796 1 26.466459524791098 3.622289130703191 13.41996686349674 -2 1 2
1389 1 27.65049089294504 0.4802892165393229 10.137739384271171 0 1 -1
1075 1 26.681077073528346 2.9370920021883613 10.818418714374545 1 1 -3
1267 1 28.596075646491947 2.1974689536691816 12.149525037156652 -1 3 -1
1850 1 26.279688040140194 1.185081376836562 12.095952892026384 0 0 -1
1564 1 3.106145229317016 5.126799343652036 10.878460881044795 4 2 -1
1151 1 0.7811227183143536 5.9023133178288125 10.80464472029509 -1 1 -2
1592 1 3.1722709575540406 6.946237322202949 12.443610898410482 2 -1 -1
231 1 2.790043854092331 6.705398211009101 9.373790166055299 2 1 0
693 1 1.1169836104338804 7.30473316514607 13.164214835521252 0 -1 0
1153 1 1.945524572193536 8.81542481369374 10.679367000203833 2 0 -2
254 1 0.6067139746200962 4.636221956989793 12.676030690861126 1 1 -1
476 1 -0.20060620056155132 7.8638509690614296 10.239625248399033 1 1 -1
1637 1 5.792543862623412 9.11457821333143 13.497227298243134 2 -2 0
1536 1 7.019295960184034 6.2625766669193235 13.716603513504538 -2 0 -1
1911 1 5.479463335937767 7.527651543398166 10.103234816209314 -1 -2 -1
468 1 5.083736052551001 7.041058642457248 13.219462049085186 3 2 -2
205 1 4.93626185699577 4.788696897625622 13.77562868178489 -1 1 1
1011 1 6.207545187525418 5.333932540653311 11.058463501511099 1 0 -2
704 1 7.526092358426968 7.793439349909866 12.191102067756287 0 1 -1
392 1 4.159451342759407 8.811099846274042 11.477365793971988 3 0 -1
1227 1 7.4508877319628475 8.583789691526196 9.991353075931022 2 2 -1
1081 1 10.151685202309805 7.581309340321898 10.968395056948683 0 1 1
132 1 8.72655999897571 4.335183131541876 10.471747195242301 4 0 -1
152 1 8.00127076744044 6.588574083106886 10.035735153054276 4 1 1
297 1 9.881644873017104 6.477641301055995 13.141874948688088 3 1 2
654 1 10.858792812800498 5.252893406992412 11.313880315931035 2 0 -2
1039 1 10.448796501697146 9.094286052666899 9.412378176054192 -2 5 -1
1841 1 11.829649197483578 8.596608179806976 11.861203004441114 0 -1 1
194 1 12.157599651140094 7.321599313404571 9.371458026357061 -1 -1 0
91 1 14.096092785701805 4.514551108445449 12.154784740941416 0 -1 0
1213 1 13.193188958158627 5.086253873436311 10.161064368798623 2 -1 -1
1928 1 12.14793582552574 4.779996750965279 13.682899758876754 -1 1 -1
1003 1 14.929014002570794 7.656383644176124 10.18390564142161 -2 -1 -1
1703 1 14.068073917891287 8.915474287671366 13.027829905963655 4 -2 1
282 1 15.832850188873014 5.4996308119202695 10.833208630367155 -3 0 0
100 1 13.33717946928162 6.628030126146947 11.889660942168966 -3 2 0
516 1 14.465169242879107 6.735635159416821 14.035714817360105 -2 -1 1
1688 1 12.427736681838656 7.438459634657448 13.984215753977937 -1 0 -2
1914 1 19.42133282652284 4.566385505797329 10.592060662996722 4 -1 -1
703 1 16.663241068620202 7.1394537608724145 12.48486942910462 2 1 -1