LAMMPS data file via write_data, version 29 Oct 2020, timestep = 300000

2048 atoms
1 atom types

-0.21861238382181014 28.5706123838128 xlo xhi
-0.21861238382181014 28.5706123838128 ylo yhi
-0.21861238382181014 28.5706123838128 zlo zhi

Masses

1 58.933

Atoms # atomic

473 1 3.0042599633135545 1.66227648521698 3.6078266887266355 1 -1 0
909 1 1.0263529016891735 3.0671007582404606 1.3493064123361294 -3 -1 4
2043 1 2.282623805485648 4.030336134490415 3.4027067254324908 3 4 0
1803 1 0.5510949672391492 2.14518856704921 4.052024455342123 -1 4 0
1324 1 1.3807731983321492 0.6891521243073782 1.825275383822444 0 -1 0
642 1 3.4333474186349053 2.7589165185894036 1.5824873901645842 2 2 1
616 1 9.221558400221438 -0.004485446525738179 11.172866003476747 -3 5 2
969 1 16.07988226139918 0.8622754851358332 -0.17007749953489548 1 1 -1
142 1 4.048851181290283 0.5106379443569569 1.8552211258702553 4 0 -1
230 1 5.853431322736543 2.493440889400932 1.5970519269288084 1 -3 0
261 1 5.377946090608114 1.3481020865928117 3.6767746089320585 -4 -1 3
1761 1 7.205322997650012 3.544227999564081 3.2295440044538863 1 1 1
175 1 4.674761901045592 3.8483890115005384 3.3259401691088133 0 0 1
280 1 7.688941800999264 1.165424474947611 3.047795600325053 -1 3 0
197 1 7.840365684388479 4.5087048613842295 1.017031691208579 0 -1 -4
1192 1 6.184822110794341 0.0908716335010114 1.2148707931987797 -3 2 -1
1061 1 8.467729326513995 2.11908894505681 0.9702730656857321 0 -3 -2
1733 1 10.86832355643514 1.6463279444790366 0.5432442115688126 2 1 3
861 1 9.732058908192176 2.9136284580766447 2.6997962058703524 2 2 1
1092 1 10.566266977800424 4.0118569708524054 0.6403775666440832 1 -1 -2
290 1 10.306190896479624 0.5551855038387026 2.681176561904055 -3 0 -1
234 1 11.099029089250857 4.031942704155747 4.524735694275472 -3 3 2
1909 1 11.414937587958367 1.7249445508543484 4.741858320782538 3 1 -3
1518 1 12.018891116007907 2.519337702272066 2.5122588549536666 -1 1 -2
1467 1 14.288664275634362 2.310099653846878 2.2369074008206904 2 3 3
569 1 13.023693193995241 1.355190935891769 0.20355269602185005 -1 -4 3
1101 1 12.843853463496503 3.6027602972635595 0.3109874661622496 1 2 3
325 1 15.814610518808802 3.381631335668283 3.9591433558568534 -2 4 2
1789 1 26.899766654552675 14.051452184821377 3.358039202548248 -1 3 0
1887 1 13.36862053036933 3.581478944541644 3.9904577642384034 -4 0 2
60 1 14.188969597732976 4.743739257224921 2.208384667409696 0 2 0
244 1 7.744514444970516 13.955028985781205 12.22045173860307 2 0 1
311 1 16.10032036488167 0.9337513615118502 4.101664610052463 1 3 0
507 1 16.273780519016746 3.9656298938548433 1.3998643442829442 3 0 -1
347 1 18.314894202282296 2.838056871099386 3.923314798382532 0 -3 3
836 1 17.035099222560568 1.8062659613206935 2.151807571293411 0 -1 1
1424 1 19.2210375279805 1.4509244703948834 1.5849000210659414 -1 0 -5
83 1 18.833938450627006 3.8174237754841354 1.3062439075820445 -2 -1 -2
252 1 18.5704360017571 0.48168728936221716 4.042806256594122 2 0 -3
1886 1 21.866415627320656 0.18981532289947928 7.30016152633849 0 -2 4
269 1 17.169400113532568 0.5297716085788198 8.345862776978361 1 0 -2
760 1 20.717091439166182 2.4570742091167106 3.5296432829318714 0 3 2
1159 1 23.132956345101828 2.2718642391712303 2.698362494428028 -3 3 -2
1664 1 23.470749850454283 3.0641739859019688 0.37876319579688966 1 3 4
1822 1 21.805674890355967 0.8313107839487395 0.9160312195562943 -4 0 2
813 1 21.195702639261732 3.08222680005771 1.3088743660700013 0 0 6
1777 1 22.643234610488566 4.726027658759465 2.647178949064746 -2 -1 1
670 1 24.132277045815844 0.4570053555609358 0.838510390306491 -3 2 -2
37 1 21.801258140372752 0.02888433912867272 13.324456777083112 -2 4 0
1074 1 27.46864700811103 0.4861702497261633 4.365737144400163 -2 2 2
1841 1 26.72321615929326 0.039472076511237464 0.49879113664195185 0 0 2
1599 1 27.974084375591676 1.2940983704327935 2.230095492806222 0 -1 -4
499 1 25.52590162665479 1.7756517627404047 2.472897581359759 0 1 3
1139 1 27.32731015334362 3.5425872211331693 1.939605004304279 0 2 -1
426 1 25.074879537886552 4.142010706726062 2.5406852375272364 3 1 -1
1371 1 26.97146400556648 2.8457008166122253 4.180538525445823 2 1 -2
1687 1 26.190084871849194 2.5110081686749686 0.19989600408575503 1 0 -2
1086 1 0.11066947939356764 7.056104606783142 13.957166236887769 3 -1 -2
2022 1 24.42797484729617 3.100261371179658 4.529128996297783 2 5 0
2011 1 -0.03927871878428496 4.68522130189252 3.68683443169049 1 -2 5
355 1 2.663212447906293 5.099451471607784 1.1935767318909096 -1 -3 1
317 1 1.5404074487092427 6.626823733245385 3.0303984373868835 2 -3 4
1473 1 2.5660431127045884 7.754959745013215 1.2908587323907448 -3 2 1
35 1 0.3491666893618903 5.4020389521067855 1.4685852415868952 3 3 2
454 1 1.4530912736577524 8.911379062483318 3.608178174967707 1 1 -1
693 1 0.10729033163444451 8.007150229720265 1.806128288695259 -1 -1 2
570 1 28.1585074648399 7.096790186532256 3.892775654992623 -3 -2 -1
23 1 4.033393629401691 8.581984785481342 2.9025416409639844 -5 -2 0
1953 1 5.1256623524534355 4.631340036987153 1.0926278172662596 0 0 0
132 1 3.8519085848816044 6.182836431775222 2.98034688817219 3 -3 -1
1660 1 6.542784723080586 5.829328934599418 3.042037840589341 4 2 0
242 1 5.128761601149589 7.117515325748448 1.1547525917058734 -3 1 1
1493 1 7.390090777583456 6.82797184678193 1.0481922890574558 2 -2 -2
87 1 6.47084025506254 8.2181734069809 3.003802948389313 0 -2 5
859 1 7.04785604325741 9.09914853381227 0.5599895349648986 2 -1 6
1717 1 11.744233760877526 4.98537650284188 2.398338516052836 3 -2 -1
1395 1 9.043183064834315 5.173619630076662 2.9186998742341723 0 1 0
726 1 10.05795996731306 6.2476994111381945 0.9317899103933385 3 2 0
338 1 11.344658807829422 7.140697393206346 2.7261641972376425 2 1 -3
1246 1 8.98133789471654 7.689271573130305 2.7269583086613762 1 0 -1
1173 1 9.444340469100354 8.502233892599534 0.6259986952772161 2 -4 -2
1465 1 10.446564335637555 8.674116243424585 4.726888864765477 2 1 3
605 1 10.431848317095085 6.283367668872996 4.690485952320083 3 2 2
646 1 12.64824486871069 6.017754369637571 0.1994363220775754 0 -3 0
587 1 8.313835384140052 0.0748584188854019 13.50520627063866 2 -3 -2
2012 1 12.943303185147277 8.343374681037536 4.173894218210337 -2 1 0
6 1 15.554550265148498 5.8617589113045545 3.9770351059244096 2 1 4
1269 1 13.592452491451484 7.089974409045805 2.0428675109426995 -4 -2 1
689 1 15.497093848708179 8.205986264061783 3.9859405542079216 0 1 3
1925 1 15.508800200661147 8.896094898001348 1.6773162542118123 -2 -1 -1
651 1 15.853977718470695 6.597281818530884 1.570156779990794 -1 0 0
1651 1 13.03885142191186 5.895348922356806 4.156472757707199 2 2 -1
71 1 21.252127321053393 -0.141243732094828 3.4399817815696307 -3 2 2
841 1 15.098806738934098 5.384133551323148 -0.15052911948882336 -3 -1 2
1323 1 17.756765425378884 5.1109073006899095 3.118140954342455 -5 3 -1
1339 1 17.474622016174248 7.599801353907454 3.156250823145513 5 0 2
965 1 18.392042573206716 6.303542076547259 1.1377772570099303 0 0 1
687 1 19.782393975641796 7.242162270871275 2.911407666348116 3 -2 -1
985 1 18.057431154017294 8.482708289951292 1.1694212714410357 5 -1 4
858 1 20.382719512625922 8.313936125214195 0.9385546538584648 1 0 1
1449 1 20.291820938286296 4.786336234090705 3.35028617852848 -1 -2 2
370 1 23.32183988450741 5.662709568480067 0.2733184455661706 1 3 -1
382 1 20.774284195574282 5.458539840102947 0.9210200317340229 -2 -3 -1
1035 1 22.260398750230546 7.018993331305197 2.624577559513929 1 -3 0
1656 1 22.635778321158462 7.93381778984914 0.39288360811643286 2 1 0
999 1 23.96573817077125 9.087183137280876 2.0486867361592083 -1 -1 1
1985 1 21.719324924427852 9.379500311944396 2.814201561029704 1 1 3
960 1 24.66492270920066 6.442361267788863 2.3171398559408725 4 0 -2
1751 1 23.960246598283007 5.598367917130423 4.428850777924739 1 -1 -5
228 1 15.109833679137774 0.2093233414566404 2.23465673072194 -1 2 6
1309 1 27.128687202774348 6.027183385757148 2.103105495520405 -3 -2 4
568 1 26.51070927246436 8.189657031024646 1.855204080899198 0 -3 -3
1646 1 25.561608748377214 7.598597520286632 4.035104160574266 -1 2 2
1712 1 26.47132738492818 5.241489355510758 4.17689236418894 3 0 2
1196 1 27.77213711547591 9.403341539302533 3.640058068939089 -1 -4 -2
596 1 25.266529942898217 7.551467451407643 0.15322413329720969 -5 4 1
10 1 12.688387460566952 0.27951566256626365 2.5685795547344576 2 2 -1
1251 1 1.8526435743868364 9.92249200662495 1.0552430772547263 -2 -3 0
634 1 1.4855301990993455 12.443365528844986 1.1512292562057516 3 0 2
1826 1 0.7507470286853696 11.29548896100295 3.0845991912379294 -5 2 -2
1385 1 2.9229003141174594 13.185514299065385 2.953894375233461 -3 1 0
623 1 3.2287507787378207 10.800594738918548 2.636618308549775 -1 1 1
488 1 0.3533958909697177 13.613271063975278 3.4015415636075828 2 0 1
1848 1 3.90413631091043 11.737196545407684 0.6826512165047595 1 1 1
1115 1 4.468369126804389 9.451281744083195 0.7262502982214312 2 0 2
1419 1 5.252552442468512 12.919378636105627 2.3766250111689127 4 2 -1
476 1 6.290353113716018 11.180598147178111 0.2577346797069318 -1 0 0
779 1 5.6841271364853725 10.385832662338405 2.3811181084310715 -2 -2 5
1536 1 7.803130677411502 12.53069020471566 1.9503682992125846 -3 -1 0
235 1 22.013176853342898 13.128632053243953 10.260052651877633 1 -2 2
1961 1 7.175075940183348 11.388523428805058 4.1246901543309065 1 -2 3
1239 1 5.873000313005181 13.760761012407361 0.2086223217427121 4 3 0
8 1 10.681889971682272 9.498356691056628 2.6461650339210085 -2 -1 -1
748 1 8.879135637109215 10.961094984698446 0.15366632872769537 1 1 1
1194 1 8.14706677485239 10.149223723342333 2.428278571157812 0 1 -4
250 1 10.013058780190262 11.980911803995674 2.215055929965188 0 0 -1
327 1 11.533064858440294 12.851916551688115 3.816907518039808 -4 4 -1
69 1 9.505855577660075 11.040667730860624 4.33144214061591 1 1 0
633 1 12.216466845699644 10.45749147827956 4.257907533803858 -2 1 6
1462 1 9.13250189652405 13.512132669804737 3.975103764871844 -2 1 1
1247 1 8.385121311490156 13.29361553202387 -0.07589910224594593 -2 2 1
204 1 10.940978595845468 13.05254828878555 0.3941438471287645 1 1 4
266 1 11.383540867428664 10.594286089715666 0.4382195270845636 0 0 -1
1903 1 12.938337320245443 9.483466743465524 1.9689039783061681 2 1 -3
1990 1 12.670649767382278 11.854829504629196 2.022935331803457 4 -3 0
1122 1 14.535893818139588 10.406050779949213 3.8120289801873595 0 0 0
2005 1 15.061924877659337 11.301646251262643 1.3599801628407306 0 -2 -1
746 1 13.897730007699831 12.809255829884806 4.018294647699719 1 2 1
1236 1 14.572076484042643 13.972512509135251 1.7035954684003607 0 0 -1
427 1 20.670290875585493 14.092037803904052 2.304699319401314 -3 -3 1
1163 1 16.227272084033626 12.301538587920803 3.3336809478622302 -3 -2 -2
1700 1 19.320474261195216 9.735947077864653 2.8865975467398184 -2 -1 0
600 1 17.06531688396747 10.028593816249979 3.470100391795344 0 -1 2
1496 1 18.82751696921658 12.117855840270337 3.0686170502308094 2 -2 2
1118 1 17.4042663937092 11.13397194211313 1.2159090976107139 -3 3 3
804 1 16.77295575352033 13.65019960469252 1.2641580463793054 1 0 -3
1791 1 19.260038434795828 13.239610392328181 0.5763850115052094 0 3 0
1494 1 19.782869713398412 10.845290572038042 0.9775640306055378 1 -1 4
289 1 22.182576362255162 10.234928115749373 0.4044187548412339 -1 -2 0
945 1 23.154499357849097 13.829460262343314 1.9441218306103978 5 1 -3
116 1 21.109074000341973 11.811324651113527 2.626377096202548 -1 0 -1
389 1 23.485010348215987 11.512457715905294 2.1010359344527254 -4 -4 1
566 1 22.64508381467691 12.865792768853572 4.249434172024413 -1 -1 -1
1541 1 21.57079490721481 12.586439675987124 0.35028076113529905 1 -1 -2
772 1 27.456999728289688 6.879455078130967 -0.17549907165031556 -4 -1 2
599 1 7.358946659997084 13.882366582553303 8.520863475038784 -2 -3 0
849 1 22.727491714204223 10.456822000211957 10.231491977404891 0 1 3
555 1 15.02981399586308 2.8595351308902623 -0.1781459783269364 -1 -3 0
890 1 28.102808041076567 10.144981696661048 1.215646403633177 -1 0 5
120 1 25.571751579261917 9.87547117450311 3.8354810798239756 3 -2 3
1696 1 25.122771697108288 12.209431586440157 3.7684704393552138 2 0 1
1698 1 25.855853211582374 10.82362678975353 1.7314855788542083 -2 -2 4
1278 1 27.407667706750065 11.722497701168953 3.388135576736663 0 0 2
603 1 27.866127984174906 12.840909829656525 1.4353323530501754 3 -2 4
1750 1 25.489587440907542 13.288240648913858 1.367407248350617 -4 3 1
928 1 1.6638913458562659 -0.04000324088112983 8.103870739871603 1 0 1
711 1 2.2686103403641344 1.000541396013775 5.699570392054424 4 2 1
313 1 1.0990356980998452 2.246459800440925 7.994057636764275 3 -2 -1
1582 1 2.1007166410769527 3.208884864800752 5.670231824414168 -4 -1 -1
386 1 3.4935779184764604 1.6553659228403519 7.667135927048903 1 -5 -2
1123 1 3.470259095602491 3.9745585325809456 7.430668400727615 3 1 -3
1749 1 -0.19773437233123772 1.0398591881585855 6.3271873527334455 5 -2 -2
1459 1 7.149990201175839 -0.1813263367035827 5.335091762171335 3 1 -3
725 1 25.33555960010154 11.35265002024489 13.946689390975505 -1 1 1
1913 1 4.797976520183387 0.45146493897164486 6.120233869804144 3 1 1
1658 1 4.390318920440421 2.660326406126709 5.586607358051904 -2 4 3
1256 1 5.851470471141535 3.7730243437246425 7.0533525282900325 -2 2 -2
1109 1 6.902624791366788 2.374375872373967 5.154066179619569 4 1 -2
1811 1 6.08065274642053 1.4579460259137678 7.695119973542711 0 2 3
822 1 7.31639776122184 2.6532974857550062 9.19755493163692 0 3 -3
1799 1 8.150337127899222 3.2748959907254496 7.11122082954616 0 0 3
391 1 7.28467019663579 0.08715244874082756 9.293408282255495 -1 -4 -1
618 1 9.173008830503504 1.9402042294196082 4.83360822734413 -2 -1 3
1974 1 8.437101141314404 0.90986201974055 7.160684091553001 0 1 3
1650 1 10.5052719436454 2.9427252808441433 6.763833887828734 0 -1 -2
1830 1 9.245422951428386 4.128116802825872 9.085328187390772 -5 4 3
1699 1 11.882507116796376 4.153807852352655 8.364066771497116 0 1 -4
1770 1 11.198782873212247 0.5412713252131683 7.168505780247217 -2 -1 -2
1304 1 9.697904601008434 1.5359192739532124 9.020148339428644 -1 -3 1
814 1 12.478267746936478 1.9859174379878688 8.666604848698103 -3 -4 1
752 1 8.859372368085184 4.4158132054786465 5.077332007948316 3 1 0
1553 1 13.840079836040324 1.2831961258444995 4.401248370968199 0 6 -1
1229 1 23.709057154384833 12.098327824804507 12.147046503306138 -1 2 1
1526 1 14.670779685134004 1.1881882344525851 8.588778872996071 2 0 1
723 1 12.778470505181758 2.80369138405216 6.364287081425129 -5 -4 -2
483 1 15.3001213858456 2.4207679829481057 6.485534738139986 2 -4 1
698 1 14.27810583224931 3.8539529839599966 8.646756463381374 1 0 1
284 1 13.523875662947773 0.5241324887069526 6.638487948616912 0 -3 -4
1168 1 16.760644605561243 3.085833420237473 8.055128077215713 -6 -2 0
1653 1 17.152325771536013 4.211461408170514 5.672783325576524 2 2 2
1127 1 19.10995454498204 3.334830956711729 7.775020129728387 0 3 0
554 1 17.805251845456898 1.9798898292580103 6.194314838908123 0 2 -3
1028 1 19.727005654750098 3.5143255693691375 5.679767283904029 -1 1 1
1025 1 19.77578835447412 0.9845562004451986 7.911121730988224 0 3 0
1050 1 24.816322768683403 13.860503358625564 13.76005785664952 -1 -2 2
154 1 22.160761120740002 3.877249163985751 5.324933714013222 1 -3 1
189 1 22.7155959281516 1.4941852997848368 5.007750636143015 -1 -2 -3
1867 1 21.626137688514877 2.603902039477787 7.31363636749326 -2 1 -2
1238 1 23.949989542609615 2.6597273070741148 6.90455716385955 -2 1 -1
1781 1 23.233073715562295 1.6100300851976082 9.208473590870293 -2 1 2
1922 1 22.839300166198957 4.050969525446119 8.980340383369263 0 3 2
331 1 20.303857492765502 1.044332903588338 5.540511356386921 -1 3 -1
537 1 24.37480704087983 0.1718558661339885 7.224216942092119 -2 -2 -2
26 1 25.307241913759857 0.45621838749305177 4.85465407739821 3 3 -1
1436 1 28.403022492326404 3.6035006504340243 5.883477678418033 2 4 2
1435 1 26.258120845309378 2.2038141791273445 6.370804762022197 -2 0 2
1906 1 27.911930264950517 0.9030192340228969 8.632681946704558 0 1 1
655 1 25.501841511232183 2.0095944719706282 8.618643036936316 1 -1 -1
1075 1 27.63180361559925 3.388990542728782 8.057174272750942 0 1 -5
1476 1 25.61352289598286 4.389098774816213 6.384990432251053 4 1 1
1303 1 25.157928684179062 4.440810595872275 8.917797894321444 -1 3 -2
440 1 1.154663432680865 4.61933737030217 7.7060791652903236 1 -2 -1
365 1 2.6813897447676043 6.27941226125416 7.431998268492484 4 -3 -1
101 1 1.441857472389503 5.560410732667831 5.617327128073964 1 -1 4
2007 1 2.8811806562811664 7.463761746411818 4.944706029775093 0 -2 -2
1336 1 0.7024294059906834 8.039426014107654 5.841536629761883 -3 -3 -2
1893 1 0.29062403149299365 7.183902005652548 7.910442091284642 1 0 2
486 1 3.580757359122973 7.78537193610938 9.15541188066556 -4 0 -1
400 1 3.752737352387583 5.198337651106125 5.163758538150631 1 1 0
1793 1 6.803789173116388 4.915029970336598 9.056844643389343 3 0 -5
1263 1 6.313194642100409 4.642818803547621 5.026551623458663 -3 0 -2
1883 1 5.3212680322835295 6.996419314929596 4.7644835948013435 -1 1 -2
208 1 5.1948820782284475 6.098489600485031 7.1664290641552535 2 -3 4
720 1 4.529847627665397 8.582650830838643 6.828815883648596 4 -1 3
937 1 7.122496375574961 8.016985663342878 7.102105046460277 3 2 -1
232 1 6.357942346175941 7.178733610817875 9.049558055987436 -1 1 -3
1828 1 7.708136979982021 5.71568626766005 6.894938559523286 -1 -4 -3
1267 1 4.308516098547231 5.505516152325536 9.299043421409115 0 1 0
1308 1 8.024830343905082 6.7540384494709285 4.59306640812545 -4 0 -2
1728 1 8.30605001910778 8.990871450866623 8.82741129849051 -2 1 2
868 1 10.047480630516866 5.134432586184159 6.848356832375715 2 2 -2
531 1 8.852831526136677 6.551077021278935 9.278312717971067 0 0 -1
1719 1 9.563974113194655 7.475678002216616 6.826391881077765 -4 -2 1
438 1 11.44153581861679 6.354419270707192 8.394518121086964 0 1 2
492 1 10.635961976931323 8.532504332372278 8.659536667015685 -2 2 2
1156 1 11.865752510402526 7.417597279056872 6.486549969234049 -2 -1 -3
1583 1 14.613652614821055 4.703013230334455 6.198679042037741 2 1 2
1064 1 12.307974416606127 5.262402577558766 6.2795547044356175 3 0 -1
975 1 13.819232715188175 6.2178069475641315 8.438801063899227 0 0 -3
513 1 13.199571565926389 8.63633539659831 8.209292531134583 0 -4 -1
130 1 14.247457851189473 7.219478314253832 5.869461036840261 3 2 1
771 1 15.523810193042346 8.103253533764992 7.858256752070041 -3 2 1
341 1 16.492026356150326 9.220079470187686 5.912417910282684 1 -1 -1
1758 1 13.989365356771113 9.640559378448788 6.088369654387634 -3 -1 -1
1381 1 16.083914456277707 5.607036728547862 7.83417368173691 1 -1 1
811 1 16.761972442792185 6.805978690335854 5.746214243050859 -1 1 -2
783 1 18.567989947315127 5.64897005564344 7.607206869540692 2 -1 2
249 1 19.241516137284005 6.078661501415572 5.088284179606402 3 3 2
1268 1 18.582691321864456 8.47421001926841 5.075126904615341 -2 2 -5
1730 1 18.026731047317025 7.942909530413257 7.780966186784605 -1 -1 -3
1981 1 23.486014135725153 8.087567026378412 4.427161905607262 1 2 -2
1722 1 20.132325672398135 7.334995097444861 6.8997934113786545 1 -1 -1
25 1 20.917038751366515 8.489361726130907 4.736301347015778 -3 3 -3
1740 1 20.93248525709205 5.235556202605008 6.986067005077449 0 0 0
1851 1 23.31975337595322 5.090552602296783 7.194914560816362 0 -2 -1
888 1 21.503691367799966 6.2714574295135925 5.009020610386675 2 -1 4
997 1 22.740458526902145 7.741945756252974 6.867071809436532 0 -2 2
48 1 22.016360415318758 6.325254629491929 8.866139067329799 -2 0 -5
891 1 21.65380774691838 8.94153761139174 8.742452936550759 -2 1 0
1095 1 24.009540508088573 9.412268597123637 8.49009562148429 4 2 3
1628 1 24.391351658945247 6.883217676374951 8.703831034508713 1 2 0
639 1 25.16180188518844 6.549421594019225 6.234009764690214 -2 -3 2
1666 1 27.776233571881434 6.046914941001126 5.899885215631335 -3 2 3
1572 1 27.04264300897172 5.867912061532787 8.249441525586976 3 4 1
1197 1 26.789462251103057 8.400658108864654 5.729203988481845 -1 -3 0
1279 1 26.1583910125324 8.46886327831386 8.008311069406915 -3 -3 0
1353 1 24.72374377197905 9.312498689942528 6.151761906806321 0 1 2
1639 1 2.2240097218146153 8.729002684199012 7.254246481014537 3 4 2
399 1 2.4389603600682546 12.25130911336023 4.934874211050162 -2 0 2
1393 1 2.9030152788705066 9.80706677295738 5.156057907626862 -2 0 0
1890 1 0.4423719401380064 10.261851700530256 5.455721424795348 0 2 0
1388 1 1.625370635475842 11.055461089743352 7.316320928500952 -2 -3 3
1672 1 3.739386821942059 13.235372520810778 6.980461394724326 1 2 0
92 1 3.3764318854771798 10.298099401800917 9.166002076407525 -1 2 -1
1591 1 1.0559512753246676 13.478639231270117 6.893653278705641 -3 3 1
1946 1 28.538390704755805 12.405552528090118 5.173667608157917 -1 1 2
403 1 2.8064033373611617 12.590076926612745 9.094139571371768 -4 1 -3
1292 1 0.38287449811451324 13.325501277143523 9.259995597862371 -3 -1 3
1266 1 7.963829111676427 9.180522666869372 4.721296578134047 -1 1 3
1592 1 5.494920731787892 9.552103759417312 4.860775217601568 3 -3 -1
512 1 5.768362211549597 9.724543186129493 8.802582603313835 1 -2 0
989 1 4.154178486444621 11.010399682242255 6.790941933283445 1 -1 -1
544 1 4.668011659043158 11.693784822848443 4.239317694344559 1 -1 1
983 1 6.734033600120438 10.206042202598388 6.672996555755267 -4 3 -1
1474 1 5.8368355603340945 12.7967462215324 6.1864254260923195 -3 -3 5
1721 1 5.349685055538061 12.074297052818848 8.644856431999322 2 0 2
1299 1 7.735775905445344 11.429443793813824 8.750280946578036 -1 0 -4
757 1 11.723852557244793 9.917826848853064 6.4887479273486 2 -4 -1
745 1 9.132141233766333 9.840726997274311 6.683911371846865 -1 0 -2
563 1 8.381727754338758 12.260582660125452 6.538236982036175 -3 -2 2
1862 1 9.952834877263482 13.369886845461675 8.395544596484134 1 1 1
1389 1 10.964667369110552 12.187404744381933 6.350443231018835 1 2 2
562 1 10.30593005963057 10.9187557680414 8.45760158290537 -1 -2 3
502 1 12.62427605529259 14.035751594465077 5.763897744045808 2 0 0
1322 1 11.827747843706643 8.291522695528007 0.4567853475144493 -2 -2 2
434 1 12.317799194995786 13.44415952882109 7.962229905996432 2 -6 -3
351 1 15.22575582811987 10.620666914540617 8.24553582738733 2 -2 0
474 1 12.81594337107965 11.091056630073023 8.247814309665134 0 -2 3
224 1 14.865763017250968 12.990569340110511 7.552609737127312 -3 -2 -1
76 1 13.215214550727575 11.828057066861184 6.235861996342129 -1 3 0
1918 1 15.668291117735476 11.606243080839407 5.8104361961956075 0 3 -1
455 1 25.48402825322645 5.058344660494493 0.4835661462479255 -1 3 1
1578 1 16.429776699607828 12.046091559754752 9.267607035565067 3 -2 1
1969 1 19.869386714909208 9.527749592580756 6.845870772202195 0 1 2
593 1 17.592970475959692 10.718633876959137 7.26223480917411 0 -4 3
1022 1 17.880116455988126 13.57638977410231 4.9737136043425965 4 -5 -2
511 1 18.051383608936487 11.137199561362152 5.015350429955248 2 2 3
402 1 19.616841434193468 12.123116933417165 6.673007971390947 1 0 -3
1685 1 17.328788743939704 13.1266699341044 7.1535622110434876 4 -1 -2
315 1 20.173371858126856 13.369013573246031 4.700420059820277 -2 0 2
47 1 18.772840567057713 12.36082427658466 8.971678890839655 -1 0 -4
1618 1 15.656325862745932 5.29381425179467 13.95484536213278 1 4 -2
106 1 23.0541597415039 10.448405554327554 4.3081185452595925 -2 1 3
1116 1 20.646781660826193 13.858197334408185 8.368253869588592 4 -2 -1
246 1 20.734612044182857 10.982541775377294 4.695603861894238 1 1 -2
1076 1 21.103423472334427 11.420122471886069 8.534119725796868 0 1 -2
770 1 22.049758870569917 12.691809979991257 6.70286043911946 3 -1 1
195 1 22.263009202839672 10.116877526303762 6.676577542503031 -5 -4 0
536 1 23.42291383678929 12.013517522820381 8.2356575365495 -1 -2 0
2034 1 24.263221366037 11.577672862491061 5.937439345324052 -1 -1 2
826 1 24.43215383975089 13.769188729799794 10.041446177896932 2 0 1
606 1 28.24088809808015 9.41018328773673 7.651864959879457 3 0 5
782 1 26.48751936372405 13.042724823882637 5.5405603005229 4 2 0
307 1 25.882889377453687 11.046151092530597 7.809504281270362 1 -1 1
1029 1 28.030735299901107 11.869324146020814 7.4582486228903875 0 0 -1
1565 1 26.938470941863436 10.759787282224371 5.665032346577695 -1 1 1
418 1 25.170929449479072 13.685062758001097 7.861546563238486 -2 1 0
735 1 26.21243639927431 12.756312928195587 11.889553840212328 -1 -1 -1
160 1 3.2791767054915106 1.7356892758150113 14.119502827396293 4 2 0
1219 1 2.722450756938359 4.29138481507236 13.922918239619216 2 -2 1
94 1 2.280119618346341 0.4110140142233757 12.146907600885164 3 2 -4
519 1 2.5193353854226146 1.4114910147093584 9.859743982414514 2 -2 2
873 1 1.785038600194615 2.8848712756048314 12.139308615541232 -1 -1 -1
1363 1 2.068016696221687 4.096146198997535 9.765624853365075 -1 0 -2
561 1 0.29044343666499695 2.5245284401883183 10.252353412638236 1 1 1
860 1 0.05192918658595502 1.0076393867658993 12.54230271499511 0 3 0
1816 1 4.015605810737768 4.348913232305907 11.425516827458177 4 4 -1
731 1 4.863103266316436 3.147135483037397 9.402531149358001 0 -1 -1
1810 1 4.850654532754241 0.8607049984713089 9.691488132919233 3 1 3
1128 1 4.245831224988334 1.8882428518075907 11.732757313411815 1 3 -2
188 1 5.231047934116001 3.1604192164447498 13.564717640999817 4 2 2
1406 1 6.702277052339755 0.9990024939131814 11.308816715184914 4 0 1
792 1 6.222413469068088 3.545075069817841 11.474723686196066 2 -3 -1
1834 1 5.7683835557542364 0.9708139334069017 13.736475545883396 1 1 2
774 1 7.582708887300993 2.5311793528377473 13.301603122886032 1 0 -3
778 1 8.559464886152922 2.499068003501842 11.247010558430787 4 2 5
1928 1 10.521113614341985 1.5344212764128429 12.625999981256191 -1 0 -5
253 1 10.978295284864494 2.9620989920317955 10.510285894719113 1 5 3
1141 1 11.699210665511659 0.477141403947856 10.708964816630921 0 1 2
1321 1 10.12838681617215 4.075192652858545 12.56793043557726 -2 -1 2
696 1 4.339563846957345 13.835231785907164 4.834300587152732 1 -1 3
1072 1 6.662950428626784 13.772270559464097 4.177968098925134 0 5 -1
498 1 12.885257286140257 2.107429427047362 12.887076053910828 -4 2 1
336 1 15.016977642005534 1.3315428742511333 12.290216819776893 0 -4 1
1258 1 13.562661323211314 2.584880104143841 10.585334063922803 -4 0 1
276 1 14.988944191485825 3.8795424443621433 12.35346204236258 2 -2 1
1965 1 16.155694646894386 2.8840439961437436 10.482770696255129 -3 0 -3
1950 1 12.525203806222866 4.256503249008663 12.558142589359338 2 2 -2
70 1 18.03501380736068 4.350881391758406 9.641619747253776 3 3 -1
1820 1 18.4237239909268 1.9177870248971423 9.965127304462182 -1 2 -1
1917 1 17.80145570543878 1.5954781757053333 12.182235313193829 3 0 -1
123 1 19.255297012269487 3.523312394315403 11.534424486261459 3 0 -5
567 1 17.229101157398837 4.647927224272678 12.100127641018409 2 3 -1
1611 1 20.138242852256873 0.6431073553650966 11.61935013429805 -1 1 2
1861 1 18.77465018263254 3.172220955507885 14.066148937502932 -3 1 1
676 1 16.232372024926985 0.5640216752869809 10.467152043807763 -2 -3 3
788 1 19.280692016201687 0.6856977881765438 13.92456724977561 1 0 2
1919 1 27.493331196155776 10.310448515702388 9.800719277888655 4 -1 2
82 1 27.904434233976286 11.858527201163932 13.752442001111604 0 1 1
129 1 20.979068750593438 2.0836719855694175 9.770299615031442 -3 2 1
1103 1 24.285886496161343 0.40263495467140686 13.281818839648173 1 1 -1
550 1 21.166279289185606 2.5115703913353844 13.285048408292724 3 0 1
938 1 22.70436154079204 1.522191759751834 11.59497950928846 -2 -1 2
1638 1 23.791883807137204 3.0517788395313556 13.136002197843332 -1 -1 -3
1418 1 21.93588521025657 3.7217862465485942 11.507792642096417 -3 0 1
1513 1 24.532518590565772 3.184733260159451 10.607853763115886 1 1 4
1151 1 28.038385419550714 3.2404642726624187 12.483697640072887 -1 2 -4
3 1 24.841415410693504 0.4984081419829658 11.018975772403591 -2 2 2
1782 1 26.03068138202915 2.107918413826027 12.95790835781285 -2 4 2
279 1 26.943237829493192 1.2261423377619587 10.763959004339775 -1 -3 2
1529 1 26.768430231517186 3.642389918004809 10.575180341802593 -2 4 1
558 1 25.380757301459624 4.602233788805725 12.3116782594378 0 6 -2
442 1 28.405141313895356 12.190041471797768 11.353810627074715 1 -1 -3
1069 1 25.055774382478717 11.17066670909593 10.29820089373862 -1 1 0
1987 1 1.3099681360671107 8.939344085340357 9.455438964227895 3 3 -2
1538 1 1.798805213603793 6.614344287609145 9.632861266012236 -2 0 3
273 1 1.3561859701308547 5.050740840070984 11.887153143518898 0 -2 1
359 1 0.6640301849492802 7.138266102179421 11.637401767941283 1 2 1
265 1 3.2725785456223453 6.712402251110862 11.530659373690385 2 4 0
1571 1 2.469645109126029 6.5366253023256276 13.686211114038931 2 -1 -3
1463 1 1.5843853345947774 8.72913864486828 13.596407596978505 3 0 -3
838 1 2.596779872345215 9.104876891475897 11.358132202124441 0 -1 0
445 1 24.53635673503842 9.940752984937259 0.02247787872211854 -3 0 0
1094 1 7.136686928798495 4.911451492873753 13.214005873847453 -2 4 1
1598 1 5.786779356911025 6.124010905547883 11.237540542482432 2 2 -4
1612 1 4.317581759172272 8.039551505898354 13.090207977837606 2 0 2
1629 1 4.78603775646628 5.445410373424913 13.496016015823034 1 0 0
1971 1 6.8921812875453705 7.293298783316604 13.276323948107898 3 4 6
1679 1 7.709684414708732 8.098614444745323 10.861469751985915 -1 1 -2
786 1 5.216266422644385 8.586581308740007 10.879860961054044 -2 -2 5
1846 1 8.22816797319681 5.11217505489072 11.054931964552441 1 -2 1
866 1 10.80900844467257 5.370077105760622 10.423163620815588 1 -1 2
503 1 9.22411858030342 6.452282292616995 13.052867024705865 0 -5 1
923 1 10.03067569416756 7.988327723801165 10.78805817862679 5 -3 1
899 1 11.524674741694128 6.673601667033975 12.656689189119097 1 0 4
305 1 8.67969828355917 8.886355919079648 12.679126940028356 0 -1 0
1745 1 11.198869419993656 9.430675490849607 12.615126108288448 4 3 2
576 1 26.68506775134578 10.454648878107957 12.192914954736828 2 1 1
1662 1 13.072111938919868 4.926293528012006 10.439660925470227 1 -2 3
340 1 12.554595606726348 7.525662934308107 10.220031447413508 -1 0 -2
16 1 15.63196694602807 5.195726060659774 10.487983777381265 -2 0 -1