LAMMPS data file via write_data, version 29 Oct 2020, timestep = 300000

2048 atoms
1 atom types

-0.6728995839946155 29.02489958398938 xlo xhi
-0.6728995839946155 29.02489958398938 ylo yhi
-0.6728995839946155 29.02489958398938 zlo zhi

Masses

1 58.933

Atoms # atomic

89 1 2.838507400732047 1.7025910669034565 4.34345833451036 -1 0 -1
1136 1 1.3750973618279891 3.7247927811783406 1.5909596482955668 -1 -1 -1
1548 1 3.0994413002609793 2.7012962885458776 0.4286012414297651 1 0 1
1574 1 -0.34239116134648456 1.8601960523495356 0.9030504220899906 0 1 -1
1465 1 26.948098716386724 5.013051773895395 3.5553206093764684 -1 3 0
1839 1 0.20901682705656066 1.232903379348237 4.156855805670658 0 2 1
358 1 6.12943955816751 13.93960438316258 4.735139469697884 -1 -2 2
1045 1 4.794530486384165 1.274778231811876 2.744774101715615 -2 3 0
385 1 6.850254146357017 0.8828700342571516 1.844994893489086 1 2 2
91 1 14.276328215037143 -0.03095183253745515 6.403613563835232 0 -1 0
1363 1 6.59567211488948 2.4324276894920396 -0.18360163578317673 -1 0 -2
1134 1 27.94809977556278 10.2131606341428 13.744612191007699 -1 -3 -5
1015 1 2.0559940286651237 5.2722371052301815 -0.6525072487299695 2 -3 5
1994 1 19.234825606818212 3.7762373526111297 13.976786780452299 2 1 -1
1207 1 4.749740039358662 0.8170423261333477 -0.208593118554529 5 0 -2
261 1 8.406168778742337 3.105910209637301 2.2923398070472474 -3 1 4
680 1 9.150657233719075 1.1895606462346988 3.619965336553464 2 1 -1
736 1 19.071007793526498 9.384602548098583 13.443621632096942 2 -1 2
1500 1 21.799246217463782 -0.5267772789753167 4.0937209039585625 -2 0 1
1611 1 10.988335745635318 2.4029098972876057 0.7133845221392772 0 2 2
1039 1 8.482021047246299 1.290541526328058 0.6228065581664701 -3 6 1
1241 1 10.020857136872628 3.4933514709287357 5.323457808110393 3 2 -3
1458 1 15.045245595470659 0.9249564607170442 1.9495011041537338 -1 3 1
1298 1 14.470856410057982 3.0378223655231484 0.6694680619031448 2 0 -2
618 1 17.617991554916408 4.236133255009169 1.3777163362526 -3 -1 2
1054 1 12.902602046139902 0.7764794465316414 1.6138875647304296 0 0 2
184 1 16.376596849345447 2.497960073831603 2.682221316648618 4 1 -3
1609 1 13.605647468556109 2.597363659577546 3.0030943843438433 3 2 5
1169 1 24.911645101485668 9.058756260973915 -0.4569011111108501 -2 2 2
1405 1 15.755392529634724 1.454801963709516 -0.3978860573759801 0 -1 0
1962 1 19.321738371393835 2.841421117392068 2.5688961250910984 -1 -2 -1
71 1 20.219851780759043 0.7370370117954761 3.2309404314630403 -2 1 1
430 1 27.450586473037042 0.3545715506029816 4.0274827895090075 -2 5 1
1502 1 19.422444417958985 5.217447017636581 3.070400231623244 4 2 2
747 1 21.008106368650886 2.606529870989093 1.146355401579708 -1 0 0
480 1 28.625623651565945 0.7621157251199371 10.78507596214895 0 -2 -1
158 1 19.784399033261252 4.4747764404624375 0.18648649348242363 1 0 -2
1944 1 23.951219686489296 -0.12113607183565711 9.409091701389219 3 2 -3
628 1 23.30844275096267 1.901564667251865 2.8181291125078594 0 0 -2
197 1 24.793263311425648 0.8655310003185028 1.3353557707806596 -1 -1 -4
1518 1 3.3491001290801474 -0.6256531853969847 3.21271424132492 -1 0 0
1484 1 22.143115491212292 0.5391422399762229 1.1938028876825608 -2 2 -3
1716 1 24.222165366930632 4.03393342550592 3.3871045292559705 1 2 3
1835 1 24.611587743702806 4.653342182749228 0.8598802020142324 2 2 2
1732 1 21.423652649988917 2.758994696506838 3.932261962440829 -1 2 0
545 1 26.685286678073176 1.1094682593182914 13.424396359971073 -1 2 -1
1954 1 25.91003442347499 2.7955847088668473 1.2183638464976674 0 -2 2
1497 1 -0.40590953829966747 13.808019718727216 9.865196242625789 -2 0 0
876 1 27.276964520001464 0.43952607250113274 1.256723667937951 -2 1 -2
1269 1 28.66994149672378 4.326518026491413 1.7937997226878224 -4 -1 -1
1253 1 27.948757887941063 2.2262247218042854 2.7724547002930677 -1 1 -2
1319 1 0.4319211228574722 3.6590904625479377 3.788857859408104 4 1 2
1189 1 20.638951213822985 12.80100418564592 0.8444827211803276 0 -1 1
205 1 1.7564480265397662 0.937971509551025 1.930546677910952 -1 0 1
1558 1 1.1372570599421488 6.42980244666371 1.534377153226592 1 3 2
1603 1 3.5771736487072703 5.670607213292835 1.258943037527772 -1 1 0
730 1 12.005614877310245 9.30582821505736 12.899929129818494 0 -1 1
456 1 0.225474392669742 8.717225361784887 2.065145865124678 -1 -2 3
1969 1 28.83704259184713 9.598919289047277 3.9912322053974396 -1 2 1
39 1 12.76057816112515 14.105215607107166 0.9230235237563598 -4 -2 1
70 1 3.410294723064525 3.4481030972356024 2.6520617652538547 3 3 -1
631 1 3.2620989435741485 7.8953257000398445 -0.16547915860180573 3 1 3
1681 1 4.27164679635261 5.377079398359537 3.5996628234968693 1 -1 0
1567 1 5.395496188013179 3.274778252142419 1.655423269266315 3 0 0
1566 1 6.138175875666715 5.264273670908272 2.1047985205637345 -1 2 1
1447 1 8.5030894661541 5.9176605671306355 0.10727389624090433 3 0 -3
2039 1 6.6852231611281345 4.743230264961546 -0.3686276140647426 2 0 6
629 1 7.096623249453442 7.243026643561161 1.5938061764958356 0 3 0
1162 1 4.454019396418292 4.18750420583175 -0.41951224809861437 1 0 -2
444 1 7.749119299397869 8.709409739705864 0.0743703090312392 2 -3 -1
1079 1 8.983127220636693 5.6764184103127855 2.713947363548448 0 -2 2
676 1 9.390232821622861 3.584409947454745 0.23677242816095168 0 -2 1
1460 1 0.07186831675160654 4.395269051186823 -0.4430018881224704 1 1 3
547 1 10.624695330430876 5.818383476158704 0.6022994386771146 -3 1 -1
1304 1 11.545765321366812 7.120899097816961 2.452628851870092 -1 -3 3
1041 1 12.056246014953519 9.809882598095802 3.252931846921767 -2 3 1
398 1 9.317886251383054 7.7368871899321565 3.62553223584446 0 -3 0
437 1 10.509624380095437 4.083923159435175 2.6565969865460954 0 0 -1
1951 1 1.200819182662434 0.08053917078492356 11.875361461181726 3 2 -1
972 1 12.5233233133126 4.713073413697991 2.07473508809102 -2 2 3
133 1 11.858932436700146 7.8309264803976415 0.21102350831685124 -4 0 -2
661 1 14.300469224171449 8.219209023556822 1.6859114004559634 -2 2 -1
981 1 13.772208669752334 5.421582194495726 3.9681365625211438 -2 1 -1
2023 1 13.244875321819864 6.4131734660901465 0.8735361021877714 0 2 -1
1901 1 15.304913980548157 5.768168626193525 0.22082987911073104 -2 -3 1
966 1 15.168572850272856 4.71570682780309 2.2884079882885553 -1 -2 4
257 1 15.730239134291077 6.913977486407892 2.9524940476532793 -1 2 -1
1689 1 19.55384209218098 0.17170735982434382 10.55412911009674 1 2 -3
207 1 22.635000447147434 -0.08080280849076849 12.426385270131366 -4 -2 -1
1356 1 18.01335997117718 8.648479770193909 2.6185969044785105 -1 1 2
793 1 17.682279738998943 6.4706428670820015 1.495435550219045 3 -1 3
1771 1 20.828159419906875 6.273951180083587 1.4623718601630276 -2 0 7
710 1 21.35091536405735 8.581245234237716 1.8159100869402152 0 1 2
450 1 19.34359032591572 8.03971126904495 -0.24986126687197696 -1 -2 -1
1399 1 19.106495660030852 10.499307696605829 4.28689351059031 -3 0 -1
1908 1 17.315332054462516 4.501407751967359 3.7847894577239076 1 3 0
917 1 19.98399407046079 7.611351798489633 3.649034501638111 1 -1 1
1946 1 13.790770273802286 -0.6567223810615062 11.976026682501535 -1 2 2
1100 1 22.319338405603027 4.439564300837186 1.8426777251165403 -2 3 -2
1691 1 23.089538939093075 6.6618286227053245 2.7037400391664534 -1 3 3
734 1 23.263417224365973 6.6574054508678735 0.49542681105648545 4 -3 1
677 1 23.85612118911216 8.882124503138371 3.3188495329176724 -3 -3 2
918 1 23.427695773929074 9.687102204630346 1.3759821335586286 -2 0 1
585 1 19.727347294263915 13.796119451692668 12.465881094944642 1 -4 -1
280 1 2.1184260675768467 13.542226601118655 11.602629620026729 0 2 0
1480 1 -0.20370055974681933 5.906893369635157 3.379473512654042 0 1 1
1463 1 27.70487004777611 9.831855191299866 1.3959351275139076 2 0 -2
200 1 28.292328152058047 6.488950570821566 1.270447821514263 -4 -2 1
276 1 25.841840318364063 8.744065570569488 2.06733398500993 -1 -2 0
672 1 25.702696399156963 6.393645363674349 1.8199522614704566 -1 4 -2
374 1 12.425021745142727 4.350881379051198 -0.16261910531076307 -1 0 0
52 1 13.89682619751982 0.4072331893818817 -0.46059288813861776 -3 -1 -1
251 1 27.37880238576247 7.845502797024739 -0.13108146087404748 1 0 -1
28 1 1.8715609188289521 13.11000479316129 1.5286868439526033 -2 -1 0
1059 1 2.4413281840853376 8.63625439450875 2.5648729867658684 -2 0 1
1148 1 0.7365940244687377 10.953661219430764 2.1129454019290623 -3 1 -1
837 1 -0.5592412439077751 13.717341780200602 1.9479485074743903 3 1 -4
199 1 1.0455886388848652 12.899251747851201 3.2039828280121316 2 -3 0
1016 1 3.642497780390829 10.490139660402816 1.5006744147482438 -1 3 2
1860 1 2.744747720737562 10.757661415955559 3.6553845496954223 -3 -1 1
1223 1 -0.3954153369183015 12.755688910122053 5.182620087555455 0 1 0
1738 1 1.7437421738464076 9.587746944288982 0.12227766210373936 1 3 -1
970 1 10.309713059805892 12.455862106043458 6.334821129640064 -2 0 -3
1435 1 4.828658119983719 7.984666135414969 2.5166236693750714 -1 -2 4
324 1 5.233500157042392 10.514352206155625 3.220596391875581 -1 3 1
881 1 5.364953701367471 9.055956965099703 0.44985618471903455 1 3 3
732 1 7.0549705982681745 9.609010770625895 2.2032826874784415 0 -2 1
1651 1 6.267897854374757 9.123483254083348 5.022057847214295 1 1 -2
1293 1 26.6161434327504 -0.5936411188321309 9.19476290713029 0 2 1
1083 1 9.088902582613418 9.904539195700039 5.377176112905954 3 -2 1
692 1 6.54639867880897 12.544107807689668 2.786869015664161 1 -4 -2
1242 1 11.083522243973574 11.709676831154416 1.9472442605655496 1 0 2
1809 1 9.684411489741253 7.924657161638731 1.1733575545860808 0 2 1
312 1 9.52190927552709 9.838012138212827 2.4883571310118424 0 -1 -2
1735 1 10.752849684948947 9.937765137292013 0.36683439669348794 -1 0 3
1966 1 8.604520102815094 11.034791533676492 0.7963886958186195 -4 1 -3
683 1 24.259531272770225 -0.21540449945801432 3.221804054362327 0 2 0
40 1 14.437606207622858 11.088506097300113 3.591437072949124 2 3 -2
984 1 14.26522307587907 9.123041790119672 -0.4264035818454649 0 0 0
1431 1 13.407526712095898 10.615713289023223 1.2946107021499724 0 1 0
1173 1 14.855403831194101 13.031094601597326 2.390298928024315 2 -3 -2
1450 1 2.154511454342922 13.1974601646175 6.692597461389729 0 -4 -2
1600 1 16.802916587359057 11.224219488924726 3.4186717175368324 -1 -1 -1
899 1 12.660764629035626 12.7568489640494 2.9919192883910113 1 -2 4
1595 1 16.89870601380695 12.068502152675013 0.07822260846960594 0 0 2
591 1 17.513356707969834 12.2848364986831 5.219649117300219 -1 1 -2
1779 1 18.200386180086262 10.644532328152271 1.4847392711058762 0 0 3
816 1 20.74202813731533 10.14326656943846 -0.009887356502884304 -1 -4 0
729 1 20.90519670167391 13.321563908561988 3.1537864736876835 -3 -1 1
38 1 26.76597508012142 7.197640527394528 14.11772403922908 0 -2 -1
575 1 17.227975143556797 9.557184141550852 4.8517514105839785 3 1 2
1176 1 16.549793647231915 8.445533510994306 13.818756239974224 -3 0 1
896 1 18.522732193406384 12.877048359890876 2.8054678826693658 2 -1 1
1510 1 5.435870845496392 6.811105040765252 0.04505380519287838 1 -5 0
159 1 23.071440523928693 12.01741050054191 1.1399172317165243 1 0 0
1613 1 22.33932348273325 11.826428633158736 4.980723701752079 1 1 -1
1955 1 20.89828665016463 10.862207867086358 2.7578372420143715 0 -3 3
1194 1 16.563352662998177 11.119832386161661 13.945544960646066 0 2 -4
322 1 23.743756400563562 11.633274871344366 3.119865741264058 3 1 -1
934 1 10.769060392353596 -0.06469887924616513 0.6008152713131574 -2 0 2
726 1 18.347975744702644 2.367531256872026 0.2332003579393943 2 3 0
172 1 25.33945234594397 13.599326410236003 1.7863598869769302 -1 -3 2
655 1 25.525370531157954 10.843904630318944 1.0346784139356706 1 0 0
287 1 27.86896339508433 11.761705199604572 2.5331219362738406 -2 -3 2
1973 1 25.445906862087064 9.99902784933404 4.0230894714639 0 2 2
1989 1 27.417522726485814 11.250189669122564 4.976238362851202 0 1 1
960 1 27.12692463930017 12.894830355077575 0.7441972708201026 4 -1 -2
621 1 27.398924256457533 13.710557481007156 3.7756534959929224 3 -1 -1
978 1 8.650870282147404 0.8934296813553393 12.747473297159654 2 1 -2
933 1 -0.2751395439771808 0.10764248666377163 6.316288663742759 0 2 1
1815 1 24.734625709928025 12.665048273918128 12.943869220656609 1 2 -2
1680 1 0.2408101971466915 -0.6209911906757936 1.4952035615061057 0 -1 3
593 1 0.7674586658539335 3.586582024997604 8.699201239865939 -2 -3 2
1721 1 25.479181824940284 10.277585739636919 13.55700287685021 0 -1 3
443 1 1.9783266081928694 0.661045464581093 7.489832749514399 3 1 2
1451 1 0.932502592809171 2.8076359324414395 6.253904793403193 0 0 1
1150 1 3.182786935354431 2.8877374964588496 6.656518422723506 1 0 0
1545 1 6.713959084469664 3.5764507993311403 4.300489263671611 1 3 0
1757 1 4.633160060414743 3.2626786853351097 4.8493725622505925 2 1 0
1755 1 6.50255005036052 -0.29253697388612543 7.308062328659312 6 1 2
1171 1 14.445365743226025 13.746787911951783 7.202249053666262 2 -2 3
1442 1 4.379032046604748 1.0944065337833973 7.501582836745385 -4 1 2
1213 1 6.311899406853679 2.0081511071267393 6.551678457029857 3 -1 -1
1292 1 7.5942238047141135 3.9289283405145206 6.748991183598805 -2 0 1
1805 1 8.079876746025267 1.4777221137210073 8.606144805120714 3 -1 3
1794 1 6.557310892342727 1.1885088165766307 4.227396482613499 0 0 -3
929 1 10.040455946813157 -0.3041531686404159 5.160157407756124 -1 -1 2
566 1 8.388153856924294 1.2628307743560103 6.245410081617331 0 -1 -2
1496 1 11.400179651829859 2.250675621414294 3.4795198381093435 2 -2 1
516 1 23.718913247597598 2.5753877772024385 0.03542730921610615 -2 -1 2
1569 1 9.968273352457706 2.834299152237131 8.011797252491736 4 2 -1
294 1 9.994805659136716 0.35496593278309363 7.811606692487194 1 -1 1
1455 1 10.835038515038155 5.63264637065636 6.887691919659007 2 0 0
190 1 11.959482060940235 2.0987126619209526 6.008026746959149 1 0 -1
1330 1 15.205408334987753 3.307107339877645 4.379917520339664 -2 0 -1
72 1 28.97787737302078 5.169385764803019 13.155843246726654 0 0 -4
479 1 12.659700297329858 0.21884551230119353 4.785202600524162 1 1 0
1852 1 16.569447402142792 0.7108454662807715 6.530342209125658 -2 1 4
1773 1 14.430704429740151 4.9420809965034875 6.895367393693334 -1 0 1
1452 1 14.281457190673983 2.0600605523769833 6.138697402651309 0 0 -2
556 1 1.1713588028951065 4.033905167161837 13.801246756012372 1 1 0
2043 1 15.032914436969616 2.0862180449589496 8.479046744080224 2 3 0
330 1 15.376569994922852 0.7327054919437779 4.266124395914625 -1 -1 -1
663 1 18.37013679817401 2.555223649685212 4.957233023813838 -1 0 2
670 1 20.930709261539313 0.7301440404140334 8.41655633726585 -1 2 1
756 1 17.278361543361378 1.2128278573433653 9.378995207412219 2 1 1
328 1 17.987652225118943 0.055837094159761125 4.75742732369387 -3 -4 -1
1359 1 16.479746341992296 3.695617316363273 6.400070458953907 1 -1 1
701 1 8.479815543985364 -0.5294244930615672 10.615549479705077 -1 1 0
1854 1 18.870356444078332 0.08398763813172583 7.374024785143984 -1 1 -1
1232 1 20.384989091707283 2.6295490682753817 6.031742106779709 1 2 -2
753 1 20.302228023476268 -0.22061116786367457 5.511157566964307 0 3 1
1437 1 18.00056578665766 2.2918474981096275 7.277717059550923 0 1 1
1583 1 23.719220339601712 1.9709030100772167 4.953937085270331 2 1 2
644 1 6.464130788308911 0.04805921621142184 13.588350727703887 1 -2 1
569 1 22.54444341698251 2.31572859836037 7.671396540322798 1 -5 1
83 1 22.500474719091564 3.96617647907361 5.766895834397946 0 -1 0
1393 1 25.42258057472823 0.41742982260258277 5.177649413305159 -4 0 0
1698 1 19.918884289910544 2.7514599594155866 8.64172428108146 -1 0 2
494 1 4.191507740822137 12.514420914943468 0.3265523034274739 -1 0 0
1520 1 26.805142251016854 0.954801805294281 7.189327511082736 0 0 1
1976 1 27.709582767101594 2.744211389428758 4.9884002277809785 1 0 3
880 1 25.75500773108164 2.5679972921208427 3.6263615647466025 -4 -2 -2
1919 1 10.830642537865392 1.5374601699656298 13.176003797031834 4 1 2
599 1 21.70132851982639 12.364015074693695 12.51863103652536 -2 -3 -1
454 1 28.956714854024675 1.4431605430326768 8.170537262981009 1 1 -1
1911 1 24.64307198793921 1.5962669613186073 7.336632529883666 0 -2 0
1524 1 28.947691687298693 4.430581353034872 5.8952995138207775 -2 3 3
1821 1 25.310037880920788 6.921319033508946 3.924656275459279 2 3 -1
738 1 26.997203180854008 3.196785152260816 7.728513310124189 -2 -3 2
1930 1 25.11158059241385 3.489986127575543 6.272903652382657 1 2 -5
349 1 2.093726755728261 6.654421886726909 3.6879598737671007 0 -1 0
1127 1 28.49172236584684 4.968486217175891 8.361913372832483 1 0 0
1152 1 1.962875532174421 6.964919145814958 5.833615253582142 2 2 1
333 1 2.536357658288359 4.322619035901378 4.530203427373175 2 -4 1
844 1 2.6733337463217475 7.890771989539077 7.811626165755158 2 -1 1
671 1 1.350511092668318 4.957298399050189 6.863209461100346 3 1 -2
711 1 4.602209485512448 9.377452032185326 9.153308904701811 3 1 2
558 1 1.4098938907547165 8.779417147361448 4.60629499901835 1 3 1
1586 1 0.21519636912461237 7.669616440491591 7.826359158587088 2 0 1
1554 1 4.066200447535757 7.641713668752985 4.506576554954974 -1 -1 -2
1950 1 3.0967957409498608 10.12652883268309 5.995859647098895 2 2 -3
667 1 3.8048608184685353 5.5260909998213394 6.4120191789698895 6 2 -3
741 1 6.093343982437512 5.36483923124248 5.87761558488633 -2 -1 0
1968 1 5.119605524735394 7.86134317430604 6.703374684083467 -3 1 1
1576 1 6.545193717544581 6.713289596496554 3.8166488274185113 0 0 2
1550 1 6.172420288312388 5.113002396461814 8.450494418243284 -1 -1 0
137 1 7.190168745727989 9.136108393360084 7.078810595579955 1 0 0
1768 1 6.65767522533352 7.367164083624804 8.569762989863566 1 2 -3
1594 1 10.365467336079211 6.476162513915316 9.086470211117097 0 1 0
395 1 8.278115342279522 5.134823132654362 4.832233512927281 2 -2 -2
2005 1 8.011344210404259 7.336431329674111 5.591825316081344 -1 -2 -1
1618 1 11.937907060478564 7.927358084655108 7.4685573253748 0 4 -1
1008 1 11.029514219768764 5.992670768448881 4.43071786990783 0 0 1
1115 1 12.023295880881744 11.010199699770451 5.097085638120706 1 1 1
1662 1 14.061223569164607 8.282969169581142 8.161073901658957 0 -1 3
1526 1 8.28553912544487 6.013256557869953 7.679638428427566 2 1 0
1638 1 13.174406814949037 7.624457273131926 3.8888852936799605 -1 1 -1
1476 1 11.266867494320145 8.56879194740787 4.962047796597181 4 2 2
704 1 9.698738398492559 8.272541197832885 7.302776076017103 -1 2 -1
1859 1 12.533529615494825 3.8340647534638146 4.949908964551345 0 3 1
1120 1 15.957263554823433 5.823667718218321 5.149674698647047 2 3 0
362 1 13.206370064871539 6.642663493160239 6.057064778379054 0 1 -2
491 1 17.790510665705575 6.7697234750413395 4.453653857506792 -1 2 1
731 1 15.737274731102067 6.615742389023681 8.097578249150027 -1 -1 1
1767 1 15.565066875714114 7.840960334123167 6.082321996208049 -1 3 -1
128 1 15.57853269542588 9.202770119225995 9.951614163100315 -1 2 0
1899 1 18.89608016508899 4.521442119700532 6.134685963072682 2 2 2
1893 1 17.135527510187046 4.135641426146572 8.643984159930216 -3 1 2
167 1 16.364169851845467 8.677079257783246 7.954844218301716 -1 0 -1
455 1 17.988888220628674 7.070078512202962 6.980009594215073 1 2 0
380 1 19.553486986277242 4.654365840947562 9.600542795711238 1 1 -2
1198 1 19.666160627237986 8.667951092548476 5.524555128831521 -1 4 0
466 1 21.56282807959372 8.081329151867081 7.322630660891047 -3 -1 2
1708 1 20.811168759087643 6.73332645949245 11.356246045305593 -4 2 0
1671 1 17.637261499297814 7.1134720309307715 9.545102257139794 0 -4 0
503 1 21.57380632584114 9.05977804886615 4.131414612832575 0 -4 0
1900 1 21.899905342400352 3.6181274070745815 9.630074388081066 0 1 -2
1280 1 20.31565618308222 6.261765874672806 6.110384607575114 -1 -1 -4
1892 1 21.045581777841115 4.4632351239905415 7.650922694873977 -1 -2 2
1368 1 21.5871443110033 5.48251392602481 4.080267559672732 -2 0 0
570 1 23.419198869525616 10.390617919685818 8.347094603489614 -3 -2 0
401 1 22.731169245951378 7.186052615812699 5.126904629266239 -1 -1 -2
180 1 22.094328300589858 5.965332566369376 9.311513692890399 0 2 0
1669 1 23.973910096340177 5.52935036479785 6.182337905712431 1 0 5
1440 1 20.05102688685413 6.866106367223701 9.069927563742752 -2 2 3
1154 1 28.735913255211877 6.602351055895862 5.557784728179306 0 1 0
1766 1 27.362977674806913 7.407337988673188 3.304479971892061 1 1 1
919 1 27.432527379283492 9.048545612519415 5.857236084561702 1 0 1
411 1 26.68648093989531 5.4315715932860895 6.251136418766489 3 2 1
788 1 25.141467322502905 7.93808482251473 5.84283548423685 1 1 2
1414 1 27.653857746766654 7.337276109518331 7.329249190866399 1 -4 1
1309 1 23.990619216756393 7.367162019418215 8.004358014423998 -2 -1 1
1075 1 25.95715440087986 5.796351254376145 8.337765892659675 0 0 -4
1222 1 2.020994105610511 13.745955966304313 9.307145394811814 -1 1 1
1380 1 -0.11478519145214816 9.09662147947757 6.087853256254449 4 1 0
130 1 2.6445986360622973 11.018250824178567 8.122754860445742 3 1 -1
95 1 1.3917060641450125 11.299778329736588 5.627295888180838 3 4 2
923 1 0.06352964649843584 12.86796770577978 7.7146049427735335 3 -3 3
534 1 4.504557608812044 12.39390674489599 5.114093821041873 2 2 -2
373 1 0.16996148528087573 9.908670615762116 8.392286639474175 0 1 0
1857 1 22.639708857727356 -0.2849417992624721 7.384514127340271 -4 0 2
298 1 8.85280217504381 10.802341581125713 7.547788522372434 1 -1 0
623 1 5.050847801389867 10.465640447173328 7.045757525291011 -1 1 1
1353 1 6.903397553266408 11.68206981507093 5.314748772425658 0 0 4
1623 1 8.645816442164852 11.950323710221188 3.5728894937546727 0 1 0
1626 1 6.615182030780984 11.778493171790567 8.26293001282264 1 -1 0
1086 1 3.4116094897452838 5.838058934032859 12.874071086190629 1 0 -3
722 1 4.253999480409732 12.741508190088997 7.839874948928223 0 1 4
214 1 10.549642822888766 12.242337448808362 4.161128999294653 1 -5 -2
1254 1 10.769002525203467 9.50790172717252 9.191492554743501 -2 2 1
1580 1 13.313634042278396 9.261490894239317 5.903782715612297 1 0 3
1343 1 11.035121142109606 10.234724850729647 7.096021378648793 -4 -2 -2
616 1 10.83353327342787 11.798442702846932 9.071731359481406 -2 5 2
1912 1 12.792478401569364 11.983332806541645 7.048418784611646 2 1 0
1132 1 12.925835435763803 9.912457881100513 9.542799698410171 -2 0 -4
1953 1 15.837525720342255 9.734819509557315 1.1555503206991133 1 1 -2
1641 1 15.270386343096352 8.935737093272458 3.8596895336602133 0 2 2
458 1 14.588176953950484 10.11804161762668 13.497976017212634 -1 1 -1
1957 1 15.137033434279681 12.810948571766561 4.929521455164559 1 1 3
695 1 14.592010102667365 13.175183540561333 9.303459146634744 -1 2 0
1317 1 15.590838067318577 10.340564627613178 6.308529402100743 -1 5 2
352 1 14.81409912421767 10.867408048006203 8.516190274894345 -1 3 1
1999 1 16.150029503051115 12.741851253101865 7.154437938846102 -1 2 -1
1538 1 6.783598596230124 2.4058705338538204 13.479513568499785 -1 -1 2
397 1 19.6556143513317 11.476964118134836 9.32015668291695 0 -2 -1
792 1 17.128431236876423 11.759035340444912 9.028432563539333 1 -4 1
504 1 18.33832373086812 10.419893705501732 7.014022980981601 0 0 -1
559 1 19.875966158687007 12.212432689633546 6.128067809794415 -1 1 1
436 1 18.175311279462534 13.47870369149295 7.977211746437785 -1 1 -4
963 1 20.66175374471255 13.923510226442819 8.164120881671607 3 -4 -1
1036 1 28.915205602020578 9.991803241837317 11.740421875237864 -1 -3 1
743 1 21.223149879540372 10.340964850020642 6.6654093361447915 2 0 0
2011 1 23.887825526746184 10.005816352723128 10.700262406870023 3 -2 2
598 1 24.267704990487047 13.70398052070546 5.675978611858331 3 -3 0
1307 1 25.49315830548732 12.468451652419262 3.9193543998160223 -2 2 -2
1360 1 23.590467534244908 9.596356327123619 5.7104915923772595 2 1 1
1516 1 22.303241247121754 12.513130876942258 7.710563140288771 -4 1 -1
1398 1 17.094257795782674 14.147932102071914 2.8594267313444317 1 2 0
2012 1 25.586813133363705 9.395495792006429 7.655694951228476 -1 1 -1
1184 1 18.036160940297478 5.847880309010931 13.569249123099071 1 -3 3
834 1 27.896817377198715 8.919547396346116 9.076815719262784 0 2 -4
64 1 27.69573797174607 10.989658931820305 7.461436550065157 2 -2 -1
1575 1 27.135182339552365 13.345036718245277 6.073205232139946 -2 2 2
1303 1 24.910079969376007 11.321170570528592 6.2994283069498 -1 2 -2
1262 1 25.478858271054442 11.380367933911467 9.148479460381985 -1 3 0
48 1 28.712108651432118 2.771964147787627 10.04340919925527 -3 -1 -3
1251 1 1.6548199043156546 1.2559760108376288 9.779065898747074 -3 0 -2
1752 1 3.8787806824262825 0.11372019992164795 11.763812691110035 -1 -1 2
478 1 -0.5224254796126652 3.165349359597516 12.337285659820106 -1 0 1
597 1 3.2265287289139164 4.675711118409259 8.557677445355443 -1 -1 -1
1814 1 3.5217197247982197 -0.05616914387211469 9.51269484034698 -3 0 -1
1276 1 23.686563988379902 14.089387357804078 -0.04552492248607787 1 -2 2
60 1 2.3495726412019557 2.6077420404496254 12.44555641527728 1 0 -2
1688 1 5.8957877192387595 0.6093494129693291 9.564501591749448 1 0 -2
1777 1 5.6540799154829084 1.4356197221489628 11.79138832586283 -1 -1 0
1875 1 3.761985989820122 2.2215875245121017 10.113379798615744 3 2 0
1665 1 8.309515727821314 4.166157933486355 9.220484390189704 -5 -1 1
460 1 6.463070021510497 3.961118298586813 10.823502300921463 -1 0 1
238 1 4.759706548063271 5.016335147938389 10.345189477546855 -1 -1 -2
206 1 7.719992806752355 2.1472614575856395 10.924810939349305 2 2 0
351 1 26.998908207283833 13.399240764167498 8.209377538577623 3 -1 0
112 1 -0.0584635312058005 11.461867359685883 0.13446688241747984 1 -2 -1
1630 1 9.933219497133845 1.452742232361024 10.272077754342497 2 -5 0
372 1 10.548276451633765 3.0934837611755017 11.3398507504059 -1 3 1
1791 1 21.952539014535546 14.031526012922875 5.7601508733550775 -1 1 -1
1294 1 12.142602018218406 0.9478942204262297 8.914638135737519 -3 -1 3
323 1 10.8209714088087 -0.5356709880095802 2.7086738928439518 3 0 0
1206 1 14.271708167051349 0.04398092935488551 9.425187831396622 -2 -4 -3
904 1 6.49259237677152 13.859450318512833 0.7589548890516482 -1 -2 2
143 1 12.44620535928392 3.040679938628243 9.993228263124786 1 0 -3
1221 1 13.03713678368307 1.1436932249262999 13.300370401526235 -3 -2 3
1126 1 14.275180495151632 1.6577924503982544 11.329341065373645 -3 -1 -3
92 1 12.656975882572125 3.4933028103363144 7.480502942854468 -2 1 -2
366 1 14.028660825559164 4.654919659422202 12.14506835364401 -2 -2 0
613 1 21.499142550505894 1.7293790154679005 10.650139914978558 -1 0 -4
1515 1 16.104714158660578 0.8525016001229688 12.658447398053937 1 -1 1
987 1 19.22724347566981 2.37387781693627 10.970404018785674 0 1 -2
445 1 17.238142547534032 3.5917323652439075 12.802909815860344 -2 -1 0
141 1 15.091007873870502 2.951860481007675 14.095827571481276 -2 -1 1
1001 1 20.64071379814788 4.165510808539914 11.612188437203264 -1 -4 -2
431 1 16.121921452324848 2.983242113533033 10.841866554185238 0 2 -2
1066 1 16.49811110573968 -0.4235205138492012 10.756717381376069 -1 2 0
999 1 4.290455862189605 13.948388614401557 10.696689996243892 -2 0 0
1305 1 23.762066807804743 2.260939674256271 9.602369895455988 1 1 -2
1555 1 27.238114138456623 5.170136161834808 -0.1350916404643916 -1 -2 0
1736 1 24.848554016111905 0.8070376335210057 11.622044136503234 1 1 -1
720 1 22.387673743815242 3.002411084643986 12.486524422485369 2 0 3
1537 1 24.80229908392483 3.013265035201446 13.355821555528728 0 2 -1
193 1 19.17108689239243 13.952382135937714 10.054473186632107 -1 0 0
1434 1 8.635714254728832 13.01260876895105 8.340224098211698 -1 -1 3
463 1 24.85178442367482 3.6514572974863926 10.980149843001447 -2 -2 -2
590 1 26.493725046438165 1.814113298421487 9.38757726906292 -2 0 1
1225 1 -0.6558709279649979 0.7023827509259357 13.427751353337596 -2 -3 -2
1832 1 26.9330402421379 2.4662358331288954 11.61376880957959 2 -1 -1
1709 1 6.460560034929454 13.650077372443207 7.220822347239572 1 0 4
1508 1 23.221418228896518 10.766604908335431 12.578486298087713 -2 2 3
1798 1 2.208666478892128 8.414070726679196 12.599648119612862 -2 -1 -4
1347 1 -0.5531663930914172 4.814479560196094 10.657853328761435 4 -1 1
845 1 4.457445768654277 6.561844057757129 8.74134127178656 0 1 0
1885 1 2.1159648666661286 5.056144742476218 11.376629564883624 2 0 0
1471 1 0.5991038970565945 6.722190886723048 12.358533296790498 4 1 2
406 1 2.7059712190221377 7.4418423149388175 10.090514465451017 -3 0 0
922 1 0.6382298837635096 6.200851775281464 9.37602031814711 1 -2 -2
1877 1 2.4118350498344574 9.865735636421466 10.438716237122852 -1 5 0
255 1 0.1494001276095337 8.327895588691861 10.571565504495405 3 -4 -3
1568 1 4.548613141381921 7.85307600394084 13.452311286998317 3 3 -1
1811 1 5.5189567832971 2.6943445367496697 8.472018514465463 1 0 3
56 1 6.746778620803624 9.561524153082624 9.77953386173051 0 -2 0
1784 1 7.220874785369475 6.338103599989948 10.419511858768743 -2 0 1
1960 1 7.302827869095655 9.317553009294786 12.04154173034515 -2 -1 3
1104 1 5.100023090477299 7.9722996211360595 11.090747774164736 1 1 2
1660 1 7.687049561809712 6.925011695595372 12.614460115108933 4 2 0
1801 1 5.955795981489671 5.5424354360702415 12.309737682345826 0 0 -2
2028 1 12.238724090574541 3.427703088968121 13.00854536092891 -1 0 -3
162 1 11.954912730214224 4.8710685941641225 10.86587674292544 -3 1 1
592 1 8.211005955873084 4.3929662273539725 12.099541722540913 0 2 1
910 1 8.592104741523187 8.237057617092237 9.908299179717933 0 0 0
1540 1 9.525625083169485 5.990209719779764 11.017226880629897 1 0 1
1483 1 10.46075751942693 5.42192415153026 12.973068368930276 3 3 3
867 1 12.532430122024605 5.808679613826152 8.687563371604439 1 -1 -1
1684 1 9.812250858551327 7.928625643190143 12.33303172791335 0 -1 0
1937 1 12.002392667328728 13.901429237424397 10.875651909288173 0 1 1
1979 1 12.333763842130171 6.740413275797933 12.532130937703373 -2 -2 -1
973 1 16.187232323602245 5.2488568338441945 11.09356309003025 -2 2 -2
1306 1 15.014895224388162 4.4393296096461246 9.24182202265844 1 0 -1
1240 1 14.066566550398838 6.438909358181017 10.435405893550707 0 1 -1
2042 1 11.929398182952875 7.540643965543609 10.472040936292121 3 3 0
587 1 15.64071246001832 5.290351070605113 13.642828433016279 2 -1 0