LAMMPS data file via write_data, version 29 Oct 2020, timestep = 300000

2048 atoms
1 atom types

-0.6562820162048375 29.008282016197874 xlo xhi
-0.6562820162048375 29.008282016197874 ylo yhi
-0.6562820162048375 29.008282016197874 zlo zhi

Masses

1 58.933

Atoms # atomic

1031 1 0.8033855845853053 2.557242826993708 4.513566886173169 -2 3 1
141 1 28.656951099299047 1.5575625364220822 -0.09796141976371087 -4 -2 1
959 1 0.6154527159879992 0.3525171451479969 1.4248728058526585 2 -1 2
952 1 2.0132849981563115 2.3160865068931615 2.1639528899674283 3 1 2
1045 1 3.1490059797909886 2.3211243785753206 4.230999365869005 -3 3 1
1373 1 15.86385576627352 -0.2655919295677782 10.00976878320077 -3 2 0
708 1 3.992069795792963 0.4761331023403481 1.5846678573576378 1 1 1
1100 1 2.4813353845172252 0.09761929774368117 -0.05029568258587647 -2 4 -2
1633 1 0.15887590688531683 5.240663323725691 2.306931107924941 -4 1 2
1619 1 20.79659673476184 13.668560749344648 -0.6251621493892846 2 0 -3
1284 1 5.882355745778206 1.9482221323095863 1.0098792673118782 1 0 2
613 1 4.282697940324176 3.2564790930934917 2.5757838868945266 -1 0 -5
1571 1 27.042227058106196 3.1065548186400673 0.3350876143392877 1 1 -2
1055 1 4.82153718259403 4.307389760523323 0.5970518772309474 3 2 -2
10 1 3.61788926065645 2.306480482708535 0.000740526700564681 2 0 -2
88 1 7.411120268639703 2.6256718232609795 2.408537270641635 -3 2 3
621 1 -0.4666524212286669 0.43897719966616555 3.4256503345747396 4 -1 -1
756 1 5.06106327463656 1.2087092139683908 3.613614422042904 3 1 1
18 1 8.886612167498802 1.7390470540702032 0.12224806554767498 -2 -4 -1
1444 1 12.442481538826257 11.044334751310178 -0.3825266621429781 -3 4 0
199 1 11.610371975321515 0.9443195811611289 2.7044410308159943 1 -2 0
1061 1 9.175012340103326 0.8327148894569061 2.5849512094014124 -1 -2 -1
465 1 11.790575211142688 1.6898510683986965 0.43159225247070143 2 1 0
1063 1 18.69048504367569 14.117009214853098 10.569429506522992 -1 3 -2
1845 1 10.35202475947501 3.114487610193144 1.7141805832610761 2 -1 -1
100 1 11.573554021368167 4.412439780798547 3.503825011755218 -3 3 0
709 1 6.332188680493607 6.875135617180602 13.86912263522944 3 0 0
497 1 13.284206517657742 0.009043003576283515 1.356798053159343 3 1 1
1926 1 14.816686670965087 4.6024000894779356 0.9000668289270908 -1 4 1
1621 1 14.970821525053273 0.6817831359020121 3.893322805407599 5 0 4
1640 1 13.157667461355464 2.5648576968079926 1.8751809338371266 2 0 1
403 1 8.052688325300638 13.577159069425079 6.493930197394653 -3 -1 -3
626 1 0.7521133007675269 11.952187894443995 -0.5024224563722112 2 -1 -1
421 1 15.245431348652545 4.1180750933343875 4.7228481578751165 -1 -2 2
188 1 0.23448068039675862 13.371661177823427 6.2869974516781335 3 2 1
1909 1 15.491804095127968 2.646492296904241 2.4998073023695464 3 0 -2
1693 1 17.22052351951067 4.29288837137906 1.0159117551090018 1 2 2
1143 1 20.109072357628495 3.5383881550023837 1.3239638778558238 4 -1 -2
185 1 17.636718727106494 1.7045653493737696 1.868016819445137 1 1 3
1687 1 19.48387139633476 1.9737684747504813 3.0102476787985433 0 1 -2
1160 1 27.953724231079356 12.873629526984596 7.352184894919164 -6 2 1
1596 1 15.383431945308129 2.4714582672566126 0.1687642847610351 -1 1 2
295 1 17.5337884858607 3.6396316855020627 3.506780641139045 -2 -2 -1
979 1 19.523462930753425 1.5342653106147592 0.06703696915977941 4 2 0
1412 1 8.864114358449067 -0.46380950329740145 10.66811964184248 -4 0 0
1129 1 23.395257602946668 -0.46450631243846285 1.477194067503771 0 0 1
1826 1 21.502267648422627 1.4431253009664444 1.748051762090995 -5 1 0
1468 1 21.7522578951773 3.704373755444494 3.193585266966741 -1 1 2
1438 1 23.763346115542245 1.2613009923062877 3.405692708881735 -2 -1 1
1081 1 15.2363447790304 12.466165486036079 12.333101875468799 0 0 0
1859 1 27.57977947033884 0.27604523977578277 1.6575223633696612 -1 3 1
42 1 24.843595095054887 2.3420349994971943 1.2118956227586837 4 2 0
665 1 29.002750109053576 2.5291967736005647 2.051370860830997 -1 -3 -1
441 1 25.663891506252963 -0.4570209960246071 2.6557878592120163 2 3 -2
999 1 0.8376444826769445 8.429353942971911 9.88095408787271 -1 0 0
408 1 25.209144643641274 4.462655311181272 1.8291148409180575 -1 2 1
309 1 22.2982997986627 -0.43805113111352934 5.982409090060641 1 -1 -1
1850 1 26.683932683170806 2.286936325195487 2.6421472717676733 -1 -1 1
1035 1 6.413237609525887 1.513796852667674 13.289599623113372 1 -4 0
300 1 2.389313037407796 4.406617581844461 3.610968534454136 -1 1 0
1771 1 1.5835044064496464 6.480298156915521 0.7313888438262921 -2 1 7
103 1 2.3212869327960224 4.42312605922542 1.0576143084558485 -3 0 -1
1374 1 28.9340707500525 7.515309392138981 0.6922075799653156 -2 0 -3
1421 1 21.10778508152402 5.061322021537238 -0.6341433283813953 0 1 1
1117 1 1.9491136146169619 6.959286660759966 3.414233407340971 3 4 0
920 1 28.821227637367237 7.018328983419141 3.8805779915382352 -2 1 3
277 1 3.7965242090050912 6.658495349977998 0.23254196680379358 4 -1 3
520 1 4.352336323545934 9.936876114491493 0.24349541157377153 -1 0 0
507 1 7.222202530687698 3.7688960844509136 0.13700817592564563 2 -1 -1
506 1 6.72610903942522 6.715919493113732 0.4899294127917655 4 1 -1
348 1 3.909152972583291 5.737675653658527 2.412294312330934 3 -3 0
725 1 6.2604992360086325 5.220530827961043 2.2683649596522857 -1 2 0
1185 1 12.23851488079083 4.867288566259269 0.9516022915070512 2 -3 -1
790 1 8.243811417340593 7.270802231263656 2.055580043635956 0 -1 3
1801 1 10.677730716167613 8.791456514460291 1.925652573327754 0 0 -1
1995 1 10.633512982089368 6.446968089599731 2.048079249402654 1 0 0
1454 1 9.518833006848736 7.057212681717371 0.1651363888968983 -3 1 2
1103 1 8.93076238732531 4.608089455017002 1.0929017980717186 2 1 -2
1911 1 11.343296099743334 7.77550277627514 4.104135559473681 0 -2 0
841 1 10.684121917857572 9.057477906587193 -0.21411478506394443 -1 -1 1
1937 1 14.010448284657837 7.045822894268384 0.5182733935097181 0 1 1
1224 1 27.838146833526174 -0.3959762929374255 5.2027973590779295 -1 2 3
70 1 11.974505900425502 7.081427206561118 -0.2772557102774449 3 3 0
1896 1 15.573178027707677 8.871607215582236 0.9957555655597605 1 2 -1
1262 1 12.952024466357594 7.050010652524705 2.7247376960377427 0 3 1
1331 1 16.075929351868787 6.52120263222232 0.4352633298059452 0 -1 1
1131 1 17.388670053133836 7.7194783476374 2.46808062389579 -1 2 2
195 1 21.475752914086886 12.942193884869692 11.509784465103454 -4 -4 -1
523 1 18.558925396057518 6.3082075123925705 0.292046591663508 -1 2 2
447 1 19.017624961547156 5.34624238407521 2.3486807040630504 2 1 3
546 1 18.82866690806718 7.863082613364034 4.359333614349628 0 -3 -1
1501 1 18.867728678008085 9.740402070857353 2.9741166493262257 1 0 3
1306 1 20.11679173168111 7.794928974135145 2.2029229352679476 1 0 0
1497 1 18.389986240157103 9.025192847630343 0.8803461332427536 -2 0 1
1970 1 21.147336376873177 6.077224282801587 4.098606630504296 0 -1 -1
173 1 22.753130363125127 3.7326996527130083 0.9075578624834302 0 2 -2
961 1 21.48771596726439 6.050169653401157 1.6060657999777335 0 -2 3
941 1 23.543885380728256 5.07998954669972 3.0755787862128043 2 -2 3
1528 1 25.18150082784727 6.547090505890116 0.8395113985929994 -1 0 -4
1130 1 23.239529868081444 10.281022074861614 0.9407318319074767 1 3 1
1597 1 22.332244216219067 8.296898882089483 1.2245301611225756 4 2 -1
1183 1 23.631784763062242 7.60597577694544 3.2880912284668073 2 -2 1
1250 1 -0.38104413887187316 4.314406119310241 0.24299128470421527 1 -2 0
646 1 7.005729834600928 -0.05493474527274922 0.5224789565866998 1 -3 0
362 1 27.099237592780273 6.746460295938747 2.211266992557599 -1 1 -2
1944 1 25.333787165287163 8.48290137587621 2.0115901820833217 3 1 -2
716 1 25.017111619255246 3.172782194014589 3.9890627118458744 1 -3 -2
604 1 26.609335922578417 4.264223373375602 4.529139377990582 -1 -2 0
764 1 27.490609614739242 4.594831334135182 2.0869832873016643 2 0 3
252 1 27.142053416476525 8.412875501970646 3.619553166573059 1 0 -4
1840 1 3.260928680349265 12.09411245023002 -0.47776051232834543 0 3 2
63 1 -0.29204046690572466 9.994523669867037 0.25754416928090373 1 -1 1
1164 1 1.4865463319779972 12.615288369841315 1.8061458096324268 -1 -1 1
1156 1 4.818779228997891 12.635636182224362 6.594850643034069 0 -1 -1
1793 1 2.0785853556111875 10.316727846623644 0.7430369821593752 2 0 -3
2045 1 -0.4463982885340201 9.546335241412306 3.563557724489198 1 1 -1
1000 1 0.3910227231438106 12.444107164304745 3.9951775958377365 -3 -3 -1
1695 1 5.170396132673326 11.902973521379385 4.25727964055962 0 -2 -1
1369 1 6.5533534751011375 10.027213095210405 4.105364631187697 -1 2 4
25 1 5.831722344692062 8.574245585943947 1.685884643513547 -2 3 -2
219 1 7.007145528344892 11.235412512467413 1.9239222638245081 3 1 0
281 1 4.15737589005246 11.82601366926455 2.2534560018058407 0 1 0
308 1 8.155614239391998 12.248708696764385 0.47999768267102905 2 0 -2
2031 1 8.238268477640505 9.129049714321798 0.8431905382310942 0 0 1
73 1 15.83438392968742 0.015668681619804392 1.262546496911045 1 1 -2
245 1 10.41048517633698 13.260872559905481 0.7038075666775412 -1 2 -4
113 1 8.28133976031038 13.217416751477645 2.918930956748605 -2 -1 1
1948 1 9.694693663542465 10.964677163490732 1.7564765964791316 1 3 3
748 1 4.0385909977185355 12.847776403252574 8.91884195856052 2 -2 1
1323 1 8.538772328897055 8.982637166803807 3.5897410881945246 -5 2 -2
902 1 11.147407184786768 10.359260289693239 4.399599070936031 -1 3 2
1473 1 10.514537887167437 13.34595662746141 3.0574155287918714 -2 2 1
1807 1 11.772835777224778 11.233713232862634 1.8986281019499551 2 -1 -2
585 1 11.798380868602424 12.645762981378793 5.6097052941882675 1 -4 -1
1477 1 12.769563801261082 8.974920377278762 0.7629914797315074 1 0 1
770 1 13.06752395526617 12.908732344155228 2.9192199170692046 1 -2 2
1817 1 13.049518265194758 9.369850817014385 2.9042099965666752 -1 3 2
1856 1 17.292117177718747 12.621499166670743 0.04195021446118807 1 -5 5
1541 1 14.182672283583182 11.194126617399405 1.5168772331037221 0 -2 -1
1893 1 5.73582164413808 12.461416639426565 -0.18580412663143647 -2 1 2
509 1 15.337481155621859 11.889307015116634 3.639072082657914 -1 -1 1
337 1 3.394652714210375 0.2043491165917587 5.19414003933889 -1 -1 1
1474 1 13.03531061933883 13.102121559786871 0.36958304730897584 -3 -3 6
782 1 18.821630754927057 11.224636884294323 0.954559038829278 4 3 0
727 1 19.6394290948527 13.7458325427865 4.158214242438434 -5 -1 -1
571 1 20.246965419571943 12.329414822758215 2.4031932142872967 1 -1 -1
2001 1 16.527865044872094 10.85568544051652 1.4835432078900572 0 1 1
344 1 1.662358271274519 8.346288074988294 -0.6100269909595699 1 -4 -2
287 1 17.824091581731345 12.312703678525253 3.0426624418455868 -1 -2 2
1684 1 26.4918194636065 12.171324173264159 11.640373756217636 -1 -2 0
1696 1 17.850272244357665 9.864813885399993 5.944413573367344 2 1 1
2011 1 22.815817373252262 8.836264814295939 11.643750427633393 2 -2 3
754 1 28.506815994594565 9.801603944698572 10.39329379345278 0 0 2
1016 1 20.815133884940924 10.273574099748535 1.82424902978648 -2 3 2
1201 1 26.742350126586224 13.306220944266885 2.9166527786142042 -1 0 1
803 1 8.170629167842105 13.827353489904125 11.375131316834008 0 3 -2
1553 1 27.9593602371804 9.47944574596591 13.304707682091848 1 4 -1
531 1 22.88965340522285 12.28721824975775 2.0063851010172256 0 -2 -1
152 1 23.060182863074417 10.206153453165095 3.470757905821322 4 0 0
1459 1 6.554114161422517 13.690632119674813 4.767583859405557 2 2 -2
2017 1 25.586226379196777 13.134366485980102 0.30990131313602276 -1 -1 0
249 1 27.37005962968705 9.87806287313211 1.5964996512438807 1 2 2
1448 1 24.872186246074897 12.351850474906957 4.295005165638665 0 -2 0
1010 1 25.150683165407255 9.87610750535205 4.844226616356832 -1 0 -2
1799 1 25.1173577611595 11.240512483488706 2.3168545636263396 1 0 2
776 1 28.752349134721115 11.954766197719106 2.2249081813827107 2 -2 0
2024 1 28.38285320176873 1.3335084295074462 13.739524829714643 -4 -2 2
926 1 2.7211807921076643 0.1223302940144726 8.092832836999754 0 3 0
1988 1 6.729487932010453 10.127447900423896 -0.6441985892963593 0 -2 0
1042 1 0.49001770013281565 3.336799832476164 7.587299822310506 -4 3 -4
1551 1 1.8479035740968648 1.457017223475218 6.472061369909829 2 -2 -4
93 1 2.832517089517975 2.8558797054316982 8.009221377731137 3 3 1
1404 1 -0.41781050913319506 1.2173799170078548 7.068250798136937 2 0 0
1181 1 2.239224149122025 4.191411577605837 5.956160867692928 0 -2 -4
1050 1 28.857167924217087 4.435328076978434 4.392796923922074 0 -1 2
190 1 16.17963762103481 0.11923838769017103 5.752178156928706 1 0 -1
1892 1 4.8471087444950385 2.4362421993627197 6.177244173597807 0 -2 3
186 1 5.558892722256324 2.9392212467803596 8.824829621136818 5 2 -1
161 1 6.277673391155115 0.7419438530795406 5.866668989408375 -1 -1 1
273 1 7.585044490960259 -0.28206296064128394 3.809624811540526 0 0 1
374 1 5.989010265432825 3.476091001730275 4.2140739346049125 0 0 -1
29 1 9.20036857037858 3.1743008294754063 6.709139704004624 1 -1 1
767 1 6.506879344279364 3.558131797502835 6.731164844910512 -1 -2 2
1054 1 4.724782110060652 -0.032322478877343186 7.032740134732819 0 0 1
884 1 7.95903069518052 2.0519427328223094 4.783049398494186 0 3 -1
879 1 7.4472195754658586 1.839030832281758 7.568156466171045 2 3 3
463 1 9.068742127764496 0.6748313840255682 6.008933160867563 -2 -2 -2
87 1 10.611116607420318 2.0328895473182644 8.13147821178279 0 -2 4
1302 1 10.515977244065368 2.3581369890969732 4.131120799958859 1 0 -2
271 1 16.81842449279511 14.126940251385761 12.166211510763258 1 -1 -2
1190 1 12.965837010435116 2.586416384629842 4.390070479407931 -2 0 -2
304 1 13.366615807594075 1.9813052664884072 7.638104094686867 1 -1 -1
26 1 25.820290771274163 0.6123110352274908 -0.24063728514491473 3 2 0
1382 1 15.064012764375743 0.2193899855455672 8.020180929408918 -3 2 1
965 1 14.636067114018884 2.1196190711549114 5.8815381695875155 0 -1 2
1301 1 11.53349756592186 0.6576397763201911 5.913196826336263 -1 0 -3
918 1 18.165331849363124 1.3131457724622104 4.986199905130144 -2 0 1
1095 1 13.579211831402334 3.8968103724122614 9.38130435900925 4 2 1
2022 1 17.69732145982093 1.728983567698807 9.321395425680562 2 3 0
1712 1 10.409408532293835 -0.27895658514299826 0.732516169911468 3 0 2
1574 1 19.336608547715233 3.2371547210230562 5.3235437979063205 0 1 -1
1464 1 17.85941876681858 1.1354850882479524 7.106586675235207 -1 0 0
985 1 20.1375563627657 0.008942208691482323 4.668385696029665 4 -2 3
1543 1 18.799534796275758 3.5980493071808963 7.708367812534506 0 0 2
670 1 20.059798366717647 -0.622440269675551 6.93718073240487 -2 2 0
187 1 15.626392615702574 2.465784130393836 8.25759717544762 2 -1 1
14 1 16.943246141810608 3.131982062483728 6.190394873622417 -1 0 0
285 1 21.607454719668564 1.8480813043162954 4.783932653191579 1 2 1
458 1 22.351289220911756 0.9923597627931506 8.058117155758602 -1 1 -1
1482 1 24.892125455837075 -0.6539444681399054 6.629676958818108 -1 1 -2
239 1 23.77204313379798 2.426086152009981 5.696872918350755 0 3 -4
1128 1 24.4169162074088 1.2989308978857539 8.560714044503424 0 2 0
385 1 20.53980089459191 2.437438843398539 6.815480322332428 0 2 2
654 1 20.972843349268935 3.134131034130469 9.003253813497988 2 1 -2
1534 1 28.188896947572832 3.8528735782871575 6.7347296113042745 3 1 0
369 1 15.11647574089878 13.558805838714902 2.154318327170939 0 1 2
1601 1 26.510103175779218 1.0515892879166884 7.4714290646037185 -3 1 -2
1631 1 28.089427161653518 1.9118780170276373 5.018962007025116 2 0 0
1101 1 25.942661805636256 0.8327195740790811 4.510131520041429 0 2 3
1711 1 25.989185657905953 2.814925547766217 6.185864169241531 -1 1 3
1834 1 0.7552563736384665 8.452453294295603 2.0362467617168516 1 0 2
1218 1 -0.20275865219420008 5.73463453578363 7.488253188122686 -1 0 1
682 1 0.9067417439924754 6.913277895015557 5.323320065914472 1 -3 1
1880 1 1.822110178164857 4.91749352484177 8.362113482276772 -2 2 -3
895 1 3.050505015226671 6.569798785178513 6.027146692759256 -2 -1 0
1825 1 2.01237733761059 7.295490716196936 8.062254508550431 0 2 1
2021 1 -0.10885433442674497 8.802098892243654 5.710609662324122 -1 0 2
1105 1 4.335278885460428 5.055888035576136 4.6941340507923845 2 3 0
77 1 4.142953827367674 4.6331640288555205 7.132231572003058 0 2 -2
1958 1 7.598296127574429 7.702379801394407 6.071226734755373 -2 0 0
377 1 6.835232623412896 5.437462693258975 4.699949318311004 5 3 0
1204 1 4.039866204988652 7.438850708590476 4.088363749125687 1 2 1
235 1 6.311667119971396 7.653455694638021 3.7289991221636942 2 -2 2
1056 1 5.589526340653968 6.44770107431688 6.288545698198097 4 0 -3
696 1 6.431846215685462 5.410191615558905 8.42445403413191 1 0 2
553 1 8.993131482081985 4.1727211393557 3.3221427218524906 -1 0 5
1244 1 10.3390278922324 5.096004607801607 5.633057739598839 1 3 -3
1618 1 9.548787518458997 6.566061325616815 4.34566680271062 1 4 -1
1686 1 12.467374453690285 5.691411967481147 6.092323951965596 1 2 0
1168 1 11.766666357284437 4.514910770350677 7.896777515786571 -5 0 0
1089 1 10.28761848941759 6.802465008806914 7.484920745879528 1 0 -1
202 1 15.245797753850693 8.108763336447787 3.133699640467652 -3 1 -2
263 1 13.70420569582568 4.470267995340364 2.7646872561091325 -3 1 -1
1882 1 14.397719422306752 4.637625969888339 7.234387294531202 1 -1 0
1582 1 16.75231550033156 4.208442468846277 9.020327319283409 -3 0 -1
1847 1 11.44448744232731 3.24646295496493 6.163721198871658 1 0 -2
179 1 12.853536467500128 6.662939073892904 8.332113265738565 1 -1 -1
148 1 14.882531949169845 6.905734808876641 6.795465083227844 0 1 0
402 1 13.456573227946736 8.188151129462051 5.294039756917987 0 0 -3
1230 1 16.68076969893369 8.676645319938068 7.535541685094813 -2 2 -1
1858 1 14.706430358333069 9.49667840097939 8.00785535152792 0 0 3
1678 1 16.238337784121335 5.712126063077491 3.220565773610048 0 1 -1
266 1 16.426154878783322 7.543201346267404 5.110407923072518 0 0 -2
806 1 14.372781492976948 5.9665262288699354 4.442804536248678 -4 0 2
1139 1 17.145240526449328 5.3700898399752335 6.724258763009975 0 3 0
575 1 18.966504357895488 5.456463053394332 5.089212350837368 3 0 2
170 1 18.601867701615433 7.474538211477196 6.614538336593277 -3 0 0
1873 1 16.734726346215247 9.963341383167656 3.6579670730271623 -2 -1 1
251 1 17.642965522715887 6.428341301149874 8.570921407623358 2 0 -1
1643 1 19.743506665297147 5.723605574658419 7.36751332780892 -2 2 -4
3 1 21.374015870353457 7.514486406497678 6.127599168547069 -1 2 1
220 1 25.747617629200118 6.600699966468297 4.317418743325938 3 0 -3
1552 1 21.406745648674395 4.471790427144717 6.107860037894975 0 -1 -1
822 1 22.99738585408409 6.52773499583748 7.585112598485248 0 0 -3
619 1 23.242403295190947 3.687622080184041 7.654963253367971 2 -2 -4
197 1 23.434302243373093 8.036561955814573 5.628069180038609 -1 -1 -4
1212 1 25.52024988236251 7.436224634775511 6.791643215193418 -3 0 4
1648 1 27.675648678716872 6.153755506054347 5.862405287368155 0 -2 0
1033 1 23.53362373429573 5.772795525626918 5.282495597095967 -1 -2 -2
1263 1 25.673863085450538 5.08890781601891 6.676564865896734 -4 0 -2
836 1 26.892670813044806 5.731837750514935 8.71304685957549 0 -1 -1
901 1 24.853498230356237 5.808693269458914 9.724086389384333 -3 -2 2
1755 1 1.8137544341085174 10.549053113016273 3.1189062489554353 6 1 3
1694 1 2.600590928430381 12.522390046555351 3.9687435505368676 1 1 -1
1452 1 0.9641542469060413 9.459198341089497 7.613448943158605 0 0 -2
671 1 2.172799842638641 8.872198682100533 5.320624718102895 3 1 -2
1968 1 1.246783599369244 11.110371153728764 5.772964980059477 -3 1 1
905 1 3.7181434079784212 10.870079699049745 5.868222563644713 1 3 -2
1853 1 1.0980884273405078 10.81905460100908 10.208684435617782 1 1 1
151 1 28.220768142528538 11.23114882556483 5.4108717555790955 -4 -5 0
1728 1 2.7191888371905857 13.468433034255415 6.2546369335042415 -2 2 3
1583 1 3.091128786765305 8.459160361259158 1.9751219767387584 3 1 3
1585 1 5.0110014303868775 8.908870125832044 5.626489163039045 1 -2 -1
1126 1 6.530649967109835 11.35893800861714 6.421601859120486 -2 -2 -3
794 1 4.273695809371088 9.499864801609416 3.413707982180516 0 1 2
1008 1 8.484156233034907 10.738008489508296 5.804365276457512 1 0 1
158 1 7.411964885842133 11.383715746365118 9.287587736897807 2 0 -2
1322 1 5.003569451474381 10.56084584017579 7.950526697686568 -1 0 1
1810 1 3.634385158317402 13.797932474884776 1.0377540630174422 3 0 3
368 1 4.280749044426768 7.895958837212142 7.580789629900879 -1 -1 2
1434 1 19.286974394722435 14.031093751759178 1.4371469611969707 -1 -1 4
2020 1 9.449194914843842 12.729125467769324 4.786659657553033 0 -2 -1
1391 1 12.291167529259932 8.850063564993523 7.042056194121456 1 2 -3
968 1 19.298614578388314 12.02986086230259 10.485416312523798 0 1 2
1341 1 10.84888530310505 10.483462481795199 6.503276284556819 2 -1 2
713 1 9.778572950629293 12.28827475623343 7.831834526139334 1 1 -1
1593 1 11.252627817357107 11.107223889749847 9.27105987214898 0 1 -4
1842 1 9.865549783087877 8.670972957862062 5.749324196458568 -2 1 3
494 1 13.402617176443028 11.193815013495845 7.224179892414667 -1 0 0
383 1 12.254575870146779 13.035613043871484 8.25863262302642 2 -1 3
871 1 25.487035511452653 14.129353603733923 5.827664963558474 0 -1 1
1753 1 15.925068617176773 12.071917436938532 6.323812388353266 0 1 1
801 1 15.105230210073211 9.655804550814816 5.94902373795721 3 2 0
1512 1 13.669014472334283 11.244810654011273 4.9031018039595615 1 1 4
1255 1 16.633776839141778 10.870939605350745 8.228456713543467 -1 5 2
885 1 1.7457823413501363 0.12706680242593826 3.4807965230048703 -2 2 0
1451 1 19.976139442234363 9.456949207858065 7.013074367573277 0 0 1
955 1 18.907708708657747 11.657386080493424 8.152975388405313 -2 1 0
28 1 18.171835619650842 12.28161552338063 5.436799083167516 -2 -1 0
877 1 20.656377218761172 11.004622737890505 5.352354421245307 -3 0 -2
1241 1 20.059669910228767 13.857710472612784 6.832739881749233 3 2 -3
138 1 20.544104848599567 9.792264742850282 9.593814556529116 4 1 0
1994 1 4.9696948501700735 4.177082470339744 12.913417973430658 3 1 -1
1700 1 9.38030404375977 8.677524043306837 13.573528578671757 -3 -1 -1
911 1 22.46921410698048 12.393752920720809 4.249144597812905 2 0 -1
1959 1 21.00574668120811 8.669277776392418 4.126574391470929 3 2 3
391 1 21.61665599680929 11.69999813244687 7.692526263306032 -3 -4 0
297 1 23.083935154493886 10.218626662554074 5.857752345188493 2 2 2
1297 1 23.390364113758658 12.928566324997185 6.0885436782805185 0 -1 -3
1247 1 22.17710958728609 9.159730572716489 7.592524223449695 -2 2 0
750 1 18.43099108580107 -0.5232153686733765 13.85833141654335 2 0 -1
620 1 26.68657700962038 11.751708937320295 9.061819534603599 1 2 -1
1548 1 27.867142653426615 13.60000503854581 5.160862979657911 1 -1 1
1354 1 25.819271392328606 11.93290665214339 6.6636306390124584 -1 0 0
1661 1 26.870195011727965 11.087019745480449 3.683689845934757 1 0 1
412 1 28.58673790788639 7.897241063535976 8.563267227599928 -1 -1 -2
1860 1 27.615118320301516 9.93443101395311 7.862477623915597 -3 0 1
1215 1 23.85147325480838 11.88323127829289 8.173472760819482 0 1 2
268 1 25.071521173369508 9.886961850963159 7.89508320194102 1 -2 1
1137 1 27.097787754642862 8.973331950462923 5.695723546191249 4 2 2
1956 1 26.480402098701024 8.021056891058745 9.260852400964378 3 0 -1
1606 1 28.39615780142206 12.621842483627496 13.124837274940862 0 1 5
834 1 -0.28534271036983233 11.354708904942731 8.516323785790426 1 2 -3
483 1 0.41954535928126413 1.6528703115212409 9.706539734651164 3 -2 0
413 1 20.63854053619379 7.390961904128167 -0.07632601297425778 5 -2 2
1208 1 5.255841029803222 2.362132694546247 11.239336997229765 -2 3 2
943 1 26.51798359689615 9.008813720461283 11.585843032312226 -4 -3 -1
1184 1 0.5906912160177185 0.11719227094404727 12.135882714080953 2 -2 4
1509 1 1.181815668152392 3.6576268711074587 10.465743213862968 1 0 -2
1079 1 2.1578771490822732 1.8326701351396721 11.744583635168189 0 -3 2
120 1 28.09500737829149 3.9877673476841284 9.320374661914789 3 -1 1
1084 1 0.54398998068158 3.5290725500969993 13.19484360296614 -3 1 -1
986 1 21.575849720440235 11.34348787073161 0.08091412379744545 2 1 1
95 1 4.310544578389528 2.013858873871722 13.680984554851845 2 5 2
777 1 8.129359097404564 1.740537160724557 11.750442762052835 -1 -3 1
1866 1 6.4124808506705335 0.5952761022168129 9.960738219100765 1 1 1
669 1 24.270274461910418 13.071582061963783 13.456588836840375 1 1 2
610 1 4.030162019175439 0.9073380791201247 9.747808988168838 2 1 -2
111 1 7.180165774379436 9.501476909457184 13.423517453277386 0 1 -1
1894 1 9.30315600450499 4.6684760132588625 11.282109541652192 0 1 1
1111 1 19.926089685181605 8.038923499244646 13.510850640422701 -2 -1 -1
1375 1 8.837343218886351 4.082278740901248 8.69373367262947 -2 2 3
1584 1 11.48381010927142 0.7164002137672056 9.804111485047143 1 -2 1
1537 1 8.88973748863969 3.2968701115345005 13.156532735443516 1 2 -1
763 1 8.99307895370243 1.7129524790704482 9.723072802221203 0 -3 2
1236 1 10.335786941413705 1.8113795710822407 11.415509471364185 1 0 -2
678 1 9.503213530175604 -0.0832843914066328 13.208907885261176 0 0 3
1691 1 10.890194218824588 3.651051701328093 9.936138546028475 -1 3 2
1915 1 13.828289992116938 1.2808916993407393 9.738526210037044 1 1 0
746 1 14.793123164235906 10.7831188537751 13.896811023263076 1 2 1
1351 1 11.804437200868682 2.048495995672939 13.177958644633664 0 1 1
983 1 14.698132322196962 2.253970261630959 12.982203231567379 -3 2 -2
1886 1 13.738225710654346 0.44242519492978905 11.950034061568312 1 -1 5
382 1 15.923360321519208 2.3000069591776096 10.959035472559949 -1 -3 -2
1024 1 16.179670746265053 0.6589746792116704 12.774251751454049 1 3 -1
1981 1 12.629176267696431 2.777093742787023 11.30647012745727 1 1 -1
203 1 25.98399157661115 11.083105761534853 0.24704284715182934 -2 0 -1
1059 1 19.85606293813192 1.1441542324643226 8.877980106589398 -3 1 0
824 1 12.02192007993087 -0.3948651015081882 8.034417700730991 2 3 1
1790 1 20.112987848874976 2.952156158596152 12.740641450151253 5 -1 0
1270 1 18.815996132670925 1.124482610687331 11.622590000151403 1 5 0
1290 1 20.859033440820475 0.4682075163407966 12.829017685320213 0 4 -1
1572 1 5.274143901805051 11.540644943774605 13.565165371600479 2 4 0
165 1 25.446128177461937 13.716286989958 8.349003393312534 -6 1 1
498 1 23.97210093205414 2.3906685387726854 12.282398228955914 -2 1 1
178 1 18.60055773305678 3.8395202126809505 10.516305288795408 -2 -3 -3
91 1 4.431395134740617 8.959097699274103 13.695912550112299 0 -1 -1
793 1 18.034762079873644 -0.33343031987669847 0.2988630806365258 3 -1 3
476 1 23.863729982804816 3.1488696387612842 10.133926970136223 -1 0 0
1410 1 21.690547282460827 2.25046047049743 11.08472756588357 0 1 0
67 1 23.7932865327855 0.38903622289111617 10.669464330013327 -3 -1 2
1267 1 21.66824881436145 4.392312358500986 11.731872289817996 -2 2 -1
454 1 22.280442939274643 2.4371429690546056 13.825354289404212 1 1 -1
1321 1 20.674915459517 12.998679545576431 9.213198009496514 -2 0 4
1680 1 26.22049155681796 2.1808728768580288 13.366164412507434 0 -1 3
906 1 25.820799921925424 1.5827752722993056 11.000224114188308 -1 0 -1
34 1 25.47915939561899 0.213490102054542 13.04228953080241 1 1 -2
502 1 25.837129926151636 3.2205222649316676 8.492033615304392 2 0 1
46 1 27.855020696944845 0.10853697635612625 11.63812645166314 0 -2 3
1681 1 28.568817172423536 2.4096167104453374 11.274432748278803 0 -1 0
1420 1 27.901550443568254 1.3005869888899624 9.311093295774578 -2 0 -2
457 1 25.853466890031385 4.938161395101239 13.120086122531573 1 2 0
948 1 4.915047058154022 -0.06732338276291028 11.85072347721563 -2 1 2
1265 1 0.9055041388656777 6.184854130776953 12.4724954168968 -1 0 2
814 1 4.012981395000765 5.887337688119399 8.764671607497664 -2 -3 2
491 1 3.6447538119014844 7.741400242787385 10.617841453704921 0 2 1
1742 1 0.2903909837481289 10.754441314137578 12.695604803898954 1 2 -3
1562 1 2.616519215671325 4.070468842857796 12.816930532775318 0 0 -1
1005 1 2.3977239082959674 6.016118699511388 10.64056634895168 -2 4 1
1275 1 3.5575795951586437 3.7531353728290577 10.244157785198674 2 4 1
1202 1 5.496018914394005 8.57173694010352 11.817375559586802 0 2 1
779 1 7.193687017527604 3.5024135664725486 10.450740620820804 0 -1 5
1068 1 4.820410945081273 5.989491143300172 11.507371922899031 -5 -1 0
225 1 5.590966283190606 8.376911296482485 9.337376304587492 -2 0 -2
892 1 7.0383934838981865 4.689088236958829 12.569329076499821 0 1 1
1334 1 8.633777276894774 7.153319683941278 11.534920270793316 2 0 1
705 1 10.529206301010188 6.501617123669558 12.800111907874951 3 -1 -2
444 1 10.776949609554416 13.20179421717091 12.116384284809456 2 -4 -1
1851 1 8.112434542581427 7.580440714564599 8.581846880548945 0 -2 0
83 1 10.894164253343945 8.49017276168837 9.149880617566676 0 -1 -1
1899 1 6.934738322134339 6.1675036179623985 10.306357965963597 2 2 2
602 1 8.265571185092556 5.729710194235478 6.882217887598317 -1 1 -1
62 1 9.88433271675188 9.328563763706912 11.078978158005622 1 -4 -1
947 1 9.923980017145368 6.535632070663461 9.871792588620558 1 0 0
1242 1 11.043570305276672 4.156051656999187 12.83126079007778 0 0 1
1879 1 11.773977134305099 8.007195686937003 11.276067270565113 3 -1 -1
404 1 15.254061242086717 5.947496704215102 9.140685654816592 -1 0 0
1017 1 12.94077505254532 6.142623008315862 12.317425771332122 -2 0 1
1154 1 24.45562408452625 4.477640466483937 -0.6307801527268132 0 1 1
817 1 12.422240697629737 5.573621485308288 10.20127044434004 -4 2 0
1002 1 17.498199462720514 6.300675922311885 10.913380138861145 -2 -2 1
1296 1 14.146213893882619 7.328265326894428 10.890701399708984 1 0 -2
482 1 15.481641267018418 6.480469414140598 12.729540006722447 -1 5 1
978 1 13.916927839375573 4.221875016902836 13.540615210272446 2 1 -2
659 1 14.840185539408276 4.4604643491949 11.47297845200908 -1 -2 0
2042 1 19.523047981979314 5.388546095713761 9.505055389987302 2 3 0
205 1 19.166048214177916 8.09458495017596 8.92970622709142 -2 0 1
1791 1 24.064428858492107 12.370584687278553 10.970947454507314 -1 2 -1
625 1 19.646869313543604 5.485736804739227 12.152889065346177 2 -2 0
1237 1 21.584051303612213 7.692984762603848 9.339660148849555 1 0 -1