LAMMPS data file via write_data, version 29 Oct 2020, timestep = 300000

2048 atoms
1 atom types

-0.5518643874590907 28.903864387450003 xlo xhi
-0.5518643874590907 28.903864387450003 ylo yhi
-0.5518643874590907 28.903864387450003 zlo zhi

Masses

1 58.933

Atoms # atomic

1560 1 1.1839590848781825 3.861226410658281 1.7152847887189515 -1 -2 2
1150 1 1.6580550923140076 1.4573938043401626 4.334240363817035 2 1 -1
982 1 2.6128760453255064 3.821978150727875 3.764961705969837 1 -1 0
1006 1 2.275195388684915 1.8103550723671558 2.060893206003996 -2 -4 -2
1109 1 0.7337490467491075 -0.10247050529184748 2.497197657835268 4 1 -2
769 1 0.6782237092479881 2.2712836750739482 -0.0024190262127787854 0 -1 -1
338 1 -0.4247851781798869 4.1355973562694786 3.913302799987183 2 1 -3
1293 1 3.6060620920514967 4.7815582027648 1.6517258603327853 1 3 1
1177 1 5.257926780126724 2.5296172187301273 3.0918221403139046 -1 -1 1
1722 1 3.754572590143267 0.34702504719619454 3.6410589431981073 1 -1 -1
1668 1 6.390285240782707 3.1997349523057332 0.9702761055962477 -1 1 6
1059 1 7.815548506626222 3.8509278536371347 3.2402875310448827 -3 0 0
25 1 6.5158759223374965 0.9001353627686235 3.7722681626002146 -3 3 -3
1265 1 4.213754528102013 2.3535751494263435 5.1862055213116305 -1 -1 3
1231 1 4.16319058670113 2.006668861423637 0.7049107000257748 1 0 5
961 1 9.870214011277874 0.5055062283421843 2.4713513415442905 0 -3 3
1640 1 1.552140464210201 -0.5258962258041932 13.241064521124782 2 1 1
1218 1 9.85250411234298 3.1676560746401243 1.8363147326785216 0 0 1
1173 1 11.13693116969967 1.8737937588779254 3.6661665066401037 3 -4 -2
894 1 11.18328618779801 1.1058524910834218 0.5779596247691736 -1 -4 -2
969 1 28.19505954063991 -0.4708616170723439 6.890146063225924 1 1 -2
206 1 14.693727775349414 2.8154268031876977 2.823431535904078 3 1 1
733 1 12.139382625179573 3.5854048810348207 2.0357808176191066 -1 3 2
955 1 15.89158016864554 3.249641612820818 0.4341384076051157 -2 1 0
448 1 12.897773686410273 0.8139179127604212 2.671865935790933 3 -1 0
999 1 15.18808843117488 0.6810485809357343 1.3209553579222004 -1 -1 1
213 1 27.403548904566648 10.461009893526413 9.853124875225532 2 3 0
91 1 13.7039344405528 2.088069737838762 0.3425063782617853 0 -2 -1
136 1 17.54762018211277 1.7335463275830993 1.0715740931160562 -5 -3 3
404 1 19.017857897819777 2.5557684791322313 3.050583156912104 0 0 1
22 1 18.612618000410077 -0.015208712496384225 2.5607056368129477 -1 -1 0
278 1 20.789998546620264 2.6576457304224657 0.6285241999032347 2 -2 0
494 1 16.99730016532186 1.6337396387775436 3.4152871428741145 -2 0 0
909 1 21.223782657039166 1.6021071373718332 3.8421856822230334 -4 -1 4
1672 1 16.83696645533146 3.895968460005479 2.8506591280659856 1 3 0
132 1 20.950078254621342 0.30260427912074217 2.1479330976721727 3 -2 -1
1544 1 23.002465554768264 1.1204663174133165 2.485292571999981 -1 -1 3
1934 1 22.473384587437717 3.6133465212377365 2.768012815357712 -2 -2 1
798 1 23.706277589032947 2.5393972842778365 0.6057698336328068 -1 -1 -4
500 1 23.058629372714933 1.4472912321919176 5.286021517189813 1 -2 2
1924 1 25.098533636117647 0.6499699513791348 2.3827592147104104 -1 -1 2
413 1 24.559630244556146 2.9788258333734854 3.715952415598257 4 -2 2
392 1 9.716666128161853 -0.17328853079642897 11.363718461774969 3 3 -3
1635 1 3.7830039517795297 -0.5412167655072899 1.2979971388731646 0 1 1
1986 1 -0.26533942802880744 1.9194239412462437 2.666791915667637 -5 2 3
157 1 25.73693597046156 2.957599508515669 1.6145637460195608 0 1 -2
75 1 6.990233649055205 12.160485116733284 4.254631432795758 2 0 0
1735 1 27.056331547529062 1.6389477293531445 3.56978689096871 -1 1 2
236 1 14.905451596100068 0.7483015706508258 4.15084584911695 3 0 3
363 1 19.06735758650899 8.70087194341361 0.30615692714138265 -2 -3 0
1687 1 -0.37737933279164754 1.36971105173332 5.078662661786459 2 0 -2
921 1 26.16146640404373 4.603053723566362 3.850188765287503 2 -1 -1
487 1 27.803176190586186 -0.3313252031939241 2.105647343239341 -2 4 -2
1134 1 22.149637445634212 13.939168982497316 11.1661167184498 0 -1 -4
709 1 0.4323978396937118 12.777974716463484 6.4384174058786465 4 -2 -1
1091 1 1.3768527007345996 6.182501024745819 3.8925300003683256 3 2 -2
506 1 3.7019590952246064 6.464175339260065 3.1053652532905196 4 1 -1
765 1 1.3750305171050985 8.2047116506495 2.377899499425482 -1 0 2
313 1 1.6344131479043078 6.278472480846513 1.2595131823247347 3 -2 -1
1936 1 3.559425069404565 7.931841084440933 1.1746631960331533 -1 2 -1
985 1 4.85892813393987 4.628824247812305 4.126994076479571 5 -1 3
1520 1 5.340830058280841 9.726721083036582 0.7590474632881627 2 -1 2
590 1 25.00068902830848 14.168387091746721 11.254446870248866 -2 0 3
1449 1 6.064884557321007 7.570819692744417 0.5843928908033471 -1 -2 2
90 1 5.969569829907438 5.3155303068719375 2.0854992378239356 2 -1 -3
1523 1 5.936165251477068 6.877638930167865 3.940741979597986 0 2 2
1599 1 4.099010166368147 8.758018373690609 3.608028875981617 0 -1 -4
432 1 7.732579322712228 9.635404695948008 0.7063769857311917 -1 2 1
364 1 8.076701144810805 4.801475306810396 0.9639156762226468 0 -1 -1
1613 1 7.604192595568776 6.941875280011152 1.9884550434863706 3 1 0
818 1 10.695236093752447 7.511626499921297 2.975919197709434 0 0 1
1068 1 9.649290579307154 5.557563123348414 2.698316546467959 -6 0 0
944 1 13.063871163786155 8.127752585742616 3.4496780922488357 -2 -1 -2
112 1 10.310204863689107 10.035649168903094 3.48942143028761 -1 -2 0
1349 1 11.937772205209065 6.244232887075125 1.701525486915429 1 -1 -3
837 1 9.467543676370063 8.066475220313622 1.2717892180799077 2 0 -5
362 1 14.625478983923461 5.5237839303789595 2.538431662328963 -2 1 -1
245 1 12.09467253263428 9.645459209238306 1.545416818115569 -1 2 -4
2000 1 15.442395359900546 7.882936619790206 3.1094658078719064 2 2 0
399 1 14.048992308890064 7.310551464357012 1.2158012468639963 -3 0 1
205 1 15.59735590326872 5.552606200084612 0.36035184840044154 -2 -1 1
727 1 13.484106959791465 4.6223737129311955 0.3185061779822871 -5 -2 0
1801 1 16.818705198043496 7.761122486969853 0.7110346597696187 -1 -1 -1
1360 1 23.888473857807632 13.931999193389837 7.286049148605531 1 1 1
458 1 17.97533155316337 4.169026145736336 1.007097945646946 0 0 1
1252 1 17.191781598647488 9.908800064954775 0.13252027227853425 0 -3 0
1769 1 20.20958654290492 4.645271028357805 2.0260440895493264 -1 1 2
1268 1 17.463961115423203 6.132484786386235 2.440695486581139 -3 2 -5
497 1 19.48116808029365 7.576466214115751 2.72072627859706 3 2 2
1492 1 19.005633800326034 6.267598965792605 0.5201552938813716 1 -1 -6
1725 1 17.925344106913883 9.221164785997068 2.385614041643043 1 -1 0
358 1 6.898511226029111 13.81751810966019 0.7470469478427186 -1 -1 2
935 1 22.18887639698228 4.737794402003303 0.1399817649576851 2 0 1
1339 1 21.401247391843707 7.787399857055778 0.9635765056695738 4 -1 1
1807 1 22.17779373376053 5.864476211933421 2.175853612789971 0 -1 -2
437 1 24.11362699041584 4.908857954810058 1.0644372332971417 -2 1 -2
705 1 9.817118772080248 10.665154210125571 0.3095761711481243 3 0 -1
1400 1 24.040383732019194 7.348353167532755 1.9116577400581427 -1 -2 -1
1074 1 22.04858454219248 8.154481585015473 3.1382053082895522 -2 1 2
189 1 24.10998645600323 5.462017789841993 3.4425199506031556 0 -2 -2
1793 1 28.378979254455384 4.2067980993253 1.6557937289633635 2 0 -4
866 1 26.108636802206927 6.279354225937834 2.0075864092887192 1 -1 2
1741 1 26.63730568417228 7.566779832585823 4.453639799018358 -1 2 -2
839 1 28.592088353531153 6.52934815719419 2.8006551014875227 3 0 2
1052 1 28.663159773194167 6.497743606843451 0.20481321784475248 1 -1 -1
1597 1 26.140511476970037 8.852224708469128 2.258740923456565 4 3 -1
457 1 28.475130352466223 8.794201015194028 2.543323877982148 0 1 1
710 1 26.181658029867357 7.164597446108951 -0.16592382390052968 -1 1 1
241 1 11.83799288262523 -0.3114893270903896 12.082963611717796 0 4 0
17 1 1.484111065462145 10.990726406615444 -0.2419720922661891 1 2 -6
977 1 1.924321183757379 8.537736535827749 -0.5228060778693877 1 1 -2
1515 1 0.6131707125177379 10.717694131403281 2.0669757563388456 1 -2 0
184 1 0.5684875940264893 9.842499117203497 4.296495985550752 4 2 -3
2025 1 3.107411066377389 10.211754163252865 1.6937227372875188 -1 -1 -1
695 1 4.13210020782748 12.28194236545514 1.099165733224171 1 1 0
780 1 24.984843080973548 0.020030855002511228 4.651867611758539 -1 0 -1
878 1 1.1138589393401872 12.247001359364775 3.9208531877085706 -2 3 1
1076 1 2.826443806906268 10.431345729829657 4.222728321406993 1 1 -2
874 1 1.687987639320915 13.03647930935321 0.8522108097816123 -1 1 0
1483 1 8.309424501551783 13.660146626737289 2.5235925452218098 3 3 2
1782 1 8.547898310086442 11.02660374612621 2.419388449501052 -1 3 2
875 1 4.976176011756774 11.17953784715166 3.2250972005541447 -2 0 1
1844 1 6.476464018180281 11.688055614219195 1.29824778149326 -1 2 -1
1902 1 6.616308512094948 9.369944924471472 2.7771440742743603 3 2 3
836 1 19.324372941628088 13.851246331368195 5.374689436128447 1 -2 0
334 1 0.18913387395728565 10.209591238757385 13.920926321250805 2 -1 -4
783 1 11.016840922856929 11.917954661910708 1.8816557284842674 2 -1 1
66 1 11.777074983724436 11.77994429964263 3.7905944254643504 0 3 4
1825 1 9.32166377049652 12.905981566812544 0.6791900083783615 -1 3 1
237 1 13.203858321109422 13.675570511117801 3.1875578596344765 2 -3 -1
357 1 9.496468473451772 12.218194828721847 4.155731852656786 -1 2 3
620 1 11.906337777480484 13.98902820188488 0.7534233134360606 3 2 -1
1239 1 14.360660074581954 10.717937733640824 3.944896582143822 4 4 0
444 1 13.281861234066103 11.797765573067203 2.0111452682431348 1 -4 0
1699 1 1.6374511407266756 0.21176578787260036 0.20208748559162315 1 1 -3
609 1 14.728155443603299 9.545575897146973 1.4487532801270397 1 -3 -1
942 1 15.02207509135634 11.460225734751528 0.0362930677374409 2 2 1
137 1 17.640250133061762 0.02129500426358666 5.14889676442433 2 0 -1
318 1 3.2467871255397456 0.26206770720543915 6.126151082524285 1 -1 0
21 1 15.894027230059521 11.377301961462779 2.2498722818582504 3 -1 0
926 1 12.850039543225062 -0.1839541516357885 5.664231157197376 0 3 0
277 1 18.6940634355643 11.459430663534725 1.105270634388728 3 -2 3
742 1 20.6123931700714 10.066078244180952 1.9558517574254464 -1 -1 4
1398 1 19.172454692586523 10.914927414094135 3.652086296870901 1 3 0
1023 1 20.307751085345263 12.747801864652955 2.385443268119884 1 -3 0
930 1 18.063496826793774 12.916290769475037 3.3069827087227472 -2 1 1
328 1 15.380451533054512 2.2156981653007906 13.806406822224332 -3 -5 -2
691 1 22.46007574958457 11.190091328352826 3.4351338669530667 -3 -1 1
401 1 21.24323863732801 11.936112959976414 0.10702843162512321 -1 -3 -1
2032 1 22.739078464933197 10.1890735968406 0.9522478873607991 0 1 -2
430 1 23.180071336221577 12.519846259467288 0.9742672846407967 -2 4 0
1286 1 24.388326997691905 9.291297761119589 3.405837399514629 -2 2 -2
864 1 25.07292847412642 13.71093022083054 3.1568108453404027 3 -4 2
1396 1 3.3042118393238185 6.130883521482237 -0.29656118549193605 -2 6 -3
1771 1 -0.15370548836699655 9.033552352275953 0.29444174318803507 -2 1 6
179 1 27.878766303489865 11.243179992313856 -0.46106245720447775 2 -1 -1
1626 1 24.409266446528104 8.897228103851361 -0.062701391976967 -1 -1 1
678 1 28.511999407827826 12.616418829692046 1.1934048889251334 0 -1 3
986 1 24.804577801781605 11.26990038532848 2.091947922233349 2 1 1
412 1 27.20649935266035 10.571148302366339 1.7403505566293211 -2 -1 -3
222 1 25.586963558555087 10.68602994729788 -0.4757393292121932 -2 1 -2
786 1 27.222788843242633 12.520557373242136 3.12003097038219 -2 -3 4
1860 1 26.281163552966735 12.76060275897091 0.5055442232549374 -4 1 2
1434 1 26.286651541587027 13.857393038182918 5.271387673938801 0 0 3
546 1 1.6161362449215773 0.1505717273150835 9.441376859163547 1 -2 -1
514 1 3.0558954684067996 1.795887941570411 7.899077558193062 2 -2 4
1391 1 0.5758325948253114 2.638317332659157 9.068004158069265 2 3 -3
1418 1 0.8972838895724313 3.3482617203839924 5.651834944121984 -3 0 1
570 1 2.925117343674953 3.9462360251942146 6.262054056794507 -2 -2 0
1048 1 3.731761808011427 3.7952322514656807 9.177476996953793 4 1 -1
595 1 19.52363843722937 -0.02332438427591299 0.09820159295296049 3 -3 2
489 1 6.059331116469722 1.0770674526800366 5.949423601710019 -3 -4 1
899 1 7.110083043380726 3.0176748487726406 5.332404235594285 1 0 4
667 1 5.592925200917946 3.5075897049558336 6.977272207315424 6 4 -1
1731 1 8.59810020718365 0.44398096175974555 6.594996134109414 -4 0 -1
1700 1 8.9858804250548 3.7955079635357256 6.957342302266237 -2 -1 -1
2016 1 5.385300881045609 1.7562439047742462 8.820573022076195 -2 1 1
592 1 7.545351863128834 1.9862321847949804 7.858596583230261 -1 2 1
1808 1 11.762385345482924 8.166797964386591 -0.12552088041303144 1 1 0
1543 1 9.954969749506517 4.02207501387153 4.490000024629144 1 0 2
1950 1 25.123433187378083 11.44978350173657 10.97400251912802 2 1 -3
1813 1 8.911997309836565 1.8209145280662464 4.447497085065586 0 -3 1
823 1 9.656402717651718 1.6587491366763927 8.517977378574239 -2 0 -2
1519 1 10.800460467262415 0.7796380182941471 5.499446463392486 3 4 1
224 1 11.071808598988621 3.0319525649418355 6.151017732028134 -2 -2 0
1941 1 27.472163115776844 0.7213077314703122 13.92269866927016 -5 3 0
470 1 12.272429066434452 3.044531549834425 8.569322830154096 -2 0 -2
1137 1 13.674936044485746 1.966776333599229 5.42164929177311 4 1 1
301 1 12.994523502362906 3.8678541397472364 4.28487402799817 -2 3 3
1764 1 12.074493242197743 0.8031306730118124 7.653727181864925 1 -2 3
966 1 14.135333556831862 2.2135509556896844 7.732420048140092 0 -3 5
49 1 15.303459499466186 3.7695000814689825 5.265523758297638 -2 4 0
212 1 16.240758676818256 1.6066823858612724 6.324525478121985 0 0 3
1431 1 16.419001648092678 3.7459785751888406 8.039590916059266 -2 2 -1
815 1 17.150590638413618 -0.46693838086274914 8.021713501484916 0 6 -1
618 1 4.74311418219176 11.45481943114969 12.49434398574831 -2 -1 2
1567 1 17.76777742433381 3.676728834341083 5.0072757058303665 3 2 -1
296 1 19.090266918326368 4.055353781733813 7.2996487550439815 -1 1 1
1698 1 20.070807694720987 1.2332323175720583 7.536188942246795 -1 -1 3
1493 1 20.438774263778733 3.9450640895588585 4.67890758114457 2 -1 -2
35 1 18.17270026763267 1.8948934092777288 7.484259318441358 2 3 2
2043 1 19.34842090515155 1.9040403287694958 5.369415524664085 2 3 1
1498 1 18.855563711106104 -0.2453837563114185 9.356398809977273 0 -2 0
788 1 9.042024316932203 13.455762033340667 6.286073616557792 2 -1 2
1804 1 21.722237365086546 -0.3004633510805016 6.542105167685772 3 4 0
1301 1 20.71248473428945 3.2675678179988306 8.818783831541031 -1 0 -4
2014 1 22.189812713124347 1.4654413586900445 8.17315707270591 -2 1 -2
522 1 24.322558925022467 0.4800837071707027 7.243880942790191 2 -2 -1
992 1 21.848168821409498 3.1789505532644307 6.628790550388721 0 -1 2
1159 1 23.022049012751896 2.7950842850068045 9.916951910268219 -3 4 -2
1316 1 25.003261383041774 2.925950198887885 5.897186999657421 -4 -2 0
832 1 0.6997299447306999 0.9167595018206174 6.988325867569737 -1 1 -2
1300 1 25.357817528596893 2.205903091216676 8.783097519428818 -1 0 -1
605 1 27.42056183509509 3.130229555506349 5.223163655976664 2 2 3
662 1 28.792283586965137 0.17443203204537994 8.968052234052756 -1 -1 -2
2035 1 26.548901714473082 1.1712650713561414 6.296038174994386 1 1 0
253 1 28.151968042330747 2.0985902710896136 7.551150085749487 0 5 4
520 1 22.585303825815128 1.0245234536399117 11.39924597951416 -2 1 -2
767 1 2.2697489845614305 8.258930971791639 5.274223985967964 -1 -1 2
1325 1 -0.5481879021737974 7.901971797690273 4.564317890813247 1 -3 -2
672 1 1.6950014122484447 4.522177559120861 8.156932522175454 1 4 -1
1504 1 1.5771888166830492 5.492056537128366 6.30373171063938 0 1 3
1886 1 3.6406379524326935 6.070697579892478 7.9778408919981185 1 -2 4
850 1 28.860631944057033 6.275748356910532 8.290779887065908 -2 3 3
103 1 2.942887273640702 8.56946912842588 7.62501302372986 -4 -1 -1
904 1 4.578472970022496 8.935149495112976 5.805039404272916 -2 -3 1
533 1 8.124723821429763 5.812978037043055 4.220557051248876 -2 2 0
438 1 6.42973748317917 10.220120393658757 5.146560133554578 1 0 2
862 1 6.026167228546132 5.641307570493524 8.291237795430618 -1 2 2
290 1 3.9280154679679375 6.163647294359044 5.7349103728067075 -3 0 -1
1592 1 9.048210579276638 5.780902038812556 8.96408093139342 2 -2 -2
116 1 5.489789153842963 7.739492685516444 7.765982775889656 0 0 -1
1691 1 6.945065507868101 5.393652789515317 6.081806813335753 0 3 2
1378 1 7.23172478373551 7.938903112696716 6.398251152263106 1 0 2
1205 1 7.746704128914201 8.23968099540927 8.847653952701382 0 2 2
1299 1 8.523311927780986 8.22029826065352 3.8344346900811885 -1 -1 -4
1206 1 8.714725692250688 10.282108323868208 5.12366544212554 -3 -6 -2
1413 1 10.367743109340594 3.8065826397095828 9.240667935545488 1 2 3
1369 1 11.394599915981807 5.721931329637434 4.138749021119038 -1 2 4
690 1 11.60923092206219 7.42762312324326 8.565987512689908 0 2 1
175 1 9.333339444014156 6.845054739444063 6.8969095337511 0 0 1
303 1 10.58526614927239 7.995600762653172 5.245237941574484 -1 -1 -4
7 1 10.74424857634479 5.1750698655474725 7.174056383667158 -1 4 -2
473 1 11.9304107369606 9.420425739458759 7.31593366394779 0 -1 0
976 1 16.123897682949305 5.558009211630847 4.209255796850117 3 -3 2
1128 1 13.067661980245425 4.266365173576066 6.796074592522789 1 3 -1
1761 1 12.287765529925158 9.929672958766217 5.028252448514699 1 1 1
833 1 14.026245613385509 6.17078188180516 4.800347617451795 0 0 2
1642 1 12.294611060066618 6.741543193818206 6.296119648263944 -3 3 2
1568 1 14.863328922795734 8.415823796644087 5.30549767009802 3 5 -2
40 1 14.884910044179868 5.851128833923445 6.927672558620922 2 3 -1
1500 1 14.042609232074572 7.947018058869681 7.549405046889831 -3 1 0
1609 1 13.305805566887233 5.464227855037254 8.877561026085765 3 3 4
873 1 16.70576770854631 7.127326470795397 8.488168717655267 -1 -1 0
1164 1 18.97492127778666 5.680123926907829 4.395541033539611 -3 -1 1
233 1 17.087622024601263 7.651712940024279 4.519274617132261 1 1 0
1750 1 19.46123209210879 7.3926299183191855 5.869697227705402 -3 3 1
851 1 17.279902355823243 5.826201693704126 6.3619813105699645 -3 -1 -4
673 1 16.555348340504754 8.640862996252292 6.738661182986756 1 2 -1
1140 1 19.65646466798825 8.912165578446286 8.066157357410956 -1 5 -1
196 1 18.96817919866414 6.740935668263912 8.431819883221111 -2 -1 0
614 1 20.06410620443172 5.593800837540016 10.136047796608842 -1 1 1
1141 1 21.86327816822886 8.259914171088509 6.086016088020134 0 1 2
532 1 21.396611223047916 6.339446347836141 4.569210165904103 -1 2 1
83 1 23.931515973770797 3.6408827447647027 7.557291826164555 -2 -1 -2
1136 1 20.639643286482656 5.4357541396967335 6.727841928219645 -1 -1 -1
1616 1 22.795908889036152 4.412142182811814 5.068759701844106 -4 1 -1
104 1 22.895678603082313 6.407886536713932 6.330842037707658 0 0 -2
117 1 23.35996809856224 9.374070380426078 7.672881767394568 -5 0 -1
243 1 24.0912036727064 7.425597202635124 4.764476709650393 -2 -1 -2
1839 1 23.69949672947577 7.028322889739295 8.746459808892677 -1 1 0
115 1 22.418720735754693 5.153750215553197 8.691517443497293 1 1 0
1009 1 -0.41708887541459094 4.188969287595361 7.601569168141371 -2 -1 2
1255 1 27.48006788439088 7.540655988770176 6.568265426032588 -1 6 3
1430 1 25.629995898864404 5.705349393376653 5.706617444063568 -1 2 -1
193 1 28.628982996805327 5.8021343445172615 5.565172963812889 -1 0 0
1638 1 26.275659737488937 6.295950957692801 8.439917065340298 -1 -1 -3
1372 1 26.67345440194482 4.067021136169912 7.457385367272876 0 2 4
789 1 25.256323814907617 7.430704428954932 6.968023211927294 1 0 -2
1348 1 28.096803997401455 8.445657715225538 8.656149795532395 0 0 -1
297 1 25.591931145463196 8.85569196351884 9.115222970667727 1 1 3
1251 1 0.479089919119442 7.947333149106491 6.977950706219985 -3 -3 -2
1914 1 18.23414555727674 3.0938279893437315 13.733200878596904 4 -1 -3
1005 1 2.987694309404547 12.32153589120572 6.08168339114783 -3 6 0
194 1 1.9044892670476652 12.313254196113878 8.515249935146892 -2 0 -1
1593 1 1.6963155071345706 10.364911081347302 6.864061016714576 0 1 -3
1412 1 3.91038673073263 10.481834147150037 8.244145801812605 -4 0 0
226 1 28.4120692817599 11.551556116184024 4.643268375882221 0 0 0
395 1 4.319946157055859 12.800692274820925 8.140957990051822 2 -3 -3
952 1 3.1541926389318506 13.013820153930082 3.431279991613148 1 0 0
548 1 25.924619679852587 0.517782859638185 0.12517861306023437 0 2 0
1551 1 5.178971111236151 11.551521460757138 6.400584678987859 1 -3 -5
273 1 22.48244371477688 14.137575444031016 2.8142579485096615 0 -2 1
1376 1 6.561540104563012 13.590488541606588 7.12660233375406 -1 4 0
1272 1 6.357736443894868 10.157572887947094 8.162521148499469 -1 2 3
109 1 8.127379797838032 10.771907426130651 9.61070515853032 0 1 -3
119 1 7.932285138282637 11.378333593006372 7.091446654637087 0 1 -1
1758 1 10.295695519762301 13.799407955019035 10.537861427568945 -2 -1 -2
1727 1 10.740600456780259 11.265161387860072 6.249185447542992 4 -2 1
732 1 9.885481780757464 11.930769133897387 8.402583936253926 -1 -2 0
11 1 9.425539477392288 9.299390984165406 7.3328085819353275 4 -2 -4
1241 1 12.131834921006497 12.325213064442792 7.928373570530043 3 2 -2
1577 1 11.476736199051828 13.806792514433042 5.097142707635495 4 -1 2
1849 1 26.837167873664097 13.255859000756143 12.968853513410798 3 -2 -1
1133 1 15.842373133449293 13.581526263304568 5.498121069983085 0 2 -1
1591 1 16.479391439381565 9.962692940915288 4.1995980646210995 -2 3 0
419 1 18.493045417164915 0.003167095868174652 13.913402007414975 -2 1 1
1110 1 13.603579681209785 12.324251265957049 5.248455321789974 2 2 -4
1032 1 13.810863799322718 10.65918061364561 6.867984309296466 3 0 1
1235 1 16.00206298766588 11.082829137568783 6.530909550382802 -2 2 2
485 1 13.877913878514207 11.456637594381805 9.731728238015815 0 -6 0
474 1 14.29167533387793 13.12734479476442 7.353111236351752 0 -2 3
1565 1 15.736343295329004 12.431337277585975 8.776660745022873 -1 1 1
795 1 20.716383477557493 9.475907446067053 4.56483598248244 2 -3 1
1355 1 15.237545057480418 9.807279716604604 8.667686660535807 0 1 0
940 1 19.922741009365673 13.460963894134416 7.91281073796068 1 2 0
1673 1 18.07675949506705 11.667923695747923 8.21653667900634 -4 4 2
684 1 18.569015424613195 9.664477516177485 6.092408445958319 4 2 -1
2033 1 17.240207520361096 14.00158515642468 7.422064381308276 0 -1 0
1916 1 17.92305116636449 11.999852598694927 5.6638263925934185 -2 -2 -1
572 1 24.55037599323436 11.207641873250475 8.745989340366027 -3 1 -1
1022 1 20.1602079615593 11.266969434165222 7.038601849196922 4 -4 -2
1655 1 21.50940938994926 10.493796721737208 8.751207631459753 -1 0 2
752 1 22.273801175144122 10.640929914510842 6.161978502116728 3 -1 1
1309 1 21.701709367471707 12.971171021038913 4.958827383813579 -3 -2 3
262 1 21.84729176848865 12.598617323846522 7.5126411552175885 -2 -1 3
55 1 24.46809604462681 9.689530643797502 5.639637889762707 -3 -2 0
1531 1 27.55076083037325 10.968668596247587 12.139487889152603 1 3 -6
619 1 26.76799880961193 12.089490097039437 6.321161887454788 2 -3 -4
466 1 28.595101940156496 9.883129391838443 6.501460535693452 -3 -1 2
257 1 24.337578229441963 11.956132114395212 6.500025792924794 -2 2 -2
422 1 26.72054150211201 10.452742597148065 7.57500734590475 4 0 0
298 1 26.59572695985418 10.1183092436883 4.410762114845191 0 -1 -1
1881 1 24.628296089124017 11.7906688464528 4.272220082675137 0 0 1
1101 1 -0.243323575482921 11.421571079262334 8.37646432830904 1 2 3
725 1 25.99904062135123 12.89683249319228 8.360746016458318 -2 2 0
1872 1 2.425103970650095 1.253860181804543 12.433246912746707 0 1 1
1225 1 0.7015365105851359 1.705757608846207 14.082405206432359 -3 -4 -2
967 1 2.161368221517583 3.0725259205012407 10.45040852888781 -2 0 1
797 1 3.2204731919525895 3.7825469189134875 12.377188579484963 3 -3 1
1821 1 0.4983346116575216 2.933345672905941 12.005210172399776 3 3 0
1554 1 0.3636575079270916 4.841094137364941 10.62623733773919 -1 0 -2
1981 1 5.806556250688879 0.4830023708037663 12.467335113002765 2 2 -2
1499 1 3.614746008884696 1.2753165407683213 10.157437350354726 1 0 3
1018 1 5.380335607100426 2.470995615267999 10.917976181395614 3 2 4
1623 1 7.5386861862224634 1.8777776429603903 10.326017559303788 -1 1 -1
1572 1 7.5270587424671405 3.4614983657108978 12.199053067195466 3 5 0
1931 1 5.260997588389271 4.546066583624056 13.096801613308424 -5 1 0
1547 1 4.127196242670246 2.327942495359033 14.014744687599983 2 -1 0
256 1 27.843890500875023 2.1074869980144335 0.3794516733887021 -4 3 0
1310 1 25.122748805102574 10.566690283797298 13.460769922626337 -3 1 0
1540 1 8.057160420846321 -0.07732986319375412 9.305235652375908 1 0 0
88 1 9.664052933867262 2.736303647051426 11.273357274955572 -4 3 2
145 1 12.753583839328646 10.267090696228012 -0.4247661779116103 1 -2 0
1848 1 8.312986548765377 1.2292715177000786 12.98685071693449 1 1 0
1259 1 11.456302296166594 1.388433452723435 10.18810323924455 -2 0 2
1262 1 10.938907144658009 1.73652603211799 13.23528213666301 0 3 -1
1384 1 9.42694831798741 3.6054503153799793 13.445690341894478 -4 -2 0
1417 1 12.075814937983376 4.019732758490351 13.146224153679096 -3 -1 2
558 1 13.713380521159158 1.45192230893681 9.839631491856764 0 6 -2
555 1 12.685769964182015 3.5470013327451246 11.008106592756043 0 -3 0
1840 1 26.456045008419988 0.24335220651073508 8.635705313731156 0 4 1
1695 1 15.39529353038449 1.807286877603174 11.49555175447755 0 -2 -1
1443 1 14.138780565255818 -0.3121885121957597 11.506799026097173 2 2 3
322 1 10.258681315766474 5.846701638503271 0.29448506649918904 5 1 -1
146 1 22.686734195439247 5.234369067180071 14.139011897442797 0 1 -1
1649 1 5.551212299248729 0.09950879998477502 10.143150743013976 1 -2 -1
2027 1 13.174588731428399 1.708353275152224 12.497434220266678 0 -1 0
1719 1 16.394376353000165 1.7935219880527207 9.04584249234633 -3 -1 1
106 1 18.610764450218145 2.6797605689944066 9.83436273307373 -2 2 3
884 1 20.877786722726178 3.9363364607293247 13.61232590658792 0 3 -1
1606 1 17.847563177312978 1.3083710509923336 11.732997230707536 0 2 4
924 1 18.815503731209315 4.377216511870646 11.883178562399653 0 -3 2
93 1 20.38513734168784 1.7076486488448945 11.868972297233029 1 3 2
554 1 16.783502776290074 3.709731207351984 10.797691431042288 0 1 -2
1732 1 16.388416441444527 -0.030580556467727837 13.05547645385111 -2 0 1
813 1 20.823642271611554 0.9717529387673136 9.804238262797634 0 0 5
722 1 24.51071345762549 0.43725325338362775 10.220013600853221 0 3 5
1314 1 21.0939705287113 3.7700423445904923 11.147702069467925 3 1 1
1263 1 22.914710275158498 2.6814851146025593 12.640982873144944 -4 1 -2
863 1 24.788985639598216 1.329623329517045 13.070103440565605 1 3 3
1080 1 14.43970058723606 -0.06832942725801278 8.239231477627811 -1 0 -4
394 1 28.647588475338246 13.801060640471926 9.253455786854216 -4 3 2
552 1 23.646961334877844 -0.05500765889253739 0.01130717609567422 -3 3 1
142 1 24.703130631384095 3.994596541856639 13.53859067276008 2 0 -1
1095 1 25.220640206979223 2.6344699419944955 11.193398406714971 4 2 1
1733 1 26.484148439400656 0.54981201805207 11.756242741019557 1 1 2
547 1 -0.4838327119443782 0.6934623964096829 11.880161210193945 -2 1 -1
128 1 27.023832848832512 2.952002661371766 12.71255449559568 -1 1 1
200 1 27.23975636079262 1.813349423301085 10.015090269420453 -4 -3 1
1385 1 27.628559435059817 4.235594366905854 9.96841490810007 -4 1 0
190 1 2.026030985454618 7.919925093572472 12.38632238014257 1 -1 -1
655 1 -0.1970329894823291 7.349540666710929 13.346048227919711 2 0 0
635 1 1.6631466504249564 5.380870244695977 12.427853520073707 -2 1 0
1905 1 3.8168467135543525 6.273869350713991 12.267229684479332 -1 1 0
1677 1 2.7846508188249497 7.9424812614669555 9.860089647843067 -1 2 4
1481 1 2.6641627847715865 5.802475344004096 10.342386859164183 0 1 1
414 1 0.22064842291255493 7.014433839079329 10.763869502424066 3 -2 -1
1763 1 22.42055052029275 0.45239588108527884 14.020401828030737 0 2 1
1650 1 1.5815783409153266 6.958602474156737 8.512542212199515 -1 -1 -2
1874 1 5.2164499862773175 7.690744992687565 10.156022560450744 1 0 1
809 1 7.757398689859203 3.911033456294505 9.110761430243334 0 -2 1
1221 1 5.187128958632862 4.8180126264173 10.642863380234834 -3 -3 3
1085 1 4.021760366086416 8.972267750518371 12.15376614256544 -6 -2 1
1077 1 7.170851274347354 6.367622231425175 10.236871969303955 1 0 2
615 1 6.337253759310386 6.927820044422965 12.33017469056936 -1 -1 1
1335 1 9.045843884049047 7.1966281338671685 11.431427490309733 3 4 1
107 1 6.926597849234757 9.054608441313482 11.092552957874112 4 -3 -1
459 1 6.05047623667367 9.47095421810443 13.51981264537064 -3 -3 -1
2041 1 10.1771850944907 7.754376961409834 13.652542195207728 1 -3 0
400 1 11.742914322827964 8.092565357086977 10.859194363201132 1 0 0
650 1 11.252612538857022 5.718567273018013 9.958211236100219 -2 0 3
1786 1 10.58000027661147 5.671901428427175 12.706355378274326 4 -1 -1
325 1 8.849458598099538 4.870103087548708 11.070248150204838 -1 4 2
1524 1 7.5005194978041505 5.49154294220232 13.921862819897475 0 3 3
1270 1 9.911209546510841 9.002918659311813 9.832324977098288 2 5 -1
188 1 9.511171305875868 -0.4592323797263721 13.880969664437991 3 2 2
1163 1 14.769019322174692 3.807888431377137 9.479580837343626 -3 -2 -2
1694 1 12.329500586182599 6.386999444715047 13.808655639170475 2 0 -2
911 1 13.659308262929724 8.085330431224193 12.318568247601053 3 1 -2
1528 1 14.308957670581389 3.972256395143445 12.917025553671955 0 1 -3
1535 1 12.733861345878305 5.745198616870403 11.60403708422311 -3 3 -3
1829 1 14.95215021710547 6.638070530810616 13.260300887244782 1 4 -1
2018 1 15.291218848811557 5.5685855260645045 11.26299102712882 -2 1 -5
1958 1 14.366817513269275 7.410785397256941 9.993016902927168 -2 -1 1
1765 1 16.25038490555481 8.049466476068178 11.313815646594582 -2 1 1
1658 1 19.293552398317726 5.5926195348417735 13.697183452150568 -2 4 3
99 1 17.892922488668045 5.11288614890825 9.27829219370762 -4 2 1
1617 1 16.725792635274676 4.938546316315733 13.10522330696477 1 -2 1