LAMMPS data file via write_data, version 29 Oct 2020, timestep = 300000

2048 atoms
1 atom types

-0.2656196948466647 28.61761969483745 xlo xhi
-0.2656196948466647 28.61761969483745 ylo yhi
-0.2656196948466647 28.61761969483745 zlo zhi

Masses

1 58.933

Atoms # atomic

1324 1 1.1916401186942964 1.256447937649315 2.0172541804008075 0 -1 0
642 1 3.464191204733617 3.3482768526601214 1.6895722252630399 2 2 1
473 1 2.8759102202482834 2.439827420323323 3.791451866025576 1 -1 0
909 1 0.9707561548539057 3.558491462481361 2.376949311308474 -3 -1 4
1803 1 0.41396921620058 2.7487930585311497 4.5617494943520835 -1 4 0
430 1 0.7606834303316377 0.22688539570721572 4.165934822910582 -1 5 1
1296 1 2.9940508650675297 -0.2341656281855461 3.5665086965872543 1 -1 -1
525 1 -0.24879827617581718 2.4687970526681866 0.23804658348193208 -3 0 -3
1484 1 14.30538365988546 13.87162274358221 7.373593698599507 -1 2 -5
142 1 4.124251345066489 0.8278823573761109 1.6042979000852797 4 0 -1
1192 1 6.450221689868798 0.45154425342611504 1.4393132876666512 -3 2 -1
230 1 5.8886218369757195 2.6994305948076387 1.1834162132008448 1 -3 0
261 1 5.0574047675246225 2.1420900195989407 3.228414008478318 -4 -1 3
1761 1 7.208927678100681 3.8081457453191048 2.8235547149298483 1 1 1
280 1 7.431207162677111 1.6214810917907454 3.188233543341972 -1 3 0
175 1 4.886886983170766 4.602504411482605 3.429695536283445 0 0 1
1247 1 8.263046484933037 13.862236234960177 0.033040370177447265 -2 2 1
1061 1 8.283294929997485 2.4296722788027574 1.2392409673453524 0 -3 -2
1733 1 10.546059132529322 2.247842610786499 0.867292380862819 2 1 3
861 1 9.643027140066026 3.6397786440459456 2.7149503626597555 2 2 1
290 1 10.09236623230671 1.1074972201683353 2.686056284880672 -3 0 -1
1535 1 8.76297929229414 0.029874675407937534 1.0446970258873687 -3 3 -2
1092 1 10.405334900789123 4.710178252332582 0.6154193275525255 1 -1 -2
1541 1 21.751036692204707 12.788535308401363 0.012202014964114383 1 -1 -2
1518 1 12.059953416871302 2.981637541060677 2.41379202710185 -1 1 -2
10 1 12.443227457345934 0.7000731134086974 2.628153435583754 2 2 -1
1467 1 14.25848810652341 2.4431268218726148 1.9017278714822092 2 3 3
569 1 12.923740205017982 1.4872982639015344 0.19067990272455787 -1 -4 3
325 1 15.856528635495744 3.901971250327251 3.863779474611402 -2 4 2
228 1 14.960629961687134 0.31086983463959306 2.0095679156020525 -1 2 6
1101 1 12.833204883621057 4.039986440524857 0.25229811718481643 1 2 3
24 1 27.47610133625495 9.66004092022173 -0.11987958887546904 -2 1 2
311 1 16.401127303027863 1.4263690028815479 3.9360777933796784 1 3 0
1553 1 14.241253904658366 1.6099937097262365 4.028026937695653 0 6 -1
1526 1 14.963683635052535 0.18518381138487322 8.344719054146857 2 0 1
347 1 18.117299978950236 2.9189676921994856 3.1479253737653368 0 -3 3
836 1 17.066613057240545 1.9715098817922705 1.0025545714914197 0 -1 1
252 1 18.997752653011155 0.6314414896014974 3.5753365918939837 2 0 -3
1424 1 19.27780815849259 1.9033562980123104 1.0926785482611556 -1 0 -5
83 1 18.865517824888656 4.122177710197054 1.1872331303207 -2 -1 -2
1141 1 11.909637478313272 -0.21786846412082145 10.788581173399345 0 1 2
672 1 23.83663970999499 0.2235328489152299 2.5773452765329736 0 5 -1
71 1 21.419028223623783 0.3273614453834147 3.0203381529810622 -3 2 2
1159 1 22.906207723302224 2.617645035554341 2.682437928066783 -3 3 -2
1664 1 24.001633231236987 3.397854239529917 0.40777392911358334 1 3 4
760 1 20.462687784088082 2.6849438134002988 2.94941790990385 0 3 2
1822 1 21.9962769747031 1.2054234458208397 1.1156021420379088 -4 0 2
670 1 24.29713631063956 0.9783496787550545 0.4415033216570142 -3 2 -2
813 1 21.268058842196695 3.8252164134052427 0.942249784869359 0 0 6
2022 1 24.17285217854279 3.63941267974433 4.49954681950605 2 5 0
499 1 25.24097671172475 2.291639870886042 2.093696360220055 0 1 3
1599 1 27.956036849013124 1.9096555597460627 2.476816839985554 0 -1 -4
1841 1 26.529298806617405 0.5670233441100344 0.710938419204091 0 0 2
1139 1 27.112069211580064 4.20752452691282 1.9730941636289265 0 2 -1
1074 1 27.325256590721416 0.8628041070622268 4.3462478511555975 -2 2 2
1687 1 26.269178956850276 2.9800917277466197 0.1900929063423213 1 0 -2
488 1 0.09218699964784016 14.01553184707662 3.150773922073292 2 0 1
2043 1 2.3931199656849196 4.653268311984658 3.7850421797148766 3 4 0
355 1 3.0168311280247404 5.6527024001107 1.6766377667078822 -1 -3 1
317 1 1.9160249705118773 6.9970147374373095 3.6606009684197915 2 -3 4
1473 1 2.6009391812104496 8.032720840479668 1.4768460765982718 -3 2 1
35 1 0.4415862939648191 5.742991111435617 1.812106473746455 3 3 2
1542 1 0.22926191175785138 8.2744584653839 1.765074602853073 1 -1 -2
2011 1 0.08690853451099806 5.199578928865526 4.055456867007665 1 -2 5
132 1 4.341610978306976 6.816461499256802 3.3975893689328704 3 -3 -1
623 1 3.794060045241652 8.978771988427669 3.2611906857212825 -1 1 1
1953 1 5.3414965028884795 5.174936759923849 1.268991480902258 0 0 0
1660 1 6.883622043453818 6.1801838934799 2.9841833020818322 4 2 0
242 1 4.965893396475214 7.392935824821897 1.2257230393843812 -3 1 1
1493 1 7.3490018389140594 7.320105261803739 0.6553504221899057 2 -2 -2
87 1 6.121024991747842 8.47620284233698 2.915729043695811 0 -2 5
197 1 7.800554839002109 4.8365684635332595 0.8572706918223241 0 -1 -4
726 1 9.818957907128626 6.957033212046077 0.5609540397976241 3 2 0
1395 1 9.298173316695758 6.083512219587554 2.551296229057992 0 1 0
1717 1 11.577150562835229 5.51559594312406 2.735446551823943 3 -2 -1
338 1 11.02316048410121 7.803485352843042 2.4936225030756196 2 1 -3
1246 1 8.497896508984166 8.269103981175224 2.6212255399965683 1 0 -1
1464 1 9.146824457753489 9.261379502647964 0.6707583273698785 0 2 0
1465 1 9.904035175490336 9.493120438424494 4.7751940125204095 2 1 3
1322 1 11.562695551394944 8.816919763603629 0.04468890569061762 -2 -2 2
1385 1 2.5971873363992954 13.989370718915547 2.9340291689858464 -3 1 0
2012 1 12.578432431013114 8.92167061758728 3.8391096171077157 -2 1 0
60 1 14.279732011113552 5.2774024653853475 2.170032134712774 0 2 0
6 1 15.678412949194634 6.47532246782694 3.7048988528363007 2 1 4
1651 1 13.459405722948217 6.604451222896316 4.001857919620847 2 2 -1
1269 1 13.78253151803398 7.630419349756329 1.9356814304086951 -4 -2 1
689 1 15.217645287364196 8.99929667934525 3.7281151745164918 0 1 3
651 1 15.948957010115217 7.026611776551876 1.2507069648901006 -1 0 0
646 1 12.166088823027202 6.356565804361828 0.17584467511352453 0 -3 0
231 1 1.3758128903559708 6.788667903975471 -0.23386682262649466 2 2 -1
507 1 16.227425159624147 4.637541843190539 1.2631963307871714 3 0 -1
1449 1 20.12841281601746 5.280874229438809 2.9809852081134918 -1 -2 2
1323 1 17.435660361585057 5.371466481867212 3.0562589436311276 -5 3 -1
1339 1 17.273585463254662 8.116363708357266 2.84219106498759 5 0 2
965 1 18.290951755225443 6.557933737770866 0.7525127895151842 0 0 1
687 1 20.011074411400145 7.541040444072911 2.6680989285611836 3 -2 -1
985 1 18.00222171859741 8.880305615982167 0.8161488162668844 5 -1 4
858 1 20.354131145147214 8.803089667606839 0.42278233890082395 1 0 1
1656 1 23.13067256795445 8.167852035545302 0.36459659375726017 2 1 0
382 1 20.87316205130061 6.218754567734542 0.7465552184178148 -2 -3 -1
1777 1 22.399988928729712 5.005492200465935 2.764499237993361 -2 -1 1
1035 1 22.239905498464758 7.548157316749008 2.464229899986849 1 -3 0
370 1 23.19527392458619 5.646557335393398 0.4532509069148912 1 3 -1
1751 1 23.994160061348794 5.914987351047202 4.165212471994662 1 -1 -5
999 1 24.019068716949164 9.478931725544543 2.3513202188992977 -1 -1 1
960 1 24.544415690120694 7.1704623381058346 2.100646857244893 4 0 -2
1981 1 23.36608002570585 8.258474047886775 4.3543203320826835 1 2 -2
426 1 25.003037288216035 4.5007223545942585 2.34146156547051 3 1 -1
455 1 25.78501877179837 5.395157023759215 0.2383645455218163 -1 3 1
693 1 28.185184656810982 7.325328996490733 3.8665218550714675 -2 -1 2
1309 1 26.958642496099223 6.709586654250448 2.0877784946705438 -3 -2 4
568 1 25.76632029795097 8.141006884790643 4.0185710780399555 0 -3 -3
1712 1 26.40506303052647 5.787072129552842 4.1658622868966955 3 0 2
890 1 26.394801207896926 9.092328153911653 1.9935758055054498 -1 0 5
596 1 25.770012935871094 7.7569677549915586 0.007139195482121274 -5 4 1
576 1 26.529706405383294 10.927093604517701 12.594577392559739 2 1 1
454 1 1.3006797584233263 9.120778833273512 3.791429823363713 1 1 -1
634 1 1.252108965592905 12.527226712166891 1.3722269255697603 3 0 2
1826 1 0.9968858440432351 11.837872818479893 3.3775658859369595 -5 2 -2
1251 1 3.466475375957106 11.446092927501368 2.947538593808528 -2 -3 0
1302 1 1.970570345464668 10.282299905096815 1.4720314425481942 1 -1 0
391 1 8.034472518276473 0.2940503490034041 9.495086766945002 -1 -4 -1
1848 1 3.70226894532244 12.23248749744503 0.8419268657286296 1 1 1
1115 1 4.209152323763804 9.822088587984092 0.9765927961921252 2 0 2
859 1 6.879393001082134 9.443454408594436 0.9724584720990948 2 -1 6
476 1 6.0099627169861245 11.606760670445885 0.5884313425628139 -1 0 0
779 1 5.860939553082731 10.663792327140609 2.6881455906413896 -2 -2 5
1419 1 5.148396629278193 12.953214212882653 2.5717725946566796 4 2 -1
1536 1 7.571560766472528 12.954795158473072 2.2020092273501275 -3 -1 0
921 1 24.245142826625248 12.488596608758277 -0.2223028327275553 2 -1 -1
1194 1 8.342666877963477 10.864319466757133 2.8293691574738853 0 1 -4
1173 1 8.445031808233116 11.627839815444892 0.492297704101476 2 -4 -2
250 1 9.958996980760825 12.49491810971031 2.179143466959372 0 0 -1
8 1 10.75737367225887 10.140681917735435 2.2560604258390016 -2 -1 -1
327 1 11.304975951858426 13.902619407318749 4.253954713103777 -4 4 -1
266 1 11.21726926098545 11.228100651066292 0.12090480041935314 0 0 -1
633 1 11.750286306933644 11.431704658097285 4.11991387709154 -2 1 6
1435 1 26.606727476285947 0.15731958233697801 6.506508396189548 -2 0 2
69 1 9.29027520116719 11.800275216282694 4.740595080463767 1 1 0
826 1 24.326179552223273 12.541648597321059 10.201357753960755 2 0 1
1925 1 15.572014298752181 9.27953566109363 1.0290763106697078 -2 -1 -1
1122 1 14.157408521865177 11.372797632285511 3.390010897964799 0 0 0
1990 1 12.499266171225223 12.411795620600252 1.7132104650089084 4 -3 0
746 1 13.785546252135518 13.93229469036193 3.6954025736140266 1 2 1
2005 1 15.35693932399 11.783933734642009 1.3014305905328367 0 -2 -1
1903 1 13.259151360434958 10.080675616359898 1.4204349157997085 2 1 -3
1163 1 15.984209996627714 13.010791616799976 3.02987803924006 -3 -2 -2
446 1 17.086575990236035 13.658874944866573 0.5105376431787033 1 -2 5
1700 1 19.28370577915127 9.849371328695756 2.6399982062168528 -2 -1 0
600 1 16.593397695001066 10.769099047142403 3.0721794419951873 0 -1 2
1791 1 19.69310595926578 13.55878766034597 0.7923677994073279 0 3 0
1118 1 17.71309644332441 11.128074079837479 0.49270495914947443 -3 3 3
1496 1 18.651440825796044 12.036010401342168 2.5042049018526202 2 -2 2
1494 1 19.94184268475498 11.255188058415493 0.3384933689603672 1 -1 4
315 1 19.73517809173694 13.545712969509413 4.085298585929825 -2 0 2
931 1 18.17910208888862 13.843901842284469 8.886492142218305 1 0 -1
441 1 3.2835376541384114 14.166335948508236 7.028267672880663 2 2 -2
1985 1 21.737787237724568 9.978554236808787 2.3158720194959694 1 1 3
116 1 20.972993892265784 12.25320182196206 2.3773053929925227 -1 0 -1
566 1 22.337346548726877 12.934131373334083 4.0965889676962695 -1 -1 -1
106 1 23.057209178998697 10.737717340236932 4.227816427492332 -2 1 3
389 1 23.270334685087896 11.695347778533534 2.080892609175157 -4 -4 1
289 1 22.26128759851113 10.392867965987165 -0.15105712263194243 -1 -2 0
1196 1 28.14839152885657 10.709616291354708 1.6388552369106957 -1 -4 -2
1197 1 27.976529142531817 9.938383088761828 3.813183767196983 -1 -3 0
603 1 27.583070029101513 13.174087299340309 1.469498329339524 3 -2 4
120 1 25.52250642461275 10.759096510367579 4.236493059443902 3 -2 3
1698 1 25.66664284703203 11.292553754120425 1.7465984764569544 -2 -2 4
1696 1 24.758465839369215 13.016964925098184 3.538413691303235 2 0 1
1278 1 27.078451382707286 12.274326592665613 3.6700618837228776 0 0 2
1406 1 6.989591596588636 -0.03515564480250477 11.577613595461925 4 0 1
800 1 -0.0037268761716706122 0.05714220718882845 -0.010733294031469276 -2 -3 0
928 1 1.378594448881936 0.5106804610778932 8.266205977843638 1 0 1
711 1 2.1886086403959535 1.5110040598347696 5.916456160597516 4 2 1
313 1 0.7927721375549885 3.322861687694356 8.233711815259163 3 -2 -1
1123 1 3.376284493236142 2.794566252781119 8.006951158938653 3 1 -3
1582 1 1.8391222007025863 3.8833896294315835 6.181745674242398 -4 -1 -1
386 1 3.5669791960625306 0.35250737151849343 7.696096160242488 1 -5 -2
1658 1 4.142570278046991 3.4338477436298587 5.395202672233603 -2 4 3
1913 1 4.649592518166324 1.1236535749156804 5.34999397867952 3 1 1
1459 1 6.963400798524926 0.7128688536739889 5.793732506893368 3 1 -3
1256 1 5.415340765987842 1.9448266711794804 7.362271986497892 -2 2 -2
1109 1 6.326398342072955 2.742944636195826 5.130653949546717 4 1 -2
208 1 5.1901356250368105 4.503821201592632 7.38582951554965 2 -3 4
822 1 7.276316755432761 2.4947346187718202 8.957902002944783 0 3 -3
184 1 9.429317062085653 0.12625794144163316 4.969834025690991 4 2 -3
1799 1 7.985677243711162 3.879179889510832 6.937082516382939 0 0 3
1770 1 11.011288714208485 0.19667250250313262 6.742300124453949 -2 -1 -2
1909 1 11.61529628017912 1.5647183398728162 4.720676153410462 3 1 -3
618 1 8.925307038491349 2.552492701576168 4.86572591186293 -2 -1 3
1650 1 10.399078320444687 3.124603779344771 6.646139941934118 0 -1 -2
1974 1 8.735002894668389 1.3996960212422696 7.239932816447057 0 1 3
234 1 10.934857583102689 4.408256632539768 4.775813299495703 -3 3 2
1304 1 10.363768120052768 0.4639769792502646 9.039803051597366 -1 -3 1
1699 1 11.62951967763175 4.615627327659978 8.285013542650786 0 1 -4
1887 1 13.537209852533506 4.164406982105982 4.119138312454012 -4 0 2
1618 1 15.699494372557611 4.491588103428896 13.398024195949137 1 4 -2
814 1 11.953528080610923 1.9883438700258047 8.390175208928106 -3 -4 1
723 1 12.996195657662124 3.1427839918030074 6.444730355987549 -5 -4 -2
483 1 15.316445865511838 2.8900511824042385 6.047024962880012 2 -4 1
698 1 14.364458658294016 2.5488054986778987 8.311805438842306 1 0 1
284 1 13.335684594391662 0.7318873995874747 6.5244938081373505 0 -3 -4
1381 1 16.427546158897194 4.213126046072908 7.659868794690878 1 -1 1
554 1 18.146211926363492 0.3945230416477896 5.624123453761531 0 2 -3
1168 1 17.0311302733489 2.033788949166594 7.740182611476534 -6 -2 0
1653 1 17.514964972605675 2.73747396020193 5.744362283606792 2 2 2
1127 1 19.39768049743322 1.8224284437499403 7.402024077260242 0 3 0
1028 1 20.08803178207996 1.9832687890498586 5.276984629336881 -1 1 1
783 1 18.62095246235539 4.565204167958731 7.618553934367509 2 -1 2
1781 1 23.719610290303486 -0.009625863147967761 9.068719652732884 -2 1 2
189 1 22.740186338843515 1.677200945259726 4.8611275880578875 -1 -2 -3
154 1 21.692697720058817 3.7586651748859277 4.645500144631017 1 -3 1
1740 1 21.48070085410386 3.2452094684349695 7.247496545137656 0 0 0
1867 1 21.817360410802024 0.8061693332288966 7.346737877576316 -2 1 -2
1238 1 23.63899182875837 2.8295600672402093 6.808868515570216 -2 1 -1
1922 1 22.701215379535235 2.31145513029219 8.989181206566359 0 3 2
537 1 24.290272160808726 0.5555585916013376 6.78645881687589 -2 -2 -2
178 1 26.58056204980194 14.166212688141457 9.897562748491152 -2 -5 -4
1371 1 26.577777933553946 3.2672568270214106 4.133390015648674 2 1 -2
26 1 25.178771851314302 1.2843462290341388 4.442328211336894 3 3 -1
1543 1 15.856452701910639 0.3181664068654698 5.983267338651942 1 1 2
1436 1 28.213318327011592 2.128750953333444 6.611536237904471 2 4 2
655 1 24.732211676454355 4.0071557105278295 8.312856167810816 1 -1 -1
1476 1 26.032524749326434 2.4833478306766756 6.409125188349203 4 1 1
1075 1 27.37942617920484 3.2933144041450353 8.62192187660326 0 1 -5
1906 1 27.727163067882117 0.8964451576286008 8.597903904198557 0 1 1
1844 1 25.432063651918362 1.8551310463853485 8.694500714806983 -2 3 -2
1666 1 28.113179570334438 4.606744836090752 6.343212350134874 -3 2 3
365 1 3.0180258801211943 5.244150367683953 7.862901203510896 4 -3 -1
101 1 1.120721894092323 6.010349030227014 6.220148726283997 1 -1 4
23 1 3.0240005435675914 8.168708030424513 5.391365699218992 -5 -2 0
1336 1 0.44281696716302965 8.412928417810104 5.7381623947622105 -3 -3 -2
2007 1 2.4861410000921427 7.53402812810621 7.559890729638186 0 -2 -2
400 1 3.618992549458069 5.71368020239084 5.5603198514719665 1 1 0
440 1 0.3134306502921015 5.65916041496973 8.261101514795115 1 -2 -1
1893 1 -0.19736991056087305 7.986823491828673 8.007385377456984 1 0 2
1308 1 8.418949127719571 7.334234770723599 4.810198077836171 -4 0 -2
1793 1 6.826979628531307 5.021062944919381 8.953181969463065 3 0 -5
1883 1 5.9182406852870155 7.700992915952651 5.250165960669868 -1 1 -2
1263 1 5.969424247460247 5.281802408920627 5.3707550299051245 -3 0 -2
720 1 4.898896640807673 7.039815004163054 7.44091323038859 4 -1 3
937 1 6.718400884122503 9.077477438354823 6.970430565612004 3 2 -1
1828 1 7.488312895278206 6.4573036193459235 7.069019210738582 -1 -4 -3
232 1 6.3155915162389125 7.7559831217319015 8.931802087319607 -1 1 -3
989 1 4.238741096551356 9.377355807323804 7.1652589572254275 1 -1 -1
605 1 10.970680686816612 7.162232398972983 4.643130191538747 3 2 2
752 1 8.530270936622397 5.033831146777229 4.6145802396423825 3 1 0
868 1 9.802519797130474 5.876150743396273 6.613220820067509 2 2 -2
1719 1 9.143052143165592 8.457436169305932 6.802370240248741 -4 -2 1
438 1 10.926035565982547 6.886373002342728 8.329018291935578 0 1 2
1728 1 8.650634582033943 7.734148861179766 9.167146406842681 -2 1 2
1156 1 11.732424777378819 8.583052008766984 6.75264813681062 -2 -1 -3
531 1 9.02131962584034 5.361667547645593 8.739784650673345 0 0 -1
492 1 10.298156148771971 9.467844665251222 8.598566363174298 -2 2 2
975 1 14.271245741228503 4.895591171497677 8.337389601993129 0 0 -3
1064 1 12.338852675693603 5.777725055486852 6.292601472530542 3 0 -1
1583 1 14.770110611694806 5.596448569653506 5.946827468408524 2 1 2
513 1 13.335940858469202 7.572019644404236 8.239374634557747 0 -4 -1
130 1 14.184748646529362 7.782415122692543 5.866962363394447 3 2 1
771 1 15.636281346036323 6.684490625103753 7.765344866038038 -3 2 1
351 1 15.159489941625761 9.090309137449397 7.724079445375123 2 -2 0
249 1 19.16783115633666 4.265812936816478 5.257299176500231 3 3 2
1268 1 18.87170855985198 6.849852408450652 4.810950341270245 -2 2 -5
341 1 16.87573560517447 7.965153964101001 5.394353511365706 1 -1 -1
811 1 16.92078821472078 5.521835441577074 5.643522522665838 -1 1 -2
1730 1 18.33002444134091 6.977068978460915 7.500607423466071 -1 -1 -3
227 1 19.07212683596636 8.695991218817165 9.107458789207199 0 1 1
1969 1 19.945455785437765 8.226542946470191 6.901357900470506 0 1 2
1083 1 20.00231559564351 6.115155276194334 9.256112346906315 3 -2 2
593 1 17.728704082515094 9.203156780301251 7.427400395768246 0 -4 3
48 1 22.255203256850017 5.221211018190652 8.435191583393552 -2 0 -5
888 1 21.53590083060088 6.441186455414777 4.529244693585577 2 -1 4
25 1 20.940165367494608 8.765507304786283 4.391678337916924 -3 3 -3
1722 1 20.472491601933854 5.7636969245638525 6.861556529170268 1 -1 -1
997 1 22.58913623732871 7.513600439476405 6.37499519731258 0 -2 2
1851 1 23.29736705975788 5.240825906323293 6.332348315108531 0 -2 -1
891 1 21.394729904316158 7.634518077803922 8.537099167356201 -2 1 0
1095 1 23.80697150254067 8.698925617143443 8.572738883824794 4 2 3
1628 1 24.21302875245202 6.422594024887237 8.447567335983463 1 2 0
1303 1 25.659266885398893 4.904915072198361 6.311480452568138 -1 3 -2
639 1 25.16869738104222 7.338688949183589 6.24924748605731 -2 -3 2
570 1 27.62476079911184 6.974080271303133 6.238264747764069 -3 -2 -1
1572 1 26.695473541814415 5.8736378831027345 8.190488879665553 3 4 1
1646 1 26.946119285412422 9.15960122573834 5.877151248984927 -1 2 2
1279 1 26.21305366688903 8.300518505807247 8.309147832793924 -3 -3 0
1228 1 17.548322246911077 -0.14348963972058967 1.636261847868138 0 1 0
1639 1 1.5838576044385173 9.843002354807737 7.526457445299282 3 4 2
399 1 1.8948619485317169 12.84461199645218 5.238002833424392 -2 0 2
1393 1 2.7563412044557145 10.415157030113729 5.192591300339216 -2 0 0
1388 1 1.2320807336042339 12.38383209256785 7.427750454441442 -2 -3 3
1890 1 0.3874939299986522 10.82405104181269 5.4887187174522305 0 2 0
403 1 2.5831758010354795 13.060659877682019 9.150032308561968 -4 1 -3
92 1 3.269271063481247 10.691919322063445 9.218173579770632 -1 2 -1
1961 1 6.855698533777471 12.208845782824113 4.7850293596480755 1 -2 3
1672 1 3.4849343843815586 11.630455574438935 6.869117798955689 1 2 0
1592 1 5.077554993944625 10.32938764743502 5.19808914006067 3 -3 -1
1266 1 7.536407226869426 9.604777304709664 4.522522216878398 -1 1 3
544 1 4.502633536540082 12.732937678929419 4.758996452142149 1 -1 1
983 1 6.240221629243072 11.554203144760749 7.087518801928411 -4 3 -1
599 1 7.692364262948011 12.544013162623884 8.85913080393571 -2 -3 0
1474 1 5.882446755272871 13.93788176777686 6.598276469556377 -3 -3 5
512 1 5.500300705344502 10.540724634814591 9.080994367334354 1 -2 0
1721 1 5.132479049025763 13.049658172154421 8.848365081644413 2 0 2
1299 1 7.897413639916653 9.817523000483556 8.949351804841317 -1 0 -4
563 1 8.227088154227532 13.123441979919981 6.617712257798294 -3 -2 2
745 1 8.35344612364244 10.742555104418056 6.49339652690556 -1 0 -2
1389 1 10.405270208684836 13.044704820891424 6.178755638010404 1 2 2
562 1 9.872682622281024 12.072667364324788 8.35585181277152 -1 -2 3
757 1 11.033234294806592 10.750052408451621 6.620599395045186 2 -4 -1
434 1 12.535564507287765 12.574639409394996 7.849886140031032 2 -6 -3
474 1 12.734621903691478 10.233157770225574 8.305685750839448 0 -2 3
1758 1 13.351501452221017 10.238804240234767 5.78759249844189 -3 -1 -1
1617 1 15.350713313931175 12.712606630303972 5.55599822106692 1 -2 1
224 1 14.676371401982669 11.289284189352744 7.591157676446757 -3 -2 -1
76 1 12.723309166912427 12.611862985140199 5.660596609172974 -1 3 0
1918 1 16.15597157478036 10.634293913967761 5.3942438019007275 0 3 -1
1743 1 15.86081960957067 13.09262991972982 8.924380985133737 -2 -2 -1
1287 1 12.474469132083078 10.222873806825794 14.153512175963856 2 -3 1
511 1 18.618742726495555 9.422317275674025 4.886020127149274 2 2 3
1908 1 19.070996019794286 13.584680996869075 6.41889638245783 3 4 -1
204 1 10.825313353131225 13.684088839570757 0.480916191904842 1 1 4
1022 1 17.949070158375882 11.895358319697756 4.810307989863816 4 -5 -2
402 1 19.502606513829413 10.835883313568523 6.638621162092996 1 0 -3
1685 1 17.061051804578078 12.030902551221692 7.142591128343232 4 -1 -2
246 1 20.372402720658428 11.218867341938482 4.352809442410986 1 1 -2
292 1 23.10372422319073 13.73482443081169 7.986691549331155 0 1 -2
1076 1 21.15305204183256 10.215856360438925 8.56261429529608 0 1 -2
1116 1 20.681778736008084 12.8029616135594 8.277749560734126 4 -2 -1
770 1 22.000217327447658 12.023952233380376 6.235587656524393 3 -1 1
195 1 21.790024425137418 9.66118120861111 6.383685304913873 -5 -4 0
536 1 23.291876440281 11.362165908250859 8.035153241220222 -1 -2 0
2034 1 24.466932875435127 12.083117336399555 5.835060186586096 -1 -1 2
782 1 26.04538412661134 14.006342058296493 5.606844409347629 4 2 0
1353 1 24.120808658270185 9.604062975144164 6.184465598325198 0 1 2
1946 1 28.367028015735436 13.45012906375009 5.838225189437029 -1 1 2
606 1 27.875513685052233 10.1247688778065 7.893319591447334 3 0 5
307 1 25.519884544757353 10.801077203381041 8.036929025256228 1 -1 1
1029 1 27.74588657484646 12.589776309914 8.217980562862568 0 0 -1
1565 1 26.706937764380207 11.711951121286004 6.029540347031335 -1 1 1
418 1 25.27594975089066 13.007702416226111 7.729206069240168 -2 1 0
160 1 3.3437134850107584 1.970119260382675 13.963896483109837 4 2 0
1239 1 5.898070681933998 13.890536037757967 0.4784890248569378 4 3 0
519 1 2.8996870370291083 1.7477781421695293 10.038767866365593 2 -2 2
94 1 1.9196033458064417 0.06296448561705975 11.458381358724429 3 2 -4
1363 1 2.441927301620767 4.016088809634696 10.146485977155502 -1 0 -2
873 1 1.7812826783276203 2.954501686758523 12.224141040804122 -1 -1 -1
561 1 0.5412295440418766 2.0599786938557 10.224304008823625 1 1 1
68 1 -0.21546344377000104 4.36613081679587 10.583347858010615 -4 -4 1
1128 1 4.34097413194243 0.7918113871427519 11.85768337674029 1 3 -2
188 1 5.051838926085481 4.150743485512819 13.844000354417393 4 2 2
1834 1 5.809712850344006 1.8260113998650258 14.025001475667143 1 1 2
731 1 5.233912442391299 3.0241717075335757 9.844746726499936 0 -1 -1
1816 1 4.079801361725825 3.098075401680794 11.912254447258718 4 4 -1
792 1 6.441835864913889 2.2861661622743803 11.84258557889469 2 -3 -1
1094 1 7.525130023024351 3.800370277544163 13.480733222316367 -2 4 1
1810 1 5.2448859492347655 0.817215153990654 9.574602318444096 3 1 3
275 1 26.548006314848337 11.581089230189052 10.110220933775478 0 -1 -3
735 1 25.731736918675324 13.191769910267263 11.904352211145056 -1 -1 -1
1830 1 9.732509140931258 2.950241899493104 8.961168338576343 -5 4 3
774 1 8.262460604714967 1.1536592403738573 13.247155911413266 1 0 -3
1846 1 8.337015388360888 3.8585421252847567 10.858094341224028 1 -2 1
778 1 9.005892008121112 1.574703370570085 10.874234337244934 4 2 5
1321 1 10.083872360494928 3.025482265679346 12.636536949322348 -2 -1 2
253 1 11.340780248756817 2.0432749470928733 10.716070324777466 1 5 3
1928 1 10.522079585745974 0.7130341494579878 12.788059111832426 -1 0 -5
336 1 15.121414897721316 0.2511497813338821 11.936546728108702 0 -4 1
1950 1 12.728537490837674 3.542417635379136 12.619674755570824 2 2 -2
1258 1 13.73302682730866 1.151560444882061 9.997020239934697 -4 0 1
498 1 12.857139979937966 1.2666739065534824 12.592641642747669 -4 2 1
1662 1 13.151265185501206 3.56626533495509 10.254714693940336 1 -2 3
276 1 14.873501046191823 2.5920977652571717 12.07230357257028 2 -2 1
16 1 15.939658129257813 4.346686691748771 10.26850617730299 -2 0 -1
1069 1 25.320034559849674 9.600080130530582 10.291967718645179 -1 1 0
27 1 16.22056927520886 2.0138617649150055 13.947530237409545 2 1 -2
1965 1 16.028506465809535 2.041331056318404 10.002446063621141 -3 0 -3
70 1 17.96264878166825 3.5245010332478026 9.651033492963094 3 3 -1
1820 1 18.073058630928927 0.843377830253641 9.67057336587446 -1 2 -1
1917 1 17.820130614349594 0.8870022100225174 12.02675539596939 3 0 -1
567 1 17.187744392137205 3.1197103451902044 11.864929832471827 2 3 -1
123 1 19.612310814380017 2.3431811599347983 11.681642749871706 3 0 -5
1861 1 19.207738010482608 2.4412248959285185 14.006161916815001 -3 1 1
332 1 26.155851266107717 -0.26177880594786984 2.690343465015286 -4 -1 1
129 1 20.685846938177058 1.249452544354937 9.441420870391827 -3 2 1
1041 1 20.579829051324005 3.553832473657841 9.390391666991915 -5 0 2
1864 1 20.60376726237984 4.299668062271698 13.136275034227952 1 -4 -1
550 1 21.2358635859896 1.558371473048201 13.186568518860811 3 0 1
1638 1 23.6780769253604 2.4391926985921266 12.916802430099613 -1 -1 -3
1418 1 21.88524007367362 3.2720155842842207 11.273284460305714 -3 0 1
938 1 22.715916945245795 0.6930184349891922 11.344955833676371 -2 -1 2
1103 1 24.17742449880933 0.16036373494068834 13.276699535287094 1 1 -1
1513 1 24.70199289728103 2.7249830739358605 10.667377458653363 1 1 4
860 1 -0.17008560454514654 1.3527837824956939 12.475367018287123 0 3 0
3 1 25.291663815092704 0.18354912541845653 10.912475825290052 -2 2 2
1529 1 27.104065352271377 2.1949498314646556 10.48777125641311 -2 4 1
1782 1 25.7128884721609 1.816787526085942 12.76914987398312 -2 4 2
1151 1 28.09345409580311 3.6472137023283238 12.709928627278098 -1 2 -4
558 1 25.797809958734838 3.9930398546109958 12.62946794215363 0 6 -2
279 1 28.198099115130127 0.011793100679006185 10.637001560859918 -1 -3 2
265 1 3.635082974934094 5.335052203594389 12.077694677499665 2 4 0
1987 1 1.3126569709773477 8.608601451584407 9.590438748407704 3 3 -2
1571 1 2.032576038860442 6.59591151978779 13.992902859917654 2 -1 -3
838 1 2.934935925075798 7.606524501767725 11.85814378767437 0 -1 0
1538 1 2.076985583151524 6.396808859940278 9.747403126155747 -2 0 3
273 1 0.9334818732268602 5.370348801668868 12.271939765455341 0 -2 1
359 1 0.5348889536764455 7.862757328369318 11.63097196623751 1 2 1
1463 1 1.898497434027416 9.038739308641041 13.359549912313925 3 0 -3
1598 1 6.195587409771839 4.869261603924247 11.297071000155722 2 2 -4
486 1 4.020647753307513 8.294512591667736 9.60662389571451 -4 0 -1
1267 1 4.6467804158578785 5.813302166390566 9.427285824564489 0 1 0
1629 1 4.192639970131298 9.278058520509164 13.477744869810731 1 0 0
49 1 4.610513897918776 6.765638602802798 13.617982256713494 -2 4 0
1971 1 6.950949194751981 6.002816987296948 12.983301988838953 3 4 6
786 1 5.456708209507365 7.387984012271836 11.258323993808084 -2 -2 5
1934 1 6.498056964891547 8.664089560365413 13.21409920781345 -1 -2 1
1365 1 7.326842159652925 8.645707831086138 10.986636264562447 -4 1 1
866 1 10.790773466154686 4.504710377508557 10.770135463549991 1 -1 2
1679 1 7.977879431030747 6.267840545098058 10.910531880589067 -1 1 -2
503 1 9.17848703610193 5.2046613875484375 12.700812847024213 0 -5 1
923 1 10.329548696084418 6.998156394702015 10.798933774596271 5 -3 1
305 1 8.972383213257851 7.8174101808538445 12.725078099516061 0 -1 0
1745 1 11.428575280913865 8.599336800353395 12.684154960747675 4 3 2
1149 1 9.998236605333506 9.458660191275277 11.139966652090761 0 1 -2
1676 1 11.840233205179445 8.57639691857566 10.230351117554815 1 1 -1
899 1 11.83172868127649 5.960807595920211 12.67957391373609 1 0 4
1053 1 23.15623952613401 14.018363829527798 11.79764449173003 -1 -2 -2
607 1 14.138105557319653 5.181057907016031 11.582202785586503 1 0 -2
340 1 12.375867433490713 6.175130479500161 9.816044863154216 -1 0 -2
140 1 14.524522863373189 6.718052670681889 10.031194253595473 2 -1 -2
1338 1 13.60132008911842 7.451063991873163 12.12757323559992 0 -1 -3
1756 1 14.16918105553728 8.983278452369003 10.11301268466743 -1 -6 1