LAMMPS data file via write_data, version 29 Oct 2020, timestep = 300000

2048 atoms
1 atom types

-0.43443843430374685 28.78643843429285 xlo xhi
-0.43443843430374685 28.78643843429285 ylo yhi
-0.43443843430374685 28.78643843429285 zlo zhi

Masses

1 58.933

Atoms # atomic

1437 1 0.23656077397746123 2.839721320488229 3.5347201323653206 0 0 2
147 1 0.7381604538091218 0.5521447866156126 3.7602956106383916 -1 5 1
1314 1 1.9989051648098926 3.571405178305615 2.2050149593567188 4 1 0
504 1 0.367343022559969 1.799051575490434 1.2509484019881374 0 -1 -2
197 1 2.8332969933700523 1.5723669745572506 3.3124864359976782 0 -1 -4
1510 1 2.9605014090255835 1.7684271930822115 0.9184903357405687 2 -5 1
1713 1 2.8389782928544185 4.397595425094501 0.30668649885065336 2 -1 0
17 1 6.633648619138655 14.081344154475408 1.7642650710647412 1 2 -6
590 1 3.5368371010377437 -0.19356580270790147 11.693363193793306 -2 0 3
128 1 6.392405841027347 3.416808000029615 4.108613209509956 1 0 1
1500 1 4.18487494802592 3.6644736832867 2.0408406639158083 -2 1 1
718 1 4.346406861674488 4.057495285889475 4.383498778012423 -1 1 1
1722 1 7.04904216011452 1.7902731422404767 2.156155973589104 1 -1 -1
422 1 6.605962175426595 0.5363289806944034 -0.007747757884342621 5 0 0
367 1 6.981573145793758 4.26638863393024 1.8448188748703722 0 -3 1
258 1 5.02664869020173 1.8539531450817428 3.73069378497998 -1 0 2
1562 1 4.485753467445821 0.1416437996470713 1.8095394468171464 -1 -1 -1
1012 1 5.203449549111791 2.1973781138820705 0.7454860826035663 0 -1 2
204 1 9.08770955878816 2.84370214599125 3.043486718560175 1 1 4
467 1 9.186747754351961 3.3694918548374333 0.33666250536375086 2 -1 3
465 1 11.238649159029992 4.3022344604316745 2.2637010382718947 4 0 0
1953 1 11.61952663750904 2.7073309947767608 0.5519824907457827 0 0 0
1081 1 11.566811998876384 2.2202555732255944 3.2782987842147007 0 0 1
134 1 9.822721322612288 0.3418800595001176 3.199976230900466 -2 2 -2
1873 1 9.128382028143351 0.7323832805792965 0.7676773122522751 -1 0 1
1700 1 11.90552568206754 0.22418269211257447 1.834110204272546 -2 -1 0
245 1 16.027626599453026 0.2613885568926838 1.4213354587267224 -2 3 -4
1969 1 13.505369381394358 3.2492562860111813 2.2505598850499617 0 1 2
1573 1 14.151909511610377 1.2388783410098203 0.6886546688645967 2 1 5
1868 1 15.649840915262807 2.3508505518994234 2.6109016309148583 -1 3 -3
1223 1 14.133716022267064 0.43987014444408523 2.8848800673025177 -1 3 1
1520 1 21.80404109142458 11.044392969674629 13.941010778344996 2 0 2
836 1 12.5973237208698 4.810753477483695 -0.03000386501808694 0 -1 1
1764 1 16.533360293817456 2.04930792326601 0.3751892590023903 2 -3 3
166 1 17.95741479875492 1.1636713264412417 2.4967487109228705 0 -1 1
1127 1 17.733850766668183 3.0540102484196567 4.241399203612818 0 3 0
903 1 18.15186382420603 3.9940781488825436 -0.18596898672683898 -1 0 2
1293 1 19.348025058348817 3.243235311828148 2.207660205636542 0 3 0
1030 1 18.916609459845127 1.5707559821386594 0.5071199259897797 -2 0 2
1395 1 16.987149765314367 3.864978374662355 1.8485250660410988 0 1 0
343 1 21.44647525280388 1.9629426672001298 1.068572370065323 -3 1 2
998 1 20.64863892595119 1.2921902888568293 2.9736208581285477 1 2 6
806 1 9.093243373143206 -0.35893255886373104 5.604197593743912 -2 -1 3
1537 1 28.304155852263182 4.992065179186927 13.898218702078125 -1 1 0
1698 1 23.31974940627223 2.5013980165593765 2.351127480425626 -2 -1 4
264 1 21.782754743250297 3.788214626038732 3.3195559394447995 0 -4 -3
1145 1 22.972131192794926 0.7001303746439984 3.667563598590881 0 -1 -2
1825 1 22.475536893742223 4.283777511932021 0.9604737795648826 -2 3 1
979 1 28.784869513409294 4.2430569087840615 0.49440813964260444 4 1 2
5 1 25.578109518950633 1.246676396221826 2.239637576568991 -3 1 -1
1642 1 24.805895095205763 2.9700117071487657 0.5074996379598766 -4 3 2
1105 1 27.29043278284281 1.5436832657695163 0.343244083222053 1 3 -2
81 1 24.958602213695563 2.8923501450898317 4.124537608005716 -1 2 -1
1417 1 27.57835258058531 1.380820275325229 3.8839623652542636 -3 -1 3
437 1 26.759288769904618 3.3203216367011534 2.1252784746611066 -3 1 -2
1128 1 1.0361594051396403 5.643305443067383 1.2977126491506903 1 3 -2
485 1 2.8064942367460035 8.169739518570635 2.976794928018072 1 -6 0
1542 1 1.5964129844907093 7.738528897036311 0.4148495444631882 1 -1 -2
1301 1 0.9652502009178543 9.636831216479228 1.9987659190650482 0 0 -4
1493 1 0.47142844717640175 7.433662591854413 2.69874509670726 2 -2 -2
1158 1 2.985787719443945 5.872846407497845 2.30793959557306 -2 0 -2
905 1 3.6163083912253136 9.043516877030644 0.10118410020809343 0 2 -1
1795 1 4.811806722364037 7.6262923356580625 1.7179593563243847 3 2 0
228 1 5.281315839538754 5.294227657803074 0.42161306538447485 -1 2 6
634 1 7.2345039335085835 7.000763506161464 1.3468533064316388 3 0 2
1591 1 5.3735815179582005 5.936315628718854 3.053330003137045 -3 3 1
1064 1 6.805197185603801 8.881234735976852 3.0042063882921384 3 0 -1
1023 1 8.051779445369046 5.176008261085642 3.757311837013493 2 -3 0
13 1 8.836973716182262 7.5751773878641995 2.9841217168101397 2 0 1
1535 1 9.131961897707109 5.406276057112816 1.6597537968456195 -3 3 -2
330 1 11.419865065708578 6.69637084709867 1.3137695791046309 1 -2 -1
1571 1 9.47791061652157 8.2484253089959 0.4748265609242369 2 -1 -3
1235 1 10.879495502222312 8.465452138049288 2.7692867755304986 -1 2 1
1951 1 11.47628130936318 9.50600516101756 0.36294767202063316 2 2 0
1113 1 10.792967416085139 6.170171212816376 3.5568790083213275 1 3 2
240 1 15.06471317626376 4.399148569621831 4.173594793681174 -3 -1 2
419 1 15.761176859848039 5.880258597956894 2.4093316927950705 -2 0 1
1378 1 13.494424211032284 8.648081168225886 1.6957729712008072 1 0 1
894 1 26.42295305876501 13.521889335806701 11.586665326525564 -2 -4 -3
431 1 15.550358382587966 7.840203682315764 1.0626917343326328 0 3 0
731 1 13.307599300750907 5.830943927097845 2.2996260626706557 0 -1 -1
443 1 14.871872458231325 7.8036597746708125 3.364716211081045 3 4 1
860 1 27.718434088732355 13.920454585949678 2.698357274981541 -1 3 0
1118 1 12.933019944151887 9.302801837894542 4.043908062293256 -3 3 3
1558 1 18.05445420114029 10.968117675201718 0.47027742116305105 0 2 2
39 1 17.911838001209766 8.360557166385748 0.3340738183875577 -3 0 0
324 1 17.78593440947679 6.086096262694609 1.9150893038358734 -1 3 1
1187 1 20.544473330371158 7.952821944326354 3.3652864170498775 1 3 -2
1322 1 17.1188905046206 8.847506961483182 2.5882787345941876 -2 -2 2
1860 1 19.81328482096132 5.532815566014487 3.446493332648033 -3 2 2
1290 1 17.280276725425566 5.728188369271723 4.403516800105848 1 4 -2
1041 1 20.148921690646237 7.489911061258564 1.1208836289734803 -5 0 2
1202 1 20.11968792277584 5.159671845978879 1.1002386342208277 -1 2 1
968 1 24.643452424436795 4.803580248779121 2.5266243247638767 1 1 4
1133 1 24.223675109301425 7.051041354869798 3.3554408082254774 -1 2 -1
188 1 22.13035925856419 6.252229442120278 2.3887111852858305 3 2 3
1943 1 22.29810128349231 8.854811932757395 2.548662597473079 -5 0 -1
94 1 22.486389559551615 8.535460607456143 0.026611151701115776 2 2 -4
497 1 23.964128280128936 6.545854072855507 0.8348875443550698 3 1 2
269 1 28.27172473427685 6.942826974159517 0.7776393160379662 0 0 -2
1428 1 25.152297364584477 8.904812229720989 2.543380164678882 2 0 -2
888 1 26.47747588155381 6.819745398433763 2.5223860004087166 2 -1 4
16 1 27.58359515328587 9.14497860976435 2.402907838413505 -2 0 -1
971 1 26.1495247071634 5.277438153336928 0.5944143687444849 0 -2 7
1246 1 28.240182343517063 5.258995484392383 2.582769415858889 0 0 -1
997 1 25.82839429642777 8.048809382714627 0.2933960024848882 0 -2 2
234 1 28.48040217835853 9.534744222346044 0.3087875828584895 -4 3 2
1283 1 0.41243253259195056 13.376677683518807 1.1352945161159662 -4 -1 2
1279 1 2.7570952578390275 10.668458106778946 2.0879392209681704 -2 -3 0
1079 1 2.584656736508961 12.932032666571583 1.6778993082531755 1 -3 2
572 1 0.9456830198228199 11.727083481867847 3.3011664478695812 -2 0 0
1107 1 1.272018612250012 10.862770333259084 0.25340541279529694 1 4 -2
1057 1 13.74435657353019 6.787851279383242 0.12748264626685213 1 -3 0
44 1 6.950103440285814 9.158405815861151 0.5518182387513956 3 -4 1
127 1 14.722033622470478 11.821364225187866 14.038868677805747 2 3 -3
995 1 4.9786630009775426 9.956488863469826 2.1415868397733826 -3 3 1
1459 1 2.6399606403808864 14.035938908447134 8.169455779272896 3 1 -3
101 1 5.160081356474199 12.436308786114898 2.2189903004685516 1 -1 4
11 1 7.09540395204537 11.125108486427147 2.3908328864170696 4 -1 -2
283 1 4.623594746325034 11.119383387380596 4.3744890170486475 0 0 2
1381 1 23.830318257542547 0.5326983575819558 1.0789419822092656 0 -1 1
1234 1 8.822820096923092 10.673063062000287 0.0008351881403183548 2 1 -1
688 1 9.10966853021806 10.019306173565408 2.546164376264528 2 0 2
1985 1 11.39578846303299 11.264086902834473 1.9283126522022647 1 1 3
763 1 10.151846134683614 13.005757911774653 0.7794366240992023 -1 -4 2
1627 1 8.96620362873797 12.955374521553395 2.715212383955915 -1 0 2
1453 1 7.889457479247808 12.808737513590252 0.4596012268693671 2 -2 4
252 1 11.319879934405737 13.114564635449117 3.396136654003044 2 0 -3
1669 1 6.11655253458969 11.246096658457923 0.09571118631686293 1 0 5
738 1 13.707005379379272 10.9794829329909 1.312749602953097 -3 -4 0
1908 1 12.602729589018537 13.263746023199715 1.3121085357432183 3 4 -1
871 1 13.361319485394135 11.860895190058397 4.0239620515511225 1 -1 2
1770 1 15.260029969898504 10.290212181412524 3.2915929658693743 -2 -1 -2
185 1 15.074432226617514 11.986003246040077 -0.11185929000691253 0 0 2
337 1 15.60203658396432 12.492260846386921 2.6260409177483677 -3 1 1
69 1 13.809223973745404 14.056886569604892 3.240050881937228 1 1 0
1872 1 17.566163109000563 13.01461585833737 0.5941916947659882 0 0 2
1590 1 15.98911161585849 10.116661527277156 1.1870989472612639 5 0 0
410 1 19.715932997259205 12.047095388148316 2.279802319811312 1 -1 2
676 1 17.666307039785607 11.145239313151245 3.1560803518634324 -2 -3 3
43 1 19.560945688728157 9.483946666932036 2.120317297579059 -4 -1 0
436 1 19.47520597743147 12.433398369859585 4.4740258157300445 -1 -1 -4
1614 1 18.1629081376077 13.729560048848906 2.8778875741508343 -1 2 -2
111 1 28.55516652300209 7.622595242270776 13.366178982374183 -2 -1 0
408 1 21.63573053607311 10.681758233213811 1.360099893961348 -1 3 2
1224 1 21.22820055844614 10.725309345441033 3.949742510247252 0 2 3
466 1 23.90293418714378 10.221711173290347 0.9166274092108209 -3 -1 1
570 1 23.910031352901587 13.64082668664296 3.2900600183717734 -3 -2 -1
657 1 22.007450766183297 12.89343341100951 1.705750340045249 6 0 2
1955 1 23.526452629450194 11.142602455617999 3.172647866976524 0 -4 3
652 1 16.561188816154235 1.720421691365158 14.171077683694065 -1 0 0
254 1 28.39842956764761 -0.13769315787089553 5.458155161513382 0 1 -2
1851 1 24.800151008413163 12.43837148458552 0.9585599178732831 0 -2 -1
885 1 27.13716545634954 13.425960715238135 0.7161470410300443 -2 3 0
1229 1 26.07765137993838 10.470272463764918 0.4898000875739422 -1 2 1
953 1 26.344751075519483 12.033869413745393 2.672831291006366 -2 3 -1
95 1 28.379546244430227 11.398225514415671 1.8367456370859272 1 4 3
1280 1 26.438578657481184 8.692362032412424 4.542589747541877 0 -1 -4
292 1 16.238762231642035 5.561902392907314 -0.28327510213549717 0 1 -2
359 1 1.9782885916373294 3.2745482572461913 4.802732149254132 1 2 1
1130 1 -0.005540100072059961 2.221800831106845 5.697123173740432 2 2 1
247 1 2.0495050055914956 0.8349867842736292 5.773235645463035 2 -4 0
2034 1 2.934560151075307 1.794428384047889 8.108298633381215 0 0 2
1512 1 2.3743558111582614 0.0435754238744504 9.650897377095886 1 2 6
1024 1 0.6006480654771673 -0.40177131848548886 7.288189168065073 1 3 -1
1998 1 0.45876666101533725 1.864225533233896 8.066768904202739 2 1 2
313 1 3.845430880090121 3.403843822832934 6.544844796207755 3 -2 -1
1071 1 1.5836934819775825 4.002976328835004 7.342188590787365 4 0 1
1182 1 4.219991115890753 1.2093146909518953 6.0680002972551 3 1 -1
1120 1 6.435157741073156 0.23226877196212237 6.398183750619706 1 3 -2
1639 1 5.0676078251065855 0.578526157410427 8.342986991490738 3 4 2
110 1 4.801419280137283 2.856612180667794 9.18634655103659 -2 0 -1
1253 1 6.114559989170991 2.6183554660224897 6.792267022816381 -1 4 -4
629 1 6.989666705778461 1.782295480747357 8.816079425473925 -2 5 1
1756 1 7.591809443286191 1.5409745770732715 4.583695009822144 -1 -6 1
1188 1 20.23894537327487 9.876529016151308 -0.20914338026719195 0 2 1
1135 1 10.622922647875603 4.277535094920526 4.93539309777642 -1 0 0
683 1 10.962474092916597 0.5179702797898255 7.096541620991217 0 2 0
1751 1 12.18997042742195 -0.4052783835393898 4.374644073698206 1 -1 -5
1754 1 25.445115465951034 12.042392700192973 13.344995523618095 -1 -4 4
331 1 7.835158607451602 4.017444710496222 8.068592875733817 -1 3 -1
1204 1 10.17388465354202 1.800103738472771 5.096931106590897 0 3 0
1865 1 8.685412437039837 1.3116647065531322 7.251797803727472 0 4 0
1408 1 10.15111666194134 3.21071646779524 7.407025252698528 0 2 -2
1150 1 11.235288027043751 1.9151220416412866 8.943236533967088 1 1 -1
1102 1 8.425324383919147 3.519239885381864 5.824568837153791 2 -1 3
1402 1 1.7862198139225507 -0.3523886228049452 1.5275227482823361 0 0 -3
710 1 12.772453426570214 4.374705922929967 4.041916796940044 -1 1 1
427 1 13.191497360906741 0.11802303130907044 6.7575939267276235 -3 -3 1
1847 1 12.146826811224967 2.506582896580503 6.307894312917851 1 0 -2
1458 1 14.70669891889173 2.0156969946410452 6.6913781975095565 -3 5 3
214 1 13.493049771636962 1.6240240144214537 4.6371304047469835 1 -3 -1
1237 1 15.22799500972193 4.168580301810057 8.40860107200694 0 0 1
647 1 16.39155313433588 1.206789387788889 5.030714986633882 -1 4 -2
1323 1 16.418390658944816 3.7119228072906614 6.04048859741003 -5 3 -1
633 1 16.423823988010934 2.1096404834744757 8.454400835322497 -2 1 6
1740 1 17.85788359777602 -0.1849412569908796 7.335454838229398 0 0 0
116 1 18.97594036186394 1.0815755187889275 4.610764357391175 -1 1 -1
1055 1 18.143734424924045 3.9311341530713904 8.3862915013124 2 2 -3
2033 1 18.269501118780216 2.059144333192808 6.5089536002864445 0 -1 0
1821 1 20.242064739387086 0.5945790890408353 7.718915651144169 2 3 0
395 1 20.46760081456479 2.9907159419894906 7.61668074895808 1 -4 -3
1752 1 22.36627848563017 1.242725393498071 7.643292185164581 -3 0 4
989 1 22.718362195601788 2.378638982176623 5.282496489080037 1 -1 -1
230 1 21.09728941608877 0.8579984634843618 5.667322922938892 0 -3 0
454 1 23.11996475842947 3.6616102557027475 7.364902398929573 0 1 -1
1307 1 20.142229323447555 2.964699615896814 4.991041408553254 -2 1 -4
2044 1 24.804033874450813 1.271563021182622 7.3578889326054435 1 -1 -1
1676 1 23.57918740678338 2.528937133592911 9.22121720316984 0 1 -1
325 1 28.160745151214186 4.324948930321325 4.982751695983592 -3 4 2
1656 1 25.353684093805708 4.007691569614081 6.1867307937431955 2 1 0
7 1 26.799946237601283 2.129484969601559 6.175950721054915 -1 3 -1
867 1 25.55437941276159 0.4849282399439455 4.906918449567025 0 -2 0
1209 1 26.170955128042962 2.3990161204554448 8.698461066868749 5 2 -1
440 1 27.682263064902745 0.5472921540652195 8.35042960001333 0 -2 -1
617 1 28.035152240424246 3.751641515156307 7.418440451199723 -1 1 -2
105 1 20.573325977492438 6.58309429330051 13.735623210117856 -4 -1 2
1072 1 3.6378423696866893 6.385814358640515 4.756422150338128 0 5 -1
1425 1 1.1059616344190502 5.349730245027381 3.9670596437178878 -2 1 -2
1313 1 2.9511890041658364 5.717144661076093 7.0402155650852025 0 0 -2
518 1 2.4307115887488386 10.074468287549728 4.379285614256857 0 4 3
1228 1 2.8347002898563596 4.605739063952179 9.257605819122844 0 1 0
1608 1 0.830131777940321 7.930445135067634 7.621506812509075 4 2 -1
449 1 0.8173834865523153 6.009997466054476 8.97815033852353 -2 3 1
1612 1 4.134552063709472 6.824085499799112 8.78386477569021 2 -1 2
1074 1 1.5180419945517825 7.57849626189148 4.902825696581116 -1 1 2
1106 1 3.1050380523636445 8.649093412496352 6.464698384770295 3 0 -2
222 1 4.924157363631865 8.51214680940073 4.432314233587292 -2 1 -3
1238 1 5.390072742318846 4.821826600034498 8.04351484264209 -1 1 -1
513 1 5.1738609229132955 7.092089641191629 6.553574265418216 0 -4 -1
784 1 6.050452852518036 5.111885995050411 5.673440427124893 4 -2 6
1841 1 7.422980183329363 6.290459907106725 7.1224806707909885 0 0 2
816 1 6.909850740718916 7.320671301874891 4.727161934553689 -2 -5 0
1733 1 6.107658183546239 7.911231911495671 8.438874093372284 2 1 3
541 1 7.460132618555623 8.609532792579655 6.664871083682592 2 3 6
1096 1 4.262878881389934 9.660656400896096 9.13629231824628 -2 3 0
265 1 11.156498510705255 8.04475428312124 5.246803333765814 2 4 0
2046 1 9.4209666019764 6.230743558517454 5.559752604927397 1 -2 0
27 1 9.982436018364215 8.171306589434105 7.189013583463492 2 1 -2
1467 1 9.609037907324575 5.470771021354843 7.7525266811225215 2 3 3
1446 1 11.93564485644804 5.4582697198899295 6.409002730435957 1 5 -3
1827 1 9.117791528355534 8.818306605633133 4.873862603897322 2 2 1
1823 1 11.482604011886146 6.6806274611694665 8.365458139166982 -1 3 -2
965 1 11.427284384833152 9.260574019718007 8.808474598833936 0 0 1
1611 1 13.962275293355095 4.141384491181079 5.992768250054212 0 1 2
229 1 12.682662821989165 7.958185384466532 6.898878793463457 1 3 -5
1973 1 13.065353103493972 6.684483292616013 4.78400529755287 0 2 2
329 1 13.699056322535117 7.83572412837297 9.045027010441304 -4 4 0
1881 1 14.044180413223057 5.890411123383145 7.406822013193698 0 1 1
474 1 12.565932763405891 3.8750790633174947 8.130158418384285 0 -2 3
914 1 14.768114922762942 8.880498551447111 5.634222245483656 3 -2 1
1243 1 15.976179480508804 8.299327533898412 7.749402233259916 1 0 -1
677 1 15.629989669721866 6.672480118949139 5.640266025335452 -2 -5 2
1662 1 18.854705743756753 4.531114830190938 5.950340549312772 1 -2 3
398 1 19.32099412658869 6.240983166260979 7.951289310693484 0 -3 -2
1269 1 18.375097262745875 7.645734822934683 3.9274733608601142 -4 -2 1
1333 1 17.609588775100722 7.277824134847048 6.190109037560981 2 -2 -1
811 1 16.881445804318307 5.660969713169543 7.7349497777905665 -1 1 -2
1549 1 19.94629811960003 6.96127733261071 5.565500145152672 -2 -1 -2
92 1 20.303022401359897 8.936911469018252 8.056875496948475 -2 2 -1
1076 1 16.974505354852777 9.065530132984845 4.832550450456325 0 1 -2
1687 1 21.773700243373096 4.812523725777566 8.949077790016583 1 0 -2
667 1 21.38337488205189 4.8678856626922675 5.959467477840197 5 5 0
1970 1 23.50101129693085 4.871128783376502 4.7293705895088705 0 -1 1
351 1 21.53203717058313 7.095800144331453 7.354188953473961 2 -2 0
1296 1 22.30323197282424 7.13051040980536 5.042114228725875 0 -1 -1
1111 1 23.288742394859526 8.390675659439475 6.930087507128425 -2 -2 -1
296 1 23.938844692642164 9.19577151105781 4.598460231651761 -1 1 1
1939 1 23.52434633098709 5.923658285164375 7.1701737208386 2 4 -1
1944 1 25.056314721613724 6.891989018859422 5.623536015036816 5 -1 -2
1300 1 25.312834247236896 7.447746850980596 8.415988037915547 -1 0 -1
1250 1 26.343939747181235 5.325580056907066 4.438561900697435 1 -2 -1
597 1 28.01892943476147 6.709211623164338 4.448302022364381 -2 0 -1
725 1 0.4759480167511887 5.8416419807497135 6.304504179185491 0 1 1
1210 1 27.25296306037458 5.908013168329722 6.718037751069306 4 0 1
132 1 27.854065421677625 8.196192291283198 6.7940522165572865 2 -3 -1
1737 1 25.50749816118824 9.279563242840261 7.002249882821735 -1 0 3
1350 1 26.45215142949098 9.692596862650955 9.19895948394933 0 -2 2
87 1 2.826171275918496 13.022525059622478 3.9982251096469312 0 -2 5
545 1 -0.028113218663318396 9.429882365299665 4.242474237831443 -2 0 1
1658 1 2.000178723999825 10.54719841502234 8.408209028008821 -2 4 3
362 1 3.155548552742127 11.193438284746842 6.2380014540812025 -1 0 -2
202 1 1.6511719853157998 13.045851708796224 6.155643326471383 -4 2 -1
1363 1 0.5421368930977467 11.005809477003273 6.007502767124172 -1 0 -2
1663 1 0.2545701532999298 12.286150668103737 8.336297788679694 2 -3 0
144 1 2.2630193849405753 12.618730679944587 9.955641260270214 -3 -3 2
1622 1 6.686558653800764 12.470809556596361 4.151386195815314 -1 -1 0
1430 1 4.986581903626944 9.919215360127934 6.7495162373838085 0 2 -2
802 1 6.700156714135825 10.105115786990405 4.911223187869709 -1 -6 0
558 1 4.18906660625964 12.27172974016895 8.480750385525488 1 6 -2
88 1 6.468474299701899 10.394898016403662 8.60207639795186 -5 3 2
1968 1 5.724242120132937 12.412243285828835 6.416027812011422 -3 0 0
877 1 15.425353647661348 -0.04888079489904268 7.480733669678543 -2 0 -2
1180 1 7.419147832228528 12.562632514052735 8.346692615646884 1 -1 6
1961 1 8.717709161424821 11.355271812972678 4.434801926361565 1 -2 3
1548 1 10.809632678390258 10.517866729705368 4.235132058841976 2 -3 0
910 1 8.863289839419458 9.589859415478474 8.532808740396371 -1 0 -2
1327 1 8.113972148427857 10.904546915169295 6.68392709504165 -2 -2 -1
1429 1 10.079844008170149 14.051885230920696 7.535786255331341 -3 -2 -4
1800 1 12.154870130516626 12.81405917873219 5.98211280717996 -1 0 0
1358 1 10.504185740574657 10.292210147033657 6.609212132327178 -1 1 -2
1124 1 7.8872659027387275 13.414021503482488 6.266176226328789 -1 -3 0
1933 1 11.95510485339389 11.557803247532068 8.194873026346741 0 -1 -3
405 1 15.248040458411085 11.398415463455814 5.406118531989138 0 0 4
403 1 14.543940687021513 13.833598568589789 5.247126438456745 -4 1 -3
506 1 15.913733426417668 10.84894119402847 7.459586225723514 3 2 -1
1685 1 13.00471791097445 10.407468493373743 6.0312922337757024 4 -1 -2
1572 1 13.843154616619664 9.954436904130354 8.14414539730141 3 4 1
1134 1 14.237975819775576 12.651620414472566 7.249200591957084 1 -2 -4
1240 1 14.802183836516583 11.747208610976207 9.362653091026967 2 1 -2
164 1 17.23535338012339 13.318063278386786 5.255909180012483 0 0 2
1059 1 19.089489011498987 9.87914913130754 4.635833872984429 -3 0 0
305 1 16.41202191976796 13.64710497524329 7.484108636971717 0 -1 0
192 1 17.619155908178442 11.289211417819901 5.781607626135053 1 0 -3
1536 1 18.338205323333188 9.622740802852414 7.17421781390961 -3 -1 0
1352 1 18.955336069173843 12.990301731999994 6.947689510759332 3 2 -2
253 1 17.89355554224604 11.53281777999526 8.545770516258363 1 5 3
1518 1 20.376344882088596 11.189180915921673 6.273866931013838 -2 1 -2
723 1 20.300359954950366 11.616335639173565 8.894423460750518 -5 -4 -2
1967 1 20.89616763929996 9.075669884008438 5.832243311946618 1 4 0
862 1 21.937058560946788 13.120938893889797 4.816681317730433 -2 2 1
884 1 22.9167702017836 10.950806588521239 5.768048089049879 -1 2 0
869 1 22.103704366617432 10.458939403086385 7.862540228447973 -3 -1 1
157 1 21.40396997188338 13.04807962058788 7.0772748421686895 1 2 -2
244 1 23.350827207999835 12.39533331635365 8.209022428873025 1 0 1
328 1 24.188533833011558 13.446159407203437 5.962263989876867 -4 -4 -2
812 1 27.253453415833786 12.8567047130244 6.773304507100596 -1 -1 3
1454 1 25.426287478147614 11.327719998597527 4.752509472421407 -4 0 1
50 1 26.139477549026353 13.683574563736 4.716803315423026 2 -3 -1
2039 1 27.289357045740566 10.391527976281473 6.124110495562584 0 -1 5
382 1 28.543898221419678 10.358279740549781 8.01681538208104 -2 -3 -1
1164 1 28.07208460900593 11.970580357888714 4.388526373375335 -3 -1 1
542 1 25.34121244600242 11.53958197892619 7.383083438583763 -4 -2 -3
1866 1 25.38677411380984 14.046996943111203 8.166644715465772 1 3 -1
660 1 0.004466643215324473 13.901678955150416 4.769374886225254 -3 2 4
937 1 1.5680436957277872 0.10186736998714374 13.709938664329526 3 2 -1
1603 1 2.924966108239241 2.2258745216602973 12.924271324531585 0 1 -1
82 1 18.86966983729036 13.65278764542063 9.219837988512781 1 1 1
726 1 0.9174920717849777 1.3383488583785677 11.6905660541578 3 2 0
1782 1 3.003630698064893 2.3282688564906553 10.666647679534421 -1 4 2
1419 1 12.085966334920789 -0.23033742025040246 9.083231713478325 4 2 -1
1356 1 0.09142156280744362 0.35084206918346394 9.860890949486521 2 2 2
974 1 0.4003309451351257 3.531082356481594 12.330158812109891 1 -2 -1
1890 1 2.5777398156475497 4.317662029406029 11.966717646971581 0 2 0
796 1 4.72455255392689 0.6403286760608968 13.67076540195126 4 -2 -1
1831 1 5.285949779398074 2.862582598581725 12.424571025393192 -2 2 3
383 1 5.277618658989752 1.355171675927196 10.825814126892537 2 0 3
1464 1 6.623542455795069 3.6077468396055243 10.332112353737186 0 2 0
748 1 -0.14170226561404564 -0.11803741400763107 0.013581372227805422 1 1 1
986 1 6.822270304755054 1.7604863877466785 13.541081499500613 2 1 1
705 1 7.996157055191796 3.6335283400146468 11.998334372610183 3 1 -1
665 1 14.95934415540025 3.9573777681868814 0.6445391592994469 0 -3 -1
519 1 8.953835394747559 2.626711559916196 9.73051807841634 2 -2 2
393 1 9.39328858128521 0.3498741540166884 8.946357177092091 -3 4 3
336 1 7.511010599029419 0.959202840303572 11.462036774648382 0 -4 1
1995 1 10.268762162207915 0.5093143920554953 11.017406650838762 1 1 2
1226 1 9.333032834830238 1.0958710495015194 13.042530411794887 -3 -2 0
1650 1 10.57105056415539 2.6380774455129976 11.887172202955936 0 -1 -2
733 1 11.655746857299746 4.145665350097936 10.402232422583317 -2 3 2
1339 1 12.938084788713837 1.8236335981478553 10.769777607956822 5 0 2
1654 1 28.16212396442114 0.23878135153958746 2.0949224101133073 -4 2 3
856 1 12.166314714255071 0.5425753188358645 12.829024844968739 0 2 0
190 1 12.693643749556744 3.311876597676727 12.557576981694892 -1 -1 -1
1902 1 14.967065468229466 2.053819969825137 11.687580783437422 2 3 4
943 1 14.088614558909986 4.000884747335306 10.613269784028141 -3 -1 -2
260 1 13.886866784045651 1.9406003824217497 8.82146296275956 -4 -1 0
1836 1 15.058641933707465 3.4685998106280813 13.546040160623964 1 -1 2
423 1 21.829668981237315 13.673766604114014 9.410373679417068 -2 -3 -1
1912 1 16.827952030423237 3.563166564104652 10.23113942417267 1 3 0
1875 1 17.225299708246453 3.274906211744446 12.424536625085327 3 3 0
1805 1 17.41074775720399 1.307509040295943 11.12522361725899 2 2 4
363 1 19.029346980275864 1.8120602351428539 9.16500182046032 -2 -2 0
2019 1 18.687707613945587 1.0611919818114377 13.158090040511972 -1 2 -4
1763 1 7.069842103587749 13.793625057484983 10.54401507561474 1 1 1
48 1 19.825923838501705 0.1152869293681612 10.648409440293804 -2 0 -5
1844 1 21.151890652476784 0.89777579695639 12.204526824079505 -2 3 -2
122 1 19.711617566567956 2.855969378101993 11.628735869554353 2 -1 -5
1670 1 21.515436214823335 1.830495832471211 9.84998025380364 1 5 1
1052 1 23.318761453413845 0.27343667715665443 10.425700027070805 1 -1 -2
1177 1 22.382733601756943 3.6274508829562304 11.14758571052498 -2 -1 0
1666 1 24.142475546890733 13.92514141314112 10.388997123874967 -3 2 3
1379 1 23.778135814023326 1.9451605175231976 11.996346933869267 -2 0 -3
1436 1 21.712600959277054 3.2616453703148496 13.346567630886137 2 4 2
587 1 28.064720147687492 1.1029366135408178 13.170038663289487 1 -3 -2
2008 1 26.89040593079086 3.753733793881965 12.472774360082719 0 2 2
896 1 25.798229406689433 1.1165045687877178 10.886100805169432 2 0 0
1600 1 28.066091457340594 2.2767917031707885 10.889514049145042 -2 0 -1
1889 1 25.30576631611121 3.4505097118949486 10.749922451520543 -1 0 2
686 1 25.820440985918474 1.3197166274263827 13.696358899484588 2 1 1
1964 1 24.189806432991936 3.3910704772386495 13.735874753130984 -3 1 4
486 1 2.402961946918044 8.428548626126604 9.409915232890873 -4 0 -1
1254 1 0.8999694175216684 3.7110927961829114 10.042394880209004 -3 1 2
1020 1 10.0213363376001 13.416897767721942 5.223561793567828 1 -4 3
693 1 1.7107784424412484 6.430458596692315 13.307494015179525 -1 -1 2
1810 1 2.359266336696481 6.47277064591225 10.926821727644231 3 1 3
380 1 -0.16490287570186768 6.067135387230136 11.229001077864021 3 1 -3
1876 1 1.2437876639581713 8.465242184213624 11.611770445934777 0 -1 -1
641 1 4.221873764043244 5.953223428378046 12.643464138400711 1 4 2
1846 1 -0.20854718545132173 8.383847752203929 9.67992585934614 1 -2 1
1123 1 7.038282513304215 6.055768796015129 9.467169899406239 3 1 -3
1022 1 3.505130861151428 8.257387635823745 12.240633683384848 4 -5 -2
624 1 4.788046244537378 4.913040716954967 10.52756761650602 -3 1 3
1772 1 5.089827692168109 7.214340207043031 10.850197913739423 -3 4 0
10 1 6.424576459394158 5.251231919323948 12.649550219367129 2 2 -1
317 1 7.433443465871698 8.655094260399691 10.344835255552585 2 -3 3
1330 1 6.311430553724548 7.724215215760269 12.744605194663787 -1 -1 -2
792 1 9.215959241034765 7.214387378132497 9.242186605615405 2 -3 -1
868 1 9.401581581560874 4.818596609237476 10.015078344878491 2 2 -2
1830 1 15.48728749251467 0.24227085352502653 9.979241100259836 -5 4 3
1965 1 8.284058759829225 6.4492773303014115 11.445503189120604 -3 0 -3
520 1 9.594638176849664 8.687397198017315 11.157977181992825 -1 1 -2
493 1 10.374083194129236 5.060852125121031 12.51068918688397 -1 -2 -3
2029 1 10.915624679262589 7.2686480285571635 13.436977403086452 3 0 -1
1098 1 10.92476907613003 6.678969808125401 10.910745903821573 -2 -2 -1
866 1 8.836517653024405 8.322837088642425 13.299023146591091 1 -1 2
1312 1 12.995223429520294 8.5027957865092 13.859225969340212 -1 -1 2
58 1 12.01898397804865 8.631470110700246 10.966766014539223 2 -2 -4
375 1 12.960489083251263 5.694070181775651 12.526928271652416 -1 -1 2
293 1 14.614260049287221 9.18137771941682 10.420618585404842 1 0 0
117 1 13.00966777269299 5.863919616446193 9.892397574298666 -4 0 -1
1704 1 15.438620276529209 6.405819311988672 9.818123423018436 1 3 1
1149 1 14.35200470691889 7.4265199993393 11.882663268989607 0 1 -2
1619 1 16.027074067360687 5.165140241096536 11.726335392921687 3 1 -4
1678 1 15.569305765591853 8.948224172818115 13.321127179317589 -1 -1 -2
140 1 16.605361528633424 7.0842642447898605 13.175580594216989 2 -1 -2
844 1 18.538283966298078 5.1453661718464465 12.722886198156726 -1 0 1
585 1 16.71266873020826 8.221935649252293 11.23433638824291 0 -3 1
63 1 17.778451048319663 5.805118593076171 10.03801528872551 0 -1 -1
579 1 17.807841147386537 7.935030061181433 9.024974639289871 -4 0 0
377 1 18.84439410772049 7.19666939920313 11.487480148425076 4 3 -1