LAMMPS (29 Oct 2020)
OMP_NUM_THREADS environment is not set. Defaulting to 1 thread. (src/comm.cpp:94)
  using 1 OpenMP thread(s) per MPI task
package omp 0
using multi-threaded neighbor list subroutines
package omp 2
set 2 OpenMP thread(s) per MPI task
using multi-threaded neighbor list subroutines
# units metal
# dimension 3
# boundary p p p


# lattice fcc 3.5440
# region box block 0 8 0 8 0 8 units lattice
# create_box 1 box
# create_atoms 1 box

read_restart after_heating_2400.lmp
Reading restart file ...
  restart file = 29 Oct 2020, LAMMPS = 29 Oct 2020
  restoring atom style atomic from restart
  orthogonal box = (-0.82957126 -0.82957126 -0.82957126) to (29.181571 29.181571 29.181571)
  1 by 2 by 2 MPI processor grid
  pair style eam/alloy/omp stores no restart info
  2048 atoms
  read_restart CPU = 0.002 seconds

variable P equal 0
variable dt equal 0.001
variable loopVar loop 22
variable sys_press equal "press/10000"
# print "step temp vol pe" file heating.txt screen no

pair_style eam/alloy
pair_coeff * * Co_Zhou04.eam.alloy Co
Reading eam/alloy potential file Co_Zhou04.eam.alloy with DATE: 2018-03-30




neighbor 2 bin
neigh_modify every 10 check yes

thermo 1000
thermo_style custom step temp vol press ke pe density

timestep $(dt)
timestep 0.0010000000000000000208

# fix 2 all npt temp 300 300 $(dt*100) iso 0 0 $(dt*1000)
# run 30000
# unfix 2





# dump_modify 1 append yes
# dump 3 all custom 10000 traj_npt_new.lammpstrj id type x y z

# velocity all create 300 123123

print """
yo aagadi
"""

yo aagadi

label ensemble

print """
Label pachadi solti, hos garam.
"""

Label pachadi solti, hos garam.

variable T equal 2500-${loopVar}*100
variable T equal 2500-1*100
# variable T equal 1200
# velocity all create 1200 123123
reset_timestep 0
fix 1 all npt temp $T $T $(dt*100) iso 0 0 $(dt*1000)
fix 1 all npt temp 2400 $T $(dt*100) iso 0 0 $(dt*1000)
fix 1 all npt temp 2400 2400 $(dt*100) iso 0 0 $(dt*1000)
fix 1 all npt temp 2400 2400 0.10000000000000000555 iso 0 0 $(dt*1000)
fix 1 all npt temp 2400 2400 0.10000000000000000555 iso 0 0 1
Resetting global fix info from restart file:
  fix style: npt/omp, fix ID: 1
print """
<--------------------------------------------------------------------->
<------------------ Equilibrating at temperature $T ----------------->
<--------------------------------------------------------------------->
"""

<--------------------------------------------------------------------->
<------------------ Equilibrating at temperature 2400 ----------------->
<--------------------------------------------------------------------->

fix temp all print 100 "$(step) $(temp) $(press) ${sys_press} $(vol) $(ke) $(pe) $(density)" file temp_cool.txt screen no title  "step temp press pressGiga vol ke pe density"
run 250000
All restart file global fix info was re-assigned
Last active /omp style is pair_style eam/alloy/omp
Neighbor list info ...
  update every 10 steps, delay 10 steps, check yes
  max neighbors/atom: 2000, page size: 100000
  master list distance cutoff = 7.6035394
  ghost atom cutoff = 7.6035394
  binsize = 3.8017697, bins = 8 8 8
  1 neighbor lists, perpetual/occasional/extra = 1 0 0
  (1) pair eam/alloy/omp, perpetual
      attributes: half, newton on, omp
      pair build: half/bin/atomonly/newton/omp
      stencil: half/bin/3d/newton
      bin: standard
Per MPI rank memory allocation (min/avg/max) = 4.311 | 4.312 | 4.312 Mbytes
Step Temp Volume Press KinEng PotEng Density 
       0    2418.0858    27030.096   -2895.4286    639.81467   -7882.8419    7.4146384 
    1000    2369.2549     26887.78    1807.3782    626.89422   -7892.4552    7.4538838 
    2000    2362.1653     26967.32    31.130346    625.01834   -7879.8255    7.4318985 
    3000    2417.2743    26956.606   -1257.0572    639.59995   -7895.0902    7.4348523 
    4000    2393.7127    26764.191    2905.6327    633.36565   -7923.9533    7.4883036 
    5000    2426.3725    26954.732   -176.90578     642.0073   -7885.5508    7.4353692 
    6000    2379.3215    26873.287    3625.2403    629.55779   -7891.7264    7.4579036 
    7000    2413.5369    26997.132    -1706.192    638.61105   -7886.0828    7.4236917 
    8000    2344.1954    27036.066   -6435.9199     620.2636   -7893.7164    7.4130011 
    9000    2419.1285    26926.205     462.5482    640.09055   -7897.1846    7.4432468 
   10000    2434.3298    26849.857    6058.3496    644.11276   -7887.7019    7.4644118 
   11000    2370.3474    26960.541   -5392.2457    627.18331   -7908.3256    7.4337671 
   12000    2403.3094    27072.963   -7685.8817    635.90488     -7891.98    7.4028981 
   13000    2446.8067    26981.408   -2800.4211    647.41409   -7897.2377     7.428018 
   14000    2414.6992    26809.237    3984.0338    638.91858   -7907.8868    7.4757214 
   15000    2456.0548    26831.981    2057.4538     649.8611   -7919.1006    7.4693847 
   16000     2458.484     26929.48     182.1754    650.50384   -7896.0295    7.4423416 
   17000    2493.9206    26748.288    9045.8796    659.88021   -7903.3077    7.4927557 
   18000    2418.4229    26928.153   -462.03321    639.90387   -7899.5308    7.4427083 
   19000    2354.5251     26818.29    2700.4121    622.99678   -7905.8712    7.4731978 
   20000     2414.388    26913.047    4589.8458    638.83624   -7878.2418    7.4468858 
   21000    2297.2807    26992.307   -1123.6825    607.85018   -7885.2232    7.4250187 
   22000    2403.6863    26942.422    1449.2002    636.00463   -7887.9153    7.4387666 
   23000     2397.286    26808.344    4569.0566    634.31113   -7905.6629    7.4759704 
   24000    2444.9177    26916.972   -1577.5221    646.91425   -7905.2928    7.4457999 
   25000    2339.7906    26750.996    3552.1349    619.09811   -7922.2307    7.4919971 
   26000    2462.1483    26872.339    6546.7847     651.4734   -7887.3848    7.4581668 
   27000    2379.5103    27044.137   -2298.3636    629.60776   -7872.5821    7.4107887 
   28000    2483.3284    26980.265    2155.8178    657.07757   -7878.0163    7.4283328 
   29000    2421.8225    26841.773    4959.3924    640.80336   -7895.7708    7.4666598 
   30000     2357.211    27037.164   -7186.4206    623.70747   -7895.7157    7.4126999 
   31000    2374.5547    26882.878    3636.6936    628.29652   -7893.8045    7.4552431 
   32000    2383.8817    26917.426   -1929.8718     630.7644   -7901.0241    7.4456744 
   33000    2361.4692     27008.81   -3327.4431    624.83417   -7888.6033    7.4204819 
   34000    2447.9826    26815.126    5782.7704    647.72523   -7899.7756    7.4740796 
   35000    2462.3017    26967.609    3720.5186    651.51398   -7867.3351    7.4318188 
   36000    2354.1341    26943.196   -1575.6481    622.89332   -7898.5727    7.4385529 
   37000    2376.0679    27135.578   -10150.456    628.69692   -7885.5448     7.385816 
   38000    2431.6455     26882.86    2035.3948     643.4025   -7897.9838    7.4552479 
   39000    2426.4567    26903.865    5195.2319    642.02955   -7878.5883    7.4494272 
   40000    2358.5367    26753.141    4610.4537    624.05825   -7918.1993    7.4913966 
   41000     2346.968    26842.718    4678.8548     620.9972   -7894.2085     7.466397 
   42000    2346.7004    27092.688   -4734.6297    620.92642   -7873.1628    7.3975084 
   43000    2354.2878    27111.437   -7707.4404    622.93401   -7885.0515    7.3923925 
   44000    2402.0475    26908.614    1530.9613      635.571   -7893.7742    7.4481126 
   45000    2382.6387    26911.461    2813.8053    630.43552   -7882.6935    7.4473246 
   46000    2336.1892     26962.26    1326.6479     618.1452   -7885.9288    7.4332934 
   47000    2390.2679    26929.459    872.76962    632.45417   -7890.7057    7.4423474 
   48000    2491.2114    26795.102    6648.8264    659.16337   -7902.2397    7.4796651 
   49000     2357.339    27006.112    3163.0412    623.74134   -7864.6311    7.4212232 
   50000    2438.4466    26785.355    9430.1488    645.20204   -7889.0538    7.4823867 
   51000    2390.6622    26932.262    2101.1081     632.5585   -7882.6346    7.4415728 
   52000    2393.7329    26920.946     4861.305    633.37099   -7884.3633    7.4447007 
   53000    2444.0066    26718.422    10951.945    646.67318   -7899.0355    7.5011312 
   54000     2388.202    27033.068   -1313.8966    631.90755   -7876.9997    7.4138231 
   55000     2323.485    27103.811   -5189.9212    614.78371   -7876.2808    7.3944727 
   56000    2368.2661    26954.071    -1658.328     626.6326   -7897.8468    7.4355515 
   57000    2488.6409    26916.014    -383.7051    658.48321   -7904.2568    7.4460649 
   58000    2431.7785    26894.012    7028.6868     643.4377   -7878.2844    7.4521564 
   59000     2360.892    27000.136    1723.4753    624.68144   -7866.7226    7.4228659 
   60000    2323.7884    27221.513   -9889.9982    614.86399   -7864.1417    7.3624999 
   61000    2315.1821    27044.213   -3293.5567    612.58679   -7877.1675    7.4107681 
   62000    2395.2348    27052.032   -1056.0727    633.76839   -7873.6778     7.408626 
   63000    2433.6838    26950.279    2573.9283    643.94182   -7878.5061    7.4365978 
   64000    2464.9347    26974.985    770.97335    652.21067   -7890.2577    7.4297868 
   65000     2308.737    26672.357    7763.0905    610.88146   -7923.6311    7.5140861 
   66000    2395.2689    26945.702     143.9402    633.77742   -7894.7899     7.437861 
   67000    2351.1627    27092.842   -8185.3151     622.1071   -7889.4792    7.3974664 
   68000    2394.8937    27025.884    -2110.192    633.67813   -7872.9592     7.415794 
   69000     2404.533    26835.655    9272.3116    636.22865   -7881.2354    7.4683621 
   70000    2426.1396    26886.632    2744.1649    641.94565   -7894.3589    7.4542021 
   71000    2437.0971    26763.373    9937.0434    644.84496    -7890.907    7.4885324 
   72000    2377.0362    26882.313    1993.9773    628.95313   -7896.1717    7.4553997 
   73000    2325.9696    26998.669   -3068.8101    615.44114   -7883.5603    7.4232692 
   74000    2406.5872    26902.926    2200.5028    636.77217   -7884.1953    7.4496873 
   75000    2406.6173    26952.595    2305.1658    636.78015   -7878.4724    7.4359588 
   76000    2451.3227     27071.66    -6013.392    648.60899    -7883.748    7.4032544 
   77000    2389.7103    26964.023   -2563.9387    632.30662   -7896.7945    7.4328073 
   78000    2392.6973     26951.38    1367.3202    633.09698    -7877.167    7.4362939 
   79000    2355.1475    26816.989    6730.9771    623.16148   -7886.0933    7.4735604 
   80000     2445.148    26911.534   -2220.3745    646.97521   -7905.4061    7.4473045 
   81000    2454.7494    26956.523    507.12057     649.5157   -7889.2479    7.4348753 
   82000    2448.2545    26871.059    4104.9459    647.79716   -7895.9829     7.458522 
   83000    2452.2693     26998.45    3313.2515    648.85946   -7868.5964    7.4233293 
   84000    2419.7153    26791.621    1338.7358    640.24583   -7923.6428    7.4806367 
   85000    2391.3251    27030.444   -2188.5781    632.73389   -7884.4183     7.414543 
   86000    2337.8019    26930.689   -1461.1854     618.5719   -7896.2314    7.4420073 
   87000    2385.3124    26953.733    3025.2619    631.14297    -7878.024     7.435645 
   88000    2415.2475     26939.33   -227.65573    639.06367    -7895.704    7.4396204 
   89000    2454.7861     27022.61   -2332.9652     649.5254   -7886.9999    7.4166923 
   90000    2398.5485    26783.463    7605.6476    634.64517    -7898.889    7.4829153 
   91000    2365.2236    26967.357   -1155.5604    625.82755    -7891.594    7.4318883 
   92000    2364.3292    27065.027   -3818.3556     625.5909   -7880.4148    7.4050687 
   93000    2448.9668    27084.733   -4423.0926    647.98564   -7877.8187    7.3996811 
   94000    2403.8694     27007.51    1106.9171    636.05308   -7866.2614     7.420839 
   95000    2306.9965    27017.407   -3277.8107    610.42093   -7880.7628    7.4181207 
   96000    2457.9029    26922.231    4881.3138    650.35008   -7873.2561    7.4443454 
   97000    2443.9233    26955.793    1542.5665    646.65115   -7882.6365    7.4350765 
   98000     2393.841    26925.364    2828.4641     633.3996   -7887.5562    7.4434791 
   99000    2328.5805    26876.946    2448.7755    616.13197   -7893.3116    7.4568884 
  100000    2385.4494    27027.312   -3569.2663     631.1792   -7886.6087    7.4154022 
  101000    2363.4942    27188.835   -10290.216    625.36996   -7876.9412    7.3713489 
  102000     2348.201    26992.331    -3897.924    621.32345   -7897.6291    7.4250123 
  103000    2453.0745    26854.991    3213.1444    649.07253   -7902.4534    7.4629848 
  104000    2385.6519    27075.333   -4399.8045    631.23279   -7873.7365    7.4022501 
  105000    2374.5566    26925.817    -1034.197    628.29702   -7897.2291    7.4433539 
  106000    2396.8951    27093.931   -4719.6203     634.2077   -7874.1616    7.3971689 
  107000    2400.4129    27095.078   -6298.3134    635.13848   -7881.3077    7.3968558 
  108000    2474.3213    26881.026   -790.58724    654.69431   -7916.3118    7.4557567 
  109000    2407.9349    26836.095    7007.1997    637.12879   -7883.2793    7.4682395 
  110000    2314.6905    26894.898   -636.13541    612.45673   -7897.4847    7.4519109 
  111000    2383.2665    27144.413    -6301.479    630.60163    -7874.748    7.3834122 
  112000    2427.8048    26969.904    -2556.438    642.38628   -7896.9539    7.4311864 
  113000    2399.4826    27064.933   -4195.1854    634.89234   -7872.7672    7.4050946 
  114000    2511.2175    27014.792   -1047.1679     664.4569   -7886.0355    7.4188388 
  115000     2383.957     27126.04   -8432.9521    630.78434   -7883.5111    7.3884129 
  116000    2349.7075    26977.797   -2510.7735    621.72208    -7893.592    7.4290122 
  117000    2390.4011    26926.402   0.84843969    632.48942   -7887.5071    7.4431921 
  118000    2372.6072    26946.849   -4622.4477    627.78123   -7906.6359    7.4375443 
  119000     2381.155    27033.105    -5246.657    630.04293    -7890.523    7.4138131 
  120000    2373.4588    26958.041    2485.8238    628.00655   -7883.6986    7.4344567 
  121000    2405.5237     26919.16   -2993.7902    636.49077   -7914.9983    7.4451946 
  122000    2461.3841    26979.902     826.5009    651.27121    -7879.141    7.4284326 
  123000    2474.1093    26864.458    2679.5075    654.63824   -7901.4403    7.4603547 
  124000    2356.3072    26984.535   -1395.1724    623.46833    -7881.415    7.4271574 
  125000    2304.9486    26831.116   -41.372059    609.87907    -7922.593    7.4696254 
  126000    2414.8558    27033.115   -2245.8908    638.96003   -7877.9138    7.4138102 
  127000    2387.6584    27021.857   -2327.7799     631.7637    -7880.265    7.4168992 
  128000    2360.3947    26948.434   -405.68319    624.54986   -7892.2503     7.437107 
  129000    2352.9841    26837.471    1714.7326    622.58903   -7909.4546    7.4678567 
  130000    2379.3997    27061.624   -1329.5751    629.57849   -7870.3121    7.4059999 
  131000    2468.7199    26976.654    726.89368    653.21222   -7881.6169    7.4293272 
  132000    2431.5876    26825.255    5130.7809    643.38718   -7902.3849    7.4712574 
  133000    2384.1872    26808.712    1599.0453    630.84525   -7913.0683    7.4758679 
  134000    2399.7072    26969.394   -3256.2466    634.95177   -7896.6076    7.4313271 
  135000    2420.5186    27198.334   -2887.7467    640.45838    -7842.489    7.3687743 
  136000     2411.052    26923.223   -3506.1426    637.95355   -7907.3356     7.444071 
  137000    2484.6988    26778.766    9369.6542    657.44018   -7892.6381    7.4842279 
  138000    2422.7966    26885.754    3685.3967    641.06111   -7884.7397    7.4544454 
  139000     2352.813    26957.152   -168.83176    622.54376    -7891.509    7.4347019 
  140000    2458.4844    26990.577   -1347.6608    650.50394   -7891.2435    7.4254947 
  141000    2337.7961    26832.916    871.56961    618.57037   -7912.0458    7.4691244 
  142000    2398.4924    26842.388    568.80563    634.63034   -7913.6792    7.4664888 
  143000    2325.8804    26953.192   -1225.1222    615.41752   -7894.8418    7.4357941 
  144000    2366.3483    26893.356    1195.4051    626.12516   -7897.0626    7.4523383 
  145000    2428.8416    26886.307   -929.65396    642.66061   -7913.2903     7.454292 
  146000    2345.4733    26942.676    3016.4503    620.60173   -7871.0643    7.4386964 
  147000     2388.562    26978.062   -6889.7027    632.00279   -7910.9919    7.4289393 
  148000    2379.9401    26990.538   -1648.3485    629.72148   -7886.5039    7.4255054 
  149000    2509.4403    26921.538    4039.4032    663.98665   -7885.5228     7.444537 
  150000    2361.9608    26874.825    6008.4853    624.96425   -7878.6381     7.457477 
  151000    2348.4856    26883.851     1062.984    621.39877   -7899.5387    7.4549732 
  152000    2344.3107    27079.675   -3671.8608     620.2941   -7873.7897    7.4010632 
  153000    2406.0856    26993.159   -421.96453    636.63946   -7882.7872    7.4247843 
  154000    2383.6853    26778.908    9618.9422    630.71245   -7890.9098    7.4841883 
  155000    2409.4488    26897.062    6.5798895    637.52934   -7903.9876    7.4513114 
  156000    2444.9295    26965.017   -1344.9603    646.91739   -7888.5745    7.4325333 
  157000    2401.9027     26988.31   -1059.7721    635.53268   -7888.8767    7.4261184 
  158000    2355.0911    27005.009   -5018.7113    623.14655   -7899.5718    7.4215264 
  159000    2369.9907    26861.323    5942.4223    627.08892   -7887.0381    7.4612254 
  160000    2440.0381    26820.848    6460.6919    645.62314   -7896.3231    7.4724851 
  161000    2436.6164    26965.617    709.83207    644.71777   -7883.5678    7.4323678 
  162000    2375.6478    26914.629    2620.1022    628.58577   -7889.0251     7.446448 
  163000    2368.6407    26920.463    1706.4025     626.7317   -7892.3267    7.4448342 
  164000    2375.7192    27066.937   -52.129629    628.60466   -7859.3306    7.4045463 
  165000    2412.1496    26726.975    10508.126    638.24396   -7901.7738    7.4987307 
  166000    2379.3066    26954.961    2583.1235    629.55386   -7875.9792    7.4353062 
  167000    2422.2935    26767.144    5691.4197      640.928   -7909.0055    7.4874775 
  168000    2453.1713    27019.676   -1791.0837    649.09813    -7882.757    7.4174979 
  169000    2367.5126    27115.356   -9516.9573    626.43323   -7892.5578    7.3913241 
  170000    2364.8155    26997.071   -4358.0208    625.71957   -7896.1174    7.4237085 
  171000    2418.9159    27074.263   -1368.0107     640.0343   -7868.6345    7.4025427 
  172000     2415.956    26836.709    5982.3826    639.25112   -7894.2677    7.4680687 
  173000    2354.5232    26837.137    7830.7482    622.99629   -7879.0524    7.4679496 
  174000    2410.1868    27005.012   -3404.8323    637.72463    -7887.425    7.4215254 
  175000     2371.787    26847.008    3046.8297     627.5642   -7901.4578    7.4652039 
  176000     2391.216    26906.205    4032.3165    632.70503   -7891.3595    7.4487793 
  177000    2369.5827    26921.204   -3038.9574    626.98096   -7915.6855    7.4446293 
  178000    2358.3058      26962.1   -3864.5019    623.99714   -7902.5593    7.4333375 
  179000    2429.1219    26949.586   -2656.8531    642.73477   -7902.3159     7.436789 
  180000    2447.0493    26890.658   -1692.7029    647.47828   -7916.5991     7.453086 
  181000    2355.1691    26995.208   -6126.6795    623.16719   -7901.4996    7.4242208 
  182000    2381.9956    26978.178   -1433.6701    630.26535   -7892.2911    7.4289074 
  183000      2401.35    26976.896   -4713.8832    635.38645   -7904.9038    7.4292605 
  184000    2351.8863    27018.658   -2103.3514    622.29857   -7882.7204    7.4177773 
  185000    2349.9234      26762.8    10607.958     621.7792   -7885.9585    7.4886929 
  186000    2270.9263    26748.379    4865.9047    600.87691   -7911.2571    7.4927301 
  187000    2375.0715    26931.716    4429.6809    628.43327   -7880.0903    7.4417236 
  188000    2453.4322     26934.55    2374.6217    649.16717   -7887.9244    7.4409405 
  189000    2340.2915    26871.617    -198.2131    619.23065    -7906.647    7.4583672 
  190000    2390.4124    27066.652   -3713.0674    632.49241   -7879.9468    7.4046243 
  191000    2400.9265    26906.964   -3374.8929    635.27439   -7911.8127    7.4485692 
  192000    2511.4873    27063.652   -1528.0753    664.52828   -7869.6847     7.405445 
  193000    2380.6219    26979.883   -4246.5999    629.90187   -7899.3257     7.428438 
  194000    2416.4115     26957.28    126.90073    639.37164   -7886.7832    7.4346665 
  195000    2474.6384    26728.042    10627.584    654.77823   -7903.3258    7.4984312 
  196000    2409.7359    26794.138    2892.4728    637.60532   -7909.9387    7.4799341 
  197000    2519.3922    26909.544    4273.1855    666.61987   -7887.5453    7.4478551 
  198000    2392.9075    26887.175    359.43443    633.15259   -7903.3924    7.4540515 
  199000    2375.3921    27211.533   -10324.633    628.51809   -7864.5588    7.3652002 
  200000    2433.4222    26992.981   -2123.8028    643.87261    -7891.095    7.4248334 
  201000    2425.9152    26966.013   -1615.9241    641.88628   -7894.0829    7.4322587 
  202000    2385.5065    26839.242    4812.8798    631.19434   -7893.2191     7.467364 
  203000    2376.3438    26973.105   -2309.8546    628.76992    -7893.815    7.4303047 
  204000    2449.9925    26843.929    2314.6305    648.25703   -7905.0538    7.4660602 
  205000    2384.0406    27096.782   -2791.3536    630.80645   -7868.7214    7.3963908 
  206000    2378.7701    26852.215    1574.0326    629.41191   -7903.3026    7.4637562 
  207000    2406.6027    26813.447    5162.8638    636.77628    -7902.771    7.4745476 
  208000    2438.2039    26864.012    6274.2153    645.13782    -7884.063    7.4604787 
  209000    2481.4087    27003.176   -1534.7731    656.56963   -7882.9798      7.42203 
  210000    2424.4952    26899.062    3168.9823    641.51056   -7889.3342    7.4507575 
  211000    2364.4364    26837.373    3151.3866    625.61926   -7913.2361    7.4678839 
  212000    2446.8555    26896.764    2567.6282    647.42699   -7892.5704     7.451394 
  213000    2454.4437    26954.326    200.39691    649.43481   -7888.5178    7.4354814 
  214000    2287.0935     27041.19    -5784.558     605.1547   -7888.6681    7.4115965 
  215000    2339.1388    26935.438   -1282.8597    618.92564   -7895.6524    7.4406953 
  216000    2432.3232    26973.893    73.517227    643.58183   -7882.9674    7.4300875 
  217000    2394.0997    27070.106    1798.4167    633.46804   -7861.2111    7.4036794 
  218000    2433.1828    27000.221   -6011.8547    643.80927   -7901.7507    7.4228423 
  219000     2423.015    26845.348    1554.1006    641.11889   -7907.9967    7.4656655 
  220000    2435.4876    26738.595    7529.7886     644.4191   -7912.3596    7.4954718 
  221000    2472.3345     27027.41   -2310.3272    654.16863   -7878.7512    7.4153751 
  222000    2407.4317    26876.218   -840.74264    636.99564   -7911.0659    7.4570904 
  223000    2311.4372    26801.028    5093.4408    611.59592   -7896.4629    7.4780113 
  224000     2456.685    27128.694   -5407.8196    650.02783   -7878.5405    7.3876902 
  225000    2376.3122    26856.205     840.8498    628.76156    -7904.656    7.4626474 
  226000    2436.9582    27132.226   -6804.9478     644.8082   -7875.9184    7.3867285 
  227000    2403.7896    26929.084   -1323.8878    636.03195   -7903.5596     7.442451 
  228000    2311.8759    26824.734    1269.5046    611.71199   -7909.8602    7.4714026 
  229000    2410.4532    26929.677     2186.052    637.79512   -7889.4998    7.4422871 
  230000    2381.8544    26835.461    4836.9485    630.22798   -7894.2756    7.4684161 
  231000    2474.7048    27102.728   -3341.7757    654.79579   -7869.0196     7.394768 
  232000    2386.3668    26867.092    5149.7146    631.42195   -7888.4852    7.4596233 
  233000    2309.8152      26843.3    454.61704    611.16674   -7898.4736     7.466235 
  234000    2330.6915    26977.303   -842.44893    616.69053   -7879.4866    7.4291483 
  235000    2343.8941    26932.757   -3234.8191    620.18387   -7900.9287    7.4414359 
  236000    2467.0913    26906.548    -1085.992     652.7813   -7907.5073    7.4486844 
  237000     2432.386    26943.396     633.3149    643.59844   -7892.1932    7.4384975 
  238000    2417.0974    26927.559    2260.8838    639.55314   -7885.2508    7.4428725 
  239000    2386.7988    26885.338    2343.6462    631.53625   -7891.8793    7.4545608 
  240000     2353.724    26923.742   -1075.9139    622.78481   -7899.1824    7.4439276 
  241000    2353.5306    26879.876    3588.7947    622.73363   -7892.6878    7.4560757 
  242000    2395.1941    26797.077    3177.7161    633.75763   -7912.5207    7.4791136 
  243000    2338.8461    26869.829    2389.9051    618.84819   -7890.6748    7.4588634 
  244000    2320.6599    26925.061   -428.42579    614.03621   -7897.4709    7.4435631 
  245000    2361.2022    27228.323   -9367.0144    624.76351   -7861.5641    7.3606584 
  246000     2433.079    26890.906    335.41741    643.78181   -7908.3385    7.4530173 
  247000    2400.9148    26964.866    329.52336    635.27129   -7884.5232    7.4325748 
  248000    2371.8766    27067.949   -5886.3443    627.58791   -7884.6795    7.4042695 
  249000     2478.546    27116.647   -2280.5747    655.81217   -7866.2821    7.3909723 
  250000    2448.4088    26974.236   -2935.7555      647.838   -7898.8713     7.429993 
Loop time of 475.3 on 8 procs for 250000 steps with 2048 atoms

Performance: 45.445 ns/day, 0.528 hours/ns, 525.983 timesteps/s
115.9% CPU use with 4 MPI tasks x 2 OpenMP threads

MPI task timing breakdown:
Section |  min time  |  avg time  |  max time  |%varavg| %total
---------------------------------------------------------------
Pair    | 267.74     | 272.84     | 276.41     |  20.3 | 57.40
Neigh   | 4.5836     | 4.7088     | 4.7685     |   3.4 |  0.99
Comm    | 20.084     | 23.907     | 29.163     |  70.6 |  5.03
Output  | 0.0058867  | 0.010449   | 0.011985   |   2.6 |  0.00
Modify  | 172.68     | 172.89     | 173.13     |   1.2 | 36.38
Other   |            | 0.9411     |            |       |  0.20

Nlocal:        512.000 ave         518 max         506 min
Histogram: 1 0 0 0 0 2 0 0 0 1
Nghost:        2626.75 ave        2634 max        2621 min
Histogram: 1 0 0 2 0 0 0 0 0 1
Neighs:        35731.2 ave       37405 max       33974 min
Histogram: 1 0 0 0 1 1 0 0 0 1

Total # of neighbors = 142925
Ave neighs/atom = 69.787598
Neighbor list builds = 5177
Dangerous builds = 0


# fix 132 all momentum 100 linear 1 1 1 angular
fix out_file_1 all print 1000 "$(step) $(temp) $(press) ${sys_press} $(vol) $(ke) $(pe) $(density)" file one_phase_cooling_$T_.txt screen no title  "step temp press pressGiga vol ke pe density"
fix out_file_1 all print 1000 "$(step) $(temp) $(press) ${sys_press} $(vol) $(ke) $(pe) $(density)" file one_phase_cooling_2400_.txt screen no title  "step temp press pressGiga vol ke pe density"

# dump 3 all custom 1000 traj_npt_new.lammpstrj id type x y z
run 50000
Last active /omp style is pair_style eam/alloy/omp
Per MPI rank memory allocation (min/avg/max) = 4.312 | 4.312 | 4.312 Mbytes
Step Temp Volume Press KinEng PotEng Density 
  250000    2448.4088    26974.236   -2935.7555      647.838   -7898.8713     7.429993 
  251000    2331.9295    26950.531   -4031.3853    617.01809   -7900.6389    7.4365284 
  252000    2336.8332     26927.67    2266.1982    618.31559   -7882.5004    7.4428416 
  253000     2388.993    27037.361   -4102.6982    632.11684   -7885.8611     7.412646 
  254000     2442.913    26783.011    5336.9072    646.38383   -7911.1978    7.4830415 
  255000    2475.3633    26994.851   -1236.8083    654.97003   -7885.8866     7.424319 
  256000    2412.7997    26876.962   -427.12068    638.41597   -7903.9608     7.456884 
  257000    2405.6966    27057.575   -2843.6444    636.53654    -7872.711    7.4071083 
  258000    2341.2141    27016.609    -4736.254    619.47477   -7892.6381    7.4183399 
  259000    2363.9571    26939.392   -1137.4854    625.49245   -7894.4187    7.4396031 
  260000    2387.6001    27007.792    -6549.005    631.74829   -7902.5771    7.4207616 
  261000    2388.9402     27302.02   -9449.4003    632.10287   -7849.3506    7.3407897 
  262000    2454.7544    26936.189   -1779.5617    649.51702    -7899.002    7.4404878 
  263000    2436.2796    26868.871     1484.251    644.62865   -7906.1483    7.4591295 
  264000    2330.4166    26833.254    5171.9058    616.61779   -7891.8037    7.4690303 
  265000    2415.1003    26955.004    3007.2755     639.0247    -7873.178    7.4352944 
  266000    2469.6068    26853.788    5834.6572     653.4469   -7893.6873    7.4633189 
  267000    2340.4107    26753.753    9940.3429    619.26218    -7896.204    7.4912252 
  268000    2404.6957    26960.255   -1102.6096    636.27171   -7894.4877    7.4338461 
  269000     2378.126    27008.163   -3304.9407    629.24148   -7886.6676    7.4206596 
  270000     2435.423      26874.3   -1232.1555      644.402   -7916.4501    7.4576226 
  271000     2433.087    27008.564    75.727167    643.78392    -7879.448    7.4205495 
  272000    2459.1925    27022.271   -2556.5421    650.69131   -7890.5952    7.4167854 
  273000    2437.3454    26931.841   -1037.0004    644.91067   -7898.4932    7.4416889 
  274000    2404.1326    26891.125   -145.62496    636.12272   -7910.7681    7.4529565 
  275000    2384.4329    27114.392   -5331.1567    630.91026    -7872.339     7.391587 
  276000    2444.8812    26866.095    5643.0388     646.9046   -7895.0351    7.4599002 
  277000    2367.0311    26965.444    2004.1141    626.30583   -7868.3004    7.4324156 
  278000    2376.8263    26868.929    2605.4316    628.89759   -7891.4822    7.4591134 
  279000    2414.5345    27062.258   -1567.1911      638.875   -7872.1473    7.4058265 
  280000    2490.0515    26924.071   -1096.1971    658.85645   -7909.8951    7.4438368 
  281000    2430.6914    26912.073    5797.2883    643.15005   -7872.4719    7.4471554 
  282000    2310.1593    26945.643    -3193.681     611.2578   -7901.2497    7.4378774 
  283000    2426.1015    26916.926   -1101.2812    641.93558   -7902.2145    7.4458127 
  284000    2439.0478    26941.797   -447.59138    645.36112   -7898.2251    7.4389391 
  285000    2392.3048    26916.023    646.10389    632.99312   -7888.7255    7.4460623 
  286000    2384.7281     27042.96   -1456.9786    630.98836   -7876.7381    7.4111113 
  287000    2441.4584    26967.472   -64.050137    645.99895   -7891.1345    7.4318566 
  288000    2403.7619    26943.158   -1503.3525    636.02463   -7898.0528    7.4385632 
  289000    2437.8612    27081.047   -5257.8149    645.04714   -7882.3055    7.4006882 
  290000    2331.6314    27105.064   -3545.8323    616.93922   -7866.9334    7.3941308 
  291000    2379.1866    26881.861    1749.3518     629.5221   -7903.7258     7.455525 
  292000    2430.6824    27046.206   -1177.0944    643.14766   -7873.5548    7.4102218 
  293000    2423.7264    26988.727   -1079.9928    641.30713   -7886.6196    7.4260037 
  294000     2310.623    26846.042    7263.8344    611.38049   -7877.6774    7.4654725 
  295000     2470.209    27131.606   -7052.4023    653.60622   -7879.1871    7.3868972 
  296000    2373.3233     26965.08   -4596.5377    627.97069    -7900.013    7.4325159 
  297000    2395.8856     26864.91   -588.08879    633.94059   -7910.4442    7.4602291 
  298000    2356.7204     26969.19    1760.9509    623.57766   -7876.8879    7.4313834 
  299000    2384.5842     27118.84   -5857.8344    630.95028   -7879.3923    7.3903747 
  300000    2422.4565    26987.966    750.88022    640.97113   -7878.4515     7.426213 
Loop time of 100.241 on 8 procs for 50000 steps with 2048 atoms

Performance: 43.096 ns/day, 0.557 hours/ns, 498.799 timesteps/s
116.1% CPU use with 4 MPI tasks x 2 OpenMP threads

MPI task timing breakdown:
Section |  min time  |  avg time  |  max time  |%varavg| %total
---------------------------------------------------------------
Pair    | 56.583     | 57.434     | 58.249     |   8.2 | 57.30
Neigh   | 0.97293    | 0.99697    | 1.0138     |   1.6 |  0.99
Comm    | 4.1277     | 4.984      | 5.8651     |  28.5 |  4.97
Output  | 0.0011818  | 0.0019621  | 0.0022263  |   1.0 |  0.00
Modify  | 36.576     | 36.625     | 36.673     |   0.6 | 36.54
Other   |            | 0.1986     |            |       |  0.20

Nlocal:        512.000 ave         520 max         502 min
Histogram: 1 0 0 0 0 1 1 0 0 1
Nghost:        2625.00 ave        2638 max        2612 min
Histogram: 1 0 0 1 0 0 1 0 0 1
Neighs:        35663.8 ave       37631 max       34188 min
Histogram: 1 0 0 2 0 0 0 0 0 1

Total # of neighbors = 142655
Ave neighs/atom = 69.655762
Neighbor list builds = 1033
Dangerous builds = 0

unfix temp
unfix out_file_1
# unfix 1
# # clear
write_data after_cooling_$T.in
write_data after_cooling_2400.in
System init for write_data ...
Last active /omp style is pair_style eam/alloy/omp
write_restart after_cooling_$T.lmp
write_restart after_cooling_2400.lmp
System init for write_restart ...
Last active /omp style is pair_style eam/alloy/omp
next loopVar
# # # thermo_modify flush yes
jump in.lmp ensemble

print """
Label pachadi solti, hos garam.
"""

Label pachadi solti, hos garam.

variable T equal 2500-${loopVar}*100
variable T equal 2500-2*100
# variable T equal 1200
# velocity all create 1200 123123
reset_timestep 0
fix 1 all npt temp $T $T $(dt*100) iso 0 0 $(dt*1000)
fix 1 all npt temp 2300 $T $(dt*100) iso 0 0 $(dt*1000)
fix 1 all npt temp 2300 2300 $(dt*100) iso 0 0 $(dt*1000)
fix 1 all npt temp 2300 2300 0.10000000000000000555 iso 0 0 $(dt*1000)
fix 1 all npt temp 2300 2300 0.10000000000000000555 iso 0 0 1
print """
<--------------------------------------------------------------------->
<------------------ Equilibrating at temperature $T ----------------->
<--------------------------------------------------------------------->
"""

<--------------------------------------------------------------------->
<------------------ Equilibrating at temperature 2300 ----------------->
<--------------------------------------------------------------------->

fix temp all print 100 "$(step) $(temp) $(press) ${sys_press} $(vol) $(ke) $(pe) $(density)" file temp_cool.txt screen no title  "step temp press pressGiga vol ke pe density"
run 250000
Last active /omp style is pair_style eam/alloy/omp
Per MPI rank memory allocation (min/avg/max) = 4.312 | 4.312 | 4.312 Mbytes
Step Temp Volume Press KinEng PotEng Density 
       0    2422.4565    26987.966    750.88022    640.97113   -7878.4515     7.426213 
    1000    2310.1923    26819.261   -5687.9986    611.26652   -7950.0758    7.4729272 
    2000    2325.1654    26731.812    1869.1937    615.22835   -7931.8631    7.4973737 
    3000    2355.4227    26729.857    2556.6059    623.23429    -7929.554    7.4979221 
    4000    2247.2846    26797.794   -1593.5948    594.62143   -7919.5607    7.4789137 
    5000    2252.7702    26852.787    -6320.775    596.07289   -7935.1531    7.4635973 
    6000    2308.4738    26714.628    826.52271    610.81181   -7939.1764    7.5021963 
    7000    2357.3894    26584.436    5754.9298    623.75468   -7950.9542    7.5389371 
    8000    2314.9748    26675.417    7258.5712    612.53195   -7925.7399     7.513224 
    9000    2276.8488    26801.575   -2824.7969    602.44397   -7938.3966    7.4778585 
   10000    2243.1545    26753.786    1146.1401    593.52863   -7924.5059     7.491216 
   11000    2370.6714    26703.943    4305.9475    627.26904   -7932.4401    7.5051982 
   12000    2248.7966    26692.932    3057.0165     595.0215   -7938.4785    7.5082941 
   13000    2312.4538     26769.56   -987.46239     611.8649   -7936.6248    7.4868016 
   14000    2216.3174    26676.929    3665.5882    586.42764   -7937.8173    7.5127982 
   15000    2269.6703    26854.618   -3671.3594    600.54458   -7925.7083    7.4630885 
   16000    2286.0482    26664.455    5769.5695    604.87811   -7928.8758    7.5163128 
   17000    2282.4251    26760.646   -2101.1802    603.91945   -7941.5936    7.4892954 
   18000    2222.5783    26926.347   -6532.1977    588.08426   -7913.8379    7.4432075 
   19000    2264.3195    26799.231   -2175.6728    599.12879   -7933.8514    7.4785126 
   20000    2326.9919    27098.002   -10581.116    615.71163   -7899.6809    7.3960577 
   21000    2256.3501    26792.154   -2752.9238    597.02013   -7933.5885    7.4804879 
   22000    2282.8656    26757.922    2557.6328      604.036   -7930.3887     7.490058 
   23000    2291.4386    26599.157    3161.2825    606.30439   -7961.7804    7.5347646 
   24000    2301.2121    26588.302    6456.5983    608.89042   -7945.4307    7.5378408 
   25000    2222.8729     26794.12   -5066.6311    588.16221   -7939.6555     7.479939 
   26000    2282.3444    26691.153    5724.6076    603.89811   -7925.9901    7.5087947 
   27000    2238.0171    26715.617   -1834.3393    592.16928    -7948.631    7.5019186 
   28000    2244.2291     26797.79    1740.7229    593.81297   -7914.8917    7.4789148 
   29000    2340.1603    26818.642    542.27238    619.19593   -7917.4801    7.4730997 
   30000     2296.153     26728.88   -955.63951    607.55178   -7948.4375    7.4981963 
   31000      2289.26    26881.097    -2274.131    605.72794   -7911.2436     7.455737 
   32000    2265.4758    26642.392    3745.4593    599.43475   -7946.2045    7.5225372 
   33000    2328.1497    26774.612    205.96362    616.01796   -7929.4312    7.4853891 
   34000    2339.7771    26752.327    -195.4414    619.09454   -7937.8291    7.4916245 
   35000    2309.4117    26744.887    4461.7163    611.05997   -7919.0925    7.4937084 
   36000    2256.0919     26798.65    2779.3343    596.95181   -7914.6845    7.4786746 
   37000    2250.2331    26675.924    2432.4623    595.40159   -7945.3826    7.5130814 
   38000    2349.6574    26890.076    -7656.821    621.70881   -7927.5401    7.4532473 
   39000    2252.3776    26667.676    3102.0596    595.96901   -7943.2906     7.515405 
   40000    2267.8332    26882.164   -427.89219    600.05851   -7903.0247     7.455441 
   41000    2245.5385    26622.962    5955.4805    594.15943   -7936.4257    7.5280273 
   42000    2301.8076    26577.084    7049.9462    609.04796   -7953.5638    7.5410225 
   43000    2288.4972     26824.14   -965.89489    605.52611   -7914.9616    7.4715681 
   44000    2339.8732    26982.625   -7181.4964    619.11996   -7913.4242     7.427683 
   45000    2315.3141     26661.18    2269.5614    612.62174   -7947.8957     7.517236 
   46000     2284.814    26656.168    4779.1899    604.55155   -7938.5883    7.5186496 
   47000    2313.9671    26713.346    3288.7542    612.26532   -7931.1408    7.5025563 
   48000    2229.1332     26727.01    2245.1508    589.81866   -7931.4444    7.4987207 
   49000    2304.7309    26806.533   -742.47922    609.82146    -7924.679    7.4764756 
   50000     2295.353    26681.188    6450.4826    607.34011   -7930.0981     7.511599 
   51000    2229.0875    26766.297   -1318.5422    589.80655   -7930.7374    7.4877142 
   52000     2275.384    26799.312   -359.90726    602.05641   -7924.2877    7.4784899 
   53000    2356.2165    26691.622    2745.1756    623.44432   -7942.8047    7.5086627 
   54000    2378.4478    26713.373    4157.4283    629.32663   -7931.5395     7.502549 
   55000     2348.467    26791.109    1384.3374    621.39385   -7926.3357    7.4807798 
   56000    2236.2109    26710.778   -686.60855    591.69138   -7948.8982    7.5032779 
   57000    2295.5297    26715.761    2164.1602    607.38687   -7931.7255    7.5018784 
   58000    2286.5303    26853.155    1946.4295    605.00567   -7898.0254    7.4634949 
   59000    2288.7757    26723.132    3309.1542    605.59978   -7929.5826    7.4998089 
   60000    2268.5287     26957.88   -7423.3962    600.24251   -7916.0292    7.4345011 
   61000    2262.7403    26642.049    5866.0321    598.71093   -7934.9145     7.522634 
   62000    2349.7487    26632.013    7578.4415    621.73298   -7931.0849    7.5254689 
   63000    2318.2546    26511.808    4891.9275    613.39977   -7982.0589    7.5595895 
   64000    2326.6678    26818.634    2597.6838    615.62587   -7909.5152     7.473102 
   65000    2237.5677    26857.854   -4860.4222    592.05039   -7928.3136    7.4621892 
   66000     2343.358    26897.495   -7078.2193    620.04203   -7931.9936    7.4511916 
   67000     2285.871    26724.542    2945.3806    604.83121   -7933.2518    7.4994133 
   68000     2284.521    26645.463    6747.1689    604.47401   -7931.9815    7.5216703 
   69000    2337.3405    26912.178    -5346.776    618.44982   -7923.5464    7.4471261 
   70000    2254.9516    26790.886    -820.3439    596.65009   -7925.0097     7.480842 
   71000    2279.3541    26808.616   -4354.2572    603.10689   -7936.1706    7.4758946 
   72000    2403.7582     26738.41    4125.6871    636.02363   -7927.6771    7.4955239 
   73000    2239.5648    26604.909    1288.7074     592.5788    -7961.952    7.5331355 
   74000    2317.8548    26696.557   -115.30398    613.29399   -7946.8077    7.5072748 
   75000    2312.6052    26874.549   -8560.4103    611.90497   -7942.3414    7.4575535 
   76000    2370.2266    26747.641    263.60468    627.15133   -7937.7437     7.492937 
   77000     2255.328     26616.67    3151.8862    596.74968   -7955.4356    7.5298068 
   78000    2400.9479    26790.872   -1046.4695    635.28006   -7938.6478     7.480846 
   79000    2178.8519    26855.476    -5143.487    576.51444   -7926.5626    7.4628499 
   80000    2266.6075     26832.29   -1905.0957    599.73418   -7924.8671    7.4692986 
   81000    2358.1749     26791.41    1682.4905    623.96252   -7919.6236    7.4806956 
   82000    2253.5804    26646.466    844.11892    596.28727   -7954.1908    7.5213872 
   83000    2293.3823    26629.859    4757.8585    606.81868   -7945.5029    7.5260776 
   84000    2271.4544    26935.072   -8173.0887    601.01665   -7926.7286    7.4407965 
   85000    2256.9785    26837.054   -5366.2099    597.18641   -7935.2638    7.4679726 
   86000    2313.4251    26755.963    5177.5904    612.12191   -7911.5051    7.4906063 
   87000    2384.7304    26652.027    10467.021    630.98898   -7921.6463    7.5198179 
   88000    2280.0577     26815.15   -3426.0286    603.29306   -7933.7123    7.4740728 
   89000    2303.0992    26863.575   -3664.3491    609.38973   -7925.8546    7.4605998 
   90000    2312.2978    26632.343    1957.4059    611.82362   -7960.9456    7.5253756 
   91000    2329.6554    26638.551    8579.4634    616.41636   -7926.0685     7.523622 
   92000    2280.8546    26761.675    2472.6348     603.5039   -7919.7011    7.4890077 
   93000    2252.0804    26737.282   -491.88916    595.89038   -7938.3292    7.4958401 
   94000    2259.8698    26699.249    2601.2286    597.95142   -7932.5415    7.5065177 
   95000    2341.6472    26789.614   -2866.6482    619.58935   -7938.7815    7.4811971 
   96000    2263.9995    26675.886   -2003.3778    599.04411   -7956.1511    7.5130921 
   97000    2363.8543     26756.52    2156.5423    625.46525   -7926.3721    7.4904503 
   98000    2257.9037    26701.338    717.89646    597.43119   -7941.7527    7.5059306 
   99000    2344.3691    26704.779   -1273.6816    620.30956   -7948.6361    7.5049632 
  100000    2307.7105    26523.985    9782.0736    610.60985   -7951.3396    7.5561189 
  101000    2236.4688    26684.709    947.21284    591.75962   -7944.2413    7.5106078 
  102000    2310.5277    26742.711    3023.7175    611.35526   -7927.7789    7.4943181 
  103000     2257.611    26823.092   -3630.1083    597.35375   -7931.7157    7.4718598 
  104000    2263.1579    26684.118    1383.3226    598.82145   -7943.4525    7.5107742 
  105000    2258.3521    26757.861    2134.1916    597.54983   -7924.8522     7.490075 
  106000    2269.3962    26744.843    3571.4548    600.47206   -7918.7316    7.4937208 
  107000    2331.4675    26672.497    7128.7361    616.89585   -7922.6952    7.5140466 
  108000    2251.9868    26773.356     1882.236     595.8656   -7912.2371    7.4857402 
  109000    2357.1344    26726.788   -1137.3868    623.68721    -7946.894    7.4987831 
  110000    2301.4364    26833.542    1189.6038    608.94974   -7915.0509      7.46895 
  111000    2264.6915    26613.688    2117.1615    599.22723   -7961.3381    7.5306505 
  112000    2308.7093     26640.41    8736.3728    610.87412    -7922.471     7.523097 
  113000    2287.6037    26687.799    4036.8215    605.28968   -7931.9445    7.5097383 
  114000    2250.2197    26793.173   -1551.6878    595.39806    -7926.541    7.4802035 
  115000    2382.4264    26949.905   -4290.3617    630.37934   -7914.0091    7.4367011 
  116000    2237.7888     26766.77    192.61745    592.10888   -7933.9148     7.487582 
  117000    2340.5577    26938.475   -9908.8846    619.30108   -7931.3577    7.4398564 
  118000    2321.1857    26917.867   -787.06457    614.17534   -7893.3011    7.4455523 
  119000    2289.6428    26731.121   -600.08093    605.82922   -7941.8213    7.4975676 
  120000      2312.74    26731.686   -1363.0763    611.94063   -7948.5053    7.4974092 
  121000     2250.749    26732.448   -789.99656    595.53809   -7940.4883    7.4971955 
  122000    2278.2324    26830.237   -868.44839    602.81007   -7917.2774    7.4698701 
  123000    2289.1566    26790.804    806.34647    605.70057   -7917.9484    7.4808651 
  124000    2327.2915    26834.435   -853.05751     615.7909   -7919.3242    7.4687016 
  125000    2331.7886    26745.939    5367.1221    616.98081   -7914.2294    7.4934138 
  126000    2242.5239    26712.958    -51.24707    593.36177   -7937.3023    7.5026655 
  127000    2252.0107    26603.878    1930.4088    595.87194   -7958.0723    7.5334276 
  128000    2281.1593    26740.815    2851.6555    603.58453   -7921.2221    7.4948497 
  129000    2262.8183     26523.75    9718.3265    598.73157   -7951.0458     7.556186 
  130000    2267.8204    26733.131    3510.8757     600.0551   -7922.3858    7.4970038 
  131000    2319.2991    26906.107   -4032.4286    613.67615    -7916.509    7.4488065 
  132000    2274.6723    26709.255    1291.5037     601.8681   -7945.3576    7.5037057 
  133000    2335.7482    26783.203   -485.30673    618.02851   -7931.8951    7.4829879 
  134000    2299.6542    26586.729    3378.8411    608.47819   -7959.2744    7.5382867 
  135000    2321.6116    26831.185   -3731.0376    614.28802   -7933.1876    7.4696062 
  136000    2273.3467    26749.652   -631.71971    601.51734   -7931.0499    7.4923735 
  137000    2261.9099    26913.706    61.360457    598.49121   -7894.1165    7.4467034 
  138000    2142.1786    26635.374    4713.5448    566.81085   -7932.5229    7.5245194 
  139000    2342.3577    26782.799   -3580.5667    619.77733   -7945.7661    7.4831009 
  140000    2266.7309    26718.567    2805.1866    599.76682   -7921.8654    7.5010904 
  141000    2337.5335    26816.769    539.65808    618.50089   -7917.4179    7.4736216 
  142000    2309.0668    26667.125    1883.7422    610.96873   -7946.3023    7.5155604 
  143000     2308.549    26610.312    2690.6731    610.83171   -7960.2679     7.531606 
  144000    2294.9724    26831.734   -4701.4654    607.23941   -7934.4342    7.4694533 
  145000     2316.287    26860.324   -4124.1076    612.87916   -7929.3036    7.4615029 
  146000    2344.4025    26854.175     -947.732     620.3184   -7916.2578    7.4632114 
  147000    2361.7511     26710.92    956.36119    624.90876   -7948.1223    7.5032378 
  148000    2308.3529    26780.999    251.73842    610.77983   -7921.3691    7.4836037 
  149000     2300.759    26754.485    4606.8804    608.77052   -7914.8203      7.49102 
  150000    2333.9111    26864.753    -3144.868    617.54241   -7925.7491    7.4602727 
  151000    2349.9568    26726.387    3397.1399    621.78803   -7934.3769    7.4988956 
  152000    2246.1262    26711.586    835.12114    594.31491   -7939.5119    7.5030507 
  153000    2237.5369    26935.057    -2687.531    592.04223   -7900.1279    7.4408007 
  154000     2312.664     26978.61   -7073.2231    611.92052   -7905.9638    7.4287884 
  155000    2235.4077    26734.414    2487.2861    591.47885   -7931.9332    7.4966441 
  156000    2257.6121    26834.351   -417.19173    597.35405   -7917.4151    7.4687248 
  157000     2363.905    26834.403    2917.8909    625.47867   -7898.7439    7.4687104 
  158000    2277.0148    26775.148   -3104.2562     602.4879   -7942.8046    7.4852391 
  159000    2305.9072    26819.385   -2114.3268    610.13272   -7928.5385    7.4728926 
  160000    2328.7317    26646.332    8640.1116    616.17198   -7926.9822    7.5214248 
  161000    2313.8488    26772.168    1204.2445    612.23402   -7925.5339    7.4860722 
  162000    2267.9753    26863.513   -4366.4842    600.09608   -7923.2025     7.460617 
  163000    2276.5058    26759.919    847.81941    602.35322   -7931.5201    7.4894991 
  164000    2371.7378    26791.388    776.91375    627.55118   -7927.4066    7.4807018 
  165000    2249.5152    26747.487    1016.0777    595.21163   -7926.8763    7.4929802 
  166000    2365.6196    26639.682    652.19704    625.93233    -7963.833    7.5233025 
  167000    2306.9723    26770.347    -7136.479    610.41452   -7955.9893    7.4865815 
  168000    2241.5485    26849.083   -441.13159     593.1037   -7917.3635     7.464627 
  169000    2348.8964    26672.115    2733.9377    621.50746   -7944.6301    7.5141541 
  170000    2310.8642    26870.078   -583.74908     611.4443   -7908.6705    7.4587943 
  171000    2247.1373    26711.178   -1298.5637    594.58247   -7947.8442    7.5031653 
  172000    2330.6743    26714.829    1494.6257    616.68596   -7933.9527    7.5021399 
  173000    2316.7331    26824.167    -1152.971     612.9972   -7921.3302    7.4715606 
  174000     2322.789    26719.048    6976.4285    614.59956    -7917.171    7.5009555 
  175000    2263.7759    26783.744    1647.0333    598.98494   -7919.6586    7.4828368 
  176000    2236.7662    26774.954   -3090.4696    591.83831   -7937.0025    7.4852935 
  177000    2266.9615    26783.762   -131.11062    599.82784    -7929.696    7.4828317 
  178000    2264.8988    26677.622     4367.551    599.28208    -7938.393    7.5126032 
  179000     2319.813    26858.073   -4858.0757    613.81211   -7925.1507    7.4621282 
  180000    2291.2727    26819.667   -389.00668    606.26048   -7927.6577     7.472814 
  181000    2293.6826    27018.497   -2618.7022    606.89813   -7885.6405    7.4178215 
  182000    2355.8592     26637.68    2245.0721    623.34979    -7951.703     7.523868 
  183000    2299.2199    26707.852    1464.8022    608.36327   -7937.9378    7.5040998 
  184000    2212.2249    26754.976    3366.9442     585.3448    -7922.628    7.4908827 
  185000    2307.3517    26732.681    200.97501    610.51492   -7940.9919      7.49713 
  186000    2355.3214    26737.817    3859.7229    623.20747   -7921.7017    7.4956898 
  187000    2287.1216    26842.336   -6186.1574    605.16213   -7938.3968    7.4665032 
  188000    2294.5457    26811.611   -645.97629     607.1265   -7929.5651    7.4750595 
  189000    2304.6954    26947.614   -8932.7931    609.81207   -7917.0806    7.4373332 
  190000    2302.4844    26969.471   -5267.3073    609.22706   -7904.5767    7.4313059 
  191000    2283.5543    26743.585   -1046.9577    604.21823    -7936.156    7.4940733 
  192000    2336.0313    26709.892    2000.0251    618.10342   -7934.7181    7.5035267 
  193000    2298.5854    26718.218    3285.0226     608.1954   -7931.7827    7.5011883 
  194000    2235.4607    26700.787    4744.7917    591.49287   -7920.6718    7.5060855 
  195000    2297.6073    26810.881   -3674.1921     607.9366    -7933.713    7.4752629 
  196000    2235.1885    26788.708   -4149.6444    591.42087    -7943.857    7.4814504 
  197000     2333.867    26727.289    5013.3032    617.53074   -7919.1184    7.4986426 
  198000    2279.9287    26769.582    1106.1566     603.2589   -7921.1964    7.4867955 
  199000    2293.9373    26785.366   -2547.5731    606.96552   -7933.0503    7.4823836 
  200000    2390.1397    26846.314   -1977.5046    632.42025    -7920.231    7.4653969 
  201000    2330.5346    26785.209    -540.1225    616.64901   -7928.8174    7.4824276 
  202000    2293.1867     26860.22    -2551.024    606.76691   -7914.4922    7.4615317 
  203000    2244.7166    26664.702    1329.9595    593.94195   -7943.5472    7.5162432 
  204000    2315.0587     26714.38     196.2775    612.55414   -7946.4749     7.502266 
  205000    2342.0626    26779.366    987.78069    619.69925   -7924.7955    7.4840603 
  206000    2258.3205     26714.87    1593.3898    597.54149   -7940.2169    7.5021284 
  207000    2288.5707    26709.642    218.96291    605.54554   -7939.2794    7.5035968 
  208000    2320.3367    26822.166    -3261.966    613.95069   -7931.9371     7.472118 
  209000    2303.5668    26811.421   -1510.8136    609.51343   -7930.0472    7.4751123 
  210000     2273.141    26762.374    5424.9653    601.46291   -7908.1539     7.488812 
  211000    2228.6703    26809.573    895.23701    589.69617   -7914.3162    7.4756277 
  212000    2233.9632    26758.276   -4642.8446    591.09665   -7951.0105    7.4899589 
  213000     2322.554    26798.495   -5642.4128    614.53738    -7942.141    7.4787179 
  214000    2295.9047    26683.039    6536.2335    607.48609   -7919.2482     7.511078 
  215000      2307.59    26696.581    2082.1197    610.57796    -7940.585     7.507268 
  216000    2203.2808    26825.956   -8398.1917    582.97821   -7952.2951    7.4710621 
  217000    2288.8958     26922.03    -9925.544    605.63157   -7931.0191    7.4444008 
  218000    2373.9104    26808.116   -3495.7273    628.12604   -7942.7267     7.476034 
  219000    2370.9192    26839.181   -2494.1578     627.3346   -7925.7113    7.4673809 
  220000    2274.1585    26846.672   -1208.0813    601.73213   -7916.3914    7.4652973 
  221000    2276.6255    26707.468    3359.0894    602.38491   -7931.8104    7.5042076 
  222000    2234.6538    26624.689    5583.5605    591.27936   -7933.3853    7.5275391 
  223000    2313.1247    26689.124    3224.8912    612.04243   -7936.7071    7.5093655 
  224000    2288.1603    26771.158    -3543.855    605.43696   -7942.3583    7.4863547 
  225000     2320.827     26735.78    2934.9167    614.08041   -7930.3027    7.4962609 
  226000     2350.812    26595.746    8382.6224    622.01431   -7941.8226    7.5357311 
  227000    2327.9052     26661.27    2551.5477    615.95328   -7945.0176    7.5172107 
  228000    2269.4244    26777.434   -3787.4714    600.47952   -7942.9507    7.4846001 
  229000    2304.8272    27027.658   -12315.002    609.84696   -7922.5774    7.4153071 
  230000    2343.7222    26820.352   -671.80964    620.13838    -7921.324    7.4726234 
  231000    2344.5057    26799.996    3037.8398    620.34569   -7915.9323    7.4782991 
  232000    2330.3927    26770.907    640.82032    616.61146   -7926.4051     7.486425 
  233000    2263.0146    26697.115    5960.4457    598.78351   -7921.4109    7.5071179 
  234000    2286.3297    26767.271    2090.8045    604.95259   -7922.5947     7.487442 
  235000    2316.6694    26579.168      8521.12    612.98033   -7940.9362     7.540431 
  236000     2350.846    26888.467   -1924.6051    622.02331   -7915.4669    7.4536934 
  237000    2319.7348      26872.4   -4269.8508    613.79142   -7929.1486    7.4581499 
  238000    2314.9797    26563.027    9495.5143    612.53326   -7936.8678     7.545013 
  239000    2258.4086    26783.634   -1201.3852    597.56478   -7927.1545    7.4828675 
  240000    2254.9885    26853.632    -3901.991    596.65984   -7924.1347    7.4633624 
  241000    2313.9366    26984.979   -8728.7055    612.25725   -7914.6166     7.427035 
  242000    2285.2276    26769.524    707.81832    604.66097   -7928.1164    7.4868117 
  243000    2394.6707    26791.456    3369.0639    633.61914   -7914.9941    7.4806829 
  244000    2252.9316    26731.063      -4567.9     596.1156   -7961.9277     7.497584 
  245000    2306.6556    26886.737   -4141.9467    610.33072   -7917.6226    7.4541728 
  246000    2371.3345    26949.063   -2574.3866    627.44448   -7904.8343    7.4369335 
  247000    2288.4776    26693.483    4273.5397    605.52091   -7931.9548    7.5081392 
  248000    2385.2352    26815.138    -4402.735    631.12254   -7940.3297    7.4740763 
  249000    2337.1217    26779.805     1044.182    618.39193   -7925.1318    7.4839376 
  250000    2325.4675    26572.476    4735.0411    615.30828   -7955.6532    7.5423303 
Loop time of 505.316 on 8 procs for 250000 steps with 2048 atoms

Performance: 42.746 ns/day, 0.561 hours/ns, 494.740 timesteps/s
116.8% CPU use with 4 MPI tasks x 2 OpenMP threads

MPI task timing breakdown:
Section |  min time  |  avg time  |  max time  |%varavg| %total
---------------------------------------------------------------
Pair    | 286.29     | 290.42     | 294.44     |  17.8 | 57.47
Neigh   | 4.8195     | 4.9416     | 4.9924     |   3.2 |  0.98
Comm    | 21.65      | 25.936     | 30.243     |  62.2 |  5.13
Output  | 0.0061043  | 0.010992   | 0.012632   |   2.7 |  0.00
Modify  | 182.8      | 183.02     | 183.25     |   1.2 | 36.22
Other   |            | 0.9951     |            |       |  0.20

Nlocal:        512.000 ave         519 max         505 min
Histogram: 1 0 1 0 0 0 0 1 0 1
Nghost:        2642.00 ave        2648 max        2631 min
Histogram: 1 0 0 0 0 0 1 0 0 2
Neighs:        36280.8 ave       37917 max       35225 min
Histogram: 1 1 0 0 1 0 0 0 0 1

Total # of neighbors = 145123
Ave neighs/atom = 70.860840
Neighbor list builds = 5078
Dangerous builds = 0


# fix 132 all momentum 100 linear 1 1 1 angular
fix out_file_1 all print 1000 "$(step) $(temp) $(press) ${sys_press} $(vol) $(ke) $(pe) $(density)" file one_phase_cooling_$T_.txt screen no title  "step temp press pressGiga vol ke pe density"
fix out_file_1 all print 1000 "$(step) $(temp) $(press) ${sys_press} $(vol) $(ke) $(pe) $(density)" file one_phase_cooling_2300_.txt screen no title  "step temp press pressGiga vol ke pe density"

# dump 3 all custom 1000 traj_npt_new.lammpstrj id type x y z
run 50000
Last active /omp style is pair_style eam/alloy/omp
Per MPI rank memory allocation (min/avg/max) = 4.312 | 4.312 | 4.312 Mbytes
Step Temp Volume Press KinEng PotEng Density 
  250000    2325.4675    26572.476    4735.0411    615.30828   -7955.6532    7.5423303 
  251000    2262.9301    26773.906   -1889.8546    598.76117   -7934.2624    7.4855863 
  252000    2294.6898    26638.497    4076.3648    607.16463   -7944.1017    7.5236371 
  253000    2296.8747    26747.269    3407.5728    607.74275   -7923.2585    7.4930411 
  254000    2294.5628    26738.233    811.42584    607.13103   -7927.0297    7.4955733 
  255000    2315.5133    26711.051    2819.0267    612.67443    -7925.995     7.503201 
  256000    2303.9445    26630.077     5100.244    609.61339   -7951.2601    7.5260161 
  257000    2363.3837     26822.21   -571.51813    625.34074   -7918.9047    7.4721056 
  258000     2279.489    26747.782    1448.7748    603.14258     -7929.48    7.4928973 
  259000    2241.6006    26843.402    -5689.237    593.11748   -7937.2755    7.4662066 
  260000     2295.259    26790.803   -863.49699    607.31523   -7934.7416    7.4808653 
  261000     2285.401     26532.86    7839.0991    604.70687   -7956.7228    7.5535915 
  262000    2358.1753    26774.345    101.31797    623.96261   -7923.9454    7.4854638 
  263000    2298.1697    26820.517   -1142.0381     608.0854   -7922.8437    7.4725773 
  264000    2278.4923    26856.022   -147.87389    602.87884   -7909.0489    7.4626981 
  265000    2274.8676    26847.506   -1173.9035    601.91977   -7918.6698    7.4650654 
  266000    2289.7963    26754.148    2723.5437    605.86982   -7923.1484    7.4911144 
  267000     2363.445    26680.896    7813.8789    625.35696   -7921.1351    7.5116813 
  268000    2292.8798    26745.761    6091.9679    606.68571    -7914.696    7.4934635 
  269000    2328.7194    26748.356   -357.73341    616.16872   -7941.1961    7.4927365 
  270000      2296.44    26690.714    421.51174    607.62772   -7952.1585    7.5089181 
  271000    2254.5151    26893.499   -1479.7387    596.53459   -7906.1783    7.4522988 
  272000    2275.6443     26885.45   -4758.9083    602.12527   -7919.9254    7.4545298 
  273000    2366.1426    26890.542   -928.25305    626.07073   -7910.2445    7.4531181 
  274000    2275.4001    26699.848    3702.4904    602.06068   -7928.1428    7.5063493 
  275000    2325.0286    26829.785   -388.82006    615.19214   -7920.7627    7.4699959 
  276000    2337.0701    26731.792   -634.81629    618.37828   -7946.0031    7.4973795 
  277000    2319.9046    26799.131   -3135.2707    613.83636   -7937.3208    7.4785406 
  278000    2334.4263    26738.104   -3278.7509    617.67872   -7951.7548    7.4956095 
  279000    2273.8401    26821.872   -1210.3952     601.6479   -7919.4497    7.4721999 
  280000    2282.4226    26562.144    9715.1944    603.91879   -7937.3585     7.545264 
  281000    2274.0284    26758.379    4922.5894    601.69773   -7910.9225    7.4899299 
  282000    2337.9388    26825.996    2.8029524    618.60812   -7924.7545    7.4710512 
  283000    2351.0261    26692.464    3186.3545    622.07096   -7940.9438    7.5084259 
  284000    2269.8609     26788.06    878.29252    600.59502   -7918.5691    7.4816312 
  285000    2263.6838    26666.133    6389.5732    598.96058    -7929.682    7.5158399 
  286000    2297.5034    26780.434   -1789.3744    607.90911   -7933.3406    7.4837617 
  287000     2336.353    26790.203   -803.66804    618.18854   -7935.0297    7.4810327 
  288000    2290.2858    26752.372   -51.440009    605.99935   -7934.5843    7.4916118 
  289000    2366.4906    26546.115    10332.402    626.16281   -7939.1473      7.54982 
  290000    2230.1534    26572.781    3534.9139     590.0886   -7955.1974    7.5422435 
  291000    2325.7493    26763.773     395.4787    615.38284    -7931.719    7.4884205 
  292000    2356.5533    26844.449    1413.5076    623.53345   -7907.7955    7.4659155 
  293000    2338.9911    26745.722    2003.1742    618.88656   -7923.2342    7.4934746 
  294000    2354.1057    26644.496    4951.9321     622.8858    -7944.583    7.5219432 
  295000    2235.8549    26669.848    1354.5194    591.59719   -7947.1409    7.5147929 
  296000    2304.7683    26752.196    218.88677    609.83136   -7931.7873    7.4916611 
  297000     2358.963    26907.955   -451.04339    624.17103   -7900.6498    7.4482949 
  298000    2290.8367    26714.178    1379.0593    606.14512    -7939.517    7.5023229 
  299000    2255.2123    26682.223    781.47357    596.71905   -7947.7179    7.5113077 
  300000    2342.8878    26820.764    2644.4378     619.9176   -7911.8289    7.4725086 
Loop time of 103.614 on 8 procs for 50000 steps with 2048 atoms

Performance: 41.693 ns/day, 0.576 hours/ns, 482.560 timesteps/s
116.2% CPU use with 4 MPI tasks x 2 OpenMP threads

MPI task timing breakdown:
Section |  min time  |  avg time  |  max time  |%varavg| %total
---------------------------------------------------------------
Pair    | 58.823     | 59.61      | 60.474     |   8.1 | 57.53
Neigh   | 0.98172    | 1.012      | 1.0291     |   1.8 |  0.98
Comm    | 4.7869     | 5.7033     | 6.5239     |  27.0 |  5.50
Output  | 0.0012449  | 0.0019802  | 0.0022278  |   1.0 |  0.00
Modify  | 37.028     | 37.082     | 37.128     |   0.6 | 35.79
Other   |            | 0.2049     |            |       |  0.20

Nlocal:        512.000 ave         514 max         508 min
Histogram: 1 0 0 0 0 0 1 0 0 2
Nghost:        2614.00 ave        2619 max        2607 min
Histogram: 1 0 0 0 0 1 0 0 1 1
Neighs:        35803.0 ave       37614 max       34055 min
Histogram: 1 0 0 1 0 1 0 0 0 1

Total # of neighbors = 143212
Ave neighs/atom = 69.927734
Neighbor list builds = 1014
Dangerous builds = 0

unfix temp
unfix out_file_1
# unfix 1
# # clear
write_data after_cooling_$T.in
write_data after_cooling_2300.in
System init for write_data ...
Last active /omp style is pair_style eam/alloy/omp
write_restart after_cooling_$T.lmp
write_restart after_cooling_2300.lmp
System init for write_restart ...
Last active /omp style is pair_style eam/alloy/omp
next loopVar
# # # thermo_modify flush yes
jump in.lmp ensemble

print """
Label pachadi solti, hos garam.
"""

Label pachadi solti, hos garam.

variable T equal 2500-${loopVar}*100
variable T equal 2500-3*100
# variable T equal 1200
# velocity all create 1200 123123
reset_timestep 0
fix 1 all npt temp $T $T $(dt*100) iso 0 0 $(dt*1000)
fix 1 all npt temp 2200 $T $(dt*100) iso 0 0 $(dt*1000)
fix 1 all npt temp 2200 2200 $(dt*100) iso 0 0 $(dt*1000)
fix 1 all npt temp 2200 2200 0.10000000000000000555 iso 0 0 $(dt*1000)
fix 1 all npt temp 2200 2200 0.10000000000000000555 iso 0 0 1
print """
<--------------------------------------------------------------------->
<------------------ Equilibrating at temperature $T ----------------->
<--------------------------------------------------------------------->
"""

<--------------------------------------------------------------------->
<------------------ Equilibrating at temperature 2200 ----------------->
<--------------------------------------------------------------------->

fix temp all print 100 "$(step) $(temp) $(press) ${sys_press} $(vol) $(ke) $(pe) $(density)" file temp_cool.txt screen no title  "step temp press pressGiga vol ke pe density"
run 250000
Last active /omp style is pair_style eam/alloy/omp
Per MPI rank memory allocation (min/avg/max) = 4.312 | 4.312 | 4.312 Mbytes
Step Temp Volume Press KinEng PotEng Density 
       0    2342.8878    26820.764    2644.4378     619.9176   -7911.8289    7.4725086 
    1000    2186.7241    26588.065     53.87136    578.59739   -7971.9954    7.5379079 
    2000     2157.541      26563.9   -3743.6708    570.87567   -7989.8322    7.5447652 
    3000    2169.3856    26553.433    3333.1196     574.0097   -7963.2888    7.5477391 
    4000    2138.4178    26388.052    10431.273    565.81576   -7974.5203    7.5950428 
    5000    2132.8428      26497.4     3884.185    564.34065   -7972.8465       7.5637 
    6000    2173.8101    26771.795   -4686.1601     575.1804   -7944.4912    7.4861767 
    7000    2236.9725    26593.431   -449.00876    591.89289   -7978.1479     7.536387 
    8000    2178.2057    26566.214    5658.9348    576.34346   -7948.0605    7.5441078 
    9000     2230.994    26500.875    2680.5521    590.31102   -7983.2793    7.5627082 
   10000    2114.6867    26566.319   -2984.8628    559.53662   -7983.1414    7.5440782 
   11000    2186.7551    26527.459    6494.7878     578.6056   -7967.7276    7.5551294 
   12000    2208.4887    26622.509   -2783.1514    584.35621   -7981.9799    7.5281555 
   13000    2208.3487    26557.802    2002.2483    584.31917   -7974.9721    7.5464976 
   14000    2190.1605    26735.442   -6490.8084    579.50664   -7962.6965    7.4963557 
   15000    2227.4297    26678.669   -49.973202    589.36792   -7949.6171    7.5123084 
   16000    2232.1334    26576.108      3316.29     590.6125   -7962.4362    7.5412993 
   17000    2200.7529    26486.442    4790.2396    582.30936   -7977.3459    7.5668295 
   18000    2176.7822    26718.255   -6015.9028    575.96682    -7960.775     7.501178 
   19000    2250.7367    26606.759   -1080.6712    595.53484   -7974.8937    7.5326118 
   20000    2256.0741    26328.785    11215.118     596.9471   -7986.8982    7.6121394 
   21000    2141.2727    26508.863    2186.1616    566.57116   -7980.7486    7.5604294 
   22000     2190.975    26758.712    -3012.988    579.72216   -7941.4929    7.4898368 
   23000    2309.2752    26674.308   -2213.6496    611.02386   -7963.1047    7.5135365 
   24000    2197.3525    26696.611   -4553.6647    581.40962   -7966.0818    7.5072596 
   25000    2207.8511    26618.372    3603.3487    584.18751   -7950.1131    7.5293256 
   26000    2130.1429    26541.886    4375.7946    563.62626   -7963.9155    7.5510227 
   27000    2197.8081    26750.865   -4962.8074    581.53018   -7953.1358    7.4920339 
   28000    2184.7578    26538.393   -1742.3969    578.07712   -7989.5593    7.5520166 
   29000    2207.3391      26542.6     1574.227    584.05204   -7978.4894    7.5508196 
   30000    2149.8038    26831.065   -10459.316    568.82845   -7954.8342    7.4696397 
   31000    2123.1303    26609.129   -2271.2443    561.77075   -7978.7623     7.531941 
   32000    2261.1154     26549.82    4144.6217    598.28099   -7972.9739    7.5487663 
   33000    2261.0083    26630.051    -2928.784    598.25266   -7973.1586    7.5260234 
   34000    2211.7141    26574.256    2265.5688    585.20964   -7971.0681    7.5418249 
   35000     2150.495    26542.037    1908.0714    569.01134   -7974.8947    7.5509799 
   36000    2161.0723    26575.648    2538.3319    571.81004   -7963.9274    7.5414298 
   37000     2209.566    26670.305    2574.4922    584.64125   -7943.7676    7.5146641 
   38000    2207.8418    26443.557    7829.9312    584.18505   -7976.9019    7.5791008 
   39000    2249.4052    26443.404    3479.3794    595.18253   -7993.8944    7.5791447 
   40000     2237.961    26537.722    3142.2051    592.15444   -7979.6482    7.5522075 
   41000    2222.0745    26610.293   -1954.2557    587.95095   -7976.8839    7.5316114 
   42000    2101.0644    26657.348   -5146.8563    555.93221    -7977.953    7.5183168 
   43000    2206.3302    26505.724    4171.1934    583.78507   -7976.0344    7.5613249 
   44000     2237.445    26693.893   -1739.2732    592.01791   -7955.1413    7.5080239 
   45000    2189.8516    26735.106   -6432.6857    579.42493   -7958.9677      7.49645 
   46000    2207.6912    26505.774    439.54474    584.14519   -7989.4571    7.5613104 
   47000    2164.4416    26602.108   -1155.7045    572.70154   -7973.3309    7.5339288 
   48000    2204.6744    26504.601    4814.3703    583.34697   -7979.9938    7.5616452 
   49000    2217.4095    26678.319   -5113.4987    586.71661   -7970.1719     7.512407 
   50000    2155.8262    26645.147   -351.68128    570.42195   -7958.1605    7.5217596 
   51000    2222.3775     26755.75   -3992.3248    588.03113   -7947.6382    7.4906661 
   52000    2205.0576    26551.169   -161.50396    583.44836   -7981.9404    7.5483829 
   53000    2261.2408    26475.102      6305.49    598.31418   -7974.5756    7.5700705 
   54000      2280.83    26617.107   -1511.7908     603.4974   -7976.1645    7.5296834 
   55000    2152.0115    26548.797    -882.6535     569.4126   -7984.1843    7.5490572 
   56000    2214.9685    26625.996   -2323.4073    586.07073   -7977.9697    7.5271696 
   57000     2192.806    26712.495   -1976.4745    580.20664   -7949.7849    7.5027954 
   58000    2194.6644    26606.961   -4545.3605    580.69835    -7986.908    7.5325546 
   59000    2235.8617    26527.589    3123.2102    591.59899    -7971.109    7.5550925 
   60000    2232.5526    26563.746    2063.0969    590.72341   -7969.2605     7.544809 
   61000    2193.1712    26714.673   -4350.8347    580.30327    -7957.678    7.5021837 
   62000    2202.3858     26755.34   -1845.9175     582.7414   -7936.8469    7.4907808 
   63000    2130.1473     26583.54    4543.4008    563.62744   -7958.8622    7.5391911 
   64000    2282.9849    26558.416    1282.8238    604.06758   -7972.7046     7.546323 
   65000    2151.6228    26506.498    6207.9846    569.30974   -7964.8631    7.5611041 
   66000    2220.9311    26448.017    7492.9031    587.64842   -7977.3448    7.5778227 
   67000    2182.3374    26522.082    451.08609    577.43668   -7985.3891    7.5566612 
   68000    2185.3062    26550.985    1127.8491    578.22222   -7975.8778    7.5484349 
   69000    2230.2346    26529.018    1609.0937    590.11009   -7983.8811    7.5546854 
   70000    2147.0377    26658.675   -2413.3748    568.09655    -7960.571    7.5179425 
   71000    2217.8699     26709.81   -5295.3763    586.83843    -7964.695    7.5035497 
   72000    2258.4837    26376.578    8577.8013    597.58467   -7988.2794    7.5983469 
   73000    2212.1547    26571.543    4218.9387    585.32621   -7961.7477     7.542595 
   74000    2198.8406    26544.607    863.10288    581.80337   -7980.0619    7.5502488 
   75000     2223.485    26598.654    763.04103    588.32416   -7969.4152    7.5349071 
   76000    2130.4116     26529.78   -766.58864    563.69737   -7985.2627    7.5544685 
   77000    2173.2948    26603.152    1570.6062    575.04407   -7963.1401    7.5336332 
   78000    2178.6511    26532.608    4795.5624    576.46131   -7961.0555    7.5536632 
   79000    2158.9065     26765.49   -8995.3561    571.23699   -7969.1369    7.4879402 
   80000    2142.2277     26701.07    -4230.694    566.82383   -7958.9853    7.5060059 
   81000    2158.1892    26602.089   -3963.6115    571.04719   -7983.9064    7.5339342 
   82000     2192.725    26459.237    4423.6828     580.1852   -7990.3039    7.5746094 
   83000    2219.8504    26589.604    1779.3284    587.36247   -7972.2236    7.5374718 
   84000    2172.3143    26651.941   -5531.0405    574.78462   -7984.2934     7.519842 
   85000    2204.0776    26609.913    2626.2227    583.18904   -7961.2155     7.531719 
   86000    2189.7541    26619.626   -1679.7376    579.39912   -7968.5066    7.5289709 
   87000    2214.8621    26609.559    502.50197    586.04257   -7969.7575    7.5318193 
   88000    2214.7301    26611.843    739.10503    586.00764   -7954.2303    7.5311727 
   89000     2245.547    26661.417   -1613.7737    594.16166   -7959.1349    7.5171693 
   90000    2183.6042    26591.048   -1946.1896    577.77187    -7979.415    7.5370624 
   91000    2184.5016    26691.176    -5393.864    578.00933   -7969.2605    7.5087882 
   92000    2195.3252    26564.522    3091.3263     580.8732   -7968.3164    7.5445886 
   93000    2159.8627     26631.61   -4425.5096       571.49   -7977.0576    7.5255827 
   94000    2263.0602    26743.888   -4904.8363    598.79558   -7955.8019    7.4939883 
   95000     2208.953     26684.84   -95.975568    584.47907   -7956.1627    7.5105709 
   96000    2217.8173    26691.615    -6199.294    586.82451   -7974.2455    7.5086648 
   97000    2237.1104    26531.703    1575.1103     591.9294   -7985.6107    7.5539208 
   98000    2146.8561      26457.7     4176.586     568.0485    -7986.233    7.5750496 
   99000    2117.5432     26549.83   -1106.8577    560.29245   -7981.9977    7.5487634 
  100000    2243.4124    26451.542    6858.7457    593.59686   -7980.4985    7.5768129 
  101000    2247.4868     26518.95   -199.68686    594.67493   -7989.6074    7.5575536 
  102000    2207.3474    26617.376    726.95034    584.05423   -7963.8944    7.5296073 
  103000     2144.008    26639.431   -6516.8684    567.29491   -7986.6486    7.5233735 
  104000    2154.6759    26474.434    5806.8575     570.1176   -7981.1637    7.5702614 
  105000    2133.9044    26478.717    3977.0938    564.62153   -7973.0484     7.569037 
  106000    2209.6448    26591.165   -1628.9353     584.6621    -7983.549    7.5370291 
  107000    2174.9896     26638.02   -3274.4518     575.4925   -7975.5658     7.523772 
  108000     2104.783    26479.755     4124.726    556.91614   -7973.8949    7.5687403 
  109000     2185.117    26570.667    1694.4363    578.17216   -7962.0848    7.5428436 
  110000    2246.3936    26433.828    3411.6708    594.38569   -7995.3039    7.5818904 
  111000    2217.6571    26727.417   -7570.1081    586.78212   -7970.9065    7.4986067 
  112000    2262.2336    26663.309   -4694.8841    598.57687   -7973.9871     7.516636 
  113000    2177.9618    26610.026    1126.0264    576.27894   -7960.5083    7.5316871 
  114000    2155.1069    26542.488    2586.0902    570.23162   -7968.4198    7.5508514 
  115000    2150.6409      26821.5   -11050.055    569.04994   -7960.1955    7.4723034 
  116000    2194.2241    26670.706   -1129.9794    580.58185   -7958.1029    7.5145511 
  117000    2248.2344    26596.099    2448.8015    594.87274   -7959.9176    7.5356309 
  118000    2173.9024    26681.753   -5277.7746    575.20483   -7976.3169      7.51144 
  119000    2192.7827    26545.889    2378.2461    580.20046   -7974.2998    7.5498842 
  120000    2325.5911    26559.338    4394.8957    615.34097   -7963.7613    7.5460611 
  121000    2185.5491    26524.529    43.389595    578.28649   -7988.3665     7.555964 
  122000    2183.5476    26576.125   -2929.7834    577.75692   -7989.9891    7.5412946 
  123000    2227.7023    26727.355   -4809.7091    589.44003   -7955.9647    7.4986241 
  124000    2180.9203     26382.76    10651.655    577.06174   -7972.7983    7.5965664 
  125000    2181.3724    26636.528   -184.79131    577.18137   -7957.7213    7.5241935 
  126000    2189.6063     26650.43   -4853.4026    579.36002   -7975.7318    7.5202685 
  127000    2219.0792    26527.608     1464.769    587.15841      -7984.5     7.555087 
  128000     2209.014    26518.926    3632.2193    584.49519   -7978.0721    7.5575604 
  129000    2182.1698    26811.885   -9234.0176    577.39235   -7957.2623     7.474983 
  130000    2137.1942    26628.995   -1073.8497    565.49199    -7963.877    7.5263217 
  131000    2179.8754    26484.011    4098.8297    576.78526    -7979.808     7.567524 
  132000    2210.6169    26655.521   -2158.3269    584.91931   -7970.3059    7.5188321 
  133000    2199.9693    26458.568    4167.8936    582.10202   -7987.2727     7.574801 
  134000    2324.8422    26562.118    1186.7258    615.14283   -7977.2943    7.5452713 
  135000    2172.4459    26553.258    2960.9187    574.81944   -7976.1518    7.5477888 
  136000    2169.0046    26624.132    -3298.199    573.90889   -7970.6709    7.5276966 
  137000    2211.0819    26712.558   -5436.2569    585.04235   -7972.7674    7.5027776 
  138000    2180.0938    26388.767    10436.765    576.84305   -7973.7776    7.5948372 
  139000    2322.5661    26538.787    5367.5505    614.54058    -7966.859    7.5519044 
  140000    2221.1123    26618.843   -1231.2316    587.69636   -7972.9213    7.5291922 
  141000     2198.566    26697.127   -6266.0217     581.7307   -7971.3944    7.5071145 
  142000    2266.5676     26627.72   -691.99768    599.72362    -7963.205    7.5266822 
  143000    2195.9194     26498.62    743.21866    581.03043   -7988.0872    7.5633517 
  144000    2247.4275    26761.662   -9126.3517    594.65924   -7971.2033    7.4890113 
  145000     2206.133    26552.154     -2330.28     583.7329   -7989.5571    7.5481028 
  146000    2278.5121    26590.359    -1975.773    602.88408   -7982.3703    7.5372576 
  147000    2259.7678    26487.551    2691.4956    597.92444   -7989.8322    7.5665126 
  148000    2203.8534    26613.681   -1150.1049    583.12974   -7980.7311    7.5306526 
  149000    2110.5208    26621.158    1425.1902    558.43433    -7951.301    7.5285375 
  150000    2207.9123    26505.155    4190.3586    584.20371   -7970.4041    7.5614869 
  151000    2177.2881    26675.824   -2677.3826    576.10067    -7962.539    7.5131094 
  152000      2195.63    26687.272   -3642.0914    580.95384   -7967.4065    7.5098867 
  153000    2169.5125    26541.072    3775.2779    574.04327    -7966.483    7.5512545 
  154000    2214.8083    26489.216     2536.096    586.02836   -7979.6454    7.5660368 
  155000    2178.6414    26657.584   -1350.9669    576.45875   -7957.6078    7.5182503 
  156000    2151.5368    26719.116   -7408.1375    569.28698    -7966.436    7.5009363 
  157000    2180.7551      26549.4     1761.637    577.01803   -7973.3391    7.5488858 
  158000    2232.0425    26565.083   -2384.9798    590.58843   -7989.4925     7.544429 
  159000    2200.0248    26682.538   -4870.9306     582.1167        -7968     7.511219 
[...]
  114000    297.97646    23144.031   -315.92145    78.843236   -8885.5427    8.6596145 
  115000    306.70304    23134.698    1015.7293    81.152249   -8883.2168     8.663108 
  116000    294.69401    23113.015    1721.3899    77.974713   -8886.2295    8.6712352 
  117000     303.2554    23160.216   -1450.8944     80.24002    -8885.358    8.6535629 
  118000    303.28852    23168.612   -1998.8258    80.248783   -8883.5681     8.650427 
  119000    295.22806    23153.749   -950.27429     78.11602   -8885.2603    8.6559801 
  120000    299.18894    23108.873    2838.6109    79.164053   -8883.0591    8.6727891 
  121000    300.29969    23129.636    1248.1103    79.457952   -8882.9193    8.6650038 
  122000    308.65976     23158.83   -1804.9624    81.669988   -8886.6515    8.6540808 
  123000    304.20673    23130.972    811.66387    80.491736   -8885.1791    8.6645036 
  124000    307.45326    23105.687    2799.6628    81.350755   -8885.5468    8.6739853 
  125000    302.03222    23156.981   -1450.6776    79.916371   -8886.3365    8.6547718 
  126000    303.83911    23151.183   -452.97183    80.394466   -8883.2441    8.6569393 
  127000    297.45889    23121.057     1069.458    78.706288   -8886.4249    8.6682191 
  128000    305.33522    23135.592    617.82066    80.790331    -8883.849    8.6627732 
  129000    288.60052    23174.113   -2590.8588    76.362403   -8884.6536    8.6483737 
  130000    297.08285    23177.844   -2808.3446    78.606791   -8884.6246    8.6469816 
  131000    295.19531    23136.101   -352.00974    78.107356    -8886.908    8.6625825 
  132000    297.90515      23107.9    2741.0314    78.824368   -8884.0875    8.6731544 
  133000     307.6444    23130.144    1037.9995    81.401329   -8884.4411    8.6648137 
  134000      298.333    23180.815   -3169.7691    78.937574   -8885.1898     8.645873 
  135000    297.00128    23179.726    -2454.971    78.585207   -8882.6903    8.6462793 
  136000     305.6515    23134.715    91.173476    80.874018   -8887.3029    8.6631017 
  137000    309.63815    23138.223    587.40642    81.928865   -8884.3806    8.6617881 
  138000    300.09894    23131.993    214.36817    79.404835   -8886.9437     8.664121 
  139000    304.86006    23155.389   -1441.4139    80.664604   -8886.1024    8.6553667 
  140000     296.5893    23163.046   -2156.9929      78.4762   -8885.8581    8.6525057 
  141000    310.39051    23163.164   -1662.6588    82.127937   -8884.2325    8.6524615 
  142000    291.33145    23122.394    1144.9128    77.084995   -8885.6234     8.667718 
  143000    301.03016    23089.285    3748.7072    79.651231   -8887.0887     8.680147 
  144000    308.05733    23138.324    276.85632    81.510589    -8884.659    8.6617503 
  145000    292.54846     23159.94   -1566.6734     77.40701   -8884.3484     8.653666 
  146000    301.97668    23149.059   -402.93987    79.901676   -8884.0502    8.6577336 
  147000    300.16048    23128.687    475.51416    79.421118    -8887.453    8.6653595 
  148000    294.71759     23149.86   -628.96571    77.980953   -8884.1087    8.6574341 
  149000    307.19872    23171.916   -2269.3706    81.283405   -8883.5265    8.6491936 
  150000    295.08216    23141.001   -509.79948    78.077418   -8885.7214    8.6607483 
  151000    300.57163    23143.315    23.132263    79.529905   -8884.1705    8.6598823 
  152000     295.3648    23107.977    2098.0983    78.152203   -8886.8282    8.6731256 
  153000    303.04687    23114.043    1792.8266    80.184842   -8886.0459    8.6708495 
  154000     305.9755    23135.335    21.876174    80.959747    -8887.255    8.6628692 
  155000    306.86635    23166.076   -1693.2719     81.19546   -8882.9988     8.651374 
  156000    302.79168      23158.1   -1757.6621    80.117322   -8885.6724    8.6543536 
  157000    303.34571    23125.703    1571.5243    80.263914   -8884.2463    8.6664775 
  158000    300.55638     23097.27    2864.9164    79.525872    -8888.005    8.6771462 
  159000    299.98077     23146.66   -1176.3347    79.373566   -8886.7987    8.6586311 
  160000    305.72824    23184.346   -3661.2607    80.894323   -8885.8249    8.6445563 
  161000    292.99298    23134.288   -47.214787    77.524628   -8886.6618    8.6632616 
  162000    308.14553     23147.18   -970.53332    81.533924   -8886.9252    8.6584363 
  163000    298.68562    23156.194   -759.48769    79.030877    -8882.918    8.6550659 
  164000    290.18964    23172.497   -2628.2925    76.782877   -8884.1697    8.6489766 
  165000    303.14095     23128.35     1247.465    80.209736    -8884.242    8.6654856 
  166000    303.14412    23110.984    1803.9568    80.210574   -8887.5535     8.671997 
  167000    301.46496     23148.78    -763.6788    79.766277   -8884.8117     8.657838 
  168000    292.82131    23144.799   -615.89074    77.479205   -8885.0589    8.6593273 
  169000    296.21454    23141.458    305.03629    78.377038   -8884.0669    8.6605771 
  170000    300.48263     23139.83   -136.85058    79.506356   -8885.3087    8.6611866 
  171000    299.94822    23139.453    167.18419    79.364953   -8885.2017    8.6613279 
  172000    298.93378    23142.001   -667.14843    79.096537    -8887.253    8.6603739 
  173000    299.53351    23161.613   -2172.1509    79.255224   -8887.0939    8.6530411 
  174000    300.64074    23160.149   -1309.0596    79.548191   -8883.5728    8.6535878 
  175000    303.41504    23108.036    1992.4343     80.28226   -8887.7091    8.6731033 
  176000    301.33711    23119.487    1367.2102    79.732449   -8886.2733    8.6688079 
  177000    306.63304     23146.56   -1249.2801    81.133728   -8887.9951    8.6586685 
  178000     302.2619    23130.828    1378.2502    79.977144   -8884.3791    8.6645573 
  179000    299.43818    23105.133    2711.6294        79.23   -8885.6812    8.6741931 
  180000    300.10744    23124.522    1031.0665    79.407083    -8886.648    8.6669202 
  181000    310.44969    23189.891    -4170.469    82.143595   -8887.2898    8.6424895 
  182000    306.28151    23190.739   -3851.0385    81.040713   -8885.1605    8.6421732 
  183000    302.28155    23139.079    310.73254    79.982344   -8883.8322    8.6614678 
  184000    298.91146    23125.655    1247.5019    79.090634   -8885.3348    8.6664956 
  185000    303.64685    23133.661    676.18208    80.343596   -8884.1195    8.6634965 
  186000    308.19494    23148.915   -829.06336       81.547   -8887.0803    8.6577875 
  187000    298.26834    23176.097   -2955.7177    78.920465   -8885.1886    8.6476334 
  188000    304.82117    23175.365    -3187.912    80.654315   -8885.9543    8.6479064 
  189000    299.35696    23131.341    439.52926    79.208509   -8886.0511    8.6643652 
  190000    302.61991    23125.983      1240.82    80.071872   -8885.1194    8.6663727 
  191000    295.02752    23129.101    667.29014     78.06296   -8886.0469    8.6652044 
  192000     301.6257    23137.386    272.74071    79.808808   -8885.4544    8.6621014 
  193000    294.95739    23145.494   -1166.9134    78.044403   -8887.4434    8.6590672 
  194000    298.26332    23182.324   -3521.9323    78.919138   -8884.9941    8.6453105 
  195000    300.64044    23144.071   -182.04787    79.548112   -8885.3194    8.6595995 
  196000    299.12776    23136.404    796.91088    79.147863   -8883.4717    8.6624691 
  197000    303.43929    23123.916    689.67925    80.288676   -8887.6663    8.6671474 
  198000    303.95597    23147.272   -108.75383    80.425386   -8883.6668    8.6584019 
  199000    298.50014    23163.939   -1769.9475    78.981799   -8883.6873    8.6521721 
  200000    302.36337    23125.816    561.35673    80.003993   -8886.4765    8.6664351 
  201000    299.64481    23104.609    2546.5066    79.284674   -8886.5542    8.6743898 
  202000    304.82771    23136.387    329.87203    80.656044    -8884.981    8.6624757 
  203000     306.2431    23161.071   -1270.0306    81.030553   -8883.4308    8.6532436 
  204000    290.39226    23194.754   -4412.8039    76.836489   -8884.0585    8.6406772 
  205000    306.73587    23161.108   -1206.0812    81.160937   -8883.3127    8.6532298 
  206000    299.73285    23112.833    1921.3441    79.307968   -8886.3714    8.6713033 
  207000    307.88137    23126.114    1110.7451    81.464031    -8885.882    8.6663236 
  208000    298.36629    23147.553   -995.33408    78.946383   -8886.1583     8.658297 
  209000    301.43942    23160.641   -1535.3306    79.759519   -8884.8485    8.6534041 
  210000    293.48353    23141.599   -770.78341    77.654426   -8888.1331    8.6605245 
  211000    309.22172    23134.383    81.496872     81.81868   -8886.6285    8.6632259 
  212000     307.9132    23119.169    1689.1605    81.472453   -8885.3808     8.668927 
  213000    301.62686    23121.686    968.49274    79.809114   -8887.8999    8.6679833 
  214000    299.04321    23150.936   -635.68999    79.125493   -8885.1665    8.6570317 
  215000    299.89342    23128.193    551.28603    79.350454   -8886.9509    8.6655447 
  216000    304.59605    23120.462     1794.314    80.594748   -8883.7759     8.668442 
  217000    294.60754    23092.006    2654.3539    77.951833   -8889.3977    8.6791241 
  218000    301.67484    23137.731    93.452343     79.82181   -8885.0342    8.6619723 
  219000     299.3345    23146.469   -1135.6478    79.202567   -8885.8762    8.6587025 
  220000    294.30456    23142.398    209.84135    77.871668   -8882.9182    8.6602256 
  221000    292.38855     23136.71   -638.91304      77.3647   -8888.5741    8.6623546 
  222000    301.52441    23164.506   -2214.9809    79.782006   -8885.1251    8.6519603 
  223000    299.44297    23150.042   -958.36996    79.231269   -8885.9344     8.657366 
  224000    316.31874    23117.543    1961.5568    83.696522   -8885.9803    8.6695367 
  225000    300.76109    23110.504    1777.4851    79.580037   -8888.1574    8.6721772 
  226000     302.8659     23136.35    186.35219     80.13696   -8885.8798    8.6624893 
  227000    301.39693    23157.871    -1502.069    79.748276     -8884.68    8.6544394 
  228000    297.18665    23181.805   -3357.1772    78.634257    -8886.142    8.6455041 
  229000    298.85691    23138.436    364.88897      79.0762   -8884.0575    8.6617083 
  230000    306.38372    23110.206    3299.1389     81.06776   -8882.4552     8.672289 
  231000     299.7155    23144.219   -766.32625    79.303377   -8886.7105    8.6595442 
  232000    304.04604    23163.779   -1432.0375    80.449218   -8884.3015     8.652232 
  233000    289.42969    23130.175    176.10154    76.581799   -8886.7912     8.664802 
  234000    305.34691     23110.53    2243.6908    80.793424    -8886.205    8.6721674 
  235000    295.86442    23112.128    1801.9976      78.2844   -8886.4218    8.6715678 
  236000    299.47334    23150.867   -828.29155    79.239302   -8884.1788    8.6570573 
  237000    307.89917    23160.551   -1429.9409     81.46874   -8884.9318    8.6534376 
  238000    291.01862    23129.752     485.6284    77.002221   -8885.9119    8.6649606 
  239000    306.95323    23120.981    1331.3114    81.218448   -8886.2606    8.6682477 
  240000    297.62412    23135.781   -75.183839    78.750009   -8886.8117    8.6627026 
  241000    304.54115    23180.484   -2626.8789    80.580224   -8881.8756    8.6459967 
  242000    290.56838     23171.72   -2310.9143    76.883091   -8883.6936    8.6492668 
  243000    300.78394    23149.378   -268.97549    79.586082   -8882.6168    8.6576143 
  244000    311.63848    23145.831   -1019.2578    82.458146   -8887.6337    8.6589411 
  245000    291.19171    23130.802    775.47588     77.04802   -8884.0149    8.6645673 
  246000    299.76668    23182.332   -3191.8739    79.316921   -8884.1367    8.6453072 
  247000    293.48019    23167.432   -2850.2158    77.653542   -8888.0118    8.6508674 
  248000    288.36037    23104.642    2687.2678    76.298862   -8884.6604    8.6743776 
  249000     300.2451    23102.555    3071.2326    79.443508   -8885.8813    8.6751611 
  250000    304.34747    23142.273    174.41155    80.528975   -8883.5586    8.6602725 
Loop time of 481.172 on 8 procs for 250000 steps with 2048 atoms

Performance: 44.890 ns/day, 0.535 hours/ns, 519.564 timesteps/s
117.4% CPU use with 4 MPI tasks x 2 OpenMP threads

MPI task timing breakdown:
Section |  min time  |  avg time  |  max time  |%varavg| %total
---------------------------------------------------------------
Pair    | 274.32     | 280.63     | 286.44     |  27.6 | 58.32
Neigh   | 0.033677   | 0.034964   | 0.036112   |   0.5 |  0.01
Comm    | 18.959     | 24.933     | 31.24      |  92.9 |  5.18
Output  | 0.0057153  | 0.010373   | 0.011933   |   2.6 |  0.00
Modify  | 174.72     | 174.93     | 175.1      |   1.0 | 36.36
Other   |            | 0.6319     |            |       |  0.13

Nlocal:        512.000 ave         516 max         505 min
Histogram: 1 0 0 0 0 1 0 0 0 2
Nghost:        2836.50 ave        2842 max        2828 min
Histogram: 1 0 0 0 0 1 0 0 1 1
Neighs:        41017.8 ave       43271 max       39012 min
Histogram: 2 0 0 0 0 0 0 0 1 1

Total # of neighbors = 164071
Ave neighs/atom = 80.112793
Neighbor list builds = 39
Dangerous builds = 0


# fix 132 all momentum 100 linear 1 1 1 angular
fix out_file_1 all print 1000 "$(step) $(temp) $(press) ${sys_press} $(vol) $(ke) $(pe) $(density)" file one_phase_cooling_$T_.txt screen no title  "step temp press pressGiga vol ke pe density"
fix out_file_1 all print 1000 "$(step) $(temp) $(press) ${sys_press} $(vol) $(ke) $(pe) $(density)" file one_phase_cooling_300_.txt screen no title  "step temp press pressGiga vol ke pe density"

# dump 3 all custom 1000 traj_npt_new.lammpstrj id type x y z
run 50000
Last active /omp style is pair_style eam/alloy/omp
Per MPI rank memory allocation (min/avg/max) = 4.313 | 4.314 | 4.314 Mbytes
Step Temp Volume Press KinEng PotEng Density 
  250000    304.34747    23142.273    174.41155    80.528975   -8883.5586    8.6602725 
  251000    301.36555    23151.366   -1188.8093    79.739973   -8885.8273    8.6568709 
  252000    305.38029    23125.589    1409.8483    80.802255   -8884.4477    8.6665203 
  253000    294.67791    23076.145    5100.5197    77.970454   -8884.6453    8.6850897 
  254000    298.10756    23147.926   -217.64368    78.877925   -8882.1477    8.6581573 
  255000    297.11364    23156.908   -1772.7239    78.614936   -8886.7479     8.654799 
  256000    309.97915    23142.519   -95.216384    82.019093   -8885.1334    8.6601804 
  257000    296.18868    23105.698    2801.0159    78.370196   -8885.2486     8.673981 
  258000     295.7372    23140.944   -144.23218    78.250738   -8885.2107    8.6607696 
  259000    304.73616    23184.562   -3318.1974    80.631821   -8883.8763    8.6444757 
  260000    299.91039    23168.392   -2179.0397    79.354946   -8884.1959    8.6505091 
  261000    301.97006    23128.683    554.06752    79.899925   -8887.2332    8.6653608 
  262000    301.35111    23101.944    2717.1702    79.736154   -8886.1184    8.6753907 
  263000    300.48268    23140.437    221.38004    79.506371   -8884.7462    8.6609593 
  264000    297.38529    23145.136   -657.94947    78.686814   -8886.3274    8.6592012 
  265000    300.77473    23148.174   -177.04486    79.583646   -8883.7134    8.6580647 
  266000    300.18719    23147.602   -245.74932    79.428184   -8884.1303    8.6582786 
  267000     299.0462    23156.447   -1062.4012    79.126283   -8883.6155    8.6549715 
  268000    293.43149    23150.088   -616.56775    77.640657   -8884.0985    8.6573489 
  269000    301.60121    23103.752    3422.0245    79.802328   -8884.7809    8.6747117 
  270000    299.20989    23108.248    2546.7507    79.169595   -8885.5682     8.673024 
  271000    291.30232    23113.823     1863.582    77.077288   -8885.9439     8.670932 
  272000    299.81665     23129.73    445.20248    79.330142   -8886.2398    8.6649685 
  273000    312.43365    23149.568   -506.22231    82.668542    -8884.517    8.6575434 
  274000    289.80622    23159.397   -1075.0948    76.681427   -8883.3685    8.6538691 
  275000    292.15922    23180.936   -3294.4871     77.30402   -8885.5848    8.6458279 
  276000     295.7304    23133.878    666.39119    78.248937   -8884.8532     8.663415 
  277000    301.90468    23125.648    1547.1081    79.882626   -8883.3687    8.6664981 
  278000    293.41563    23118.204    1632.4194     77.63646   -8885.6681    8.6692886 
  279000    301.82784    23144.554    260.61923    79.862294   -8882.6515    8.6594189 
  280000    300.18991    23176.123     -2877.58    79.428904    -8886.056    8.6476234 
  281000    298.33843    23164.137   -2368.2806    78.939011   -8885.2942    8.6520981 
  282000    310.29815    23146.554   -689.17727    82.103499   -8885.6781    8.6586706 
  283000      304.224    23109.649    2653.7314    80.496307   -8884.8039    8.6724979 
  284000    290.72917    23129.641    529.00805    76.925635   -8885.5816    8.6650019 
  285000    308.74061    23166.142   -1866.9751    81.691381   -8884.3025    8.6513492 
  286000    293.09684    23153.988   -1130.5792     77.55211   -8885.5618    8.6558906 
  287000    299.67696    23124.376    1006.3398     79.29318   -8886.5365     8.666975 
  288000    302.57759    23103.258    2661.9694    80.060675    -8886.393     8.674897 
  289000    297.12861    23147.881   -492.72808    78.618897   -8884.7184    8.6581741 
  290000    301.94307    23162.929   -1870.6266    79.892783    -8884.898    8.6525495 
  291000    290.44644     23134.52   -127.73468    76.850825   -8887.0604    8.6631747 
  292000    300.22796    23132.098    303.19202    79.438972   -8886.4404    8.6640817 
  293000    294.10792    23170.664   -2561.8193    77.819637   -8884.9402    8.6496608 
  294000    298.47945    23147.524   -23.383046    78.976324   -8884.1357    8.6583078 
  295000    298.11922    23127.389    1458.2021    78.881008   -8884.1246    8.6658457 
  296000    292.72849    23124.878     1125.257    77.454647   -8885.9419    8.6667868 
  297000    293.81842    23138.632    439.24288    77.743038   -8883.6235    8.6616349 
  298000    299.82469    23158.245    -1274.682    79.332268   -8883.6841    8.6542993 
  299000    299.11463    23180.226   -3728.1353     79.14439   -8886.0816    8.6460929 
  300000    309.92185    23148.373   -564.72396    82.003932   -8884.8859    8.6579903 
Loop time of 96.1675 on 8 procs for 50000 steps with 2048 atoms

Performance: 44.922 ns/day, 0.534 hours/ns, 519.926 timesteps/s
117.0% CPU use with 4 MPI tasks x 2 OpenMP threads

MPI task timing breakdown:
Section |  min time  |  avg time  |  max time  |%varavg| %total
---------------------------------------------------------------
Pair    | 54.932     | 56.125     | 57.279     |  12.1 | 58.36
Neigh   | 0.008417   | 0.0087201  | 0.0089253  |   0.2 |  0.01
Comm    | 3.7344     | 4.9224     | 6.111      |  41.0 |  5.12
Output  | 0.0011418  | 0.0018042  | 0.0020279  |   0.9 |  0.00
Modify  | 34.939     | 34.983     | 35.016     |   0.5 | 36.38
Other   |            | 0.1271     |            |       |  0.13

Nlocal:        512.000 ave         518 max         505 min
Histogram: 1 0 0 0 0 1 1 0 0 1
Nghost:        2850.25 ave        2855 max        2842 min
Histogram: 1 0 0 0 0 0 1 0 1 1
Neighs:        41016.8 ave       43411 max       39104 min
Histogram: 2 0 0 0 0 0 0 1 0 1

Total # of neighbors = 164067
Ave neighs/atom = 80.110840
Neighbor list builds = 10
Dangerous builds = 0

unfix temp
unfix out_file_1
# unfix 1
# # clear
write_data after_cooling_$T.in
write_data after_cooling_300.in
System init for write_data ...
Last active /omp style is pair_style eam/alloy/omp
write_restart after_cooling_$T.lmp
write_restart after_cooling_300.lmp
System init for write_restart ...
Last active /omp style is pair_style eam/alloy/omp
next loopVar
# # # thermo_modify flush yes
jump in.lmp ensemble



# write_data after_cooling_$T_.in
# write_restart after_cooling_$T.lmp






















Total wall time: 3:40:48
