LAMMPS data file via write_data, version 29 Oct 2020, timestep = 300000

2048 atoms
1 atom types

0.4770389208371668 27.87496107915996 xlo xhi
0.4770389208371668 27.87496107915996 ylo yhi
0.4770389208371668 27.87496107915996 zlo zhi

Masses

1 58.933

Atoms # atomic

185 1 4.114356434801041 1.6157089317138535 3.842872033771248 -2 2 -1
106 1 4.013442551388402 4.274379932438022 3.73654875840099 -3 -1 4
29 1 3.0698159900336055 2.292046657068025 5.912359666356873 4 -2 1
1777 1 1.43387120311871 2.706839924446972 1.1826583320601238 0 4 -1
1817 1 9.391688735760871 16.98041997782665 0.9053777398604692 2 -1 2
321 1 2.242589469347773 2.9897084171058292 3.237439335970646 -2 1 -2
555 1 4.8212721104166745 5.579844445932224 2.0305683340860474 3 0 1
1232 1 1.1475999581278264 1.3200965799237396 4.0939393812280365 0 3 -1
916 1 2.8556290096405372 4.426468581878525 1.3876673199071148 -1 -1 2
741 1 5.429015098609165 0.572628049000617 0.9777298705355262 1 1 5
867 1 5.779360266180588 3.088761136256143 3.8358540501167577 -1 -1 0
679 1 8.072785556108402 1.900534351239245 4.285386151199481 -4 0 2
651 1 7.651990548769186 2.4411910098136835 2.02354265487308 1 -3 1
747 1 7.51477627254914 26.958641298869686 4.933281630047683 -1 1 4
1706 1 7.331992734866241 4.633042307936182 3.185366049502679 2 1 -2
1701 1 8.509817080815866 4.0690029130330725 5.537509806448305 -1 -1 0
739 1 10.423853127474098 1.9535131733501896 2.076226900350944 2 -1 0
1536 1 10.46195634509879 1.5586821478026758 4.087854989597457 3 -1 0
1126 1 12.894774311437297 3.4145045340757525 2.201595780513032 -1 -2 0
859 1 9.627928999897113 27.865392046071463 0.6238690594454878 0 -1 4
963 1 12.61459536690863 1.200181659178158 4.492052138121907 1 -2 2
1103 1 9.319345894985888 3.695990067267708 3.4949128114019294 0 2 5
1693 1 0.7589874973558788 25.588135923885492 7.596557043973789 4 0 3
1263 1 10.872509760856664 26.79293215891716 2.6423426639836065 1 -2 -2
115 1 12.406691383581146 1.2412689800512324 2.36526751975134 -1 2 0
2004 1 1.7451179331674471 5.307545732513637 3.4895728733958866 0 2 2
213 1 3.682852611476949 6.466603120903838 4.031136005159636 0 1 0
1189 1 1.266458230887387 6.924879212389917 4.8587087601709875 0 2 0
660 1 0.5505215067372262 0.6498761169588678 1.765350518752482 1 -2 0
192 1 2.6091211183210326 7.012741801041954 1.9864496722786815 4 0 2
1772 1 5.174435515310139 7.987709364614395 1.9343866060919421 1 1 0
1502 1 5.884924278226912 25.58679512244787 0.5422466403561996 2 -5 1
1677 1 5.5713102864740085 7.564875221348209 4.377045087231487 2 2 0
1398 1 6.050893591808551 5.17718405255354 4.746494447975334 2 2 1
458 1 6.679855735038777 6.802971197410659 2.690382053846188 -1 2 2
2022 1 7.772118947871678 6.654084991283109 4.859405608802957 0 0 1
1714 1 8.959960146127914 6.017285627994304 2.832332236666525 -3 -2 3
1481 1 10.104738749768606 8.567502878924502 1.8845309415360592 1 -3 0
959 1 8.162989583117426 8.589414021589649 2.6632020112225754 1 0 4
985 1 1.8541997259866239 15.027645591326495 2.3649588252915734 0 0 2
2025 1 8.889968052643967 4.043875299646038 1.1831372710331087 1 0 -2
1105 1 1.2563789120588345 26.019118075222053 1.433505576558351 1 -2 0
1313 1 11.46695468135572 3.3905510647742996 3.962225655577919 1 4 4
1492 1 9.581137029037768 7.945166378263709 4.330452345891323 0 -2 -2
603 1 10.972822077390566 4.792115006231289 2.1976309483183476 -1 0 -1
486 1 12.298491399174168 7.308495647745425 5.130343789643952 1 -1 -1
1829 1 11.20653619069185 7.027868419914143 3.2768862077897465 3 2 -2
1193 1 12.883290717896864 5.486442847244173 3.1394010687310105 2 -1 -1
988 1 13.930199844576668 8.376369782489416 3.888274932081682 -3 0 2
1604 1 12.556547184414697 7.148222888940137 1.2350445714919909 -1 1 -2
888 1 2.2692289498724145 9.106755299686595 1.102752584912906 -2 -2 0
1901 1 3.597046026728058 8.705957956610067 3.5304213329993575 -1 0 2
1403 1 4.128303177616145 9.975773077012237 1.8084684679994176 -5 -1 2
618 1 3.6458808419970983 12.537260323646336 2.6056124886890437 1 -1 1
2044 1 2.2542654268294533 10.830767236457618 3.1839696538543416 -1 -1 0
1132 1 3.0484643350047693 11.570475623206645 0.6918991286163984 1 -1 1
1590 1 10.632679663836884 15.09126800225458 1.6386660018701544 2 -2 -1
623 1 3.953038428538544 12.93694131506075 13.351068961769547 2 -3 2
1798 1 5.5670632812044385 11.806931537275656 1.6729887967383599 -4 3 -1
1660 1 5.473388511292941 9.731594247979851 3.9956149987044145 -1 2 -1
1853 1 6.384428010824971 11.129974568230745 5.960002467556684 2 0 0
74 1 6.383872534409873 9.725686693658364 1.6189269451603228 -2 2 -1
1886 1 7.246821712251714 10.897282075005203 3.649722019663374 0 -1 4
376 1 6.157429181232039 7.654328393681722 13.585973121217247 1 0 -2
1992 1 11.179216521143212 9.367217685133797 4.685688867474996 1 4 1
1199 1 9.693379977353626 10.215796123962887 3.2789628301523477 -1 1 0
473 1 9.073157980360946 12.174956168421561 3.3262571140188673 2 -1 -2
1957 1 12.143018130431647 9.244375685515216 2.4256310348199617 -1 -1 2
258 1 11.48994344191063 11.653554361903408 2.96227054196338 2 1 1
504 1 10.169141891691227 11.010680887732486 1.0589899724293383 0 1 1
427 1 13.583905368622952 16.132365498445616 10.987934951142726 2 1 -1
103 1 7.5269458184005416 15.746587368778098 0.888908334538882 -1 -1 -2
1757 1 13.670525770128512 10.661557358320154 3.039697505467159 0 -1 1
1412 1 13.906771196141047 26.509248718731506 9.546374911101278 2 -1 -1
1588 1 1.3344759096782473 13.035227909509004 1.5458304221805654 0 1 4
2037 1 1.6594856765129289 12.618121449080451 3.743735396439538 -2 2 -1
310 1 2.327053803328056 16.750462214373787 4.087230237914492 -2 0 2
65 1 1.4085593736950344 8.74073726093077 3.119614634266927 -2 0 -1
1883 1 7.433935973662833 27.521971289487848 0.6909516548925365 0 0 1
563 1 7.724213162088013 12.928074259848174 4.734909166932337 -1 1 1
252 1 8.193655323689727 15.29369747314625 4.343562927025074 1 1 1
836 1 4.840983888798089 13.980173051770167 2.0193727252085316 0 1 1
1749 1 6.815064659875807 13.3512121524692 2.8839266380697133 -3 -2 1
594 1 6.162168775224607 15.714143055344245 2.8128062725844423 -2 0 0
487 1 8.687719262656586 14.23230621537515 2.310578381134121 2 3 2
1202 1 14.039209441178478 16.714565590502815 5.539615617740132 -3 -3 -3
1614 1 5.545599267529579 14.268881310632088 4.61446214393098 -3 4 0
429 1 12.126090003662853 13.272746257869484 1.0275136169191605 -2 0 0
1572 1 9.842470294961675 13.053668798484082 0.8439115332766026 1 -1 2
613 1 12.587724020468992 15.597519896043774 2.7377447007052362 -2 0 0
1108 1 10.886260824936482 14.137763347520389 3.523590475154247 2 -1 2
713 1 13.465877921602782 12.738490615047615 3.16886995388898 1 -2 0
611 1 11.826199551020814 15.850943803012306 5.039699779801689 -1 4 2
873 1 4.994660876440242 1.761823600261744 13.751529503557498 2 0 -3
1661 1 13.8942723491634 14.715403098793539 4.339267627713729 -1 -2 -1
524 1 13.907148243344498 25.073888206749007 5.349511378316183 1 1 3
267 1 8.28751771124546 6.903854606970269 0.9458874156612496 2 -3 1
1088 1 2.1179326173713986 16.730900522910304 1.0479968934810262 0 2 -1
864 1 1.596503314756701 18.664591721887096 5.376490897119346 -2 2 3
66 1 1.0617216388163375 23.747323006018608 1.2463602689237057 -2 -2 0
412 1 4.034065754476147 16.298703938483737 2.0378140123427 -1 1 1
359 1 3.6791521337799176 18.46369114230934 4.185894028886221 1 -3 -3
378 1 4.045812009248127 18.676819109295817 1.7993811610758699 1 -1 3
445 1 1.9602329347269571 19.042733547144486 2.974079195473256 0 -2 1
1652 1 7.149583537085679 19.33869485128032 2.2441563660472874 -2 -1 1
1512 1 5.765985838252545 17.80482559444388 3.5255136010668475 2 -3 0
501 1 10.270866153166784 19.519182939409927 1.0763746453236587 -1 1 -3
640 1 0.9665592079410976 21.014938402693414 0.5136072427353183 -1 1 -1
1236 1 7.754182528757454 17.219615682858507 3.1644246983531583 0 1 1
233 1 10.055413728321277 16.16456991942178 3.4958032975322437 4 0 2
1268 1 7.813548749108171 18.63740687116149 4.712790039326913 2 0 1
476 1 14.073753624622878 5.018216400258756 1.066653050275983 1 0 -1
58 1 4.7580701054110435 16.12588005153224 4.618077192256903 3 0 -1
1584 1 10.051383958365209 17.998964369294786 5.173454477965958 -1 1 1
1241 1 13.4101623299766 24.870493771085297 8.098856065126128 2 -3 1
1140 1 13.487659929789107 17.164787232063816 1.062479444264227 0 0 -3
219 1 11.180168875644346 17.375678637586528 2.3990299441700254 1 -3 2
454 1 12.52469453052887 19.211367650865714 2.4048577481204223 2 -2 2
1988 1 11.511552919806745 20.053627263410682 4.0628593294753745 -1 1 0
1672 1 12.089990220704392 17.725221207459732 4.280026504509903 -2 -1 2
1964 1 1.7695646355587429 13.339682382668263 14.145038502777282 -1 0 1
830 1 7.740999711798177 11.631857540735764 1.3327320850076299 -4 1 0
35 1 13.928066332412042 1.2061882271488196 10.469270475253895 -3 0 1
1421 1 4.195856362622175 22.776323267151678 4.24291237252794 -2 -1 5
580 1 1.8175270107163075 21.684295771732817 2.319165465725324 5 0 -2
1904 1 3.245994153600155 20.688960499757055 3.560656569131152 -1 0 3
984 1 3.859705739112817 22.63627696473463 1.8995507864951884 4 -2 1
143 1 5.110679595240912 20.761578702765316 2.2179666042774944 0 0 1
1090 1 3.9897366228501356 24.758015271889388 0.5768504950332709 1 0 -1
1001 1 1.9551452014764057 23.282904438895216 3.9192625983945475 3 -1 2
535 1 6.959980402861913 21.251048487177183 0.9116960815694616 4 1 0
417 1 5.344313750945029 20.169197116612334 4.458656622213375 3 -1 0
938 1 6.155087367217506 22.48067316879849 3.266819710969059 -2 1 0
324 1 8.401774089515108 21.88256593497258 2.320157963975519 -1 2 2
1664 1 13.95531506148645 6.613101541858114 6.757357845606178 2 0 2
515 1 7.388753557057237 23.87674965407045 1.7819037952040075 0 -1 1
995 1 6.61009289772081 22.810632209990608 5.291072571792543 2 1 0
1347 1 7.507679484604045 20.780532192096473 4.201793845227677 -1 -1 0
1930 1 5.674125928786885 23.16809258167366 0.8790768939530447 1 1 3
933 1 9.966986903156378 21.484634484257604 3.9990944637891337 -2 -3 1
1541 1 9.512486257613126 19.116141478472617 3.2464725045647502 -1 -2 -1
630 1 12.405398881438499 21.792176551500937 2.927933532593946 0 3 -3
144 1 10.325104563176625 21.628377373990524 1.5639686492665652 1 1 -1
274 1 12.530484144866348 23.537186358348674 1.3524507525935232 1 -1 0
1770 1 12.235861185072025 24.683766780830116 10.172354182270523 -3 1 -1
1866 1 10.156508160973353 23.682175621473366 2.6021990847919114 0 0 2
973 1 10.438809329102394 23.603836092128322 4.989210120113246 -1 0 2
1724 1 4.2399536893775736 26.7152493029667 2.285815744883915 2 3 0
271 1 3.182992479311984 25.19169673054165 4.687061251983622 0 3 0
43 1 2.799057524147038 24.903908171122826 2.669693118689207 1 1 0
1689 1 2.1732829080331073 26.911012170273167 3.3542439713391405 -2 0 2
196 1 9.124307201510463 15.636689394968041 13.968254129161718 4 0 0
309 1 10.119438453950663 26.23250126537381 10.415231305039743 1 -2 0
1245 1 12.082924632922968 27.20555311095395 10.830625791800054 1 -2 3
474 1 8.732287208966499 25.905776759559817 1.5156699954531703 0 -2 1
1499 1 5.278147799179193 26.607688307846526 4.345443873505012 -2 2 -2
1338 1 8.435866233813037 0.4798750198460091 2.8826573864987175 1 0 0
1414 1 7.291321582629365 24.89436391923714 4.195378212899817 2 4 -1
926 1 5.0810446184679 24.512635217023433 3.007843296945465 2 -2 3
609 1 6.282479395593832 0.983061617158545 3.140945095649915 1 1 -2
1470 1 6.607160296634611 26.265196903016125 2.6804756723881975 0 0 2
255 1 9.678873344747766 27.29490127169159 4.92302172210879 2 1 0
1354 1 5.033712421813609 25.02273605881184 13.25347369374124 0 -2 1
1559 1 13.703021544871536 3.5673201749926826 4.6467732230420244 1 3 -3
46 1 9.310914596908995 25.506069941040312 3.4039554824561242 1 -1 -1
592 1 5.822874474586263 17.278316422451947 1.3772945204983722 5 -2 3
1052 1 2.9922442490659895 2.8910182774155078 13.355447631342575 -1 0 -1
1587 1 11.705566458344565 24.70357630406232 3.4424182168971376 -1 -2 -1
1878 1 13.697185805517515 26.705576710021973 3.5940918689639214 2 4 0
1285 1 4.532706444962425 6.173632972972813 13.70565086028478 1 1 0
1220 1 4.7369919883584135 3.6027676471945167 5.791893098468864 4 1 0
1049 1 2.38590864023126 0.6192019088972138 7.322675386766884 0 -1 0
1534 1 2.6504341280809487 3.421768445043197 7.663014532572505 4 -1 0
360 1 4.337179274742921 1.6442906812648643 7.5614551815758295 1 2 2
854 1 2.447485886587142 1.5270807701065239 9.309094037233958 1 1 -2
1318 1 1.6961112389263406 4.914846595762676 8.886061019928913 2 2 2
1044 1 6.823200497667335 3.018128057854339 6.529239172373943 0 -2 -1
879 1 7.068134533987553 1.4581380775136465 7.978760359853478 0 2 5
1282 1 8.938158856476392 1.4335883498913404 6.342888053235275 4 -1 1
11 1 9.170999579486233 2.804133060653107 8.15453198212339 -1 -1 0
581 1 5.279568243748878 3.6179022872383055 7.672679267935824 2 2 0
982 1 5.959607408727924 1.1960800632834192 5.423365660936802 0 2 1
1260 1 9.085849338223841 27.645747226390718 8.957545004528402 -3 2 1
1612 1 5.323313800728093 2.351146410090897 9.501576997851725 0 0 -2
1305 1 7.2405314233688385 3.849168707755438 8.602457234881019 3 -2 1
1206 1 8.127553218791427 2.488183296335808 10.057550661023424 1 0 -1
1734 1 13.566730160598965 0.7551171676186772 8.141939654973783 -2 0 -1
131 1 8.976922174488278 23.11480308587481 0.4942069610066255 1 -2 -4
626 1 10.506386622418612 3.0737167609099716 5.805408973937582 4 2 1
1062 1 11.840234963515057 26.29128028665039 4.772526414799252 -1 1 1
1718 1 13.410589328545546 2.040888502108106 6.4384382331760355 -2 0 0
273 1 11.589929855448387 3.2083411943761018 7.855448253132575 1 0 -1
1932 1 11.010082084794362 1.1150990524826838 6.5018500961981545 -4 3 3
1918 1 9.799761926239196 4.611368098720492 7.161118789327152 0 3 0
910 1 10.338831466869427 2.2499543723694044 9.682308617597656 0 0 1
1229 1 2.9498931026517083 1.258810373144156 1.8768000963510807 0 2 0
1204 1 13.71555882590947 10.59679098550396 7.291650678612212 -1 1 -1
257 1 3.493653397596362 7.929377010287153 5.836505552893903 2 1 2
1023 1 4.031849016823845 5.20851211859607 8.305628022410087 0 2 -1
662 1 2.8492397804290874 5.203654095544435 6.44036903083324 3 -1 2
288 1 0.4770766146990741 5.404632036399207 6.923745839381743 1 2 1
1681 1 0.5029401986275559 9.561004572483872 11.990795502690297 1 3 1
86 1 3.489645669589489 5.97343329385269 10.411593668988552 3 5 3
1070 1 2.0898488453442723 7.022556686119412 7.121190699532637 1 -2 0
1847 1 6.543357020780222 7.619735241494799 6.792469523493371 0 0 3
1104 1 5.0265869749039425 6.009616741640746 6.411615270015731 0 -1 2
1915 1 7.184676002847041 5.365972690120856 6.6320113289981055 0 0 0
832 1 9.164507472536055 6.591643618825299 6.602171483023169 0 -2 -1
495 1 5.9019267883314335 5.863149721547101 9.086850467781426 -2 2 -2
1005 1 7.523324628817211 7.430928443515191 9.070079913054387 -2 0 2
453 1 8.57859017131162 5.509289310701748 8.628730896217851 0 -1 -1
1234 1 7.341389518069054 9.109885556273793 4.989140691332027 -1 2 1
1300 1 10.143159286708393 5.5403799072303235 4.863315650838722 2 2 -1
764 1 11.419256524555491 6.421385009217504 6.984015819671466 0 0 1
1585 1 12.01396775623984 8.31652995182338 8.212465139625325 4 4 1
909 1 12.369304945671846 4.537564485635014 5.897522865513145 -2 -1 3
783 1 13.06061820546619 4.956083275323345 8.094109789483971 -1 3 2
534 1 9.98339444388141 7.485521410494493 8.76402598789063 -1 3 -1
389 1 13.236627890447513 6.693105228389369 9.406460834383608 0 2 -1
1009 1 5.582754230974052 10.668797616377288 14.04641961822025 1 1 0
1972 1 1.501119984908983 9.037074060231703 5.526588210000997 0 -2 1
327 1 1.538242420193325 9.35463215330561 7.566904515263891 -1 -1 1
67 1 10.212585245305494 6.086196929425687 0.564364483526915 -2 -3 0
1922 1 3.588748347682101 9.55711065483869 8.531961192743024 -3 -3 2
113 1 3.686492931695122 10.238131991367743 5.141367883796786 -1 -1 -1
940 1 2.9504357603916014 11.287374370642432 6.868474862799774 2 1 1
1369 1 1.96798144159034 11.593490515941625 8.825300568864767 -2 2 1
1629 1 1.3088484860274907 11.424451162896448 5.4228110880217 1 2 -3
1941 1 8.935484962625543 10.582962673729392 5.519574032810528 2 0 -2
1545 1 4.467385601259453 7.590734170564105 7.8216851299471735 -1 -2 0
821 1 5.0618507080435435 9.391603521995728 6.502666604158938 0 0 -2
349 1 8.032790015309397 12.77245829277432 6.858794453542418 0 -2 2
1515 1 6.348741783820403 9.359293745273924 8.3035540823115 -1 -2 -1
1388 1 8.497229447752446 8.660015776688073 7.304811841012295 -1 3 0
1081 1 5.463453435680812 11.977686844132212 3.9453402744536623 0 -1 0
326 1 6.95594380305469 11.648010893199459 8.883062900197757 -2 -4 2
1898 1 4.9827033673205 11.38802672461717 7.747910379507934 1 0 0
822 1 13.465829887618066 8.828129688148069 6.155145005347101 3 0 -2
201 1 10.459718246859818 8.50066456005851 6.531496972330323 -2 1 -2
1774 1 9.02079122363529 11.361022414376057 10.507492994107752 2 -1 2
899 1 10.535584499992229 12.254763012193848 4.981578103837282 -1 -1 3
1167 1 10.300895569112893 12.877951105892482 7.135950310140989 1 1 -2
1830 1 11.41925831325052 10.697399978671491 7.112119503021489 0 1 -3
607 1 11.670730665541399 11.857587478315732 9.014612478111994 1 1 -1
377 1 9.428730787866549 10.94422336939952 7.697594063848032 1 1 -2
224 1 11.07430405597726 14.076087491933118 9.009068680754613 -1 -1 2
1464 1 12.617397324583226 10.979805971478898 5.160507365878276 -1 1 0
1567 1 9.264701487644661 24.133960266838198 13.396180799480826 2 -2 0
793 1 3.9860610384128594 12.4833379548326 5.321557834028489 -1 -1 -6
300 1 2.084258840896276 13.51502866691116 6.010880890376413 1 -4 3
1785 1 2.207266901554983 15.705477022226288 5.846564621101502 -2 2 -2
1823 1 3.1276854335958824 13.160168875868196 7.973694010778963 0 0 0
1822 1 2.789668089989922 15.504330377498187 8.156794384104781 1 3 3
2 1 3.2498124100038837 14.439595787690317 3.8606780354538017 -2 -1 -1
1959 1 5.562449632271945 13.408455683397477 7.204477566918489 0 1 2
958 1 9.60356696157502 13.998161519329045 5.460109534549041 4 1 1
1633 1 7.113042892573794 14.788598650673645 6.304136009134094 1 -2 0
1893 1 3.985376247936399 14.762171759150357 6.148761905843282 -3 2 -1
176 1 8.946331932689406 14.436309505929236 7.573453112449484 -1 1 0
1086 1 7.563990731586463 16.17457540769206 8.028236014709687 2 -1 -2
1938 1 5.292975130935037 16.419167051433362 7.160958309938653 -1 1 2
829 1 4.64740610063297 14.596006793553308 8.846089660739517 1 -1 3
1156 1 10.420813516552736 16.023774305418947 10.246497319603856 -2 -1 -1
1639 1 12.30722907274945 13.631428435961027 5.329687549146361 1 0 0
1849 1 13.076427068128938 12.952143365782016 7.656996458180637 0 3 2
38 1 9.33996813113888 16.173882503282957 5.9135807600389665 -2 2 -1
1307 1 13.654340297897962 14.908612148931425 6.866088382990649 -2 -1 1
944 1 11.08598766069266 14.785645582081239 6.975525343997719 5 1 2
567 1 13.684271505694813 14.600391319666658 9.094315952813286 2 -1 -1
1360 1 12.35629949554338 16.4021512962356 9.113904305360485 0 -3 2
1144 1 1.2396662557652534 17.120405350066658 7.3371075917644335 -2 -2 1
1671 1 1.7855315900902347 17.49858294434717 9.35196526095583 -1 -4 -4
1950 1 4.23077472987829 17.842396789215147 8.954087603301518 2 -2 0
971 1 3.5749569348331263 17.36521574772472 6.46645718760722 2 -2 -2
1446 1 2.5740790665512736 18.978157233269748 7.753346056696258 0 3 1
1821 1 3.314827096858939 19.882225133494632 5.871857479756972 0 2 -3
346 1 0.9632631691057998 20.794683848999362 7.1947245191003 1 1 -1
1641 1 12.608391131938047 24.809558124245918 12.48444683950789 -2 3 -1
1875 1 4.660423078908631 19.829360236942897 7.5348085371822515 1 1 -1
259 1 7.001844065124845 16.719910262060022 5.334140599179925 -1 -4 0
139 1 5.606112144310844 18.341387109534157 5.907674963436072 0 0 -1
17 1 6.271732176498293 18.36679207836603 8.170301583126772 1 0 -3
452 1 9.531077417600308 19.486317909174407 6.42662421134167 -1 1 -2
906 1 7.943633751261101 18.199212793965795 6.908986382987841 1 -3 5
1787 1 8.182441475377516 19.74826517179498 8.706199356845927 2 1 1
446 1 8.361758136886497 17.650450150987005 9.777088213508407 -3 0 -1
1522 1 12.485281837161935 25.958882823015564 1.630675261901015 0 0 0
337 1 10.058999589068561 16.62922316303375 8.249502546328895 2 3 -1
2014 1 12.089117133690804 17.28870365423514 6.997359250728328 2 1 1
1876 1 1.709544602535232 3.5124422696684925 5.321989382225705 -1 1 1
341 1 12.666693599449024 18.78988233548189 8.738164402364925 1 1 -1
927 1 10.373601509838615 19.99848988739024 10.06477375505195 4 -3 0
3 1 12.168061163557084 19.20854209771205 6.1838967468605475 -1 -2 -1
1506 1 10.576807501059658 18.887928881050957 8.28681935877602 -1 -2 0
12 1 12.14470944949482 20.7633368957739 10.484326527724722 -2 1 0
1247 1 11.035789934642073 26.231745684003467 12.878251716646144 0 1 2
456 1 3.234001701223894 21.719598220276584 7.7280595073359395 -1 1 1
1907 1 2.4155223859331 21.782917772469556 5.6263058632408836 0 0 -2
1753 1 4.678024868914805 22.05684097651398 9.489319115517443 2 -3 -1
386 1 4.723184471592004 21.68062106960311 6.166734761908066 4 -2 1
391 1 0.9985112842686916 24.810976232622988 5.623632736953518 0 1 0
1283 1 1.0204752394378012 23.03554910543903 7.478625001708841 1 -1 -4
1566 1 1.784843315162738 21.8311125177635 9.448918780851148 0 1 2
1897 1 6.891370412778774 20.031465458081353 6.496755272089343 3 -1 -1
361 1 6.100028456082073 20.285707379024416 9.383332525217398 1 0 1
1428 1 6.970745841356079 21.743384717378447 7.997482111675721 0 2 -1
1702 1 8.63234175867552 21.69907599786983 5.822705910898405 -1 2 -1
763 1 8.290168653160702 23.196512635842986 8.743769052390048 2 1 0
97 1 8.41027931001248 23.32664566527997 3.9867756229792346 -2 0 -2
455 1 4.656323390467897 3.0142248237239917 1.9012960049614556 0 1 -1
694 1 13.72025054216552 20.711578687825092 5.928337176425263 0 -1 2
1606 1 9.476776454664778 21.115743800124616 7.730917253551339 -1 1 -2
146 1 11.958614464784047 20.714378258300407 7.928958449863809 2 -2 2
875 1 11.206567196150912 21.15742052277522 6.0083099552422246 3 -1 1
792 1 12.100916461256261 22.950946976574407 7.221373546029105 -3 -2 1
345 1 13.00875317320374 22.823615913239227 9.209001556479809 2 0 -1
1387 1 9.68833642592228 23.64583811369742 7.139056221358721 0 -1 0
749 1 12.827511611277957 22.866589229488607 5.145755496324469 2 -3 -2
1858 1 10.521983140972711 24.37381704162798 8.801248932380448 -1 0 -1
905 1 9.750265178412377 13.353926915939423 13.698072475445146 1 -1 7
700 1 4.101798871169065 25.614063594121472 8.979663862834734 -1 2 2
165 1 3.5113004092098388 27.50705088142634 5.5105939198438625 -2 -3 -1
1591 1 1.5781015706877575 26.783359854595236 5.500346826440889 2 1 0
1275 1 2.9814102140627248 25.906079727972003 7.139974565156519 2 2 0
1598 1 2.1289841451354734 26.573850095735278 9.355889637779498 -1 0 0
1379 1 3.16994722055741 23.90139937108686 8.301679165027942 4 -3 0
633 1 5.17258416804644 24.604280090111736 5.5843344251731 2 2 -1
1377 1 3.1010836266316306 23.63008475718658 6.091996294151118 2 -1 0
695 1 10.72474430188947 24.84372676471999 0.6559577426645666 -3 -1 3
659 1 5.124185080921171 23.810195247949014 7.601944651779205 2 -2 1
529 1 8.945315048003064 25.338443037399156 5.852573132977928 1 -3 -1
368 1 5.434448653498402 26.965982130631108 6.654102757446526 1 -1 -1
802 1 7.658450872342007 26.872692677144908 7.316216786089944 -3 1 -2
897 1 6.927149023777856 25.371444546403158 9.08320529467643 2 -2 1
1716 1 7.44028947751478 24.295652190434712 6.668275335869313 1 -1 -3
804 1 8.976832850805021 25.26532789650806 8.171070285869972 -1 -1 1
598 1 5.646349977180667 27.51356113415696 8.776149506926611 1 1 -1
53 1 10.2688660810164 26.794698914002815 7.377145753277369 -3 -3 0
823 1 12.64925723858252 26.985506280608288 6.729119871623727 0 -3 0
1037 1 11.42828876474312 0.6951708242949968 8.594456252303042 1 1 -2
1630 1 14.035136351584132 24.310905605714225 3.2139762113409627 -1 2 0
319 1 6.3660743133217945 1.2599825511045148 11.060642068399615 1 -1 3
885 1 6.689013349089606 4.508150262978278 1.1112082582194414 -2 0 -1
1287 1 11.820328624183587 26.121832080930567 8.753879201645422 0 0 -1
797 1 11.479664600939214 24.919545592735748 6.72424331866738 -3 -1 1
1157 1 1.0070650870075304 13.633260069426322 7.77371416418249 1 2 0
1885 1 3.5328318059607646 3.4360177610142117 9.64686844932789 1 0 0
1842 1 3.0195121159608536 0.6699780634187583 13.738772023562472 2 1 2
1107 1 0.6132673002959614 17.91455299151726 13.693774906634552 1 1 1
1601 1 1.8831351608091116 3.343945568374145 11.162321721521051 3 -2 0
1024 1 0.6441131616355769 3.187349123242139 7.570756471925586 2 -1 3
1467 1 4.000496304760753 0.6193908621881099 10.238980510518306 1 -2 3
436 1 11.473146335426087 10.652636502300522 13.645251259080815 -1 0 0
1688 1 7.1639346898158935 1.7629880324081568 13.248081433486544 2 -3 2
1228 1 4.373740074055071 2.4553632346899814 11.60711612887331 2 3 -1
1112 1 7.117613524448075 3.5502368065163825 11.572081540730991 -1 1 3
649 1 9.525966740901518 2.9304237062631646 12.137322307579517 -1 5 3
1301 1 9.031792251991712 27.845727716250902 13.666590868732861 1 -4 0
556 1 6.874958179515844 27.072445787924277 12.58914330404497 0 1 -1
1256 1 5.312472575348415 4.104806942120638 13.2347600673103 1 -1 -2
21 1 11.418022243529775 1.113135185855542 12.344795207860894 1 -1 -2
1643 1 12.483077654196308 2.4156924868209835 9.64604560927561 -2 1 1
587 1 11.553449028026694 3.2829459780360635 11.371855719474365 0 3 1
1892 1 11.945578143784862 2.560968622189427 14.173492357994105 0 2 -1
30 1 9.386818290914634 4.212865433187966 10.085373693479013 3 -1 -5
365 1 10.725213588962585 4.632212041885152 13.294803799748056 0 -1 0
335 1 13.63360501491073 2.3935381623312013 12.360395009182726 2 0 1
991 1 13.36430982071321 27.631868174801454 13.309887968921814 1 -1 0
903 1 0.8396454484827005 4.334596670630695 13.37872829002456 1 2 -1
1525 1 0.9522795341459334 7.713732947875976 11.1804814269415 1 0 -3
1409 1 2.5058871179366395 7.837551535595917 9.318425643494162 0 -2 -3
884 1 1.6840483004403861 6.322633463644285 13.025095036756818 -4 0 0
2031 1 1.0798006099301973 5.325748738222881 11.072574794426178 -1 -2 -2
92 1 3.0703889103529014 4.642452006856087 12.237739100810751 1 3 0
227 1 5.484759353863578 6.13675930560528 11.668271767986218 -2 1 4
193 1 5.041483367602574 7.9378643082393525 9.952239508231047 -1 -1 -1
1947 1 3.217627701349419 7.401960599203985 12.129733032429623 1 0 1
1548 1 8.959124164602418 0.6969679572696521 11.401212103927705 1 0 -1
812 1 7.052387550719112 5.575944397991201 13.37683361711521 2 0 -1
423 1 5.1922984385847 4.264903572106846 10.59247686726154 0 -2 2
1613 1 7.407490587853043 5.82002340765824 10.79318024607564 0 -2 -3
1539 1 8.551592187153608 7.645024127977251 13.162854168142 1 -1 -1
1503 1 9.03860937324342 4.965672510139819 12.04603202938043 0 0 -4
847 1 8.232718771129717 9.624345691127395 9.366073926530923 3 -4 0
726 1 12.933925734594846 6.690712852868901 12.003165070196928 0 -1 2
1068 1 13.02351002978489 4.183934918662342 12.614985061718246 2 -3 1
333 1 11.225385244427473 8.318447129592345 10.872366089697993 -1 0 -2
1339 1 12.994112682428836 4.7387323221580795 10.317437423894523 -2 -1 -5
1927 1 9.170831662309178 7.21096552340689 10.634523691331518 0 -1 -2
752 1 10.643763876976957 6.905942913667862 12.971722136180302 -1 1 1
1925 1 10.948614842530894 5.520218653126283 8.813666855757578 -4 0 0
1840 1 10.709457510435666 9.755350300661238 9.387597768388147 -4 1 3
209 1 11.174783436106491 5.580660058589193 11.004966901642277 1 -3 -1
1152 1 1.9071252804796623 8.497181877143634 13.609969941120164 3 -3 3
241 1 3.0129528946710002 26.416137047271683 11.478061876562354 2 1 -1
298 1 3.4580054189664837 11.5807698856069 10.408250047227412 -3 2 -1
1203 1 3.471223726196542 10.880347255427612 12.851994533819251 -1 -4 1
1440 1 1.1078930284798765 9.702826866599624 9.81313209260493 5 -1 1
22 1 2.9220755859152123 9.380820672302203 11.356737142799982 2 0 2
1429 1 5.09821705901366 9.543863901449727 12.032201611472546 -1 1 -1
260 1 5.456021795915335 11.971790286748233 11.945129804086644 0 -2 -2
1272 1 9.014088431816244 9.288758762910684 11.546209417532763 2 2 -1
1769 1 7.0300200794497565 8.068565612239691 11.386614245663965 -2 -2 1
1291 1 5.357190636058422 10.307283770870603 9.744225010098273 3 0 1
1824 1 0.6180752303599599 1.3328172145952442 6.205493720077403 1 0 4
1074 1 7.19483778792893 10.683211437088062 11.389039466396163 4 -2 1
743 1 9.575679060412522 11.186355898319272 12.62479167981055 -1 1 1
924 1 2.8733352977259843 25.792730193596313 13.751965745830544 3 1 2
708 1 7.600542567348604 12.152061724959303 13.133889632660482 1 -4 0
1158 1 13.742744867758256 8.838088425095684 11.007932131112028 -4 1 0
1215 1 13.006547338530149 10.142618184371258 9.243171758272755 -1 -2 0
1128 1 12.000619369472503 12.859225716242257 13.012301212140011 -1 1 1
1406 1 11.447115178070188 10.587110922060685 11.278176756524704 -1 1 0
466 1 12.137805099820522 8.427350910452436 13.227692189727813 -3 0 1
1454 1 13.297944544207024 10.709582144314869 12.375804922777327 -3 -2 1
1257 1 3.1940237004260297 20.383900974164227 1.0553056041547793 1 1 -1
1182 1 1.7626845873189647 13.528923310357252 11.92620456070791 2 1 1
181 1 8.723852349304845 24.824853091867602 10.423145874243232 -1 0 0
1815 1 1.387545922649232 15.771453486904024 13.221178480123978 1 0 0
1954 1 3.645689608550358 16.177248773183372 10.431324521868364 2 0 1
1973 1 1.5623937685970117 11.325797138941356 11.117399200435061 1 2 3
1230 1 1.9907387438863637 13.946165316856076 9.813917100361001 0 -3 -2
976 1 3.8109266263464283 13.766783712913734 10.82860583832441 1 0 -1
652 1 3.3686276326698943 15.090183259553005 12.491833265590543 2 -2 0
195 1 1.2931422135520108 16.021573906263793 10.930872039857364 -1 -4 -2
1653 1 4.608158951691143 27.532529482337473 12.521802853507177 0 2 2
628 1 7.142706096653844 14.08432947310254 8.856478670731155 -3 2 5
379 1 6.0195900258786486 13.862652950241616 12.993507047302888 0 1 0
123 1 8.223821870205462 14.25792292916536 12.326867770226821 -3 -2 1
521 1 5.963854767551436 14.639255522603486 10.844677982092348 0 -1 1
308 1 5.230812800088136 12.724623755729324 9.601429021279143 0 3 -1
634 1 9.052737061877608 13.020048621869824 9.083778675835076 -1 1 0