LAMMPS data file via write_data, version 29 Oct 2020, timestep = 300000

2048 atoms
1 atom types

0.4808414449625946 27.8711585550349 xlo xhi
0.4808414449625946 27.8711585550349 ylo yhi
0.4808414449625946 27.8711585550349 zlo zhi

Masses

1 58.933

Atoms # atomic

288 1 1.0322951343741227 27.532037837455675 6.4000491466125125 1 2 1
1099 1 2.475710034819701 0.7872681761594457 4.3769194162907965 0 -1 2
143 1 3.375315234058134 2.0868315541280094 0.7198729985313977 -1 1 1
430 1 3.9211883047595357 1.5900271350298603 2.8172225725811555 -1 -1 -1
1644 1 2.2182356034619852 3.70345785565223 2.2033900451578003 1 -1 1
1453 1 5.481572665805421 2.2249986602721634 0.6669451695941193 1 2 5
1731 1 2.5812593307176783 3.150892479511024 4.620940462318031 -1 2 1
1865 1 4.74986135298819 3.113956575913935 4.539021093841252 2 0 2
1855 1 13.500038177289497 1.6552930612482288 9.574290575512975 1 4 2
1701 1 6.377478545237926 1.342583118446993 5.577717563437175 -1 -1 0
1392 1 7.2286514068349765 3.0933680069461476 4.143735029057211 1 0 -1
754 1 0.8630865429395276 2.783598622960774 11.110130551051917 2 0 1
716 1 6.032798778360964 1.5930838043960502 3.038050769404802 1 -2 1
811 1 5.140510065870691 3.4961307562168216 2.236868517406484 1 -3 -1
556 1 1.780277472978427 4.093834787988326 6.984193783810445 0 1 0
1861 1 0.5232043386587688 11.549773175302729 13.030128208925259 2 2 0
47 1 9.059349778292107 2.3539770630127967 2.802167011650015 -1 -1 2
1584 1 10.278680819005865 1.4816905633664919 4.038831998109149 -1 1 1
905 1 10.127512892410238 4.057831142206464 2.1055830353378964 1 -1 7
1323 1 13.330248325430233 3.3061699225504833 1.930786141915704 -2 1 0
862 1 13.265033012229052 2.080185235777447 5.04568411907411 0 -2 3
322 1 3.773537210610828 11.09247802136381 1.6401557836297143 -4 -1 2
1128 1 11.658835705894305 2.9703682374993114 3.489619035112539 -1 1 1
2038 1 11.1499689080726 2.0133239833107526 1.3643053858752365 0 2 -1
383 1 3.469137476290336 5.081471432729922 3.676691559570526 4 0 -1
1755 1 2.969282774638797 7.628754282683908 4.288195081197348 -2 1 0
156 1 3.501046663514179 5.219016995831086 1.1333067680429576 2 -4 0
869 1 2.3981242367616042 7.590392685958919 0.48462956843963223 -2 -2 2
1428 1 3.646534734361183 7.104793575157617 2.4055604154537806 0 3 -1
46 1 1.4766721677575854 8.442696190900893 2.420877316155134 1 -1 -1
580 1 1.6245949967019049 6.281239825741154 2.8259541178375955 5 1 -2
1510 1 9.2425567698234 3.9824382124190656 4.245197858029146 -2 -1 -1
967 1 6.451833047235823 4.940891029069096 4.655196269430454 -2 1 1
1507 1 7.638650297880072 4.704243595856232 2.590069450317174 2 2 3
483 1 7.604791866755397 7.108108705742434 2.382637448569464 2 2 1
700 1 8.19463694937238 6.440901122920687 4.844388299363033 -1 3 2
885 1 5.474002482518881 5.4441156581748915 2.329138487487299 -2 -1 -1
817 1 8.717530559704826 5.6914452391330705 1.152505293219792 3 1 -3
299 1 5.791854072417018 7.090374727635286 3.905049156191274 -3 -2 2
439 1 13.872235637051656 3.819578595335131 3.9295542444213174 0 -2 4
341 1 11.172350426988555 5.9966094229603115 1.0757066119734109 0 2 0
78 1 9.557457747736635 6.002682097261732 3.1251072029234788 -1 0 2
402 1 10.07191500979451 7.678729417627063 1.6763025515160261 1 1 0
696 1 11.680996093273102 4.951716444210858 3.5921293781474732 -2 0 0
1884 1 11.78452024448447 7.039283956176381 3.407299585941032 -1 -2 -1
1542 1 11.91461265230695 7.521361774059085 5.724330662005461 -2 3 2
2025 1 9.882848966231988 8.14222288842016 3.987457807480078 1 0 -2
1283 1 10.483916540725387 5.574957935476791 5.6735473729758725 0 0 -4
386 1 0.6679037033819931 7.791777794337197 8.815275997099222 4 -1 1
1959 1 1.119565933288146 13.516384299803642 12.030859668228443 0 1 2
1962 1 0.6496863197370945 15.468749486139474 13.800588571912199 1 -2 -1
1468 1 2.19909249792747 10.326875387484744 3.338727519503944 4 0 0
858 1 1.7109931537496652 11.949539624560007 1.6800804641018012 -1 3 1
1337 1 3.9124242325177905 9.305508277893313 2.9052009484824697 0 -2 0
1642 1 1.3322458862124316 5.5830156399653035 0.6593953615657756 -1 5 2
1752 1 4.247239009655061 9.071210413570064 5.0677347496904765 0 2 -1
1235 1 1.757893002998021 8.993855225608097 5.645260030819606 -3 -2 -2
879 1 13.720029729104231 22.277624985957083 10.27234657082435 0 1 5
1874 1 5.887161138138739 9.201398071546027 3.634002449314701 0 0 3
1249 1 5.894720398880272 10.271359656891542 1.6535919912499073 -3 3 -1
113 1 7.946618381961908 10.09838547889153 2.945388339580768 -1 -1 -1
1322 1 1.9035508819162026 5.920235746550699 12.661800508700146 -1 1 0
802 1 6.00217274060569 8.274372439162285 1.6321837230046625 -3 2 -2
623 1 8.056008786324771 8.690276572838066 1.1025414542058822 2 -3 2
290 1 6.702403093285028 10.91211547271604 4.516428906179026 -2 -1 -3
453 1 9.825264446470694 12.233291212802126 2.1209861606717686 0 -1 0
79 1 10.12018597763678 10.667116856113552 3.96212092412006 0 -2 -3
1182 1 9.942108303140845 10.05254337106593 1.6614306085931498 2 1 2
1779 1 11.866944015460906 11.566641819625547 1.5542727356600359 -1 -4 2
976 1 11.969286019711626 9.570035257544214 3.2558816670223614 0 0 -1
1772 1 7.282181917648979 2.950090963084919 1.5177064140977203 1 1 0
98 1 3.0197630830431943 15.649870030706081 2.4822971124789723 5 -2 2
1219 1 4.60759883657866 14.100156104575468 3.4887650643639128 3 0 -1
2039 1 3.5657676398276665 16.41767100148995 4.75773983710529 1 1 0
348 1 2.5882510725616883 13.010086131493187 3.587333043889472 1 0 0
1599 1 3.5738240393533895 13.397171418603246 1.633554410931931 5 2 1
1232 1 1.2726454178160016 26.453503130636825 2.665206296168005 0 3 -1
1226 1 5.022631083518569 16.12660029952262 2.5902563107277 -2 -1 0
246 1 5.565065721526317 14.328640697300399 0.5529353273208236 3 0 -2
205 1 7.480539438517622 12.32117687755373 2.322318740813774 3 -2 2
774 1 6.223263776434799 13.179586595445912 4.458917738775307 2 -1 0
1628 1 5.303086425823387 12.607448276279932 2.096071769108203 -3 1 0
1570 1 9.198773862872072 14.231918721038308 2.678743570532301 -1 -1 2
978 1 6.990586308836145 14.5271454837187 2.3346580782081756 -2 0 3
1525 1 7.681725600578761 16.990548405880602 4.525872840378384 0 0 -3
1227 1 8.360645766958243 14.72821698807845 4.500935374838941 -3 -3 1
1254 1 0.6309497083352519 24.88767695069702 1.5319920116992158 -2 1 -4
1411 1 8.399621757015275 15.572510578129416 0.6635576249861503 0 0 -1
1707 1 0.6025142459789743 2.943642824454318 0.8248218141465105 1 0 1
1225 1 10.499347466195632 13.539196162700657 4.214697008973856 2 3 2
1831 1 11.667569432544386 15.457608102030898 3.8450291859075687 -3 -1 -2
23 1 12.312217699492148 15.448174199236387 1.0601805485766176 1 -1 -1
1617 1 8.260785155216041 10.972913757379361 0.5454570143707927 1 3 -3
1370 1 11.511801659339543 13.770540745592214 2.1620926414685875 -1 -1 1
1051 1 13.502172151981679 16.5292671158604 2.8527718970434517 0 0 -1
1847 1 12.049393248381792 12.03965132141751 3.6003612037158375 0 -1 3
169 1 13.444680240010497 14.228961057296903 3.3500718178742606 5 1 2
1977 1 3.0349053768186978 19.89947594237062 5.017581683771872 7 1 7
578 1 1.7682465059275907 17.47762577879037 3.189236032163374 3 0 -1
454 1 3.9067385822530096 18.286237119325577 3.490199554035436 2 -2 2
388 1 2.8867767410016434 17.928703122396485 1.3217649976049932 1 0 0
968 1 2.526653252859657 19.81838941521832 2.784702997438959 -4 0 2
1198 1 5.460391547341986 17.512004496746535 4.920636587622631 -4 -1 -1
599 1 5.0245619768463685 19.94330068813889 4.747708633518699 3 3 2
870 1 5.032797557885208 18.412337032122615 1.2442868852771771 1 -2 2
1353 1 7.673247126942896 16.771805567286684 2.303332364011549 2 0 -1
719 1 6.150921682318727 15.259105662242916 4.933836645532669 1 -2 3
1040 1 6.259181391780143 18.622758146080713 3.0237070047030095 0 -3 1
1560 1 6.9243989253530795 20.74890436807462 2.3223211691567496 1 -1 3
999 1 9.251456961866987 18.409102801287702 2.793025736992664 -1 0 3
1154 1 9.225471876990099 18.918035788074853 5.05485044433155 3 2 1
1823 1 7.102887816947599 18.480523117174663 5.83389320766224 0 0 0
1678 1 7.400158569996826 18.655351593414444 1.2166797677751207 -2 -2 -3
1082 1 9.990082710591738 16.200866345818117 2.1296841914264126 0 1 -1
67 1 11.633357528849467 17.795283182649804 1.7521023867222194 -2 -3 0
896 1 11.249301482997563 17.839210251867286 4.21441291776567 2 0 0
1379 1 13.061437481991973 19.924370845257634 0.5371224263206819 3 -3 1
595 1 11.165816821306876 19.91447001448126 1.8042379818751149 1 -1 -1
1306 1 13.096782822178819 18.754859026552197 2.966582084796405 -1 0 -2
982 1 11.694444405974519 20.07659807565104 4.036944998156884 -1 1 1
2014 1 5.636718732522404 20.77718063316791 0.6577922733819672 2 0 1
276 1 13.345622282608653 25.937822199702886 10.535793158551154 0 3 0
1062 1 4.585971617137782 20.744747127706418 2.88534714412848 -1 1 1
1563 1 2.029486739308379 21.732906558491486 1.695403945684268 1 -1 3
1394 1 3.8445104455409345 22.857717111347164 3.166606447930163 3 -2 0
1192 1 2.044330960753447 22.07249613499725 4.144526219934313 -2 0 2
1269 1 1.462519314498025 24.10393970076543 3.3637623407411796 -4 2 -1
44 1 2.344303189151505 13.842923332697577 13.741843031923146 1 2 -4
1554 1 2.960513372549292 20.18315535630847 0.5720987578973615 0 1 1
1148 1 9.520385984176064 20.453614869507092 2.9661458829075085 -1 0 -2
688 1 4.140988385918967 8.982376459847304 0.6398663791747057 -3 1 2
1887 1 5.629826881392109 22.950091622538643 1.7585479373797201 3 1 0
194 1 8.119368487524422 22.25934519101972 3.0406223203350935 -5 0 -2
1793 1 9.694963546432497 22.986445277335974 1.8650714953865302 2 -1 1
1980 1 7.226776650796138 20.527640278596714 4.651711566064477 0 -1 -1
1889 1 7.659106371619427 24.335074841934457 1.6222041976661319 -1 0 1
1446 1 9.272592819974877 24.23907295612834 3.8620808684964496 -1 3 2
631 1 12.155569977090382 24.406670611635306 13.842231493885535 0 0 3
997 1 5.972251326297457 22.253137576050236 4.2018420025916114 -1 -2 0
20 1 10.929174697907458 25.531753456869573 10.048568262308349 -2 -1 -1
1286 1 13.12358660781965 23.837998211123512 2.1945620862906052 0 2 -1
325 1 0.9725265013210533 16.55945864805551 1.3595791195792168 2 -1 0
312 1 10.852042159253383 22.19154861581046 3.540637572709281 1 2 -1
600 1 12.750362658831913 21.618105252632596 2.2235981320646 4 -1 3
2018 1 12.81473250856504 24.76119794703628 4.520546967378525 -1 -1 -3
142 1 1.5100861629361606 15.605166004072224 4.25926541893641 0 -1 2
1103 1 13.795779274897939 16.59262627915961 8.718280676396331 0 2 5
673 1 14.163261512453142 24.647279580149146 12.245745309620615 -1 -3 1
1016 1 3.0676542645291143 26.26946298484738 3.790158022093773 0 -1 1
1202 1 9.956372970657688 2.2500023092559944 14.014739335465876 -3 -3 -3
285 1 1.6630449698178227 1.1405259291281276 1.6379531999186823 1 -2 3
1876 1 2.7847352093339643 24.56560898601157 1.613012274496626 -1 0 1
1834 1 4.801074621162819 27.1140016077525 2.2340721232378447 0 1 1
1695 1 11.68306377922426 24.240051939634064 11.736901839480051 0 -1 0
619 1 8.026385926341906 27.84739004846915 4.2564284485444235 1 0 1
605 1 5.886991175409421 3.600198406057538 13.72636714422262 3 3 1
678 1 6.277662809827899 26.00953128339775 0.9650185382593879 0 2 1
1176 1 4.6493125189454565 24.610503262858607 2.6496974650834284 3 2 2
22 1 6.504888548255834 25.93147363143057 3.3407966783753915 2 -1 3
229 1 7.6084506356037425 0.5274591830676982 2.0118943562898237 0 1 2
92 1 8.714713602114672 26.112770535668297 2.456253336870497 1 2 0
960 1 6.911285136495579 23.978170003328586 3.8068216998708198 2 0 2
281 1 1.9346195697895325 17.60482412542615 5.380529526923538 0 1 0
1130 1 7.691435163375537 0.6568407248344226 12.314143008420848 1 -1 0
557 1 10.193049136407302 27.63176665196945 2.0566342365939847 -2 0 0
521 1 11.148752062808144 24.34512142715058 2.7481963620074197 0 -1 2
816 1 7.073190844709677 25.734507793432627 10.144285395689417 0 -2 4
819 1 10.367621912012616 26.848974656062758 3.9723110425488066 -2 0 0
1777 1 13.467957139082987 26.139140805175025 2.5899224089677078 0 3 -1
1203 1 12.561837794025871 26.943815703477433 4.652156697490147 -1 -5 1
2030 1 12.257579005877268 0.955534901316831 3.0395195502948877 4 1 -1
1679 1 3.9408247760886916 4.0484287969402954 6.2809866108146295 -1 -1 0
1902 1 2.287978525859427 2.1155518894975227 6.984386946528313 1 0 -3
1368 1 13.780050210827806 15.668287856285055 5.455280196556378 -1 -1 -1
731 1 5.0786581233908965 1.3491517106736177 9.68877591611526 2 0 -3
214 1 3.453455503258976 0.5926291454501235 8.038486663588198 0 2 -1
2013 1 4.210572876350897 1.5651734008972356 5.939450013365445 -2 2 -1
1688 1 2.1598122153440267 1.7254680070867547 9.54167107427481 2 -3 2
265 1 6.160888774573468 3.4041235832126566 6.465998215201433 3 -1 -2
270 1 8.508495463894638 1.984070343494182 6.062183440787982 2 -2 -4
1140 1 4.304904049824282 2.772083219657584 8.03282675158394 1 0 -3
1132 1 7.480118554725935 2.1891431647996513 8.035798103589947 1 0 1
624 1 8.766648318440733 27.02883837890319 6.649909480543645 -1 1 2
1359 1 9.16383132191145 3.67409264359133 9.077193161598535 -1 0 1
596 1 9.557730216128997 1.3714498615345367 7.9983664152793645 -1 3 2
1381 1 5.561570642320488 0.7869650916871889 7.4892465617081845 -2 0 2
891 1 12.986833872192394 27.56093976634709 6.684779957517538 -2 -2 -2
959 1 10.568522037412002 26.616002078262376 7.787593116798976 1 0 4
1974 1 10.141245826028902 3.243458127135394 5.979516881302041 -2 -2 -4
130 1 0.6736143606605134 24.48997803979138 9.086435841075511 1 -3 -2
1583 1 11.741013353508443 2.136682401115327 7.91480322345975 -3 -4 -1
581 1 12.14510009135462 3.945668908594429 5.77350398705275 2 2 0
842 1 10.811475796625938 4.438282666626922 7.82660997770463 -2 -2 1
717 1 12.874874066051545 4.09188599877849 8.674129908658463 1 2 4
1748 1 10.75388189138263 0.6471304633490788 9.57974527023289 2 -1 -1
105 1 9.677199797914552 14.861881885532268 13.459281676967109 0 2 -1
1081 1 6.082187791008442 6.247001771414599 13.769270161751585 0 -2 -1
184 1 2.215264752838108 5.770953517223493 5.573624877714905 1 3 1
145 1 2.2857915856667397 6.180461191759928 8.106661596583873 5 -2 1
1179 1 0.7669708153269006 7.007050731719888 6.500808352892505 2 0 -1
764 1 4.099115648750037 4.875908345564194 8.235252574133018 0 0 1
1732 1 3.2245039366118826 7.78109320035347 6.502821567991222 2 1 1
1633 1 2.850219155972623 8.482438788097873 8.602309063858968 1 -1 0
1663 1 4.679496945858118 7.021196522145489 7.9951335973867055 -1 1 1
1301 1 6.833693256359473 4.417698345070564 8.444138067049188 1 -3 0
363 1 8.329635269909712 4.467879071783031 6.3245207528520195 1 -1 2
1488 1 8.818236355312466 5.787972982346586 8.147268872533427 0 0 1
708 1 4.216994475709733 6.06570351961626 5.352855354909005 1 -4 0
1015 1 7.056057090076567 6.915150535203732 8.95542455506501 2 0 0
267 1 9.620424384326434 7.756951903550423 6.004119316122154 2 -3 1
1736 1 7.743906515452146 8.684273660920153 4.956950405197805 0 0 2
775 1 5.974907853213702 5.532188551862409 6.847622081091171 -1 4 1
121 1 13.155296461384163 5.796399313027065 4.942405159439981 2 -1 -2
1969 1 12.620176969765971 5.757037462778126 7.09642444763438 0 4 0
767 1 11.19377546686528 2.982895149837044 9.950629827839524 3 3 1
2 1 13.212296109049356 8.157450834076464 7.2822903429764345 -2 -1 -1
514 1 10.763269951272822 9.791888381870034 7.504606887081951 6 -1 -2
590 1 12.320735294515442 6.238376692409655 9.066208714166295 3 -1 1
476 1 10.669540667727933 6.832990317900795 7.6214103561335875 1 0 -1
268 1 2.872173409486865 11.547063537821316 5.196126777925844 -4 0 -1
926 1 4.718412804516921 11.48358141834002 3.8650352950814604 2 -1 3
1931 1 4.547844459720859 8.114743920338698 13.566584825791468 0 1 -1
294 1 4.147842536750165 10.004941705982505 7.039975861274342 0 -1 3
1653 1 5.278595495255288 11.85623966789177 6.027876103121804 0 3 2
482 1 3.529857674929603 10.424987816467429 9.452064208136022 -2 0 0
1916 1 2.1386915041264576 11.00159719484864 7.677487761423009 -1 2 6
1252 1 6.000537012084488 26.902134000961254 11.697816816127006 1 -1 -1
82 1 7.732820110858653 7.421428956323182 7.054320188714587 2 -3 0
1954 1 6.085940424228139 9.056408744856547 8.331376227716348 2 1 1
207 1 5.7366724515766085 7.793632365914308 6.107682118077087 1 0 -1
1049 1 5.7805913612436655 11.545441256839265 8.053658564334317 0 -1 0
1787 1 6.545767030183066 9.918969301049414 6.317294672914063 2 1 1
1737 1 9.259024286152128 11.581856679568615 8.397657539214558 1 1 2
224 1 7.334685512527466 11.09168903858516 9.187844415443195 -1 -1 2
1838 1 9.275695922407547 10.37764543268748 6.103932601649148 5 -1 -1
1476 1 8.697685720834098 12.137062209807471 4.504305264848612 1 -1 -2
1272 1 11.827789654474707 11.823778734912866 6.0154913533001535 2 2 -1
1218 1 11.620672405364292 9.560628843845238 5.471380008776029 -2 -1 1
239 1 12.905630738727476 10.416657650864803 7.627216593855881 1 2 -1
1414 1 11.60972784117327 8.543026893729312 8.958225962409202 2 5 -1
901 1 8.539505490072225 9.386081918535732 8.135709236805651 2 -2 0
661 1 14.02802070709937 12.067297019753417 1.3752062344035472 -2 -1 -2
726 1 11.435771849375351 11.635904738279699 8.92711750742091 0 -1 2
1788 1 13.897509247190275 11.476122370175288 9.357395254456668 -1 -1 1
1964 1 4.572819500661571 15.880681680448895 6.793802997063416 -1 0 1
1146 1 1.5971873005918298 12.991408304879219 9.587014473523226 1 2 1
1909 1 3.7611714738263338 14.157866020440801 5.585197667620308 2 2 2
1592 1 2.3729883734266433 13.411066968604063 7.188422703488382 1 3 -3
890 1 2.001128322082097 15.374932661318768 9.305252423232409 1 0 -2
2033 1 2.2049126815394677 15.662513724110106 7.10186318560503 2 -1 0
1922 1 3.003820181574382 14.245242761284883 10.807924276512024 -3 -3 2
1234 1 4.011477625310415 12.695432336646496 8.269946045759323 -1 2 1
1196 1 5.778577954676845 13.95056783038129 6.689396917065095 2 1 1
1815 1 7.62295021559723 11.893881165671774 6.7667200763275455 1 0 0
1809 1 7.374213341917592 13.076195204829768 8.651866884334554 2 -1 3
234 1 9.714177834948936 12.661429092543642 6.555691863863212 0 2 2
1591 1 9.499158336046579 13.813125199147247 9.014744705000945 1 2 0
460 1 9.642111253528263 16.3659214348924 4.487709121799729 2 -1 2
1039 1 7.9832314406538005 14.138668359451469 6.8297318713349275 -3 0 -2
411 1 0.7859910677716054 4.423717394087362 4.366725457128997 -2 -1 4
144 1 11.311100576507776 13.807010927610007 7.942439808831095 1 2 -1
219 1 13.200199686288466 12.660482242849465 7.5569986484434555 1 -3 2
1365 1 12.12947078723968 13.956260844136334 5.754444061176597 0 1 -3
1723 1 13.35461533416658 15.058003560033526 7.411019686612797 0 4 4
1850 1 9.539352696306512 17.939138205302008 0.6403191773433097 -1 3 0
3 1 13.404133730229951 13.68158029456837 9.816847073136554 -1 -2 -1
1309 1 11.937382142579256 24.29213992385089 0.49890793139188366 0 0 2
1928 1 1.6442281201636166 19.563294788795908 6.820683909376127 2 0 2
19 1 1.600508255459741 17.696393327724167 7.862755691581973 1 -1 0
1895 1 4.022044303559563 14.926698350137775 8.73909426653794 3 -2 0
627 1 2.224287542732161 17.410403458496326 10.276159436781793 0 4 1
561 1 3.7940985324691936 18.417845614425666 6.636701596507129 2 1 1
1638 1 3.658241723767503 17.03574855974012 8.537837911935954 -3 2 3
1947 1 3.170143749804469 19.55522666890632 8.801689789848592 1 0 1
397 1 7.332477328598046 16.27790000302909 6.799672597696758 0 -1 0
1705 1 9.701394729684596 17.35784733981277 6.679508056589988 0 -1 1
1672 1 5.671002661914104 17.600722019277455 7.210189914267874 -2 -1 2
574 1 5.453784533637674 18.78220704638246 9.209385547742041 -1 -2 1
1211 1 6.631470332113536 15.112479776414515 8.309715718606753 -2 2 1
404 1 7.524956019823062 18.06527672743656 8.278531903810286 2 3 -4
632 1 9.252852678378675 16.07415706188858 8.503348240247112 3 -1 -1
32 1 5.668884434713777 19.736024262572215 7.072244642556228 -1 4 -1
408 1 8.80035526687149 19.7422184101613 7.04835895932259 2 -2 0
664 1 6.8920010578614 20.66006205854702 8.677602194164391 -2 1 -4
925 1 10.149018849982347 14.705259848994546 6.076923657936756 -1 1 -1
1849 1 10.165594372960975 18.07347232254567 8.901794008486936 0 3 2
1048 1 11.6328262887876 16.40804568264613 5.7699240131382865 2 -1 -1
781 1 13.81174186865922 17.703552701431192 4.9007336545423374 -1 -1 3
1023 1 11.479782654495724 19.146524488711513 5.99181463005285 0 2 -1
1522 1 10.893344940580572 19.87261887587094 7.790938038051159 0 0 0
30 1 12.68368934414703 17.782213430938377 6.940163456258872 3 -2 -5
1799 1 11.451755704168965 16.219901182111155 8.186388502970212 2 2 -1
381 1 1.1932443768548922 21.496543670939957 6.243034467987933 -2 2 0
643 1 0.748380404555357 19.91534790384876 8.84570882930517 0 1 -1
1529 1 3.651209301524424 20.95775107528921 6.934348789954412 0 3 -1
492 1 1.7761261052663386 23.503722181494098 7.193375388964037 -2 -1 -4
1548 1 2.3478036420363413 21.80739897755393 8.449966360352722 1 -1 -1
1648 1 4.00278031073825 22.458600413854036 5.287659454109113 0 -2 1
356 1 5.708463998323669 21.77669927554478 6.28987236363476 -1 0 -1
777 1 2.976291580491651 23.616518222039268 9.516831767781264 -1 -1 3
94 1 4.104977243312616 23.370193020914172 7.315106939517962 4 0 -1
407 1 7.696515820607283 21.592716927372123 6.918278926039365 0 -1 1
1331 1 6.0728728980330935 24.13873713777143 6.422868483977118 1 -1 2
1565 1 9.991683662939495 22.413415129578517 7.075091324268767 3 0 0
887 1 6.406289072057722 22.66273040251194 8.429046756779918 -1 -1 2
698 1 9.284749803006513 21.14933349904981 4.929501577665349 1 -1 -3
1992 1 4.633624270839964 21.460944932324033 8.802988817492938 1 4 1
118 1 8.681850681857373 23.258082859714797 8.760246635068647 0 0 0
1534 1 9.445607398647613 21.116112172768936 8.827971327453481 4 -2 0
1817 1 13.063703944317194 22.545575813094025 4.37132104131954 2 -2 1
1126 1 11.428657376735867 21.515748116418628 5.796469025151553 -1 -3 -1
662 1 12.22014863138835 21.612543550327324 8.413985592169517 3 -2 2
654 1 10.823664103543026 24.359955354454577 7.942953845939392 -1 0 1
448 1 12.546797925432811 24.08570420112453 9.677016984528443 1 -2 0
25 1 10.4729531550713 22.74830544062035 9.95083451137195 1 -1 -2
391 1 13.175778140276973 20.061374506092008 7.300160956501467 0 1 0
881 1 10.67077248850268 23.780745456058852 5.370670740008279 1 1 0
1943 1 4.801713803674469 27.395351548237628 4.531075581423656 1 2 2
1870 1 4.907949867122664 24.91988926765623 4.635529648300448 -1 0 -1
36 1 3.67319084893422 23.742322741207893 12.748137908345223 0 2 1
241 1 1.7585841791096375 26.891582200500196 9.464830380428399 2 1 -1
1201 1 3.3127855874692425 26.86493759749746 6.186003184640967 1 -2 0
1459 1 2.873136706066982 24.59913358503517 5.198325725831989 3 0 -1
563 1 4.911725125750476 25.849125481479902 6.948353226607288 -1 1 1
1469 1 3.4414589324552867 25.655290385162907 8.757693120264305 1 3 -1
1290 1 1.860642580268122 25.691912701386734 7.366287036771874 1 2 -1
973 1 5.199012304536773 26.564001509692275 9.095993905929252 -1 0 2
116 1 5.423709971866533 24.379886654552713 8.908437252379995 -3 -2 1
824 1 8.167929528996705 23.14021400224651 5.3446052474140995 0 -1 0
993 1 6.644812238707969 26.242348548849485 6.01730592516721 -2 2 2
1894 1 7.2214765572308535 24.72381568275521 7.985380124363491 -1 3 0
977 1 8.315882709328314 25.57612254178951 4.998738923355957 -2 -2 0
1763 1 7.253409680371027 26.725596690930956 8.01888705007461 -3 -2 2
1489 1 12.570587915763282 27.18631250246049 9.039791468347513 1 2 -2
428 1 10.678379667366444 0.8374363370400331 6.004648295974535 3 -2 1
608 1 12.807527156292958 25.50929632162314 7.6047139694510175 -1 -2 -1
489 1 9.203048561733093 24.54297077814048 6.618859039571991 0 -1 5
1419 1 7.58158115183317 10.691786587173842 13.782104858331913 -1 -4 -2
1071 1 11.127529773551052 26.003617259638204 5.842197747275161 3 -1 -1
96 1 12.55493846995151 23.53768802552799 6.500135263729206 1 -1 -5
894 1 0.7074311330259456 2.293040189881033 5.4605885751154 0 -2 0
593 1 2.6666987567620537 3.8227555321724807 9.023757252463733 0 -1 3
1026 1 1.2149356915581966 1.6667120444497507 13.395441100012029 1 2 2
804 1 3.5021236119340755 27.232659381486393 10.495081798007297 0 -1 2
728 1 1.8247898595277607 3.545278824466546 12.991462211364498 1 -1 4
1956 1 3.236913064897383 2.3090658092879606 11.59059230739772 -1 0 1
1499 1 3.906366570001602 4.2920478579389245 12.987247962401156 -2 3 -2
1271 1 1.0730119384638996 25.70061941914009 4.983366031048432 -3 -2 2
1441 1 13.427138071442261 5.355720554226352 1.9239730465285756 -1 3 -2
1327 1 6.187161345726017 1.1427968011593548 13.89762507080139 0 -3 2
965 1 5.787322694534503 1.8970981028771539 11.614742902876037 -1 -3 0
287 1 7.1294460964264905 3.2128030657681608 10.238312691713999 -1 1 1
1165 1 9.271390784454299 4.072130474262276 11.457742604317692 2 -2 1
295 1 8.987110804026496 2.0033652631793277 10.622940724017717 1 0 5
1853 1 7.383371757563146 0.8396931637831422 9.728512383977296 2 0 0
493 1 7.8995418413589915 2.880401979254915 12.973008612517509 2 0 2
1873 1 2.9797875189897254 26.780232964725847 1.0756995701375704 3 0 1
125 1 9.816428195586996 4.415516852991988 13.78720054285271 -1 3 1
606 1 2.643910375075906 25.995833711110016 13.000682461166473 2 4 3
1185 1 13.865988256049516 8.604932018174054 4.524020700097412 -2 0 0
1784 1 12.073609596642438 0.6633155047104833 11.755391232082511 -2 -2 1
254 1 13.33239479440476 2.8027248174225505 11.449508861959783 2 -1 1
1933 1 10.782993423379242 2.8349777998994 12.117145209404846 -1 0 0
1645 1 10.020221869722986 0.8253388673611786 12.346116207000993 -2 1 -1
1401 1 1.133330828439409 13.674947282643402 5.10811300954804 1 2 0
758 1 4.750694693792135 3.5212237084797455 10.163692204490708 -1 1 3
1136 1 4.524652063682697 6.186471584179293 12.143665952273615 1 4 -3
582 1 2.771433162830748 4.386552502220967 11.115317231169419 0 3 -2
1439 1 3.133175525659215 6.376722467959359 10.331708868521217 4 1 -2
1949 1 3.041876424452994 7.747998254110247 12.23392358605569 0 0 5
147 1 0.7633611713640807 11.997114424717587 3.704475154934214 2 2 3
714 1 0.49110199680199446 9.985101772081775 9.27972396885615 -1 -2 2
667 1 5.510775688488162 5.610928108177961 9.826848324078966 2 0 -1
301 1 6.5763505827963 4.396205227858509 11.66313245334146 -1 -3 -3
1795 1 7.596305010547775 8.863023327663456 10.331645135279063 -1 1 1
1746 1 8.429808705070693 6.053252621964782 10.658536783813403 -2 -2 -1
490 1 6.496056299533489 6.953371883372613 11.184610875221832 0 0 1
1734 1 8.981956399059738 25.57753846550368 8.835120418650147 -2 -1 -1
1669 1 8.144628658352499 5.336742140663092 13.204061956473698 -1 -1 -2
1541 1 9.244033810897658 7.8504392532049145 11.670212671930496 -1 -1 -1
1997 1 10.400593788794437 5.388975778350886 9.71107228167598 2 1 -3
1295 1 10.188965924955527 22.888091456463435 12.888048948114058 1 -1 2
2010 1 13.860552061624087 4.674207456844085 12.730118722517094 -1 3 4
1643 1 11.940174224863435 4.291850830799417 13.81273596197448 -2 1 1
332 1 11.851155140275464 4.664855932641277 11.325690039645044 -4 -2 3
168 1 10.496215975179894 5.815519362157955 12.383041806878879 0 -4 -1
1635 1 11.316452486709426 7.166948127216047 10.725385073866928 1 5 2
1455 1 13.095742278128828 6.755281666217469 11.971550666300592 -2 1 1
2029 1 3.939379056006492 27.836058231824005 12.586749338841107 3 -1 3
279 1 8.6818797658405 20.871520434295142 13.64898472834707 1 0 0
1785 1 1.924789181911697 8.877757366640889 10.52279091083193 -2 3 -1
1408 1 13.002715343184134 26.435153857615575 13.083961697699145 1 3 -1
892 1 3.9709980762684847 10.073268915742329 12.05219673546279 4 2 -1
1405 1 1.885776678592931 11.22354902245334 10.900673696540943 -1 1 -2
262 1 3.9517575372445495 12.091769007912127 10.798674936696665 0 -1 -1
135 1 5.898570617971245 11.528366623333893 12.627107872084805 2 -5 1
445 1 1.7248171283429317 9.606972536158974 12.871693745820766 0 -2 0
307 1 13.084156051186826 7.836742257169792 1.8350611144150768 0 -1 -1
1989 1 9.026206384452301 26.785293857498594 10.733241988541906 3 0 -2
1095 1 9.36883972352902 9.757865273736005 12.534468587324655 0 0 -1
904 1 4.580014423216311 8.3951968205022 10.271507977745923 0 0 5
923 1 5.760975159861824 10.584570780450754 10.340478026777427 -2 -3 0
1070 1 6.232135158077434 9.000772306627915 12.175778376670431 1 -2 0
48 1 7.646569578703393 10.711619551282844 11.436532820813799 0 3 0
1851 1 6.97281994609648 12.747957628727832 10.725772279934159 1 1 -1
615 1 7.588862573653313 7.763548588734981 13.158921649658875 -4 -2 0
1205 1 8.79781149961501 12.351808548903009 12.826549279611237 1 1 0
718 1 13.918698178785991 20.740622223868364 11.78655556334712 1 -1 1
1266 1 11.566835366120243 8.327139202202096 12.564556734062041 3 0 -2
1052 1 9.800019693131468 9.687459152709895 10.254374127389926 -1 0 -1
1960 1 12.591262827778372 9.728381912720078 10.956855583806515 -3 1 1
1547 1 9.527055590355864 7.759796601161499 9.165984782189053 -2 -1 2
1164 1 12.21051394943835 10.591831211310533 13.37629011245652 1 0 0
1957 1 11.864668454141885 9.333910916315297 0.7549849590783391 -1 -1 2
81 1 10.752951985610197 11.081196003579423 11.564455757668185 -2 0 -4
1735 1 1.2178871614340085 5.37430149110967 10.122213840076853 1 3 -1
674 1 2.7748448635515928 11.836059726888585 12.807650100206615 -1 0 2
543 1 14.138444903919734 4.202741885855673 6.5090131381191245 -1 -3 0
1885 1 4.8201040389142795 13.441082393665015 12.34809999746936 1 0 0
1513 1 2.66228863633501 15.648021868119045 12.393877945863702 -1 -3 -1
1188 1 4.53768138898155 15.392784420490134 13.298363448987251 1 0 -3
1024 1 5.16273372264572 13.764105078569148 10.103370684443307 2 -1 3
1516 1 9.04420546891097 11.950936891150741 10.493999362041345 1 1 -3
1413 1 7.20529683453524 13.60509434915533 13.016643925997494 2 1 0
738 1 7.941360890054729 14.76814475896475 10.316963910966793 0 1 -3
308 1 6.379878081777126 15.289463069812626 12.040236099266055 1 3 -1
1766 1 8.257115753988305 16.10231725870777 12.318691486820818 0 -3 2
467 1 9.531728070727187 14.01812708883753 11.460016227213746 2 2 -2
1995 1 11.261378374823503 12.932275624504449 10.753683218189677 4 1 2
1564 1 9.660087830098282 16.297470663010074 10.897932473784397 3 -2 -2
873 1 13.63427256121555 20.154456388606867 4.879507876600391 2 -1 -3
1311 1 11.644080780138477 15.056151090603745 9.903695014855717 0 -3 0