LAMMPS data file via write_data, version 29 Oct 2020, timestep = 300000

2048 atoms
1 atom types

0.6387887983885037 27.713211201609628 xlo xhi
0.6387887983885037 27.713211201609628 ylo yhi
0.6387887983885037 27.713211201609628 zlo zhi

Masses

1 58.933

Atoms # atomic

1164 1 2.9726379172081545 3.494224371440055 2.9676095096935247 1 0 0
1714 1 1.7106183425852572 3.9853216291171942 0.8674446669463882 -2 -1 3
1119 1 3.956443153002463 2.3936790841863758 1.1582979743915187 1 1 -2
1295 1 2.9636723733830372 1.107424999143667 2.7937820590873677 2 0 2
1595 1 0.7024957873994963 2.5885428675254127 2.760420829909016 0 0 1
197 1 3.9936368786389997 5.180756442841979 1.2570469131629998 1 2 0
1442 1 1.4748627999370438 1.4661030949481666 4.758806651825469 1 2 0
1577 1 1.8780701093107455 1.8162497961627984 0.7258881920509608 2 3 1
254 1 1.5966176720512282 3.8137955035055615 4.939452730992031 2 -1 1
282 1 3.8120265974466823 2.3717156405676896 4.877543811801123 -1 -1 0
53 1 4.903718434969406 4.501997971190226 3.322926210701364 -3 -3 -1
847 1 5.067499350809153 2.141099560978167 2.9851996640874576 4 -3 0
335 1 5.9030219163484094 3.5480638027657854 1.3076696264203131 3 0 1
1457 1 7.143823811658132 3.3979556070031958 3.144414129153369 0 -2 0
1491 1 5.994631121094412 1.3118855308236026 1.1225492248209368 3 -1 -3
1467 1 8.248205345344633 4.76582391403308 1.66064519634351 0 -2 3
1913 1 24.08383982713071 10.731654490402777 10.764698933950845 1 4 2
94 1 8.105278362750884 2.5290709778258407 1.4576251807190106 4 0 0
533 1 5.457246115410799 1.169056400511323 4.96059514753977 -1 0 0
816 1 9.430027329139433 4.039907636526143 3.7362918630569855 0 -2 4
460 1 10.368918953837902 3.1297054257193238 1.809122709203407 2 0 2
337 1 11.614019541737031 2.589668877105254 3.681603592908717 1 4 -1
1066 1 9.27469469242034 1.8284712309388866 3.439643674545394 -2 -2 -2
5 1 11.742535857957733 5.181512405578769 3.736177395817124 -5 0 2
836 1 20.64769420462816 0.7085121851002081 12.195235174612431 -1 0 0
1432 1 12.734169953565972 4.374392678953701 1.9902991804672996 0 1 1
445 1 12.55662245437152 1.8918296335249751 1.7843027296372937 0 -2 0
1915 1 14.907863164557423 3.231925218998234 2.0767356638932304 -1 0 0
1853 1 13.685581666334883 3.894452839921471 3.944249968525696 2 0 1
594 1 13.791319672126805 1.4559076934533948 3.868295214321406 -1 0 0
2016 1 15.992208343016154 2.6840588348705285 4.19081181514121 2 0 4
1547 1 20.303835173079587 4.582315269373092 0.752034886775963 -2 -1 3
303 1 17.014253692787598 4.00692500814322 2.142994431629366 3 1 1
1539 1 19.174094457694675 2.7389672221726054 2.4030841912448304 0 -1 -1
2007 1 18.160389480749117 3.6460312471025778 4.008602915420784 0 1 0
1339 1 16.909294405048417 1.6569850704105333 2.227182951052683 -2 0 -5
2042 1 18.028186429065286 1.2374607206921815 4.30098719883736 1 0 1
2028 1 20.51621034784913 2.566031115080233 4.2778273568033836 -1 -1 0
16 1 26.69808861877975 13.129072993977674 13.266262778371882 -4 1 0
1830 1 19.988765419704933 4.826051688599786 4.4320751119129635 0 2 -3
1186 1 21.234330460337567 4.008784249599616 2.7111675949549054 3 3 6
1962 1 21.350242706058523 1.725061268615894 2.6739054172335197 0 0 -1
2022 1 22.52523244802964 3.4746908036845943 4.828690298681056 -1 0 0
1816 1 23.50107337546897 2.5590163738963234 2.68404388811813 -2 -1 1
1356 1 23.305252830525326 4.97371132998376 3.036047371808956 -3 1 4
2030 1 22.460125571482862 1.134811448917787 4.425668270658255 3 0 -1
1621 1 0.7083728441697591 4.88505100341496 2.5760424019536377 -2 3 -3
759 1 24.592445773699346 2.3040527894888116 4.80098866281547 -1 -1 3
1582 1 25.636780529121637 4.01344373392183 2.9728814833579684 -3 0 -3
214 1 25.721820849272795 1.7721375305714686 2.5315032110832174 -1 2 -1
865 1 26.674930832326474 3.003664211951629 4.737622134265281 -2 0 0
547 1 26.70255784371201 5.482447094766407 0.8268596251463003 -5 -2 -2
391 1 24.564053536202834 4.58892655888775 5.114590326225651 -1 2 0
677 1 14.639368805446683 6.543186143481886 13.870766672085775 -4 3 -2
42 1 24.642377705242836 4.252588879666001 0.9241753091493837 -4 1 0
1755 1 9.320241742982239 13.705989683441064 8.4294790308794 -2 2 0
929 1 2.7118815026813166 5.856031344147396 3.388010910577661 0 3 0
1238 1 1.949078665212985 6.408455776560202 1.4773877790917502 1 -4 1
1761 1 2.660669271417768 7.982154737524818 3.633266312456779 -1 2 -4
693 1 1.7637289538306757 8.655287385385993 1.3113290084373328 1 -2 -1
88 1 3.963493204542643 7.394370137432694 1.2164971727702283 2 1 2
441 1 3.820976984392032 9.558380022582268 1.4940442004327132 0 0 -1
334 1 7.260899546670594 5.694649683618061 3.608350522856599 0 1 1
125 1 4.660574542520034 9.162375251129065 3.5017791956001028 0 2 1
1688 1 4.8174321839167265 6.996868309976453 3.2649065599344502 2 -3 2
59 1 6.097579137738517 5.781560925518303 1.6417735165438745 2 -3 3
1338 1 5.961030980144169 8.134953993253305 1.7529259652996283 0 0 0
1801 1 7.132212999768274 8.096880451537297 3.604362949979744 4 -2 0
1631 1 8.057798684333953 9.574616576765187 1.775260792741058 0 0 1
134 1 8.399431358995304 7.178341603574981 2.0951474606529117 1 -3 -1
1516 1 10.127729057328866 5.722305869643794 1.981040406221905 0 2 -2
1348 1 9.479517825343514 6.780386738111104 4.149180959730554 1 2 2
1373 1 10.227725289403631 8.25329034378396 2.2091881122328783 -1 3 0
1402 1 9.043268232081912 9.118916424856884 3.733593791172097 0 -1 3
973 1 11.831896878412007 7.585141014254177 3.932057107694027 -1 1 3
1597 1 11.465601888768251 9.811159093571701 4.116389066260227 1 0 1
1581 1 19.313645063135365 1.0356875540858095 6.199296607142425 -1 2 3
928 1 15.861074432446223 4.957604280644269 3.94963931971291 1 -3 2
1993 1 14.69036979115576 5.46035157689079 1.9374740223129059 -2 0 4
1697 1 12.740964814141408 9.014127049388456 2.3318765753733706 0 0 3
636 1 12.748488138958928 6.7002658594327675 2.1399655417397097 2 0 1
1172 1 13.853414520660364 6.27541632810756 4.055125653937687 1 1 2
1328 1 14.85299650852484 7.91360510380329 2.1803220472085316 -1 -3 -2
1083 1 13.863178977413886 8.964091867924303 4.334692763769954 3 2 -3
1523 1 15.77280261072863 7.558983221685788 4.332162792991873 -2 2 1
1698 1 23.423871124376024 0.6996210020570572 6.309796317132723 0 2 2
350 1 18.944080626994193 5.117268001329508 2.42966018061491 -2 1 1
422 1 17.63730240754589 5.959756826905354 4.311586651604534 -1 2 0
1399 1 16.804795800947428 6.38519591501785 2.282120898882021 2 2 -1
568 1 19.176421540144837 7.508339753823092 2.49688518266268 0 3 1
1545 1 16.794668356087417 8.961182150070902 2.5000170110850055 -2 -3 0
1374 1 17.970165235352983 8.377421886707948 4.266667363383071 -2 1 1
365 1 19.80817510510118 9.223458586553495 0.9606450050775425 0 -1 0
258 1 19.921606317354108 14.045921645608884 4.792401774590145 2 1 1
492 1 20.25399371212101 6.942074427802518 4.597142960248222 -3 0 -4
1916 1 19.863444832360617 9.394323211977442 4.958667462800249 -2 2 5
216 1 22.207849901685943 5.910142560653605 4.996844875523984 1 3 3
1743 1 21.123565540937435 6.355377521336131 2.6675430883014726 0 3 1
269 1 20.927785086566487 8.747464085718692 2.947274419954516 -1 1 1
7 1 23.396455071667862 7.282473811187799 2.9877801409412066 0 -1 0
1607 1 21.994651762681258 8.308457004067533 4.832903261479977 1 1 0
1004 1 22.013118817714332 7.832964211148055 1.0930429181887287 2 -1 1
1020 1 23.02757662823369 9.536664650324488 3.131806622261782 6 3 1
119 1 16.209212261739275 0.6423171504255123 7.946014737113712 1 1 0
1817 1 1.7498223234976498 13.758035999281883 9.599121353367853 1 -1 1
1914 1 26.81972251619143 5.482005300935067 4.767798115491203 -2 2 -4
118 1 27.67912748004143 7.148438327689289 3.2634489802419466 -1 1 0
2008 1 24.293895535877787 6.626834090394715 1.045869024834768 -2 3 5
702 1 24.26052618612064 8.935467314970895 1.2734003817339072 -1 5 -2
268 1 25.46045219933083 6.338144276326719 3.136761279749124 -5 0 -1
409 1 25.4708213300149 8.612535747290327 3.334431147674757 -1 2 4
1382 1 26.58551869920768 7.801264358844425 1.2877857550447813 -1 0 2
1125 1 24.261058372833862 6.7342389741455975 5.0723538906033285 -3 2 -1
1570 1 27.517761859264066 9.487201502904114 3.1621651777280957 -1 0 2
1428 1 24.004641263499103 9.097667980976466 5.154447787941872 -1 4 -1
780 1 26.5168352928153 10.110619993870852 1.2358388379874552 1 1 1
1462 1 26.21070871424443 7.628797300365535 5.195400667877557 -1 4 2
1274 1 2.709577840797646 10.259232980493035 3.5930176543013332 2 1 -3
944 1 1.4583120048793599 11.202555464608917 1.5447439229106599 6 3 3
348 1 3.6223392447469753 11.745952085079407 1.8268843990344643 1 0 0
1436 1 2.7664135611995815 12.624126399508118 3.6760448328543704 3 -3 -1
1898 1 1.5045080110457492 13.455120354655692 1.474847940488031 1 0 -1
1370 1 4.699040347832824 11.37018901232148 3.810297251732458 -1 -1 1
1735 1 4.551489296393993 13.792494122638946 4.208366646007441 1 2 -1
1926 1 7.082235033332101 10.22204805635109 3.9946823940861376 2 -1 1
80 1 5.611129221289766 13.071629024773284 2.2710115834976605 -2 -2 -1
1488 1 6.0627133619147315 10.670847555934447 1.9507516445175992 0 0 2
1409 1 6.725683666619115 12.65533624883499 4.192389848060137 1 -3 -4
1568 1 8.047412864521643 11.967452125251825 2.5646349689086883 4 1 3
1903 1 8.987691649147179 13.399589647836729 0.8099175075159963 3 1 0
290 1 8.839770515994894 13.577268391106841 4.28752044644895 -2 -2 -3
1912 1 10.10511809956509 10.498536097358423 2.3417012493484517 1 -1 1
1444 1 9.172024255796904 11.498352446182594 4.332624445200496 -4 0 0
57 1 10.245429422948622 12.507879351820392 2.7225184375434455 1 0 2
900 1 11.47202097759017 11.994670068946201 4.46156707065791 -1 -5 0
293 1 12.547439692377935 11.27673053172441 2.538963073629149 2 0 4
149 1 24.519542477227677 12.151260367240463 12.953742946107047 -1 -2 -6
797 1 26.638758317849113 10.732127054326416 13.381327064017352 -4 -1 1
60 1 26.722994816188226 3.176346690171829 0.7261993980522697 -1 1 1
352 1 8.212695305082935 12.688793956978076 13.895780935884584 0 1 -1
647 1 15.740491429319897 9.983489041541631 4.4851960159888815 1 -2 -2
1942 1 15.792184706645722 13.740686631999663 1.0860493050846765 3 0 0
464 1 12.495021528201367 13.38276843190592 2.7118452625548826 -3 0 -3
710 1 14.709387090157344 10.03869210708081 2.3195830475083756 2 4 -2
2035 1 13.688864673780799 11.170511871930122 4.306607414566319 0 -1 -1
921 1 14.602077724411231 12.288162064051072 2.5915606554937023 -1 -2 2
1982 1 13.639706259778125 13.333842435170016 4.762927172261135 3 -4 1
624 1 15.659444337766862 12.177840280413506 4.831551385409939 -1 2 2
1040 1 25.44033917423765 13.55429539011504 11.396124297625036 -1 -3 0
1653 1 22.578457682238806 5.492685930078416 1.0420978599705253 -2 3 2
1991 1 12.548946583599154 9.894674007182195 13.984175988836638 -1 1 3
656 1 3.6611447907843435 0.6559120375287874 8.808338786384446 -2 -4 -1
215 1 18.937561349684994 10.208625837764114 2.906820984812609 -1 -1 -2
96 1 18.029497806399043 12.795133216699025 1.161064787849744 1 1 -5
1362 1 16.435287652265544 13.890280506904848 3.152928506621704 4 0 2
1984 1 16.863412150122194 11.52469195089874 3.0173244309014975 0 1 4
720 1 19.19773547453744 12.668337813299384 3.100806940400183 -1 1 2
1122 1 17.78711693969574 10.810633005718042 5.076944279178457 0 0 2
917 1 20.069525693625007 13.609584667191696 1.141587227710233 -2 -2 1
1561 1 19.976837396756984 11.39584847383222 1.1374968074021243 0 1 1
1045 1 17.825334322519524 10.447323840698509 0.7902089348968243 1 -1 -4
31 1 17.879557970497114 13.225576793958712 4.71325148861272 3 0 -1
912 1 22.155695304534532 10.139569161369902 1.2690064716999374 -1 -5 1
519 1 21.183135455419684 13.478330068253852 3.244558922304822 -1 -2 3
1043 1 21.152970033350428 11.01795203921241 3.007230252557868 -1 1 1
72 1 23.296492126053366 11.91088794706856 3.337970039514167 2 0 0
316 1 22.03277917965158 12.416995995622896 1.2365710440641648 -3 -1 2
990 1 15.405007944868668 0.7393920127038427 11.576919302546756 -1 -1 -2
940 1 27.217025093362857 11.878277560717486 3.4753134026988453 1 2 2
145 1 24.197334426672278 11.33481848267691 1.2518731040673323 5 -3 2
306 1 24.251110907498617 13.579935078666578 1.3802846250835223 0 0 0
188 1 25.313940557715764 10.64431158054062 3.1465191571405753 -1 1 0
579 1 26.39773522751305 12.526172446364145 1.5919390039901788 -1 1 1
376 1 25.385185753298934 12.96891777903846 3.8303737617125186 1 0 -2
1198 1 0.7881034258428556 14.135979563842007 7.7095728384125195 -4 -1 -1
1566 1 7.888060155981307 14.017842872431885 6.5334383348892855 1 1 3
490 1 3.7962638037890524 5.0844898206991065 5.372775321774413 0 0 1
10 1 2.783019271951862 1.160055233024495 6.768698814823667 2 -2 0
1094 1 1.5707702845421985 1.874103946644196 8.652686407408552 1 4 3
44 1 2.604644334430172 3.3348507890986614 6.783529246179361 1 2 -4
235 1 1.8636933102817241 4.190244954509346 8.85119276902574 2 0 0
1736 1 3.8351987290850285 3.12704716462479 9.028564651164727 0 0 2
1970 1 0.6517323348190516 2.1490321820909424 6.739679158953127 0 0 -1
1152 1 0.6843779234779568 4.697987293988888 6.734071702898242 3 -2 3
796 1 5.753270765076296 3.486857989970416 5.059337952436023 -1 1 0
811 1 7.581744054838712 2.2286256060954495 5.062236382970904 1 -3 -1
2036 1 7.633105236383771 4.560742282493543 5.654638641003242 3 1 3
589 1 4.979564023746166 4.418428982711753 7.301632538268465 0 3 1
1910 1 4.603487415349038 2.2209682305537353 7.028258166713618 3 4 1
201 1 6.841255638166409 3.0675858719746363 7.136871575131683 0 1 -2
822 1 8.141524247090338 2.773989566014425 9.165672278900894 3 0 -3
1361 1 5.973857979820388 4.268400781804189 9.344074721274602 0 1 -1
69 1 6.138178087416645 1.427235192409004 8.921029719802428 -2 0 1
476 1 23.83119664316158 13.893346883925638 9.222668919872463 0 1 -1
835 1 8.080063988470396 5.273502491981353 9.536496600145318 -3 0 -2
129 1 10.68474747663125 1.418675029807749 5.431785843471747 0 -1 2
1459 1 8.89694005952839 1.6678593614978154 7.279373574344621 3 1 -2
136 1 9.441754174864625 3.183809509469492 5.654217389506994 2 2 2
2004 1 8.858095950581138 4.207066220494601 7.776178468023559 0 2 1
1492 1 10.691297185229956 2.8597987342975073 7.45301701263873 -1 -2 -3
1885 1 9.85018931051344 1.0985824202263594 9.509954443979307 1 1 0
75 1 11.328521880526353 3.6462756933579 5.528589952044752 1 3 3
1466 1 10.338203167615601 3.5809239873300887 9.56471567828539 -1 1 -1
1894 1 12.010362950203143 2.09273900460322 9.763175767603842 -1 3 0
1387 1 14.829656936450869 0.904316460735125 5.916778098483633 0 0 0
264 1 12.829801787871485 1.48937858518966 7.710116401558314 1 -1 -3
1693 1 12.928597727147373 2.20154073726904 5.702342530310319 4 2 2
848 1 12.96646221006406 3.6687534254781493 7.812999212668589 1 1 2
1110 1 14.805582813712157 3.6294383777718267 5.9268288635788355 -3 0 2
193 1 14.876199327876032 2.3920966348700636 7.741487471025331 -1 -1 0
318 1 14.42635094264803 5.150271269335137 8.233161006016447 0 2 1
280 1 16.12881030363748 2.1318023554877783 9.807125450827947 -3 -1 -1
287 1 16.596683877810094 3.423267567317214 7.972735560284295 -1 2 1
1871 1 18.48619290491753 1.9894367460784281 8.272164734769113 0 2 2
403 1 16.926773379062187 4.558122004251781 6.094211497182104 0 3 -1
1971 1 17.123112338077313 2.106261611598379 6.198783223640428 0 1 1
988 1 19.286859602719876 3.2261577439902327 6.103404865942584 -3 1 1
1216 1 18.636359847899037 4.128503824532002 8.18904149432765 1 1 2
402 1 20.582207917646173 2.505207234572263 8.475392079708465 1 1 0
1524 1 22.585972236045148 1.502023435485183 8.151884561312471 0 -2 -1
398 1 21.34618111373001 1.8867780566311656 6.225813796665503 -2 0 1
238 1 22.593753233417523 3.750970516105986 8.747671261140084 1 1 0
336 1 21.28503781740104 4.240236069403018 6.477608557099864 0 -2 0
681 1 23.44603328326927 2.95974949234923 6.7696280380036615 2 -1 3
1194 1 23.367348383262755 5.206813065480736 6.922229316230754 0 2 2
614 1 24.67506970576165 2.1455693480596425 8.69622997125914 2 -3 -1
126 1 25.45206891638655 1.3659010375829526 6.597454249502988 0 0 -2
435 1 26.749549257383254 3.096930181853316 8.887504440180034 3 -3 3
309 1 25.743287543162836 3.626061210847496 6.825214562828974 -1 -1 0
49 1 24.604438966876575 4.7824000164809135 9.10480605974327 0 -1 2
1162 1 12.52545193671628 7.664853029696238 13.703296801166458 0 -1 3
830 1 1.80367323830516 6.422735670205297 5.3303655375510495 -4 1 0
1200 1 1.4807096728203195 8.757510388358046 5.313930583682994 2 2 2
90 1 3.843891815453388 7.21411402112081 5.323969739631985 1 2 -1
856 1 2.767419971923954 5.734356449783258 7.176925869786949 1 2 0
156 1 2.6180477898681334 7.873771038979933 7.422291600587657 2 -4 0
356 1 1.8004441789032712 6.304422650045604 9.190610535129208 0 0 -1
1023 1 1.9212175533617826 9.23030481255052 9.088708956106673 0 2 -1
178 1 3.8752552432866194 5.288340629834147 9.089972639032956 1 -2 0
646 1 4.002559298739362 7.62154596443616 9.443936446279391 2 -2 0
1728 1 6.860265972924371 5.578773555948139 7.6031964730061885 1 2 2
442 1 5.889695916479161 6.0419971323510895 5.456906857293599 -4 -3 1
2006 1 4.782788985243251 6.709596076497797 7.443006560135625 -3 3 1
299 1 5.699883517376814 8.445801232533839 5.664794273237057 -3 -3 1
1230 1 6.88140046715693 8.089099613078105 7.567246198196783 -1 -3 -1
131 1 7.944674198281982 7.1792653615508 5.740471896568668 0 -2 -3
1278 1 6.203883409976872 6.714942939406598 9.447280357404845 3 4 -2
706 1 4.863735500412244 9.410734784296737 7.417776707054528 -1 0 2
1551 1 11.037686289363549 5.157003409306743 7.3696908476685135 1 2 0
2001 1 9.796829238772876 5.341689916899756 5.718462565495789 2 0 -3
265 1 10.178470339248674 7.9974324414887885 5.900871110115293 3 -1 -2
1487 1 11.447114445957975 7.5882944755185155 7.958253151788291 -2 2 -2
1182 1 9.04738997703409 6.531047370204001 7.65419885057996 3 1 1
1943 1 9.221574369507357 8.950875172219721 7.574684916686996 1 3 2
1709 1 11.536206604160942 6.6469181306571565 5.637909468379918 -4 -1 1
964 1 10.145543882763773 6.210633113667971 9.633265277371914 -3 0 2
489 1 12.240321372020924 9.054690184454913 5.994297492081657 0 -1 5
1453 1 13.085822705306526 5.038799229272187 5.942315620192624 1 2 5
817 1 12.837846749063896 6.239291527720515 7.719574031137036 2 1 -3
1151 1 13.609068935387445 7.396324712543305 5.9160004670304955 -1 1 -2
510 1 13.735912915768877 8.903175705020669 8.111919154004962 1 0 1
703 1 14.822386148671804 7.003632726924773 8.418712938776224 3 -1 2
184 1 15.253736396661154 6.003656327520893 6.38418596594453 0 2 1
289 1 15.505462145704128 8.223269478689287 6.645361918721883 0 -4 2
1699 1 19.293543833676353 5.62192820096492 6.394109062228729 -2 -2 2
1718 1 16.9104188275814 5.644671162898851 8.159051054798443 -2 0 -1
1051 1 16.820219472911337 8.005148664444986 8.662839840832778 0 0 -1
854 1 17.246328781238752 7.01639005779338 6.468085263616234 0 0 -1
1311 1 18.904481390216603 6.821445951308712 8.233126412488946 -1 -3 0
91 1 18.54642519330561 9.522208907400394 8.541880088990542 2 -2 0
1895 1 17.320540916028598 9.30409888790406 6.421043620066257 2 -2 0
1267 1 19.385712269134732 8.196590339188138 6.727579020920352 -1 0 0
1097 1 20.81262549279032 5.018668548351698 8.483626473281475 -1 3 -4
1106 1 20.775951857589355 7.882922163128296 8.79839380095149 -1 1 -3
1588 1 21.339624714598525 6.649845309327877 6.8991623117011915 0 1 5
24 1 22.771534368510597 8.822229042908603 8.809182305428262 2 2 -2
1455 1 22.78707154697044 6.456081446307962 8.75115817989159 -2 1 1
473 1 21.406928376477495 9.110241627874235 7.042773091514179 2 -2 -1
1332 1 23.406235041801345 7.7281578775546045 6.9579643150538715 2 1 1
244 1 27.693539835059006 7.068659185936329 6.866160307461164 2 0 2
775 1 27.20118246433424 7.849600965411524 8.695325846938795 -1 3 1
277 1 24.851564945521694 7.217736550585178 8.731289782193539 1 1 1
1900 1 26.69014558734531 5.480806828547941 8.716783461929989 1 0 0
1053 1 25.450701886748476 6.060140932931388 6.808111297367542 0 3 -3
1571 1 25.407125805001947 8.516453744057198 7.0120385701976 0 1 -1
639 1 27.576347272375017 9.461395490549965 7.00986374193626 1 6 1
610 1 3.6023773155324306 9.46204997029888 5.37314726719577 0 2 0
1685 1 2.5834264386798687 12.972494023310446 7.603625882301647 5 -1 -2
1526 1 3.5153072242586645 11.879208495723814 5.705330954890697 -1 3 1
342 1 2.7098631447432275 10.357581375019597 7.529619309638754 4 2 1
965 1 1.662867906124995 13.349299915645268 5.582214923608197 -1 -4 0
812 1 1.2510072661134988 11.109227354174713 5.1277163281291696 2 0 -1
1845 1 4.099587194486205 10.18781318726664 9.453015119507478 4 0 -2
2013 1 1.8948969680127306 11.322214136126933 9.457895121784235 -1 2 -1
1988 1 0.8721442235834402 11.584514338252001 7.46783084462366 1 2 -1
325 1 7.702799690263499 9.654014822505552 6.09457899883033 1 -1 -1
1874 1 4.636977817808908 11.647094473613622 7.3630474967157555 0 0 3
2034 1 5.605160586987112 10.796960115324628 5.697232487582537 1 1 -1
1642 1 6.738006691094847 10.431064214540475 7.8838320057878555 -2 5 2
755 1 5.614080430866073 13.247433188134316 6.0376709638756685 -2 3 3
1270 1 6.86261411689051 12.878910719822048 8.069704762532028 2 -2 2
1829 1 7.92642281754817 11.87027011488976 6.272349314685691 3 2 -2
584 1 11.221642235303241 14.090152803986177 0.7285325375134535 -4 1 -1
927 1 8.98009024643576 11.134805954967433 8.00826347938311 4 -3 -1
144 1 10.19860484277398 12.55606021607206 6.43142323911648 2 2 -1
506 1 11.56373936634331 9.892497443920709 7.8995544753516596 3 2 2
8 1 10.121854024589423 10.279110146083863 5.917832844811509 -1 -1 1
1109 1 11.130589837656544 12.357916900693308 8.443401445979509 -1 2 -1
769 1 12.544082827046855 11.735226918532252 6.596012809687098 0 1 0
18 1 12.18314633783249 13.90400599951177 6.581416318962236 2 0 1
1059 1 15.824765870676536 9.913284029737653 8.578177464600786 -1 2 0
354 1 13.263696549307593 13.41451804827949 8.565343292092287 -2 -2 3
220 1 14.161221583308192 10.365683011001463 6.411334461181693 -1 -3 -4
1062 1 13.599789214748366 11.181334517395326 8.464879956971089 -2 1 1
2027 1 14.46310795467806 12.748722842685252 6.709668606645075 1 5 0
1417 1 15.520120938816385 12.296150264667304 8.73278003315731 -2 -1 -4
1619 1 16.068835162975148 11.236458477628599 6.745495059074529 -4 1 1
1673 1 16.6379453807668 13.783262221594667 6.663158142555809 -1 -2 1
51 1 17.569816733499668 11.303738967016146 8.43548428370125 -2 1 -1
1240 1 18.2799593996873 12.505834881926296 6.65738018066226 0 0 -4
1665 1 17.73897201077488 13.507351259479915 8.933323414478727 -3 -1 0
652 1 19.542368824094567 12.262251455127306 8.7482793599248 1 -3 -1
629 1 19.455188548936867 10.585186060318202 6.6674004477225095 -1 -3 1
1625 1 22.02671697536074 10.374171361105892 4.977354224514813 -1 0 0
998 1 20.0781516628537 11.660387091997723 4.7355998594470625 0 2 -3
1506 1 22.008399302774 12.871588974896461 5.152442127799136 -1 -2 0
302 1 20.571555074162756 10.101049670511 8.938268646701545 -1 -4 2
616 1 21.430504663715382 11.623888746857185 6.856279047554819 -2 0 0
274 1 21.83233317767025 13.051434597505061 9.020354434286654 1 -1 1
1575 1 22.89815427621695 11.120400499207518 8.993063205543905 -1 0 2
1378 1 20.367751382942185 13.417223644280982 6.831765951528429 1 -1 -2
1836 1 23.735517273279253 12.476454843631755 7.254024793110426 -2 -2 3
1554 1 23.361264216621432 10.099242010069181 6.991783006865648 0 1 1
827 1 24.127831443370557 11.461939212929764 5.217972311043155 -2 3 2
1489 1 24.644163275010996 9.620344583032239 8.891072851122962 1 2 -1
1050 1 26.98828804425504 12.640472354540437 9.781918273350575 -2 3 0
395 1 26.174570416397405 9.975828274009325 5.099660353094188 0 0 1
608 1 25.95938444160566 13.20308253172553 7.604031295747234 -2 -2 -1
722 1 26.39387127576163 12.318513976428923 5.547766810971378 1 1 0
1540 1 25.662888289790036 11.056236014765283 7.300331047397739 -2 -1 4
1018 1 24.309640848712725 14.003135357488327 5.554245236439883 0 0 -4
436 1 26.897900530649924 10.21468293612301 9.035632904348022 -2 -1 0
1195 1 24.961259635863964 11.990539976395075 9.16362082367098 0 -1 1
245 1 13.320825385701337 13.689665229675095 12.502103522262713 1 3 0
1999 1 14.724702388210652 1.0610468159286341 1.9222816765288422 1 1 3
401 1 2.098501468359122 2.41279495610267 12.38869289149578 0 -2 0
1446 1 3.1317847502746194 3.9841590709855623 10.887792016165351 -1 3 2
790 1 2.8673501424071697 1.3518404241742341 10.648834408046723 -3 -1 -1
477 1 4.193740485067802 3.744084923780065 12.966443790507332 1 -2 1
200 1 4.057178133345165 1.47825853027308 12.61206969138232 1 0 -1
950 1 0.9967464183028031 2.8030224886850883 10.691513984811701 2 1 1
1412 1 2.0965387036893772 5.035202303160353 13.020021017117429 3 0 -2
1231 1 8.175656454760611 0.9347676744662201 13.094261818852674 -1 0 0
1905 1 5.333038075354074 2.784684859143449 11.01538492704455 0 0 -1
672 1 6.195551572794723 2.223142738650771 13.145680363052172 0 -1 -1
1359 1 7.4768250569950885 1.4811962043798363 11.127453584692548 -2 -1 1
1318 1 7.631705143114229 3.6146931999232867 11.19986266236058 2 1 1
1126 1 6.348446838342261 4.532095172825804 13.30773353162445 -1 -2 -2
688 1 5.250135938983036 5.332769210890941 11.31042881780762 -3 1 2
901 1 8.49629663953402 3.3344024983246348 13.332204498889686 2 -2 -1
1120 1 26.05273471710574 11.322576247859944 11.288198297537898 0 3 -2
1431 1 11.358491300223374 0.7678947734352433 11.411251461081791 1 0 1
1064 1 10.68458816392408 2.231020285026462 13.196945132924968 0 2 2
1977 1 9.45329813100196 2.365458149923584 11.159719536850998 6 2 6
619 1 11.493215197115312 3.406059469337069 11.506692301250974 1 0 1
1285 1 10.637309222520265 4.500296573896005 13.234723878398595 0 2 0
109 1 24.373101794072888 9.834938996918375 12.698156442960627 -2 0 1
1687 1 21.109035999605954 11.580006811095862 10.720249409323793 2 0 2
1065 1 14.183676886532687 1.0674614564869094 9.414114748714562 -1 2 1
909 1 14.476994492344527 4.281236048994535 13.789641312864234 -3 -1 3
1327 1 12.894061479222989 2.8425463172093464 13.461521970202336 -1 -3 2
1443 1 14.149176101207397 3.3537450952640175 9.727548026015478 -1 1 -3
802 1 14.810367138717453 1.7108643568638788 13.37578053299047 -3 2 -3
1086 1 13.383277608509651 2.0314251453609526 11.390416875136571 1 -1 -2
517 1 13.311953626185074 4.4543977566287705 11.679477470364473 -2 -1 -1
1700 1 15.413204074871713 3.1086990461774664 11.815926489292075 -3 1 0
444 1 20.156590359225426 6.852094868456164 0.6564094652031535 -4 -2 0
1824 1 16.167985426183265 4.221179904962738 10.008789569300962 1 -1 3
116 1 17.418215466079012 1.9177699728061175 11.816857362369241 -4 -1 1
600 1 18.21174505700734 3.3398720473127548 10.106647426071575 4 0 2
967 1 19.540421648920486 1.1963565577974293 10.140022513951557 -2 1 1
27 1 17.867094412133685 4.322049462213796 12.215876975977052 2 0 -1
695 1 19.499933736731755 2.6602504593122775 12.23100505455475 -4 0 2
595 1 16.827585338557217 2.6639387035004063 13.903110907289756 0 0 -1
176 1 7.054970985995216 0.6538804899427942 3.2247007023680734 0 1 0
1167 1 10.656836048102898 0.9371252496407414 1.7991851898088378 1 2 -2
1787 1 4.5944934525750885 14.163874557401028 7.882295818865735 2 1 1
1856 1 20.27486810000916 3.519471044697839 10.297257303751225 -1 -2 0
574 1 21.62452029017085 1.99732523881581 10.514944926119432 -2 -2 1
56 1 21.7815981892786 3.413385937454137 12.375206990137022 1 3 1
844 1 22.621958533396143 1.252013762162103 12.521642715763194 1 -2 3
333 1 23.421179603385397 4.518995813331985 12.454917719763664 -1 0 -2
160 1 22.06469327813872 4.998000540425051 10.568456552144868 -2 0 3
448 1 23.62660303256953 2.899115337974336 10.75209266081502 1 -1 0
925 1 23.680199827778203 0.6509484798736693 10.264276874683079 -1 0 -1
1036 1 3.6548449527256883 14.128307318788668 1.9913129477891014 5 -1 -2
1377 1 27.15873823110958 3.844437261654665 12.712688903477448 1 -1 -1
186 1 25.80620159639948 1.708987376389872 10.62376781290142 -2 -1 -1
855 1 26.78791317060794 1.5175926659270997 12.478722768699098 0 2 1
1821 1 24.729957196234523 2.737486312311988 13.043150234590659 0 2 -3
1503 1 25.56780685000357 3.9502140655416835 10.958645309249166 -1 -1 -4
1791 1 22.378712218050836 13.383208647513333 13.181039838024143 -1 2 -1
1958 1 0.8127109565482019 5.079745396223901 10.797034099804101 -2 -2 1
1210 1 2.327939190531697 7.717860237165749 12.856191785754932 1 0 -3
1213 1 2.7739175643748855 6.12359247106187 11.01821769158039 2 -1 2
1541 1 4.085947702889112 6.029457670474326 13.059717561583856 -1 -2 0
1867 1 3.2057842163694845 8.67936600301199 11.072993441704705 0 4 -2
1499 1 1.1920472268756552 7.482007129222933 10.827071612608865 -2 3 -2
942 1 4.070653018432007 8.580421270923326 13.48081298964044 2 3 -1
1512 1 1.8002590596932335 10.020545787189922 13.374509798323958 1 -3 0
1416 1 5.852548402743118 8.812884277052731 9.56486462191348 -1 0 0
146 1 8.097363448376422 7.573833593300958 9.65568405311152 1 -3 1
1560 1 6.12653098060847 9.382027058999899 13.469185291852542 0 -1 3
1534 1 5.1323952613824035 7.680709448239203 11.546260922849209 4 -1 -1
1662 1 6.085025006652784 7.136887345420602 13.374586679777824 3 0 2
113 1 7.102421829074011 8.565461580429718 11.484970134950926 -1 -1 -1
1347 1 7.304063395499486 6.331377401819881 11.436641469502886 0 0 -1
2048 1 8.191009005256848 8.091812135748903 13.492341682278864 -2 1 3
1998 1 8.360574065671008 5.794068515542974 13.236640067156486 1 2 0
13 1 9.555535948224701 4.751402559863085 11.315214652805288 -1 1 -2
1569 1 10.246027476816472 8.62687012656524 9.782241526250415 0 0 1
1820 1 9.361146297733624 7.2029069502707905 11.541640380509957 -2 4 2
714 1 11.52679187396973 8.233428396344888 11.883067424747862 -1 -1 3
296 1 11.367645420738771 6.013775451414442 11.412335648173018 -1 0 -2
1879 1 10.352695787995694 6.831437975542923 13.376473644185987 0 2 2
414 1 10.289273405268757 9.00693934439258 13.784865907945985 1 -1 -3
1610 1 12.47146486122898 5.628267268666789 13.456119751505245 0 3 1
437 1 12.450904680887882 4.990710325700117 9.565311147222797 0 0 3
1872 1 12.592121487428143 7.465074439301059 9.717490612599905 3 -1 2
945 1 14.425623223168904 5.649859643833681 10.371096258117477 2 1 -2
340 1 14.828344752936227 8.481164566262649 10.313618365842984 -2 0 -2
1132 1 13.623859835579763 6.9314673403863605 11.955636923654374 0 0 1