LAMMPS data file via write_data, version 29 Oct 2020, timestep = 300000

2048 atoms
1 atom types

0.5108363153315558 27.841163684666313 xlo xhi
0.5108363153315558 27.841163684666313 ylo yhi
0.5108363153315558 27.841163684666313 zlo zhi

Masses

1 58.933

Atoms # atomic

1309 1 3.560301545924266 2.98205028015107 2.0155735089331426 0 1 2
1043 1 2.6585896982914594 4.385392098952076 3.938408947946493 -1 1 1
1920 1 1.0293487144363185 1.2175971134665984 2.2437055602093663 -1 1 -3
24 1 1.4567988946938066 3.6115183227208956 2.3318908720057836 2 2 -2
871 1 2.8636543594496953 2.0441654277271244 3.9503101898438215 0 1 3
1324 1 13.712371940006896 16.082692575286334 11.909223115970152 2 3 0
803 1 4.344899634876437 27.8062052726661 1.7599546009927056 0 3 -2
746 1 4.710358907168732 3.4466725125686013 4.078123656144501 -1 2 0
570 1 14.050111345778458 16.004449975832333 5.641872515639052 -1 0 3
1938 1 5.445600754485139 1.7071489250565848 2.8542844380843815 -2 2 2
1154 1 7.761228855165752 1.147937070374355 2.818510556687063 3 2 1
260 1 8.81723517802098 0.7474328599139942 4.940934177421587 -1 -2 -2
527 1 9.257896408115062 2.841609838811215 3.070438630879194 0 2 -1
1477 1 6.715290131082474 1.5743657648815834 4.679973756861387 0 3 0
802 1 7.028472529892515 3.6251658436449605 3.487979441211005 -3 2 -2
1586 1 7.942495711806394 15.223125682735702 0.8919378897878585 4 -2 2
851 1 12.074985980268577 19.812868977963014 0.5138049813703561 2 -1 1
1013 1 9.954603774982967 3.3953552521273007 5.039016154788478 2 4 0
209 1 11.001696720444702 1.3646067676038944 2.291535020941468 1 -3 -1
1935 1 12.46481366071485 2.9690136270661323 1.1725739430980002 -1 -2 0
128 1 11.873874567522929 2.711561319387084 3.5880764379019787 2 0 -2
1971 1 13.364555901910464 1.1155997214391709 2.384570606902562 0 2 1
1664 1 13.14384681433476 0.5986756510002493 4.6702470047872495 1 0 2
738 1 9.541450385226026 3.259807749220636 1.0419781056921509 0 2 -2
1310 1 4.831772609395428 5.1931792609206 3.120740432507153 -2 1 -2
1668 1 3.208483457352524 5.065450602656415 1.5330492199239387 3 0 2
665 1 0.6966291834718239 3.181946619853504 12.64760858887606 0 -1 3
892 1 3.1745615713896695 6.3368538942777635 4.986152972186972 4 2 -1
476 1 4.130124839598407 7.278949224120184 2.2507825474550653 1 1 -1
677 1 5.129430704855532 7.184317613901642 4.437563676081977 -4 3 -2
1703 1 2.4908848598620286 26.430239782094603 1.3325733816784084 0 -6 -3
1339 1 8.593640237819388 13.047254904449446 14.125763266631107 -2 -1 -6
1624 1 0.6828563032934973 5.570418068630307 0.9868401974045811 -1 3 0
1012 1 5.826979227059441 3.98901262651967 1.6061528424081875 2 0 4
1896 1 6.934738791280277 5.876213292873539 2.9895444972771266 4 6 1
1435 1 8.95008227083258 7.384620990643003 3.52265315213609 2 -2 0
1533 1 8.135113466076138 4.939422490955823 1.2524694824392917 2 2 2
830 1 9.08969924462398 5.05018441612886 3.2827325778836483 -4 1 0
1323 1 7.741784705699532 7.332823304651601 1.5762501296738174 -2 1 0
1827 1 13.912954968227165 10.568813980811433 6.339832169697788 -2 0 0
1799 1 10.932339913750154 4.54040620211312 2.7283064837750355 1 2 -1
1540 1 13.203429006653952 5.4365845270768105 1.5720985198669972 -1 -1 3
1960 1 11.102676045070472 6.906818514036845 2.775030917355686 -3 1 1
400 1 13.266536252705947 7.614066948126618 2.6713982385536563 1 -3 1
18 1 12.71219279388587 5.514830635581784 3.992253598222106 2 0 1
1845 1 12.29538745382376 7.323119871757514 0.6372110868410003 3 0 -2
633 1 10.029551999190376 6.363878013879795 1.0297104504219685 2 2 -1
1872 1 4.832089289693499 9.399730352807229 3.275956516926857 3 -1 2
1526 1 3.7032457862494996 11.216679784014024 3.6817362550078276 -2 3 1
1453 1 2.811460288405312 9.373288852798135 2.262233844811516 1 2 5
452 1 1.6578382861740497 10.211394516657485 3.9954191207961904 -1 1 -2
1770 1 2.890257044306243 11.397387705639593 1.1745108630571837 -2 1 -1
1585 1 4.7300886588326625 9.986796685168578 1.1825096976416911 5 4 1
63 1 3.182338740025169 8.314319655765312 4.257863726698675 0 -1 2
834 1 3.300263032603002 20.00684837621269 13.852934331385175 1 -1 0
1038 1 12.174225794414001 15.433869846123592 1.8053685478778245 1 3 1
1636 1 7.101756210704544 7.945584117342502 3.862758784911838 -1 1 1
796 1 6.783694976550597 10.183901016273166 3.4860772965450106 -1 1 0
1837 1 8.418923196009073 9.212603335664951 2.1532842599095936 3 2 1
222 1 6.608999351746187 11.156863261536222 1.6105988608377895 -1 1 2
51 1 6.033885965178074 8.513944118132335 1.6122395759388175 -1 1 0
567 1 9.829661358989306 11.221328115603374 5.386702239820343 2 -1 -1
979 1 10.685726983762892 8.983335687557018 3.858354330986685 -1 -1 -1
1611 1 10.118809093987283 10.804229968013882 2.5917092665521193 1 4 3
1748 1 12.239688349587695 9.839875245232733 2.3772773988147256 2 -1 -1
1753 1 12.937104553356676 11.730775535606961 1.7623124539241555 1 -2 0
1485 1 13.138558286269905 9.836709677556751 4.3030541116375005 0 0 -3
462 1 10.55407666730288 8.696026844603496 1.3819977500323104 -1 0 0
790 1 11.640441113753289 11.558997086005776 4.038514923600391 -3 -2 -1
272 1 13.950949606905434 8.081628916641655 10.484415809863071 0 -3 -1
2007 1 4.5793956247784084 12.108890728916789 2.096130250853717 1 0 0
1294 1 2.791063668964447 14.751480356144251 2.90643679340575 3 1 1
1406 1 4.246477213491148 13.60897818869687 4.836444029631028 -1 1 0
970 1 1.8670731412936834 13.341673670204457 1.5176370062621471 -2 -2 1
489 1 5.05141708469092 14.628973651743317 3.0995495368755224 0 -1 5
60 1 4.5013450037716165 15.882976786435975 5.0257927946872005 0 0 1
1582 1 2.2908309846758135 12.571142534907487 4.190119305025993 -2 -1 -3
669 1 6.174960105223623 12.755194922865602 3.3959923124878677 -1 0 3
593 1 8.256474497849224 12.720408207024755 1.9535651579869346 0 -1 3
1271 1 7.9264826088119476 11.814797758667206 4.037452591141223 -3 -1 2
231 1 6.1251873543909685 13.51098221178803 1.2636587116923776 2 1 4
442 1 6.288368965841763 13.973950647456936 5.239675438102111 -4 -3 1
1569 1 7.239387427502078 14.779564495534158 3.0087030259327805 0 0 1
361 1 5.414183970589299 11.288820915219487 5.001411929727434 1 0 2
792 1 8.406554085459334 12.793821852242546 6.170112486317123 -2 -1 2
1358 1 9.714068509223564 12.81141171935231 3.587662817286223 -1 -2 2
1482 1 14.11326031857541 8.92149882511683 8.456053098301204 -2 2 -1
195 1 9.52229438705646 14.676718291078105 2.146417882112879 -2 -4 -2
135 1 11.74663186469267 13.679373210528349 3.1244822189733004 2 -5 1
1016 1 10.668799273637449 15.554066798988268 4.063018674633961 0 -1 1
175 1 13.152154759993248 13.838872631160886 5.314048209121417 -2 0 4
78 1 10.737025749857082 12.358674377479854 1.2119239965030602 -1 0 2
1778 1 13.200632732240003 16.02505507421369 3.4608718431367347 -1 0 -3
492 1 5.537534227842846 15.923968362094763 1.4500590850551691 -2 0 -4
753 1 1.1171926307879851 16.38277035548459 0.866020748772935 0 0 0
1700 1 7.397941443313959 2.5819068460833097 1.145721428233775 -2 1 0
174 1 4.114224776650593 16.994143802720565 2.9204500119767958 0 -1 0
563 1 1.9522078218240801 16.92362645595226 2.7367605733666323 -1 1 1
194 1 2.9998592433024367 18.92598410681866 3.166474227623871 -5 0 -2
2009 1 4.8544925084420925 18.30814526299086 1.4557602607951554 2 2 2
1005 1 2.394010445123213 15.488446648287532 4.652457733724116 -1 -1 1
271 1 2.969011877239173 17.61182682506079 5.157966519912099 0 3 0
181 1 0.840916020135233 19.431377443048518 3.9384599163335223 -1 1 0
1568 1 3.1357331658977987 15.841720332169702 0.7198100224488093 4 1 3
813 1 9.03826066631628 14.538341896510884 4.742113516373183 -3 0 0
468 1 5.99719089800715 17.123891551359375 3.465204350070232 1 0 0
166 1 5.64319926626566 19.358165413385642 3.6715769677379684 -3 -3 -3
443 1 7.001057365754057 17.36221056846484 1.2734844836621395 -1 -2 -1
1465 1 8.771434388630702 16.76850325049431 2.8632540967653584 1 1 1
787 1 9.79183718641263 19.039057374964344 1.35611728436787 -2 -2 3
958 1 9.994560795104263 18.50578469162376 3.449790613188536 4 1 1
353 1 3.8596220347422205 13.883889368082254 1.0079562704826397 1 0 -1
1736 1 6.8439266635571325 15.83613022053528 5.314247838474744 0 0 2
216 1 10.458108721328436 16.81391773386726 1.909405490145242 2 3 3
367 1 12.795319452429958 17.9292821376546 1.8189817564964244 -2 -1 0
1389 1 11.821413904599364 20.024295038600457 3.0074677158510013 -2 -1 0
1383 1 11.955627560454564 17.670426483163432 4.270137876547233 3 0 1
176 1 13.836532553615525 19.168063781934364 3.222877459688135 -1 0 0
1634 1 1.714570861980065 4.384498247616882 8.853124145824943 -1 3 2
26 1 2.133548297644927 20.566641409111323 1.868319054196304 2 -1 0
1502 1 4.158838418671373 20.199221562966486 5.432581830492121 2 -5 1
1937 1 13.896660518277008 12.321302740817469 4.313932702038332 -3 0 0
1817 1 2.415559327751801 21.163421101629428 4.171019866621927 2 -1 1
126 1 4.410498884215173 21.106363587968968 2.987542864285293 1 -1 -2
1600 1 1.535399125456922 24.744890229730814 0.5498506882397879 -1 -2 3
1856 1 7.972511236665122 19.157385053210174 2.8014548452761243 0 -2 0
470 1 5.853456319219085 21.525495512749668 4.946727377667549 4 0 -1
1071 1 4.358035015879774 23.368284461932117 3.8748674430944776 3 -1 -1
524 1 6.431681948587998 19.95574230536695 1.5855233187271078 1 0 4
242 1 5.400933768911623 22.46726894739881 1.8293023615902697 0 5 3
2030 1 6.639301443499499 23.35065678875646 4.8969119382309465 4 0 -1
1504 1 6.935033151928358 21.55556578842198 3.125632106690587 2 2 1
277 1 7.683743007231782 21.567546079099454 0.8729596235108592 2 0 1
474 1 3.759714520534319 24.38862164970944 1.1792439009860032 0 -2 1
1651 1 10.711140481752858 21.71885898646855 4.104151925028429 0 1 1
2043 1 11.840817936839686 22.019394890804097 2.093510537266135 0 1 -1
1531 1 9.8254688585316 23.008768646524647 1.916394728778162 -3 -1 -5
925 1 9.318927937605087 20.953234165570457 2.2462762921438406 -1 0 -1
999 1 12.066433232815559 23.627000131717008 3.8178959844198976 -2 0 3
1365 1 8.622642947411483 22.557438738548623 4.194454805009389 0 0 -3
713 1 3.0701185363102965 24.30887467008516 5.948563125463231 1 -2 -1
1988 1 2.609353345343609 22.607525513609023 2.2168142426276587 0 1 -1
1936 1 2.129423617697561 24.687429923068393 2.867085481381874 1 2 0
384 1 4.106161697658658 25.823693319022063 2.874991811616215 1 -1 4
134 1 2.4448786981963386 27.2636247616675 3.538785681490583 1 -4 -1
1678 1 1.4633781562733303 25.543781383195217 4.709531030559695 -2 -2 -3
1377 1 4.136490498075271 20.188531519351137 0.6845185787491592 2 -2 0
138 1 3.156500406256649 12.004926465371993 13.599197992841301 1 1 2
1046 1 7.758178403607072 23.381751385072572 2.1793358746342664 2 -1 1
538 1 5.758604075556613 24.599326904251196 2.501362308780763 -3 1 0
661 1 6.212174439510291 26.891910342650142 2.469164957424926 -2 -2 -2
763 1 7.217245443605157 25.655669611609895 1.0212055989968931 2 1 0
900 1 9.081782552396895 26.8800472568066 3.1309872006042405 -1 -6 0
963 1 5.2659652139357584 25.362753640519806 4.814437599220019 0 -3 2
600 1 7.651207715164871 25.425143775630936 3.619970335716836 4 -1 2
710 1 14.142347261707013 17.366989507322916 7.3398982572477 2 4 -2
625 1 6.992884712845962 26.967721942357795 4.967197466227133 -1 -1 1
1321 1 4.789486129456971 27.643126904756482 4.225328838832231 -4 -1 1
1132 1 0.6888708002818162 8.616723389521669 8.610565003152708 1 0 1
1421 1 11.609167349621451 24.628437899930297 1.296259241910969 -3 -1 6
916 1 10.04962233475462 24.453706554977167 3.766278125535361 -2 -1 2
1680 1 11.396365242893308 26.44038128896134 3.6089891442355255 0 -1 1
991 1 13.22567369327907 26.37375690660393 1.605489590871314 1 -1 1
1355 1 10.616671952661786 27.06347291007217 0.8171508143953239 3 2 3
356 1 9.23463330834694 25.384448224803656 1.7757979010616631 -1 0 -1
1981 1 13.564696971403807 25.303029955782808 3.825346976002239 1 2 0
1160 1 1.1458252651440286 3.217129027240442 5.135379255739453 2 2 1
334 1 1.1817231872671035 26.645469370860063 6.682882738728993 0 0 1
1299 1 4.2823926373404 1.762718421597943 5.555543336745804 -1 0 -1
1529 1 1.3232796298443463 1.8834216351062059 8.434122857099545 0 4 -1
582 1 2.8525189133819757 27.57966096083757 7.609277708032375 -1 2 -2
1669 1 3.129889102104689 3.1498253968663295 7.121258495790451 -1 -1 -1
800 1 3.3872302763857975 2.609292698959465 9.289242026642796 3 -1 1
1076 1 7.891208326194458 3.3056458030516427 5.341808073887155 -1 -1 -2
1460 1 1.8459716986172219 1.395000279289826 6.194032307744198 3 2 -2
962 1 7.073477164664273 1.5755883264085475 7.120054876639386 -2 0 2
1831 1 5.904941077754462 3.2131944232743144 6.116896636104654 -3 0 -2
860 1 7.478813395663912 3.421725141784074 8.559345241519217 4 -1 3
742 1 9.51879060335359 1.976463502770961 6.817561210728389 3 4 -1
425 1 4.625012612855294 1.6015376861930843 7.774210020134534 -1 -2 0
1052 1 6.304090109748004 1.7749135320589335 9.57842702948688 -1 0 -1
1014 1 8.470727417417521 1.4473487563665657 9.077596351420983 3 3 -3
1148 1 10.898722922099857 0.8537224009786054 4.7914563832646815 -1 1 -2
114 1 9.0038659371583 0.9296382241520948 0.7519561246116292 6 2 0
32 1 11.976873952553136 2.341704829376072 6.541540654941934 -1 5 -1
886 1 11.54394431226535 4.0716569681476615 7.456203478150596 0 0 3
1519 1 11.172885912140067 1.2294044566054816 8.55770173031367 -3 -3 -1
1983 1 1.111500130699345 7.370264051487564 5.0884410485625775 2 3 0
132 1 12.335446636266179 4.692427956676629 9.615733258138738 0 1 -1
1074 1 12.910708582531687 2.6239230944519596 8.80908425723227 4 -1 0
1507 1 10.137774580145626 3.247625471597508 8.72002211178174 2 2 3
948 1 4.265473225391709 4.9076564666999865 6.324018777538773 -2 -1 1
479 1 4.074743098755462 6.246355118014333 8.058337374342607 -2 -1 0
307 1 5.073132819576443 4.013016314253921 8.137473127323641 0 -1 -1
749 1 3.829476495524502 7.93486966147283 6.334847564715223 2 -4 -2
1691 1 14.026846387721857 6.699420649210048 5.693151340207317 0 -1 -3
1327 1 5.814390035506898 6.876650122866387 6.597100949104178 0 -3 2
1535 1 2.2016402696846535 5.057279238937535 6.407289174288072 1 -2 -1
1426 1 1.9474546604302805 6.933220606654488 7.321554647371991 1 -1 -1
1810 1 5.9884092507047715 5.119208400489987 5.1354250774811 2 -2 2
1055 1 8.07458090611426 5.746201894964795 5.072588553902585 -2 -1 -2
1684 1 6.9309227910055995 5.079365690843133 7.12627702600087 -4 -3 1
501 1 9.41056050542734 4.232377087581273 6.807834389035903 -2 2 -4
2013 1 7.484666045868126 7.945122179845216 6.119262952714895 -2 2 -1
1476 1 8.563893168092788 5.370656899538977 9.033013657604748 1 -1 -2
1499 1 5.840980668179102 5.316285414901029 9.352672674387955 -2 3 -2
646 1 7.136557598265923 7.160623965543333 8.50227006160323 2 -2 0
308 1 9.566811426183543 7.763281600827587 9.419195694868893 1 3 -1
1654 1 5.90728215589426 8.21845266575292 10.194607211600712 4 0 -2
249 1 10.35197710032374 5.868723894022159 4.767755788758497 2 2 -4
270 1 12.151824396357501 7.572288924084601 4.808042479071268 2 -2 -4
1352 1 12.18606922678143 4.355609927033507 5.543733530486217 -3 -2 1
1693 1 9.099064553859433 6.744292844849055 7.269656513744301 4 2 2
821 1 13.320663745922232 5.221984672737618 7.4487073364404965 -1 0 -2
1972 1 10.624782728004822 6.0040938998689795 8.926500829932143 -1 -1 0
1464 1 10.010293028109574 7.91666442533358 5.698333389056356 -2 1 0
1221 1 11.56197635083288 6.526389176192249 6.827324799998087 1 1 1
1749 1 12.460507750197076 7.147066892294711 8.78301379397117 -3 -2 0
1602 1 2.770222288643855 8.608763650642365 8.387260321407258 -3 0 2
1725 1 1.335817947343569 9.217488273216356 6.201151576728002 2 -2 0
1068 1 1.1905067785003103 11.736228082315934 6.1276185121713596 2 -3 2
1701 1 1.128826302669518 10.33403890574404 9.822313903680724 -1 -1 0
1688 1 2.3243403532067557 10.637418147305537 7.906536395968114 2 -3 2
1444 1 3.324173681217477 9.974846668839707 5.839548922841221 -3 0 0
1887 1 4.1890723719715615 9.82353205144854 9.477110972104132 3 2 0
728 1 5.089124585518152 8.298596822520398 7.990342676640921 1 -2 4
1572 1 5.7386111293582855 9.036768056340753 5.278800578897361 1 -2 2
518 1 8.64572706629025 9.408467136837034 4.787037750284128 0 -1 -2
869 1 7.431032136180872 10.719730365713211 6.436527507331008 -2 -2 2
1325 1 6.78528363019126 9.172876912333324 7.675837265501973 2 -4 0
619 1 8.406239379916958 11.285967408327561 8.443510289334126 1 0 1
1096 1 4.861573750196194 10.494479039781261 7.018222839347323 -3 0 -1
1617 1 7.836720370995056 9.173366524354376 9.83877349711358 1 3 -3
389 1 9.054219590767214 9.251797520509138 7.132581963145547 0 2 -2
1044 1 6.2330134360671945 10.68106808978396 9.71088534381647 0 -3 -1
1087 1 10.562244753084505 24.97654392632981 13.388680069392525 -1 2 2
1191 1 11.396466491495643 10.011091609306014 6.017084724767817 0 2 0
1255 1 10.92041555545748 8.53870559585816 7.757759031487021 2 1 0
1301 1 12.415764278689304 10.271594566516262 8.01887691163364 1 -3 0
1760 1 12.93138911082079 8.500199819133186 6.597755096901864 1 -1 0
1712 1 10.140021429847808 9.920670566673946 9.295240816024283 -1 2 2
85 1 10.366552062786687 11.37091238220571 7.397733042680788 0 -5 1
650 1 11.173863226128917 11.88109980791565 9.592496924063227 -1 4 1
553 1 12.265508576131666 12.029530613074577 6.382852413116297 -1 0 1
2000 1 13.0748927491735 10.599382301403223 9.953975494534403 -1 2 3
396 1 3.639796410984322 12.258074662593955 6.3422870439461745 2 0 -1
1066 1 2.442911969385982 13.532519265735024 8.013331769911852 -2 -2 -2
882 1 1.5407744846127105 13.82975680209983 6.003292551560286 1 0 2
1537 1 1.0021502552921393 13.719125250153448 9.915979287897652 -3 0 -3
1103 1 4.448229196108397 12.27162362623662 8.630792545050113 0 2 5
561 1 3.5449424743667715 15.663496764530631 8.568040985780689 2 1 1
1370 1 5.473640586637823 16.0937895726647 7.062499306365376 -1 -1 1
1006 1 12.681017565185012 25.046740236890564 11.877769820263753 1 0 3
1923 1 0.6019525856951518 25.449980385145007 10.408044209081067 2 -1 -1
1702 1 6.928275754055273 12.85756406604044 9.474569987243074 0 2 -1
664 1 9.042535423018647 13.564120146265225 8.34372442576202 -2 2 -4
1189 1 4.647944798982462 14.256581118729484 6.958414577070379 0 2 0
2031 1 9.166598831020233 13.065326067843824 10.463102598945627 -2 -3 -3
982 1 8.132207524174301 14.941634946333963 9.930726444586563 -1 2 1
1862 1 7.140092312352494 14.327876675455252 7.4676937797324525 1 1 1
1741 1 6.054285982865327 12.353853111889878 7.209480972223437 1 2 0
236 1 5.34565046589725 14.369908450754787 8.89308622732295 -1 -2 0
1604 1 0.6057055279557808 17.469722267155824 5.028166990794505 0 2 -3
938 1 10.98408034807726 13.406192615054193 5.315320632757912 -3 1 0
385 1 13.483357484715949 12.555828761540079 8.638934366171041 -2 1 -2
1766 1 11.495331428960306 13.689394923190406 7.883823093207058 0 -3 2
1123 1 13.491204496999003 14.479393078842985 9.72498752773537 1 -2 0
1135 1 10.074162129219475 15.48608834430817 8.85680556266954 -2 -1 0
1694 1 9.726574694462066 15.156335596434213 6.796002886692194 -2 -2 1
1048 1 11.865514337299793 15.46341196304685 6.287914261157797 2 -1 -1
1157 1 12.184752465031112 15.993219999552192 8.327983501885736 0 1 0
1247 1 11.236411245122682 14.028335102260145 10.325354178804016 0 1 2
1023 1 2.682463237760496 15.613378275630865 6.668388475072715 0 2 -1
61 1 1.1846432948434904 17.55896199164236 7.2146261247960695 3 1 2
1881 1 0.8394866469720409 16.006349707883672 8.94955844158423 -2 -4 -2
1059 1 3.307272313285609 18.560665184243415 7.204231780929772 -1 1 1
375 1 4.794948128865598 17.31811770489526 8.59644987338872 0 -2 -6
1945 1 5.159368149495256 17.862515774581755 5.539682729416251 -2 2 1
262 1 3.790864887545406 19.22954132107424 9.48095023119372 0 -1 -1
1580 1 8.154533601336912 17.8596637149935 4.871728081867125 -1 2 -4
1114 1 6.928909103437858 17.793202139914648 7.331274493861597 -2 -4 -1
611 1 6.089902176439773 19.129558628578227 9.254800091871445 -1 4 2
44 1 6.763729496405394 16.223999111403366 9.303601399199493 1 2 -4
808 1 8.228009683930441 16.27830672243887 7.698481134869899 6 -1 3
1089 1 9.100316018126298 19.41277829299758 6.916140367546098 1 -2 -1
760 1 13.585560854378087 7.216470804259073 12.525150435698206 3 -1 0
1550 1 10.264458262620654 17.157213181935717 5.764459814951959 3 0 -3
1601 1 10.467816101637466 17.71193603760786 8.080282219673741 3 -2 0
1359 1 12.491437999460441 18.321326810965978 9.008491142878748 -2 -1 1
1933 1 13.312446116804544 19.539704625034474 5.241565199132291 -1 -1 0
1867 1 10.299346174062213 18.594282803322933 10.151376889067524 0 3 -2
229 1 12.224481214471636 17.836596913946757 6.440647045588804 0 0 2
981 1 11.035234953298046 19.478472269233304 5.555875278617346 1 1 3
284 1 10.313923361236286 24.404788211667377 9.241026345266384 -1 0 1
1413 1 2.069120749958038 5.550332997372464 11.534123023008311 2 1 0
113 1 1.6741255782776594 23.12098209507085 4.551152731419207 -1 -1 -1
1250 1 1.7189700685311924 19.662815832741632 6.060270259091721 -1 4 2
267 1 5.5079311948351855 21.732249398661263 6.89673770626575 2 -3 1
681 1 3.463415387821927 21.2861179995681 7.637344369308824 2 -2 3
1489 1 1.6958260970498988 20.207025099027327 8.111867837737694 2 2 -2
444 1 5.219501939866737 21.035638415932876 9.221906470018205 -3 -3 0
335 1 3.7146952400772593 22.209802551067984 5.562263955872069 3 -1 1
965 1 2.250531531378159 23.020544053068942 7.439806668182914 -1 -4 0
1992 1 6.946737947340184 19.812709940777 5.66828286046394 1 4 1
115 1 8.826209315066736 20.30654171890778 4.448855289622262 -1 1 0
1584 1 5.2964678463716535 19.57896471944799 7.265967306423133 -1 0 1
246 1 7.915138444148457 21.7395332863249 6.183709519034256 3 -1 -2
1623 1 7.108495905220152 23.399812151555977 7.412664180905941 1 -2 -1
1598 1 7.270398091716127 20.323142481874797 7.8621220698816865 -1 0 0
1990 1 9.082355827051776 22.53288862519423 8.157553377210057 2 -3 -3
809 1 9.710810130372456 20.205566436723448 9.185041038878772 2 -3 0
1302 1 6.649883115847444 22.694845412002504 9.402642696950396 2 -1 4
417 1 14.122775979736861 23.609697041572954 7.280105498645564 2 0 0
789 1 11.537745788348227 19.674037331730418 7.659669023358708 -6 -1 -3
511 1 8.315465286296847 24.375136458283077 5.800443444818803 -1 3 1
1541 1 11.47770327072138 23.134260543218303 7.589732917363873 -1 -2 0
1915 1 12.918823337354087 22.012673061291974 8.595010173172364 -1 -1 0
1861 1 10.231133247747984 21.301905053703518 6.900108083879766 2 2 0
170 1 12.3767331936155 21.692895900261732 6.095059907057903 3 -2 0
1775 1 13.356325776977895 1.0854907185239235 10.187812150162317 -1 2 3
848 1 14.002972410522935 11.807006210711963 12.518715617465672 1 1 2
331 1 3.160023263595107 26.64965328050112 5.641940772823398 -3 0 1
1652 1 4.288133370346858 25.525737715663492 7.728208918587743 -2 0 2
1689 1 2.113993966925059 25.223576301078698 7.868259639069828 -2 0 2
1493 1 4.570235247398185 23.19237464327784 8.548526271582007 3 -2 -1
1245 1 2.6012442460004914 26.323184691048052 9.73957291960567 1 -2 4
1147 1 5.195628224295415 23.915532390792126 6.5704501008832645 -2 0 0
1214 1 2.0843303452403275 1.4867254791013833 10.508613708615643 -1 2 -1
1202 1 8.400407615390092 27.22634113825434 7.168503602980599 -3 -4 -4
1773 1 4.647103788321675 26.98733745917697 9.546616419866274 0 0 -3
1206 1 5.244431545020048 27.244946893084922 6.602152300384519 1 -1 -1
865 1 6.641285968282843 25.670118158448805 6.789486488206353 -2 -1 1
1239 1 8.493746114015632 24.86396278241154 8.527188338654494 2 0 0
1448 1 6.274868433989823 25.096740404701247 9.157415650982307 -1 0 -2
187 1 6.632503093791499 27.273392807080562 8.435604025612111 4 1 0
1019 1 9.932306515222056 26.678854204660816 8.70393596394591 0 0 2
355 1 11.956003585166451 26.31346531521832 9.431262912676154 1 0 2
1479 1 10.068104240907761 24.780350152585417 7.0357461029030475 0 3 3
455 1 9.79301893487553 26.213562161365417 5.358416623190305 0 1 -1
1347 1 11.851408329431816 24.935663121039326 5.520607511555786 -1 -1 0
1942 1 10.236204260268796 22.933340187778413 5.795331836299758 3 0 0
445 1 11.252078251785207 27.07402294807244 6.868679330328763 0 -3 0
832 1 12.46133180728692 25.293091340507754 7.561718394446909 -1 -3 -1
818 1 13.38552901180247 27.57782592548401 8.269898736971431 1 2 1
1545 1 13.173240906151593 21.62447875518633 4.1042858315151385 -2 -3 0
613 1 2.182299008890279 1.3799151161087804 12.806120056573057 -2 1 -1
1058 1 2.6525770236169284 3.284342833394638 11.550151921990537 0 1 -1
1231 1 0.6825957809530229 2.9199003303999196 10.521929997092396 0 0 0
1293 1 14.024094208728346 3.1276173985627094 10.485117717753015 -4 1 1
1411 1 4.391606989271541 1.5736300315786989 11.068112605170855 0 0 -1
340 1 4.2756121752958 2.472291168593469 13.115834852585701 -2 0 -2
493 1 9.994843151573315 0.5291885602444917 10.460857009091702 2 0 2
189 1 6.5150166028876235 2.672744794066583 11.913819152470587 0 1 1
1127 1 8.808394876159461 2.923596945570487 10.602286287740087 3 0 0
268 1 9.172095736070535 1.7742131180621747 12.31435451472839 -4 0 -1
907 1 5.725153784924555 0.6548982708638249 13.087327045621064 0 0 2
171 1 7.520120760384513 0.8553598506644113 11.356118292330153 1 1 -1
1228 1 9.744360323459265 26.97502203749774 12.870952444837586 2 2 -1
1587 1 2.080690466400933 7.976123934306678 0.6852479592752047 0 -1 -2
1900 1 13.260456175276657 1.7523578343536454 12.208933850535733 2 0 0
1986 1 11.29398797371641 2.582786491062901 10.492717584139148 1 2 0
1728 1 10.89689772063318 3.002298414378811 12.530563746175845 1 2 2
679 1 10.34231354579546 4.5904469577510865 10.78219029114529 -5 -1 2
559 1 14.143241800073994 16.64493203880098 9.438475196455403 1 0 2
1673 1 11.733566398568396 0.5300969623221192 11.656545957921825 -1 -1 1
1381 1 1.060270256418547 8.917353431662693 12.940676256092809 -2 0 2
1378 1 1.2099212001338646 5.659490002649376 13.580265099665427 1 -1 -2
1124 1 1.6964103302276734 6.465871178937473 9.59537680437731 2 1 -2
631 1 3.8508065272958305 7.1680349735150255 10.013267952421455 0 1 4
1737 1 3.4800473388009125 4.918226284402383 9.683574465709459 1 1 2
530 1 3.8242735757314894 4.762784593689279 12.614178614565182 0 0 2
675 1 2.913094325981523 7.244547239500059 12.44099310044672 1 0 2
1995 1 5.242465523889082 3.6810308674201755 10.642162081788538 4 1 2
1376 1 6.317663325796651 4.70100941813267 12.966524145274342 -1 0 -1
1735 1 13.488290963884973 23.416862761901584 5.439322115820688 0 2 -1
1362 1 12.628153200148152 26.88175822175429 13.635380368581043 4 0 1
755 1 8.341222144480028 3.855552465817677 12.724940181351274 -2 3 3
1143 1 9.905137457161958 7.508723888430377 14.129355499744628 0 1 3
1909 1 7.327135022929612 4.931300531591444 11.157771727052625 2 2 2
472 1 5.359458590575789 6.208620021286863 11.432932767894206 0 0 1
911 1 8.132893708250084 6.140878349579892 13.368364221718185 2 -3 2
535 1 7.694726960853762 7.016474643644516 10.85069352831067 4 1 0
725 1 2.08247819040779 25.997222507855305 13.934472267154394 0 0 1
1357 1 9.791988346271353 6.468447957834443 11.452095684655802 1 1 -1
150 1 11.887535654332241 6.3462791240642105 11.083172328102025 1 -3 -1
453 1 12.700987351268138 4.45498071516846 11.78376950376466 0 -1 0
1910 1 11.275263762060565 8.121817288664339 12.363455829198086 3 3 1
183 1 13.533501915924187 19.842196524653303 7.43491422150744 -1 0 -1
812 1 10.073149987388602 5.1926873588814235 13.23914765871211 2 0 -1
1968 1 1.9713445562565337 6.7089026088442445 3.0271080398427057 -2 1 1
167 1 2.4079709822727997 11.87561317639161 10.110369633064183 1 -1 2
53 1 2.0676314047530138 8.616310929788945 10.59035404462191 -3 -3 -1
2022 1 1.0901271369400014 10.130634867887991 0.9489042881568815 0 0 0
1380 1 3.389855330393535 9.146884571821266 13.666675792623911 -1 -2 -4
2001 1 5.032138111542305 11.00950052348018 12.826171391945469 2 0 -3
1198 1 3.425451677452174 10.169577443270589 11.398659732603525 -4 -1 -1
1430 1 4.766011892782004 8.65198456884014 11.969375600378395 0 -1 2
757 1 1.6468896270526254 11.179395267817082 12.269434162732802 -2 -1 3
1193 1 8.049589910545592 9.20737948612316 13.978852193109368 2 -1 -2
265 1 6.891877851323971 7.760886956637297 12.672199260549823 3 -1 -2
281 1 5.8818221075651875 9.38671011894497 14.014196944187056 0 1 0
217 1 9.07208786388551 8.740256843610855 11.771409733407 -1 1 1
6 1 6.644733647987693 9.875554890201643 11.918219160606919 -1 -1 0
330 1 8.344728178805227 11.133941754801954 10.55989727907339 0 -1 0
849 1 8.812792457352899 11.027785794066247 13.051555161842263 1 0 1
370 1 6.834534334988529 12.09514194211256 12.03338801950755 -1 -2 0
62 1 10.636301513433244 10.59274051439442 11.432232224826985 0 -2 -3
1375 1 0.9983230812680299 17.133888138400827 11.233811773069485 1 1 -1
1660 1 13.354849900256706 9.512742877675098 12.039652683430079 -1 1 -2
1836 1 11.550083902019573 8.532829814766037 10.107434841172385 -2 -2 3
491 1 12.121745754914468 6.156641463473275 13.479792163183 -2 4 -3
1795 1 10.324794987251298 9.713684312379966 13.835910681131864 -1 1 1
80 1 12.531978555015371 12.63689611907967 11.218531003681427 -2 -2 -1
1883 1 6.550455437577127 24.503252205062747 11.016102033550162 1 0 0
2040 1 3.447487146610178 13.913196914254256 10.206525466500812 2 2 -3
1522 1 4.715473328032714 12.277770148796153 11.068172119766814 0 0 0
1530 1 5.539532237008605 6.249421111161553 0.7983564881800874 2 0 -2
237 1 2.3180126421573535 3.7298257293648156 14.055813740116651 0 -2 -2
595 1 2.061864851250899 13.383883192113263 12.088201925266034 1 0 -1
660 1 5.115717563241173 15.984071772595708 12.931232236799065 1 -3 0
1382 1 4.402991104029994 13.669160157093659 12.73428195015813 0 0 1
388 1 2.8216100664373402 15.9365615557235 12.76113560725952 1 0 -1
747 1 4.713875572424394 7.123100077319712 13.81132323997909 -1 3 3
1049 1 13.953214317933497 25.98812637953584 5.833683120179438 -1 -1 0
576 1 6.253426739429038 14.279503620194223 11.284053942365132 1 -4 1
1639 1 6.487963915071528 14.047828715380106 13.432406638003485 1 0 0
1957 1 8.276794049027805 14.309611408220855 12.190408770392585 -1 -1 2
402 1 9.952003830999287 15.613709532002115 11.987672345204864 1 1 0
1173 1 7.06160592643287 16.437809621089805 11.86321156375903 -3 0 1
1164 1 13.96231943400824 4.011123631423149 3.2797422594128975 1 0 0
910 1 7.500523110494882 26.547510028636108 12.944251245876151 1 -1 1
50 1 13.490081172505716 14.567875614991765 7.350620765089731 1 2 3