LAMMPS data file via write_data, version 29 Oct 2020, timestep = 300000

2048 atoms
1 atom types

0.5252721026508667 27.826727897344526 xlo xhi
0.5252721026508667 27.826727897344526 ylo yhi
0.5252721026508667 27.826727897344526 zlo zhi

Masses

1 58.933

Atoms # atomic

868 1 3.7537547340149664 4.785925051116742 0.7801592043616712 0 -3 1
533 1 2.7349826359531026 1.8438117992903715 2.3192655585199917 -1 0 0
334 1 3.0360390868920955 3.850404443806457 2.992185911475679 0 1 1
1156 1 4.521872017863135 2.0875395538129964 3.910250025497369 -1 -1 -1
1356 1 4.788998141040231 2.907579682931576 1.7265880119914774 -2 1 4
406 1 2.181033090766819 1.9824426764904415 4.500800655970299 5 0 -2
1497 1 13.669485003426225 14.237553072978596 1.322524152172159 0 1 2
1821 1 5.263217024412544 4.161183266531511 4.148568193784236 1 2 -3
766 1 13.618811241363746 25.01118112671365 2.8371836225616107 0 -2 1
1491 1 1.4258544639728377 4.145501525455622 4.924976869355 3 -1 -3
1164 1 6.915528218572226 2.1547987620107047 5.27119866194836 1 0 0
53 1 8.408917701324706 1.4586541179035857 3.4432208921436542 -3 -3 -1
315 1 6.083522862951799 27.60980354018623 4.09511250814051 0 -1 -2
1101 1 1.2865602448308686 25.08866090361174 6.929770765206421 -1 -1 2
459 1 9.87959425763479 3.5094986243564628 3.3881573971189383 1 0 -1
282 1 6.543690635349712 2.283262761608566 2.816600251192719 -1 -1 0
1528 1 9.201578480090301 1.5662526923678892 1.4664649939452254 0 -1 -3
1332 1 10.93569914802329 1.5698535403338862 3.833625458168319 2 1 1
1822 1 11.537512431107082 0.8985515214916289 1.9250815812200681 0 3 4
1612 1 13.52454237097586 3.5645465795907514 4.359497112273319 0 0 -1
1267 1 13.218226152555323 1.4785845378260227 3.3261446689458567 -1 0 0
1212 1 9.907042751464564 27.56894150863174 5.274209842359968 3 0 1
1993 1 13.622253674444984 1.976707606278276 1.1920920223192224 -2 0 4
19 1 12.062138540610427 3.1688151669122613 2.551630441507635 2 -1 0
1136 1 11.159138937085197 4.9951913466595315 6.795323272094133 0 4 -3
1709 1 13.840832422823983 26.92115583496512 1.7739637223083904 -4 -2 1
764 1 2.5728388721203945 5.962552734996773 2.032062723896071 0 0 2
1695 1 3.0255678805565114 5.229140833305156 4.974449109564291 1 0 1
424 1 3.661409859151138 8.042843775468668 3.374804058109175 -1 -2 0
156 1 5.357710325498644 9.189108723836258 3.9690211374511457 2 -4 0
1109 1 4.936524903784758 8.682931275302055 1.6682224861636104 -1 2 -1
238 1 4.828705377474951 6.135549062427163 2.6612949699295676 2 1 0
973 1 6.776207042383657 6.336213724964147 1.251199630235054 -1 1 3
555 1 1.7667097787242072 6.515944711951404 3.939813306255184 2 0 -1
872 1 0.6953462697902018 19.66868976262174 7.644268432250316 1 0 0
197 1 5.551298143985278 6.318725656857294 4.872061248225853 1 2 0
1829 1 6.631818302541486 4.665785494266648 2.7380997676418257 3 2 -2
1321 1 9.16265249243477 7.963829914269223 1.4697545746800085 -4 0 1
330 1 8.122154646717844 4.207015609784717 4.528372624435472 0 -1 0
1977 1 8.816561653735091 5.520992092582255 2.58331436166412 6 2 6
451 1 6.800471875105651 7.235030071547818 3.3630671896413213 -1 2 3
20 1 9.141751540855093 7.57935939429693 3.7958136723856812 -1 0 0
392 1 10.682044066867661 4.435676214451185 1.2604072352917852 -2 -2 3
795 1 12.642184720457898 8.135066841847589 2.2853740564771368 1 0 2
900 1 11.500037074636698 7.838575167434419 4.255184431280798 -1 -5 0
31 1 11.389609536608475 4.758955327438092 4.032415256700478 3 0 -1
1019 1 13.078287129273019 5.781557255423339 5.5577515750790525 0 1 2
1824 1 13.465516006786988 7.921267996849725 4.822206656775951 1 -1 3
1815 1 10.687561031100042 9.090387204028652 2.7607924216179884 1 0 1
814 1 12.58903549013247 6.243631760260362 0.9900966307038698 -1 -1 1
1061 1 2.6820101047948697 8.103830455570531 0.9663343595998979 0 2 5
826 1 2.3189854319374197 10.365083454101041 0.7078059605057324 -1 1 -1
1576 1 1.6829549128601593 8.238991078434996 5.157902422286981 -2 3 -1
588 1 3.6374531782107664 10.226109901565376 2.8130506795613983 4 0 -1
1897 1 1.9471954338965218 10.949684731108759 4.5267863628288065 3 -1 0
1599 1 4.539201486443448 11.624527386696434 4.765876370507325 4 2 1
693 1 4.237337050614929 10.899779284180799 0.626073059617002 1 -2 -1
1464 1 4.98226480710744 12.103010826052264 2.288919636628049 -2 1 0
1719 1 3.146748024272138 12.476419286382459 3.5254930765484223 2 -2 2
1598 1 8.56846249952414 10.126942302381906 3.235377007443433 -1 0 0
18 1 7.137523342626839 8.972353555305604 2.1715533231578394 2 0 1
1616 1 6.589555795959253 11.112788648979185 3.9343688193571253 -1 0 -3
660 1 8.185986223898325 11.133948075729514 6.17173535380815 1 -3 0
819 1 7.124586879416948 11.009116482477516 1.7142620385117473 -2 0 0
712 1 12.760339572805632 9.989285187342315 3.74503918707987 1 0 1
769 1 9.793618203785112 11.501380236369322 2.0429804365042967 0 1 0
720 1 11.358705635291331 12.242354316892072 3.6359092854305954 -1 1 2
1487 1 11.830450456027533 10.919172637024056 1.8192204525794131 -2 2 -2
830 1 10.034146979909151 10.10926825472618 4.9573428363301195 -4 1 0
9 1 1.726217528821922 15.758002206541068 0.5677927575790856 -1 0 1
1263 1 3.3951149020265476 14.47196663341374 2.15310411130927 1 -2 -2
1338 1 2.4775746675631085 15.659740018177782 3.9199797117348107 0 0 0
1358 1 4.67651421924272 13.724376397139453 4.258216639751217 -1 -2 2
90 1 1.946844419867417 13.904907895275047 5.070127820476417 1 2 -1
175 1 1.1337673946229954 14.004359587639463 2.835815459586915 -1 0 4
713 1 4.8773127713994695 16.28457293940532 3.710930168454431 1 -2 -1
216 1 0.9010691365718291 7.380672732825648 7.926236454158587 2 3 3
1954 1 14.025950230098843 11.442897270254134 11.083550096184746 1 2 1
531 1 2.5742043758067297 12.487237311591251 1.284030258825374 -1 1 2
413 1 7.081538865903611 13.050637205076216 2.6677587194523387 0 3 0
1174 1 8.891335958711464 11.941595329957048 3.964305958351962 1 3 -2
1614 1 6.429494853454371 14.935325056751486 4.409597631472815 -3 5 0
1308 1 0.7238159501853005 23.977621460263208 1.908317399415646 1 -1 -1
128 1 8.101552478222622 15.287042378294066 3.1392599786192403 2 0 -2
1288 1 7.033410843592837 17.185118945396134 2.82294634580895 2 1 -2
560 1 5.679707249274384 14.835751516285942 2.2227810978309765 3 0 2
586 1 8.530395539270348 15.926858706206591 5.175244492200868 2 0 -2
774 1 9.573593264197315 13.736975656428873 2.2336361481474505 2 -1 1
1264 1 10.411654833582432 14.121825987276413 4.364208678293018 1 3 1
249 1 11.731278183013755 13.48986977643759 1.905006508047431 2 2 -4
212 1 10.382422004567115 15.355973219108211 0.7397482565722981 -1 -1 1
1758 1 10.284195086506255 15.909224830373718 3.013766221099669 1 1 -2
622 1 12.481458583275705 15.72923057750006 1.9366681870204323 2 -1 3
433 1 13.47332986414184 11.898935766429116 2.542821224748843 -1 2 3
669 1 13.128637562099492 12.32069232639773 14.08741334474291 -1 0 2
1837 1 3.674760189910986 18.896042066078277 2.14432736969383 3 2 1
1702 1 2.8689006726715123 16.97203021445754 1.9746479902428276 0 2 -1
496 1 1.6691003258160917 18.630455688640236 3.4490471009648473 2 1 -1
509 1 5.229949318472762 18.27739762258095 3.878610530402339 3 1 -4
419 1 2.616551806962036 19.357687290734894 5.909603874328695 -1 -1 1
1388 1 0.8824904610585123 17.285393481793985 4.77293959088289 0 3 1
960 1 2.672495133356843 21.066553025360616 1.5650798327851687 2 0 2
112 1 3.2769439508056735 17.659053340760845 4.863982551027314 -2 0 2
1401 1 11.002180970612436 6.273074318886508 2.6374826370999394 1 2 0
1030 1 5.900543914011161 19.0718877973666 1.6041548567154122 3 1 -2
597 1 6.866613635756023 17.35794081400715 5.136592460395241 -1 -2 1
329 1 5.261165347718634 17.073565262981894 1.7820719193623176 2 2 4
1456 1 7.641781124797041 19.104108845185195 3.1439982441610215 -2 0 -1
427 1 9.574344627460809 18.134088773793657 3.239684042557121 2 2 -1
466 1 8.40626831436797 16.367895158311732 1.3527436604323362 -3 0 1
641 1 11.351090807818121 19.798433358726445 3.0331627123971265 1 -3 -1
1646 1 0.6779642379134359 21.744852926647994 2.164450975827789 -2 -2 -2
579 1 12.120772711263447 17.707414360779936 3.616955785844727 -1 1 1
325 1 12.37168565729621 15.795894254987235 4.298080364796734 1 -1 -1
806 1 10.472752591063026 17.60269534487349 1.3246792888360153 1 3 -2
611 1 12.69919993391438 18.232230139872954 1.3601976348665168 -1 4 3
1103 1 11.042804327326987 19.283614657811327 5.200470758910336 0 2 5
280 1 13.536503864552246 19.422066087678857 3.897640658423736 -3 -1 -1
1974 1 13.255165617023705 21.029772386298504 2.272453045424252 -2 -2 -4
1278 1 0.84048768497695 4.19091573246709 14.078330521366968 3 4 -2
855 1 0.6958854022604541 10.469540464805679 6.352041595389451 1 2 1
276 1 3.9869311307063278 23.352277469620898 1.128933189511416 1 3 0
1542 1 2.69723213070569 22.76231653437693 3.073848382434226 -2 2 1
174 1 3.8026353026636217 20.94719459470146 3.7182217989691906 0 -1 0
104 1 1.5732311868761113 20.995969977902828 4.524079895609186 -2 3 0
1934 1 5.541937534636278 22.915403669465793 2.9426907744936197 1 -1 -2
506 1 10.83933301954666 27.122860003163943 11.3948812130823 3 1 2
34 1 7.678462217012336 21.34044268731076 1.1493393933427203 0 2 -2
148 1 7.1191552283160915 19.598235449913936 5.101275579985677 3 0 1
304 1 6.032923150635584 20.65547080984393 3.5966478347370447 -3 -2 -1
1424 1 9.278212649584786 22.986278348038677 1.5738498672892758 0 0 0
1806 1 7.776690725009022 22.059114578498715 3.126335281697516 4 1 -1
1105 1 9.242145949829506 20.358742019395137 4.106378687088247 0 -2 1
1876 1 11.143151444301743 22.25887462340209 0.764011962145491 -2 0 0
1090 1 9.283430980071595 23.53421525824205 4.3218804994490805 0 0 0
554 1 8.73362204127119 25.83082199247399 0.9689383032843055 0 -3 3
1442 1 10.621176027190597 22.078164496508876 3.213421795460097 1 1 0
1502 1 9.792594559428252 20.430729535904657 1.5205896125039338 2 -5 1
22 1 12.594161001573575 21.83194646160485 4.247671811709322 2 -1 3
155 1 13.955058317216613 14.972951471531612 5.754585083179424 0 3 2
1718 1 14.145007500948251 1.5592872161344882 9.859401614816093 -2 0 -1
284 1 10.929077310358865 26.3496537742311 13.641413365125027 -1 0 1
1217 1 12.060197758430538 24.072541457978282 4.3817592728768044 2 0 1
1749 1 2.4951137681890203 24.948843153601317 1.1319906496337244 -2 -2 0
847 1 4.465713477663504 25.610593042212518 1.0930070434886248 4 -4 0
1587 1 1.9736699908222932 25.53050743215548 3.462191785613512 0 -2 -2
887 1 3.9498251555430577 26.956524654262896 4.2298982020491 0 -2 2
1229 1 4.005544110885602 24.48423071998619 3.1269589066281975 0 2 -1
810 1 2.679969485313953 26.912774389414757 2.233740576474487 2 -6 -1
60 1 4.966679122336124 27.812989400661664 2.1157997000998323 0 0 1
1870 1 1.3018859023354752 27.326610289154846 5.424532833374534 -1 0 -1
751 1 7.886540963640304 26.603399500548658 4.226720732336116 -1 2 -2
1047 1 6.584077666340561 23.38970479150573 1.1063219277299323 1 -1 3
1577 1 5.7828186976058324 25.943058349195297 2.8590402797099634 2 2 1
1160 1 8.17567734088637 24.46425822954104 2.644573620917045 2 1 1
1629 1 6.89730028751754 23.897777500158316 4.451477085817389 0 2 -3
1826 1 7.125186801330195 27.36223937871233 1.8640178555540345 -4 -1 3
1236 1 6.3887949936112784 25.665735607643228 0.7568096665806284 0 0 0
1915 1 9.713554485488347 26.838535747271425 2.594776823275124 -1 -1 0
811 1 13.530952449674645 24.49803193069063 0.6657940916419387 1 -4 -1
1509 1 11.94103474218919 25.840560593243744 1.485610092015146 -2 -2 -4
499 1 10.560602415239327 24.85428984346643 2.728274804394743 3 -1 1
187 1 12.278617513599212 23.49580834543865 2.206827148189226 4 1 0
136 1 12.183085602719274 26.33349458025839 3.8662270623449158 2 1 2
1269 1 9.864093890050667 25.646764908531303 4.586267360723445 -4 2 -1
1066 1 14.11618004595779 24.838798418243623 5.116274866809379 -2 -3 -2
1293 1 1.1424403929036226 1.1492575101019693 0.9535694929626484 -3 1 1
1297 1 6.678526765680178 9.452047782096077 12.976116845649084 -4 1 -1
1152 1 1.6010883950586032 2.308783632235164 7.260614440549718 3 -2 3
59 1 2.2480378449256038 2.3468938234076644 9.451360001158948 2 -3 3
401 1 3.81515805265471 3.1853296524290435 5.619635043155225 0 -2 0
608 1 3.6975534450338583 3.3243615800949047 7.8654043679577645 -1 -2 -1
1945 1 4.021800880585371 1.375733665760293 8.825473875604526 -2 3 1
2 1 3.1712893167833776 1.3386303669019455 6.323425240393322 -2 -1 -1
139 1 9.291417196600454 2.437126668325532 5.247061854499859 1 1 -1
1808 1 5.258380587110254 2.300661396729062 7.0203000224483185 0 0 -1
393 1 6.198172978043259 3.5206624153403854 8.539951356306178 0 -1 1
1351 1 6.056864683363836 0.7751320165594973 8.335065039594628 0 2 -1
988 1 7.698251863526303 2.266506179798046 7.44002992363561 -3 1 1
217 1 8.345433769745572 3.956691501813264 8.709891942628506 -1 1 1
1448 1 9.463178152591441 1.1082522253593359 8.546234514890987 -1 1 -2
773 1 7.923995922578546 27.44689030133531 6.4945069681914935 0 1 1
741 1 7.3621188852642865 2.1090810606937263 9.787915340597527 0 2 5
664 1 11.185542818998915 1.0927846542447972 6.919746538381626 -2 3 -4
374 1 1.1937151064728748 27.534093425842617 13.007204554847254 -1 -1 1
624 1 11.637746406074985 2.9772217815130846 5.484595981495872 -1 2 2
589 1 13.101345978455436 1.456376230169173 7.640627795357198 0 3 1
796 1 9.976514240576174 2.93540961301717 7.3981681150857685 -1 1 0
360 1 11.755048350418962 0.9779456384054267 9.298185328711313 0 2 1
679 1 11.906494702184347 3.0403911752647717 8.277111247514434 -5 -1 2
171 1 10.266382407955456 2.7059024805289136 9.93745605832947 1 1 -1
189 1 1.4320439016879327 8.848218139058519 2.9241983960322284 0 1 2
86 1 4.441961381351117 5.652273054797249 6.965107016394384 3 5 3
391 1 2.0458701380829143 4.460899607523071 6.968810195841038 0 2 0
1446 1 3.9488801125363793 7.312867587783672 5.339269644566658 -1 3 2
1569 1 2.9519470213063737 5.151239722324086 8.861589738950988 0 0 1
1697 1 4.572215386843293 7.638040902159102 8.261373551837355 0 0 3
808 1 2.7737194718603138 7.044601632644985 7.056592180333024 6 0 3
1207 1 5.73298967334655 8.160861788535552 6.223372377118815 -2 -3 1
1208 1 6.2088467770069995 4.285474210561452 6.159919500987858 1 0 1
777 1 5.143407923619096 5.443356638730422 9.235208410362224 -1 0 3
1381 1 8.318054700994699 4.374609950904366 6.597444005317549 -2 0 2
404 1 6.660323942685762 5.894910815585517 7.994567443174904 2 3 -4
1872 1 7.565847437659888 6.339177485363567 5.692813361967632 3 -1 2
245 1 7.861283380125979 8.196055260647537 7.278272183243142 1 3 0
25 1 9.54554400831929 24.508470345918216 13.100407610782794 2 -1 -3
862 1 9.55177223115255 6.258125736634663 7.3999426007879565 0 -2 3
1851 1 13.133076168671975 4.047741308918143 6.878787946812935 1 1 -1
1998 1 10.014248441990508 5.93944189992557 5.187167952605445 1 2 0
639 1 10.531451837454366 4.869416816013596 8.926080003910451 2 6 1
1248 1 12.269136434610129 6.133551230111453 8.297940888884014 1 -1 -3
1613 1 11.698578351656531 7.13890603477057 6.454825837830359 -1 -2 -2
962 1 6.28896851546487 20.659246691570306 13.71100616176391 -2 0 2
719 1 1.6691181753011843 15.905621597236184 13.688754871696334 1 -2 4
1690 1 8.308469429134966 7.779624742568697 14.068969059964358 2 -1 0
1836 1 3.2098626924891307 10.721482353115741 8.707913472553068 -1 -2 3
173 1 3.2785178522943808 9.533305144261064 4.872609102426694 -1 -5 5
905 1 4.250278506210585 10.048006066993539 6.948804162605966 2 -1 6
118 1 2.3822864672211206 9.259188466682987 7.206968215492307 0 1 0
1564 1 2.545369492183592 11.830339290654788 6.444234563937087 3 -2 -1
318 1 4.76952838836093 12.327490916834968 7.0739381205991965 0 1 1
80 1 3.6338622513921726 12.822037592458058 9.319830262698162 -2 -2 -1
1324 1 6.0903315160717595 10.423811236354478 5.888248736261472 2 3 0
880 1 6.35125399037334 9.616149231554797 8.049723352368833 1 0 -1
1862 1 7.428271190226974 8.954340087806369 5.156289629805277 1 1 1
196 1 6.733082767774403 11.838422424284722 7.488538581774854 4 1 1
44 1 9.888594692319414 10.110292393114637 7.142945976390296 1 2 -4
254 1 6.328698027019754 12.978263074788607 5.654995199480206 2 -1 1
464 1 9.359733126980117 12.032752153825987 8.289146017549749 -3 0 -3
821 1 5.398965773525754 11.664308637617847 9.246369311552098 -1 0 -2
1894 1 12.447790462422835 8.345557250976132 8.88134994305407 -1 3 0
1350 1 8.338890467904687 3.5017184124606056 1.9166817167132522 0 2 4
8 1 10.253139666926456 8.080759099116598 8.172975814899694 -1 -1 1
1699 1 9.641398967902209 8.180209903092209 5.802200917025378 -2 -2 2
1972 1 11.865583271421684 11.42342466747231 5.5746830151603906 -1 -1 0
1037 1 12.811520195708573 10.522874274391567 9.622060677092534 1 2 -2
1378 1 11.792340726737534 9.3146342851304 6.416778807023444 1 -1 -2
1443 1 11.916993275563067 12.018983015454184 7.8796560744164 -1 1 -3
1087 1 13.555592948821024 10.540689451762935 7.507061123792395 -1 3 2
672 1 10.086685571588683 12.48330395043346 6.165077851836187 0 -1 -1
1639 1 2.356728219517203 13.987232746791598 7.695570605237329 1 0 0
40 1 2.1892626938453383 16.075788954011696 6.116958515129471 -1 2 -2
1280 1 3.732434882676526 16.120407830679387 8.004476214072838 2 -2 -1
2036 1 5.195252694637294 14.169718713774003 8.357335506084436 3 1 3
1452 1 3.7280795760876457 14.206948866552683 6.0301669118931525 0 1 4
1165 1 0.7121947237497375 16.494907020783717 2.538657489668863 2 -2 1
527 1 5.012031006365166 21.127148720018987 1.7993698859382414 1 2 -1
688 1 1.7181399040964282 10.084200034553172 12.833125937448653 -3 1 2
1901 1 8.069565766027335 13.563587115489332 4.813174059501506 -1 0 2
691 1 4.820681017654386 16.19617612643252 5.931042227960883 -1 0 1
1674 1 6.793533938275326 15.21997137706678 6.6548974505268585 -2 -1 -1
593 1 8.23834161680658 13.513568661220612 7.112752801057033 0 -1 3
546 1 10.077916247447144 14.964557981070946 6.577239184887277 1 1 -2
1049 1 7.88780184165094 15.677164292378134 8.633339440378013 -1 -1 0
1370 1 7.001904961153787 13.673515815326311 9.062078538968294 -1 -1 1
510 1 13.58829049695056 14.234289005387515 7.871961702004337 1 0 1
991 1 13.407886427995777 13.239454772349227 4.025344498751913 1 0 1
941 1 11.313864126782505 13.951277045487368 8.192246074815387 -2 1 -1
540 1 11.915960594518872 13.862650987001423 6.042933279080718 2 1 1
1781 1 12.037965018171473 15.954017795252714 6.9006531808848965 2 0 1
1223 1 10.39886799544604 15.868080688711384 8.68083191305143 -1 0 0
1286 1 7.9588537298261235 13.50720078597398 13.858985035450258 0 2 -2
1594 1 12.906886537646201 15.640391739243334 9.57763898384411 4 -2 -1
948 1 4.84802982057515 19.838962592528336 5.428019164405544 -2 -2 1
909 1 2.4605782014769972 17.4082895143339 9.604878298187325 -2 -1 3
748 1 4.238496079902278 18.211632789146314 6.87820638447837 0 -3 -3
2013 1 3.6690825565122207 19.002651369304907 11.101414012122437 -1 2 -1
1735 1 3.069566050241396 19.737658097698908 8.11609970940319 1 2 -1
299 1 2.0667731651580925 17.812802170643344 7.324313199437622 -3 -3 1
756 1 8.868575760951067 18.47668427469306 5.443300546168977 1 -3 1
1746 1 5.8216382493900785 16.852158663558438 7.894459264238773 -2 -3 -1
457 1 5.173256347236454 19.97881702129894 7.543862460183908 2 2 -2
745 1 6.945875088329506 17.824537142370534 9.415548403553679 4 0 -2
1104 1 6.763500930924774 18.599494958135864 6.932477183454496 0 -1 2
999 1 8.785401957528848 17.146834401960476 7.2220917220057155 -2 0 3
547 1 8.788909487656781 19.111916037547722 8.137841799539519 -4 -2 -2
55 1 9.141625121978539 17.389666383451722 9.44667478950046 4 0 -3
476 1 1.2216757878803177 11.672606760155485 8.259535783252264 1 1 -1
677 1 10.503551790319388 16.930529561794387 5.206231115215687 -4 3 -2
1721 1 10.743341128939186 19.534776406619233 9.526392024211408 0 3 0
581 1 13.285836375307957 19.444091236947596 9.813396963572409 2 2 0
1866 1 10.552797492354538 18.40474399443945 7.393617746860495 1 1 2
1951 1 12.583422364974046 17.678134991482565 8.650685521481128 0 0 1
61 1 12.636362075493828 17.892037876172537 5.977124653105589 2 1 2
515 1 2.09337363693321 23.44522185539188 5.411470889605598 0 -1 1
144 1 0.7996271884400675 5.29563907502269 8.459654370162358 2 2 -1
892 1 1.332559850450362 21.73135779242374 6.773050427517075 4 1 -1
1116 1 2.8954844252124374 22.807779066377496 7.7479071952247525 0 0 4
883 1 3.5951116661943647 21.413025732487153 6.034948254346621 -2 -1 0
1375 1 0.7838666744139331 23.520179255666324 8.179844392497069 1 1 -1
1689 1 4.323906236110261 23.104265147814576 4.8227757605507255 -2 0 2
1775 1 4.242516554282208 24.356899468167796 6.528019782562751 -1 1 3
784 1 1.5279939743420752 21.6380834800388 9.006310691683401 -2 4 -4
1745 1 3.6291555087328624 23.140503832567436 9.65220015827104 1 1 0
1082 1 5.791755419491684 21.91905635776735 5.6533070211755385 0 1 -1
1748 1 7.475577776265958 20.852778314179744 7.41203622973135 2 -1 -1
1508 1 9.601804005985649 20.471064606757636 6.5628091710770535 -1 -1 1
233 1 6.626135427213555 20.078397027277394 9.353448409125246 5 0 2
193 1 7.917539453957459 21.613682681010545 5.226155633720235 -1 -2 0
222 1 5.275437459851739 22.122749053775077 7.6913048383692395 -1 0 2
1333 1 7.176708347569333 22.798667998621873 8.616943221813518 5 1 1
1419 1 8.856918066548168 22.752601326639347 7.297773291690978 -1 -3 -2
183 1 6.808692118735035 23.760549053030996 6.804257613861058 -1 0 -1
658 1 13.335319820000517 21.73506775116578 8.439203770741774 -1 -3 0
1783 1 8.853419624908826 21.19259213304452 8.991653640815095 2 2 -1
1642 1 12.545366463260253 22.835507687528953 6.368015821437319 -2 4 2
1205 1 11.841021376210774 19.922875104548567 7.737950894403314 0 1 0
1068 1 10.64559452436368 21.98373210190875 5.433951940282588 2 -4 2
840 1 12.837820788643224 20.652976874549754 5.937919129319951 -3 0 -4
946 1 11.197893747400446 22.191461790548484 7.893790987862375 1 -2 -1
1583 1 10.078862063552005 23.138050606486363 9.40940211723683 -3 -5 -1
1252 1 12.424079986706394 23.75267308909084 9.201850793139803 1 -1 -1
410 1 11.947202989716343 21.40521152400718 9.948484578294963 3 -1 3
2043 1 13.897226476893394 6.790634582752592 9.576139591653469 0 2 -1
1622 1 2.082067347884183 27.215645663981768 7.762151983910769 2 -3 2
226 1 4.278723020909785 26.520752740654725 7.915771724909528 3 0 -2
272 1 3.10542758826744 26.043266263157438 5.807445131805447 1 -4 -1
1714 1 2.8223701289540983 24.84410070317691 8.781302198977173 -2 -2 3
41 1 5.721309648483952 25.664613722124255 5.254059513894954 0 -2 0
752 1 1.4830440340750788 23.617033841348128 10.405576186553764 0 1 2
1295 1 5.2551255756078925 24.129987127928022 8.697692974449488 2 -1 2
185 1 6.379047291225952 25.801806409265453 7.382111931317899 -2 1 -1
1275 1 5.2010404615652845 27.52787165265372 6.363464318100227 1 2 0
1167 1 8.16272227103947 25.086387747290843 5.817047375875856 1 1 -2
1255 1 8.234258084051955 24.724389338492724 8.18920018954056 2 1 0
1296 1 7.808403579700686 26.591563277054238 8.784349646533153 -1 -1 -1
3 1 9.785310329505302 26.249822395451282 6.98017444855805 0 -3 -1
1416 1 10.372159866958789 24.151208656088833 6.1030030956594565 -1 -1 0
1344 1 12.420156312034814 0.6877691422918779 5.24518864501123 -2 3 -1
822 1 11.632042107090765 25.994838070337156 6.034092388163747 3 -1 -3
1654 1 12.324774939484321 26.583708789099376 8.14377492698329 4 0 -2
1713 1 10.729099983832377 24.46870780784311 8.07642555003186 -2 1 -1
980 1 12.92522742297628 24.742445308246943 7.280037733851631 0 1 -1
562 1 1.2591074378308789 1.079310784504968 11.09864044821303 -2 1 1
417 1 10.19850563684633 5.3932312756897325 13.991155193562513 2 1 0
412 1 0.6958853505631497 2.8618262632601827 3.0677311564363134 -1 1 0
1371 1 4.43232953339822 3.377998297834852 9.840834720437602 -2 3 0
30 1 0.6428548280277152 2.2758506725647996 12.793504715214146 3 -1 -6
1664 1 0.7661059057277078 4.842916525746841 1.8328485747204235 1 0 2
1170 1 1.5470003578593627 25.86490820995418 11.489958814676886 -1 0 1
6 1 3.399110386070268 1.45094195827889 11.346780911906205 -1 -1 0
1747 1 9.292941576659691 1.8033681321370616 13.026177044716569 3 -1 -2
84 1 6.782690529482728 3.8578661106355328 12.497056574608484 2 2 -1
755 1 5.4005365922227035 1.402066592379577 10.765578749880751 -2 3 3
1958 1 7.369192511699255 24.64752858916563 12.3761675562373 -2 -3 1
1930 1 4.761416713302735 3.6691068931386956 11.742743507931392 1 2 2
619 1 4.93780309138892 1.5513676474504616 12.9234213727784 1 0 1
729 1 7.35263046786991 1.5794258897010613 12.032324512082653 2 2 -3
1609 1 8.609891012309921 3.504084667497168 11.064849352738651 -1 0 0
1582 1 1.6263472244775186 18.91528977208374 1.113031359336352 -2 -1 -3
1756 1 9.097523714309997 0.7407318359482098 10.6694144673993 0 0 3
967 1 11.500978052295705 1.4976664969372329 12.577495992606272 -2 1 1
742 1 12.748631679351648 3.7452230190622307 13.078716530772137 3 4 -1
1559 1 12.339754786133234 2.6727998058732716 10.582681383986923 0 3 -3
1678 1 10.600772893904237 3.5869740622668185 12.135340901766055 -2 -1 -4
1454 1 1.042515951935762 7.675697285640796 13.460735370307027 -3 -2 1
170 1 14.089304805489412 17.42593732788536 2.749844871376271 3 -2 0
959 1 2.1187839942682425 3.529765744877222 11.893007482800092 1 1 4
977 1 4.126171143919999 7.075315904694726 10.199606053954898 -2 -2 0
1359 1 1.7335251395376936 6.96657951486387 10.433203238444138 -2 -1 1
1867 1 1.0992920140633586 5.56094055710581 12.076481232094011 0 4 -2
277 1 3.3895938463204347 4.537559414268559 13.171360696096617 2 1 1
1879 1 3.207495676032606 7.025778073064998 12.664014414605361 0 2 2
320 1 2.948133856336373 5.182049596897373 11.030385987431472 3 -1 -2
1984 1 13.944730561885205 4.259821775874431 2.0917215512801297 0 1 4
377 1 6.8702254114373895 5.154001660364683 10.612428068652365 1 1 -3
1260 1 5.182695825819308 6.012070716931655 11.970438329279835 -2 2 1
239 1 7.169760828367125 7.347418665835492 11.931278361538146 1 3 -1
718 1 8.300059360837242 6.098284172641187 9.384176820315835 1 0 0
2004 1 6.592045633664659 7.6042696595325285 9.759700195438572 0 2 1
1376 1 8.652038001997738 5.90559024448778 12.778721876969943 -1 0 -1
1154 1 9.15441929147256 7.858511609826737 10.276349740262107 3 2 1
857 1 5.064917955233149 8.487873835371463 11.745779216982712 0 -1 1
600 1 13.071134306463406 26.735775708095215 13.102892591377582 4 -1 2
604 1 11.415462644786496 25.091601840239452 10.403580919367474 0 2 0
470 1 12.155895814015086 4.592062182132943 10.475236775430348 4 1 -2
986 1 12.36456877618456 7.284471577363961 13.31198432418099 1 0 0
129 1 11.082465771342607 7.074119516037577 10.317878718489984 0 -1 2
949 1 9.734032116219165 5.5028097585105105 10.790718820430422 3 -1 2
1462 1 10.272973168895803 7.452471231017582 12.42081650904717 0 4 2
1051 1 13.317517307122731 6.255427038341361 11.541456259499299 0 0 -1
985 1 11.536913577562641 5.4542170135325545 12.43302483284848 -1 0 1
1575 1 1.568972117994454 10.522290841750099 10.55295928836877 0 0 2
687 1 13.879441225916256 9.550431299796216 1.5086321007298933 2 3 2
1787 1 4.01865368715592 12.650892742689114 12.523293888403963 2 1 1
942 1 2.9126585803588014 8.679760814838339 9.346919125997278 2 3 -1
157 1 2.821097567111938 8.822502075564802 11.545363051152881 1 1 -2
125 1 3.4696979900040708 11.16188519361578 10.967036727722977 0 2 1
1128 1 1.8017400360531857 12.110177016679044 12.298564347239056 -1 0 0
738 1 9.159497603638965 9.450756978160976 12.263977785914909 0 2 -2
49 1 4.994987580869189 9.546628454219876 9.858732935913729 1 -1 2
1846 1 4.092111616195455 10.161773237490634 12.905008933967187 0 0 1
1305 1 5.727655480672088 11.074174670376276 11.439483152355828 4 -3 1
1125 1 8.487295660993755 9.506054246441744 8.60264062304864 -2 2 -1
1918 1 7.448289347751441 9.572939823959052 10.336344247614456 1 3 0
746 1 7.681676556825057 11.515359560413795 9.6185552391731 -1 2 0
1680 1 7.866548226984439 11.47868530152975 12.007186938728855 0 0 1
15 1 9.43766697979068 10.875208080856815 10.553249258127831 0 0 0
1078 1 8.86878845831165 26.865252565597764 12.7244006933589 -2 2 -3
1198 1 10.744669334815628 9.88354613414082 9.180784027118658 -4 -1 -1
654 1 13.558503697493906 8.781848046875965 11.310474687035514 -2 1 1
158 1 11.267082174425973 9.147124686328713 11.291213143572703 2 3 -1
1285 1 6.204985078863179 11.379460555238701 13.804474255916285 0 2 0
1028 1 12.625422651118239 10.603099326774638 12.617750324492127 -2 -2 -4
1315 1 10.603696168930247 11.185619355015698 12.082812802093462 0 1 2
1932 1 5.902116265120891 7.620795099286866 13.72874622875429 -3 3 3
1687 1 1.6202644558826411 13.871877900657847 9.888961256377378 3 0 2
549 1 1.0802123349597594 14.176354919278703 12.255094587411094 -2 2 1
544 1 2.085617938179048 15.866327328533187 11.056853389122299 0 1 2
1889 1 2.8453072856214425 1.8686668694527862 13.55493838877554 -1 0 0
1148 1 3.1008319489512597 13.923211467833623 11.411347105807302 -1 1 -2
1864 1 4.101241730597449 15.536425724837006 9.891309281737175 1 0 1
1892 1 5.355176969494733 13.469206802340024 10.783035390690834 1 3 -2
1337 1 3.4033540041541674 14.478871373582356 13.99304737447322 -1 -3 -1
1386 1 4.515892267469101 18.391391357134726 9.293011278239277 1 -1 1
331 1 6.2540545023901055 15.489980491523236 10.38331735011943 -3 0 1
1755 1 9.360914559076152 13.95563889096098 9.318031624940504 -2 2 0
572 1 5.989782939673721 13.356031703910324 13.11092307639641 2 -1 0
190 1 4.958389139938708 15.04109982751573 12.244678566903051 0 0 -2
1772 1 7.525298280706308 13.620062128901456 11.03076359357497 0 0 0
1013 1 9.621599845228058 13.08820363926915 11.33004264923521 2 4 0
805 1 7.3801345855378555 15.209579796772536 12.690448565748394 4 -2 0
916 1 8.959350608811532 15.320899642475728 11.034742502104118 -2 0 2
1472 1 14.101380889344192 16.615096328247038 7.046141454742853 -2 -1 2
576 1 0.7170928729169503 6.2590130387086615 5.953370303733475 1 -4 1
1482 1 11.165986825211169 9.212679533430972 13.688797423297528 -2 2 -1
2038 1 11.029564257572803 12.284481412118193 10.058977210196234 0 1 -1
731 1 11.266112823965129 14.768415652281982 10.441773990897786 1 0 -3
813 1 12.056021045964101 13.101692150658003 12.27857612711169 -3 0 0
1095 1 12.95687539376074 13.122526988267147 10.207766271039734 0 0 -1
548 1 13.13754284564972 15.09418263841175 11.901337283047814 -1 0 2
1759 1 10.483211440080424 15.095672780020545 12.676497112797222 -1 4 -3