LAMMPS data file via write_data, version 29 Oct 2020, timestep = 300000

2048 atoms
1 atom types

0.4504007665986176 27.901599233399153 xlo xhi
0.4504007665986176 27.901599233399153 ylo yhi
0.4504007665986176 27.901599233399153 zlo zhi

Masses

1 58.933

Atoms # atomic

1291 1 2.706697353793996 3.125511817544931 4.863461047012271 3 0 1
926 1 4.177561849609466 3.948092622909398 3.1407702892479037 2 -1 3
599 1 1.3845025171921344 3.2945096848359436 2.213736131053137 3 4 2
124 1 3.2129862512794944 2.0966157520570126 2.2983153421228346 3 -1 1
916 1 4.324178101605712 1.5229243058950062 4.557561177542537 -1 -1 2
457 1 2.4630845590674486 0.6121334788909335 5.784488560702207 0 2 -1
12 1 13.377459568221656 24.161209692881428 11.047124549452779 -2 1 0
1559 1 0.604541305499343 15.17011734632361 1.4182497583794604 1 3 -3
740 1 13.458344366680294 17.491773112044307 8.173340729392077 -3 -1 2
1955 1 9.117668691809769 27.62740227598055 3.5764357935099964 -1 -2 1
703 1 6.31139179824836 3.319987083297363 2.9445675582926896 3 -1 1
580 1 5.08800417986242 3.035352471927905 1.2808678642491516 4 1 -2
830 1 8.096591518589658 2.6132718881613903 4.021420939773238 -4 1 0
848 1 6.08372120790567 4.822934634930653 1.0529944142071956 1 2 2
465 1 8.129176699439077 3.5635734940055213 1.6640776093597383 1 -1 -1
1833 1 7.2845060067150165 1.4534733282644614 1.7546582076917678 2 -1 -1
630 1 9.712013656339378 1.9596278894341779 1.430970706890883 0 3 -2
151 1 10.196768555985068 3.4919843883139072 3.5801470869018015 -1 -2 2
14 1 10.999541509839066 27.280008920250637 2.2370447852066304 4 -3 1
1066 1 12.064533729580846 4.317307960985757 2.599855182756524 -2 0 -2
1234 1 11.750841569521802 1.9750214910025907 2.631546626305627 -1 2 1
1428 1 3.7782965845140617 21.869047061192326 0.718884889222785 0 2 0
1890 1 9.003746145268703 8.878054993210055 13.915168374537771 -1 2 -3
1313 1 3.474273582728338 5.558551337956492 5.063511298816664 1 4 3
1973 1 2.283869861479134 5.286742781068917 3.114440824055274 1 2 3
990 1 3.7715299484748304 6.8242267646511 3.021211829126892 -1 -2 -2
1724 1 4.116702749675307 5.184990358216586 1.2445307208827598 2 4 1
842 1 0.7360109920121938 13.10989345084846 7.046208916729346 -1 -2 1
543 1 3.9626041351878216 8.113918815185862 1.0453204344107612 -1 -3 0
2042 1 7.0336538445159125 4.543588624208621 5.17160016346028 1 0 1
22 1 5.72267792415675 5.38192718933096 3.4181967584943185 2 0 2
514 1 7.886009542384382 5.322159848917684 2.9075303792266283 6 -1 -1
178 1 5.978945643461975 6.925862728410018 1.5008636139582583 1 -2 0
285 1 9.452713329226556 7.408908328013324 3.6814003522605945 1 -2 3
951 1 9.12398220801341 5.472153231598943 4.731812865176731 -1 1 1
953 1 8.02131246361632 7.949259738265331 2.0361046537458733 1 -1 1
1171 1 8.049242968852411 6.2786991799585286 0.8745994655115508 0 0 -2
1520 1 0.635494136467431 25.666433770446936 13.466289949847924 -2 -1 -1
1225 1 10.090267371446792 5.25393176131192 2.360204400539906 2 3 1
1406 1 11.266894950940838 4.683261921334588 4.92357912605693 -1 1 0
1568 1 12.41049806564334 6.236390838246542 1.4403355370789037 3 1 2
2030 1 13.228895652346312 5.621158323137536 3.977796510487412 4 0 -1
1492 1 10.478670162887594 7.494564222597808 1.4538501581353305 0 -2 -1
1772 1 12.545941885258603 8.757443477676706 1.8230513258963552 1 1 0
1816 1 11.53234220468041 6.9577164153320705 3.41708457720768 -1 -1 1
1112 1 2.759326889395769 8.703297057467335 3.123087992639483 -1 1 3
1068 1 0.7085662978875529 8.986889152886446 4.96077933712673 2 -2 2
483 1 3.241622843393182 9.922897546373365 4.857669544804644 2 1 0
733 1 3.915769460219578 10.599906944904902 2.2332890484034227 -1 0 2
946 1 1.41778555244847 11.738270903157316 5.267276812380565 2 -1 -1
265 1 1.6280334968113037 10.621736553859392 3.125236822074624 2 -1 -2
1482 1 3.1263129044252747 12.21042701124257 3.864396255202474 -1 2 0
600 1 2.5480500725795774 12.115304261344784 1.3434521327633102 4 -1 3
1027 1 5.398161116048821 11.049938679123082 3.831258859224165 -2 -1 1
1982 1 11.567152525274462 25.02773362826136 12.949415421130773 3 -4 1
1214 1 7.474317641050872 10.107135240855143 2.0161175616230453 -1 1 -1
883 1 7.150679131299096 9.200236340318263 4.640149148134307 -2 0 1
898 1 5.808478523269481 8.739270140873078 2.6541779506570777 2 2 2
1247 1 9.139763837918983 9.721092951732205 3.7423516426491905 0 1 3
1352 1 7.714566882464679 11.263738594040756 4.643338662069131 -2 -2 1
393 1 9.276399367706407 11.631911747050992 2.707160171423497 0 -2 2
1672 1 7.046764415609122 12.438946978358665 2.7553699962995 -2 -1 2
105 1 5.115001648231939 25.872061080033795 14.079352557034769 0 1 0
1630 1 13.066997167534108 11.402145334724235 2.6386710967743796 -1 2 0
910 1 11.061091187061235 10.085995938736465 2.802332622837249 0 0 1
1872 1 9.544356854612365 9.73919275208729 0.9184515843085619 2 -1 1
390 1 11.0401152294547 12.927246945722489 2.4216756082577287 -1 -1 0
995 1 10.543047906477748 11.915177711431717 4.498098224786869 2 1 0
1932 1 13.856038939041806 7.415054650004284 3.050004400781751 -3 2 3
1394 1 12.865993938835606 9.516058457889732 4.414268309598585 3 -1 0
1798 1 0.49682657054193413 19.073872825203765 13.957129493538957 -3 2 -2
430 1 4.633019616660863 12.852122883625672 2.307084866283893 -1 -1 0
1826 1 3.92839722663558 14.840708089382506 4.372230345610254 -2 -1 2
578 1 2.2909623710355564 14.224583992129888 2.668092052797884 4 1 -1
886 1 1.3461080224646649 13.970507331355405 4.824451034986256 0 -1 3
1113 1 4.044859659362639 15.398606111324309 1.9319899725927587 1 4 0
237 1 8.045235679342687 15.434326183637625 1.4475428592368775 0 -2 -1
40 1 0.4889957015399935 12.657152902714733 2.700154345297957 -1 2 -1
1423 1 1.5567777657087698 16.03670369369901 3.620420257022684 -2 -2 0
1654 1 5.606541349234937 13.347788775671516 4.362244003325129 3 0 -2
605 1 9.004547275172419 15.857865829368388 3.6318758125100095 2 2 1
140 1 5.656048205195426 11.130435161925954 1.2077216972221465 2 -2 3
246 1 6.2051506771915115 14.663196719523697 2.8143236497792508 3 0 -2
1132 1 8.013499100827506 12.694741733404182 1.008050923909662 1 -1 1
1305 1 7.8913896414697415 13.933022083594222 4.17145612194429 3 -2 1
1377 1 9.194448064961284 14.008773290165822 2.4734655211560614 2 0 1
2036 1 8.376973397707287 12.763785513342551 6.035542819365777 3 1 2
121 1 10.215729668881695 14.079592373127351 4.801467816625578 2 0 -2
1378 1 11.679892885222493 14.931998037168796 1.5755644605818193 0 -1 -1
1566 1 12.250469886888785 14.003082471526211 3.8477997661826047 0 1 2
2018 1 1.6776950618632744 24.28069809402536 5.944594389501722 -1 -1 -2
310 1 10.103142421133894 16.537870330745015 1.4599981481659638 -2 0 2
823 1 13.24567982763827 15.940807756580531 3.037117084255773 0 -3 0
1657 1 11.18365641797809 15.874545565946267 3.4004497757155194 1 0 -3
1246 1 2.009243567661954 16.689779133376796 1.8089687291342125 1 -2 1
168 1 4.77501768694298 16.89416502503949 4.361294490961891 0 -3 -1
340 1 9.585527447189953 27.37788511889476 13.576554068520194 -1 0 -2
164 1 2.1250471336324326 19.259852453754846 2.52077896109136 0 -1 -1
77 1 4.008079849209951 17.81742064760244 2.5010522867682816 -1 0 1
1900 1 4.055677212767058 20.05591451924053 2.0032582380825854 1 -1 0
1427 1 2.659764081811162 18.247433366969567 4.442167951275783 0 2 0
141 1 10.484062088467539 17.02132570606088 12.868286876555707 2 1 0
817 1 5.368499469713781 21.488935799209564 4.762456017222972 4 0 -2
807 1 13.979198800965712 2.8704580746783126 3.2399190618707414 1 3 2
199 1 6.918094658797788 15.929176032654583 4.181511242149277 0 -1 2
1743 1 5.972972429229123 16.43879084459677 1.8762506414930902 0 2 2
1327 1 8.43178741935349 17.575914100684628 2.465177706995534 -1 -3 2
808 1 6.285502122203727 17.995105050330018 3.241949922574395 6 0 4
1414 1 4.1019926114368515 19.598898737805925 4.265348102808659 2 4 -1
1859 1 7.384928980912426 12.166781883012794 13.715177694862806 2 2 1
2005 1 13.560788082200812 2.4494172209630745 1.2139328702521306 0 2 3
1215 1 12.084963184833263 17.54590014118056 2.093783091903191 -1 -2 1
72 1 9.630121755092066 19.419012249028754 1.556026235873445 2 0 0
1103 1 12.480758615184774 26.87968910156193 12.867867532508363 0 1 4
1629 1 13.17593988226584 17.927347573254103 4.212421051379364 1 2 -3
1592 1 10.297822109705981 20.17023209460342 3.9733786701744154 1 2 -3
1534 1 12.134903978851433 19.830462588635548 2.285177226727846 3 -2 0
145 1 10.531886067232328 18.18191240490534 3.552671652901255 4 -2 2
2019 1 11.681003612299003 19.06435469810848 5.548602209264122 -3 2 1
1893 1 3.2130080629219155 21.409090730013098 3.509690549877923 -2 2 -1
1780 1 3.3940211684059913 23.139460119174394 4.827146953848657 5 -3 -3
7 1 1.3034780579324297 23.739599250388444 3.7990244205100434 0 -2 -1
13 1 2.9753489656323797 23.298383803750475 2.0959854071072495 0 1 -2
1525 1 5.14874432250619 22.530092584789024 2.2977503631260623 1 0 -2
1227 1 1.036299516035013 20.665482586431587 7.447060154694811 -3 -3 1
693 1 1.1764410335514204 21.407822714840535 13.091892690731543 1 -3 -2
335 1 0.6218353218118925 5.30970585382446 10.692318792247018 2 0 0
921 1 5.5336540510011565 24.061311777952632 4.2793524396457965 -2 -2 1
1781 1 7.120341784660435 22.140718345963187 1.2384784088450012 2 0 2
1998 1 0.5405281868509575 23.160583586985297 7.37945531272982 1 1 0
735 1 8.261345458990174 19.870792710699995 3.6613804978184303 5 -1 2
320 1 5.866336594537736 20.40721408082807 2.9527309169897897 3 -2 -2
721 1 7.606557709634149 22.60914701091034 3.399339173230506 -1 -4 2
1876 1 8.516653339193045 23.97834664546739 1.5443675808173245 -1 0 1
1169 1 9.42239124693116 22.030417029258352 4.777573841002778 -1 1 4
1796 1 11.219483653954272 21.802933679519562 2.366683335072902 0 1 0
1010 1 10.151846345903326 22.889797358021994 0.548716954880096 4 2 -1
1947 1 13.190430496431487 20.13044606173412 4.4010042664483375 0 0 2
27 1 8.847472042373521 21.41084484091094 2.284323287379323 3 0 -2
840 1 10.02418566659813 23.480482162191564 3.124721000642827 -3 0 -4
1133 1 12.318703117977652 23.969282708443984 3.7152716961070555 2 1 1
654 1 1.7775430774156855 20.91717381318159 0.8797105490044355 0 -1 1
598 1 2.551790025700667 27.042672865437517 1.6248757156397682 1 1 -1
1846 1 3.6417212888514894 24.880496402883175 3.5329269501407055 -1 0 1
747 1 1.5692309531943134 26.204342605685866 4.454566019290547 -1 1 4
1309 1 1.389940755684985 22.10904230870353 5.503484575007499 1 0 1
496 1 3.187112114768491 27.363872720392195 3.5912873277096695 2 1 -1
153 1 1.9503416517751888 25.2108829146837 2.2662626916127553 -3 -2 1
1254 1 6.508831272259041 24.40521307323614 2.504757353643983 -2 1 -3
1453 1 6.690252802876164 1.0721525704233692 3.8728653152469743 1 2 4
1224 1 5.281297800509 26.362199486323092 3.8950715372655313 -2 0 -2
1505 1 7.019215286866665 26.642814580245563 2.6984657562958674 -5 -2 4
1831 1 13.05170779647352 17.21046015342865 12.987161047900829 -3 0 -2
152 1 8.8345941900293 26.893598773122328 1.1393213863705218 2 -3 -1
1243 1 5.117073218352349 0.9827479696480431 2.216008425920973 -2 0 0
1914 1 9.526936501240497 25.62122948563794 3.0516937695088293 -2 1 -4
245 1 4.549000893979771 26.111634629129632 1.6498196426448053 1 1 1
1245 1 11.142062342482726 25.24293594839167 1.4994469384298377 1 -2 4
1536 1 12.941927428190931 0.6490728527327059 4.630528752836623 3 -1 1
350 1 13.452639867686825 25.614667520788394 2.3221878162872702 -1 1 1
636 1 11.237598674311508 25.908487131979257 3.9642320195777807 2 -1 1
826 1 10.241233475089818 24.183459435661582 5.19863915483361 -2 1 -1
1007 1 11.51136753415905 25.08891498655197 10.447203968796599 2 -2 -1
1776 1 12.651621249667416 23.27252318753999 1.5337067368827058 0 -2 2
1421 1 7.50174162798033 19.243003785826915 1.0626453300886567 -2 -1 5
700 1 4.964015804582769 3.627731528533076 5.127832346184431 -2 3 2
1864 1 0.9543072560383145 2.92316424034793 9.531990211031546 1 0 2
745 1 3.4273579995414276 3.4525551780908286 8.833295789515901 4 0 -2
1193 1 2.5352570599679907 4.410998297319649 6.827537174314051 2 -1 -1
897 1 0.6092227060447747 3.0258055587187656 5.565445543329244 2 -1 1
1500 1 3.9161783745533008 2.452981662052185 6.594345619108443 -1 1 2
741 1 1.754571524368535 2.171315599058469 7.357497530448835 1 1 4
39 1 10.495582874228768 26.91278496631174 11.40817879447833 -1 -1 0
386 1 8.524233238513295 1.3024094955884278 5.756326451462487 4 -1 1
461 1 6.344587629588632 1.5573606517377958 5.8803760614224645 -2 2 2
438 1 8.815723442582922 3.534497017226503 6.076329519789505 -1 -1 1
51 1 9.314462948755814 2.6854641629111535 8.310795466618554 0 0 0
685 1 7.351973222996049 1.8410746261712367 7.739827389393747 -3 -1 3
786 1 8.464393363881248 4.875733960736548 8.686993016740642 -1 -1 0
117 1 5.178059815013158 2.0773198603431755 8.110823652141883 1 0 2
770 1 9.103418680906728 27.530845932655552 7.468863868371491 1 -4 1
620 1 0.9721235979013017 1.3857402126713396 1.5193077347271724 -1 0 0
269 1 10.698935561293867 1.4462929814694365 4.562473477033356 -1 1 0
156 1 13.090004511717114 1.7198378155987848 7.264127545671008 1 -3 0
96 1 11.163567330267695 2.906782707943397 6.5649887853597395 1 0 -4
1308 1 11.045890841000778 0.7360840231265694 6.606035767885249 1 1 -1
1771 1 12.70639554653578 3.2773774669766813 5.218660753728163 1 1 -2
1167 1 11.59083342197493 1.89949895143597 9.049799974205929 0 2 -2
35 1 12.891623039249442 1.1860218651730592 11.331974151775261 -3 0 1
261 1 13.982889815893323 2.3608846472547014 9.453045222534062 0 4 -3
41 1 1.2010041968989555 4.981300875411367 4.873720516160782 0 -2 -1
173 1 10.94247151645831 3.9354415590787735 0.7509242677830714 -1 -4 4
1823 1 1.4570246497587955 4.939117137547141 8.69442279222532 0 0 0
259 1 6.116387313563702 3.807376811531299 7.01541416582465 -1 -3 0
665 1 4.571892772590232 7.453697245573142 7.345801105727139 0 -2 2
570 1 2.368235668531697 7.7018358777002955 5.4871489012651065 0 0 2
628 1 2.5346889058712994 6.4440038765067875 7.037181798062283 -2 3 5
1076 1 14.092709894029882 20.98080064816297 2.5651249504897127 -1 -1 -2
380 1 1.7915002291346778 7.0783001079591354 9.180662534149706 2 -1 -3
1768 1 2.995837108436075 8.580131228614947 8.069478972575757 -3 -1 0
629 1 5.0919821964885035 8.168134474691724 4.731052934162467 -1 -2 2
1316 1 5.327473127175391 5.939766796312126 5.984194897491871 0 1 -1
1688 1 7.039783338795602 6.779086642620957 4.233408747700473 2 -3 2
729 1 7.960404091525701 5.903793451041509 6.537851194151069 2 1 -3
1198 1 6.70850920540244 8.065807166891153 6.499221020835175 -4 0 -1
1090 1 8.743871163343064 8.498502146533621 5.822304822491606 1 0 -1
944 1 9.318167018854362 6.929937765963773 8.094310463198816 5 1 2
1345 1 6.285761999403053 6.337343316281622 8.47412426999428 -2 2 0
1967 1 10.444821682515505 5.072725022302955 7.085496948982578 2 -3 2
283 1 10.609214240472323 6.866206511002672 5.921264006499308 1 0 1
23 1 12.776043367361279 7.611484076807315 5.190140248137982 1 0 -1
357 1 12.671703302933798 5.6198102928027645 6.469409491384366 0 1 -2
2021 1 12.51219748085769 3.9138840237750863 8.399384879839737 0 0 2
531 1 1.5739724585388524 20.162420395257598 4.796916796427876 -1 1 1
1963 1 11.716536361101422 6.439404961236211 8.41926317000038 0 4 3
1638 1 11.103434893929874 12.559590263747436 13.463519921744258 -3 2 3
125 1 10.783013408477172 8.551470414352178 7.313231474710661 0 3 1
2001 1 13.01173864192565 7.708209897633936 7.333759237902713 1 0 -3
1787 1 1.8717642395139211 12.06429533604401 9.690781871377196 2 1 1
1413 1 13.006332807478161 26.664787352445707 10.300714724892797 1 0 0
193 1 4.028215500798538 11.642831996810074 5.8166654918173135 -1 -1 -1
1176 1 3.3536378370406665 10.756542928636236 8.253006875953078 2 2 2
351 1 4.826304747736218 9.671386359022543 6.562094882106979 3 1 -2
1502 1 5.147329570946932 10.292488702839886 10.11520950181462 2 -4 1
1350 1 2.671989124790393 12.815203623819153 7.186368759803785 1 1 3
1912 1 5.376970826386348 11.241225042684471 8.120976893068526 2 0 -1
1155 1 6.34625400811942 8.709599979617312 8.625469863381586 0 -1 0
1717 1 9.146406501418488 9.062728683101223 8.760498996797995 2 -2 0
1055 1 7.529041635941894 9.906927035796436 7.067512737775853 -1 -1 -2
603 1 9.66554646145233 10.628210795897472 6.1970261963242175 -1 0 -1
1894 1 7.230756422598388 10.593093990126805 9.381210553073123 -1 3 -1
843 1 9.300024805767125 11.306932027327603 8.179336476221856 -3 0 1
1721 1 6.279126830330582 11.63198869315688 6.1522271699723605 -1 4 0
339 1 10.770935353015116 9.024321241660552 4.875620115527476 -1 2 2
1395 1 12.66787204641534 11.871135880696453 5.080593311185857 0 3 1
1582 1 12.415155157698647 9.950504730003214 6.527196861548054 -2 -1 -2
184 1 11.129675024650808 12.025538030191697 6.686809620750487 1 3 1
1166 1 13.019940379126385 11.731841187787003 8.563737112962539 1 0 -2
1653 1 1.9493231498994261 9.151415682523197 0.8556194702782716 0 3 2
1096 1 11.26859000241267 10.241137017437744 8.496552322571686 -3 0 0
795 1 3.4268702069806984 11.7230915356361 11.094372574881989 1 -1 1
1737 1 4.026049694602632 12.982186473149355 8.749025687152264 2 0 3
989 1 2.539658640581061 15.019437952382486 6.823633296211448 0 -3 4
591 1 5.696821641748666 14.508205721747954 8.562989943491335 -1 -2 -1
19 1 3.917255411867345 14.070253538584716 10.742889400941099 0 -1 -1
527 1 3.3315856588581116 15.065926110027009 9.011548534410121 0 2 -2
766 1 1.642932962394246 13.060464941427846 11.73847571152136 0 -2 1
359 1 13.827740565590618 24.907303388506136 12.928140498599733 0 -3 -3
1643 1 4.604835407914487 13.416962495510301 6.659671941460875 -2 1 1
18 1 4.470819213433359 15.688212382762753 6.4651480879488075 2 0 1
65 1 6.373424490902501 14.378162519955037 6.16764518850068 -2 0 -1
1588 1 7.5427106186893 15.55918301529916 7.927310249277198 -1 1 4
1165 1 7.2386622602776765 12.715606453001893 7.801227442947045 1 -2 1
1213 1 7.5092049637045495 16.59576869923756 10.03366710776929 1 -1 1
2026 1 8.90770285640542 17.162868832549 7.238139176102701 0 4 0
1760 1 11.044947463971797 14.860327460673949 6.50643174818024 1 -1 -1
1899 1 9.465940708869201 13.843368718534888 7.511593970379159 1 1 3
1822 1 10.334901946960626 14.250197590115837 9.894604944038372 1 3 3
1726 1 8.397605645100224 15.113661588835106 6.0218601066770105 -1 1 -1
1646 1 11.78724395488423 13.583978535803674 8.113657102841461 -3 -2 -2
1962 1 12.658353458800951 14.128331524965017 9.90536021542177 0 -2 0
1847 1 1.59961771788752 16.619290244341997 7.996830763143369 1 0 3
2022 1 3.3508519697198773 20.89815129058462 5.893043217300422 0 0 1
844 1 13.742338717215768 25.489682576340897 4.8233867036043625 2 -2 2
1942 1 2.7406124377970666 16.574754578067704 5.598691208231235 4 0 1
625 1 3.9628032289716018 17.070786658134367 8.189013500054703 -1 1 1
1533 1 2.997285695059188 19.34749778130282 7.192920781003241 1 1 1
212 1 4.575564460602248 19.004960603142635 8.808271202353945 -1 0 -1
892 1 1.304126671415883 18.309092229833823 6.4069773755583475 4 1 -1
1858 1 2.7651424478388096 17.064959671920633 10.289064685784709 -1 0 -1
1039 1 4.502680996661304 18.075972158655404 6.318054233205488 -2 1 -2
1091 1 6.507190741762239 19.180299321163268 4.927494454612429 -1 3 -1
1785 1 5.386187930490987 19.990025302087226 6.825352252172291 -2 2 -2
1836 1 6.393100847342866 16.983311214632543 6.411857152347347 -1 -1 2
85 1 6.415519714176795 17.663123419936774 8.500302910614952 0 -5 1
1501 1 8.559327732737707 19.131481922214 9.662063749494198 -1 -1 2
1372 1 7.424333310034751 18.99016410038795 7.093645216215032 0 3 -1
1304 1 8.079413990878754 17.604297414767807 4.874992870666747 0 1 -2
1728 1 8.711949489663523 20.656900956607714 7.48443004816827 2 2 2
777 1 9.208093554097522 19.48707195087153 5.675058646130961 -1 0 3
762 1 1.9327529548456852 7.154958238801377 1.203493760631178 -1 1 2
424 1 10.32936257955349 16.897727481320835 5.138358541246806 -2 -3 1
1611 1 11.821397517746165 17.07429143097643 6.92905571948487 2 3 2
1707 1 10.285635268979735 15.90138483684337 8.170857849616729 1 -1 1
850 1 10.441109383827069 18.945018820877664 7.417007595154112 1 -1 2
1258 1 13.615847676057944 15.398357261527574 7.43373194388923 0 -2 -3
1604 1 4.283344865377649 21.016081124079108 8.728711116649903 0 1 -2
686 1 6.272492134725883 22.01764917427102 9.580550731818631 0 -2 0
426 1 5.100299623774301 23.01625326123505 6.071715456476476 0 -1 -1
1779 1 3.2268351169090614 22.563505474522216 7.273480785879174 0 -5 1
621 1 4.466042416137107 23.27720967858682 8.735241001919492 3 3 -3
1766 1 2.189636317267187 23.236764368249474 9.190357259343093 0 -3 3
1302 1 3.217827245906285 24.985275370707384 7.747719175974686 2 0 4
1748 1 1.2588700373307802 23.083999880310223 0.884167940813763 2 -2 0
410 1 2.220916424426253 21.112694374570005 9.481918754530227 3 -1 3
445 1 6.699769610640238 21.752737065708544 7.260911074858917 0 -2 2
1365 1 8.47528985329619 21.676762795546708 9.337444543413577 0 1 -3
1585 1 6.511532716818154 23.818997839613225 8.141126939139788 4 3 1
1188 1 7.5035631643658265 23.376252511700933 5.60281032824409 1 0 -3
1650 1 7.467492578541504 21.207855657736673 5.155101072992492 -1 2 0
2009 1 8.43354896877709 23.875532515584915 8.953156224692183 1 1 1
971 1 9.171665095938518 22.861339169917613 6.662319240369512 1 -2 -2
825 1 10.347026673521608 22.945226094654124 8.620199416425079 4 -3 2
960 1 13.525834958878047 23.9307769354426 6.043707324595833 3 0 2
1538 1 12.388189749317316 22.00179531598134 8.218955536295027 0 -1 -3
1396 1 11.685695565223886 21.91085332927655 4.475407103200442 2 2 -1
377 1 11.739007102970811 23.28212349008794 6.371985946716106 1 0 -1
1205 1 12.437425468841871 19.939078697487346 7.720396102434212 1 0 0
1789 1 10.612288251429204 20.629831139959975 8.977290848010275 -1 1 1
1128 1 10.789341367371653 21.28444705811556 6.466141471102631 -1 1 1
1370 1 0.8734712406000321 19.175981518183903 9.15310852855098 -1 0 1
1848 1 2.3016372711411504 4.23695640615192 14.024402318611354 2 3 2
1804 1 1.1504401394014194 6.080846992789341 13.321129302347666 2 2 -3
803 1 5.148959437366035 25.70571632123287 8.361295638511747 1 3 -2
1980 1 3.443884795614903 25.86627083030377 5.564085763870437 1 -1 -1
585 1 1.5197631579345843 25.454142183556023 9.17734434080091 -1 -1 1
1599 1 3.968417829744694 27.48482094056687 7.747048844018097 4 1 1
957 1 5.19195062532623 27.43988195953402 5.926602811356259 -1 -1 1
1632 1 1.3608207373798815 26.675016028619574 6.918485480169788 2 0 2
812 1 1.953234884807926 27.6229568579244 8.845052663254377 2 -1 0
238 1 7.48914921187902 27.12829058929269 5.315277686817165 2 0 0
1509 1 9.73246612203611 25.59745215639326 9.247909930034234 -1 -1 -3
469 1 8.054371230101118 25.08924597746993 4.609094149167713 2 -2 -3
675 1 6.92666297857141 26.917854787767766 7.620388097641256 0 -1 2
1170 1 7.073479175474316 25.663025214618962 9.77534636491442 -1 -1 1
503 1 5.749740184540497 25.127363799127004 6.223412974225813 -3 1 -1
1883 1 8.16091659231325 25.530900398862634 6.928642451301439 0 0 1
101 1 10.474907313116033 25.042251754596876 7.333649859194294 -4 1 -2
235 1 12.010420919607064 25.893761346697097 5.936042138947686 1 -1 -1
1346 1 11.889564148862304 26.915004524552323 8.117385999302583 -1 0 0
149 1 9.690484206792757 26.578612455810116 5.483422818272995 0 -3 -5
563 1 10.103122357614795 27.88698672512296 9.440674164982296 -1 0 1
1397 1 12.56733991062291 24.161248398931782 8.563143346990628 -3 -1 1
1057 1 13.110433515070657 27.628545484738893 1.3448385761825603 -1 -1 2
1435 1 3.4468569138027796 1.2967036995662928 9.485368636554632 2 -2 1
743 1 3.1569764519602086 2.3093161915736333 13.019421481585994 -1 1 1
1978 1 2.7719297398352913 3.894056422660008 10.75469361940326 0 2 0
480 1 4.4330178252649475 4.225377353406401 12.341806008251892 -2 0 0
472 1 5.178647881105066 4.868398604203261 10.524841055291786 1 0 0
115 1 4.910831347812769 2.733512144494067 10.548889785753312 0 2 0
299 1 2.668843423878957 5.504695986485377 11.836471677400231 -3 -1 1
1762 1 1.8222537861467933 1.8372604568278574 11.233747743875266 0 -1 -2
1473 1 8.055072490978066 0.4524031349488524 9.837531489697968 0 3 0
1746 1 6.703819040424948 4.087871200891573 8.82808151616909 -2 -2 -1
1404 1 6.7268717148151635 3.4897702156264065 12.015471829091792 -1 1 -2
1456 1 7.5863905742671225 2.3762115171517646 13.60122138116978 -1 1 -1
155 1 7.0941959994186075 2.2264198234733685 10.00724135479727 0 3 1
436 1 8.643505407762818 3.6420233164258407 10.795939475566978 0 0 0
3 1 8.53453985003233 4.622099784045642 13.238093084072728 -1 -2 -1
464 1 5.963307280912645 1.066007435018741 11.80539631008404 -2 0 -4
1850 1 14.100081839421474 18.718416437024963 2.4342051642040907 -1 3 0
519 1 12.438193603098348 3.8300300073144378 13.318808343450865 1 -1 3
943 1 10.594037660070082 4.180631780838739 9.600687197652844 -1 0 1
201 1 9.994483050802875 2.883349063772165 13.098973469951055 -2 1 -2
1086 1 12.684440127406383 3.48420742322841 11.056569469939891 2 0 -2
1810 1 10.426826753502404 2.4052648724394636 11.061577532143394 1 -2 1
415 1 11.68181924967234 1.6329262004789484 12.880352073054137 -3 0 -1
50 1 0.635111413555064 16.92702068543452 13.149653238902877 2 2 2
227 1 4.467554828610746 8.17416286751168 9.74455137298046 -2 1 4
1648 1 3.548585573366754 6.030687404588695 9.77789034078072 1 -1 0
383 1 6.306751089564008 6.050381991010005 12.72097908204257 4 0 -1
707 1 4.237432505197578 5.206247844895006 7.8412935772706955 -3 0 0
136 1 2.6472384734351766 7.585442358008209 11.299280214622923 2 1 1
903 1 4.322813031090458 6.814343901834751 11.929384791165743 1 2 -1
966 1 3.973481563278369 6.181951902058114 14.055569559832401 -3 2 -1
1919 1 6.136072603551246 7.152559030711642 10.601078517004286 -1 -3 0
1928 1 5.239661861340693 8.135885998202845 13.704702987886956 2 0 2
927 1 0.6004774854107329 20.072311887620522 11.410466282028624 4 -3 0
1083 1 7.3167573631186 5.41779518458496 10.75097431625444 3 1 -2
1938 1 9.369141723885889 6.416891505665477 12.146386142321173 -1 1 2
1745 1 7.66493936604407 7.846136663890632 12.798712044109767 1 2 0
1685 1 8.261274606228273 7.463836063056123 10.263929433496914 4 0 -2
615 1 10.093913788194323 6.300109807911372 10.139648169399283 -5 -2 1
189 1 0.9655892085973604 12.63552299089094 14.06162236386755 1 1 1
192 1 12.162906418686239 5.375261561275295 10.146663010179095 3 0 2
606 1 11.027198977577232 8.236558179035082 9.889767897070271 2 4 2
1573 1 12.145791755039236 6.972037739801424 11.765168760644833 -2 0 -2
400 1 10.65483866393759 5.013046046037233 11.988225388813605 2 -2 1
157 1 13.793104976229996 5.16312546869038 12.326159415122822 1 0 -2
1031 1 13.166592629157176 7.603206426659999 10.059311974034898 -1 -1 -2
1195 1 4.580638658783128 14.935929136135716 13.991292734377982 0 -1 0
1040 1 5.2914206458469595 2.18045129631669 13.60350497581961 0 -2 1
1929 1 14.035543496176993 15.11168356610205 0.8881689542069092 -1 -3 3
1046 1 3.7732338344818332 18.891051830867013 13.940152571600644 3 -1 1
1970 1 5.588606100471335 4.388557672821063 14.133938015345212 1 0 0
1138 1 13.649240818927648 21.74892959979914 6.058610810914572 1 -1 1
490 1 2.6555415754479643 9.439509415181796 10.128237899436563 1 0 1
887 1 4.457578087655708 11.131719275863313 13.058144189114074 0 0 1
1641 1 3.662480320951181 9.154532954100924 12.424056584917533 -1 3 0
1053 1 2.2062595930270827 10.935353832597473 13.167401234791631 0 4 -3
1953 1 0.9933624371898399 10.625073457384666 11.144180533297213 -1 0 -2
1683 1 7.100508995136969 9.967033561259862 13.650292264684776 1 0 -2
266 1 5.775766901185087 8.85418175197963 11.886523584018954 0 -1 -1
1996 1 8.153000350823461 12.40694285640253 10.523753770375373 1 -1 4
87 1 9.200053057162206 10.689430745389977 12.277507446188121 -1 4 3
1904 1 7.937704093478069 9.4115527544563 10.880160814015024 -1 0 3
794 1 9.870562145603962 10.541550792309403 10.382880410568522 -1 2 1
697 1 6.537314760206452 11.062321662872112 11.761362436885257 1 0 1
1037 1 6.356959762586991 13.694161276303522 0.7946758804359093 1 0 -2
54 1 5.458878770461017 18.690766065326294 0.6795523497824612 1 -1 0
1569 1 9.895157686264616 8.532093525439894 11.886898800464488 1 1 -1
789 1 13.651158541651853 12.004315824423232 10.81734264756435 -6 -1 -2
567 1 12.655189314609592 8.992729114415738 12.123220640530985 2 0 -1
673 1 11.70561544447805 10.912387120311216 11.59473107750969 0 -2 1
24 1 13.074139439201351 11.499810382452399 13.247158698268786 1 1 -3
501 1 12.64502255871865 9.533312584706547 9.929831292920904 -1 1 -3
477 1 2.453365742040058 7.868564186712076 13.793205684474547 2 -1 2
1098 1 12.716758721069755 15.470192151165316 13.90183665082558 0 3 1
1282 1 13.39021725856251 6.82978556152578 13.643973734644852 4 -1 1
799 1 0.6808213162147383 8.153355101566197 7.498938952769667 0 -2 -1
769 1 3.4720350068726114 13.215904272048094 12.88000203023824 1 0 0
1574 1 5.700716632213619 13.3522435020669 12.397551282940707 -1 -1 -1
1418 1 4.314545164978232 16.17581011151015 11.796921654076684 1 -1 2
1884 1 2.071315522307245 15.270268317999449 11.658367825909393 -1 -2 -1
1051 1 1.9321738184035666 10.077832585383279 6.727430429415897 0 0 -1
1757 1 0.8040906061279273 21.635637018210318 3.3039997835902426 1 -1 1
846 1 6.587523238878821 14.695982133133196 13.923082526212108 1 -2 3
487 1 5.882028032778937 12.617584465197131 10.125861334402131 2 3 1
1444 1 9.348560777735054 15.403888024033929 11.234801708111664 -3 -1 -1
1652 1 5.918412535749714 15.045059835000966 10.929615224079555 -2 -1 0
523 1 7.920735521701569 14.322437998695186 9.764526976958148 -1 -2 -1
774 1 7.6578398376992585 14.103404379113652 11.949800890810845 2 -1 1
71 1 9.42842622678997 12.998236068880967 12.09564842341593 -1 -2 -2
859 1 14.040854732085613 22.508515195549037 4.240681402281564 0 -1 4
1990 1 1.062224502228902 3.753923931295662 12.328738241297328 3 -2 -3
584 1 8.772310150117555 16.152257391281307 13.98004229847623 -4 1 -2
165 1 11.078022100142007 10.163518686317078 13.5042377854744 -3 -2 -2
319 1 10.920988588603128 12.355350246278032 9.477444819643361 1 -1 3
1008 1 8.430544944748306 19.24518527078059 13.025900763271503 -1 -2 1
1134 1 5.606273040842345 20.882647541202708 0.6876833968357154 1 0 2
1127 1 10.598577535714426 14.718875270174248 13.340659283653114 2 0 0
219 1 11.63576185464962 13.061244672008007 11.493088090628634 1 -3 2