LAMMPS data file via write_data, version 29 Oct 2020, timestep = 300000

2048 atoms
1 atom types

0.4560834882223652 27.895916511775752 xlo xhi
0.4560834882223652 27.895916511775752 ylo yhi
0.4560834882223652 27.895916511775752 zlo zhi

Masses

1 58.933

Atoms # atomic

767 1 3.1891225828973964 3.403300340486744 2.938090554365243 3 3 1
897 1 4.080955065860131 0.9967523776463045 4.240132113911825 1 -1 2
255 1 13.853389611056665 3.982074624251398 5.880343269904802 1 2 0
1838 1 1.543572772746185 4.277229742480113 3.8402735455435275 5 0 1
1977 1 3.303676294675149 3.555691403697911 0.6957971600673455 5 1 6
360 1 3.1825756655254525 1.2470688723566559 1.8861393991997697 1 2 2
2038 1 5.480805215783953 5.245212992114879 5.031729212146048 1 1 -1
1206 1 5.358518900980073 3.8795979782302275 3.133455372603433 1 0 -1
497 1 6.529764095837637 1.9148632862990758 3.7201422775746757 -1 -1 1
1668 1 7.093426828163341 5.12069103410498 2.7891713103876814 2 0 2
162 1 7.773922765494157 5.96927159591746 4.791641407515728 2 0 1
1003 1 6.955143821413387 3.3149762868618216 5.833986220677394 0 0 4
1036 1 8.163252841891913 3.556931014680957 4.08015723759374 4 -1 -3
1822 1 1.0401284883684758 4.709054954030193 10.384239970220241 1 3 2
74 1 9.198523099931911 4.878430281114344 1.755416578894094 -2 2 -1
880 1 1.4583920924636955 19.82739115334397 3.3794852980659287 1 -1 -1
691 1 7.5978663081916 3.065505814195194 1.7600753883267912 -1 1 1
618 1 10.188099624943126 2.945478400446951 2.850987964458772 1 0 1
1706 1 13.010484347412344 4.344100824111512 3.9337711093036893 2 1 -2
135 1 11.825929154853895 1.6172447804539012 1.6672074524715865 1 -4 1
1653 1 10.414685974443433 27.555815838444424 5.726207504551042 0 2 2
100 1 12.98101037567234 2.3240498277044113 5.149232000269384 0 0 0
891 1 0.665432023125248 24.45810658278673 0.8349869702675792 -1 -2 -2
1162 1 0.7099733377284324 1.7063202557385218 10.484505777532785 1 -1 3
1690 1 2.152344824352325 5.5681185249296155 1.2681833825127349 3 0 1
82 1 4.255597526512443 5.258625847700058 1.8198023412865234 2 -3 0
1621 1 3.296341579588179 5.323554158007411 4.079377474367613 -1 3 -3
1975 1 5.025244107495906 6.724917980763867 3.3807945631808414 3 -2 -1
1611 1 3.52963564648165 7.552305114553251 1.4295635607131785 2 3 2
836 1 1.3319443473988493 7.78098551372388 2.3240600804894984 0 1 1
1661 1 13.24225811690513 14.24018043610503 12.595204062089582 -1 -1 -1
1533 1 2.0693088900241707 21.80345933573766 13.995924607540523 1 1 1
448 1 10.577826393737167 6.675771662110392 1.9165681500120775 1 -1 1
857 1 6.396333569953759 6.941949812425114 1.8355363508089462 0 -1 1
1160 1 7.046087244196771 8.12698917881669 4.2759041742470405 1 1 2
1245 1 7.665896001267195 9.128260669194534 1.8930108600630835 2 -1 4
641 1 4.763011497511071 7.114785621645949 5.632219368980334 1 -1 -1
4 1 8.559956011505342 7.122996620404756 2.975538130714632 1 0 0
1328 1 8.900203872745927 1.762042083736093 0.8791564329409858 0 -3 -2
2010 1 11.20276067730402 5.282812165148178 4.49316516907436 -1 3 4
709 1 10.889846107682676 7.920302409351695 3.7306919893208987 1 -2 0
1771 1 13.629338695807757 18.66007718591363 6.866144035086244 1 0 -2
1408 1 11.446964446895102 4.592251740738469 2.1106470679138307 1 3 -1
1910 1 13.999552346857305 5.056987811794023 1.765088707936598 2 3 1
825 1 12.864508639748172 6.503510378028136 3.28143441931494 4 -2 2
905 1 13.296794227875116 12.746649224635364 0.6891157214039617 1 -2 7
117 1 3.2966475717391877 9.292849377299783 2.9769201069528575 2 0 2
1959 1 12.011963147474631 16.665707228343482 1.6147269149112153 -1 1 2
707 1 1.5846269024339257 9.793940197715266 4.017537725322662 -3 0 1
1898 1 0.7683200456800925 12.018709282996246 4.344203659849757 1 0 1
1304 1 2.841709456675701 11.352920976902098 4.96870170262217 1 2 -2
1955 1 12.224030827530225 7.993408639766541 1.512904579348881 -1 -2 1
1279 1 3.1974700889745007 9.825286451183663 0.9681238888703536 0 -1 -3
57 1 8.999530859024508 9.053667127228154 3.9346159567176535 0 1 1
739 1 10.02863045846681 9.566079079933974 1.853373039480478 3 -1 0
5 1 7.109650996903421 10.297255892987302 3.910660348004776 -4 -1 1
1688 1 5.410886665488255 8.957145257826971 5.707126086770271 2 -3 3
1608 1 5.42533444515702 8.694352714027834 2.8014898009680618 1 1 0
1356 1 4.920890027202816 10.259490606047358 4.013175759843762 -3 0 3
1032 1 8.449269439642098 11.218396803225724 2.1577030681984057 -1 -1 0
1475 1 8.663830302515132 11.08868847829165 5.05420965415162 0 -3 -4
997 1 7.660464659611391 9.502679442845478 6.136527801982013 -2 -2 0
144 1 4.344890385282092 12.029138468397456 6.320856334085432 2 1 -1
146 1 12.66882693423943 8.629083630164235 4.799527037155734 2 -1 2
792 1 10.687655138678393 9.691957782232581 5.59196270127896 -2 -1 1
209 1 10.41833119651964 10.783057425216878 3.4651279132958943 1 -3 0
992 1 11.203935185579233 11.9758322934677 5.561100953341479 2 2 1
1664 1 12.579962842683125 10.719236153618033 4.324867642776881 3 0 3
658 1 1.5374357284374651 2.6818656638134186 1.8455001404001528 -1 -2 0
288 1 12.59514727930166 9.953416767291152 2.2848274064958805 0 2 1
918 1 11.749550741019288 11.712629759415671 1.6465518433735082 -2 -2 3
935 1 2.0858936436608357 13.378173040429017 3.322901323650376 -1 3 -1
87 1 2.499532055021239 13.492031855112712 5.482656244192196 0 4 3
373 1 0.538384532737556 3.2895996162534193 7.734488032689121 1 0 1
1712 1 2.622498144953063 15.777527511849458 5.096033529643649 0 2 2
680 1 4.886702432144454 15.889571369494515 4.357433799386868 0 -1 0
196 1 3.2854665182857077 15.150245467423844 2.7854943527898732 4 0 1
1650 1 1.6430740480011938 25.96806243417954 13.95461967550442 -1 2 0
328 1 4.52107431272634 11.532783095263476 1.9496032859233228 -2 0 0
1623 1 6.1614073663366655 11.42483135755433 5.476793395218437 1 -1 -1
498 1 9.216732832057652 13.222975238910406 4.188192925591425 -3 0 4
1288 1 4.586192277163743 12.775712652331693 4.013123780333726 1 2 -1
924 1 7.4409741214022835 14.028298014194682 1.722813972020494 2 2 1
873 1 6.652984538864628 12.335124347453805 2.6128009783540755 2 -1 -3
957 1 7.122946690320727 13.191642601626436 4.916956720102361 -1 -1 1
890 1 5.2626885819291305 14.197555490042284 2.4286492857624173 1 0 -1
154 1 11.506815625004013 12.625457386360196 3.5414690518491283 -2 1 -1
1610 1 9.97394114298052 12.754335338875055 1.8567153757359995 0 1 0
1757 1 13.730430816369855 12.430721009902657 5.612856087014813 1 -1 1
192 1 9.102428015757347 14.940162628550102 2.733806905868636 3 0 2
1258 1 12.121589028350435 14.508351096603322 2.2507544134981066 0 -2 -3
2030 1 13.531704610900848 14.453823912330563 4.267835586003776 3 0 -1
1996 1 2.349696964115515 11.309076622292976 2.7004480505454738 1 -1 4
1199 1 10.764940655927367 26.297834829583696 10.583037313384684 -1 0 0
1460 1 1.3588496701803914 18.017830747398236 4.403705306199757 3 0 -2
1665 1 3.3712182862366205 17.34548278872857 2.923283766079663 -3 -2 0
1413 1 2.9768939266130787 19.494680834415426 2.2204067358512933 1 1 1
981 1 4.515977134774159 19.625863567571944 3.9740770382255515 2 3 3
543 1 1.6150717683363311 17.907986078812236 1.5136567896642354 -1 -3 -1
1984 1 3.6314706340350154 17.753087381517677 4.976486947962022 0 0 3
47 1 6.721856699941946 18.87383519084726 2.6100770749661097 -1 -1 2
1620 1 7.988054738887953 17.099285972419626 3.5286603707743978 0 2 -1
1520 1 8.45536344126608 17.992687756196666 5.618881569186608 -2 0 -1
7 1 7.053254720083217 15.156525114369204 3.760573041016889 0 -2 -1
528 1 5.878165111065687 16.768936669348783 2.6995403765683403 1 1 2
937 1 10.450563021697645 16.786372456844937 6.254460146459409 3 0 1
76 1 8.492526264000233 19.92459991337504 3.2859065047328415 -2 -1 2
932 1 6.013373807307251 17.821728713626513 4.470883924052119 0 -2 1
943 1 13.291028466548417 25.958876345132172 4.338185638021507 -1 -1 1
1470 1 8.859686144231569 25.590649615861135 0.6137536427826698 0 0 2
1934 1 9.582389698776879 17.91301974052882 1.4694181029992044 2 0 0
540 1 10.55786982938637 16.309757960778715 3.821431008812033 1 0 2
1739 1 10.126906527683225 18.559653827600034 4.003250077697084 0 2 2
1850 1 7.692990226424842 16.27525702899778 1.4616046163134426 -1 3 0
621 1 13.851360578862751 0.952909873443968 3.0377760904087663 2 4 -3
1812 1 12.103386556420947 18.04844099188195 3.0756958478248437 2 1 3
1528 1 5.328591343150751 20.19567198970681 0.6386427442759393 2 -1 -4
716 1 2.981088694220939 19.948528017120232 5.318388089801253 1 -3 1
590 1 3.1149037788860268 24.154272837647472 1.1390312221389531 3 -1 0
1221 1 4.169710921241504 21.242058700145368 2.471078678171091 1 0 0
725 1 2.9003306345446838 22.015552954238732 4.233965985942621 0 -1 2
2031 1 2.257171622963594 22.35512105925517 2.08682787532008 -1 -2 -2
1332 1 5.006962794833663 23.04692602263288 1.183545622192158 2 -1 1
1662 1 4.956659769898006 18.399225025437577 1.6672335444669608 3 -1 2
1394 1 0.6519728157277275 9.899929356862273 1.5711458256146558 3 -1 0
1202 1 5.350434941273962 22.696704345443937 3.761966318123521 -2 -3 -3
175 1 6.253481117601699 21.08327571650881 2.5777306185755866 -3 -1 4
1177 1 7.252707028193284 23.170495467227916 2.534191946524295 3 2 -3
512 1 7.474664776263748 21.74259357352512 4.1884322286776445 1 1 0
625 1 8.765619188016853 21.479862998319 1.7753264975145358 0 1 1
2007 1 7.1718219205273455 24.77215796943979 4.301483520358334 2 0 1
1961 1 13.659280972538703 16.715379036314598 3.913967214163484 0 -1 -2
1439 1 7.236211433063321 19.581163796243132 5.0815517796972225 4 0 -2
1070 1 9.840266332276322 19.976594004912467 5.440528388823967 1 -3 0
406 1 1.3750621655390993 12.926785484004933 9.731595633447242 5 1 -1
1877 1 13.290586859475289 22.331100589360187 1.4100872542858578 0 0 2
458 1 13.195669297497808 25.51160926899566 7.437497335821622 -1 2 1
1474 1 10.413717800253202 19.981910392280202 2.157604081354931 4 -1 -1
1766 1 10.922943364769473 24.097581598906196 4.365275350090247 0 -3 3
637 1 9.71774276236844 21.70594214930331 4.007699675542041 -2 4 -1
1794 1 10.807682660772443 22.529022270852156 2.420470707458975 -1 0 -3
503 1 13.133739669346978 22.15212545556498 3.6836570627429435 -3 2 -1
1031 1 12.812875975321253 20.21161818123699 1.9958199614399155 -1 -1 -1
979 1 11.56975215849132 20.649180734913777 4.179605458150098 0 -1 -2
1916 1 3.708981319730462 23.839507637293046 2.9884289666270623 0 2 5
1716 1 1.4660763934733876 24.358797017518246 2.833814800290072 1 -1 -3
153 1 3.81971910407731 26.303519274698964 1.3139426848370523 -2 -2 1
1902 1 3.6562671911904285 26.082893239116174 3.5712571198059337 1 -1 -2
1846 1 1.8082288119996508 26.103254081213887 1.8315382816366748 -1 0 1
1919 1 0.6743503341708299 8.320740726346397 4.981708684524317 0 -3 0
895 1 12.179758750861044 25.066551607169306 11.733079902805136 -1 0 -2
1968 1 7.34996876138828 0.5146878052532112 1.450271138561313 -1 1 1
1606 1 9.280654765038829 23.38858610464351 0.8435991437447847 -1 1 -2
1429 1 6.522871468139179 25.947938991836143 1.0653828425361307 -1 -1 -1
1907 1 5.514754992058037 25.090016942645406 2.576364420111177 -1 0 -2
516 1 5.207954161373872 27.45433698675091 2.67682003353442 -1 1 0
520 1 8.899358202655321 25.77903502288251 2.6585381882433445 2 0 1
206 1 11.67940838335401 23.474973979112452 0.6021759037213844 1 -2 1
982 1 7.417747593773177 26.953557612074974 3.783544430816934 1 1 1
487 1 9.401887549191414 0.6851437098354465 3.3281447794925385 2 3 1
578 1 12.97157743675118 6.046298919362763 5.7802786304465394 4 2 -1
283 1 9.260376164846264 23.75534692135801 3.228228800840104 2 -1 1
1449 1 10.365233491695413 27.208968087895386 1.539825906190014 0 1 1
375 1 11.78438936521303 1.0948004587495008 3.742498600731094 1 -1 -6
351 1 10.793091751406276 26.439775242371635 3.8141991019270507 3 1 -2
631 1 12.707324958172183 24.112904835651666 3.1527103663227765 0 0 4
1598 1 1.9139978039456862 1.9631449838640085 4.363984957844185 0 1 0
1310 1 0.5234953092698547 23.826445451724947 10.965370464984113 -1 1 -2
1018 1 3.3527274760617716 1.2834860860822184 6.37994046807901 0 0 -2
450 1 4.317837325281914 3.7477577120785406 9.549416383124635 -2 0 0
1900 1 3.223239583967844 3.3464113291849484 7.486778127148289 1 0 0
1715 1 2.1045495394445184 1.4533356040840393 7.998597338999731 2 0 3
1270 1 5.336050173474762 1.9448163355642676 6.543157037387573 1 -2 1
1274 1 2.24735921316926 3.345697215605148 9.303767899055865 1 2 -2
1526 1 5.1803054893350255 1.750140182320539 8.7387387537441 -3 4 1
327 1 9.261630235284041 2.744568508608933 6.723431085798061 -2 1 1
414 1 7.28080312994597 1.836940604263411 7.346127250058699 1 -2 -2
537 1 9.549561868782739 1.1157704189803854 7.90888952963406 3 -1 1
370 1 9.212063156473002 2.4452534249981803 9.692634321484588 -1 -2 0
983 1 6.59596741001056 3.50902014909285 8.395069537098806 2 -1 3
502 1 10.680245106565593 2.5810777896825416 4.804239620941328 1 0 -1
1614 1 13.153924027226074 3.360283307421157 8.23053419410514 -3 3 0
811 1 8.335531764720113 1.5436526202755632 5.114021523710328 0 -1 -1
11 1 11.667396336188403 1.877840735636188 6.780006122198574 -1 -1 0
1317 1 1.0039775320216082 0.5316095767061637 5.885231648075253 1 1 3
1430 1 11.56803162953705 1.3412108942226246 9.73517634829986 0 -1 1
113 1 10.803231158263111 3.3462388925898887 8.452354488363891 0 -1 -1
939 1 2.8559848370011727 7.393672992372816 3.8847100780432964 2 -3 2
1192 1 7.7546332244772005 19.979837535887828 0.8477126195998873 -2 -2 1
1148 1 1.7836448064870833 3.3013634470825197 5.9572545407085515 0 1 -2
451 1 1.5830610444459494 5.184997773696815 7.957896627373241 1 2 2
1000 1 4.435121597392222 3.0468846969329 5.111817791844334 0 -2 0
136 1 2.9816244408287873 5.186941376616401 6.08140672243409 2 1 1
608 1 0.4996611806544321 5.971241636810567 5.224341096481494 0 -1 -2
1718 1 3.62587997213588 5.693695895139881 8.785257344312354 -2 -1 0
774 1 10.403778706281892 4.612565375538817 13.701951531381054 2 0 0
1781 1 1.8873107542167524 7.2253155681416334 8.591774701415515 2 0 1
1373 1 8.662994734070248 4.46106229635464 8.619785876996662 0 2 0
1281 1 4.887855114641908 4.502427806781751 7.053079724475827 -2 0 -2
393 1 6.0746160148541035 5.395195125191061 9.592344284754134 0 -2 2
388 1 7.503673187597715 5.17900965668907 6.826437883679517 0 0 1
676 1 3.8607863117271983 8.014274816281134 7.526839044115688 1 -1 0
1896 1 9.529513441960331 4.8394584391477125 5.615004898205012 3 5 1
936 1 7.522752819179949 7.285365834518779 6.280579906299027 1 -2 -3
188 1 7.872601486426397 6.552836212606474 8.423033169000067 -1 1 -1
380 1 5.761428237889862 6.564281822253049 7.420649964694834 2 -1 -3
1290 1 6.379118121962583 10.770900883208963 1.056113532055495 1 3 -1
115 1 9.521424941115164 7.229402671195369 5.287382952194913 0 2 0
1455 1 12.43188568397035 5.468189922363949 8.17050848632934 0 1 1
1622 1 11.596259476001437 4.17504339333735 6.495337586039956 1 0 2
496 1 11.288862646971777 7.401593389673204 6.166893763039577 2 2 -1
1885 1 10.274526436156284 5.9791125556656235 7.725152591988017 1 0 0
1562 1 9.476848444604485 7.742154853820585 9.919776213283052 1 -2 1
601 1 11.567680416047775 7.78901397209841 8.857391454773863 4 0 0
1066 1 3.306589441213457 9.522072781754309 6.04740430907786 -2 0 -2
706 1 2.0074609711080615 9.473811407183833 7.690399155117234 -1 -1 0
233 1 1.1534818398865 10.509107947514211 6.148428043000764 5 0 2
1527 1 2.1709004872491278 7.3908856408811525 6.104018298077896 0 2 2
1981 1 3.305349700421597 12.21982823275568 10.7556436830619 1 2 1
428 1 3.240669904331012 9.208848783776833 10.24842661652167 2 -2 0
1185 1 5.3853673219915645 10.322068752944988 7.341992795673627 -1 0 -1
111 1 3.6329837066456196 10.632103999089797 8.520647798473778 0 -1 -1
2048 1 1.8732590201736505 12.152181278835961 7.363700999170632 -2 0 2
277 1 9.003044483767832 10.770389245430168 7.318813768952594 1 0 0
436 1 6.617307168672684 8.397655810781105 8.081838870828822 0 1 0
1847 1 8.156355347014172 9.555264188572611 9.0500770259896 2 -1 3
352 1 7.142652118170269 11.356881724306657 8.637828485471905 2 1 0
1381 1 5.928642788659591 9.902620749197101 9.710021380697818 -2 -1 2
1254 1 0.49609973001225866 17.742924815459457 8.577830675464517 -2 1 -3
1513 1 9.418738175523858 8.467486413671063 7.640184599413525 -1 -3 -1
28 1 1.4473063163198465 20.457272646009564 0.7486662316331695 3 0 2
1819 1 12.638934359710074 10.794946330007237 6.771397266955157 0 -1 0
1648 1 12.6833376451363 10.83449224390234 8.857176302603063 0 -1 0
780 1 10.796903940761956 12.185063624842853 7.6062560469558536 0 2 1
112 1 10.344960675920195 11.906392696613022 10.041289894826424 -3 0 1
302 1 11.115644047590306 9.753404041053315 8.083374931550464 -1 -3 1
602 1 12.558870559808838 13.449705307189127 6.640083101329202 0 1 4
585 1 3.380027638226788 15.375266002398043 7.353578678600186 -1 -1 1
1352 1 0.5998557646606368 14.571583936367158 5.53786616118763 -2 -2 1
1330 1 4.471647800010122 16.31985186941287 9.380805804637715 1 -1 0
2019 1 2.121580657937874 15.953907260056972 8.985944831850642 -2 3 1
1855 1 3.516010320064263 13.077188216389919 7.82991613691018 2 3 1
1728 1 1.222911247351413 14.312986641707987 7.642345152013862 2 2 2
1022 1 5.018407045599836 12.223360972254273 9.093340413496454 2 -2 0
508 1 4.765879469458946 14.180390200494026 5.888321660370226 0 -1 0
1865 1 8.818871337854455 15.46532472280513 5.445784720322915 3 -1 1
445 1 8.896280639658178 12.901227392338935 8.618306242696402 0 -2 2
325 1 6.393688731572858 12.87430358944343 7.203516997115183 2 -1 -1
1785 1 7.069232255567134 13.568196527272132 9.343326772644184 -2 2 -2
2000 1 5.316035185306771 14.651063936633884 7.907344378879257 0 2 2
1459 1 7.836314202299122 14.455261543407937 7.142762097483242 3 0 -2
439 1 8.391519006698374 12.51909132838067 6.468517933887219 1 -1 3
124 1 11.069545560885494 14.422706396990568 4.435687528381501 3 -2 1
542 1 12.488122542552173 12.87486687497937 9.441620056447976 2 0 0
671 1 10.338900612574266 14.285988971923917 6.748381013760066 1 -2 -1
313 1 10.630928508401494 15.80942345878871 8.146555334678421 1 3 -2
1751 1 12.75647087193304 15.117226176311513 8.583526432986838 0 -1 0
845 1 12.373658954509045 15.645200120879151 6.130578271602539 0 1 0
466 1 14.172187928074836 10.94339237244122 10.383846460561651 -3 0 2
1535 1 13.943146287676383 24.795542816038754 1.067030524552916 1 -3 -1
1913 1 10.33503514776566 3.3943627090277326 0.6634736578165367 0 4 2
1453 1 2.9885418825216696 18.454997720995383 7.344776773752285 1 1 4
1542 1 1.293550880331228 16.83384494042373 6.661446397616067 -1 1 1
86 1 4.709194518251962 16.657031390802754 6.541399301314663 4 5 3
37 1 4.775319063456217 18.04630236505346 8.385548746169839 -1 1 3
1369 1 3.0701370711563176 17.92682115010655 9.624758948261379 -2 1 1
931 1 5.027618810537049 19.22862598759852 6.215454215842136 1 -2 3
300 1 4.181031250701064 20.370435945006022 7.967567397586275 0 -4 2
785 1 0.8422839900236946 17.72540292257314 11.02349480128679 -3 1 0
711 1 6.554448256389263 15.570575422049075 5.841779559171258 1 -2 -1
1564 1 6.971028834868012 18.731569278165328 9.315730980867041 4 -2 -2
589 1 6.540777567317716 16.17873466003551 8.877631483910791 1 3 1
974 1 8.251342289911982 19.32840385814241 7.367947047656507 -2 -1 1
197 1 9.435927373830717 18.13037431703102 9.061848320061777 0 3 -1
1112 1 6.43381914050229 17.787470277220425 7.082639352098525 0 0 2
198 1 8.582154971181058 16.529841982752668 7.368012354876697 -1 -2 -3
1198 1 13.37529549768457 19.56505990931858 9.017689437132743 -4 0 -1
253 1 11.81597274827638 18.09805753303345 5.2712246984225235 0 3 1
881 1 10.500722064502657 18.803441817093507 7.384924623261643 2 2 1
274 1 11.263668119920622 18.935841887357057 10.036599000611266 1 -1 1
515 1 12.662729559270856 17.41191988101458 8.26014119618713 -1 0 1
783 1 10.69833612148195 16.844012228555602 10.136476905289339 -2 3 2
1380 1 11.753643545930181 21.02346896389041 10.465596951312532 -1 -1 -3
1403 1 4.877701242413498 21.39432267917378 5.469876642814703 -5 0 2
1835 1 4.291726461599988 23.836791907254547 5.412835261870747 1 0 1
1859 1 1.4249751243860622 19.7311093806018 7.7276883855062275 2 1 1
1828 1 2.7410613748429546 21.393095818378153 6.71618452591954 0 0 2
1940 1 11.05467796824846 24.97401532520101 1.9468038772420755 -2 0 1
312 1 4.277198691565812 22.745099875811338 7.465880328806835 2 2 0
1311 1 2.5909274367911697 21.0202181588654 9.191404958551509 1 -3 0
463 1 1.9618548674322756 23.499378039414086 8.696247529098915 -5 -1 0
1574 1 8.169382976874063 21.23349612713162 8.515046736307577 -2 -1 -1
324 1 6.295997756856126 20.567664859368165 7.098160199397842 -1 2 2
185 1 5.306828882145957 24.53945747712894 7.5836318692359095 -3 0 -1
264 1 8.07690011803015 21.513288108998314 6.250717098637078 -1 -1 -4
56 1 6.3369489409389415 23.29826669800643 5.943255794769696 1 0 1
906 1 8.275185626897084 23.964109399737207 7.5569733916303266 2 -3 4
1609 1 6.441944196686316 22.657150799692143 8.111408118969734 -2 -1 0
241 1 8.805558933663916 23.62376065381338 5.477583213346729 2 1 -1
1314 1 8.059068072974128 22.724426715058136 10.300939533714349 -4 1 0
43 1 5.697971264058481 6.379520498082279 13.545350508672788 0 1 -1
1303 1 10.065462192845091 20.327033330813908 9.142063982735989 4 0 -1
1563 1 12.024518787571388 20.14226259410054 6.244020107127078 1 -1 1
1720 1 10.35465989106122 21.43975337129569 7.317722981944848 -3 0 0
215 1 11.23541381238297 24.643629872331474 8.904939441234037 -1 -2 -2
1933 1 12.259048054264191 21.27885844026943 8.12864486879632 0 -1 0
842 1 11.31931791424671 22.28285086705141 5.76434826836778 -1 -2 1
207 1 10.519452400659413 23.791834400401864 7.235732926224938 1 -1 -1
603 1 12.887592034527422 23.276694310991434 7.681291975154685 -1 -1 -1
685 1 10.23384572644182 22.43256039243257 9.30802653162256 -3 -1 4
245 1 1.3773322396802155 26.387177959223195 4.453538301790214 1 1 1
155 1 1.4009758214904835 26.358530609866907 7.459938154650627 0 2 1
1053 1 2.819901760490593 24.75866512944718 6.894569031901346 0 4 -2
1256 1 2.1482268904864785 24.286037253261867 4.861163333380611 1 -1 -1
1871 1 3.89913784697662 26.500054074391873 5.947426401024075 1 2 2
1466 1 3.4085428073809374 27.151092596431734 8.212938034089326 0 1 -1
339 1 1.5511673795326664 25.40596487912843 9.447783058349799 -1 2 2
1642 1 3.9944852082101967 25.035977605919904 8.920613442066578 -1 4 2
1271 1 5.349811029310034 25.88266981033901 4.685797517074768 -3 -2 1
1891 1 6.068106698508011 0.5642239310941406 5.168914087033242 3 1 0
827 1 5.440103900372668 27.203647709143684 7.494551225170957 0 1 0
1223 1 6.857608736390732 25.568551396334534 6.606901112011801 -1 0 0
1731 1 7.53771765370853 26.490142950187387 8.635841961686037 0 1 1
443 1 8.111095741886967 27.316901077694 6.478170577856894 0 -3 -2
471 1 9.044705444962124 25.808695823765685 5.0729284449497944 0 -2 0
1069 1 7.253072876890884 1.0426463697666952 9.350695983369059 2 -1 0
1573 1 9.415859271647426 27.599991035207047 9.673065425868108 -2 0 -2
108 1 12.752888284748543 27.59691615496855 5.789289974299146 -1 2 -1
557 1 9.597798946541813 25.81985052685757 7.49352023789143 -3 0 1
1736 1 11.297616013164998 25.48669198428038 6.187794284432411 1 0 2
1318 1 13.35437660082608 0.9017921350318057 8.304399567329567 2 2 3
1415 1 13.202197690296183 23.78815045466015 5.4907176750721955 1 0 -1
468 1 12.746490461472426 26.950022433720704 9.81653579317825 0 0 0
665 1 11.495865639498984 26.979439732236735 7.917971527329124 0 -2 3
194 1 1.2778148144966486 27.879133441606225 2.774742374216687 -5 0 -1
652 1 8.422486355309099 7.255001451459223 0.7525947428890193 1 -2 1
19 1 4.146912986731399 4.735365510303435 13.314664488075335 0 0 -1
575 1 3.253334901722088 2.5247790657916322 11.768895502298138 -1 -1 -2
481 1 3.5121898613190043 1.3575136605588045 10.08116162533324 0 -5 1
962 1 1.0749773684129558 3.4261651552638677 12.350976137785043 -3 0 0
1125 1 5.792198114949914 4.091460426955416 0.8392948369072395 -1 2 0
1372 1 4.356368897210251 1.3740583519247802 13.05610813798152 0 4 -1
1775 1 5.423215007481 3.656861986506469 11.378769120121618 0 1 3
116 1 6.457007420310326 2.250714212565891 12.821416763686578 -4 -1 1
1994 1 8.07968069771638 1.1034656366376026 11.640075901209913 0 1 0
1710 1 7.6168301660572215 3.303540491843565 11.030473934324748 1 4 3
1876 1 8.84257430092946 2.8780509447523346 13.183887417651908 -1 0 1
195 1 5.431643522392504 1.5429304187803563 11.159128277939779 0 -2 -2
558 1 14.1229031257255 21.19051549571648 6.273317722953627 0 -1 0
1936 1 12.324395356152026 3.7022743673888483 10.16225157480656 1 2 1
1087 1 5.1763710657764 2.0035426842771127 1.5037463135007567 -1 3 2
222 1 12.478449402149451 2.777580274099735 12.157714512061176 -2 1 0
1978 1 12.535777416638174 10.648275426283796 13.388771311284842 -1 1 0
2002 1 12.507521209211733 0.5488577903529865 11.691641774096043 2 3 1
794 1 10.118107080997838 3.7326126396644197 11.161916756841537 -1 2 1
1144 1 10.418870307390147 1.3576696204311602 11.669400481149061 -2 -1 0
1697 1 11.14733906309175 2.5157105760405707 13.929751303514735 -1 -1 3
246 1 0.4591941008145834 6.977346637924226 10.293912973868476 2 0 -3
1347 1 1.2705158710034627 5.990148800503729 12.183951804375702 -1 -1 0
1143 1 2.5737818504973604 7.02706324536683 10.698405336915066 1 1 2
1436 1 2.915392337845406 4.633439435723549 11.29287387263906 2 -1 -1
260 1 3.4002159953072044 7.044641576164034 12.752643220417761 0 -2 -2
993 1 6.764761734141436 8.858730711380918 13.724741939613612 -2 3 1
105 1 1.0346247736010619 20.506753411973246 5.706443389711969 0 1 1
752 1 7.864825086862814 5.930380062131664 10.552955522560206 -1 1 2
1660 1 6.936815705686729 4.126840079169546 13.159175731039701 -1 2 -1
773 1 4.769809780833744 7.5523866357336455 9.39196296524661 1 1 2
1587 1 8.510479987808552 5.209284519266197 12.622008863504682 0 -1 -1
1273 1 4.851105338612182 6.17232312819161 11.301608462214439 -1 3 2
1568 1 7.242359408860089 7.31915467194524 12.34566574737353 3 1 2
1504 1 8.85493967004907 7.122512014090626 13.829756159190358 3 2 1
1049 1 1.413412954597126 16.318483284722717 3.1404491471520326 -1 -2 0
413 1 2.783892318511099 2.5332781064983476 13.869474412050149 1 3 -1
1107 1 11.859052217149534 4.997633844089239 12.06971854745952 0 2 0
963 1 10.276321002082485 5.13862677661925 9.83375983511719 0 -2 1
717 1 13.437156486365822 26.307165524944836 13.332992192723376 0 0 4
81 1 11.047816610238796 9.360994505132957 12.967091968697595 -3 -1 -3
1187 1 12.411991867318399 5.809082965977993 10.210398995941398 0 1 1
35 1 13.430571393225861 6.68094554396641 12.225179133228517 -3 0 1
592 1 11.906629898983928 7.950204670786366 11.26805894301963 4 -2 3
454 1 10.0178470931271 6.344822882892467 11.481977508058057 1 -1 1
1833 1 8.786007663178092 24.64146886182722 9.713389240381073 2 -2 -1
1814 1 10.135465170717872 24.763224681665246 12.881878141477394 1 -1 0
1615 1 1.2005269274413786 15.13879606573944 10.887801209311878 1 -3 1
867 1 1.7780954094843127 11.030412766878761 11.815342171349318 -1 -1 -1
1926 1 3.218778126365183 9.366521236592343 12.830512644334362 0 0 1
722 1 3.539400464532632 11.86153818636893 13.548733819989963 2 1 1
221 1 1.7366620900271306 10.875878415214565 9.483282255755222 -1 -3 0
1695 1 4.385441417499083 10.692069277765594 11.765527409340118 1 1 0
628 1 5.129798945202438 8.52114154258358 11.74941417804933 -2 3 4
987 1 8.306681348261995 10.779155595223598 13.28958698234746 0 2 1
1217 1 6.011483853773722 11.973914564772965 10.999970422884214 2 0 1
833 1 6.890056303564356 8.044838108107903 10.196070579602454 1 -1 0
852 1 7.2263830614672875 9.945820602273752 11.501917785658053 -3 -3 1
333 1 5.771010220960448 11.699208851943618 13.214663686662345 -1 -1 -1
1625 1 9.008715694036981 8.625613220035207 12.192772866747156 -1 0 0
1200 1 8.335553180656461 11.37058926356182 10.671791669409014 2 3 1
1137 1 10.339030842736813 11.205742618578215 12.385440939014549 2 -2 -1
1593 1 8.493619721496442 12.73089857472059 12.633932187882737 0 0 0
1182 1 3.563722600654118 14.373139860550348 0.6236890096982182 1 1 0
182 1 12.931303197843135 12.299738375202212 11.643344916991612 0 1 -1
1086 1 12.056152092602712 10.29127078301602 11.146446271939448 1 0 -2
735 1 13.587263882719036 8.73063326628517 9.96557587442665 5 0 2
1028 1 10.058061354085053 9.700225364423492 10.303649230719813 -2 -3 -4
441 1 12.137671514488563 12.84250100868224 14.07008433859897 0 0 0
212 1 7.400435305328494 26.253202250252418 10.697412360594635 -1 0 -1
1481 1 3.1592433876792856 14.249682931794068 9.807311182558232 0 -2 -1
383 1 1.4564139529767821 14.867969301475908 1.3045556185675027 4 0 0
1834 1 2.3060772043608373 13.624271002020441 12.255537849999186 0 2 1
713 1 3.3114082766902753 15.436524895903709 13.403845037742075 1 -2 0
1457 1 4.54005967591693 13.49908759357492 12.409861561598978 1 -2 -1
280 1 3.207099502232959 16.06143860470273 10.93647406079549 -2 -1 -1
1397 1 5.121019172023036 15.445113657994568 12.538997649638382 -3 0 1
391 1 13.278975602631183 19.36592328396167 4.381263740826707 -1 2 0
591 1 5.004832772161538 14.241280092409765 10.445459506232302 -1 -2 0
967 1 8.812696943744777 13.795777833194547 10.820708275236694 -2 1 0
1376 1 6.904297818245581 15.566748611257266 10.884279952327187 -1 0 -2
1482 1 7.023591535479245 13.683706432900827 11.765043870491828 -1 2 0
50 1 7.992706959738047 15.099089262903346 13.091361847123446 2 2 2
67 1 9.564490593570943 17.003477081994227 12.758732234826367 -2 -4 0
1786 1 1.1351955188445348 22.899180284009727 6.569633119017109 1 -1 -1
704 1 14.055010375913364 8.70989704668268 3.2443012779961493 2 -1 0
1167 1 10.261761282618089 15.593427121443913 1.1096222651322503 0 2 -1
1267 1 10.740547981657611 13.910689661210972 9.576306609375555 -2 0 0
1360 1 10.865992369046745 13.225694046249325 12.031450711480744 0 -3 1
433 1 11.865307106780692 15.054587543385203 10.857705510872089 -2 1 3
385 1 9.524896675908701 14.088595675040741 13.864124082406363 -2 1 -2
1687 1 11.160081038758484 15.494809937027082 13.042298630017655 2 0 1
1734 1 9.48706361432575 15.458501420496841 11.52272718111601 -2 0 -1
1333 1 12.951521892831131 8.748186777868613 7.155041481241239 3 0 1
908 1 4.505671298963476 19.570573315207646 10.04276862997842 -2 -1 0
1035 1 12.790573772960215 26.64266078023061 2.293197311827309 1 0 -2
949 1 5.792435351902212 18.653602210868865 13.949975586008756 2 -2 3