LAMMPS data file via write_data, version 29 Oct 2020, timestep = 300000

2048 atoms
1 atom types

0.6229896706308953 27.729010329364364 xlo xhi
0.6229896706308953 27.729010329364364 ylo yhi
0.6229896706308953 27.729010329364364 zlo zhi

Masses

1 58.933

Atoms # atomic

1934 1 3.362246529791859 3.6932854121879597 4.054213369098117 1 0 -2
351 1 1.851219398904579 3.2549368205997564 2.167399115873134 4 0 -2
1831 1 3.4438433928506234 1.7805120544118913 2.501775924981322 -2 0 -2
406 1 4.13442668473711 3.8108005362271027 1.824756036579716 5 0 -2
78 1 0.9119486585363743 3.279786288036955 4.849355858120447 -1 0 2
87 1 0.9833337895125878 1.4557039590441199 3.2842121422386596 -1 3 3
519 1 16.05976097169583 13.860932441699285 7.854164076302581 -1 -2 3
1458 1 4.827618129454403 1.6575434155352817 4.492381264044349 1 3 2
1046 1 5.648236559156383 2.045340717144751 2.098711019923567 2 0 1
1324 1 5.523081869620189 3.684653858244579 3.633700588437058 2 3 0
1019 1 8.008184952644163 3.534615075238976 3.0333620192705113 0 1 2
38 1 7.072021834421101 1.7769735875366128 3.7778616960628204 -2 2 -1
1269 1 7.801841895145369 1.8062813470747787 1.6071586410128826 -4 3 -1
110 1 6.190862032924083 3.892667327316967 0.9589316042381901 2 -1 4
752 1 17.579461375321394 0.6716039288220728 3.901990781662104 -1 2 2
1244 1 10.318163777907852 3.3299822717244343 2.2649388832350477 -2 2 0
1920 1 11.320129210210178 2.7881488182184104 4.047029521574499 -1 1 -3
1784 1 9.355259484112379 1.3196932414203006 3.4802212817204397 -1 -2 1
697 1 11.422051991134538 1.060832487759122 2.853606585786418 0 -1 1
500 1 9.185309857841139 3.1413293565965237 4.886967813097145 1 0 -2
1281 1 10.101586199809587 1.458529267452517 1.1013591873545638 -2 0 -1
53 1 12.453981041272186 3.477505492910769 1.9827466324264214 -3 -3 -1
1815 1 14.604939521064432 3.3092740643802703 1.9141891021160498 1 0 1
1915 1 13.641085950234096 3.1315970757547853 4.02844631725594 -1 0 0
848 1 13.775103230047732 1.3156735406039464 2.490673257998603 1 1 2
825 1 12.780834417410272 1.1524130251531777 4.569851760131145 3 -1 2
1387 1 14.51511697169269 5.2649753092274505 3.06162945186959 0 0 0
83 1 15.796464884935924 4.882660543323572 5.156245008829606 2 2 3
1667 1 16.37458108566001 1.2492667254614727 2.1206707027474128 0 -1 1
720 1 5.053913444175697 0.8816890821115977 8.86626274483724 -1 1 2
187 1 15.965007856106375 3.0516727701832993 3.5775422478203525 4 2 0
942 1 6.126102096319311 1.569652321461376 6.462500825338973 2 3 -1
1355 1 18.471007088392852 1.2148006274935725 1.3800881232377824 3 3 3
44 1 18.051825206200498 4.479709249038944 4.610782821190883 1 2 -4
770 1 18.173446857054046 2.831360285081265 3.1686780990163066 1 -3 1
1587 1 19.74194002460692 2.7808011304806883 4.904803015738868 -1 -1 -2
1216 1 18.708207836976236 4.6974997185711365 2.0741110108045895 1 1 2
485 1 16.732263901674223 5.042696941344373 2.8160441549509554 -3 1 -1
440 1 16.814534598631305 2.9661697815646244 1.0188050792788528 2 -1 2
1151 1 17.35181781071222 2.667741711444858 5.577867526208313 -1 1 -2
326 1 24.075001451180924 9.645022753599184 0.8048050998497622 -2 -3 2
1078 1 23.663872719959777 1.705832517695757 4.119111823776082 -3 3 -3
2026 1 20.327686539086464 2.8076985659037206 2.2925522244753953 0 5 2
1999 1 20.2614062588786 4.6505771961633435 3.6058733273488626 1 1 2
274 1 22.687867266203348 3.49854740488233 1.8010807746232167 1 0 1
334 1 22.02139899502083 3.3613666404864504 3.884245439751955 -1 1 1
601 1 22.095940057918064 1.2382246372736332 2.6022236272708925 3 1 0
504 1 21.077303087676796 4.903263386543379 0.9086754446509064 0 1 2
1627 1 21.46201758530536 1.1707789100842203 4.8796047052544775 0 1 -1
1491 1 25.56800351767268 3.8769372221359175 0.7365093208581895 2 -1 -3
1544 1 20.47339111232636 5.099515506755426 14.020168793090983 -2 -1 0
1795 1 24.503895197551564 3.799444287661864 3.4092811277676778 -2 2 2
1314 1 25.984781303167367 14.12478594161481 3.165928338638943 -4 1 0
1874 1 26.77894912387484 3.2865280499166802 2.9663877511976535 -1 0 3
52 1 26.305603690945333 5.048355967947284 4.172832759241086 0 2 2
1374 1 24.3852159944189 1.9145564040577498 2.0204227637330296 -2 1 1
41 1 1.6920691091939473 5.171179135369658 3.7152658944222186 0 -1 0
555 1 2.405813295240659 5.477747472863017 1.5633779764859064 2 0 -1
1067 1 3.702647868761259 7.553296498207409 4.5714484674335 -1 2 1
1043 1 2.4140356144607513 7.317498822866655 2.717101811783409 -1 1 1
699 1 3.9373648076903756 5.574135392856497 3.091456110627998 2 -2 1
23 1 2.034112670042568 9.279600418543742 4.170279642774842 2 -1 -1
145 1 4.236936154710206 9.315128863418284 3.4854850609976458 6 -3 2
814 1 4.939911208903264 7.495902351960638 2.1456035592475304 -1 -1 1
1196 1 2.8782034725735275 9.49068250446071 1.874439081085734 2 1 1
882 1 26.62999840647654 1.2052519440667697 1.3793311281561431 0 0 2
648 1 7.713349204622881 5.15018027612054 4.511325145871116 0 -1 3
1020 1 6.327647186763141 5.25446026185566 2.470123956232056 6 3 1
107 1 7.084290591425098 7.373847049093203 1.6499262233498195 -3 3 0
1842 1 5.918791578259139 7.149089453497599 4.109242117848471 2 1 3
1160 1 8.189052009814706 7.237998111167546 3.542188442039766 2 2 1
1003 1 7.696494725061695 9.147364321017927 5.2067401759012375 -1 0 4
640 1 8.79748620894855 5.585062301060533 2.127289858692626 -2 2 -1
1201 1 12.17521536019486 5.154675356336212 3.4674488559898218 2 -1 0
679 1 9.971858828192683 5.213244204279282 3.8994624528442388 -5 -1 2
433 1 9.207587537368937 7.957058884645079 1.2907992423377852 -1 2 3
594 1 10.760838855462387 5.282425379883729 1.5764263015505966 -1 0 0
1272 1 10.395423369385398 7.250219386331193 2.8746744599244174 1 2 -1
1515 1 9.83678556362665 8.8806532495232 4.519001921289016 -1 -1 -1
1752 1 11.271825216746452 9.363763851138899 1.9707876388682695 0 1 -1
3 1 11.647428423312679 6.843097180423057 5.221625971296604 0 -2 -1
1755 1 8.955905662223119 9.346134027740806 2.660544881529977 -2 2 0
855 1 22.074001757659822 13.014018092125815 12.615094645555718 0 2 1
1079 1 13.036784240257864 5.574220685046707 0.9432493246690272 1 2 2
577 1 12.272260197738891 8.782860396215177 4.032637648898582 3 -4 -1
250 1 12.838118638831618 7.189870557472296 2.6812974058243033 2 1 -2
774 1 13.983088493299444 6.9191097186267365 4.455676713953904 2 -1 1
321 1 15.233986515683949 6.945922924933829 2.014476598859483 -2 1 -3
780 1 14.59363007365886 8.658054703802877 3.4464811471380083 1 1 1
1506 1 13.388871266728524 9.082669426856496 1.492569272469412 -1 -2 0
776 1 15.473922775353016 8.981670705940733 0.9343298435802783 -1 -2 3
1486 1 15.789313663463144 8.476757633915387 5.453872050190573 -2 -3 -4
343 1 16.17524195039772 6.949333109394803 4.26191506386878 1 0 -3
887 1 18.739119067996306 6.8015685495212015 3.4434303889561155 -1 -1 2
1572 1 16.8314234402918 8.46221741715966 2.7467439491270453 1 -2 2
1696 1 19.098720431401127 8.730148479743768 2.410284838765334 1 1 4
1232 1 17.249674076674204 6.705093085183744 1.4744503249723038 0 4 -1
93 1 19.484003312786932 6.801534221703309 1.2941321194492628 0 3 -3
532 1 17.83125039466968 8.439464706154602 4.89632435308629 1 0 -3
1767 1 22.797821512092725 5.460199561754724 3.010196972103181 -2 5 4
1173 1 20.144205255419465 8.373634437524927 4.536500945572762 -4 0 1
1363 1 21.034959314461226 6.70016395721875 2.8028443372732816 1 2 -3
1327 1 22.431379170108748 7.799388257650836 4.027348309597829 -1 -3 2
1274 1 21.57103499489466 8.740187400166848 2.224818133088567 1 1 -3
259 1 23.43034545281263 7.352695370832267 1.6508350477304239 -1 -4 0
1916 1 21.784084944638863 5.670415352157237 4.786460789721161 -2 2 5
1194 1 27.482390772765385 9.207835465146172 2.0426267552739956 0 2 2
1872 1 27.067463516050005 5.096694764855337 1.6040961497387265 2 -1 2
764 1 25.035034839246222 6.028449268722432 2.5621520757159395 -1 0 2
2045 1 24.126660857870718 5.725198893117377 4.651397640212695 -2 1 3
286 1 25.709373839277575 7.966070988562756 1.6032851474902676 1 0 -3
1785 1 27.166150012825753 7.190033881322902 3.150522267764144 -3 3 -1
1351 1 24.684061857773692 7.922472130515976 3.711269320808591 -1 2 -1
1976 1 26.549732202823932 9.256789082780573 4.466546170015432 -1 2 3
2029 1 2.642473015901717 11.3076110520034 3.54045481953188 3 0 4
1529 1 2.4426235688104887 13.477403975169722 4.690054147956209 0 4 0
970 1 3.3367971887395527 13.448339596346017 2.584035279141476 -2 -2 1
212 1 1.2520363387130637 13.07909918812419 2.8343262567100287 -1 -1 1
698 1 1.1599362801534254 11.241804029428137 1.191856962579982 2 -1 -3
796 1 4.2303304964016775 11.212087419550796 5.427711731421902 -1 1 0
15 1 4.823356460868155 13.265428033002358 4.481653340461863 0 0 0
1334 1 6.754509445508355 9.261005550367521 3.083017303855362 1 0 -2
376 1 5.250464556407232 9.48827099951981 1.3530814998692138 2 0 -2
1683 1 4.978616744661444 11.449535311639645 2.7719970387991357 1 0 -2
1592 1 8.047733423715965 13.431040130893738 1.3150614969228251 1 3 -2
1986 1 6.988021453550439 12.876545071288575 3.633807079660174 2 2 0
1985 1 7.307492994269378 11.367465338830286 2.1843739544799803 3 0 -2
546 1 6.425168580979472 11.152433678918714 4.62850924079628 1 1 -2
1452 1 5.652056861339171 13.522663817784078 1.8664636650929334 0 1 4
499 1 19.74255144878922 1.1257794126708902 3.3430579840481283 3 0 1
2036 1 8.452765843993092 10.984780298192476 4.013627775147854 3 1 3
1600 1 11.703889388937542 11.428416598094728 0.918524662531647 -2 -2 3
1445 1 10.885128530634173 10.914233040425481 3.691086602159262 -1 -1 2
949 1 9.427462619487557 11.308496039918289 1.627188418723074 3 -1 2
826 1 9.080491976229263 12.94578080728664 3.306288929466061 -1 1 -1
1594 1 11.529783415209362 12.965322868734214 2.4688441481611205 4 -2 0
90 1 10.778317625934331 12.833037568535314 4.916369502878469 1 2 -1
1554 1 13.073387604073156 12.57091748265486 4.618224623176575 0 1 1
1465 1 13.166207836542897 10.933009585818288 2.9080309645568327 1 1 1
1780 1 13.890852231030385 13.175205831719987 2.2751116594887892 4 -3 -2
687 1 15.38931770384282 10.626328083944609 2.3106635699814184 2 3 2
224 1 15.319897964849348 12.304970516171243 4.026485843405579 -2 -1 3
1938 1 14.143067363505928 10.349441455383506 4.948655295329987 -3 2 2
295 1 16.142463952937263 12.737703109629582 1.5940955362827685 1 -1 6
563 1 16.309006430624407 10.348721365194754 4.428100079260878 -1 1 1
1166 1 17.435013891356817 11.991690753800246 3.390085674273575 0 0 -2
1547 1 18.586613814933713 10.424872741545343 3.7588590738283614 -2 -1 3
1237 1 17.586115603641318 10.547454668579597 1.7189950701274712 -2 0 -1
302 1 19.69129619015405 12.575891004162825 2.6539883738012366 -1 -4 2
268 1 18.46754375441212 12.480825335504576 0.8657336932707026 -5 0 -1
598 1 20.011053492861457 10.675270173778495 1.571869053914718 0 2 1
1968 1 9.815618033274555 0.7694017554894821 7.634045053302395 -3 1 0
1147 1 22.294850188427404 11.494666710777839 11.158698202372891 -3 0 0
1102 1 23.291225777020173 9.754443778166088 3.029052597422151 0 3 -1
966 1 20.826986654954048 10.821939706205614 3.5813341988685385 -3 3 0
1037 1 21.751346051575972 12.7597527570362 2.060414566814967 1 2 -2
968 1 22.720299908397983 11.475829369959028 4.272658361257012 -5 1 2
238 1 20.81224148595161 12.279574040249544 5.1559618627630295 1 1 0
1021 1 22.308685074877772 10.881668350141723 0.9915564588200745 1 1 -2
994 1 23.72338113083235 13.745293166076323 3.5124640785822616 0 2 -1
1605 1 23.62119801435054 10.591020256019005 13.140298525255337 -1 3 0
1389 1 24.54735602983495 9.830464186341626 4.973521194232756 -2 -1 0
1316 1 20.734823006430915 14.038779718598095 6.634924942037813 -1 0 -1
1633 1 24.003784405313368 11.854727580516295 2.382111794811469 0 -1 0
573 1 27.677717516405302 11.243588918338736 3.6090269334525447 -1 -2 2
156 1 25.452428789820885 10.034555199443773 2.7728868656578674 1 -4 0
1370 1 27.277010234718546 12.817358071048096 4.896194495659486 -2 -1 1
583 1 25.279637373252868 11.895249336516386 4.0354130629020775 -1 0 6
9 1 26.169682480705667 11.97589369403851 1.8281428737337635 -2 0 1
875 1 8.185357767078747 1.2207373501068495 5.847242430985337 3 0 0
1601 1 2.3736869941818033 1.497213423216115 4.826843696860593 4 -1 0
1479 1 2.930945494777243 1.1583549812143796 8.96864641877952 0 4 3
1704 1 2.178947363160117 3.587496607330314 6.5430132428373735 3 0 2
1293 1 3.4872472789345954 3.050067771701053 8.401650624166024 -3 1 1
1296 1 1.592239683814848 1.4711673494621311 7.141748008648854 -1 0 -1
472 1 3.6946436702337997 1.3898699895988067 6.9478177658927205 0 0 1
1056 1 1.1544643814241158 3.1591609710839506 8.840070991220038 2 -1 0
819 1 4.506514125929508 5.102466326145194 7.305994265156592 -2 0 0
1376 1 4.580100949931483 3.1855694358672624 5.916311111104075 -1 0 -1
1822 1 6.909460294831777 3.2907514496923382 5.472381780800837 0 3 4
1622 1 15.380919069144909 0.8480990221143102 4.339976786769856 1 -2 2
1282 1 22.9135941111091 8.800009085990837 13.962138082453396 3 -2 1
889 1 5.605410828948531 3.001957960443096 8.004332103371066 -2 -3 0
1800 1 7.627065693208989 4.576764843887478 8.662021366900317 -3 -4 1
1205 1 5.334755835935451 4.653058866493656 9.410810831884746 0 2 0
608 1 7.999614866424451 2.792818949347529 7.656396097663202 -1 -2 -1
1401 1 0.8947680525845585 7.3376731330276845 1.150026506402769 1 2 0
1073 1 20.586795861049055 0.8679843098187634 0.7271551285784997 -3 0 0
1984 1 12.332538332612403 0.8642314855639839 7.111018346429032 0 1 4
1448 1 10.595548003921978 1.1399958853585486 5.314671172167761 -1 1 -2
1121 1 10.299370286861356 2.964431643646445 6.850172078627584 -1 0 -1
1851 1 9.966460871498299 4.298145634230275 8.399074719112033 1 1 -1
1060 1 11.465222734998129 2.221885365776452 8.666460310304053 -1 2 -2
1879 1 9.488707704054642 2.3029882455489976 9.486408767338787 0 2 2
927 1 11.233271142985178 4.650406611152294 5.735601534944386 4 -3 -1
681 1 12.267793868799851 4.278517272182393 7.802646259906273 2 -1 3
1645 1 12.558089684344083 2.7207475205227456 6.019096637428666 -3 1 -1
1051 1 13.367535272214587 4.984036652396292 5.30724238432375 0 0 -1
1183 1 15.113746200181804 2.6125550088432004 6.013574276669238 -2 -1 0
1528 1 13.874261944785038 2.412248437085596 8.316389237451894 0 -1 -3
1792 1 14.59503033755291 4.281836324448781 7.2911837033617966 -3 5 3
270 1 15.957132542840235 3.5105223577354914 8.970998007945123 2 -2 -4
1230 1 16.182637745707353 1.702390334672399 7.6731214012293165 -1 -3 -1
813 1 13.398785979963776 3.6319166420957836 9.855387530270718 -3 0 0
1856 1 25.880859621249108 0.7615910203857064 3.6159649828389666 -1 -2 0
665 1 24.44466328744155 13.996447590821155 1.3076004570562252 0 -2 4
1117 1 16.929232048966156 4.004524863560891 7.1517689569053955 -3 -2 2
2007 1 19.28009147822563 4.343099167216877 6.748374345377391 0 1 0
1665 1 18.26737754166239 2.2129762603159486 7.537560443997677 -3 0 0
2001 1 18.11771893275364 3.8112068335043614 9.064184996872143 2 0 -3
619 1 19.627000927930425 1.6747578375452778 9.016577312659326 0 0 1
461 1 20.43012260211711 3.7876655115605646 8.469158553865284 -2 2 3
1295 1 23.844023803388353 3.8448442926562167 5.512486663077197 1 0 2
439 1 21.34371524632293 4.012151217019238 5.886544836717545 -1 -1 4
885 1 20.317590108454958 1.9365341780257124 7.118210581535605 -3 -1 -2
1887 1 22.630150487167036 3.6671833945789865 7.836229760716645 2 2 0
897 1 21.977377934864336 1.7946212295596273 8.83578408955018 0 0 1
574 1 23.000533461061366 2.0613860299113975 6.276394906126099 -2 -2 1
2042 1 25.595059603638035 2.5915968624656895 5.263409856946714 1 0 1
401 1 1.8680838148633931 1.1925611373121292 1.1473553314886695 0 -2 0
1700 1 26.570698469339717 1.220593393082877 7.525133305339088 -3 1 0
983 1 26.9218636478751 3.1813850684667653 6.757719091444652 2 -2 3
1106 1 24.602878884475793 3.103780672327274 7.488982736669678 -1 1 -3
1059 1 26.03408673486546 2.9407900837807373 9.180174607954013 -2 2 0
1756 1 26.695888792322513 4.86043683071612 8.417569462674319 -1 0 3
620 1 24.609761756678886 4.824083500678404 9.0665158232799 -2 0 -2
214 1 24.246302210786006 1.1364529009845437 8.2082200658571 -1 2 -1
70 1 1.1876016394274833 7.290307556466568 5.103737425200116 0 1 1
49 1 1.9982521538260816 5.34295838842764 7.826390345690963 1 -1 2
564 1 3.063978358566664 5.38846774900537 5.474414916356151 -1 -3 -1
977 1 3.7251547001541345 6.673447075638089 8.775478091042029 -2 -2 0
1438 1 1.9370416581322194 8.745167757987344 8.531011416229298 0 3 -1
1692 1 2.761708512395919 7.218202722960367 6.928918866210188 -1 1 1
301 1 3.200678123823401 9.250759237824838 6.008781896143542 -1 -3 -3
1697 1 0.8268031269299885 9.412360629922958 6.44046847402805 0 0 3
14 1 1.4815953023586412 6.79268097387509 9.429126247943302 4 -3 2
1214 1 0.8949979746650953 5.362373408357013 5.899782507145262 -1 2 -1
738 1 4.355692893177115 8.769172017540974 8.257642561953585 0 2 -2
1846 1 5.362513753337771 5.240189504482111 5.110461661503119 0 0 1
1503 1 6.593916745572375 4.952088369422769 6.880076277251992 0 -1 -4
799 1 4.945333072150916 7.172746475793914 6.651289051142838 0 -1 -1
760 1 5.544458241969617 9.133712867174527 5.447252706425553 3 -1 0
79 1 7.376005487247477 6.942306143815328 5.977375809390607 0 -2 -2
718 1 6.155731369249005 6.627575520633143 8.409825217050368 1 0 0
1044 1 6.818434433775339 8.812799431626406 7.508576122011172 -1 -3 -1
1824 1 8.477181175622926 8.16585433433914 9.347651065149284 1 -1 3
1945 1 8.273998052186371 6.633913542187291 7.778575918171944 -2 3 1
784 1 9.020380615811455 4.71104093302737 6.430477286685272 -2 5 -4
1919 1 9.380834446572699 6.888336417469121 5.235221478605511 -1 -3 1
1164 1 9.269728904357992 8.526911355335635 6.785378681186944 1 0 0
783 1 10.53356235495728 6.334197128873167 7.206942106173815 -1 3 1
1373 1 11.313148732825288 8.709918215660283 6.520585597950216 -1 3 0
540 1 10.539046469169161 8.078076054632527 8.829691650809963 2 1 1
56 1 11.618848520501565 5.974961791006156 9.193872544996466 1 3 1
569 1 12.55780349353752 7.945352391556806 8.115819417587387 0 1 -1
978 1 13.600412660321771 8.432031762664188 5.8791184221018975 -3 0 4
451 1 12.967006179440064 6.424089794690636 6.840611938951798 -1 2 3
879 1 14.745005033838392 8.46590172277247 7.823524681614721 0 2 6
653 1 14.116184757931736 5.8490658008638565 8.853420880862148 -2 0 -2
737 1 15.18462233917888 6.577731719925804 6.718984633694065 -5 -2 2
1070 1 16.454518925026008 5.899070701454188 8.224050397029938 0 -2 0
430 1 18.68762520643159 6.091817414094711 7.780709671867434 -2 -1 -1
1653 1 17.52051980379707 6.1619052676338875 6.039128002304083 -2 3 2
1804 1 16.972266117411763 8.361648345872457 7.354526618169403 1 2 -4
1873 1 19.10769008524531 8.17874412562848 6.592691099152698 3 1 2
372 1 18.38348837419882 8.18273800302573 9.18705390096702 2 1 2
518 1 19.735965023744797 6.1708735293125105 5.46365190927379 0 0 -2
1156 1 23.34499516388597 5.654302264691592 6.856397009884983 -2 -1 -1
1749 1 21.061241761953248 5.603254332830815 7.280198371473028 -3 -1 0
135 1 20.59351488065405 7.620146728184168 8.882994674309396 2 -5 1
1053 1 22.824976856567574 7.974846817514658 8.798015044627265 0 3 -3
1124 1 21.73180675487977 7.781555864025696 6.615315132354756 1 2 -2
802 1 22.338768193196188 5.633461456657007 9.113394464624879 -3 2 -3
1191 1 23.95495778431301 7.76200021224844 6.1290902523544855 0 2 1
97 1 21.206915437783678 9.673521833540699 7.545920175670113 -4 0 -2
1411 1 23.496352991015556 9.802483576921679 7.641171808506595 -1 -1 -1
1850 1 22.338493281689736 9.608804990878404 5.381184940597723 -1 4 0
437 1 25.75645295247363 4.90483929997856 6.310720366370596 0 0 3
1207 1 26.013071761481342 7.034351632175317 5.39168032501907 -3 -3 1
847 1 27.28518285801612 7.447052570873856 7.3003125644033595 3 -3 0
1775 1 25.116294367850394 6.544564681530903 7.9805772647756585 -2 2 3
88 1 26.954947984490452 9.37131876741521 8.953285757096337 1 1 2
1878 1 25.760657283123003 8.863428486288242 7.068487600530065 1 3 0
1618 1 24.78798664460571 8.77868578154132 9.403180983878222 -1 1 0
857 1 1.972652169354662 11.530684243125105 5.753429678190256 0 -1 1
1695 1 3.428971519854963 12.919203567222441 6.5624273513923495 1 0 1
1550 1 3.075828622685909 10.685859553194765 7.6684826707866955 3 0 -3
138 1 2.648827345860347 12.686731932179011 9.16266768566186 1 1 2
1243 1 1.1625608163722512 13.47789314144557 6.9770479766839 -2 -1 -1
717 1 4.6289029601452985 10.782382471237058 9.353605398952187 2 1 4
1808 1 4.857756080159167 12.74537161606991 8.44417281039961 0 0 -1
1263 1 5.183395132088629 10.548817541020462 7.17578484654533 1 -2 -2
677 1 6.566368730912748 10.53901826866957 8.953741280856626 -4 3 -2
751 1 7.469389791160147 10.73668482102451 6.611717264682084 -1 3 -2
1222 1 7.240455900228211 12.880065459015455 8.069485958726059 -2 3 0
72 1 6.046000485547846 12.574664110502033 6.375077706102223 3 0 0
1659 1 8.60161918155838 12.73340546270603 5.734044021033299 0 0 -4
840 1 20.7986571614438 13.228822044106494 10.420266505129508 -3 1 -4
131 1 8.690066243047813 10.174007734451838 8.490006163477416 0 -2 -3
1636 1 9.760698178062308 10.619549080930387 5.971182458244385 -2 1 1
547 1 9.42006523387848 12.063299914315703 7.875976358968907 -4 -2 -2
1579 1 10.979205969116757 10.4730719963208 8.027801704916353 3 -2 -2
1843 1 11.702021866417615 12.17351561348986 6.861857444822157 -3 -3 1
1013 1 10.665065276354255 12.058209860864736 9.895766511826597 2 4 0
1028 1 12.215439310666541 10.615418343373067 5.488018609239756 -2 -2 -4
391 1 21.438084618415132 10.86998149939185 13.71647279934772 -1 2 0
1348 1 21.58188944688967 7.006984885282099 0.6828037535623459 1 2 2
184 1 14.412322110515188 9.918474838885142 9.438963669009587 0 2 1
171 1 15.668350665445987 10.126088833514157 6.935039060038144 1 1 -1
65 1 14.056734510207136 12.153300519473179 6.470626112646349 -3 0 -1
967 1 13.212070299526324 10.001787823322633 7.46324538073089 -2 1 1
775 1 15.143957602527282 11.806764311909514 8.493452858243964 -1 3 1
464 1 12.876560984931851 11.781183265437946 9.238056615841975 -3 0 -3
297 1 27.135509341011094 0.9619622154304133 5.324271246340417 0 -7 1
120 1 16.543196199672984 9.661188617258407 9.18865950104214 4 3 -1
1129 1 16.348706875516395 12.401009160552558 6.063578764108444 -2 -1 1
2011 1 18.804275044592693 10.086389122798446 8.099943250724948 -1 -1 1
1279 1 18.592540338496384 12.150648320617478 5.383694759013685 -1 -1 -5
675 1 17.67526741196852 10.399315820200254 6.118628547100891 1 0 2
1330 1 17.53935875565879 11.796325107615234 7.8261835262434625 0 0 0
841 1 19.533418239647034 13.336145207252585 8.56815694912594 -1 4 0
339 1 17.348928103558052 13.682864517753387 9.390356576306853 -1 2 1
415 1 19.89484216532933 11.704092495238124 7.170971231265082 -4 0 -1
722 1 19.866820789913064 10.059689069281527 5.475457359476411 1 1 0
1402 1 24.13181332285526 12.65629029989932 12.374978526522463 -1 -1 2
1650 1 22.839581685411538 13.706248759743684 5.750098152420436 -1 2 1
144 1 21.803243690572984 13.647735481460542 8.479694992231504 1 2 -1
356 1 22.103723104630326 11.806590870409243 6.99988353279265 -1 0 -1
1208 1 23.11977865922509 11.868506105609713 8.93741284085609 0 0 1
1382 1 20.79786178513701 11.347754365900718 9.37367098664135 -1 0 1
412 1 0.7319523674844461 11.242051611949886 7.979062031301774 -1 1 0
704 1 24.08193323896115 13.588760583001376 7.7428455204313 1 -2 2
1140 1 25.302494790420504 13.869659157721683 5.5731751899757285 0 0 -3
1584 1 27.589100592549894 12.988644804526064 9.387506734143269 -1 0 1
758 1 24.088575780047826 11.579797055321796 6.41976359566005 -2 0 3
1097 1 26.131025992223037 13.031464011014155 7.576789619773323 -1 3 -4
303 1 26.336333622517976 11.041851452573763 6.095250021445657 3 1 1
955 1 25.501513066321856 10.915565630222403 8.385063987676304 2 3 0
973 1 24.326078461045803 11.02612610932847 10.93261242955041 -2 1 2
1814 1 17.563322230620763 13.066160677223152 14.012205744635231 1 0 1
1298 1 1.967334836932325 0.783629988641409 11.931073303785118 2 -2 0
1632 1 3.3038321058840032 4.865059975925767 9.739746696452006 3 0 3
905 1 3.9554618666983834 2.578409241934604 12.925153716729266 2 -1 6
416 1 2.7209504522401726 2.667081675873851 10.866606662836237 1 0 0
1128 1 1.5947019978633212 2.668507627228435 13.33984655877338 -1 0 0
824 1 2.318982207781927 4.5565284265522 12.201994046935493 0 0 0
1492 1 1.13307414512502 4.852667241526627 10.390980631061487 0 -2 -3
1569 1 4.496424564275562 4.414462923074131 11.674180629607328 0 0 1
1111 1 0.8953135386106197 0.9140091522186323 9.745776854427657 6 0 1
1022 1 5.8725802607336375 3.924160591679107 13.811047613645187 1 -2 0
30 1 6.951320397451609 2.4908132246461037 9.825144172948935 3 -1 -6
1006 1 4.76163404769425 2.6018023808507413 10.499077004290394 1 1 3
397 1 6.0025523025657295 1.8342764832002072 12.382784041736542 1 0 0
435 1 6.634029321192432 4.045323896469004 11.40523633592377 4 -3 3
558 1 8.185926199863577 4.076844974464672 13.402345779895068 1 -1 0
1241 1 8.34591475700002 2.327084184959177 11.69489441989864 2 -1 0
600 1 9.662641993868766 2.2987019383452223 13.537916474231427 4 0 2
318 1 8.780743653334937 4.2223243930913315 10.28986881760161 0 1 1
1735 1 10.622376421069205 1.9033349618706425 11.359012353756187 1 3 -1
1255 1 11.222782127233879 3.7500192158135146 10.287024253640386 2 2 0
729 1 10.145387093868285 4.17663446281466 12.12800250020903 2 2 -3
991 1 12.11403115190497 1.7529254058007204 12.892307666166213 1 0 1
1707 1 22.429657049709512 0.891440451776828 13.185709189450323 0 0 0
2043 1 12.550978733434135 3.7472072989453045 11.946507134463255 0 2 -1
486 1 15.11290535689134 1.9984235789071645 10.44113629668543 1 -1 -1
1973 1 12.70641897881142 1.8748494075293607 10.68933441490491 0 2 3
310 1 14.733392595641579 3.9818385455418985 11.500755153478512 -1 0 2
1443 1 14.410499584714179 1.8520726256152662 12.53905513175402 -1 2 -3
40 1 26.594039261911014 12.579217110728651 12.08745723464397 -2 2 -2
746 1 13.812184957631056 13.660868988082528 7.947218666284222 -1 2 0
2025 1 17.269771584085987 1.7755499332539455 9.870559963297973 1 0 -2
1083 1 16.255326360385503 3.5800419440440563 13.418307129210353 3 2 -3
31 1 16.592225923326325 1.6525328154104515 12.251312192038425 3 0 -1
1671 1 18.445833906341555 3.119629316395744 13.041925358597085 -2 -3 -4
1886 1 17.004797011035123 3.856841687796518 11.090181581749144 0 -1 3
176 1 18.75754872648806 1.6158644167827503 11.654628732971984 -1 1 0
1257 1 19.69782550079914 3.5041775690506567 10.80844533326318 0 2 -2
1386 1 20.193403729318014 0.8726589412138086 13.661613419161606 1 0 1
652 1 22.597297252263324 4.988016736377597 13.570753652967248 1 -3 -1
1418 1 23.588270365965606 0.8849921127430813 10.76159751857947 0 0 2
1200 1 21.87480164921132 3.8242953390735805 10.322150339778155 1 2 2
1712 1 21.155045331412353 1.386729468136819 11.145976268403718 -1 3 2
1619 1 20.649206726856463 3.137810467677837 12.597564298870342 -4 1 1
1580 1 22.932529354629168 2.6853649203985883 11.902870922237792 -2 2 -4
146 1 21.579018834880408 5.292745503693146 11.585185620642042 1 -3 1
759 1 11.350870837399345 13.87032915314485 8.679646961781478 -1 -1 3
1436 1 3.67490009559316 11.480604076271305 0.9863971584202373 3 -2 -1
166 1 23.83908037619385 2.8517122779079713 9.919951764280155 -3 -3 -3
886 1 23.68640590190025 5.0176094538394365 11.251163002322926 0 -1 3
1702 1 21.432438630741267 13.950934295171125 3.8650088185042493 -1 2 -1
940 1 27.33154335975749 2.665533699036402 11.110070477854865 1 2 2
1611 1 25.696871611708666 1.0631754051684232 10.051781212541178 0 4 2
899 1 27.196119649077673 4.58801070615454 12.543126177789944 -2 -1 3
950 1 25.288055692264486 2.9583738764245324 11.69621940056581 1 2 1
258 1 26.257580598833094 2.6949604629276185 13.669134314377688 2 2 1
953 1 24.854262358579064 4.8999291524457895 13.343587987746739 -1 -1 0
157 1 26.246036627093282 5.170846825964573 10.66305092360645 0 1 -2
1032 1 25.221715117663635 12.974762978958813 10.015685563580917 -1 -1 0
1371 1 1.535225294580528 8.704020541770541 10.747035862288985 -2 3 0
1662 1 3.658899806459755 8.90255562521864 10.290753383533639 3 0 2
1428 1 2.847227157096947 6.7039238855533165 11.236120429707613 0 4 -1
114 1 2.5009198469291958 8.289458499504052 12.893903324727663 7 2 0
1301 1 1.484407180550697 6.290608075842565 13.524351864110056 2 -3 0
417 1 3.8252795925895424 6.226128965199677 13.249602432009825 2 1 0
350 1 6.121496645753022 8.490743921764558 9.731224645048488 -2 1 1
84 1 4.731044833161091 8.400618083412246 12.101350075134077 2 2 -1
1617 1 7.552446738817527 6.165642763785669 10.212808721934227 0 3 -3
664 1 5.308655227635534 6.5739673968107075 10.993207170707162 -2 3 -4
1652 1 6.294817307284896 5.86882848951834 12.877406904106751 -2 1 2
459 1 7.255891309315966 7.929536853226205 11.979406418565095 1 0 -1
964 1 8.57982689007017 7.862421766343882 13.689130786074703 -3 0 2
1321 1 9.764530352671578 6.168589912437182 10.10802262731391 -4 0 1
803 1 8.60525805159266 6.004407912095101 12.161584651104482 -1 4 -2
118 1 11.308048198298277 5.87453404986101 11.876597857504105 0 1 0
101 1 10.911477163832997 7.644659014787158 13.322650207046705 -5 3 -3
531 1 9.554638450304681 7.783109845726067 11.542249974690984 -1 1 2
1309 1 11.711506255331031 7.8462549451240315 10.805584872090312 0 1 2
969 1 25.691248146196266 10.904739581148437 12.979984892684511 -4 3 -2
1551 1 16.17867651794596 7.173787858553655 13.78433267336372 1 2 0
490 1 14.776360254724265 9.19301166288271 13.333038455079402 -1 0 1
1836 1 12.564117093566542 5.722348672615937 13.708506414479743 -1 -2 3
1817 1 14.786735826948432 5.477665592888893 12.993453955071812 1 -1 1
669 1 15.86020826911698 5.755251297716315 10.42929848373868 -1 0 2
25 1 13.040452366875973 7.674766596317132 12.522284568722906 2 0 -3
479 1 13.445362665592205 5.978152542615394 11.120414131025747 -2 -1 0
1845 1 15.1709247903805 7.437318106332433 11.783287246538086 3 0 -2
1885 1 13.971569459621731 7.765590203595157 9.835498853271508 1 1 0
124 1 13.66787571675864 9.32216561582844 11.386194572495505 4 -1 0
1332 1 16.251256056785145 7.668872752378105 9.65858703529669 2 1 1
1403 1 24.928027899237684 0.9577823736378994 12.719700217931246 -7 0 2
1660 1 19.094769762808603 5.126333612991391 12.128333950760657 -1 1 -2
1987 1 16.965844249401073 5.505702140742327 12.558867868985347 1 -2 2