LAMMPS data file via write_data, version 29 Oct 2020, timestep = 300000

2048 atoms
1 atom types

0.6051547392492154 27.746845260747197 xlo xhi
0.6051547392492154 27.746845260747197 ylo yhi
0.6051547392492154 27.746845260747197 zlo zhi

Masses

1 58.933

Atoms # atomic

1164 1 2.90501265669788 3.3497994499477866 3.238829180325732 1 0 0
1714 1 1.4773071238649367 3.790811548417135 1.285298984530432 -2 -1 3
1119 1 3.676950750021309 2.6346980420238415 1.263932169639855 1 1 -2
197 1 3.687549181712563 4.884617656403312 1.3866758659280016 1 2 0
1595 1 27.35567812913539 2.2359978094992874 2.8921104323787046 -1 0 1
1442 1 1.7636728313261183 1.9324077459966358 5.024485266484424 1 2 0
254 1 1.8143594683175106 4.1045989679731 5.112859556787189 2 -1 1
282 1 4.011005953044021 3.0915691847264983 5.060640991577714 -1 -1 0
1577 1 1.782553747877301 1.5149783401533274 1.3020670943987782 2 3 1
1295 1 3.070762653604056 0.968438660327656 3.2274247690604323 2 0 2
53 1 4.885397878190089 4.608481203776443 3.508575771557309 -3 -3 -1
847 1 5.11857654203941 2.231227415473751 3.186097400847168 4 -3 0
335 1 5.86050460073734 3.3797669110521453 1.555784748295342 3 0 1
1457 1 7.295639894634695 3.355603925302939 3.4022985147182605 0 -2 0
94 1 8.357480924402696 2.40423246278924 1.430781468496601 4 0 0
1491 1 6.108559453281356 1.1804035608184502 1.3417216567180021 3 -1 -3
930 1 4.011550523081685 0.6283508968409706 5.184435277480698 2 0 -3
1467 1 8.341531934170954 4.7812689925992355 1.4353041107314843 0 -2 3
816 1 9.135303479905952 4.314981848697805 3.4505477853580633 0 -2 4
460 1 10.323418135454467 3.351022319167969 1.6754778846901657 2 0 2
337 1 11.498862729171165 3.0665553810668635 3.7847764176971816 1 4 -1
1066 1 9.530976354107265 1.9529859895352275 3.489063005876555 -2 -2 -2
1167 1 10.639459275456385 1.0096556166323132 1.5388847218062454 1 2 -2
5 1 11.16184215858884 5.3676549391595545 3.82448022858451 -5 0 2
1432 1 12.641679470526075 4.539276897082106 1.9790103735572286 0 1 1
445 1 12.3254553531366 2.1818413204521567 1.8777470334655002 0 -2 0
1915 1 14.729097798360629 2.8162859953362784 1.950886712407907 -1 0 0
1853 1 13.882156421725933 3.5651175108787694 3.9130280027006608 2 0 1
594 1 13.190905739475616 1.5026709284377175 3.921809957215305 -1 0 0
2016 1 15.855184825518382 2.7040031242423987 4.022243419189845 2 0 4
928 1 15.945080140099218 4.870742924743533 4.051543120792459 1 -3 2
303 1 16.629067335751422 3.7769223625536106 2.2402979779066934 3 1 1
1539 1 19.035596083032317 2.7349751563362688 2.4479057981901775 0 -1 -1
2007 1 18.011540171845102 3.7411089030980746 4.112738197487916 0 1 0
1339 1 16.981195710286265 1.3555698099349538 2.2559889131490527 -2 0 -5
2042 1 17.9251392258422 1.111046399474572 4.24154099469561 1 0 1
1830 1 19.896385431738775 4.601977015663145 4.263422218562367 0 2 -3
2028 1 19.890839556495532 2.4535464314560507 4.4605565088386285 -1 -1 0
207 1 26.59196117080193 0.6693497617657497 4.85754432025512 -1 0 -1
1186 1 21.290326805675747 3.929793159383779 2.499729807013014 3 3 6
2022 1 22.132410519628394 3.3025329486917636 4.823602027370507 -1 0 0
1962 1 21.313491921469346 1.502368437176481 2.57906505748272 0 0 -1
2030 1 22.486607348131944 0.9877152045055853 4.515918393033991 3 0 -1
1816 1 23.438049353018815 2.63850997942936 2.9591863676817614 -2 -1 1
1356 1 23.26933496939324 5.182215980520256 3.0227366316611968 -3 1 4
42 1 24.520941061760293 4.368436116372326 1.3614796294496831 -4 1 0
258 1 19.74607635793179 13.882415439379086 5.249173777751756 2 1 1
1621 1 27.633545693981997 4.713657783151254 3.0862787684757547 -3 3 -3
759 1 24.76817735449708 2.1486374447560292 4.842606488550631 -1 -1 3
1582 1 25.50279633299242 3.7726149246078924 3.063991128825043 -3 0 -3
391 1 24.174972036196866 4.37780610736219 4.8660945295709395 -1 2 0
214 1 25.47556398800235 1.2605330906838788 2.9504794213870134 -1 2 -1
865 1 27.135637284273038 3.136098314505242 4.899062048292479 -2 0 0
176 1 7.2944077075642095 0.9143214813711693 3.436655639786309 0 1 0
1800 1 18.988454328757978 6.409807582312386 14.16159464080141 -3 -4 1
60 1 26.778972504572035 2.8482110471537028 0.9891208104103555 -1 1 1
1187 1 19.94200422725856 12.136520036864898 12.663871687989332 -1 0 2
929 1 2.664678659476057 5.848396525023474 3.4928863240869035 0 3 0
1238 1 1.711736517450304 6.093261866695988 1.3649022648340434 1 -4 1
1761 1 2.6341668179824547 8.012592243582457 3.571601178537325 -1 2 -4
693 1 1.8003719709445043 8.49378455528517 1.5649607028120984 1 -2 -1
88 1 3.731907125926929 7.119186420954485 1.6754343155031552 2 1 2
441 1 3.7116550291416512 9.579017665017163 1.5715544553014111 0 0 -1
118 1 27.60051266187349 7.025713823196588 3.1755695117014415 -1 1 0
334 1 7.153638249107863 5.565068876174258 3.6206883844070648 0 1 1
125 1 4.606333389220486 9.062034176322713 3.8523581415541353 0 2 1
1688 1 4.882956849208028 6.888311972101718 3.7621297225179906 2 -3 2
59 1 6.088326404490455 5.96273740004736 1.8862594593372959 2 -3 3
1338 1 5.823382120970849 8.199639393331855 1.8998100207215511 0 0 0
1801 1 7.216705585053988 7.703551369480835 3.7647248999495355 4 -2 0
134 1 8.08847589446006 6.905106990392014 1.6464120505499593 1 -3 -1
1631 1 7.878832497585166 9.238794291539069 1.8597634525612596 0 0 1
1516 1 10.417648500690095 5.804710113880539 1.8638262512719606 0 2 -2
1348 1 9.075929363537218 6.57674548283635 3.591258856062042 1 2 2
1373 1 10.155643428577271 7.968231596190881 1.743845849231483 -1 3 0
1402 1 9.083014382892367 8.717895133478592 3.59827791523703 0 -1 3
973 1 11.25543925122609 7.558750621342788 3.8556889371219523 -1 1 3
1697 1 12.10502942681699 9.233359242270641 2.232058839166937 0 0 3
636 1 12.648036612122997 6.858238257589425 2.2202119592187057 2 0 1
1597 1 11.397506077560564 9.801192062522464 4.350638171201042 1 0 1
1993 1 14.746232689357095 5.2781201764385175 2.3357212574832538 -2 0 4
1172 1 13.676803816723426 6.036606040512739 4.014492887649833 1 1 2
1328 1 14.750459575552798 7.837402420860668 2.302797891378216 -1 -3 -2
1083 1 13.502808358894294 8.560040281140749 4.304779484340434 3 2 -3
1523 1 15.8672059077682 7.062011763634215 4.260123751219294 -2 2 1
350 1 18.935987655397298 5.033430617271218 2.405486050327175 -2 1 1
422 1 18.203947617575174 6.230821623134509 4.373731187233475 -1 2 0
1399 1 16.806011162995254 6.182030739477375 2.3302984964655806 2 2 -1
568 1 19.05344811157704 7.527691649040442 2.602472610507479 0 3 1
1545 1 16.813654113280798 8.64181550297135 2.3502228653076394 -2 -3 0
1374 1 17.61685505879321 8.437059822522194 4.39800375764845 -2 1 1
365 1 19.911211217332507 9.107117727268005 0.8211264698977374 0 -1 0
1916 1 19.525916268950855 9.260033834484826 4.724290691192004 -2 2 5
1791 1 21.849194885907632 13.206049852500904 13.081391928333591 -1 2 -1
11 1 20.834714755392344 14.008324287008064 11.129904769272404 -1 -1 0
1500 1 21.34030558043528 2.5416659849321945 14.163122351957107 0 1 3
119 1 15.656047652786722 0.7595283678557614 7.764729395095964 1 1 0
492 1 20.160445688300797 7.02620231898676 4.809584866217469 -3 0 -4
1743 1 21.068824692383274 6.2836119581991365 2.6811290692686085 0 3 1
269 1 21.085589999603602 8.561433174538031 2.917127074331601 -1 1 1
7 1 23.467242416267812 7.626664024744346 3.0142488953425794 0 -1 0
216 1 21.922084530762994 5.49859787559412 4.766145879820736 1 3 3
1607 1 22.316199557040374 8.009125238441744 4.981989902764678 1 1 0
1020 1 23.13148915261794 9.848026258930764 2.9570892998877083 6 3 1
1004 1 22.30184370980378 7.84584206103969 1.1608853625519822 2 -1 1
1570 1 0.7473732105811344 9.28621740473614 3.773391412224539 0 0 2
547 1 26.624974226109845 5.336993931773932 1.1389069814448831 -5 -2 -2
2008 1 24.425440985240567 6.803725997738426 1.3450755923673439 -2 3 5
702 1 24.429300532326838 9.199550501953595 1.1210329863225965 -1 5 -2
268 1 25.606015110810347 6.071882225715926 3.139116431649704 -5 0 -1
409 1 25.496223683827726 8.64004204542244 3.107137826677119 -1 2 4
1382 1 26.379069709069487 7.736087297924015 1.1537819554579691 -1 0 2
1125 1 24.331887252134113 6.522208899080083 4.821940492293024 -3 2 -1
1914 1 26.277571199246562 5.384367280749443 4.97888531819865 -2 2 -4
1428 1 24.154242634309597 9.246696314423671 4.955961898050867 -1 4 -1
1462 1 26.491306482126216 7.776351091390358 5.241603343752374 -1 4 2
1274 1 2.6953530074996297 10.50053741094559 3.3605338310283144 2 1 -3
944 1 1.829756046443422 10.763273089569351 1.4030364182664106 6 3 3
348 1 3.6921976633884643 12.107914881872023 1.8721246459165268 1 0 0
1898 1 1.6530032121392149 13.107021122054434 1.699570818380903 1 0 -1
1436 1 2.6921067153576406 12.819277787705673 3.88467394552473 3 -3 -1
1735 1 4.6278603060145 13.782460102409635 4.175234939318422 1 2 -1
1162 1 12.629378159025473 7.862350050394667 13.815274545820094 0 -1 3
1370 1 4.647159311438217 11.492954361376338 3.993278889000916 -1 -1 1
1926 1 6.6885785601892875 9.901015004911626 3.640897320693901 2 -1 1
80 1 5.835762812745653 12.945982371299142 2.0764858577930054 -2 -2 -1
1488 1 5.571970890397968 10.712110339652106 1.815946356027524 0 0 2
1409 1 7.003647248133377 12.578543558126126 4.0435598159072 1 -3 -4
1568 1 7.73844043094893 11.678880550196258 2.1167735904978833 4 1 3
1140 1 8.014330345343698 13.840887412609009 2.181659290820172 1 0 -2
290 1 9.035685058979615 13.285784455795726 4.235621865958144 -2 -2 -3
1912 1 10.053587369266603 10.209399118906084 2.1401095380470077 1 -1 1
1444 1 9.15075282379705 10.94539464007448 4.248225575181268 -4 0 0
57 1 10.018699330800786 12.411886031309 2.381743646567606 1 0 2
900 1 11.333179920610696 12.124250162100848 4.345470881449068 -1 -5 0
1120 1 27.376175437108323 12.18843553298546 11.317332239095775 0 3 -2
631 1 15.28729410753105 14.160639542540071 4.702175569223893 0 1 4
1581 1 18.973454228919127 0.9717964059417263 6.259114254251659 -1 2 3
647 1 15.57971791676056 9.524392600939548 4.232554562185327 1 -2 -2
293 1 12.430840362020316 11.354200399660117 2.6944344971569607 2 0 4
464 1 11.9845579513357 13.573071390862124 2.3991183024704394 -3 0 -3
710 1 14.622432645586755 10.29364987517842 2.471418152940813 2 4 -2
2035 1 13.48228647296418 10.826123417838403 4.500568656272776 0 -1 -1
921 1 14.484490472928593 12.321896851406022 3.10179013699976 -1 -2 2
624 1 15.838100519904241 12.079780942315187 4.811401887976485 -1 2 2
1243 1 4.1375724867666 13.882458958589 11.589812711773046 -2 -1 -1
1982 1 13.233393297870572 13.230172916664296 4.658827802932099 3 -4 1
1942 1 15.886586761034557 13.95423026133866 1.0430217539867237 3 0 0
1687 1 21.0690597273077 11.339786101239778 10.924542601123859 2 0 2
215 1 18.5991850677532 9.845998306372303 2.663605457328934 -1 -1 -2
1362 1 16.777647379232892 13.299600361252956 2.988720099404886 4 0 2
1984 1 16.898655473399742 11.021868689517673 2.549834550488308 0 1 4
720 1 18.86159927951889 12.122931355911119 3.126636481931202 -1 1 2
1122 1 17.72645187963957 10.745350874440385 4.769616930457677 0 0 2
31 1 17.593497502002137 13.401274807560632 5.4007440494519425 3 0 -1
998 1 19.867377942550423 11.55801909851989 4.934418546617045 0 2 -3
917 1 19.87282188175945 13.762376211220673 1.4665341265294596 -2 -2 1
96 1 17.900592785915016 12.611705570960822 0.9343930236622473 1 1 -5
1561 1 19.864769137104737 11.512486781278707 1.066947304708219 0 1 1
1154 1 16.7400539666945 13.949838013893523 10.727036317713365 3 2 1
912 1 21.824475730590997 10.230211190367628 1.1444350664619254 -1 -5 1
519 1 20.960901263523038 13.006017143355223 3.496590990196717 -1 -2 3
1043 1 20.948484855479023 11.008933044681143 2.845295084889925 -1 1 1
72 1 23.309616934964193 12.094601746132982 3.2108961188470233 2 0 0
316 1 22.186408597123492 12.62097957275994 1.4439671679658037 -3 -1 2
1506 1 21.955173131987316 12.422879216104187 5.587920586251537 -1 -2 0
306 1 24.243101771828318 13.489971655886203 1.4242327458824278 0 0 0
145 1 24.048221814830015 11.28739916495589 1.3780180382342553 5 -3 2
1625 1 22.16784124128413 10.481154646462517 4.715011257314823 -1 0 0
780 1 26.9587499917505 9.751839185728084 1.684320477701471 1 1 1
1986 1 27.42228515316914 14.057625693218554 3.7611347682771163 1 2 0
940 1 0.731683995236196 11.731248400937135 3.2412903265807063 2 2 2
188 1 25.581508256609595 10.680556072007976 3.2078474771916263 -1 1 0
579 1 26.640825369312633 11.864341719544848 1.170741714205509 -1 1 1
376 1 25.513241928175745 12.895902521826518 3.2694704235164256 1 0 -2
1018 1 24.0804095423593 13.573129173479783 5.257887726648455 0 0 -4
722 1 26.411711114630496 12.587843862434617 5.350799192305089 1 1 0
10 1 2.7579093952859255 1.2812734620457233 6.805431701958794 2 -2 0
1094 1 1.9858594126870108 2.09974580678675 9.082211901937644 1 4 3
235 1 1.5419436664987838 4.525063770286159 9.043557842095769 2 0 0
44 1 2.812369760662593 3.3168282435284464 7.276759685128799 1 2 -4
1970 1 0.8505332918304379 2.8161186526105966 6.977494270738739 0 0 -1
1736 1 4.096531129944523 3.159043020081562 9.204919216659867 0 0 2
656 1 3.930791351176838 0.8836557127938434 8.876851328228375 -2 -4 -1
533 1 5.841002390089692 1.6010751242665813 5.30767419789506 -1 0 0
1713 1 7.249380598562623 1.1349944431183714 7.157535136704242 -2 2 -1
796 1 6.140053386974355 4.040453562816149 5.3586609792929 -1 1 0
1910 1 4.882827394900987 2.2159986493409223 7.250097368213368 3 4 1
589 1 4.815976062174928 4.6843895971254526 7.307762596152592 0 3 1
201 1 7.102771443630004 3.295411734583657 7.380906270257195 0 1 -2
69 1 5.961777123279889 1.5892113386062885 9.216575353730297 -2 0 1
811 1 7.970033990856012 2.587783893917041 5.308193453984035 1 -3 -1
822 1 8.12456825639661 2.7393654276322716 9.255721969983064 3 0 -3
1932 1 17.539127966104548 11.338158591690766 12.598589614998552 -3 3 3
2036 1 8.181539748069962 4.72035597888625 5.567356714536084 3 1 3
129 1 10.31370489410662 1.3562317127551522 5.43664101266173 0 -1 2
1459 1 9.209698594138606 2.4126924940782843 7.402283764778321 3 1 -2
2004 1 9.38862006777257 4.409131548217168 7.609556343935665 0 2 1
136 1 10.186561212899143 3.6427931239210234 5.374936482515534 2 2 2
1492 1 11.304744693759064 2.8768343951015365 7.369380872532724 -1 -2 -3
1885 1 10.287293852064549 1.5973903592665755 9.187312935463606 1 1 0
16 1 26.34775478048204 13.12771904139706 13.188961997619982 -4 1 0
75 1 12.263786413160709 4.445278240368952 5.570927714874175 1 3 3
1693 1 12.594677045865696 2.4123914032926113 5.658648339991665 4 2 2
264 1 13.584996413950574 1.6806169405298197 7.944477896409433 1 -1 -3
848 1 13.470506361285578 4.1449145276953026 7.733663219705508 1 1 2
1110 1 14.767411403100946 3.1436433701635007 5.923262390409258 -3 0 2
193 1 15.399343384867851 2.9712664728813927 8.212466780303654 -1 -1 0
1387 1 14.814899040129408 0.9919931310840338 5.558293318913745 0 0 0
1443 1 14.520180029420635 3.435618160756514 9.848712015867996 -1 1 -3
852 1 22.56065167537226 3.0884977265166116 0.780082690015871 -5 -3 1
287 1 17.63393718362632 3.6976041692389017 8.010983661606502 -1 2 1
1871 1 17.77191018505701 1.4933671540254392 8.307934217756141 0 2 2
403 1 16.659743088093396 4.584158872908697 6.2895542057302825 0 3 -1
1971 1 16.933948372350194 2.2089984644521103 6.072475632542179 0 1 1
988 1 18.840286477475363 3.3674961587426684 6.211450011569323 -3 1 1
280 1 16.432302549433587 2.3396160767440444 10.217028446029138 -3 -1 -1
1216 1 19.688729282115034 4.778230348219646 8.424052150466066 1 1 2
402 1 20.02473752392125 2.6581181206709577 7.895528546533182 1 1 0
1524 1 22.06782812960725 1.2263786341996048 8.221165132903156 0 -2 -1
398 1 21.035812620023727 1.7843685703086045 6.160666699761426 -2 0 1
238 1 21.983718059274512 3.6078663678949416 8.497840733787916 1 1 0
336 1 20.960962934680037 4.168044835532783 6.395389899950879 0 -2 0
681 1 23.28874197386981 2.9061644929455137 6.52564380106525 2 -1 3
1152 1 27.392497147347065 5.0774534792962465 6.7566922295558625 2 -2 3
614 1 24.412685559820474 2.1666606981914605 8.281506712456789 2 -3 -1
1533 1 27.29973111019267 1.0904612342991464 8.989089024822801 1 2 2
126 1 26.035301600450058 1.593968175611193 6.856948376894132 0 0 -2
435 1 26.301515691877707 3.068934706018105 8.749936703277589 3 -3 3
309 1 25.516072398109344 4.003461527608977 6.787549515633627 -1 -1 0
49 1 24.507864231515736 4.295808607989313 8.681192672766553 0 -1 2
677 1 14.60397866752182 6.395049003545176 13.899241126655587 -4 3 -2
490 1 3.8451558177978464 5.340821399143201 5.379799434820405 0 0 1
830 1 1.3004153361243151 6.486722278202474 5.103270327092453 -4 1 0
1200 1 1.307572663111313 8.831248020014812 5.86559179800534 2 2 2
90 1 3.6341155934446046 7.549788731633391 5.77088135572266 1 2 -1
178 1 3.5851339954554695 5.364405333483015 9.109178867865996 1 -2 0
856 1 2.6058386089306493 5.826508491778033 7.038713561747736 1 2 0
156 1 2.8055284814738357 8.014651537622392 7.832632664198112 2 -4 0
356 1 1.536120022772642 6.5455792410846785 9.209752313047234 0 0 -1
775 1 1.1134322055562602 8.736902059733639 9.414383617759047 0 3 1
646 1 3.9044705144944647 7.567538776184834 9.422310291566449 2 -2 0
706 1 4.836120891809549 9.130183549036634 7.581379845940638 -1 0 2
442 1 5.829029735261369 6.232780164233068 5.58917397792759 -4 -3 1
2006 1 4.940902704096475 6.897504369420177 7.5107737507258 -3 3 1
1728 1 7.084369030357168 5.411504646844673 7.462602490764354 1 2 2
299 1 6.1427368266483 8.49908147111771 5.505557157922189 -3 -3 1
1230 1 6.944074465579932 8.04312268781688 7.787439454805121 -1 -3 -1
131 1 7.9432897365150765 7.005407203987786 5.874543862457291 0 -2 -3
325 1 8.121943837942883 9.362453329263428 5.622635282266756 1 -1 -1
1416 1 5.9835544350362655 8.57430364555428 9.96820033836665 -1 0 0
1278 1 6.104003904105767 6.413335971354359 9.381352540712866 3 4 -2
146 1 8.12657313248774 7.672188394847878 9.68285255157692 1 -3 1
1551 1 11.618640552642894 5.319715670099364 7.486213347113294 1 2 0
2001 1 10.231500283158528 5.931824871267161 5.693379697450765 2 0 -3
1943 1 9.206345101057934 9.00707898286118 7.731752847156717 1 3 2
265 1 9.95559207940106 8.31662964238895 5.511765125362531 3 -1 -2
1487 1 11.3914641314715 7.493958256250354 7.715157292060626 -2 2 -2
1182 1 9.22929425950862 6.544339126705801 7.73951850428388 3 1 1
489 1 12.11026145014064 9.233300629342198 6.353628045970133 0 -1 5
318 1 15.587236736235779 5.241596231370661 8.184849428183476 0 2 1
1709 1 12.412050692883616 6.88519456891909 5.637436375970094 -4 -1 1
1453 1 14.59511778613171 5.458502357651662 5.937936392339293 1 2 5
817 1 13.404477423601936 6.48295915609503 7.80812878866654 2 1 -3
1151 1 14.817597265515193 7.761150566478467 6.1046139483944035 -1 1 -2
510 1 13.46911479736378 8.733207697717852 8.397834441077753 1 0 1
703 1 15.48338507822096 7.412563232090383 8.336671149035434 3 -1 2
1699 1 19.11953601318495 5.750236283753674 6.390827284620742 -2 -2 2
184 1 16.766801892604846 6.753476107038388 6.26809679632313 0 2 1
289 1 16.544804409919813 9.19226264061474 6.257435179641042 0 -4 2
1718 1 17.84860826072604 6.064990243795943 8.23400263903434 -2 0 -1
1051 1 17.54267259585986 8.689590403288328 8.304259709237689 0 0 -1
854 1 18.80997341515464 7.769112863803901 6.239450303701454 0 0 -1
1194 1 23.215824866899467 5.1605219357432155 6.986332083407209 0 2 2
1311 1 19.82643323490304 7.224392964019295 8.304098916496782 -1 -3 0
1267 1 20.986004239855443 8.842118950815278 6.52517143484916 -1 0 0
1097 1 21.883773415273605 5.813684987340234 8.711405943725396 -1 3 -4
1588 1 21.005197782055824 6.401177437918734 6.720275461896888 0 1 5
1106 1 22.062488134525598 8.081270510226702 8.523265015836973 -1 1 -3
1332 1 23.29613486435752 7.49151699842856 6.886312749262283 2 1 1
244 1 27.48195024350991 7.130293402259774 7.383576717464423 2 0 2
1455 1 24.186358897818714 6.820102163354166 8.880568768980018 -2 1 1
277 1 25.9727009688556 7.932647581832204 8.910668900564069 1 1 1
1900 1 26.50383398332454 5.281617753092468 8.700288438171398 1 0 0
1053 1 25.25603498373656 6.438197332479865 6.929058023979547 0 3 -3
1571 1 25.180698218629132 8.815147790761307 6.794079661288491 0 1 -1
24 1 24.04724410472206 9.217026764866104 8.871899039077869 2 2 -2
639 1 27.17305313797607 9.552906933636853 7.615136306983891 1 6 1
610 1 3.767013840463697 9.94516121184091 5.853846471899922 0 2 0
812 1 1.895764353604602 11.101639674213931 5.221880817371084 2 0 -1
1526 1 3.5502548414280466 12.40243635947999 6.186474087245564 -1 3 1
342 1 2.1584620575370614 10.201769380631298 7.652126554127831 4 2 1
965 1 1.414321389208372 13.38078622137321 5.677093590489582 -1 -4 0
1988 1 2.1445222772872086 12.674671254898394 7.843204886037586 1 2 -1
1874 1 4.588722766416635 11.229126477384218 7.631411387509137 0 0 3
436 1 1.1970305968964199 11.199534823145498 9.633754609626095 -1 -1 0
1023 1 3.218879195622495 9.573980812334083 9.579707920942019 0 2 -1
1613 1 16.678901791120577 11.668248565386735 10.691023615458901 -1 -2 -2
1050 1 1.0760149779872579 13.50209390932784 9.61850607341354 -1 3 0
2013 1 3.463813712321237 11.805604404977876 9.531674556294064 -1 2 -1
2034 1 5.814057781080469 10.727165362777376 5.83307435893824 1 1 -1
1642 1 7.316533424406303 10.270989662082226 7.771857562781518 -2 5 2
1829 1 8.028242206439423 11.849802406352303 6.187465288306981 3 2 -2
755 1 5.895399699800347 13.168329834586288 5.951788598229423 -2 3 3
1270 1 6.86809325654305 12.591323103786271 8.113343496958528 2 -2 2
1845 1 5.533427304373755 10.660320668735046 9.541433045472687 4 0 -2
189 1 7.930408233394124 12.152220474863164 10.027275615819628 0 1 2
455 1 5.5258374001826205 13.049369986489431 9.984351996938962 0 2 -1
1653 1 22.382783474123933 5.4639096525375646 0.886201939064693 -2 3 2
1755 1 8.733709391405123 13.674167511660631 8.199497501559183 -2 2 0
506 1 11.021735408498678 9.96175171125085 8.388126934766792 3 2 2
8 1 10.29223342965373 10.684513055293296 6.273026424879333 -1 -1 1
927 1 9.074343490262022 11.610371990110526 8.312445487561467 4 -3 -1
1109 1 11.16388702696917 12.396014155563416 8.372915954454323 -1 2 -1
144 1 10.098358704171225 12.896010208456522 6.259653612117455 2 2 -1
769 1 12.31512361832107 11.778352719959207 6.487182087182551 0 1 0
1059 1 15.482643877400358 9.704579413487185 8.406545743253858 -1 2 0
220 1 14.552878008577535 10.523522695609417 6.467169578298173 -1 -3 -4
354 1 13.426819496351541 13.308577283120545 8.706771720173617 -2 -2 3
1062 1 13.033590037258483 11.03445022859054 8.439601944600787 -2 1 1
2027 1 14.45114503615134 12.649456868010816 6.624913226150462 1 5 0
1417 1 15.489513944167532 11.941841503387016 8.718524135745575 -2 -1 -4
91 1 19.944727217390362 9.17000893696267 8.498621729738183 2 -2 0
1895 1 18.946574029809405 10.02278643814327 6.640604401347138 2 -2 0
1619 1 16.69219935034076 11.778326834344826 6.894032004699434 -4 1 1
51 1 17.958326576180955 10.9758606669381 8.661967692920348 -2 1 -1
1240 1 19.141388019201766 12.35973151592373 6.882998198527331 0 0 -4
1665 1 17.497510722313145 13.008905074424947 8.663196826293047 -3 -1 0
652 1 19.754331369432524 11.897834383633842 9.184634339686948 1 -3 -1
864 1 22.85278594506002 12.513042889848471 11.223458444842333 -3 1 3
149 1 24.10822378753374 12.005335878722413 13.178260666922846 -1 -2 -6
1673 1 16.055236160434443 13.912721854932382 7.18606044851089 -1 -2 1
473 1 23.06788175294801 9.930852311405967 6.846557825179533 2 -2 -1
629 1 21.080655407671955 10.885446754095534 6.875850025646241 -1 -3 1
302 1 21.881003788823 10.690655677608158 8.755368240433395 -1 -4 2
616 1 23.23064997762248 12.189116459365351 7.4122829376183486 -2 0 0
274 1 21.92533991393876 13.121912754488308 9.36060597882214 1 -1 1
1378 1 20.958686591523943 13.182712610205103 7.462281098880036 1 -1 -2
827 1 24.0838569679884 11.415151489244632 5.200112055186562 -2 3 2
476 1 23.920107350102704 13.97553130984886 9.305043735925683 0 1 -1
1195 1 26.295378064289668 12.359044354425821 9.393820177102914 0 -1 1
1575 1 24.102867621110374 11.617332049737092 9.255178949683954 -1 0 2
395 1 26.618881273174203 10.53340334595122 5.274621853684684 0 0 1
1489 1 25.884471915995835 10.123363669834404 9.454957366415874 1 2 -1
1554 1 25.176754279447152 11.067044586420915 7.22376308782134 0 1 1
1836 1 25.331157953031965 13.544142145723024 7.181996990839375 -2 -2 3
1540 1 27.392412580803242 11.889611761432775 7.17197948866452 -2 -1 4
1108 1 22.028860903926304 10.896206184841425 12.982491890903992 2 -1 3
1553 1 19.005137573332334 10.225717108112203 10.443836417745032 2 -1 3
401 1 1.5298304221844792 2.3789315453727666 12.5783439457307 0 -2 0
1446 1 2.6224119708192943 4.194648541321754 10.83104708116649 -1 3 2
790 1 3.33920613742368 1.8798586448292904 10.97554485496544 -3 -1 -1
477 1 3.606723665276711 3.3479921008735936 12.558883366613735 1 -2 1
1412 1 1.5029904104692835 4.675279601041798 12.789189557704992 3 0 -2
1361 1 5.998698055884662 4.034097553013519 9.41573328581247 0 1 -1
200 1 4.6646541965212 1.638517544668932 13.080285323410292 1 0 -1
1905 1 5.250121857331659 3.04511648949782 11.19542896212844 0 0 -1
672 1 6.7351746790511875 2.4333756793588384 13.249430042967047 0 -1 -1
1359 1 7.405843887720847 1.6060521568743267 11.04691109027817 -2 -1 1
1318 1 7.067749836207917 3.8724439627607596 11.305897107342535 2 1 1
1126 1 5.568176129377312 4.45026760958155 12.852336269572746 -1 -2 -2
1466 1 10.278168763601075 3.7335546643663564 9.382022698369525 -1 1 -1
1231 1 8.668863332331327 0.9241571152581558 13.162585291161582 -1 0 0
901 1 8.970498704706042 3.030950919804492 12.91740665418911 2 -2 -1
1064 1 10.842383172489345 1.8777699885865247 13.352709570294806 0 2 2
1977 1 9.469534851253917 2.3288559719394293 11.034714421012445 6 2 6
619 1 11.242940555421024 3.4845650543586677 11.629106832220423 1 0 1
1285 1 10.539401561195012 4.520715913358654 13.351149815583256 0 2 0
13 1 9.399394520125828 4.722193575202635 11.286811430879645 -1 1 -2
1431 1 11.516822411846464 1.2108849551789334 11.233902521137123 1 0 1
117 1 16.685265639085834 9.7330093328897 14.040418747939814 -1 0 2
1065 1 14.711272634500459 1.080905182095657 9.644044296386165 -1 2 1
1894 1 12.352280962535849 2.626527323618454 9.334399645011462 -1 3 0
1327 1 12.746930191300185 3.1658678329237624 13.557351950159191 -1 -3 2
1086 1 13.846443722117879 2.003614926956666 11.536861464069503 1 -1 -2
517 1 13.839575318203806 4.466258617288084 11.756329559210538 -2 -1 -1
1700 1 15.82374340887187 3.2126410996030232 12.10649022786318 -3 1 0
802 1 14.850880612357324 1.8137215539971254 13.71413347378932 -3 2 -3
909 1 14.722951568379688 4.344430824648843 13.777274178259626 -3 -1 3
437 1 12.23498523030792 4.8545927457760545 9.604841896976913 0 0 3
1490 1 12.832913501204175 0.8123091894292731 13.397190477113107 0 0 -2
967 1 18.881967423957335 0.8314825725836891 9.919328592332263 -2 1 1
595 1 16.817476065074292 2.7483510321723585 14.050146083096378 0 0 -1
1824 1 16.875582781557146 4.560933210969859 9.984535528364482 1 -1 3
600 1 18.806858513803945 3.2530238062409227 10.042218812441096 4 0 2
116 1 17.819109051120964 2.0557431839911198 11.90260999916691 -4 -1 1
27 1 17.905883544514484 4.159337306364884 12.085863354407293 2 0 -1
1999 1 14.369766881472353 0.6301820048304648 1.9876207553536942 1 1 3
1799 1 17.889180156262597 13.908301389425494 12.658094384841075 1 1 -2
978 1 27.137948688145894 9.839378481063747 11.197218742811868 -4 0 4
797 1 26.14590912650419 10.861899183082384 13.399064942187087 -4 -1 1
1271 1 23.230925548174223 10.269647483842059 10.87774245819742 -3 -1 1
695 1 19.866838806904067 2.9451617666637535 12.183846024102724 -4 0 2
1856 1 20.832798881169154 4.478820051420369 10.320926565645548 -1 -2 0
56 1 22.136670161948313 4.037127190383085 12.48976436392175 1 3 1
574 1 20.828925982001344 2.0581908494717513 9.96884745148486 -2 -2 1
844 1 21.926376456941323 2.0036101885685142 12.045975200873231 1 -2 3
448 1 23.09262243268939 3.2732815828019777 10.469998920949774 1 -1 0
925 1 23.202104401878312 1.0935830892563962 10.148595129275598 -1 0 -1
937 1 16.73627679544918 5.114941474207525 14.088093022052217 4 1 1
950 1 27.437633408024215 2.5930911974840174 10.694432429950659 1 1 1
1377 1 26.252739800624145 3.7445345476109035 12.712902233388956 1 -1 -1
186 1 25.38495720662306 1.5673547837162052 10.513270380713257 -2 -1 -1
855 1 26.323760220925653 1.3608589964181719 12.474866549911578 0 2 1
1821 1 24.121762692531288 2.4484162446951476 12.11727701168142 0 2 -3
1503 1 25.302100337680958 4.299930115402621 10.870499914756788 -1 -1 -4
333 1 24.120897647575433 4.856555868822219 12.837261325379872 -1 0 -2
1958 1 27.544297303039265 5.130039028686315 10.879975820511891 -3 -2 1
1210 1 3.3360186708371633 7.959726862038329 13.29388657939258 1 0 -3
1213 1 2.2038708700730045 6.630553207658717 11.228701319035398 2 -1 2
1541 1 3.6467491433096613 5.811757230142681 12.895719317718763 -1 -2 0
1499 1 2.197889132024958 8.7853620774904 11.422623139381082 -2 3 -2
93 1 1.2757698308595513 7.118338421959742 13.188597486227083 1 3 -3
1512 1 0.9610522177046248 9.42973875201176 13.304608914899807 1 -3 0
1867 1 4.508479751503504 9.36135795104277 11.462050531266138 0 4 -2
835 1 8.12809134309632 5.143785006607193 9.445892038104786 -3 0 -2
688 1 4.779822701288379 5.129752430876357 10.849095263365687 -3 1 2
1534 1 4.860934050035922 7.294623611047774 11.3335754915689 4 -1 -1
942 1 5.2251738829909 9.080784346275633 13.418534992103025 2 3 -1
1662 1 5.859506201422242 6.684698296384543 13.531436176372743 3 0 2
113 1 6.774200661039201 8.444098187560895 11.803776304682561 -1 -1 -1
1347 1 6.874026508373075 6.258719718191154 11.593042112440227 0 0 -1
1998 1 7.983935741487649 5.150480960946416 13.099805108514413 1 2 0
2048 1 8.123361596088891 7.760442473396207 13.40527639724465 -2 1 3
414 1 10.480673538978996 9.208835761724544 13.838120333696143 1 -1 -3
964 1 10.21225135692234 6.390617233395063 9.648551497104071 -3 0 2
1569 1 10.172472339101246 8.561648681255358 9.718553324087875 0 0 1
1820 1 9.024588401183642 6.982426721112949 11.482118651179226 -2 4 2
714 1 11.342907292952972 7.909481416121063 11.989925198142872 -1 -1 3
296 1 11.493076592456012 5.848945722347743 11.535105303892832 -1 0 -2
1879 1 10.102694643014768 6.700592435876575 13.538119827281479 0 2 2
1708 1 9.377852783146228 9.079740589591626 11.801897469358059 -2 0 -1
180 1 12.068654153677441 9.309375117273127 10.408526807451215 -2 -3 -1