LAMMPS (29 Oct 2020)
OMP_NUM_THREADS environment is not set. Defaulting to 1 thread. (src/comm.cpp:94)
  using 1 OpenMP thread(s) per MPI task
package omp 0
using multi-threaded neighbor list subroutines
package omp 2
set 2 OpenMP thread(s) per MPI task
using multi-threaded neighbor list subroutines
# units metal  #<----->
# dimension 3
# boundary p p p

# lattice fcc 3.5440
# region box block 0 8 0 8 0 8 units lattice
# create_box 1 box
# create_atoms 1 box

read_restart after_heating_press_500000_4200.lmp  #<----->
Reading restart file ...
  restart file = 29 Oct 2020, LAMMPS = 29 Oct 2020
  restoring atom style atomic from restart
  orthogonal box = (0.28958146 0.28958146 0.28958146) to (28.062419 28.062419 28.062419)
  2 by 1 by 2 MPI processor grid
  pair style eam/alloy/omp stores no restart info
  2048 atoms
  read_restart CPU = 0.002 seconds
# read_restart after_cooling_press_300000_1850.lmp

variable P equal 500000
variable dt equal 0.001
variable loopVar loop 6
variable sys_press equal "press/10000"

# variable sim string "heating"  #<----->
variable sim string "cooling"



pair_style eam/alloy
pair_coeff * * Co_Zhou04.eam.alloy Co
Reading eam/alloy potential file Co_Zhou04.eam.alloy with DATE: 2018-03-30




neighbor 2 bin
neigh_modify every 10 check yes

thermo 1000
thermo_style custom step temp vol press ke pe density

timestep $(dt)
timestep 0.0010000000000000000208



# velocity all create 3400 123123 #<----->

print """
yo aagadi
"""

yo aagadi

label ensemble

print """
Label pachadi solti, hos garam.
"""

Label pachadi solti, hos garam.

variable T equal 2900-${loopVar}*100  #<----->
variable T equal 2900-1*100  
# variable T equal 3750


reset_timestep 0
fix 1 all npt temp $T $T $(dt*100) iso $P $P $(dt*1000)
fix 1 all npt temp 2800 $T $(dt*100) iso $P $P $(dt*1000)
fix 1 all npt temp 2800 2800 $(dt*100) iso $P $P $(dt*1000)
fix 1 all npt temp 2800 2800 0.10000000000000000555 iso $P $P $(dt*1000)
fix 1 all npt temp 2800 2800 0.10000000000000000555 iso 500000 $P $(dt*1000)
fix 1 all npt temp 2800 2800 0.10000000000000000555 iso 500000 500000 $(dt*1000)
fix 1 all npt temp 2800 2800 0.10000000000000000555 iso 500000 500000 1
Resetting global fix info from restart file:
  fix style: npt/omp, fix ID: 1
print """
<--------------------------------------------------------------------->
<------------------ Equilibrating at temperature $T ----------------->
<--------------------------------------------------------------------->
"""

<--------------------------------------------------------------------->
<------------------ Equilibrating at temperature 2800 ----------------->
<--------------------------------------------------------------------->

fix temp all print 1000 "$(step) $(temp) $(press) ${sys_press} $(vol) $(ke) $(pe) $(density)" file temp_${sim}.txt screen no title  "step temp press pressGiga vol ke pe density"
fix temp all print 1000 "$(step) $(temp) $(press) ${sys_press} $(vol) $(ke) $(pe) $(density)" file temp_cooling.txt screen no title  "step temp press pressGiga vol ke pe density"
run 250000
All restart file global fix info was re-assigned
Last active /omp style is pair_style eam/alloy/omp
Neighbor list info ...
  update every 10 steps, delay 10 steps, check yes
  max neighbors/atom: 2000, page size: 100000
  master list distance cutoff = 7.6035394
  ghost atom cutoff = 7.6035394
  binsize = 3.8017697, bins = 8 8 8
  1 neighbor lists, perpetual/occasional/extra = 1 0 0
  (1) pair eam/alloy/omp, perpetual
      attributes: half, newton on, omp
      pair build: half/bin/atomonly/newton/omp
      stencil: half/bin/3d/newton
      bin: standard
Per MPI rank memory allocation (min/avg/max) = 4.331 | 4.331 | 4.331 Mbytes
Step Temp Volume Press KinEng PotEng Density 
       0    4062.8018    21422.036    491957.03    1074.9991   -7438.4022    9.3557115 
    1000    2766.1314    20656.177    507014.75    731.90596   -7687.5682    9.7025887 
    2000    2766.8114    20662.784    496810.18    732.08589   -7739.7982    9.6994862 
    3000    2754.9274    20673.477    501480.63    728.94143   -7703.8057    9.6944692 
    4000    2729.1038    20624.474     509720.7    722.10863   -7681.4474     9.717503 
    5000    2700.6362    20790.614    480307.66    714.57623   -7739.6997    9.6398495 
    6000    2784.9388     20667.83    501474.28    736.88231   -7701.0101     9.697118 
    7000    2829.0852    20610.817    497011.43    748.56327   -7762.5832    9.7239421 
    8000    2762.7641    20679.451    498332.54    731.01499    -7715.905    9.6916688 
    9000     2789.711    20612.151    504213.36    738.14501   -7728.4841    9.7233128 
   10000     2802.099     20654.44    498803.91    741.42284   -7732.6828    9.7034046 
   11000    2761.7557    20621.225    503682.88    730.74816   -7722.1879     9.719034 
   12000    2888.5604    20684.478    503111.02    764.30014   -7697.5778    9.6893131 
   13000    2774.8972    20691.773    493563.53    734.22537   -7734.7543    9.6858971 
   14000    2779.9083    20620.726    512988.26    735.55127   -7678.3693    9.7192692 
   15000    2708.6481    20650.628    500134.14    716.69614     -7714.83    9.7051955 
   16000    2843.9759    20633.022    500538.03    752.50328   -7736.7668    9.7134771 
   17000    2798.4071    20595.687    510956.66    740.44596   -7696.4534     9.731085 
   18000    2720.4947    20682.943    494457.29    719.83069   -7732.9339    9.6900323 
   19000    2723.9935    20630.308    501165.04    720.75647   -7722.4677    9.7147552 
   20000    2885.6661    20604.272    508057.13     763.5343   -7719.5205    9.7270307 
   21000    2805.2075    20659.122    497550.32    742.24534   -7737.7047    9.7012053 
   22000    2782.9392    20621.862    501900.17    736.35325   -7731.0758    9.7187335 
   23000    2795.4838    20612.606    506344.58    739.67247   -7716.5094    9.7230981 
   24000    2822.1693    20717.248    489688.71    746.73335   -7744.1285    9.6739868 
   25000    2823.3292    20727.981    489062.11    747.04025   -7739.6382    9.6689778 
   26000    2855.5839    20576.455    512989.22    755.57469   -7706.3579    9.7401805 
   27000    2828.4475    20702.767    494817.89    748.39454   -7725.4666    9.6807535 
   28000     2785.016    20637.774     502137.5    736.90276   -7726.4177    9.7112404 
   29000    2824.6567    20642.943    504194.09    747.39149   -7711.5011    9.7088088 
   30000     2854.925    20615.601       501854    755.40034   -7745.0392    9.7216853 
   31000    2812.6097    20688.031    490930.15    744.20392   -7750.1077    9.6876489 
   32000    2885.1591    20609.056    510922.84    763.40017   -7707.6706    9.7247728 
   33000    2763.9915    20665.153    500863.96    731.33976   -7709.1069    9.6983742 
   34000    2809.6971    20624.609    497322.52    743.43325   -7755.9594    9.7174394 
   35000    2766.2307    20704.684    491363.99    731.93224   -7739.4654    9.6798575 
   36000    2850.6827    20614.297    510666.63    754.27785   -7698.6442    9.7223005 
   37000    2854.4077    20697.511    497768.14    755.26349   -7715.0624    9.6832118 
   38000    2722.0661    20678.685    497647.95    720.24648   -7719.2101    9.6920277 
   39000    2848.7307    20580.851     513890.4    753.76138   -7700.6325    9.7380999 
   40000     2796.745     20732.86    486764.92    740.00619   -7744.3981    9.6667024 
   41000    2718.6899    20653.018     497565.6    719.35315   -7730.9851    9.7040726 
   42000    2749.8262    20604.764    509025.37    727.59169    -7701.128    9.7267985 
   43000    2833.9517    20674.367     504003.4    749.85091   -7694.2142    9.6940518 
   44000    2757.1464    20696.753     495308.9    729.52858   -7726.8112    9.6835665 
   45000    2827.2661    20703.259    494376.48    748.08193   -7722.3135    9.6805236 
   46000    2834.1618    20585.747    515471.13     749.9065    -7688.273     9.735784 
   47000    2736.9974    20679.831    497739.38    724.19724   -7718.3935    9.6914904 
   48000    2732.2372    20674.357    501976.05    722.93772   -7701.8369    9.6940567 
   49000    2842.1323    20640.621    507253.47    752.01545   -7701.3718    9.7099009 
   50000    2805.9173     20655.12    496727.39    742.43313   -7738.4393    9.7030849 
   51000    2747.4854    20688.149    496986.22    726.97231   -7715.8488    9.6875939 
   52000    2849.1987    20510.704     520313.1     753.8852    -7705.005    9.7714045 
   53000    2711.3665    20660.588    497425.51    717.41541    -7729.999    9.7005171 
   54000    2762.8696    20676.379    497453.44    731.04291   -7723.4346    9.6931086 
   55000    2809.1336    20642.923    506693.16    743.28414   -7699.3822    9.7088183 
   56000    2783.2799    20700.004     496213.4    736.44339   -7721.2305    9.6820459 
   57000    2768.1744    20682.895    487843.76    732.44652   -7769.3409    9.6900547 
   58000    2842.1843    20521.528    523784.95    752.02923   -7683.8293    9.7662508 
   59000    2738.2961    20666.093    496694.45    724.54088   -7733.7755    9.6979331 
   60000    2842.5904    20687.546    493623.23    752.13668   -7744.0145    9.6878762 
   61000    2848.4979    20626.151    506008.62    753.69977   -7718.0755    9.7167128 
   62000    2728.2083    20694.813    491083.09    721.87169   -7745.9498    9.6844745 
   63000    2775.0944    20587.137    508381.56    734.27755   -7716.2043    9.7351267 
   64000    2859.7694    20563.119    512169.48    756.68215    -7718.196    9.7464974 
   65000     2837.472     20705.83    491212.82    750.78236   -7742.9224    9.6793215 
   66000    2908.7544    20641.828     496285.3    769.64337   -7754.5915    9.7093334 
   67000    2718.7638    20636.781    501433.97    719.37272   -7721.1926    9.7117078 
   68000    2809.3923    20542.778    515941.62     743.3526   -7711.1573    9.7561481 
   69000    2783.9185      20736.2     482994.4    736.61235    -7763.609    9.6651453 
   70000    2878.6653    20688.826    492686.48    761.68193   -7748.6641    9.6872768 
   71000    2825.7988    20660.855    499161.26    747.69371   -7732.1675    9.7003915 
   72000    2848.9813    20723.175    491191.99    753.82767   -7731.8353    9.6712199 
   73000    2719.9416    20608.045    503641.57    719.68436   -7725.1289    9.7252501 
   74000    2849.1958    20591.362    509664.46    753.88442   -7710.8013     9.733129 
   75000    2773.8395    20709.474       490312    733.94549   -7744.8823    9.6776183 
   76000    2870.5376    20586.107    509141.68    759.53137   -7722.4993    9.7356138 
   77000    2722.3525    20676.682    496057.72    720.32228   -7727.6235    9.6929665 
   78000    2760.8901    20631.305     500698.4    730.51913   -7730.4829    9.7142856 
   79000    2794.1521     20605.82    506097.77    739.32013   -7721.8246       9.7263 
   80000    2727.2461    20654.693    494950.51    721.61709   -7741.8159    9.7032857 
   81000    2792.3733    20665.056    498081.02    738.84947   -7723.4603    9.6984198 
   82000    2809.6739    20619.669     504160.1    743.42711   -7727.0595    9.7197673 
   83000    2853.6105     20666.55    498103.11    755.05255   -7728.8541    9.6977184 
   84000     2834.525    20730.955    489471.92     750.0026   -7737.5654    9.6675906 
   85000    2891.1632    20640.409    503719.66    764.98881    -7716.239    9.7100006 
   86000    2813.1929    20619.116    505274.06    744.35824   -7716.8789    9.7200282 
   87000    2772.3469    20758.964    482655.05    733.55055   -7751.6373    9.6545465 
   88000    2859.6095    20602.991    510816.95    756.63985   -7701.8354    9.7276353 
   89000    2781.0407    20713.778    496411.99    735.85089   -7709.0836    9.6756075 
   90000    2808.2462     20664.69    493188.56    743.04935   -7753.7747    9.6985917 
   91000    2850.8609    20652.285    499913.47    754.32501   -7725.9005     9.704417 
   92000    2742.9219    20651.415    496817.81    725.76484   -7740.4638     9.704826 
   93000    2780.2474    20621.326    505812.84    735.64099    -7717.846    9.7189864 
   94000     2790.825    20700.877    494804.86     738.4398   -7729.1613    9.6816373 
   95000    2798.9006    20666.365    497018.58    740.57655    -7737.782    9.6978054 
   96000    2813.1779    20608.076    513653.84    744.35426   -7684.2059    9.7252354 
   97000    2791.9089    20670.103    498119.84    738.72657   -7725.1813    9.6960518 
   98000    2804.5636    20695.056    492177.88    742.07496   -7741.8007    9.6843605 
   99000    2854.9619    20660.996    504194.02    755.41012   -7706.9666    9.7003257 
  100000    2810.1796    20660.334    499306.43    743.56092   -7725.4499    9.7006363 
  101000    2853.0632    20620.715     506737.9    754.90774   -7711.6126    9.7192744 
  102000    2729.4584    20694.775    497060.36    722.20245    -7712.153    9.6844923 
  103000    2785.0531    20734.148    486726.23    736.91256    -7746.969     9.666102 
  104000    2813.8157    20575.082    512389.37    744.52301   -7708.5128    9.7408303 
  105000    2803.0871    20637.249    496784.93    741.68428   -7747.5249    9.7114874 
  106000    2784.4592    20635.002    500359.88    736.75542    -7730.052    9.7125451 
  107000    2706.8089    20610.328    509058.88    716.20951   -7694.5419    9.7241726 
  108000    2806.2228    20681.621    493731.52    742.51397   -7740.1671    9.6906518 
  109000    2813.0107    20678.111    495435.67    744.31002   -7734.5354    9.6922965 
  110000    2818.5589      20628.9    510520.53    745.77806   -7689.4294    9.7154178 
  111000    2719.1402    20668.459       497995    719.47232   -7718.8774    9.6968231 
  112000    2789.3698    20661.652    496823.06    738.05475    -7735.674    9.7000176 
  113000    2891.9512    20573.488    515518.47    765.19734   -7701.4098    9.7415851 
  114000    2799.5717    20681.834    493532.79    740.75411   -7741.4425     9.690552 
  115000    2901.6789    20666.617    496838.95    767.77123   -7737.4119    9.6976871 
  116000    2771.7921    20627.941    504113.62    733.40376   -7716.3704    9.7158696 
  117000    2775.0065    20732.395    491366.18    734.25429    -7720.213    9.6669193 
  118000    2755.4344    20688.079    499607.62    729.07559   -7705.9014    9.6876266 
  119000    2892.3368    20574.131    509827.78    765.29935   -7726.4911    9.7412807 
  120000    2835.1447    20748.658    489792.31    750.16657   -7728.7228    9.6593422 
  121000    2764.4907    20584.616    507158.23    731.47186   -7723.4663    9.7363191 
  122000    2809.8665    20652.926    501768.38    743.47807   -7716.0227    9.7041157 
  123000    2936.4043    20800.592    474876.84    776.95941   -7776.2708    9.6352253 
  124000    2880.2828    20585.695    513816.57    762.10991   -7695.2808    9.7358084 
  125000    2905.0326    20670.405    494179.98     768.6586   -7755.6973      9.69591 
  126000    2811.4308    20694.841     495988.6    743.89198   -7720.6273    9.6844611 
  127000    2833.7803    20656.475    500610.35    749.80555   -7725.9985    9.7024487 
  128000    2810.8975    20721.418    495547.13    743.75089      -7713.2    9.6720402 
  129000    2782.0167    20537.358    516795.57    736.10915   -7711.2067     9.758723 
  130000    2825.0229    20630.236    500605.66    747.48839   -7734.0891    9.7147886 
  131000    2872.1938    20713.944    493924.85     759.9696   -7729.4584      9.67553 
  132000    2759.7729    20564.497    514443.81    730.22353   -7698.3813    9.7458443 
  133000    2761.9039    20671.703    494114.24    730.78739   -7737.4173    9.6953011 
  134000    2800.2071    20726.911    489424.76    740.92224   -7734.1361    9.6694767 
  135000    2827.4859     20542.25    517710.72     748.1401   -7700.1773    9.7563988 
  136000    2751.6379    20652.809    502993.64    728.07105   -7704.6672    9.7041709 
  137000    2749.0321    20678.231    495357.95    727.38158   -7732.8208    9.6922406 
  138000    2849.6977    20603.577    506920.92    754.01724   -7726.8829    9.7273587 
  139000    2809.7682    20690.616    494184.12    743.45208   -7735.3664    9.6864389 
  140000    2821.5556    20625.766     505045.1    746.57097   -7718.2394    9.7168944 
  141000    2795.1815    20538.654    515319.71    739.59248   -7713.8978    9.7581072 
  142000    2850.6852    20740.235    487449.66    754.27851   -7743.5753    9.6632648 
  143000     2807.427    20606.583    506779.39     742.8326    -7713.676    9.7259398 
  144000    2795.2406    20640.138    499343.71    739.60814   -7737.5936    9.7101283 
  145000    2784.3727    20660.911    501731.55    736.73254   -7712.9564    9.7003654 
  146000    2796.3564    20603.583    505718.04    739.90337    -7727.269    9.7273561 
  147000    2763.1725    20751.561     485896.3    731.12306   -7743.2952    9.6579909 
  148000      2872.77    20615.393    510155.89    760.12207   -7697.3698    9.7217833 
  149000    2834.7345    20653.864    498938.75    750.05803   -7731.4357    9.7036753 
  150000     2817.367    20677.142     495886.9    745.46267   -7734.5596    9.6927508 
  151000    2728.1295    20692.812    497547.62    721.85083   -7715.1785    9.6854111 
  152000    2747.4297    20577.394    508517.47    726.95759   -7720.4871    9.7397361 
  153000    2799.0723     20696.34    495127.58    740.62198   -7728.4192      9.68376 
  154000     2788.302    20681.456    487877.26    737.77221   -7769.2351     9.690729 
  155000     2844.454    20599.471    508476.52    752.62978   -7715.3517    9.7292979 
  156000    2691.8783    20666.243    491895.34    712.25892   -7754.4178    9.6978626 
  157000    2816.2082     20668.32     498598.2    745.15606   -7722.4824    9.6968882 
  158000    2816.3677    20650.817    501630.11    745.19827   -7721.1596    9.7051069 
  159000    2811.8091    20652.481    503606.76    743.99208   -7710.5694     9.704325 
  160000    2720.1546    20737.816     484002.5    719.74071      -7752.2    9.6643923 
  161000    2789.2787    20607.603    508140.87    738.03064   -7709.0457    9.7254583 
  162000    2792.5476     20590.19    513263.73    738.89558   -7691.1455    9.7336834 
  163000    2760.9996    20683.368    491660.72    730.54812   -7748.7334    9.6898331 
  164000    2839.1044     20630.38    503871.63    751.21429   -7720.6421    9.7147209 
  165000    2839.5856    20672.878    501842.11    751.34162   -7702.2206    9.6947501 
  166000    2847.3504    20712.384     488270.1    753.39615   -7750.7187    9.6762588 
  167000    2810.4197     20669.64    499784.22    743.62444   -7722.9831    9.6962687 
  168000    2777.4007      20568.2    513591.97    734.88778    -7705.484    9.7440895 
  169000    2897.3558    20728.371    492190.69    766.62737   -7726.3376    9.6687956 
  170000    2873.5601    20648.362     500179.4    760.33112   -7730.5647    9.7062606 
  171000    2725.5849    20641.999    499336.53    721.17754   -7727.1248    9.7092528 
  172000    2832.9785     20709.99    490593.92    749.59342   -7741.3033    9.6773771 
  173000    2809.2797    20619.994    511146.04     743.3228   -7685.8178    9.7196142 
  174000    2795.3698    20693.517    491926.25    739.64233   -7743.8004    9.6850808 
  175000    2797.9582    20727.686    488577.09    740.32721   -7739.8336    9.6691155 
  176000    2790.4422    20581.307     509644.5     738.3385   -7716.6419    9.7378843 
  177000    2704.1276    20647.084    497704.91    715.50003   -7732.9299    9.7068616 
  178000    2878.4062    20659.073     495420.7    761.61338   -7748.7601    9.7012285 
  179000    2768.4094    20591.094    510876.15    732.50871   -7704.8241    9.7332559 
  180000    2731.4768     20685.79    491272.08    722.73652   -7740.9017    9.6886987 
  181000    2848.4877    20676.403    494011.02    753.69708   -7744.5237    9.6930974 
  182000    2775.0487    20660.807    499367.15    734.26545     -7718.67     9.700414 
  183000    2720.4422    20644.824    499479.59    719.81681   -7730.2558     9.707924 
  184000    2842.1776    20518.505    520273.67    752.02746    -7699.457    9.7676895 
  185000    2859.7628    20672.416    496889.21    756.68042   -7738.6354    9.6949668 
  186000    2734.4659    20674.203    493208.39    723.52741    -7743.525    9.6941288 
  187000    2824.3967    20662.852    499163.83    747.32271    -7722.956    9.6994541 
  188000    2682.9023    20656.417    498696.18    709.88391   -7722.3929    9.7024757 
  189000     2794.273     20568.77    512071.52    739.35212   -7714.6207    9.7438198 
  190000    2793.1025    20678.656    502335.99    739.04239   -7699.6533    9.6920414 
  191000    2759.9561    20734.565    486277.96    730.27202    -7750.185    9.6659074 
  192000    2830.6747    20550.898    517489.77    748.98383   -7695.8742    9.7522932 
  193000    2815.3027    20659.241    498844.07    744.91648   -7728.0838    9.7011495 
  194000    2762.8831    20737.479    488722.64    731.04649   -7738.3343    9.6645494 
  195000    2796.7239    20700.231     497022.6    740.00062   -7714.1967    9.6819394 
  196000    2724.9242    20602.208    508406.54    721.00273   -7704.5319    9.7280051 
  197000    2845.3659    20673.296    499415.82    752.87106    -7718.516    9.6945542 
  198000    2800.9593    20739.048    485894.57    741.12128   -7747.6752    9.6638179 
  199000    2812.8048    20674.901    501329.88    744.25554   -7706.1735    9.6938014 
  200000     2877.479    20712.102    494298.46    761.36804   -7724.7639    9.6763906 
  201000    2705.3726    20631.778    496058.65    715.82947    -7752.515    9.7140626 
  202000    2838.6537    20601.151    510044.44    751.09503   -7709.2689    9.7285042 
  203000    2836.1232    20675.249    492742.24    750.42547   -7752.1777    9.6936384 
  204000    2858.4432    20702.523    495052.48    756.33125     -7724.32    9.6808677 
  205000    2759.4086    20633.492    502397.35    730.12714   -7725.6376     9.713256 
  206000    2860.1603    20674.477    501218.62    756.78559   -7709.9754    9.6940001 
  207000    2736.2533    20686.139    497420.81    724.00036   -7720.3934    9.6885351 
  208000    2775.4882    20532.332    516935.59    734.38174    -7704.947    9.7611115 
  209000      2740.33    20645.585     496636.3    725.07902   -7740.6039    9.7075664 
  210000    2758.9033    20680.938    495367.86    729.99346   -7729.6974    9.6909716 
  211000    2832.6027    20634.369    505826.98    749.49397   -7705.6408    9.7128428 
  212000    2760.0667    20683.942    494906.79    730.30127   -7733.1651    9.6895642 
  213000    2802.2947    20677.921    498977.88    741.47462    -7720.698    9.6923858 
  214000    2817.5483    20643.572    499085.08    745.51065   -7737.1879    9.7085129 
  215000    2899.3693    20659.254    500205.77    767.16011   -7724.9061    9.7011436 
  216000    2825.9141    20769.987    483246.72    747.72419   -7742.7062    9.6494227 
  217000    2836.9415    20601.926    509300.18      750.642   -7707.3375    9.7281385 
  218000    2731.9607    20661.594    498536.06    722.86455   -7723.0364    9.7000447 
  219000    2793.2983    20630.316    501008.79     739.0942   -7732.5366    9.7147513 
  220000    2852.0123    20658.601    502914.55    754.62967   -7713.4107    9.7014501 
  221000    2777.4002     20712.83    488868.12    734.88765   -7746.8967    9.6760502 
  222000    2864.4612     20633.29    502950.25     757.9236    -7725.427    9.7133508 
  223000    2843.8483    20658.767    502912.12    752.46951   -7711.3365    9.7013722 
  224000     2846.536    20650.782    496330.88    753.18066   -7750.2945    9.7051234 
  225000     2709.069     20674.31     495598.1     716.8075   -7728.0632    9.6940786 
  226000     2864.525    20489.517     531366.8    757.94047   -7663.6866    9.7815087 
  227000    2742.8655    20690.614    493265.79    725.74991   -7737.2586    9.6864398 
  228000    2868.9476    20595.498    508816.65    759.11068    -7720.517    9.7311747 
  229000    2770.6608    20646.245    500876.12    733.10443   -7722.2931    9.7072561 
  230000    2772.0111    20712.061     488385.6     733.4617    -7753.267    9.6764094 
  231000    2771.4646     20604.17    508233.43    733.31711   -7706.6668    9.7270787 
  232000      2827.91    20614.681    509370.44     748.2523   -7709.3798    9.7221193 
  233000    2816.0946    20729.651    489287.49    745.12602   -7737.5093    9.6681989 
  234000    2809.2788    20657.281    502833.41    743.32258    -7710.789      9.70207 
  235000    2720.5173     20609.18    507194.46    719.83668   -7707.3406    9.7247144 
  236000    2821.0188    20716.871    486652.11    746.42894   -7760.4157    9.6741632 
  237000    2818.6086    20649.049     499122.9     745.7912   -7733.1694    9.7059378 
  238000    2863.2406    20611.119    506824.38    757.60064   -7717.9073    9.7237994 
  239000    2806.5331    20759.796    487959.04    742.59608   -7731.5574    9.6541597 
  240000    2720.8789    20611.206    505408.13    719.93235   -7711.9746    9.7237585 
  241000    2793.9783     20673.96    499327.41    739.27413    -7718.811    9.6942426 
  242000    2860.4172    20701.339    494613.57    756.85357   -7730.1225    9.6814215 
  243000    2802.4783    20629.882    506075.91     741.5232   -7708.8872    9.7149556 
  244000    2888.6949    20692.305    495716.19    764.33573   -7730.3141     9.685648 
  245000    2741.1139    20627.497    504414.88    725.28645   -7717.2148    9.7160788 
  246000    2779.8244    20575.241    514056.61    735.52908   -7697.4559    9.7407551 
  247000    2732.7832    20788.939     482357.3    723.08219   -7734.0363    9.6406262 
  248000    2781.5169    20614.864    500795.57    735.97689   -7741.0073    9.7220331 
  249000    2848.3803    20667.439    496152.77    753.66866   -7733.5593    9.6973015 
  250000    2775.7025    20713.575     488546.5    734.43843   -7747.1985    9.6757025 
Loop time of 503.757 on 8 procs for 250000 steps with 2048 atoms

Performance: 42.878 ns/day, 0.560 hours/ns, 496.271 timesteps/s
124.7% CPU use with 4 MPI tasks x 2 OpenMP threads

MPI task timing breakdown:
Section |  min time  |  avg time  |  max time  |%varavg| %total
---------------------------------------------------------------
Pair    | 301.96     | 305.87     | 309.5      |  18.0 | 60.72
Neigh   | 4.5662     | 4.5923     | 4.6113     |   0.8 |  0.91
Comm    | 20.704     | 24.454     | 28.551     |  64.6 |  4.85
Output  | 0.0059988  | 0.011433   | 0.01326    |   2.9 |  0.00
Modify  | 167.74     | 167.93     | 168.07     |   1.0 | 33.34
Other   |            | 0.8953     |            |       |  0.18

Nlocal:        512.000 ave         518 max         509 min
Histogram: 2 0 0 1 0 0 0 0 0 1
Nghost:        3033.75 ave        3045 max        3027 min
Histogram: 1 1 0 1 0 0 0 0 0 1
Neighs:        45890.0 ave       47621 max       44517 min
Histogram: 1 1 0 0 0 0 1 0 0 1

Total # of neighbors = 183560
Ave neighs/atom = 89.628906
Neighbor list builds = 5056
Dangerous builds = 0


# fix 132 all momentum 100 linear 1 1 1 angular
fix out_file_1 all print 1000 "$(step) $(temp) $(press) ${sys_press} $(vol) $(ke) $(pe) $(density)" file one_phase_${sim}_press_$P_$T_.txt screen no title  "step temp press pressGiga vol ke pe density"
fix out_file_1 all print 1000 "$(step) $(temp) $(press) ${sys_press} $(vol) $(ke) $(pe) $(density)" file one_phase_cooling_press_$P_$T_.txt screen no title  "step temp press pressGiga vol ke pe density"
fix out_file_1 all print 1000 "$(step) $(temp) $(press) ${sys_press} $(vol) $(ke) $(pe) $(density)" file one_phase_cooling_press_500000_$T_.txt screen no title  "step temp press pressGiga vol ke pe density"
fix out_file_1 all print 1000 "$(step) $(temp) $(press) ${sys_press} $(vol) $(ke) $(pe) $(density)" file one_phase_cooling_press_500000_2800_.txt screen no title  "step temp press pressGiga vol ke pe density"

# dump 3 all custom 1000 traj_npt_new.lammpstrj id type x y z
run 50000
Last active /omp style is pair_style eam/alloy/omp
Per MPI rank memory allocation (min/avg/max) = 4.332 | 4.332 | 4.332 Mbytes
Step Temp Volume Press KinEng PotEng Density 
  250000    2775.7025    20713.575     488546.5    734.43843   -7747.1985    9.6757025 
  251000    2831.0516    20620.281    507345.98    749.08356   -7709.4815    9.7194788 
  252000    2804.2262    20719.942    489239.59    741.98567   -7743.8645    9.6727292 
  253000     2777.375    20661.445    496340.62    734.88098   -7735.5399    9.7001146 
  254000    2760.0218    20567.957    517571.95     730.2894    -7682.123    9.7442046 
  255000     2764.111    20755.022    488640.59    731.37138   -7723.2234    9.6563803 
  256000    2890.2032    20712.864    498070.31     764.7348   -7708.0749    9.6760347 
  257000    2825.0431    20639.327    506700.98    747.49374   -7699.6132    9.7105098 
  258000      2792.35    20704.561    493466.15     738.8433   -7733.6414    9.6799147 
  259000    2749.0024    20617.489    507987.97    727.37372   -7704.1035    9.7207953 
  260000    2834.9788    20703.236    499277.93    750.12267   -7702.4214    9.6805345 
  261000    2782.9659    20639.731    502836.22    736.36029   -7716.9891    9.7103198 
  262000    2769.4311    20661.019     500566.5    732.77905   -7715.0215    9.7003147 
  263000      2858.85    20758.121     482733.6     756.4389   -7751.4239    9.6549388 
  264000    2788.9816    20597.778    511916.57    737.95202   -7696.2155    9.7300973 
  265000    2890.6333    20704.136       498012    764.84862   -7715.9254    9.6801136 
  266000    2837.1666    20711.365    494903.65    750.70157   -7722.4188    9.6767347 
  267000    2841.1092     20637.18    506146.27    751.74475   -7702.9691    9.7115201 
  268000    2772.1742    20658.181    496404.59    733.50486   -7734.0418    9.7016475 
  269000    2866.1938    20675.031     495139.2    758.38203    -7738.943    9.6937405 
  270000    2759.0184    20632.288    499832.42     730.0239   -7733.9111    9.7138225 
  271000    2816.1343     20669.82    498458.85     745.1365   -7729.8997    9.6961844 
  272000    2837.0068    20722.161    488066.61    750.65929   -7748.1955    9.6716931 
  273000    2768.3268    20555.278    516367.92    732.48686   -7700.0807    9.7502152 
  274000    2777.1339    20687.509    496540.89    734.81718    -7727.142    9.6878938 
  275000    2863.3541    20639.333    507598.38    757.63065   -7698.4363    9.7105068 
  276000     2825.426    20588.054     508434.6    747.59505    -7721.243    9.7346931 
  277000    2820.7125    20718.581    484534.18    746.34787   -7765.6786    9.6733645 
  278000    2898.1933    20634.955    500282.94    766.84894   -7742.7689    9.7125672 
  279000    2824.9872    20612.247    505455.54    747.47895   -7716.2206     9.723267 
  280000    2881.1689    20741.274    490865.13    762.34437   -7734.2071    9.6627811 
  281000    2815.8749    20635.521    502179.16    745.06787   -7727.3787     9.712301 
  282000    2785.0501    20672.672    500406.63    736.91177   -7709.9748    9.6948468 
  283000    2837.1711    20719.665    492364.78    750.70275   -7732.5919    9.6728582 
  284000    2807.2438    20622.281     502915.9    742.78412   -7731.1463    9.7185362 
  285000    2815.8353    20677.143    498381.28    745.05739   -7720.9367    9.6927506 
  286000    2746.4603    20696.697    489280.64    726.70108   -7751.2649    9.6835927 
  287000    2833.9342    20594.899    511074.14    749.84628   -7703.4419    9.7314576 
  288000     2792.436    20653.154    502533.68    738.86604   -7710.2817    9.7040087 
  289000    2775.5564    20700.652    491782.67    734.39978   -7739.8577    9.6817429 
  290000    2761.1897    20618.788    508098.08    730.59841   -7699.3522    9.7201828 
  291000    2757.3029    20671.082    496358.32    729.56999   -7729.8141    9.6955922 
  292000    2809.2185    20747.021    488148.26    743.30663   -7729.1898    9.6601043 
  293000    2735.8482    20554.674    516519.34    723.89316   -7694.3315    9.7505018 
  294000    2748.0751    20681.267    493806.94    727.12835   -7737.7711    9.6908176 
  295000    2793.4356    20651.722    504226.97    739.13053    -7705.125    9.7046815 
  296000    2762.4401    20691.662    496279.37    730.92926   -7719.3364    9.6859494 
  297000    2800.7832    20765.845    486688.53    741.07467   -7731.4128    9.6513474 
  298000    2843.1727    20550.936    515576.19    752.29075   -7708.3724    9.7522752 
  299000    2833.3381    20670.931    495800.59    749.68856   -7733.0978    9.6956631 
  300000     2787.077     20660.67    498906.65    737.44807   -7720.9676    9.7004787 
Loop time of 106.001 on 8 procs for 50000 steps with 2048 atoms

Performance: 40.754 ns/day, 0.589 hours/ns, 471.695 timesteps/s
123.9% CPU use with 4 MPI tasks x 2 OpenMP threads

MPI task timing breakdown:
Section |  min time  |  avg time  |  max time  |%varavg| %total
---------------------------------------------------------------
Pair    | 63.779     | 64.485     | 65.059     |   7.0 | 60.83
Neigh   | 0.95588    | 0.96289    | 0.96985    |   0.5 |  0.91
Comm    | 5.3237     | 5.8883     | 6.6323     |  23.6 |  5.55
Output  | 0.0011317  | 0.0017786  | 0.001999   |   0.9 |  0.00
Modify  | 34.436     | 34.475     | 34.502     |   0.4 | 32.52
Other   |            | 0.1882     |            |       |  0.18

Nlocal:        512.000 ave         512 max         512 min
Histogram: 4 0 0 0 0 0 0 0 0 0
Nghost:        3046.25 ave        3057 max        3032 min
Histogram: 1 0 0 1 0 0 0 0 0 2
Neighs:        46022.8 ave       47375 max       44836 min
Histogram: 2 0 0 0 0 0 0 0 1 1

Total # of neighbors = 184091
Ave neighs/atom = 89.888184
Neighbor list builds = 1012
Dangerous builds = 0

unfix temp
unfix out_file_1


write_data after_${sim}_press_$P_$T.in
write_data after_cooling_press_$P_$T.in
write_data after_cooling_press_500000_$T.in
write_data after_cooling_press_500000_2800.in
System init for write_data ...
Last active /omp style is pair_style eam/alloy/omp
write_restart after_${sim}_press_$P_$T.lmp
write_restart after_cooling_press_$P_$T.lmp
write_restart after_cooling_press_500000_$T.lmp
write_restart after_cooling_press_500000_2800.lmp
System init for write_restart ...
Last active /omp style is pair_style eam/alloy/omp

next loopVar  #<----->
jump in.lmp ensemble

print """
Label pachadi solti, hos garam.
"""

Label pachadi solti, hos garam.

variable T equal 2900-${loopVar}*100  #<----->
variable T equal 2900-2*100  
# variable T equal 3750


reset_timestep 0
fix 1 all npt temp $T $T $(dt*100) iso $P $P $(dt*1000)
fix 1 all npt temp 2700 $T $(dt*100) iso $P $P $(dt*1000)
fix 1 all npt temp 2700 2700 $(dt*100) iso $P $P $(dt*1000)
fix 1 all npt temp 2700 2700 0.10000000000000000555 iso $P $P $(dt*1000)
fix 1 all npt temp 2700 2700 0.10000000000000000555 iso 500000 $P $(dt*1000)
fix 1 all npt temp 2700 2700 0.10000000000000000555 iso 500000 500000 $(dt*1000)
fix 1 all npt temp 2700 2700 0.10000000000000000555 iso 500000 500000 1
print """
<--------------------------------------------------------------------->
<------------------ Equilibrating at temperature $T ----------------->
<--------------------------------------------------------------------->
"""

<--------------------------------------------------------------------->
<------------------ Equilibrating at temperature 2700 ----------------->
<--------------------------------------------------------------------->

fix temp all print 1000 "$(step) $(temp) $(press) ${sys_press} $(vol) $(ke) $(pe) $(density)" file temp_${sim}.txt screen no title  "step temp press pressGiga vol ke pe density"
fix temp all print 1000 "$(step) $(temp) $(press) ${sys_press} $(vol) $(ke) $(pe) $(density)" file temp_cooling.txt screen no title  "step temp press pressGiga vol ke pe density"
run 250000
Last active /omp style is pair_style eam/alloy/omp
Per MPI rank memory allocation (min/avg/max) = 4.332 | 4.332 | 4.332 Mbytes
Step Temp Volume Press KinEng PotEng Density 
       0     2787.077     20660.67    498906.65    737.44807   -7720.9676    9.7004787 
    1000     2760.431    20619.956    499200.21    730.39766   -7747.0215    9.7196319 
    2000     2696.761    20559.501    502435.16    713.55088     -7760.26    9.7482124 
    3000    2718.4007    20599.179    498848.65    719.27665   -7755.4987    9.7294356 
    4000    2680.0981    20584.505    502247.87    709.14193   -7743.3812    9.7363714 
    5000    2739.4533    20591.639    501446.21    724.84706   -7748.9547    9.7329982 
    6000    2690.5674    20607.516     492344.9    711.91207   -7776.2019    9.7254997 
    7000     2842.446    20690.678    491761.48    752.09846   -7747.5739    9.6864098 
    8000    2690.8128    20514.292    515415.22    711.97699   -7722.5719    9.7696954 
    9000    2716.6034     20650.35    495745.82    718.80109    -7739.077    9.7053262 
   10000    2711.7511     20583.73    500337.84    717.51718   -7755.8132    9.7367381 
   11000    2727.8578    20574.635    502013.91    721.77894   -7753.9827    9.7410422 
   12000    2785.5371    20666.459    490842.11    737.04063   -7766.4195    9.6977614 
   13000    2717.3845      20635.1    493196.81    719.00775   -7763.4258    9.7124988 
   14000     2701.641    20575.968    506470.66    714.84208   -7730.7958    9.7404109 
   15000    2789.4845     20596.57    500959.07    738.08509   -7749.7817     9.730668 
   16000    2591.5323    20690.606    486191.66    685.70783   -7761.1377    9.6864437 
   17000    2789.7852    20608.392    504888.04    738.16465   -7726.6013    9.7250862 
   18000    2717.9363    20589.404    500437.24    719.15377   -7752.0711    9.7340547 
   19000    2576.0203    20602.311    498054.84    681.60344   -7749.7569    9.7279563 
   20000     2676.956    20568.259    498449.21    708.31055   -7770.5142    9.7440619 
   21000    2726.3405    20580.636    502957.07    721.37747   -7743.7154    9.7382016 
   22000    2710.2366    20687.774    485917.36    717.11646   -7768.7854    9.6877693 
   23000    2718.9967    20589.934    503526.35    719.43434   -7734.6869    9.7338043 
   24000    2719.6653    20543.076    507923.43    719.61124   -7738.3962    9.7560068 
   25000    2676.2374    20609.161    505737.57    708.12043   -7715.3957    9.7247233 
   26000    2690.3032    20614.245    496954.12    711.84215   -7754.8618    9.7223249 
   27000    2732.5369     20615.99     498908.6    723.01702   -7743.4036    9.7215018 
   28000    2732.6795     20565.27    507403.97    723.05474   -7731.4189    9.7454782 
   29000    2721.2912     20660.61    487411.73    720.04146   -7777.0174    9.7005067 
   30000    2661.0905    20628.301    488955.34    704.11262   -7786.5252    9.7157001 
   31000    2709.6762    20547.016    512062.14    716.96818   -7717.2728    9.7541361 
   32000    2692.1861    20614.937    497281.83    712.34037   -7755.0408    9.7219986 
   33000    2699.7219    20635.956    494308.65    714.33431   -7755.8374    9.7120959 
   34000    2746.3348    20511.398     516266.2    726.66788   -7719.3315    9.7710739 
   35000    2674.0469    20624.476    494646.48    707.54083   -7756.7534    9.7175021 
   36000    2738.4563    20673.616    487646.28    724.58327   -7768.7863    9.6944039 
   37000    2753.3089    20611.434    499321.57     728.5132   -7746.0733    9.7236508 
   38000    2665.4985    20553.895     507248.1    705.27894    -7734.649    9.7508713 
   39000    2713.0435    20616.861     497151.2    717.85915   -7759.5364    9.7210912 
   40000    2766.4083     20596.37    502731.07    731.97922   -7741.7226    9.7307627 
   41000    2690.9174    20578.093    500584.22    712.00468   -7758.0727     9.739405 
   42000     2694.318    20613.075    498258.21    712.90447   -7749.4836    9.7228768 
   43000    2758.0487    20558.236    501269.29    729.76733   -7769.2729    9.7488123 
   44000    2670.4632    20554.601    508624.02    706.59258   -7725.7558    9.7505365 
   45000    2699.3846    20630.798    489809.59    714.24507   -7783.9705    9.7145243 
   46000    2726.9761    20572.713    505064.69    721.54565   -7741.4911    9.7419522 
   47000    2684.6941    20529.644    510388.19    710.35803    -7732.913    9.7623895 
   48000    2639.9584     20603.41    500425.64    698.52116   -7742.6627    9.7274376 
   49000    2696.4001    20587.337    503154.24    713.45539   -7746.1331    9.7350323 
   50000     2799.188    20641.507    490549.96    740.65259   -7776.8372    9.7094843 
   51000    2772.1779     20620.51    499316.35    733.50585   -7747.2366    9.7193709 
   52000    2735.1403    20586.984    503785.97    723.70587   -7738.2834    9.7351992 
   53000    2765.9319    20670.243    490602.89    731.85318   -7758.0311    9.6959861 
   54000    2636.1612    20639.671     497318.6    697.51645   -7734.2947    9.7103477 
   55000    2653.7147    20559.763    504359.64      702.161   -7743.2282    9.7480882 
   56000    2734.9044    20593.728    502145.31    723.64346   -7742.4367    9.7320109 
   57000    2744.3953    20611.666    501613.86    726.15469   -7740.5622    9.7235414 
   58000    2701.8264      20624.4    498964.01    714.89116   -7737.5889    9.7175378 
   59000    2690.6632    20596.947    499753.54    711.93743   -7749.7727    9.7304902 
   60000    2754.7634    20548.534    511877.98    728.89805   -7722.2065    9.7534155 
   61000     2709.538    20602.787    497258.49    716.93161   -7762.8964    9.7277319 
   62000    2694.8445    20671.271    489764.21    713.04376    -7758.319    9.6955036 
   63000    2764.0114    20606.789    503612.89    731.34502   -7734.3281    9.7258428 
   64000    2800.3715     20586.08    507956.62    740.96574   -7724.4663    9.7356264 
   65000    2685.8471    20683.938    491491.45     710.6631   -7746.0643    9.6895664 
   66000     2695.418    20648.873    491508.57    713.19553   -7761.9947    9.7060205 
   67000    2666.8042     20481.82    514923.34    705.62443   -7741.7894    9.7851845 
   68000    2692.5715    20616.492    500706.77    712.44235   -7737.4146    9.7212652 
   69000    2757.5027      20625.6    495103.26    729.62284   -7771.1892    9.7169724 
   70000    2739.3951    20597.525    501629.69    724.83167    -7747.164    9.7302171 
   71000    2701.7036    20629.868    497771.35    714.85866   -7744.0134    9.7149622 
   72000    2689.3774    20590.034    501148.07    711.59719   -7749.2657    9.7337571 
   73000     2657.972    20591.722    501238.15    703.28748   -7742.5738    9.7329592 
   74000    2679.0755    20630.672    497021.65    708.87136   -7749.5155    9.7145834 
   75000    2677.6313    20561.372    500580.47    708.48924   -7769.0491    9.7473254 
   76000    2642.0236    20618.673    500009.65     699.0676    -7736.049    9.7202369 
   77000    2714.7588    20644.071    493564.69    718.31302    -7754.312    9.7082783 
   78000    2684.6026    20603.888    497610.07    710.33382   -7756.0469     9.727212 
   79000    2735.6738    20567.355    507690.59    723.84704   -7727.2544      9.74449 
   80000    2630.5199    20591.285     498273.8    696.02378   -7758.2527    9.7331655 
   81000    2719.8769    20679.995     487643.9    719.66723   -7768.2525    9.6914136 
   82000     2721.308    20556.511    506067.79    720.04591   -7740.8811    9.7496303 
   83000    2755.3153    20580.658    500021.13    729.04407   -7763.7936    9.7381915 
   84000      2672.13    20595.523    501287.03    707.03363   -7742.7295     9.731163 
   85000    2740.5267    20652.106    493191.64    725.13107   -7754.6866    9.7045012 
   86000    2768.7787    20576.209    502093.28    732.60643   -7755.5722    9.7402969 
   87000    2692.3158    20599.405     495432.3     712.3747   -7775.3233    9.7293291 
   88000    2709.8053    20620.995    497287.51    717.00232   -7751.2697    9.7191425 
   89000    2629.1752     20581.25    500912.72    695.66797   -7751.2723    9.7379113 
   90000    2740.8619    20512.193    513392.07    725.21978    -7739.616    9.7706953 
   91000    2655.4868    20684.139    486437.85     702.6299   -7765.1173    9.6894721 
   92000    2761.1825    20614.773    497354.49    730.59651   -7754.9689    9.7220759 
   93000    2692.8257    20552.206    506362.15    712.50961   -7743.2009    9.7516728 
   94000    2725.2663    20610.059    499106.27    721.09324   -7749.4968    9.7242994 
   95000    2651.3451    20671.954    490227.36    701.53402   -7753.7246    9.6951837 
   96000    2675.4104    20571.186    504405.65    707.90159   -7742.4562    9.7426751 
   97000      2719.24    20550.161    507125.74    719.49872   -7742.4034     9.752643 
   98000    2688.1854    20667.709    494587.42    711.28181   -7737.8647    9.6971748 
   99000    2650.1696    20584.628    502048.61    701.22299   -7743.2698    9.7363132 
  100000    2813.9624    20509.105    512710.11    744.56183    -7744.347    9.7721662 
  101000    2657.4363    20662.999    486569.05    703.14574   -7776.6828     9.699385 
  102000    2714.2544    20645.554    495423.84    718.17954   -7747.4749    9.7075809 
  103000     2644.041    20539.475    508768.87    699.60139   -7733.3463    9.7577173 
  104000    2621.3639    20617.572     496602.9    693.60114   -7752.6265    9.7207558 
  105000    2639.9942    20652.308    495954.03    698.53064   -7737.2755    9.7044063 
  106000    2783.1367    20501.378     514991.7     736.4055   -7739.7228    9.7758497 
  107000     2740.352    20599.836    504448.14    725.08485   -7726.3251    9.7291255 
  108000    2659.2013    20658.882    489397.15    703.61275   -7763.3182    9.7013182 
  109000    2718.9002    20565.412    506371.48    719.40881    -7737.545    9.7454108 
  110000    2723.3159    20601.435    501768.85    720.57718   -7738.4524    9.7283702 
  111000     2682.374     20612.39    499174.15    709.74412   -7745.5777    9.7231997 
  112000    2677.0618    20592.928    498692.18    708.33856   -7753.5261    9.7323889 
  113000    2632.9437    20616.425    500309.46     696.6651   -7730.2923    9.7212967 
  114000    2674.6462    20555.013    510420.88    707.69939   -7722.0254    9.7503411 
  115000    2660.3642    20645.694    491375.66    703.92044   -7767.2761    9.7075151 
  116000    2659.8239    20626.617    496896.68    703.77749   -7748.4781    9.7164934 
  117000    2772.7298    20575.272    508631.34    733.65188    -7723.562    9.7407404 
  118000    2663.1736    20655.712    492144.75    704.66379   -7752.0715    9.7028068 
  119000     2618.949    20651.091    495986.38    692.96215   -7734.9941    9.7049781 
  120000    2795.5977    20571.838    504605.65    739.70262   -7749.3803    9.7423666 
  121000    2693.9963    20587.913    499807.13    712.81935   -7756.7667    9.7347596 
  122000     2651.073    20643.551    496235.51    701.46204   -7741.7606     9.708523 
  123000    2739.5305    20552.046    510024.45    724.86749   -7727.5577    9.7517485 
  124000    2622.7335    20607.579    497890.32    693.96353   -7754.9717    9.7254696 
  125000    2767.0089    20643.202    495747.47    732.13816   -7752.9717    9.7086871 
  126000    2715.9679    20565.345     505193.2    718.63294   -7748.8972    9.7454423 
  127000     2654.622    20577.484    507279.41    702.40109    -7717.703    9.7396933 
  128000     2743.644    20631.886    494830.63    725.95591   -7762.4212    9.7140119 
  129000    2718.7676    20631.652    492591.99    719.37372   -7768.3564    9.7141219 
  130000    2689.0957    20531.536    516383.78    711.52267   -7703.9289      9.76149 
  131000    2696.6383    20582.561    502605.15    713.51841   -7748.9698    9.7372909 
  132000    2635.6229    20620.597    492324.74      697.374   -7772.6364    9.7193299 
  133000    2708.6341    20601.373    500934.23    716.69243   -7743.6304    9.7283994 
  134000    2797.6128    20592.273    506980.58    740.23581   -7721.9651    9.7326986 
  135000    2699.0789    20675.962    491033.36    714.16419   -7750.7579    9.6933039 
  136000    2631.7638    20627.489     494475.6     696.3529   -7755.4864    9.7160826 
  137000    2743.6071    20561.206    507236.47    725.94615   -7736.0299    9.7474043 
  138000    2705.9936    20628.412       495177    715.99378   -7759.7954    9.7156479 
  139000    2711.5948    20582.611    502458.62    717.47583   -7751.8213    9.7372676 
  140000    2759.9336    20575.089    503936.58    730.26606   -7743.7946    9.7408271 
  141000    2668.3907    20638.526    490859.23    706.04422   -7768.8331    9.7108868 
  142000    2716.6916     20670.45    492953.64    718.82441   -7746.2638    9.6958889 
  143000    2806.0373    20573.711    506692.54    742.46489   -7733.8416    9.7414798 
  144000     2655.542    20622.736    502601.43    702.64451   -7716.4923    9.7183217 
  145000    2703.2933    20649.637    492318.15    715.27929   -7760.1356    9.7056613 
  146000    2670.1527    20569.614    505798.12    706.51043   -7735.6871    9.7434199 
  147000    2726.6662    20521.812    510890.85    721.46365   -7734.3462    9.7661154 
  148000    2677.2494    20578.301    494973.46    708.38819    -7780.845     9.739307 
  149000    2666.6541    20593.285    503686.98    705.58472    -7732.473    9.7322202 
  150000    2716.6728    20518.443    514028.04    718.81943   -7721.2763    9.7677192 
  151000    2631.5041     20701.39    480385.13     696.2842   -7787.3691    9.6813977 
  152000    2742.8227    20630.948    498047.93    725.73859   -7742.9346    9.7144537 
  153000    2693.9471    20582.336    503643.32    712.80633   -7740.1962    9.7373976 
  154000    2635.4829    20648.702    493385.11    697.33696   -7747.9731    9.7061009 
  155000    2701.3956    20591.109    494588.45    714.77716    -7782.424    9.7332487 
  156000    2766.3965    20505.364    513488.22    731.97611   -7736.8766    9.7739492 
  157000    2646.1694    20557.651    504644.68    700.16457    -7752.942    9.7490896 
  158000    2695.1265    20649.915    493471.55    713.11838   -7753.2755    9.7055309 
  159000    2741.2405    20672.946    492873.07    725.31996   -7745.2308    9.6947184 
  160000    2687.5978    20514.476    509288.08    711.12633   -7747.5071    9.7696078 
  161000     2756.029    20623.785    499975.63    729.23291   -7740.3509    9.7178276 
  162000    2731.9702    20702.164    483034.76    722.86707   -7775.7112    9.6810355 
  163000    2663.2097    20522.931    506408.66    704.67334   -7758.6781    9.7655828 
  164000    2698.8587    20578.973    506898.41    714.10591    -7729.178    9.7389887 
  165000    2788.9521    20632.098    495978.74    737.94421   -7761.9764    9.7139123 
  166000    2703.2234    20610.744    498285.47    715.26079   -7745.4154    9.7239762 
  167000    2695.5666    20554.716    508764.69    713.23484   -7730.3816    9.7504821 
  168000    2672.3941    20556.937    501355.97     707.1035   -7760.3478    9.7494283 
  169000     2620.516    20676.686    488480.73    693.37677   -7758.1492    9.6929647 
  170000    2732.6548    20645.702    494076.48    723.04821     -7756.97    9.7075111 
  171000    2728.3929    20551.109    505746.02    721.92052   -7745.6023    9.7521934 
  172000    2826.8804    20603.316    502774.42    747.97988   -7741.9537    9.7274819 
  173000    2700.2112    20626.705    495807.56    714.46378   -7756.5625    9.7164517 
  174000    2668.3394    20625.756    497472.39    706.03063   -7745.1787    9.7168989 
  175000    2778.6161    20606.426    501494.25    735.20938   -7744.0459    9.7260138 
  176000    2747.3367     20569.59    502489.19    726.93299   -7753.1092    9.7434315 
  177000    2648.2648    20602.248    495901.21      700.719   -7763.4694    9.7279865 
  178000    2714.0699    20663.545    488050.04    718.13074   -7772.7056    9.6991287 
  179000    2766.4525    20524.239    511256.98    731.99093   -7738.1461    9.7649606 
  180000    2630.6128    20595.784    497174.09    696.04836   -7761.0936    9.7310395 
  181000    2595.6528    20628.638    497515.17    686.79809   -7742.6201    9.7155415 
  182000     2710.697    20549.921    508170.76    717.23828   -7734.8582    9.7527569 
  183000    2794.2381    20626.038    498633.45    739.34288   -7748.1571    9.7167662 
  184000    2621.6674    20570.854    498849.68    693.68144   -7764.7593    9.7428328 
  185000    2716.7695    20602.296    500947.09    718.84502   -7743.0222    9.7279636 
  186000    2685.0491    20601.619    495806.74    710.45196   -7766.6631    9.7282835 
  187000    2683.4828    20578.148    503209.95    710.03752   -7747.5494    9.7393794 
  188000    2656.5035     20479.01    517704.12    702.89892   -7723.5313    9.7865273 
  189000    2715.1117    20684.345    488557.31    718.40638   -7757.7257    9.6893755 
  190000    2683.6519    20605.232    497968.07    710.08225   -7752.2614    9.7265776 
  191000    2813.2674    20606.259     503989.9    744.37793   -7731.7358    9.7260926 
  192000    2738.1634    20662.488    492344.53    724.50577   -7755.5589    9.6996249 
  193000    2760.6757    20622.466    497082.09    730.46241   -7751.5267     9.718449 
  194000    2696.1121    20547.658    513044.15    713.37918   -7712.3553     9.753831 
  195000     2679.685    20641.908    489245.46    709.03263   -7776.4231    9.7092955 
  196000    2719.6052    20604.955    499636.36    719.59535   -7746.0492    9.7267084 
  197000     2738.113    20556.148    507829.53    724.49242   -7736.7946    9.7498024 
  198000     2698.453    20617.292     496408.9    713.99857    -7754.798     9.720888 
  199000    2744.3462    20612.557    494539.96     726.1417   -7767.9713     9.723121 
  200000    2748.3972    20578.025    501849.54    727.21357   -7755.9975    9.7394376 
  201000     2740.568    20642.144    499868.63    725.14202   -7731.0191    9.7091844 
  202000    2767.2757     20560.21    510665.81    732.20874   -7721.7313    9.7478763 
  203000    2671.4187    20637.897    493678.59    706.84541   -7758.2671    9.7111827 
  204000    2720.3291    20650.406    494034.08    719.78688   -7757.3201    9.7053002 
  205000    2655.7373    20547.337    507347.75    702.69617   -7741.3242    9.7539833 
  206000    2692.8165    20547.992    509660.01    712.50718   -7725.1518    9.7536725 
  207000     2715.811    20661.907    485556.62    718.59141   -7787.1451    9.6998978 
  208000    2652.0653    20618.663    500423.23     701.7246   -7729.9056    9.7202418 
  209000    2658.8029     20531.31    510552.72    703.50732    -7727.237    9.7615976 
  210000    2630.2204    20639.357    492919.57    695.94452   -7758.8646    9.7104956 
  211000    2626.1578    20572.715     502730.7    694.86958   -7738.2056    9.7419514 
  212000    2719.3021    20610.275    498944.59    719.51514   -7746.7712    9.7241974 
  213000    2728.3916    20546.846    505341.14    721.92018   -7751.3179    9.7542166 
  214000    2738.1763    20612.742    505220.81    724.50916   -7721.3777    9.7230337 
  215000    2680.6482    20712.612    485704.13    709.28749   -7757.6047    9.6761524 
  216000    2734.8481    20597.072    497791.46    723.62855   -7766.3056    9.7304311 
  217000    2658.8589     20592.79    503902.51    703.52215   -7731.7502     9.732454 
  218000    2826.3586    20676.769    491405.77     747.8418   -7758.1313    9.6929258 
  219000    2742.9433    20582.387    503604.66     725.7705   -7741.8275    9.7373732 
  220000    2720.6933    20677.123    495621.17    719.88324   -7731.1561    9.6927597 
  221000    2607.9968    20631.221    493566.05    690.06425   -7751.7191    9.7143248 
  222000    2624.7059     20544.43    513442.84    694.48543   -7708.3189    9.7553639 
  223000    2820.7392    20592.367    503281.82    746.35495   -7743.2409    9.7326541 
  224000    2745.7233    20614.837    496847.95    726.50608   -7757.5398    9.7220456 
  225000    2754.1159    20608.787    501886.79    728.72671   -7737.1451    9.7248995 
  226000    2813.6545    20561.879    507091.31    744.48037   -7741.1073    9.7470853 
  227000    2705.7068    20656.104    487985.54    715.91789   -7774.2028    9.7026226 
  228000    2736.6788    20644.431    496240.15    724.11295   -7746.2126    9.7081092 
  229000    2702.4885    20541.025    509437.62    715.06635    -7735.807    9.7569807 
  230000    2738.1502    20626.099    500755.41    724.50227   -7735.6855    9.7167375 
  231000     2655.157    20636.046    493368.33    702.54265   -7761.1418    9.7120539 
  232000    2663.6565    20468.419    521502.72    704.79158   -7711.5978     9.791591 
  233000     2593.211    20643.964    496326.34      686.152   -7737.3237    9.7083285 
  234000    2683.1392    20656.902    490026.45    709.94661   -7762.9651    9.7022479 
  235000    2646.6573    20567.898    508800.97    700.29367   -7716.8017    9.7442327 
  236000    2674.4639      20579.2    499419.37    707.65115   -7764.1758    9.7388815 
  237000    2674.3842    20627.355    498744.51    707.63006   -7740.4476    9.7161459 
  238000    2613.7787    20552.269    509086.64    691.59413   -7723.2525    9.7516427 
  239000    2703.9472    20625.685    498072.06    715.45231   -7742.5837    9.7169323 
  240000    2689.5734    20587.637    502840.19    711.64906   -7739.1371    9.7348903 
  241000    2658.2316    20668.791    482278.04    703.35615   -7798.6366    9.6966672 
  242000     2737.499    20644.273    491968.84    724.32996   -7764.3098    9.7081835 
  243000    2716.8313    20590.774    507746.73    718.86139   -7718.1686    9.7334072 
  244000    2582.5614    20619.439    499444.16    683.33416    -7731.495    9.7198758 
  245000    2685.9261    20588.079    503659.46    710.68401   -7741.5352     9.734681 
  246000    2807.5116    20615.652    501266.22      742.855   -7740.3965    9.7216615 
  247000      2722.24    20609.187    494987.82    720.29249   -7768.5392     9.724711 
  248000    2693.7089    20602.181    500805.24    712.74329   -7741.7508    9.7280181 
  249000    2730.4518    20586.921    504014.47    722.46531   -7736.9181     9.735229 
  250000    2649.7338    20591.828    501343.94     701.1077   -7744.0546    9.7329089 
Loop time of 515.762 on 8 procs for 250000 steps with 2048 atoms

Performance: 41.880 ns/day, 0.573 hours/ns, 484.720 timesteps/s
124.2% CPU use with 4 MPI tasks x 2 OpenMP threads

MPI task timing breakdown:
Section |  min time  |  avg time  |  max time  |%varavg| %total
---------------------------------------------------------------
Pair    | 308.08     | 313.03     | 316.28     |  19.0 | 60.69
Neigh   | 4.5631     | 4.6419     | 4.7101     |   2.5 |  0.90
Comm    | 21.65      | 24.975     | 30.204     |  69.4 |  4.84
Output  | 0.0057394  | 0.011448   | 0.013362   |   3.1 |  0.00
Modify  | 172        | 172.21     | 172.44     |   1.2 | 33.39
Other   |            | 0.9019     |            |       |  0.17

Nlocal:        512.000 ave         516 max         509 min
Histogram: 1 1 0 0 0 1 0 0 0 1
Nghost:        3035.50 ave        3038 max        3034 min
Histogram: 2 0 0 0 0 1 0 0 0 1
Neighs:        46029.2 ave       47154 max       45046 min
Histogram: 2 0 0 0 0 0 0 1 0 1

Total # of neighbors = 184117
Ave neighs/atom = 89.900879
Neighbor list builds = 4914
Dangerous builds = 0


# fix 132 all momentum 100 linear 1 1 1 angular
fix out_file_1 all print 1000 "$(step) $(temp) $(press) ${sys_press} $(vol) $(ke) $(pe) $(density)" file one_phase_${sim}_press_$P_$T_.txt screen no title  "step temp press pressGiga vol ke pe density"
fix out_file_1 all print 1000 "$(step) $(temp) $(press) ${sys_press} $(vol) $(ke) $(pe) $(density)" file one_phase_cooling_press_$P_$T_.txt screen no title  "step temp press pressGiga vol ke pe density"
fix out_file_1 all print 1000 "$(step) $(temp) $(press) ${sys_press} $(vol) $(ke) $(pe) $(density)" file one_phase_cooling_press_500000_$T_.txt screen no title  "step temp press pressGiga vol ke pe density"
fix out_file_1 all print 1000 "$(step) $(temp) $(press) ${sys_press} $(vol) $(ke) $(pe) $(density)" file one_phase_cooling_press_500000_2700_.txt screen no title  "step temp press pressGiga vol ke pe density"

# dump 3 all custom 1000 traj_npt_new.lammpstrj id type x y z
run 50000
Last active /omp style is pair_style eam/alloy/omp
Per MPI rank memory allocation (min/avg/max) = 4.332 | 4.332 | 4.332 Mbytes
Step Temp Volume Press KinEng PotEng Density 
  250000    2649.7338    20591.828    501343.94     701.1077   -7744.0546    9.7329089 
  251000     2540.917    20644.637    489172.71    672.31524    -7767.877    9.7080124 
  252000    2785.1136    20592.164    498338.25    736.92856   -7768.2021    9.7327501 
  253000    2743.5951    20496.653    515626.87    725.94296   -7731.8563     9.778103 
  254000    2716.6305    20625.966    489842.62    718.80825   -7785.8411    9.7167998 
  255000    2766.8859    20649.014    493993.47     732.1056    -7754.306    9.7059544 
  256000    2703.9175    20552.617     505411.6    715.44444   -7742.8609    9.7514776 
  257000    2762.1911    20654.307    492061.38    730.86337   -7761.5149    9.7034672 
  258000    2593.9223    20667.773    484665.33    686.34022   -7781.5757    9.6971445 
  259000    2671.3546    20518.042    515982.76    706.82846   -7712.9026      9.76791 
  260000    2703.4825    20605.124    503354.61    715.32936   -7729.5511    9.7266285 
  261000    2655.0078    20647.889     492563.8    702.50317   -7752.4575     9.706483 
  262000    2696.3924    20686.444    490062.02    713.45334   -7751.1463    9.6883925 
  263000    2611.8299    20510.402    511185.27    691.07849    -7737.741    9.7715482 
  264000    2690.4478    20586.698    501417.52    711.88043   -7746.8555    9.7353341 
  265000    2680.3113    20582.942    500803.39    709.19835   -7755.2539    9.7371109 
  266000    2728.1994    20668.038    493427.54    721.86934   -7745.7139    9.6970205 
  267000    2664.4643    20545.706    504222.87    705.00531    -7752.147    9.7547579 
  268000    2701.6251    20585.215    500639.24     714.8379   -7753.5498    9.7360354 
  269000    2776.1361    20601.379    502705.22    734.55316   -7742.1825    9.7283964 
  270000    2707.2345    20596.296    499917.03     716.3221   -7750.6573    9.7307975 
  271000    2793.2376    20696.419    488476.52    739.07814   -7758.5034    9.6837228 
  272000    2710.2518    20510.368    518917.24    717.12048   -7705.1168    9.7715645 
  273000    2714.1806    20637.295     496697.3    718.16003   -7748.1229    9.7114659 
  274000     2744.559    20649.548    497025.48      726.198   -7744.4928    9.7057033 
  275000    2675.9177    20554.476     508419.6    708.03584   -7732.4576    9.7505955 
  276000    2649.0083    20610.844    495024.38    700.91572   -7760.7187    9.7239292 
  277000    2752.1169    20594.613    499304.19    728.19779   -7753.5115    9.7315928 
  278000    2806.0477    20502.086    517220.05    742.46764   -7725.0212     9.775512 
  279000    2788.9981    20672.622    489483.32    737.95641    -7766.331    9.6948702 
  280000    2678.9396    20608.802    500351.43    708.83541   -7738.9079    9.7248924 
  281000    2695.0281    20571.633    509181.13    713.09236   -7717.4407    9.7424636 
  282000    2717.1208    20641.234     494020.8    718.93798    -7757.076    9.7096128 
  283000    2717.3101    20625.617    486258.18    718.98807   -7802.0307    9.7169646 
  284000    2702.0778    20528.884    508424.29    714.95767   -7744.7449    9.7627511 
  285000    2654.8345    20626.233     496138.7    702.45731   -7749.4344    9.7166744 
  286000    2655.4379    20544.886    501635.48    702.61696   -7766.0956    9.7551472 
  287000    2667.3544     20558.72     504485.9    705.77002   -7751.3803     9.748583 
  288000     2606.867    20667.789    489078.31    689.76533   -7760.0382    9.6971374 
  289000    2744.9853    20570.341    504885.03     726.3108   -7748.4713    9.7430754 
  290000    2748.0264    20556.386    509994.79    727.11547    -7727.594    9.7496896 
  291000    2714.1629    20645.032    492120.11    718.15534   -7766.2819    9.7078265 
  292000    2705.5344    20623.256    496461.19    715.87228   -7755.2438    9.7180767 
  293000    2687.5917    20547.613    503621.29    711.12473    -7759.683    9.7538527 
  294000    2664.5979    20563.759    506017.37    705.04067   -7733.9522    9.7461939 
  295000    2740.8562    20678.975    483333.72    725.21826   -7788.1045    9.6918916 
  296000    2736.0555    20664.045    494839.55    723.94802   -7741.2568    9.6988942 
  297000    2738.2837    20550.045    505764.01     724.5376   -7754.3469    9.7526983 
  298000    2667.6347    20572.403    504771.89    705.84419   -7743.0502    9.7420989 
  299000    2801.2245    20499.676    508214.55    741.19143   -7768.8681    9.7766612 
  300000    2657.9241    20686.353    486160.99    703.27481   -7765.7788    9.6884351 
Loop time of 103.043 on 8 procs for 50000 steps with 2048 atoms

Performance: 41.924 ns/day, 0.572 hours/ns, 485.235 timesteps/s
124.5% CPU use with 4 MPI tasks x 2 OpenMP threads

MPI task timing breakdown:
Section |  min time  |  avg time  |  max time  |%varavg| %total
---------------------------------------------------------------
Pair    | 61.636     | 62.444     | 63.228     |   8.8 | 60.60
Neigh   | 0.91196    | 0.92664    | 0.94435    |   1.2 |  0.90
Comm    | 4.1312     | 4.9349     | 5.7938     |  32.0 |  4.79
Output  | 0.0011121  | 0.0018354  | 0.0020783  |   1.0 |  0.00
Modify  | 34.517     | 34.556     | 34.596     |   0.5 | 33.54
Other   |            | 0.1791     |            |       |  0.17

Nlocal:        512.000 ave         516 max         505 min
Histogram: 1 0 0 0 0 0 1 0 0 2
Nghost:        3022.75 ave        3029 max        3013 min
Histogram: 1 0 0 0 0 1 0 0 1 1
Neighs:        45977.5 ave       47187 max       43990 min
Histogram: 1 0 0 0 0 1 0 0 0 2

Total # of neighbors = 183910
Ave neighs/atom = 89.799805
Neighbor list builds = 985
Dangerous builds = 0

unfix temp
unfix out_file_1


write_data after_${sim}_press_$P_$T.in
write_data after_cooling_press_$P_$T.in
write_data after_cooling_press_500000_$T.in
write_data after_cooling_press_500000_2700.in
System init for write_data ...
Last active /omp style is pair_style eam/alloy/omp
write_restart after_${sim}_press_$P_$T.lmp
write_restart after_cooling_press_$P_$T.lmp
write_restart after_cooling_press_500000_$T.lmp
write_restart after_cooling_press_500000_2700.lmp
System init for write_restart ...
Last active /omp style is pair_style eam/alloy/omp

next loopVar  #<----->
jump in.lmp ensemble

print """
Label pachadi solti, hos garam.
"""

Label pachadi solti, hos garam.

variable T equal 2900-${loopVar}*100  #<----->
variable T equal 2900-3*100  
# variable T equal 3750


reset_timestep 0
fix 1 all npt temp $T $T $(dt*100) iso $P $P $(dt*1000)
fix 1 all npt temp 2600 $T $(dt*100) iso $P $P $(dt*1000)
fix 1 all npt temp 2600 2600 $(dt*100) iso $P $P $(dt*1000)
fix 1 all npt temp 2600 2600 0.10000000000000000555 iso $P $P $(dt*1000)
fix 1 all npt temp 2600 2600 0.10000000000000000555 iso 500000 $P $(dt*1000)
fix 1 all npt temp 2600 2600 0.10000000000000000555 iso 500000 500000 $(dt*1000)
fix 1 all npt temp 2600 2600 0.10000000000000000555 iso 500000 500000 1
print """
<--------------------------------------------------------------------->
<------------------ Equilibrating at temperature $T ----------------->
<--------------------------------------------------------------------->
"""

<--------------------------------------------------------------------->
<------------------ Equilibrating at temperature 2600 ----------------->
<--------------------------------------------------------------------->

fix temp all print 1000 "$(step) $(temp) $(press) ${sys_press} $(vol) $(ke) $(pe) $(density)" file temp_${sim}.txt screen no title  "step temp press pressGiga vol ke pe density"
fix temp all print 1000 "$(step) $(temp) $(press) ${sys_press} $(vol) $(ke) $(pe) $(density)" file temp_cooling.txt screen no title  "step temp press pressGiga vol ke pe density"
run 250000
Last active /omp style is pair_style eam/alloy/omp
Per MPI rank memory allocation (min/avg/max) = 4.332 | 4.332 | 4.332 Mbytes
Step Temp Volume Press KinEng PotEng Density 
       0    2657.9241    20686.353    486160.99    703.27481   -7765.7788    9.6884351 
    1000    2683.1677    20552.731    497912.92    709.95415   -7780.3028    9.7514234 
    2000    2643.3479    20507.572     505650.8    699.41801   -7768.7417    9.7728969 
    3000    2611.6288     20591.22     499450.8    691.02528   -7753.9341    9.7331962 
    4000    2527.4494    20560.421    496577.08    668.75177   -7775.8943    9.7477762 
    5000    2706.1609    20508.557    507086.07    716.03803   -7767.9308    9.7724274 
    6000    2667.8607    20517.758    502934.48    705.90397   -7779.3347    9.7680452 
    7000    2598.5089     20596.22    488958.95    687.55382   -7801.6675    9.7308336 
    8000    2570.3643    20532.375    506519.98    680.10686   -7747.4888    9.7610914 
    9000    2624.8132    20514.115    502754.46    694.51381   -7776.6592    9.7697798 
   10000    2712.9234    20565.446    498902.63    717.82738   -7777.2248    9.7453944 
   11000    2665.3018    20555.313    496003.72     705.2269   -7792.0411    9.7501989 
   12000    2677.2396     20507.94    504514.19    708.38561    -7772.216    9.7727215 
   13000    2621.8614    20462.745    510771.39    693.73276   -7767.3772     9.794306 
   14000    2495.7682    20559.058    498106.61    660.36907   -7772.2333    9.7484225 
   15000    2565.9993    20595.425    491223.81     678.9519   -7783.3176    9.7312091 
   16000     2651.237     20575.22    496151.05    701.50542   -7784.5447    9.7407654 
   17000    2645.1313    20496.017    510385.65     699.8899   -7748.5201    9.7784066 
   18000    2675.4947    20514.731     501071.9     707.9239   -7791.8726    9.7694864 
   19000    2635.0968    20608.488    493279.09    697.23481   -7768.7192    9.7250407 
   20000    2608.0613    20498.621       507193    690.08132   -7766.1914    9.7771642 
   21000    2610.8116    20495.501    512440.73    690.80903   -7741.8623    9.7786529 
   22000    2619.2372    20651.673     482634.2    693.03843   -7802.4888    9.7047048 
   23000    2593.7113    20609.826    494915.69    686.28439   -7759.1301    9.7244096 
   24000    2689.4876    20518.076    502487.25    711.62637   -7782.8357    9.7678937 
   25000    2582.2634    20505.478    508117.26    683.25533   -7751.6172    9.7738949 
   26000    2547.6959    20561.495    493036.01    674.10893   -7798.4654    9.7472671 
   27000    2613.4446    20589.862    492270.48    691.50573   -7788.8529    9.7338384 
   28000    2695.9157    20526.157    502482.88    713.32722   -7777.5936     9.764048 
   29000    2664.7992    20524.861    501285.21    705.09393   -7777.6789    9.7646646 
   30000    2616.1498    20585.906    496302.89    692.22151   -7767.2929     9.735709 
   31000    2558.9411    20603.555    488613.28    677.08436   -7790.5787    9.7273693 
   32000    2649.2263    20517.572    503620.12    700.97341   -7774.3529    9.7681335 
   33000    2619.2433    20449.702    516231.54    693.04003   -7751.6788    9.8005527 
   34000    2557.6283    20566.014    497954.36    676.73698   -7764.6704    9.7451255 
   35000    2547.6079    20604.475    491087.19    674.08562   -7779.8326     9.726935 
   36000    2555.1441    20527.002    500782.89    676.07966   -7773.1496    9.7636461 
   37000    2638.7648    20487.145    506673.55    698.20534   -7770.6039    9.7826411 
   38000    2601.5107    20585.717    492655.05    688.34806   -7786.1658    9.7357982 
   39000    2561.4981    20668.338    485584.08    677.76092   -7771.6623    9.6968794 
   40000    2533.9729    20467.526    514000.78    670.47788   -7745.2095    9.7920179 
   41000    2517.8349    20482.132    508459.65    666.20782   -7760.1214    9.7850355 
   42000    2557.9611    20572.852     499646.3    676.82504    -7759.712    9.7418864 
   43000    2578.1445     20625.47     488048.3    682.16547   -7786.7427    9.7170338 
   44000    2531.3639    20509.776    500182.83    669.78753   -7783.1359    9.7718469 
   45000    2578.7987     20472.36    507634.26    682.33859   -7773.8814    9.7897063 
   46000    2587.3204    20623.568     488945.6    684.59338   -7782.8588    9.7179299 
   47000    2552.4124    20616.254    486630.28    675.35688   -7796.3947    9.7213776 
   48000    2609.1961    20507.413     507271.6    690.38159   -7759.0962    9.7729728 
   49000    2577.7324     20472.28     507980.4    682.05644   -7773.5615    9.7897445 
   50000    2563.7801    20586.991    493510.08    678.36473   -7784.0297    9.7351957 
   51000    2555.5666    20566.435    493569.62    676.19148   -7789.2526    9.7449259 
   52000    2610.8291    20554.783    497000.24    690.81368   -7782.9853    9.7504503 
   53000     2633.466    20549.182    498291.66    696.80329   -7783.7228    9.7531076 
   54000    2638.4819    20498.652    508328.63    698.13049    -7758.425    9.7771496 
   55000    2555.1794    20600.634    489595.35    676.08901   -7789.5838    9.7287482 
   56000    2591.1153    20580.019    490902.92    685.59749   -7798.0476    9.7384935 
   57000    2600.0214    20503.341    505739.62    687.95401   -7766.1469    9.7749137 
   58000    2618.6539    20535.579    504691.62    692.88408   -7758.1291    9.7595683 
   59000    2579.3815     20609.96    491907.79    682.49278   -7773.7422    9.7243463 
   60000    2584.4623    20544.126    493620.65    683.83714   -7803.7712    9.7555081 
   61000     2645.734     20501.52    504915.25    700.04936   -7771.8222    9.7757816 
   62000    2644.0939    20515.345    501931.44     699.6154   -7780.4125    9.7691939 
   63000    2606.4798    20603.664    494012.74    689.66286   -7773.0244    9.7273176 
   64000    2589.9572    20556.794    495990.89    685.29106   -7781.8689    9.7494964 
   65000    2668.3931    20521.412    504879.92    706.04486   -7767.4735    9.7663061 
   66000    2634.7836    20587.596    498385.99    697.15192   -7756.4023    9.7349097 
   67000    2549.3358    20565.396    495713.93    674.54281   -7779.5228    9.7454183 
   68000    2593.1641    20519.958    504426.57    686.13958     -7765.85    9.7669981 
   69000    2590.7274    20487.406    513230.28    685.49485   -7739.8126    9.7825165 
   70000    2622.3838    20559.906    497886.81    693.87099   -7779.2784    9.7480206 
   71000    2587.5427    20591.808    488788.38    684.65219   -7800.8289    9.7329185 
   72000     2628.359    20593.861     494840.3    695.45201   -7771.8266     9.731948 
   73000    2554.6303    20517.841    501643.15    675.94373    -7779.273    9.7680058 
   74000    2521.1579    20538.521    505554.12    667.08709    -7744.568    9.7581705 
   75000    2488.4839    20560.569    494246.34    658.44169   -7784.6871    9.7477063 
   76000    2694.4022    20562.428    492618.01    712.92674   -7802.8746    9.7468249 
   77000    2642.6611    20480.211    510627.97    699.23628   -7757.2733    9.7859532 
   78000     2699.613    20561.431    502724.11     714.3055   -7752.6814    9.7472976 
   79000    2585.5699    20577.325    493888.98    684.13021   -7782.7778    9.7397689 
   80000     2583.765    20580.218    493005.52    683.65264   -7785.2543    9.7383995 
   81000    2589.6174    20555.963    495624.73    685.20116   -7785.9662    9.7498902 
   82000    2606.2224    20454.013    514629.89    689.59476   -7753.9296    9.7984873 
   83000    2556.9403    20581.405    493882.77    676.55495   -7782.6257    9.7378379 
   84000    2682.2633    20588.246       495752    709.71483   -7771.9892    9.7346021 
   85000    2552.7965    20504.638    504964.46    675.45851   -7766.4107    9.7742954 
   86000    2616.4792    20596.774    493931.83    692.30867   -7780.9069    9.7305716 
   87000    2571.8216     20570.55    496324.75    680.49247   -7771.1555    9.7429766 
   88000    2628.5886    20471.513    515710.04    695.51275   -7736.7029    9.7901112 
   89000    2563.7842    20523.728    502328.84    678.36581   -7769.0128    9.7652039 
   90000    2574.9789    20625.851    490652.04    681.32786   -7766.8883    9.7168542 
   91000    2556.6285    20563.022    497035.41    676.47245   -7774.2729    9.7465433 
   92000     2557.335    20506.778    502935.89    676.65936   -7773.0432    9.7732751 
   93000    2504.2301    20504.445    503814.22    662.60806   -7771.8767    9.7743873 
   94000     2632.532    20537.347    502226.12    696.55618   -7767.2651     9.758728 
   95000     2567.547     20558.17     498324.9    679.36143   -7767.7051    9.7488437 
   96000    2620.2371    20629.976    482929.88    693.30299   -7810.0683    9.7149111 
   97000    2653.1388      20522.7    501106.76    702.00864    -7781.841    9.7656928 
   98000    2622.3692    20512.564    509453.41    693.86714   -7750.8303    9.7705187 
   99000    2489.7156    20520.819    499936.92    658.76759   -7776.5864    9.7665883 
  100000    2633.3298    20573.162    493278.61    696.76726   -7795.0872    9.7417395 
  101000    2605.4551    20534.439    501679.27    689.39174   -7772.9438    9.7601102 
  102000    2679.1405    20458.635    515167.14    708.88856   -7751.4286    9.7962738 
  103000    2544.1226    20558.572    497387.89    673.16344   -7772.3556    9.7486533 
  104000    2568.0722     20575.75    498030.12    679.50039   -7766.4409    9.7405143 
  105000    2575.8274    20523.042    502508.17    681.55238    -7771.985    9.7655302 
  106000    2651.5432    20573.373    498231.69    701.58644   -7765.5159    9.7416396 
  107000     2626.111    20650.846    484887.07     694.8572   -7789.1623    9.7050932 
  108000    2606.6726    20479.743    507782.27    689.71388   -7771.2655    9.7861766 
  109000    2621.1132    20416.874    514284.85    693.53481   -7776.2137    9.8163109 
  110000    2566.8832    20594.873     492449.6    679.18579   -7780.7274    9.7314701 
  111000    2552.3114    20548.721    494310.59    675.33015   -7792.6251    9.7533267 
  112000    2518.2665    20546.992    500188.87    666.32202   -7768.5467    9.7541475 
  113000     2612.075    20533.542    504608.22    691.14333   -7754.0372    9.7605366 
  114000    2629.6666    20537.748    497710.26      695.798   -7785.2159    9.7585376 
  115000    2600.6937    20614.116    484655.49     688.1319   -7813.9243    9.7223856 
  116000    2536.3468    20490.069    507679.19    671.10599   -7755.7057    9.7812451 
  117000      2629.51    20488.882    509763.87    695.75655   -7758.3138    9.7818119 
  118000    2616.9192    20605.725    493496.85     692.4251   -7776.2857    9.7263447 
  119000    2626.0651    20574.872    497238.03    694.84506   -7775.3014    9.7409299 
  120000    2584.2056    20541.509    498026.39    683.76921   -7777.4781    9.7567509 
  121000     2606.166     20532.93    504280.38    689.57984   -7754.1313    9.7608272 
  122000    2692.4675    20533.913     506553.5    712.41483   -7755.8625    9.7603601 
  123000    2561.2203    20545.321    496030.15     677.6874   -7788.8812    9.7549405 
  124000    2622.4627    20631.568     488342.2    693.89187   -7781.8645    9.7141618 
  125000    2604.4529    20537.938    499448.94    689.12656   -7779.0282    9.7584473 
  126000    2675.1074    20455.291       514882    707.82142   -7755.3546    9.7978751 
  127000     2630.976     20594.29    493936.65    696.14445    -7775.942    9.7317454 
  128000    2558.9943    20577.149       495031    677.09841   -7777.8528    9.7398522 
  129000     2569.507    20563.743    496245.57    679.88005   -7776.3605    9.7462017 
  130000      2682.02    20599.152    496736.84    709.65048   -7763.5517    9.7294486 
  131000    2694.3823    20497.788    510959.58    712.92148   -7746.7638    9.7775616 
  132000    2608.5403    20490.797    508364.66    690.20808   -7759.5897    9.7808974 
  133000    2543.7887    20634.902    489515.03    673.07509   -7772.0288     9.712592 
  134000    2525.1361    20566.981    496199.87    668.13968   -7773.5474    9.7446672 
[...]
  120000    2289.7533    20454.878    487366.54    605.85846   -7867.4691    9.7980731 
  121000    2287.4422    20445.791    487651.18    605.24696   -7871.2656    9.8024277 
  122000    2306.4641    20389.626    494094.75    610.28007   -7873.7207    9.8294291 
  123000    2325.8383    20374.264    500110.63     615.4064   -7854.0128    9.8368405 
  124000    2308.3509     20348.24     505967.2     610.7793   -7836.2381    9.8494214 
  125000    2326.8033    20268.173    518570.02    615.66172   -7818.8651    9.8883301 
  126000    2322.7225    20295.756    514091.29    614.58197   -7825.8852    9.8748915 
  127000    2263.5703    20327.302    507074.92    598.93054   -7842.0704    9.8595665 
  128000    2318.9826    20350.233    500703.09    613.59241   -7859.2159    9.8484567 
  129000    2344.9995    20367.863    503663.65    620.47636     -7838.01    9.8399321 
  130000    2349.7972    20276.198    512607.83    621.74579   -7844.8741    9.8844164 
  131000    2329.6913    20324.562    511534.33    616.42586   -7826.6427    9.8608955 
  132000     2288.012    20327.759    507914.81    605.39771   -7838.3644    9.8593451 
  133000    2322.0312    20387.046    503538.51    614.39904   -7825.9558    9.8306734 
  134000    2392.2086    20381.017       506456    632.96768   -7823.6595    9.8335813 
  135000    2249.4813    20329.262    509572.74    595.20266   -7823.6748    9.8586162 
  136000    2282.0812    20352.527    509122.87    603.82846   -7816.5615    9.8473465 
  137000    2338.2494    20369.198    503109.96     618.6903   -7837.3957    9.8392868 
  138000    2237.2955    20403.575    495935.73    591.97835   -7853.2562    9.8227093 
  139000    2254.8924    20447.349    489151.02    596.63443    -7856.247    9.8016809 
  140000    2279.2343    20402.031    494429.84    603.07517   -7856.2458    9.8234526 
  141000    2269.0964    20401.385     499458.1    600.39273   -7835.7418    9.8237639 
  142000     2330.058    20362.126    501212.45    616.52289    -7852.823    9.8427044 
  143000    2298.3299    20392.883    494884.07    608.12777   -7860.9186    9.8278594 
  144000    2281.6676     20465.03    490472.95    603.71901   -7846.1006    9.7932125 
  145000    2236.6964     20437.53    488058.32    591.81983   -7865.8207    9.8063897 
  146000    2292.1906    20434.583    491140.28    606.50336   -7859.8362    9.8078042 
  147000    2260.0399    20401.494    494044.91    597.99643   -7862.8766    9.8237113 
  148000    2277.5324    20383.223    497921.51    602.62486   -7856.4267    9.8325169 
  149000    2267.2099     20372.13    503193.33    599.89357   -7835.1131     9.837871 
  150000    2317.0937     20300.95    504859.49    613.09261   -7872.3692    9.8723651 
  151000    2281.6641    20389.176    500183.66     603.7181   -7838.4525    9.8296462 
  152000    2287.4411    20386.847    498219.73    605.24665   -7851.0348    9.8307693 
  153000    2322.4652    20380.146    502097.64    614.51389    -7841.963    9.8340017 
  154000    2292.9409    20334.083    504574.13    606.70189   -7853.4087    9.8562785 
  155000    2282.5695     20344.11    503220.93    603.95765   -7851.9517    9.8514206 
  156000    2258.0202    20315.947    510278.24    597.46202   -7832.0694    9.8650771 
  157000    2260.7125     20279.26     517217.8     598.1744   -7817.8231    9.8829241 
  158000      2359.85     20330.45    505307.13    624.40574   -7855.0742    9.8580401 
  159000    2361.6003    20365.219    505609.62    624.86886   -7830.6095    9.8412096 
  160000    2292.3494    20346.948    501374.37    606.54538   -7857.2318    9.8500467 
  161000    2321.6443    20350.364    501693.33    614.29668   -7857.8096    9.8483931 
  162000     2282.235    20319.451    511581.23    603.86915   -7825.9201    9.8633759 
  163000    2302.3609    20328.496    509381.47    609.19436   -7828.7548    9.8589872 
  164000    2316.9822    20351.866     504336.1     613.0631   -7842.4625    9.8476662 
  165000    2217.5371    20384.639    494933.57    586.75036   -7864.8319    9.8318338 
  166000    2254.8813    20389.069    496552.04    596.63149   -7854.5339    9.8296979 
  167000    2348.9981    20388.334     498833.1    621.53436   -7849.4136    9.8300521 
  168000    2370.1334    20359.924    503788.62    627.12668    -7844.097    9.8437691 
  169000    2323.2323    20363.555    502909.04    614.71684   -7842.3029    9.8420139 
  170000     2308.878    20436.818       497552    610.91878   -7826.6344    9.8067313 
  171000    2310.6965    20454.248    485925.43    611.39994   -7873.7816    9.7983748 
  172000    2316.4461    20443.113    488466.63    612.92125   -7871.2346    9.8037118 
  173000    2275.2506    20415.634    494428.78    602.02111   -7852.8866    9.8169071 
  174000      2320.04    20386.295    499631.28    613.87218   -7845.0374    9.8310351 
  175000    2343.0653    20405.155    498952.25    619.96456   -7841.1149    9.8219487 
  176000    2328.4648    20373.903    502541.39    616.10134   -7840.7379    9.8370146 
  177000    2291.6868    20349.474    502222.97    606.37006   -7854.9743    9.8488241 
  178000     2305.336    20399.009     498363.4    609.98158   -7848.2907     9.824908 
  179000    2372.3511    20410.674    495788.26    627.71345   -7854.6644    9.8192928 
  180000    2298.0059    20422.851    493347.64    608.04205   -7854.6793    9.8134382 
  181000    2220.0475     20472.88    482935.12    587.41462   -7872.4207    9.7894572 
  182000    2326.4571    20465.301     485874.3    615.57011   -7867.3085    9.7930827 
  183000    2202.5294    20385.401    496238.04     582.7794   -7854.6866    9.8314664 
  184000    2325.3118    20439.125    493136.84    615.26707   -7850.8118    9.8056248 
  185000    2277.0317    20422.671    496160.45    602.49237   -7841.9105    9.8135245 
  186000    2359.4606    20375.843    499524.01    624.30268    -7851.389    9.8360782 
  187000    2282.4446    20302.018    509228.16    603.92461   -7843.5784    9.8718456 
  188000    2302.3521    20325.477    511802.66    609.19204   -7820.3717    9.8604518 
  189000    2274.2362    20337.041       508005    601.75269    -7828.697    9.8548449 
  190000    2299.9667    20379.469    499434.34    608.56088   -7853.6306    9.8343281 
  191000    2310.1173     20383.75    498728.95    611.24667   -7849.7183    9.8322626 
  192000    2363.2658    20411.105    496335.31    625.30955   -7854.2451    9.8190854 
  193000    2236.7668    20366.232    500333.96    591.83846    -7848.025    9.8407199 
  194000    2294.3225    20423.936     494616.9    607.06746   -7845.9469    9.8129167 
  195000    2270.2353    20362.358    498105.01    600.69407   -7866.4642    9.8425921 
  196000      2319.51      20348.1    504087.76    613.73194   -7847.1587    9.8494889 
  197000    2274.4139    20309.493    511701.51    601.79973   -7829.4517    9.8682122 
  198000    2271.2872    20309.446    513743.74     600.9724   -7817.1697    9.8682348 
  199000    2368.9953    20318.802    514058.25    626.82554   -7815.6184    9.8636909 
  200000    2334.1228    20356.992    504685.67    617.59842   -7837.4154    9.8451866 
  201000    2294.4783    20375.985    499338.49    607.10867   -7854.6171    9.8360098 
  202000      2313.45    20416.208     494462.9    612.12849    -7855.965    9.8166312 
  203000    2371.9955    20476.167    485684.35    627.61939   -7873.4298    9.7878859 
  204000    2291.5911    20385.332    499771.29    606.34472   -7844.1341    9.8314998 
  205000    2303.0035    20361.447    506738.23    609.36441   -7822.0184    9.8430328 
  206000    2367.4068    20314.994    505982.62    626.40522   -7855.8965    9.8655398 
  207000    2254.4718    20367.433    503568.93    596.52312    -7831.457    9.8401398 
  208000    2237.2805    20399.097    496381.65    591.97439   -7849.6517    9.8248658 
  209000    2275.3837    20461.405    481891.66    602.05634    -7887.966    9.7949475 
  210000    2257.3961    20435.902     488302.9    597.29688   -7873.1711     9.807171 
  211000    2289.3081    20413.212    497835.15    605.74066   -7843.1829    9.8180719 
  212000    2329.0247    20385.768    499391.09    616.24949   -7846.9611    9.8312895 
  213000    2260.8764     20372.12    500230.36    598.21776   -7848.2085    9.8378759 
  214000    2218.2069     20408.38       499463     586.9276   -7829.4452    9.8203967 
  215000      2283.73    20365.884     501855.6    604.26471   -7844.0427    9.8408882 
  216000    2262.5245    20353.981    506138.69    598.65383   -7830.7695    9.8466431 
  217000    2354.0881    20354.821    505988.62    622.88116   -7833.9021    9.8462367 
  218000    2274.9633    20357.088    507273.37    601.94509    -7825.663    9.8451401 
  219000    2273.1605    20333.966    504297.06    601.46808   -7850.3807    9.8563355 
  220000    2273.0982    20375.472    499332.86    601.45159   -7851.1493    9.8362575 
  221000    2389.7414    20434.008    492700.26    632.31487   -7860.2034      9.80808 
  222000    2243.6813    20470.189    487564.27    593.66801   -7853.3669    9.7907441 
  223000    2307.0306    20474.719    483885.53    610.42994    -7874.083    9.7885783 
  224000     2323.509    20403.679    493072.36    614.79008   -7869.3044    9.8226593 
  225000    2315.8294     20327.97    501617.25    612.75809   -7873.7033    9.8592424 
  226000    2322.9968    20349.161    504977.47    614.65455    -7838.925    9.8489755 
  227000    2273.9086    20320.457    511960.18    601.66601   -7816.6299    9.8628879 
  228000    2326.7582    20246.357    518689.33    615.64979   -7834.3477    9.8989852 
  229000    2374.1879    20372.626    502799.97    628.19948   -7838.8633    9.8376314 
  230000    2280.3466    20404.221    498152.64    603.36947   -7842.4433    9.8223983 
  231000      2251.65    20386.086    496055.15    595.77649   -7860.3854    9.8311362 
  232000    2338.5715    20416.867    487595.85    618.77554    -7888.042    9.8163145 
  233000    2239.2883    20401.862    491184.58    592.50564    -7874.992    9.8235343 
  234000    2257.6521    20372.344    500530.65    597.36464   -7844.3388    9.8377676 
  235000    2307.2324    20385.116    504066.53    610.48336    -7826.106    9.8316038 
  236000    2295.8908    20364.601    502820.01    607.48242   -7842.4622    9.8415083 
  237000    2394.9196    20417.486    496806.28    633.68499    -7843.867    9.8160167 
  238000    2261.5403     20345.32    505401.33    598.39344   -7835.7881    9.8508348 
  239000    2268.3138    20258.111    517752.69    600.18566   -7827.4251    9.8932416 
  240000    2312.8573    20316.417    512707.52    611.97167   -7820.5794    9.8648492 
  241000     2280.924    20356.753    508424.65    603.52227   -7817.5557    9.8453024 
  242000    2288.6698    20384.938    497945.85    605.57177   -7852.4059    9.8316895 
  243000    2309.1437    20413.797     493506.2    610.98908    -7856.076    9.8177908 
  244000    2359.5789     20457.09    484305.24      624.334    -7884.905    9.7970136 
  245000    2283.2054    20492.744    484443.52    604.12591   -7858.8541    9.7799681 
  246000    2241.5248     20389.46    498661.12    593.09741   -7845.0753    9.8295092 
  247000     2348.245    20385.286    500613.46     621.3351   -7844.3865    9.8315219 
  248000    2244.0526    20370.785    501325.59    593.76627   -7840.8077    9.8385205 
  249000    2355.0607    20406.108    499397.35    623.13851   -7840.6688    9.8214902 
  250000    2231.8338    20282.758    516309.71    590.53321   -7823.4809    9.8812196 
Loop time of 518.594 on 8 procs for 250000 steps with 2048 atoms

Performance: 41.651 ns/day, 0.576 hours/ns, 482.073 timesteps/s
124.8% CPU use with 4 MPI tasks x 2 OpenMP threads

MPI task timing breakdown:
Section |  min time  |  avg time  |  max time  |%varavg| %total
---------------------------------------------------------------
Pair    | 310.66     | 314.78     | 318.66     |  20.4 | 60.70
Neigh   | 4.0274     | 4.066      | 4.0961     |   1.4 |  0.78
Comm    | 21.313     | 25.14      | 29.043     |  71.5 |  4.85
Output  | 0.0057693  | 0.011181   | 0.012992   |   3.0 |  0.00
Modify  | 173.56     | 173.73     | 173.94     |   1.0 | 33.50
Other   |            | 0.8702     |            |       |  0.17

Nlocal:        512.000 ave         516 max         507 min
Histogram: 1 0 0 1 0 0 0 0 1 1
Nghost:        3046.25 ave        3051 max        3035 min
Histogram: 1 0 0 0 0 0 0 0 1 2
Neighs:        46748.2 ave       48203 max       45496 min
Histogram: 1 1 0 0 0 0 1 0 0 1

Total # of neighbors = 186993
Ave neighs/atom = 91.305176
Neighbor list builds = 4328
Dangerous builds = 0


# fix 132 all momentum 100 linear 1 1 1 angular
fix out_file_1 all print 1000 "$(step) $(temp) $(press) ${sys_press} $(vol) $(ke) $(pe) $(density)" file one_phase_${sim}_press_$P_$T_.txt screen no title  "step temp press pressGiga vol ke pe density"
fix out_file_1 all print 1000 "$(step) $(temp) $(press) ${sys_press} $(vol) $(ke) $(pe) $(density)" file one_phase_cooling_press_$P_$T_.txt screen no title  "step temp press pressGiga vol ke pe density"
fix out_file_1 all print 1000 "$(step) $(temp) $(press) ${sys_press} $(vol) $(ke) $(pe) $(density)" file one_phase_cooling_press_500000_$T_.txt screen no title  "step temp press pressGiga vol ke pe density"
fix out_file_1 all print 1000 "$(step) $(temp) $(press) ${sys_press} $(vol) $(ke) $(pe) $(density)" file one_phase_cooling_press_500000_2300_.txt screen no title  "step temp press pressGiga vol ke pe density"

# dump 3 all custom 1000 traj_npt_new.lammpstrj id type x y z
run 50000
Last active /omp style is pair_style eam/alloy/omp
Per MPI rank memory allocation (min/avg/max) = 4.332 | 4.332 | 4.332 Mbytes
Step Temp Volume Press KinEng PotEng Density 
  250000    2231.8338    20282.758    516309.71    590.53321   -7823.4809    9.8812196 
  251000    2342.2154    20318.994    512876.87     619.7397   -7819.2614    9.8635979 
  252000    2361.0909    20360.309    502984.55    624.73406   -7848.8754    9.8435825 
  253000    2249.1778    20356.111    503306.28    595.12236   -7842.1716    9.8456126 
  254000    2319.7587    20444.256    492334.13    613.79775   -7851.2954    9.8031637 
  255000    2323.8085    20441.033    490669.96    614.86931   -7860.5083    9.8047093 
  256000    2298.7222    20457.495    487826.89     608.2316   -7858.6007    9.7968197 
  257000    2278.0902    20416.135    493394.81    602.77245   -7854.2837    9.8166663 
  258000    2320.4917    20375.719    503488.28    613.99169   -7835.1089    9.8361382 
  259000    2252.6832    20368.229    499915.05    596.04987    -7851.766    9.8397551 
  260000    2276.7057    20390.707    493911.39    602.40612   -7864.9817    9.8289082 
  261000    2329.4596    20410.474    497863.58    616.36457   -7843.1349    9.8193892 
  262000    2303.4861    20359.392    501855.61    609.49209   -7847.3048     9.844026 
  263000    2278.2552    20365.785    496747.53     602.8161   -7865.9735     9.840936 
  264000    2317.7823    20407.444     494933.6    613.27482    -7855.693    9.8208472 
  265000    2328.7763    20400.361    498250.81    616.18378   -7845.1943    9.8242567 
  266000    2300.2066    20369.739    500747.79    608.62435   -7849.6866    9.8390256 
  267000    2271.0717    20367.515    504449.23    600.91538   -7826.3009       9.8401 
  268000    2316.6067    20345.095    507094.56    612.96375   -7831.8058    9.8509437 
  269000    2330.1949    20266.918    519819.96    616.55913   -7814.0707    9.8889426 
  270000    2363.9047    20339.868     510020.6    625.47859   -7824.6719    9.8534753 
  271000    2247.9745    20345.151     505606.9    594.80398   -7833.9302    9.8509167 
  272000    2287.8485    20366.907    501057.72    605.35446    -7844.132    9.8403938 
  273000    2304.3881    20411.832    491046.74    609.73076   -7870.8674    9.8187356 
  274000    2266.7527    20453.877    490727.05    599.77261   -7852.9216    9.7985526 
  275000    2265.4389    20393.001    491936.88    599.42499   -7876.2395    9.8278023 
  276000    2271.3296    20433.649    488503.81    600.98364   -7871.2178    9.8082524 
  277000    2309.8674    20448.157    489120.83    611.18056   -7862.0724    9.8012933 
  278000    2305.5241    20424.811    493198.28    610.03133   -7856.8563    9.8124964 
  279000    2314.0563     20379.33     494370.1    612.28891   -7874.2337    9.8343954 
  280000    2303.5084    20353.093    503334.68    609.49801   -7843.5009    9.8470726 
  281000    2286.8715    20352.685    507687.14    605.09594   -7824.4478      9.84727 
  282000    2402.2428    20340.073    506401.49    635.62267   -7840.4495     9.853376 
  283000    2276.4375    20312.051    507789.46    602.33517   -7846.9544    9.8669695 
  284000    2294.2337    20355.283    501908.86    607.04395   -7852.7196    9.8460134 
  285000    2294.7071    20376.743    497190.33    607.16921    -7863.312    9.8356437 
  286000    2270.5608    20381.967    495728.16    600.78021   -7865.4309     9.833123 
  287000    2263.9655    20388.758    495795.97    599.03513   -7859.0778    9.8298476 
  288000    2322.1903    20406.819    496827.43    614.44114   -7845.3279    9.8211477 
  289000    2349.9154    20410.574     492429.5    621.77707   -7874.2591    9.8193408 
  290000    2262.9322    20428.172    491167.16    598.76172   -7863.6204    9.8108822 
  291000     2372.129    20471.499    486944.44    627.65469   -7864.3009    9.7901179 
  292000    2286.5163    20409.404    492119.52    605.00197   -7866.9884    9.8199041 
  293000    2340.4446    20369.077    501452.33    619.27115   -7848.3505    9.8393455 
  294000    2234.3548    20352.768    502263.46    591.20025   -7846.0751    9.8472298 
  295000    2315.4861    20368.517    500639.75    612.66723   -7847.3423    9.8396162 
  296000      2300.73    20366.082    504759.45    608.76285   -7829.3044    9.8407923 
  297000    2287.2749    20370.936    504049.42    605.20269   -7831.9869    9.8384474 
  298000    2319.6204    20400.246    500575.64    613.76115    -7834.126     9.824312 
  299000    2211.2273    20337.131    508776.01    585.08084   -7823.0426    9.8548014 
  300000    2301.3946    20349.672    509390.88     608.9387    -7817.261     9.848728 
Loop time of 129.516 on 8 procs for 50000 steps with 2048 atoms

Performance: 33.355 ns/day, 0.720 hours/ns, 386.052 timesteps/s
112.6% CPU use with 4 MPI tasks x 2 OpenMP threads

MPI task timing breakdown:
Section |  min time  |  avg time  |  max time  |%varavg| %total
---------------------------------------------------------------
Pair    | 78.181     | 79.079     | 79.94      |   9.2 | 61.06
Neigh   | 0.93313    | 0.94141    | 0.9625     |   1.3 |  0.73
Comm    | 10.832     | 11.691     | 12.54      |  24.6 |  9.03
Output  | 0.0023191  | 0.0030617  | 0.0033323  |   0.8 |  0.00
Modify  | 37.425     | 37.518     | 37.576     |   0.9 | 28.97
Other   |            | 0.2838     |            |       |  0.22

Nlocal:        512.000 ave         516 max         507 min
Histogram: 1 0 1 0 0 0 0 0 0 2
Nghost:        3058.00 ave        3085 max        3040 min
Histogram: 1 1 0 0 1 0 0 0 0 1
Neighs:        46515.0 ave       47723 max       45179 min
Histogram: 1 1 0 0 0 0 0 0 0 2

Total # of neighbors = 186060
Ave neighs/atom = 90.849609
Neighbor list builds = 865
Dangerous builds = 0

unfix temp
unfix out_file_1


write_data after_${sim}_press_$P_$T.in
write_data after_cooling_press_$P_$T.in
write_data after_cooling_press_500000_$T.in
write_data after_cooling_press_500000_2300.in
System init for write_data ...
Last active /omp style is pair_style eam/alloy/omp
write_restart after_${sim}_press_$P_$T.lmp
write_restart after_cooling_press_$P_$T.lmp
write_restart after_cooling_press_500000_$T.lmp
write_restart after_cooling_press_500000_2300.lmp
System init for write_restart ...
Last active /omp style is pair_style eam/alloy/omp

next loopVar  #<----->
jump in.lmp ensemble
























Total wall time: 1:02:11
