# LAMMPS data file written by OVITO Basic 3.1.0
2 atoms
2 atom types
0.0 2.887902 xlo xhi
0.0 2.887902 ylo yhi
0.0 2.887902 zlo zhi

Atoms  # atomic

1 1 0.0 0.0 0.0
2 2 1.443951 1.443951 1.443951
