LAMMPS data file via write_data, version 29 Oct 2020, timestep = 250000

2744 atoms
1 atom types

0.0617569035826655 24.746243096418425 xlo xhi
0.0617569035826655 24.746243096418425 ylo yhi
4.015520149789015 55.650376802943065 zlo zhi

Masses

1 58.933

Atoms # atomic

155 1 2.433213385608491 3.349260813702784 6.518128950521355 0 0 0
104 1 4.407847775861337 1.6556267132348688 6.577349170702842 0 0 0
2538 1 0.5502442843761517 1.8303457009204747 6.572402431453195 1 2 -2
2501 1 2.491422952622396 1.6717784983909 4.745379674694998 0 2 1
83 1 0.6890768640355277 3.4683949229449 4.359993207298434 1 0 0
2173 1 4.011062535337561 3.5495005967498265 4.478952317063257 -2 0 -1
2536 1 4.07615344959528 24.610541151233367 4.597607734369534 1 -1 1
31 1 4.309665417003031 3.185507144291027 7.950205550518197 0 0 0
9 1 7.3384036431248845 1.7298602800462004 6.451723745238144 0 0 0
35 1 5.68382245249778 3.716878179445061 6.325850852806333 0 0 0
2362 1 5.907201246303028 1.9958266512642713 4.524417404775489 0 2 0
12 1 7.35069090926756 4.063756683856402 4.4816486798811015 0 0 0
135 1 7.461355147782599 3.534455331300942 8.14198396791687 0 0 0
1524 1 7.4941127473766125 0.33549108690682156 4.434222855798036 1 -1 0
37 1 8.991199202069684 1.9553864032293664 4.564742450644715 0 0 0
10 1 10.882161222515085 1.7297321721224692 6.327166752561469 0 0 0
39 1 9.138595053800769 3.6898187466992733 6.295946895281283 0 0 0
42 1 10.96512750302014 3.8172579825596507 4.553725844275878 0 0 0
1954 1 12.779655307632986 2.019669637343057 4.633730571189545 -2 0 1
16 1 12.50611346991436 3.6576028707705817 6.372925232062599 0 0 0
41 1 14.329291370990083 1.741207759439037 6.39470045368336 0 0 0
20 1 16.19210442470309 3.4016483890062754 6.382016484380976 0 0 0
45 1 14.572593889758403 3.6017638926703435 4.461646217855712 0 0 0
19 1 16.338391278375795 0.09473298750602603 6.561674178960828 0 0 0
14 1 16.069962690729852 1.9211719200999378 4.50528675690701 0 0 0
119 1 18.16083020156229 1.6021429374592662 6.124399282431087 0 0 0
56 1 19.99372033846759 3.3568244443317594 6.2479371897894485 0 0 0
1756 1 18.5060083633747 3.2425086455001533 4.764952009031633 -1 1 0
147 1 18.121151358406603 3.508009535827984 8.009561405865153 0 0 0
1667 1 20.174349497480858 1.8123950667096196 4.340857902273145 -2 0 1
120 1 19.815722707669337 1.602429898095239 8.404482083699328 0 0 0
18 1 21.45713269029432 1.315829777754929 6.521716463376027 0 0 0
151 1 23.221089503083885 3.3408362016873325 6.60553861483006 0 0 0
2128 1 23.39310249071507 1.591293745325558 5.01593788548135 1 1 0
27 1 21.741625106554366 3.34714836817949 4.775346055354252 0 0 0
28 1 21.763149331788284 3.007598716019124 8.487045584947712 0 0 0
783 1 23.290291296870812 24.525027650130685 6.736458314116225 0 0 0
59 1 1.7628198249391829 6.837198676438926 6.370292030509878 0 0 0
36 1 3.6382281815790836 5.124769335034612 6.36015076758637 0 0 0
1567 1 3.9862259664160895 7.000535033717745 4.2658325880696655 1 0 -2
84 1 0.6251021832113436 7.079060012594458 4.28295191973328 1 0 0
61 1 2.2798871416231203 5.141844134149891 4.506692903019626 0 0 0
180 1 0.41322938024879063 5.019039033979518 6.114062396867077 1 0 0
134 1 3.870892571847335 7.149767522686206 7.866173822662195 0 0 0
32 1 0.5443583546551651 6.690930981597547 8.387195094770089 0 0 0
128 1 2.2792814979423506 5.204280357723011 8.402420302706958 0 0 0
40 1 7.424982048509356 5.343732381054167 6.546177499220399 0 0 0
132 1 5.328857206218874 6.708116796161651 6.000004089845909 0 0 0
2190 1 7.217631269268999 6.784046592232681 4.7820639179389905 0 0 0
2164 1 5.387251757673345 5.006738869906065 4.212328336567113 0 0 0
163 1 7.40471025930312 6.8429953688166565 8.341952913395415 0 0 0
67 1 9.0980244298637 7.197198329413261 6.521842475621682 0 0 0
44 1 10.824235602930862 5.456705898193132 6.71872821268293 0 0 0
38 1 9.187234077752953 5.42367298862972 4.537214804271146 0 0 0
136 1 8.914104303198489 5.3113536213713886 8.457637011891038 0 0 0
1714 1 9.100244133520844 8.483362124837289 4.585706930892764 0 1 0
167 1 10.666291859079356 6.836037617759237 8.596477920275676 0 0 0
73 1 14.415325742360164 7.146623305960808 4.667219670465672 0 0 0
71 1 12.947768435649008 6.952705847327067 6.503690139546213 0 0 0
143 1 14.621789015306785 5.257502944985525 6.063978933999611 0 0 0
48 1 16.032352534089185 7.258082869560748 6.19539281848044 0 0 0
171 1 14.505861453993228 6.729300500237355 7.829769472353199 0 0 0
2368 1 16.250152945474976 5.28586865794832 4.287901431551417 1 3 0
93 1 13.023825403859004 5.219546676167383 4.577206621359512 0 0 0
47 1 17.95480108371352 4.812635983669382 6.220156233743552 0 0 0
60 1 19.808298376656605 6.831147381319489 6.519579900183181 -1 0 0
55 1 20.10693677638795 5.069225747580517 4.790076208516008 0 0 0
2315 1 18.11015117081759 6.641451984424197 4.661827708430454 0 -2 1
148 1 19.93881754688518 5.044736272044205 8.10212941417797 0 0 0
175 1 17.97604927031562 6.609658033886876 7.958584869918353 0 0 0
2146 1 21.88315868206385 5.210480270263377 6.845982728707298 1 1 1
2113 1 23.80572916092952 6.923268704594593 6.396402016433641 -2 -1 -1
1861 1 2.2730273153167295 22.789338470606758 4.709006114804985 1 -1 2
1414 1 21.957621662482268 6.797029624819362 4.672115539769055 -1 -2 1
152 1 23.355109900972185 4.947085764298143 8.457316592515749 0 0 0
179 1 21.746063518733443 6.695397887439751 8.16299609312835 0 0 0
705 1 3.9020969669168517 10.471810330652229 4.699496655637386 0 0 0
1640 1 0.6246075316125634 10.485082711942502 4.200271944378607 0 0 -2
86 1 2.3560673328036725 10.57844607224366 6.637991715268944 0 0 0
2013 1 0.7968409493683304 9.059604716907499 6.1749585219284535 2 0 3
2600 1 2.2684159427324273 8.679088764634628 4.094694766444124 1 2 2
88 1 3.961535041500664 12.368209650910076 6.407694222391523 0 0 0
63 1 2.22107783996019 12.040241321034609 4.447598583401432 0 0 0
183 1 0.5623454823083801 10.471414790695269 8.587944502353151 0 0 0
159 1 3.7135728132464205 8.593666731101557 6.356242417953479 0 0 0
1876 1 5.644253846852579 8.803580903362848 4.464927017122296 2 -1 1
68 1 6.995587721762718 8.317127964018562 6.343777143618217 0 0 0
2287 1 5.6718758300943435 10.54462612456185 6.336252495190726 1 1 2
160 1 5.696603129407906 8.812616414314013 8.275692050046896 0 0 0
692 1 7.520301605512456 9.940206552991809 4.543476070009248 0 0 0
1464 1 7.079379989376021 12.118314872384003 6.165737009798649 1 -2 0
187 1 7.3380580684290795 10.326134551943847 8.274009677270875 0 0 0
164 1 9.00990933620056 8.600943282997202 8.389937839938733 0 0 0
1698 1 9.08497601164926 12.111229210719106 4.6656073529394115 1 0 -1
72 1 11.141467474488516 8.517669204077377 6.714039424397222 0 0 0
189 1 8.834261360112526 10.29726718390555 6.240143875755342 0 0 0
791 1 10.724941706241161 10.091590263539892 8.396993642393006 0 0 0
1620 1 10.919687974097073 10.654430570386854 4.405833148778244 3 -1 1
90 1 10.96676056443465 12.115504497454092 6.4599157620584915 0 0 0
76 1 14.313709824449681 8.94259314462826 6.361529974054353 0 0 0
92 1 16.476970853173665 8.673892050271515 4.511328245785509 0 0 0
769 1 12.691826391447664 8.702437486233825 4.781360989570381 0 0 0
2152 1 12.84812292687887 11.952174154588375 4.777265150024271 -1 0 0
696 1 12.582913842083506 10.594831000099472 6.624525647594357 0 0 0
2717 1 14.706671597397262 10.542744871691674 4.28592697138325 -1 0 0
94 1 16.67282491257289 10.299865960935957 6.132056308817997 0 0 0
168 1 12.821822501620867 8.743988867974505 8.19773458556738 0 0 0
191 1 14.479281407363668 10.356369200434514 8.367232101703035 0 0 0
2126 1 16.111119806393017 12.456286984531813 4.4857004657818855 1 2 0
1491 1 14.525434618838258 11.952839238041628 6.573282462725142 -1 0 1
815 1 12.61954256415625 11.585916603997935 8.623191160478768 0 0 0
172 1 16.249503582766465 8.848946466668293 8.108605355753983 0 0 0
793 1 16.329913398682063 12.044017398796454 8.215226006790527 0 0 0
57 1 20.10048739935183 8.378004680649381 4.732185953810552 -1 0 0
75 1 18.133617783943503 8.601930170520395 6.04106196655826 0 0 0
78 1 19.7424466920818 10.550115796241748 6.257383942937893 0 0 0
2012 1 17.995590452092102 10.421967551895959 4.2816395620379994 0 0 1
80 1 17.77265199511958 12.427725794970696 6.183921003146704 0 0 0
193 1 17.885694963198755 10.462790660469022 8.05150513864265 0 0 0
176 1 19.690926117254595 8.792331736584702 7.9010009544855935 0 0 0
96 1 21.82426713008941 8.488038982361577 6.521615602167243 0 0 0
98 1 23.453644418084345 10.487184747416814 6.3223870288873245 0 0 0
79 1 21.773324255676116 10.472176080164056 4.766158550363794 0 0 0
700 1 21.47264277859692 10.102321662853788 8.159277460907296 0 0 0
727 1 21.76723655184985 11.949277111085697 6.5208001363173915 0 0 0
156 1 23.301431898961933 8.68465994232404 8.696031652276368 -1 0 0
1463 1 23.468674668112087 18.960296681217088 4.4175652492697735 -1 0 -2
797 1 23.31103008015246 12.164894232024503 8.310929096244841 0 0 0
1412 1 23.5427588279379 12.026063345948458 4.901298737578241 -3 0 -1
785 1 2.643307872782522 12.255397447262158 8.487783914338454 0 0 0
699 1 0.5558869184689498 11.980046192209393 6.3203358828003715 1 0 0
1432 1 2.386757203598288 15.682941100915073 4.7568940629231875 -1 0 -1
687 1 2.3038207986547627 13.853751969972109 6.561384040736439 0 0 0
704 1 0.6584098661372553 15.721911367174862 6.542148258878843 0 0 0
2426 1 0.36418430219606945 14.140124359348713 4.7660987371926264 1 2 1
706 1 3.79889836092051 13.9392757833166 4.444752617851712 0 0 0
800 1 2.275590419980551 15.50250089817206 8.149893013520987 0 0 0
2499 1 5.434743735507716 12.396277830658901 4.491874892888575 -1 -1 0
787 1 5.613430644791271 11.824580184752667 8.581923697248389 0 0 0
803 1 4.4068412127965235 13.726060574483002 8.274323478479225 0 0 0
2267 1 7.623365485440057 14.139231279077311 4.462323696380044 -1 0 -1
690 1 4.284699483497813 15.837175076465037 6.391304865660885 0 0 0
703 1 5.686856215105542 15.74837200645383 4.511516492540057 0 0 0
708 1 5.747618887289683 13.876447434799001 6.215456852064791 0 0 0
712 1 7.4604432149466255 15.644428274483111 6.322597850102298 0 0 0
804 1 5.91171349605487 15.76149924272912 8.545690250800503 0 0 0
807 1 7.467569822716474 13.977349236079789 8.236995623501087 0 0 0
711 1 9.156181571140023 13.882049887105953 6.273720961327928 0 0 0
716 1 11.288588130485604 15.369968570906513 6.5972345928781895 0 0 0
808 1 9.12614862028743 15.44640301853122 8.330145785523165 0 0 0
1548 1 10.752696517754009 14.174167391144046 4.522433934942151 2 0 1
811 1 11.15444279281477 13.687923599295592 8.26732780077676 0 0 0
2033 1 9.156055854285155 15.866874904267117 4.272604670598268 0 -3 1
1469 1 12.708888679648684 13.720486612904047 6.362293405968389 2 0 0
694 1 12.618555830993028 15.647928305485589 4.42427770840735 0 0 0
746 1 14.503882557395302 15.670717933985799 6.216531633959849 0 0 0
719 1 14.357929977198097 13.783914413226125 4.726083091001234 0 0 0
66 1 11.244170995432635 6.8617452606644465 4.924760713453302 0 0 0
812 1 12.960819561295938 15.800739206845028 8.182212146618443 0 0 0
715 1 16.224943369581872 14.29620744995803 6.218712884273513 0 0 0
698 1 18.16188545008778 13.923953460599302 4.408323614043452 0 0 0
195 1 19.58269082147043 12.14758456124489 8.151960320432796 0 0 0
2257 1 20.091758963438203 12.290983300662674 4.658042666771949 -1 -2 0
723 1 19.492946681861664 13.719563674343345 6.42439714006913 0 0 0
747 1 17.91719642164276 16.047663999998164 6.1605766730452824 0 0 0
795 1 17.882714668691307 13.936618422146433 8.15993231829317 0 0 0
820 1 19.72976703039775 15.74109769952325 8.144252046785878 0 0 0
728 1 21.44585956633476 15.04127049475256 6.444084115702931 0 0 0
688 1 23.575372190328938 13.76424965286832 6.63496697423637 -1 0 0
2307 1 23.21609780108736 15.498859735416133 4.546137516823791 -3 3 0
1429 1 21.660486159114747 13.968754513004214 4.49760014414238 0 0 -3
823 1 21.497460231268683 13.940672230866154 8.245832926420398 0 0 0
824 1 23.389679003021783 15.632026363009224 8.283221352654971 0 0 0
1376 1 4.300028205300461 17.390254957858147 4.426935792781389 0 0 0
1872 1 2.2328264382739915 19.087653884065887 4.425849383805416 -1 -1 -1
828 1 2.46246864723203 17.23717485525734 6.4299833142270675 0 0 0
736 1 3.959250300144768 19.139695425819507 6.472989488383805 0 0 0
731 1 0.5234335061961926 19.296063705678474 6.4469094808445675 0 0 0
1753 1 0.43644874850139825 17.312687603287028 4.612643784064276 0 1 1
827 1 0.7165783754334514 17.504421303247714 7.982137103444371 0 0 0
831 1 4.006963294225532 17.07140876047343 8.245304858548472 0 0 0
855 1 1.9908536861784456 19.303577268188256 8.294849353829221 0 0 0
710 1 7.343648512173814 17.262485861058984 4.4148158078127615 0 0 0
735 1 6.029295033940399 17.417668975462966 6.626050721400617 0 0 0
740 1 7.749409058825626 19.091643878685105 6.371008116311747 0 0 0
835 1 7.84424327349918 17.185764992481175 8.117334275609295 0 0 0
758 1 5.877682406925789 19.14465600486628 4.988877260924571 0 0 0
1388 1 9.238009340371354 19.030653495381216 4.21297572390918 -1 -1 -1
739 1 9.48798559400016 17.177947309690303 6.215174983002695 0 0 0
744 1 11.163159967519453 19.29507673311825 6.233741664839121 0 0 0
836 1 9.428515259918724 19.001870502471238 7.922759541836662 0 0 0
742 1 10.932000821815006 17.156132391203567 4.49838761193313 0 0 0
2369 1 12.701095016456236 19.050536556212137 4.1783876936326525 -1 0 -1
743 1 12.837521588324677 17.668866963854093 6.32412894089474 0 0 0
773 1 14.478990412959108 19.39461879106468 6.357486332580365 0 0 0
1840 1 14.547525775002041 17.099166398356715 4.415918642835366 0 0 0
843 1 14.679430505910675 17.40734763158893 8.041726756571823 0 0 0
748 1 16.15804693441133 17.65272637494863 6.394297282341574 0 0 0
844 1 16.03747865653391 19.6254818143947 8.204242084931265 0 0 0
780 1 15.953716115021255 18.947749207933793 4.424826602594966 0 0 0
1 1 23.35946873386468 5.029356178226809 4.603270907215603 -1 0 0
751 1 19.950662377230312 17.40258467686054 6.18802472624794 0 0 0
2463 1 18.050431150117475 19.18201974929365 6.30620587654623 -1 0 1
848 1 19.947454216808033 18.874049536158896 8.115419821871381 0 0 0
847 1 17.81315176514239 17.994671242350577 8.23523063724153 0 0 0
2707 1 19.959752659621095 19.033020010362353 4.216531597183209 1 0 2
701 1 21.52515525877455 17.26156563005631 4.394305762181149 -1 0 0
29 1 23.346764914391372 8.77304136618653 4.649044022839472 -1 0 0
756 1 21.821858965033933 19.185967996562248 6.041238211358682 0 0 0
755 1 23.52219276154816 17.551381376488038 6.519617555186771 0 0 0
852 1 23.4789933651669 19.115391863481342 8.646002569746644 0 0 0
851 1 21.640382661228166 17.288832518260683 7.997688505120268 0 0 0
124 1 0.9794043789670026 24.719989590208076 4.573987962130118 1 -1 0
732 1 0.37200357028766073 20.75234205461412 4.817495997789811 0 0 0
8 1 2.1667443962771067 24.73618177077251 6.527791788813868 0 -1 0
759 1 2.3163296561043882 20.674010816300918 6.167073102929268 0 0 0
5 1 0.21603681446808837 22.786574306272225 6.434530677507977 0 -1 0
1507 1 4.043207181961211 20.34860829963203 4.419435521602117 0 -3 2
764 1 4.156197071748024 22.346048464640397 6.759643764166908 0 0 0
856 1 2.268915319434993 22.52040837028907 7.927692386130948 0 0 0
859 1 3.95542589878601 20.699045600444762 8.486947877570087 0 0 0
768 1 5.8932374178369 24.350836168269765 6.530832072022154 0 0 0
2283 1 5.655672483871975 22.65581247749026 4.640282708547914 -2 -1 0
2175 1 7.251289696097045 21.01852446707642 4.2835735715050705 1 1 2
763 1 5.85314033246677 20.524644829468283 6.65430557846487 0 0 0
765 1 7.519694895864663 22.089676423401237 6.087574046395607 0 0 0
860 1 5.947174757152873 22.518548024872576 8.259433384678033 0 0 0
11 1 9.110305291977383 24.667306140258685 6.55962948377362 0 -1 0
1553 1 11.07196783118008 0.12520656108967287 4.551426434950942 1 -1 -1
1830 1 10.92503939750255 20.7852924991415 4.387991413812426 -1 -1 0
1856 1 8.793078695042812 23.103597598676874 4.449522022090717 -1 0 -1
767 1 9.41661735225301 20.801933643551884 6.309663712911073 0 0 0
772 1 10.81033289764649 22.95854986658392 6.5996744929664555 0 0 0
867 1 11.032872017523477 20.85149788408013 8.383738402234684 0 0 0
1758 1 14.495578588405753 20.956787132418786 4.424733222819734 1 -3 0
2598 1 14.495838972770278 24.740173553931566 4.3921208930819695 -2 0 2
771 1 12.699671508861064 21.32989385456108 6.25320154262076 0 0 0
2416 1 12.636766170381824 24.435517414742556 6.331776585522009 0 0 1
776 1 16.521208388853697 21.000789632442284 5.847374607094559 0 0 0
15 1 14.53036440776915 23.010601328465448 6.230499088184445 0 -1 0
871 1 14.186058687998035 21.05926073283193 8.251269081656579 0 0 0
868 1 12.581777793752053 22.73319901779363 8.236629576252849 0 0 0
774 1 12.575271839790176 22.909497849466316 4.525224858682939 0 0 0
115 1 14.629148417407617 24.42467386160015 8.249650053124695 0 -1 0
2264 1 16.25162057414272 23.206268497229267 4.4600523974153345 -1 -1 0
2615 1 18.518390781231695 24.688567331610333 4.515500895754908 1 -1 0
876 1 18.19719138109875 24.489569415998595 7.77434019432242 0 0 0
1785 1 20.18779520877508 22.25329506476038 4.684767066944674 0 0 1
24 1 19.95274031180551 24.17532596400164 6.4476308830704205 0 -1 0
752 1 19.8521370044536 20.55308149056646 6.188247932689158 0 0 0
777 1 18.18842024082089 20.721793050840354 4.211643484508669 0 0 0
775 1 17.95418809895105 22.932062442232542 6.198631979195534 0 0 0
784 1 20.10715535815492 22.330294499242715 7.928379605607375 0 0 0
875 1 18.250511038823714 21.05445217628247 8.029526658187917 0 0 0
1880 1 23.28108885559722 23.433973223247545 4.475436722237401 0 -1 1
2665 1 21.44188728812352 24.463421822164754 4.709112766400031 -1 1 2
779 1 21.772088959432846 20.70147242230263 4.380663154739688 0 0 0
1739 1 23.35630165261127 20.88273753239727 6.37356990931028 -1 -1 2
2177 1 21.691601663331344 22.60963990770251 6.268001243708072 0 0 -1
760 1 0.2624026408283586 21.149839737035364 8.172236353627001 0 0 0
879 1 21.722818318399295 20.652579461953952 8.104396068998001 0 0 0
3 1 0.4004700397598936 3.406269005633852 8.269311875162746 0 0 0
198 1 2.4672664982041885 1.4624813231924352 8.328485151897276 0 0 0
101 1 2.4538678543392076 1.7024247824973417 11.764445106640135 0 0 0
204 1 2.443974270739233 3.1278783843537807 9.862312928131313 0 0 0
102 1 0.55682381381516 3.4527172599609792 11.90226209843632 0 0 0
106 1 4.1782742052374395 1.4089904837280736 9.962898763257906 0 0 0
229 1 3.976209977216298 3.266481608181051 11.642578386524626 0 0 0
225 1 0.5698087367672166 1.8510516816138307 9.911275158211403 0 0 0
7 1 5.884494055176149 1.532849626587737 8.08230064155307 0 0 0
110 1 7.261112400898533 1.2927031819885935 10.12925699383251 0 0 0
202 1 5.5954698394570945 1.4149678245365185 11.8487304308617 0 0 0
133 1 5.976655562756203 3.30275645657863 10.014936690656784 0 0 0
233 1 7.208041013411396 3.2687075900360005 12.19443649592066 0 0 0
108 1 8.802775842919436 1.7955429345660967 8.64232735651773 0 0 0
139 1 10.798332320780647 3.589061119843154 8.329331969330424 0 0 0
114 1 10.69740201597851 1.9116520408771733 10.517290497076038 0 0 0
137 1 8.889673737432513 3.3697814893946005 10.237861401490687 0 0 0
206 1 8.921792691258691 1.67877726411353 11.865664244823478 0 0 0
237 1 10.75395736223425 3.5708851663744965 12.07904971340698 0 0 0
141 1 12.456163148991804 3.524071689628572 9.893030289803306 0 0 0
112 1 12.12562186340471 1.739598829540624 8.157958502955438 0 0 0
144 1 14.22224912263641 3.321283171911892 8.277482396391964 0 0 0
116 1 16.481486273381858 1.7831021301552008 7.941056866809352 0 0 0
210 1 12.970049707989903 1.5755429592946764 11.864581419567898 0 0 0
118 1 14.446554880668998 1.6970268146076048 10.074545993286552 0 0 0
241 1 14.736306400311092 3.5294668538531835 11.702166113932797 0 0 0
145 1 16.172321123874227 2.8904617724045787 9.955213875041697 0 0 0
214 1 16.161196327412995 1.3541594010860447 11.894236420163185 0 0 0
122 1 17.962316648705812 1.4768784565302837 9.974750427332875 0 0 0
149 1 19.72265902463166 3.3511701369798628 9.844357372263202 0 0 0
245 1 17.74574798713695 3.0687737171657807 11.650018081711632 0 0 0
218 1 19.876684742124052 1.4589635595355914 11.962224117363204 0 0 0
217 1 18.233981336798987 24.142685903434565 11.54987475940213 0 -1 0
127 1 23.65470338385044 1.6093994701270713 8.371388571253142 -1 0 0
153 1 21.52758676631452 1.5053200922134937 10.279089262461582 0 0 0
130 1 23.47647395299927 3.2440408202012274 10.475186993857696 -1 0 0
222 1 23.34407727738719 1.308716669299565 11.98351592941205 0 0 0
249 1 21.49333374290461 3.288573358516935 11.678896716242878 0 0 0
126 1 23.528868960505285 24.357860948753395 9.867301040826948 0 -1 0
221 1 21.2123146261294 24.42615187352572 11.791289159712523 0 -1 0
226 1 2.236850307207262 6.875059006878642 10.016929956969305 0 0 0
227 1 2.097468108647356 5.26049055590375 11.864273522163447 0 0 0
100 1 0.24225056639867534 4.862260518121839 10.100857014661763 0 0 0
257 1 3.892921362606132 6.865209593329396 11.90470475926044 0 0 0
129 1 3.984922495521739 5.197185509195627 10.063857232771396 0 0 0
253 1 0.31613842149966465 7.001109224074219 11.692780444618615 0 0 0
131 1 5.618466071649865 5.237711062298591 8.128053127451123 0 0 0
138 1 7.473523076037411 5.177526995491535 10.183423882446007 0 0 0
230 1 5.5956317415660095 5.121830790028388 12.270133463774666 0 0 0
261 1 7.304066088469418 6.871609006619652 11.934855139996758 0 0 0
161 1 5.631591652983047 6.688948730150871 9.927060529128665 0 0 0
140 1 12.392517361430178 5.3033848785442865 8.254600955493434 0 0 0
234 1 9.112996535256523 5.165041245910983 11.979216835907192 0 0 0
142 1 10.651723573930418 5.082021558428342 10.124063588991165 0 0 0
165 1 9.163801267739865 7.117631670785619 10.320650907934507 0 0 0
265 1 11.187184982447516 6.810095400723232 11.570207670108744 0 0 0
52 1 16.080909704781433 4.920708076187138 8.248653224197431 0 0 0
169 1 13.045171832167423 6.953136209072518 9.883040345520978 0 0 0
238 1 12.907720065206883 5.150727881841447 11.377572363118471 0 0 0
146 1 14.335811467775036 5.1190357526063455 9.862068150419091 0 0 0
269 1 14.936621227733381 7.100406757973084 11.580236598477494 0 0 0
242 1 16.542874481627116 5.309824078511292 11.492392051696426 0 0 0
173 1 16.43819173435056 6.724222987246353 9.601994397346811 0 0 0
150 1 17.826605114894647 4.913620995692077 9.801540156556321 0 0 0
177 1 19.60562333936257 6.490813037985927 9.886770531457378 0 0 0
273 1 17.917130186150636 6.775001906856877 11.36949441451915 0 0 0
246 1 19.51054017768901 4.930332844125826 11.50568297393529 0 0 0
277 1 21.27361297194841 6.628290502335163 11.44813655130595 0 0 0
154 1 21.68409299099434 4.854817588525345 9.943962543896234 0 0 0
181 1 23.34054656930372 6.707858485598367 10.016048636368005 0 0 0
250 1 23.431836841976963 4.967902107904357 12.061190439497068 0 0 0
185 1 3.7737367439500393 10.194135277629018 8.310963900643062 0 0 0
157 1 1.6379929319072493 8.67208468976223 8.199824604626123 0 0 0
254 1 2.2495284869883867 8.506209331644445 11.482508734377129 0 0 0
184 1 2.208172097823437 10.677568571830712 10.21126254271281 0 0 0
162 1 3.9602568959248066 8.257137337202147 9.908532496934232 0 0 0
883 1 2.0820426105412326 12.09964536505562 12.11040387161288 0 0 0
786 1 0.16668660857604778 12.21529285803387 10.40501735357762 0 0 0
283 1 4.173259759611167 10.54032440772331 11.885907698194707 0 0 0
166 1 7.40845019682762 8.615733989466554 10.235974984351827 0 0 0
258 1 5.825137757897656 8.63455570268081 11.859812049897315 0 0 0
186 1 5.473736068444173 10.326185463313607 10.139972121702844 0 0 0
285 1 7.70048464311882 10.655687422252603 12.201305894748996 0 0 0
790 1 7.423689415499866 12.193410305687934 9.969106513137055 0 0 0
885 1 6.032313102884097 12.30012595174133 11.900151985042873 0 0 0
789 1 9.129310891776013 11.975968889423974 7.8558722878182845 0 0 0
262 1 9.265299105608051 8.59452718628039 11.995251290523395 0 0 0
170 1 10.82699542327557 8.718142963838261 10.085552384270654 0 0 0
188 1 8.964909871309395 10.630673835054141 10.230859770206735 0 0 0
287 1 11.173556871668433 10.25411328955748 12.21591517539289 0 0 0
792 1 10.852517943084154 11.964913274453439 10.56700662735539 0 0 0
190 1 12.866196834827724 10.403511743208856 10.303996089789468 0 0 0
266 1 12.754067061732341 8.57205984857813 11.657473962607442 0 0 0
174 1 14.727712688009525 8.809056131659101 10.080829009625107 0 0 0
289 1 14.848394934151818 10.360174006684407 11.82251513991353 0 0 0
270 1 16.591971959933304 8.476312293614392 11.560556587434007 0 0 0
794 1 14.824389480982438 11.878979211229609 9.96412231784911 0 0 0
192 1 16.701647559155 10.414001775765849 10.336919707289514 0 0 0
889 1 13.262359942440177 12.038837168806172 11.804939228711948 0 0 0
891 1 16.45454945286839 12.214984424128316 11.802601071568226 0 0 0
274 1 19.949220548317435 8.277261453599 11.635072006453903 0 0 0
178 1 18.267512259887056 8.422128826349217 9.824736887880782 0 0 0
194 1 19.54706359553698 10.2923476508802 9.609036949088363 0 0 0
291 1 18.433228206747337 10.059440781195661 11.860861474632141 0 0 0
796 1 18.29966630514521 12.449199834567192 10.043831458923492 0 0 0
893 1 19.790434234247737 12.523615152238436 11.825530991049021 0 0 0
281 1 0.3176159485788655 10.144481370902032 11.757126594712838 0 0 0
158 1 0.4008115382265519 8.62329551149626 10.06402330907464 0 0 0
278 1 23.072643024142234 8.61387659810591 11.82395501106622 0 0 0
182 1 21.259444277608853 8.254691616696281 9.648223560133676 0 0 0
293 1 21.089476558741833 10.298825555070863 11.715308464711972 0 0 0
196 1 23.205191626272512 10.439212792691476 10.304393891413628 0 0 0
798 1 21.24528292744208 11.951075591897423 10.117383369223855 0 0 0
895 1 22.49905363736766 12.09129061743844 11.919469039087842 0 0 0
788 1 3.9855172477281027 12.34674613529825 10.547473821677574 0 0 0
799 1 0.3496690928628903 13.664632731849808 8.48161391038446 0 0 0
801 1 2.3082889499202284 14.035562135644035 9.877684324248701 0 0 0
898 1 1.9846439272901018 15.726287546137362 11.730318844629952 0 0 0
802 1 0.40096746920658827 15.856340088694521 9.769526908029587 0 0 0
897 1 0.4147865673149221 13.924629296790052 11.682877879237031 0 0 0
806 1 4.123006058629202 15.815562993185027 10.351523972194991 0 0 0
901 1 4.0285231492917974 14.101983875726662 12.115659669581868 0 0 0
805 1 6.107205919467072 14.109351203311975 10.201894761599016 0 0 0
905 1 7.513495722502337 13.866292262524928 11.928696270334594 0 0 0
810 1 7.923129419827677 15.590983942286346 10.299122261512107 0 0 0
902 1 5.918861818503267 15.949561889481963 12.077893210647984 0 0 0
887 1 9.311834369336356 12.493756225283704 12.291738652442175 0 0 0
809 1 9.546775551086293 13.776338895013502 10.047928956133166 0 0 0
814 1 11.082388957369135 15.548294662857655 9.738077266587254 0 0 0
909 1 11.279964697699233 13.642492726134423 12.004021145447723 0 0 0
906 1 9.558580857415906 15.729478977131395 11.96655391242347 0 0 0
819 1 16.22556816229863 15.767473399494582 7.722860586081442 0 0 0
816 1 14.678383158055773 13.606543036064977 8.415299332809182 0 0 0
813 1 12.868495059409357 13.83486248064156 9.991190816975195 0 0 0
910 1 12.661476014887267 15.83881542138135 11.791121932715079 0 0 0
818 1 14.781992361166262 15.58126668673326 9.9541262369925 0 0 0
913 1 14.646982182940032 13.972184561895306 11.829888391465214 0 0 0
914 1 16.03184985871672 15.832521068439851 11.647330214769884 0 0 0
817 1 16.33153543402641 14.040354028611889 10.01363342066008 0 0 0
821 1 19.920918792457655 13.947832233949542 10.181743397637202 0 0 0
822 1 17.829668384876328 16.24422479844675 9.918068619663885 0 0 0
917 1 18.04568561354752 14.465452525338842 11.652874051368546 0 0 0
918 1 19.565816043249615 16.234806416753976 11.960554085418028 0 0 0
825 1 22.88531147429071 13.798652534707458 10.382334724083716 0 0 0
826 1 21.418471434027342 15.636064934543304 10.618259781861699 0 0 0
921 1 21.229153000838462 14.140787923509972 12.479404575049703 0 0 0
922 1 23.230299329389204 15.788879946882892 12.334225407028422 0 0 0
829 1 2.1341937216423768 17.260632609502093 9.916082337191146 0 0 0
926 1 1.9333461828383651 19.32955043287562 12.001555626225827 0 0 0
929 1 3.73465527980014 17.529104207424364 12.317542333834332 0 0 0
953 1 0.502339596277013 19.19971511600037 10.159452492460726 0 0 0
834 1 4.196117095051683 19.190546684304536 10.388527035331318 0 0 0
832 1 5.581625007683228 18.75763617640128 8.58413693149155 0 0 0
833 1 6.103631462066867 17.36466737931211 10.178879026742912 0 0 0
933 1 7.670008345329066 17.420909284639567 12.123718033311823 0 0 0
838 1 7.867862103615762 19.157843021724698 10.383321855303418 0 0 0
930 1 6.021283387375798 19.328149681031622 12.135741860651816 0 0 0
839 1 11.248606039037076 17.410905064206414 7.963329047096436 0 0 0
837 1 9.646123369772475 17.451383446406528 9.91620463933533 0 0 0
842 1 11.02766103485368 19.305558908310935 10.20590521077565 0 0 0
937 1 10.93107626083132 17.403754189526115 11.902411655335502 0 0 0
934 1 9.44377820079402 19.50598140259568 12.098115015240287 0 0 0
840 1 13.07064349249934 19.080892396571787 8.379891541191736 0 0 0
938 1 12.667617876123527 18.98853256232273 12.059520269706084 0 0 0
841 1 12.532576756846654 17.515252200477438 9.912958134553936 0 0 0
846 1 14.438571942439214 19.419339442492536 10.496832663060495 0 0 0
941 1 14.553546471135208 17.293382326860822 11.833951100121075 0 0 0
942 1 16.1376248673785 19.471823856592565 12.261594058935833 0 0 0
845 1 16.04319573479708 17.722821450206624 10.109570057623584 0 0 0
849 1 19.784354510606274 17.393347291948842 10.024463790970973 0 0 0
850 1 17.716887155404926 19.313635251320868 10.338040607078263 0 0 0
945 1 17.775366524582772 17.521283162856246 11.901702579660324 0 0 0
946 1 19.66111541391911 18.87365154885169 11.86150370746614 0 0 0
925 1 0.1314176681400661 17.331633362770013 11.902219693217535 0 0 0
854 1 21.490474034731232 19.10424521486806 9.878941512597041 0 0 0
853 1 23.317084329727585 17.365056928615978 10.11249804025384 0 0 0
949 1 21.673022583831205 17.583807504927154 11.846456298491521 0 0 0
950 1 23.710646191810838 19.384782434394392 11.978550240578961 0 0 0
103 1 4.164008419645837 24.30899664459517 8.295806413385707 0 -1 0
880 1 0.6552491231960305 24.45346817903296 8.51689533256437 1 0 0