LAMMPS data file via write_data, version 29 Oct 2020, timestep = 300000

2048 atoms
1 atom types

0.01886328789977476 28.333136712100426 xlo xhi
0.01886328789977476 28.333136712100426 ylo yhi
0.01886328789977476 28.333136712100426 zlo zhi

Masses

1 58.933

Atoms # atomic

975 1 4.509500218507881 3.0460726602977095 1.0480561229869478 0 0 1
925 1 2.370740631206845 2.679586542348963 5.241929461055182 1 0 0
834 1 2.5477892481390665 1.0397236360528368 3.6707320006683424 0 0 0
1870 1 6.550965131596826 1.8865428688195411 13.42571054009142 0 1 0
1656 1 3.023388950590969 3.2952153653902543 2.6907473737150878 1 1 0
1225 1 13.97282704366157 2.0949697975766512 0.5716667731841898 0 1 0
160 1 8.576549204043246 3.896534627931666 0.4408781479749874 1 -1 0
1181 1 2.6242393308028733 1.431260178240509 0.8047124849199422 0 0 0
890 1 18.108997805566084 1.1461573497737516 9.899396329414014 0 1 0
218 1 0.551774111630166 2.697237731478726 2.666387045827529 1 0 1
352 1 6.944875467244473 2.2377478870625205 1.2798269769665827 1 1 1
618 1 4.778407675062734 1.275406376545525 2.4192996641099436 -1 1 0
1739 1 4.315401268604766 1.3867693261822212 5.520037336481998 0 1 0
1535 1 6.269047026867116 2.115459854272552 3.531764349904222 1 1 0
1641 1 6.015716310574771 4.8606484195586805 0.2023463167431582 1 1 1
1022 1 5.184692412448026 4.579086784148124 2.334646098184526 1 0 1
1670 1 21.640275677888603 8.420689211007621 0.39035836881515357 0 0 0
663 1 17.21252619345819 13.79889255017584 12.220611109834511 0 -1 0
936 1 9.254240780188226 1.8843901820785542 1.8717200170999495 0 0 2
1155 1 10.361950651947094 3.2562718811240554 2.5917688006407498 0 1 0
1792 1 11.61352440798938 1.5377512172790366 1.606567405754306 1 1 1
1936 1 15.9087352200326 0.5526064670095638 2.939730198900595 0 1 1
870 1 7.731321831398278 4.049131911955727 2.5510285912965776 0 1 1
833 1 12.282140880445583 1.9478345576483271 3.7058217242847293 0 0 1
1669 1 7.955387914992907 0.581051765581371 3.075765983352526 0 0 1
577 1 13.714711869149008 0.6460192332274738 2.486446266291246 0 0 1
631 1 14.279558993365793 0.8696532357791298 4.881950462396707 1 0 1
774 1 13.735086861707035 4.697782782744195 4.032224438061225 -1 0 1
321 1 12.61723714407207 3.4901980150530365 2.4497106316621418 -1 0 0
1122 1 15.740361874204018 4.37054004257436 1.2652365074957432 0 1 0
1511 1 13.45749858026698 2.8041307096935797 5.480066760066871 0 1 0
979 1 26.26535988932077 1.1818861785858747 10.536714289787898 0 0 1
91 1 14.683003271613993 6.551465571071909 13.313849439946107 0 0 -1
1834 1 14.504772307384586 2.5408380199034797 3.386815196745896 -1 0 0
593 1 9.106234084080429 14.152608149276437 7.7326246429511585 1 -1 0
343 1 20.132758026834722 2.9903707709822207 4.243473940405866 -1 0 0
1043 1 18.433285203935732 2.8345294783506243 0.9129542236026936 -1 1 0
16 1 17.246721271296863 3.338451000525585 3.2296691659874224 0 0 0
322 1 16.41112668454378 2.195138883715816 1.2423247536698563 0 1 1
1228 1 20.001354302494995 1.553939580423608 2.309035451605955 -1 0 0
1978 1 22.425515023652935 4.324387546248938 2.5425476294411857 0 1 0
885 1 16.428215908271937 1.654084019167281 4.822718594045911 1 0 1
1410 1 21.656067677101795 13.065003000444154 12.576358226748539 -1 0 -1
209 1 23.35555674610353 2.4007851271732505 2.0987167237318793 -1 0 0
1114 1 22.021566405040126 2.3146311976762943 3.8429160309567245 0 1 0
1087 1 25.463085830094215 13.85788819649912 14.110983535270705 0 0 -1
1343 1 26.699601205510312 11.377040147532078 0.4602466825657613 0 0 0
1988 1 21.466150933045036 5.374758292225687 4.306723680896917 -1 0 1
1775 1 25.461325079888105 2.03402291204778 3.051254521067361 0 1 0
204 1 24.167528817486428 4.336842329446941 3.719421572302327 -1 1 0
1350 1 1.8682332196574938 1.115245345739699 12.465229062541292 0 0 0
173 1 0.036251100083949286 2.1694308099064137 4.424791154653383 1 0 0
1437 1 0.20006658412825348 5.438749518334952 1.6455281413898053 2 0 1
1579 1 23.52822377560674 4.141258054769465 0.5849499182568325 -1 0 0
2000 1 22.110615646908833 12.675777578532124 2.4598954679414002 0 0 0
55 1 25.896176945564065 4.346888889125225 1.9846145030631424 0 0 0
1623 1 27.671679589421366 3.490175600199008 0.7947508289768819 0 0 0
2006 1 8.880435761395512 13.607707175547427 13.46919400246967 0 0 0
1966 1 13.748644843805101 12.641566748035146 10.365980131981068 0 0 0
591 1 2.155638485518751 8.330046847015023 4.910783562513536 0 0 0
1070 1 1.5141157113055124 6.371788998474049 3.424195988293834 0 1 0
256 1 4.478148843405288 6.08714028939309 3.879573206577198 0 0 0
1925 1 1.4785234027260563 9.077910876920573 2.6963925777342617 0 0 1
242 1 4.329380302970125 3.24395853049258 4.1355800197222505 0 0 -1
949 1 27.629091409178727 7.851647065387506 2.277712060560271 0 0 1
793 1 3.0954444399089134 5.518101830204381 2.0625163714883024 1 0 1
363 1 24.261083627372976 0.8028609102229823 11.11242317827895 -1 0 1
215 1 5.4258589930305545 6.761327389355953 2.026194520706935 0 0 0
164 1 3.4268557994066917 7.7154682649049695 2.2649541072165675 0 0 1
1258 1 5.143880876498493 9.237160980936816 1.6882257051836471 -1 0 0
1182 1 23.486173191894714 13.577979981062969 10.817929282624005 -1 0 0
496 1 7.741923973475857 6.298186417339893 2.1470541201553313 0 1 0
816 1 6.623638919137353 8.186041941171105 3.3265103982194653 0 -1 0
1482 1 9.306229640993077 6.1195072725414015 0.4674726576035313 0 1 0
377 1 26.622953138513957 13.071760073906741 7.646627424467478 0 0 0
1100 1 9.831823785598338 5.590900408467386 5.676919530412995 -1 1 0
765 1 10.828978135991639 4.570000456328594 0.6784450128489746 1 1 1
1876 1 11.747253807288686 6.40720473377586 1.3795495915611329 0 0 0
303 1 10.068957885593115 7.246825085469042 2.45742908563472 0 0 0
416 1 18.463196460198795 1.537088829089096 3.9777324392788787 1 0 0
1317 1 3.237653148001616 13.09663181286173 1.1096451990725442 0 0 1
468 1 10.981429229084187 7.671872338449334 4.697692296585942 0 0 0
1630 1 11.536777851848603 5.630843276342344 3.8484143855847828 1 1 0
659 1 12.362703969718584 8.044418970372329 3.0239281413187395 0 0 0
1048 1 13.822138206972879 5.449786709594322 1.7322009275386132 0 1 0
99 1 14.790505913976908 7.2665312121594665 2.4400505711120686 -1 0 0
1614 1 16.094364570940854 0.040419875532534524 8.989419261917758 -1 1 0
1771 1 16.28045911393339 8.775707075817136 1.026462162867459 1 1 1
140 1 13.423702824177994 7.900379057770708 4.955894475132907 0 0 0
1310 1 18.41210428874603 7.898093596371327 1.176059764890994 0 0 0
217 1 19.434200653352526 4.455289899147207 2.92958957567068 0 0 0
627 1 17.95748045689308 0.5958612661386803 1.05729313325291 1 1 1
605 1 8.15720683335927 12.531422618240722 0.08878963569530515 0 0 0
2017 1 16.33401490651947 6.520061533166166 0.7516572549411241 -1 0 1
1643 1 17.435027349762144 6.333246335316199 5.064123072798137 -1 1 1
1667 1 18.65729254782954 9.309392457587002 3.0773599500425903 -1 0 1
1215 1 19.36596125034179 10.955600477180033 4.947400394369953 0 1 0
743 1 20.242756636127496 6.325301566354988 1.9808077216485598 -1 0 1
1412 1 20.603544894973574 8.465363186036104 2.375107823188943 0 0 0
1452 1 22.33213948468495 10.233044691730289 1.482003465031184 0 0 1
59 1 21.271348621422213 0.24541019656045182 0.5157377060651456 -1 0 0
706 1 22.317162379793167 7.117551338183503 2.4304809984904 -1 0 0
145 1 6.900670087749395 12.925699242353943 1.9149495864862756 0 -1 0
385 1 4.515858207253112 2.3537886912898256 13.917065972389292 -1 0 0
499 1 24.064352186669595 5.703424063308552 2.0070159494641966 0 0 0
1154 1 26.350090073214545 6.358573665975482 1.118731101384006 -1 1 0
1109 1 26.88007844741111 5.808177618178042 3.1768804398551453 0 1 0
1990 1 24.011725938620614 8.449498295682151 2.869132943345371 -1 1 1
1194 1 0.049402899088498486 8.220741101368949 4.538130691051432 0 1 0
1601 1 25.91431420587778 7.919380368203889 4.2775149069809855 -1 0 0
522 1 25.97721949038965 8.79684335987929 0.7325495895719057 -1 -1 0
1003 1 23.781918452223806 7.630012068259967 0.7305724242404963 -1 0 1
676 1 0.7198744849232588 4.637711801115866 4.044400134567502 0 0 0
1416 1 24.05449557255467 6.777904114987263 4.288616908107743 -1 0 0
583 1 25.116352230466553 11.045736764556151 4.709843697155546 0 -1 0
1551 1 0.09725923065073402 9.703688294172744 0.9047338960981878 0 -1 0
97 1 1.912249722366359 11.20982031344186 1.1339697416409766 0 0 0
373 1 5.379690909672171 0.5868705890304977 11.047334733127194 0 0 0
830 1 22.022978552647658 8.672180694836483 13.467907899580823 0 0 0
1005 1 27.618619543764943 11.75147754735825 2.2724032480765017 0 -1 1
1436 1 27.157909168687823 10.027370501421206 3.8679908350053678 0 1 1
81 1 1.3413567556378534 12.632489463971908 2.4259463591473596 1 -1 0
1709 1 7.346919433760772 8.93717970858629 1.0362707402796145 0 1 0
1527 1 3.0583201415510404 10.530425266307182 3.152271926734285 0 0 0
493 1 3.4566180820375654 12.592120816734747 3.527391566732733 1 0 0
51 1 5.514667261850505 13.572046682758947 0.16894612298447906 1 -1 1
1778 1 6.456030064748593 10.980259361577529 0.6507179676669628 1 0 0
1956 1 7.055796807004729 11.019286952465606 2.841096111887957 0 0 0
1347 1 5.528237910419748 12.79569016846585 3.7280078819604543 0 1 0
249 1 4.58021488139282 11.6451235923636 1.8414232982772902 1 1 0
1024 1 1.473828876444279 7.426246881110166 1.1256916507937396 1 0 1
1276 1 13.370705444548637 7.408129253339343 0.6691103392413571 0 1 0
1311 1 9.047621369337236 9.278716335757974 2.401814623382547 0 0 0
350 1 20.29016218154193 9.883522720904663 13.528665185196646 0 0 0
509 1 8.693211818839018 11.10133811928756 1.4464334926181182 1 0 1
1774 1 27.553880482117734 0.9825568149636947 2.375645098150057 -1 0 1
1020 1 2.0246376149878254 3.4935273309989365 0.5464536460121361 1 1 1
1942 1 11.26377881406504 9.21805617879891 1.1622534362832388 0 0 1
1012 1 22.141010242547914 0.47609191968197484 9.535163321269225 0 1 1
229 1 10.861335041147235 11.936236097543548 1.7368054116516576 0 1 0
545 1 24.43627549517698 11.955495414707766 12.514898502601602 -1 -1 0
1928 1 13.61447850628115 9.574100501586685 1.728245064972228 -1 1 0
665 1 13.627947494967032 13.261338543302461 0.83945342621065 0 -1 0
1422 1 14.592344654144167 11.818652009874999 4.430765844488712 0 0 0
155 1 15.490360391906176 10.429418881488614 2.718939918149959 0 -1 0
1698 1 13.20846603214595 11.564137988903331 2.3143134918458257 0 0 0
101 1 15.78546209772569 10.151637691464057 5.563937472728069 -1 0 0
338 1 16.683686062429203 13.472237090010605 4.898754830767416 1 0 0
1536 1 12.189634597782206 13.911421483047317 11.720278654773585 1 1 0
964 1 15.292815613184658 12.950194910564383 2.881242244994075 -1 0 0
120 1 17.29163469923656 11.01221804857925 4.252331937644935 0 0 0
283 1 18.16838048828113 12.951589595636941 2.7128009712640964 0 0 0
207 1 21.679830989469615 12.355565939969262 4.648392859745928 0 1 0
1333 1 22.09318790541903 13.630536454413065 8.419767021462125 0 0 -1
1453 1 19.605676296545575 13.355946393708233 4.566854958385753 0 0 0
1635 1 9.256365952822849 14.12203524441126 2.245607438491517 0 1 1
1572 1 22.620249324406892 2.5464465686369633 11.769656564379082 -1 0 1
185 1 21.37068076498926 10.229967883634762 3.9270273968562592 0 0 0
475 1 19.850042109532744 10.83382176585268 2.2614498603469118 0 0 0
1174 1 23.37536129073952 10.842145488992406 3.2017810748453264 0 1 0
1730 1 20.126174542094198 13.558296927239256 1.381037440603424 0 1 0
596 1 17.199268957709975 11.751688984710672 11.837632158320467 0 1 0
485 1 27.633040712551484 0.6395329134048001 8.588405215114852 -1 0 0
175 1 18.079347239623786 13.884179578176482 0.5873513109789773 0 -1 0
690 1 27.503091678870582 13.88843720021147 1.7835895336777428 0 0 1
1105 1 7.606011925822046 1.0797442111114794 5.279162888805293 1 1 -1
1030 1 25.57160506302764 10.463538196047889 2.3493457131367705 -1 1 -1
438 1 23.666925193310803 13.09366207004807 3.9874482122762767 0 0 0
589 1 24.35725588865884 12.114079318196037 1.3567550538010988 0 0 1
1503 1 25.75517535938335 12.67535223465882 3.5022283407967896 0 1 1
901 1 2.5911069545300482 4.236911126235309 7.058769042735797 0 0 0
933 1 0.3787372273817253 3.3386974849992006 6.067292322717966 0 1 1
1442 1 0.2239048193263343 5.099775609809904 7.471697198432511 0 0 0
1711 1 3.9535133239343216 5.7313637655658525 8.590536149465565 1 0 1
1720 1 0.1593819603192614 2.940427534029178 8.599503770853575 1 0 1
1854 1 2.7277179598675207 4.564410130423341 4.526533187654282 1 0 1
291 1 2.34218460640567 2.1048508809551785 7.569441867305333 0 0 0
1079 1 13.385132360982704 13.830743614763225 4.549717197888386 0 0 0
1531 1 7.069113567026325 2.2056773369697247 7.533754851655145 1 0 0
1065 1 12.798283512841007 4.051005862303533 13.978745902475444 0 0 0
1202 1 4.964114243057275 2.683958068332745 7.338147292280489 0 1 0
1257 1 4.52107622687795 4.567301111308954 5.763987099823573 1 0 0
730 1 8.95778631672948 3.2184189290744682 4.971471767472368 1 -1 1
837 1 6.810113492894072 3.241009358741991 5.308754679437292 0 -1 1
70 1 2.8508384325986866 6.443093096100606 6.014110376621649 1 0 0
237 1 5.731941773480818 0.32980450104741466 7.151081863693147 0 0 -1
1690 1 7.79445944965353 5.693216045412026 5.626599877134144 1 1 1
1964 1 11.093890216964185 3.742813277748252 4.868316296728845 0 1 1
323 1 8.738357679429951 4.17577202786374 6.960754533281692 -1 0 1
523 1 8.729700765426804 2.382065463151077 8.821270137246168 0 0 1
1156 1 10.264567883467455 1.2090783017274493 4.514993981699622 0 0 0
551 1 11.57755830571646 0.735675469307314 7.985700930290923 -1 0 0
1751 1 23.996369887569927 0.02921083117505674 6.245440042722248 -1 1 0
987 1 9.510837659348924 2.215095954378018 6.970620196957235 0 0 1
1367 1 23.85965142234712 0.5224480633332498 0.28018206651648914 0 0 0
1788 1 15.91942847067191 0.2889884356030268 6.892523154035695 0 1 0
1559 1 12.364351186340663 2.9594318177655277 7.544767476255062 0 1 1
1141 1 15.071145200096504 2.4185158620753815 7.311013350300162 0 1 0
4 1 23.80930364698792 0.43071342007533325 3.776579234522481 -1 1 0
1632 1 12.48740341352769 0.668859434575407 5.929878242249677 0 1 1
286 1 11.34324354198584 2.0300438520435264 9.917772160256925 0 -1 0
258 1 16.49146175166897 3.7906607240655434 6.0137463297367795 -1 0 1
109 1 25.047729281402184 2.278265275829462 0.4502387637098583 0 0 0
538 1 22.168091353233017 0.8344111345483403 5.318392385479467 0 0 0
1880 1 20.081445880233325 0.2978104641220951 5.117128125135265 0 1 1
1 1 16.127735176057662 4.312084187176012 8.906595583035342 -1 0 -1
1986 1 14.885075082819423 0.6323769621763204 11.409133619665308 0 0 0
1588 1 16.07817305507401 2.170672254500144 10.014036901717189 0 0 1
599 1 16.997693842202246 2.0959215738492603 7.950821867403758 0 0 0
858 1 18.544849777511843 4.339895840785241 5.147159734010404 1 0 1
1348 1 20.231183451009542 2.2854038134363956 8.91466215860738 -1 2 0
1777 1 24.446176819474275 2.657815468042124 5.218821570222887 0 1 1
1950 1 18.31435136403747 1.9758866046901387 6.122981095489912 1 2 1
1898 1 23.44271412396482 1.8233324906228305 9.380932238313783 0 1 -1
2015 1 22.195350749106467 3.8786352606840095 5.546009687210296 1 1 1
828 1 24.558659452058308 2.814402851169441 7.477014794895126 0 0 1
1772 1 22.47055020329266 2.7796002058460956 7.344797655799968 -1 1 0
1676 1 25.96709605757323 5.731420030974622 5.226522699919078 0 0 1
60 1 9.4480154642241 8.485779689596896 0.1538456973282477 0 0 0
354 1 26.90704871001062 3.619341780378331 4.5586140516841365 -1 0 0
1586 1 26.275639544665147 4.198406185617045 6.779693490599125 -1 0 1
1592 1 28.28114402105487 5.203800771716263 9.710665670785197 -1 0 0
125 1 26.617410184300972 1.830889986214988 6.464743455703187 0 0 -1
563 1 0.20759173586060933 6.154746593935474 5.546794992526397 0 0 0
786 1 24.5614865873808 4.366696950333872 9.113314269829914 0 0 1
935 1 15.351178697355683 0.16941582669457475 0.7877172684954945 -1 0 0
2026 1 26.540154849062716 3.2649634437445716 9.500862107975404 -1 2 0
1392 1 4.514662801486925 8.119859808220761 4.468293053170781 0 0 0
348 1 1.8666158411444131 6.2903841012126 7.939201546729851 0 0 0
1786 1 27.895404666337562 9.479554262470979 8.019483382436063 0 1 1
64 1 1.3019317577623322 8.556231256537222 9.72167069313997 1 0 0
1408 1 3.4004773363987804 7.906910978652848 8.888027299144 1 1 0
1560 1 26.543957592193046 9.455180780782706 6.0942526342789 -1 0 1
1108 1 26.770310011291336 7.251500433676478 6.652999166800768 -1 0 0
1383 1 0.6806424971116055 7.841495748975372 6.815128678955719 0 1 0
1869 1 5.060470142232364 6.720008419248429 7.017060863467407 0 1 1
251 1 6.497662785266933 5.649337528288126 3.8801818653729 1 1 0
2033 1 3.0782891141468314 9.027801528601792 7.271793095345165 0 1 1
1139 1 6.486809372630477 7.586773162100518 5.700247275142692 0 1 0
1866 1 7.544992287955679 6.850046616276401 8.040291011956288 0 1 1
143 1 5.068233678341466 10.511887443757752 3.7450546058071383 0 -1 0
232 1 6.207925551061459 4.660138289131662 7.080261712139215 0 0 -1
1035 1 9.624571793404701 5.361374155841095 3.36469526496126 0 0 0
37 1 12.90067364147751 5.909130361946292 6.015346792968724 -1 0 0
68 1 8.669427629333216 7.621280052033537 4.863446912550034 0 1 0
452 1 9.940618583154661 6.238271223660556 8.191885421491547 -1 0 0
1123 1 9.310342896710694 9.915854354504871 4.9156470507082055 0 0 0
539 1 8.739363872670783 7.048990407544991 10.291011778837959 1 0 1
154 1 11.581910455563238 7.668149015718451 6.935673930850398 1 0 0
1235 1 11.187464014047965 4.741334371517794 7.14019462255283 1 0 0
1848 1 10.744834153242644 8.100453868125957 9.171201184245996 1 0 0
615 1 15.698047370758093 8.244122136324313 4.598420665146339 -1 0 1
1618 1 15.14946066491164 6.177411203927306 5.62819816554444 0 1 0
1330 1 14.092160573239326 7.755361117806568 7.065228054733201 0 0 1
1581 1 14.080382659053054 4.646787745530381 7.136745303832402 0 0 0
938 1 16.22504426531389 8.026319646254743 6.838884830741225 0 1 1
1059 1 13.24537033729736 4.066666582238486 9.596155305203071 0 1 0
1640 1 15.90514666786961 5.098356138598882 4.04408420209396 0 0 0
420 1 14.807299179062047 6.297752224404709 8.525979075067925 -1 0 0
219 1 20.66931685047325 2.4818496599611084 6.251628173864894 -1 0 0
228 1 17.758112952034587 5.240404974015578 2.239530820130126 -1 1 0
1893 1 19.906152066031005 5.760726056991632 5.758078398339225 -1 1 0
118 1 20.842589112516897 10.57441358453443 7.105863854716737 0 0 0
731 1 16.74812909815276 5.697549020834473 7.129171722200539 1 0 0
1562 1 18.460860282585912 7.646882650137245 6.7548811216688165 1 1 0
760 1 17.588423151045674 5.97008728421383 9.85393116790725 0 0 0
1076 1 19.032538027343627 7.464249105763252 10.417187470140023 0 0 0
62 1 19.681370014489808 7.348563232611677 4.052629365144781 0 -1 0
369 1 18.81710938755571 4.102945248905691 7.579532491654858 -1 0 0
1533 1 20.16659018331987 8.793123852511318 5.671839869243974 0 0 0
1851 1 22.888633648461322 5.334999433101729 8.283373526810072 0 0 1
401 1 20.93659142581602 4.4788128914306995 7.612148824542373 0 0 0
1984 1 22.138413204817795 8.539737839270748 6.675280257165307 0 1 0
239 1 22.116119976612545 7.948740309217847 4.2844992751637685 0 0 0
1882 1 20.227193392730037 8.441787433568432 8.356158349498887 0 1 0
578 1 24.3067085206377 7.039958062643468 6.914178897686693 -1 0 0
2011 1 26.399891205709366 6.225195771824127 10.569093210696222 0 0 1
704 1 26.525957040320087 10.942411951224791 9.004744586707881 0 0 1
269 1 24.118405947675853 4.720856586360395 6.609873139415345 -1 0 0
595 1 24.07983002487387 9.094410392702835 7.914932230639889 0 1 0
1992 1 25.82536244267873 6.331930080695146 8.210462479794083 0 1 1
236 1 21.6203015882678 6.407475773007724 6.421201679770831 -1 0 1
1847 1 24.374868063334432 8.9580245752548 5.610972036769561 0 0 1
406 1 26.00519560536671 8.37477871241476 8.75267978969394 0 -1 0
1499 1 26.461095427306525 0.6229141691371667 0.4677743982916984 0 1 1
2040 1 2.678564258608474 10.60140559691609 5.530966737776568 1 0 1
754 1 0.39256796747816336 10.195505763820279 5.886987638050678 1 0 -1
1037 1 1.4856183446891031 10.160644427495082 8.039707510727512 1 0 0
340 1 2.371381741275315 12.601117462916307 7.176531045366876 0 1 0
435 1 0.7742077988264632 10.801899635888354 3.6930952903314043 1 0 0
1681 1 1.828757298801917 12.675924910193327 5.003972848054125 1 0 1
1525 1 25.24212414379319 9.726503323208568 13.812724882860866 0 1 0
1691 1 6.870611324912936 11.745915936974455 5.042302929057657 1 0 1
480 1 6.785735631216225 9.770348046304212 4.965668455951998 0 0 1
312 1 4.752764109426165 13.202149106960155 7.816504595864107 0 -1 1
806 1 5.042383387748897 10.337352154690732 6.376108773152787 0 0 1
1321 1 5.29048041641337 8.7358146672407 8.109121694440232 0 0 1
1417 1 4.009467523849359 11.155383575970829 8.463542835220846 0 0 0
368 1 6.391345673543408 12.749704441558285 9.710082482697336 1 0 1
876 1 9.02176831588601 11.727292458636866 3.807707131794301 0 0 1
1631 1 10.921248014115463 9.853206351456683 3.1000076703029387 1 0 0
201 1 7.394399457166314 9.203568508720966 7.568328950381011 0 0 -1
1466 1 10.288867921847071 12.02895933109964 5.67062920216483 0 1 1
331 1 9.406002066387597 8.43140266202739 6.701595092827001 0 0 0
1748 1 8.576657984821319 11.057380158903243 6.793286717025778 0 1 0
1619 1 6.6178442841508405 11.897320778010767 7.116968877570791 0 0 0
623 1 15.109619218945907 12.044814341251378 6.529397881631672 0 0 0
1222 1 13.212076604450575 10.08323587475876 4.12677121897037 -1 0 -1
301 1 15.490229236608767 13.34846094777484 8.45694821330852 0 0 0
1342 1 15.134578345512029 10.77433199698375 0.4712814649210674 0 1 0
776 1 13.800802810821102 9.702128993286292 6.49538528498171 -1 0 0
462 1 11.63218452127869 9.477400453290008 5.6362523324735205 0 0 0
1734 1 15.131849791759656 8.865699665519598 9.111388233461376 0 1 1
569 1 9.741163435086689 0.22776230543150566 9.179103743264596 1 0 0
417 1 11.776759901954255 12.764967238771971 8.366116008135636 1 0 1
560 1 12.424750319027646 11.677251367568344 6.099173930427734 0 0 0
801 1 16.165370451501715 10.42359277800611 8.082810111966939 0 0 1
1290 1 17.112173431785322 7.990547954132301 2.9950629205188237 0 0 0
624 1 17.814985862999336 10.67769928356479 9.757733203595548 0 0 0
1566 1 17.80869911846709 12.40753523800594 8.442822499490344 0 0 0
998 1 17.91157347455259 8.76913754331571 4.974540149506731 -1 0 0
1447 1 18.183699779387993 10.130133268276449 7.500884663858902 -1 0 0
1424 1 17.869391270225144 12.05877057698712 6.360921347216366 -1 0 -1
1661 1 16.006910294256656 12.959364814708174 10.636364575041176 0 0 0
392 1 24.325541577187686 9.920608768508556 10.351163196049924 0 0 0
1180 1 22.30602334213119 11.71642938812231 10.595835312357892 0 0 0
862 1 23.16493392588039 10.548183526748447 5.670294241433929 0 0 0
1530 1 21.54404938102072 10.238208833500762 9.117541396979515 0 1 0
1446 1 22.764663312784087 12.590133273374226 6.480694486645691 0 0 0
193 1 20.66382583924419 13.06978239434869 6.63770965924146 -1 0 0
23 1 21.116145544583574 3.193553917963834 1.0471355620072504 0 0 1
1994 1 28.261555136703734 0.6041437616646592 13.437063735470849 -1 1 0
159 1 27.370930086388213 12.524872861189218 5.270049519151427 0 -1 0
1672 1 25.01158411957603 11.188201405436992 6.99163927554317 -1 0 0
281 1 25.156290916816722 13.487608451364947 5.72879024027222 0 0 -1
1386 1 11.459640784330498 14.01629098404631 6.332641400278728 0 1 0
191 1 23.55295809169794 11.50923210681195 8.633520311559792 0 -1 0
1491 1 28.268059795761282 11.65849854109696 7.414478134083665 -1 0 0
977 1 3.249552865108285 3.3800019938724657 12.191097389348101 0 1 0
180 1 0.11990734088271686 2.297929559922897 10.636427235719736 1 0 0
1509 1 8.273404081406465 6.460757387123584 13.017253409649998 0 1 0
296 1 2.490624344081985 4.032679942987272 9.219018567266929 1 0 0
297 1 16.603811561697796 11.571630168301196 13.935076023171899 -1 0 0
1620 1 0.6822342688415168 3.135573880762994 12.675286782726733 0 1 0
845 1 2.246729997624654 2.035949770021714 10.319826778075267 0 0 1
556 1 3.6437115459041047 4.835065255519595 0.04894384614824861 0 0 0
739 1 12.250591026831481 13.998214847260662 2.37529648270482 0 -1 0
1569 1 24.092927536410116 9.871110842313463 0.39000274050191197 -1 0 0
474 1 6.509305628445017 1.931913390027401 9.621449301953033 0 -1 0
396 1 4.153158375668278 0.7834650835571961 9.147168024921339 0 0 0
178 1 7.795704530923402 3.209497474457069 11.294806859333745 0 1 0
604 1 7.104704412797354 4.5042813396965995 13.445230518805825 0 0 1
277 1 3.8370066600891004 1.1586547484435314 11.956118085455644 0 0 0
1214 1 5.476609532373904 3.79542140445475 12.08432738263035 1 0 0
1473 1 22.499675748902483 13.873027893781417 0.37471734564837983 -1 0 0
553 1 0.4398920895848328 12.8551613392506 11.477626188376002 0 0 0
294 1 7.629436530348876 13.718644504058123 11.64991755521898 0 0 0
722 1 8.297550708522289 0.9734501058231404 11.391520301926858 0 0 0
443 1 8.094988850589196 4.655542498420066 9.007784929771084 0 0 0
1050 1 9.558195353830738 3.7042348900647046 13.641509989856678 1 1 0
524 1 21.56358384500659 9.271204100986811 11.292811161316298 0 0 1
83 1 4.178404222172724 13.000659152390726 5.6707348030232305 0 0 0
892 1 26.554885357950155 13.21814501882142 11.782601549139121 -1 0 0
292 1 13.505892892686854 1.791852330387126 9.998591767590916 -1 0 0
1001 1 12.596095294838785 1.3735504705775072 12.486326665675021 0 0 1
434 1 14.001069150731343 3.07575690126511 11.872401036403282 0 0 1
1312 1 0.9850503958001918 0.9390758617217303 6.50973475896478 1 1 0
1489 1 9.81401495323499 2.4138104912101412 11.231641144709586 0 0 0
1133 1 20.87336142810853 1.4491478890109293 13.083501937696724 -1 1 -1
505 1 18.477998593532803 2.1997640787423167 11.625446902297465 0 0 -1
841 1 25.312192501023887 12.276736284231285 9.954920359058587 -1 0 0
153 1 11.027476140456345 9.828100697317229 13.093870509186495 0 -2 -1
1107 1 16.122894934632832 2.2861561065775726 12.508037580027356 0 1 -1
869 1 17.5495871656153 4.283933851177201 11.742552401119505 0 1 0
1969 1 18.1396699788839 3.4088756534228355 9.687111521806795 0 0 0
1662 1 16.164255592877076 9.49559330725533 10.868823856573771 0 1 0
1865 1 24.107726249067078 1.2064844089370288 13.025694032096974 0 1 0
840 1 20.269229623125668 1.1318612923234173 10.968904639462101 0 0 1
1934 1 20.470283885736066 3.208990502982086 11.408596222238483 0 1 0
1495 1 26.834398582735275 4.93486478494428 13.472761465835475 -1 1 0
1615 1 21.778612028426032 3.9586385874326515 13.07581461499793 0 0 0
1125 1 24.854887221850767 3.3098776413212 11.130316967029374 -1 1 0
606 1 19.970564306428713 4.569825093241173 9.689816264833368 -1 0 0
459 1 7.920542466123211 0.19004517126809184 7.449712981459203 -1 0 0
534 1 21.85330504127812 5.865545534956393 0.29853273878189074 -1 0 1
668 1 1.33940229176004 4.558983867952467 11.287872639443718 0 0 0
1461 1 27.276787688020057 3.951806242900525 11.653871316114335 -1 0 1
725 1 24.70138806362909 3.8766807850287828 12.978533603110723 -1 0 1
1134 1 26.32946326215555 1.7502110616855244 12.575796111505007 0 1 0
882 1 1.2582387839666043 0.16816340961404191 2.045691634259045 0 1 1
1879 1 16.283330705983026 12.453675474162223 1.0664813679920007 0 0 0
611 1 3.138616619777112 9.144821899049063 0.33434811937608966 0 1 0
839 1 2.4561766284620457 5.861997891935822 12.533376843028057 0 0 0
1041 1 3.9476362185336735 5.487092800206813 10.87217651009003 0 0 0
486 1 28.182847298551252 7.07149106076284 8.833485811381273 -1 0 0
1403 1 4.484833941867791 2.7284415601558454 10.26037937641507 1 1 0
751 1 1.622666649915706 6.59897699962945 10.269045266656864 1 1 0
1474 1 1.1261974572002975 7.51104079080299 13.081259814137889 0 1 0
436 1 27.888309807125417 6.375967364912254 12.253375596148446 -1 0 0
994 1 3.696625798648368 7.7111127599945775 11.609921809659975 0 -1 0
163 1 18.35413378610115 9.96690140195858 12.176205549141283 -1 0 -1
158 1 6.2934802952494335 9.999539129395336 12.80623649479779 0 -1 -1
1200 1 4.509248144158672 5.646375046562042 13.126997914849683 0 1 0
1781 1 5.924408396990632 3.9966009546260235 9.104624268576305 1 1 0
757 1 5.934177581740855 6.947865461175003 9.748106347088951 1 0 1
1396 1 6.853568619023892 5.237637248665159 11.258097977689165 0 1 0
1216 1 7.187429417514159 8.968563794597756 10.698897148813495 0 1 0
1687 1 6.330034002725711 7.610095620860709 12.597940776402181 0 1 0
993 1 8.266009510375358 8.808352186760256 12.663407593736439 0 0 0
1353 1 4.992158748766689 9.364292168276785 10.23926193033812 0 0 0
764 1 0.3771239677948457 12.618757720495319 0.4657889080600928 1 0 0
1599 1 11.091691300386826 4.1901254677325905 9.35512261999358 1 0 0
100 1 9.485717458160781 4.74614534390258 11.103556942480402 0 0 0
1864 1 11.858897341072588 3.306847849029438 11.86381336944743 -1 1 1
609 1 10.106084885600662 8.0087875348312 13.928739294841423 0 1 0
1648 1 10.512169379996005 7.918820576793954 11.682987051685872 0 1 0
567 1 12.224353924575965 7.343827832986132 12.980799219506258 0 -1 -1
1361 1 10.65989732731026 5.6782707738685865 12.942673402189225 0 1 1
1910 1 13.524724615589482 5.73378301017347 11.490388578564165 0 1 0
558 1 25.70091088570586 1.0031208033017072 8.419932784205459 0 1 0
248 1 12.295025162849237 6.2809674399239315 8.474429311996097 0 1 0
1026 1 14.357028362360644 8.390773298958738 11.932600288050507 -1 0 0
388 1 11.321340129938857 5.773673675163446 10.957977520548733 0 0 0
1282 1 1.6429904225150807 0.12087153593474105 8.94575647302195 0 1 0
1210 1 21.15023086260583 6.447510455958936 9.899637631062674 0 0 0
279 1 19.580642337475467 3.698275321462094 13.288551098127103 0 0 0
1998 1 15.469380867465016 4.611463616060527 13.30930606591179 0 0 0
1855 1 15.424191883545273 4.603790701692273 10.918957419897287 1 0 1
424 1 17.92198342169771 5.706442152276839 13.05752288120554 -1 0 -1
2 1 15.651320804638626 6.970828058713583 10.5261437292762 -1 -1 -1
789 1 19.490944826530054 5.536756725802982 11.30394157385217 0 0 0
106 1 14.78163577568771 1.1228757586771954 13.824431250575241 0 0 -1
1332 1 22.29042942208617 8.104221461286391 8.920092358151106 0 1 0
1004 1 24.103114707208434 6.968712071013753 9.822291840576591 -1 0 1
146 1 22.253428735361524 3.825335703129921 9.653204252718298 0 1 0
1680 1 20.042885083995465 7.923647038457438 12.599463346176002 0 0 0