LAMMPS data file via write_data, version 29 Oct 2020, timestep = 300000

2048 atoms
1 atom types

0.2005126479059136 28.151487352094033 xlo xhi
0.2005126479059136 28.151487352094033 ylo yhi
0.2005126479059136 28.151487352094033 zlo zhi

Masses

1 58.933

Atoms # atomic

35 1 1.8925028121653862 4.082188158708574 2.189264546331507 0 0 0
130 1 1.4282196203222413 2.3125843686950667 3.4773285665723965 0 0 0
165 1 3.53324698004104 3.535744119104099 3.71391143003594 0 0 0
8 1 3.5609383131386414 2.165081208719317 2.0989257411001976 0 0 0
404 1 15.712255685707026 0.3511236912531068 11.81878351081647 0 0 0
71 1 3.7363037454073478 5.253334164955745 2.210035229634425 0 0 0
38 1 5.031082042936076 5.886525661302036 0.6037439935264799 0 0 0
1165 1 12.367661698536539 13.851190303630098 2.3224215833153226 0 0 0
12 1 7.108273278187658 1.973637847500784 2.0797081715914016 0 0 0
134 1 5.073077087997132 1.683576542066738 3.9854578560681966 0 0 0
169 1 7.303849827180781 3.831399889037702 3.7684846485464365 0 0 0
37 1 5.352449571347037 3.5706966027994005 1.91318449676631 0 0 0
530 1 16.104702137799592 1.7231743395166088 13.472941775724518 0 0 0
138 1 8.519981187720074 1.964541167365311 3.9796430316882074 0 0 0
43 1 8.742865311479388 3.579690040286737 1.938574885568124 0 0 0
16 1 10.200986268580362 2.06632741729321 1.9694181935395323 0 0 0
173 1 9.9710083052772 3.523603483008378 3.9697732589183787 0 0 0
999 1 7.462350085711528 10.318552457523673 0.25877268460788316 0 0 1
1303 1 19.59025354067522 14.092566065814935 9.127509516735048 0 0 0
142 1 12.055981667105064 2.2411860238855725 3.534868297023528 0 0 0
47 1 11.838059861920867 3.956607741512447 2.0522217097458477 0 0 0
20 1 13.862622638641152 2.4505665336226885 2.0556847981592647 0 0 0
177 1 14.25098688380322 3.5514192331533208 3.7751996590102497 0 0 0
146 1 16.152646253182148 2.1227594838960253 3.449814416873455 0 0 0
51 1 16.11956657112099 3.9699707326305878 2.100480838273667 0 0 0
24 1 17.65040728495306 2.15921663513683 1.6651377527328197 0 0 0
181 1 17.994584943770047 4.189840322946006 3.6220524732155988 0 0 0
57 1 19.60005520784911 3.852976222943892 2.0510438616302946 0 0 0
55 1 19.599224555021532 2.031520338252257 3.7922715922599064 0 0 0
422 1 3.1225027436187083 6.577345609440972 13.88640301889837 0 0 0
9 1 7.007087587312828 0.22012527188166686 0.395123303299453 0 0 0
2 1 3.553903960169268 3.847914190800763 0.29781963951056845 0 0 0
28 1 21.080431286208622 2.0799461893816984 2.1145290542310198 0 0 0
59 1 22.758354607485938 3.430180351784446 1.9075530185665341 0 0 0
185 1 21.34947032245696 3.7640391022336352 3.678545311603022 0 0 0
189 1 22.825949942446208 1.6756295124733993 3.818526380005237 0 0 0
95 1 28.099527825100797 7.588594989933786 0.25876820594949684 0 0 0
565 1 17.202046125829412 3.685862911992933 14.12265949018086 0 0 0
133 1 3.0749882720676616 0.6140289267824475 3.552992830419852 0 0 0
399 1 12.626657499269559 0.30623247308878376 12.15834125317885 0 0 0
36 1 27.78325746360595 4.2691118850298615 3.6283120433451845 -1 0 0
4 1 27.59636053377522 1.9069843627085716 2.1347677582000024 -1 0 0
45 1 10.291578168781857 3.702796244149229 0.21367958253214914 0 0 0
32 1 24.6454559581853 2.200224168068376 1.9125195294152166 0 0 0
64 1 24.46615462541552 4.429372542151149 3.4906656839380115 0 0 0
63 1 26.294208824941308 4.285531879794714 2.090465662714442 0 0 0
158 1 26.19830499318482 2.411560719779628 3.5041624114598284 0 0 0
23 1 19.591967032827437 0.28660518422124936 2.0363913038690327 0 0 0
66 1 1.796569623523796 9.270042407714529 0.7058745832449815 0 0 0
90 1 22.651259151840243 8.900085331128448 0.43354804007830955 0 0 0
113 1 13.842573417796206 10.639104084412676 0.2766974423469504 0 0 0
162 1 1.4874091162834688 6.028241615244906 3.5883062441052354 0 0 0
69 1 2.1625924599238138 7.619337738971456 1.9815090558177004 0 0 0
194 1 2.029451673361204 9.285477334723915 4.127172990592957 0 0 0
197 1 3.85679338571845 7.565710751580357 3.715710238208229 0 0 0
72 1 3.8924157599879603 9.055147227008902 2.1580146030655434 0 0 0
68 1 0.3065362954762487 9.27700245240152 2.347210225444642 0 0 0
915 1 15.781503804549555 2.433167947643536 0.43648736829622514 0 0 1
67 1 0.2478663184914202 5.732409560802411 1.7662342992115077 0 0 0
15 1 12.244513711871777 0.36339619988026073 2.102576705043319 0 0 0
996 1 26.37651250636417 11.916333113573435 0.538757910127567 -1 0 1
44 1 7.155716989549674 5.545057113745982 1.7663919880928425 0 0 0
39 1 5.274014859856847 5.386321337721932 4.198764043925827 0 0 0
201 1 6.979142379880671 7.251741135478207 4.144665101243882 0 0 0
73 1 5.47567531700156 7.342618475137539 2.2090220112169088 0 0 0
198 1 5.324967267180002 9.003123645290437 3.8019652549725813 0 0 0
76 1 7.115585835031109 8.879117591188807 2.4135688663943244 0 0 0
141 1 10.366190557441561 0.2456211368988648 3.4372459075033666 0 0 0
170 1 8.66926741678143 5.495978384776445 4.42643766084311 0 0 0
202 1 8.824748806851455 8.945843323697437 4.045653652835493 0 0 0
48 1 10.132022213723912 5.665146767462948 2.3127149719 0 0 0
75 1 8.653560398650447 7.086368202477594 2.559580697835644 0 0 0
205 1 10.495310586733957 7.050984575900485 3.8489021867953097 0 0 0
80 1 10.459521638814191 8.490896346071674 2.2363139445767195 0 0 0
81 1 14.313928364227575 6.922095041449522 0.25622373136269916 0 0 0
206 1 12.520707915293661 8.558958757629725 3.9212764061415033 0 0 0
79 1 12.34050155618104 6.7560811577502715 2.0168646864693507 0 0 0
174 1 12.607748380967786 5.145788079169528 3.9276926377827492 0 0 0
52 1 13.819037649557893 5.302210221866138 2.0311706772338267 0 0 0
84 1 14.352019733105774 8.845058725053729 2.056619870125785 0 0 0
209 1 14.40135008642279 7.424553017469623 3.622042887163077 0 0 0
210 1 15.98512327754493 9.11278755771805 4.25451268046837 0 0 0
83 1 15.971359186909293 7.248014420371834 1.9711290441932274 0 0 0
178 1 15.728296087352225 5.218750453303973 3.517710636239592 0 0 0
182 1 19.893155054318143 5.717425216056239 3.7975926652874374 0 0 0
56 1 17.612976944554845 5.378226807091729 1.593792059594188 0 0 0
87 1 18.820574003269115 6.995765824391928 2.092773475918266 0 0 0
213 1 17.61584722733865 7.0004439398604195 3.84743211974771 0 0 0
214 1 18.96433128069559 9.154033365361947 3.519889269071049 0 0 0
88 1 16.890475862592787 9.425278882704282 2.1783037448681473 0 0 0
118 1 19.448371842317783 12.708699944637274 0.22783950663789054 0 0 0
271 1 12.06726215425603 0.23413989307695082 8.681322039251748 0 0 0
60 1 21.204839955620642 5.728365547456221 1.8504850228578267 0 0 0
186 1 22.73815936181445 5.778084375094344 3.84311844138126 0 0 0
91 1 22.93480051287614 7.356370029881071 1.8382923728029041 0 0 0
217 1 20.868993559820222 7.67954358546078 3.8294555885240635 0 0 0
218 1 22.749353396348734 8.998661570906052 3.7557269389454424 0 0 0
92 1 21.024575029015168 8.905688744688568 2.00595036997375 0 0 0
613 1 3.429274197582971 10.81474234888362 13.750070041994167 0 0 0
193 1 0.2882529374517825 7.865022529629737 3.7817040678113756 0 0 0
221 1 24.48725377332036 7.473224197563596 3.7257728065983677 0 0 0
190 1 26.34130096598625 6.035832986058314 3.6470832131459416 0 0 0
93 1 26.349818767980484 7.448608819792291 1.623783068045309 0 0 0
62 1 24.65861591185875 5.983390060147995 1.8396056534801337 0 0 0
222 1 26.362831286616306 8.94215950756192 4.052932112303247 0 0 0
96 1 24.438810268676733 9.016186126317091 2.1853313665976155 0 0 0
601 1 20.95954337408432 7.208121417866072 14.11944127399142 0 0 0
101 1 3.72133077122028 10.828251939970318 0.4727164543338067 0 0 0
405 1 17.786536227252732 0.2565517842486429 10.641030404871623 0 0 0
99 1 2.1259349859835286 10.972631809539614 2.1492272786165447 0 0 0
226 1 1.9695746915929202 12.497663318692732 3.9235541534831304 0 0 0
104 1 3.944156263852571 12.849263309206805 2.1968645512108704 0 0 0
229 1 3.6414790275918927 10.828476864354718 3.7949176635860007 0 0 0
225 1 28.005300309453162 10.995738197399884 3.965434544792289 -1 0 0
149 1 17.72261349214109 0.3054855817927067 3.65357508515015 0 0 0
103 1 5.477180510634334 10.832635259227093 1.8862716784844191 0 0 0
108 1 7.280940613028494 11.926871636529127 1.7857436852165538 0 0 0
230 1 5.925855392183283 12.686937482782179 4.0396438601536095 0 0 0
233 1 7.017819713201047 10.699379571391876 3.9028021249762883 0 0 0
77 1 10.621128492592392 7.106495470881242 0.2777480985489401 0 0 0
1041 1 13.93739412273745 13.796505549199223 0.30848526670426757 0 0 0
227 1 5.3110936843678545 10.858135892879218 5.747896021201466 0 0 0
234 1 9.1729802748817 12.23260730082579 3.7370705946472382 0 0 0
107 1 9.057890123252676 10.349722618481021 2.0459549520129916 0 0 0
112 1 10.791184264436813 12.464988983864561 2.1381169669646765 0 0 0
237 1 10.785079404417056 10.393997371090942 3.919030044534172 0 0 0
111 1 11.916476003643284 10.539870011090418 2.009441231279837 0 0 0
1433 1 21.347846551734587 14.029469650265392 10.643090303644264 0 0 0
446 1 26.083070321388348 5.5387253084155 13.994430362518827 0 0 0
585 1 6.675728902679643 7.000775844013746 13.89487696635989 0 0 0
238 1 12.516639149300378 11.979978122716789 3.8646586904734135 0 0 0
116 1 13.93316907117128 12.259320831379462 1.7974599223591292 0 0 0
241 1 14.621584080107985 10.828749334912267 3.644075356434088 0 0 0
115 1 16.009898325236342 11.277297764943683 1.5893153021374025 0 0 0
242 1 15.466961671538682 12.65448026304977 3.595882799155318 0 0 0
244 1 13.999624988607458 12.472980609987149 5.689889811485605 0 0 0
1439 1 27.69523158959183 12.865900365518574 12.972227876058943 0 0 0
119 1 19.025389876283995 10.838693470526286 1.9192968150760414 0 0 0
120 1 17.7046848509036 12.665532199751771 1.7467463534964474 0 0 0
245 1 17.36752961004357 11.26708756838477 3.6229540109902207 0 0 0
246 1 19.3158856076192 12.450594042673677 3.8742535941614267 0 0 0
413 1 24.614741909784055 0.35502233907572744 10.695411731860592 0 0 0
157 1 25.050092869349854 0.2773383644154528 3.301031933944098 0 0 0
963 1 2.0199921487224786 5.566880742920202 0.5787292556092525 0 0 1
541 1 24.548476128257075 0.667076431955976 13.920523005061055 0 0 0
123 1 22.481650471031546 10.87730465453123 1.8988568634457135 0 0 0
124 1 20.95242750268957 12.488756295060538 1.8507454204080782 0 0 0
249 1 21.10792603502004 11.348179116144308 3.7994659278176344 0 0 0
250 1 22.983771901422287 13.045190416065036 3.7099249062572754 0 0 0
618 1 7.236244143592861 10.75473574691693 13.824425279199728 0 0 0
19 1 16.014641865313962 0.30363451496749 2.010199901996311 0 0 0
131 1 1.61301374015614 0.49901383309249747 5.689455293717395 0 0 0
629 1 17.90744641580919 10.930072115345789 14.159041515971678 0 0 0
1156 1 27.475160922284033 12.562798128385287 2.4373138372683942 -1 0 0
128 1 24.733721416910786 12.502288883387253 1.9161671766504877 0 0 0
253 1 24.13157438211609 10.90554594011047 3.586975466484994 0 0 0
127 1 26.123221738588967 10.580862092948355 2.4499479737720455 0 0 0
254 1 25.850816510292166 12.387893182520346 3.945595151861684 0 0 0
509 1 24.994596233010963 10.924147240649983 10.63706166614529 0 0 0
106 1 8.993259015741424 12.565165859317371 0.5666894969018059 0 0 0
74 1 9.006323421403092 8.217321550616713 0.3738047916669818 0 0 0
164 1 1.8759634077604468 3.872053475592219 5.421727536762944 0 0 0
258 1 1.8343903384473486 2.144791827851466 7.311091464644885 0 0 0
136 1 3.4911351340419943 1.867658742870594 5.67560398617914 0 0 0
293 1 3.4601639858452478 3.8055235416139888 7.313107925843078 0 0 0
291 1 1.7773328345047497 3.645348422025209 8.838556778749869 0 0 0
264 1 3.5541657832747084 1.8399237429970061 8.565313096791748 0 0 0
260 1 28.123755311878277 1.8941212277394934 8.683335106531462 -1 0 0
289 1 27.767886238932515 3.810332499787035 7.07262817307576 -1 0 0
94 1 26.704749197365324 9.496931908550991 0.30442430659392883 0 0 0
143 1 12.45744738377178 0.29138671668755123 5.200059622474421 0 0 0
167 1 5.517721152957783 3.598505656027132 5.662403276731645 0 0 0
140 1 7.2331931002368135 1.5167739229481232 5.58188949778669 0 0 0
262 1 5.265679524465596 1.7099725737104472 7.076872701862497 0 0 0
297 1 7.314821100563345 3.4320437822711716 7.322848775782992 0 0 0
268 1 7.28891761882348 1.5901113717911337 8.267641199883156 0 0 0
295 1 5.4003458923307415 3.658265784476706 8.314517040288846 0 0 0
606 1 26.369900419379757 11.066096579407814 12.691878995134271 0 0 0
144 1 10.752463603340551 1.84534823821255 5.508154318484935 0 0 0
171 1 8.850348470921919 3.438486393726254 6.020475696558893 0 0 0
266 1 9.3695595066119 1.6112641867977584 7.181953121447486 0 0 0
301 1 10.79073711683579 4.122190634335949 7.206788146449565 0 0 0
272 1 10.65957809338377 2.4603498179740884 8.93048794297633 0 0 0
299 1 8.798091366387233 3.805451626559645 9.041161262155926 0 0 0
270 1 12.223550277834397 1.9958196497209806 6.99982384579264 0 0 0
511 1 26.3612465087401 13.075216221587983 10.642449351264561 0 0 0
175 1 12.269388007923336 3.535705940143048 5.369279558635091 0 0 0
303 1 12.473242487373502 4.139885292607948 8.951460217625002 0 0 0
148 1 14.376725059804631 2.2133227803056865 5.437266233291813 0 0 0
305 1 14.604480386799723 4.062448894949971 7.131562078460482 0 0 0
276 1 13.879744313334783 2.42369261698644 8.789381550132727 0 0 0
179 1 16.186940620293036 4.326269670843865 5.365004761648761 0 0 0
307 1 16.065516799160697 3.515907773953486 8.78648985639263 0 0 0
274 1 15.932656379649895 2.1013955185232005 7.0979585931087925 0 0 0
180 1 14.332830669597842 5.73461592973561 5.367694836892434 0 0 0
152 1 17.54632308683659 2.1361157706988863 5.385462711903904 0 0 0
183 1 19.18250478064789 3.489597557535625 5.671231235125134 0 0 0
278 1 19.7365865075919 1.577423653479211 7.139632446781862 0 0 0
309 1 17.77813170161283 3.556474538973939 7.328111056255517 0 0 0
280 1 17.93270295346146 1.590259215094267 8.813635439701741 0 0 0
311 1 19.36917383132156 3.919242013805599 8.949553038227565 0 0 0
1163 1 10.680740253150633 13.973077817345434 3.6411763514481894 0 0 0
187 1 22.968366188451654 3.941171498257371 5.399490258079624 0 0 0
156 1 21.501729162215288 2.288523606857466 5.330148650835958 0 0 0
282 1 22.92955998370793 2.05386304560081 7.236125259273646 0 0 0
313 1 21.0555641064313 3.52782284607631 7.078803238887452 0 0 0
315 1 22.471676163249377 3.759067845890289 8.695741448080787 0 0 0
284 1 21.22030759076012 2.081235395691973 8.655238642418215 0 0 0
1409 1 0.2758260350914483 14.065748661983271 11.107622220257955 0 0 0
132 1 27.88825127042302 2.467700860085017 5.204736321354393 -1 0 0
317 1 24.619027740644054 4.116703826238159 7.023742890341436 0 0 0
160 1 24.671534139053016 1.9969305518009839 5.289171673077424 0 0 0
288 1 24.777337132822847 2.10938778193621 8.631397116201066 0 0 0
191 1 26.08673754469279 3.9754818997690573 5.148187728663787 0 0 0
286 1 26.392915945305173 2.0468062995384937 7.043040113642939 0 0 0
319 1 26.45241636596562 4.111290303140207 8.695999080760098 0 0 0
34 1 0.24636347821355667 3.7607166452501843 0.5749576062521584 0 0 0
168 1 3.5708459757571953 5.767700917853911 5.302649875116787 0 0 0
163 1 1.5285667368230773 5.42192140284065 7.1150205977640715 0 0 0
195 1 1.81839096122998 7.511499853505768 5.730343271294028 0 0 0
322 1 1.8800240742679748 9.656516270589602 7.368818443704213 0 0 0
325 1 3.5739637273938545 7.565397019627711 7.527965474893087 0 0 0
421 1 3.369694694908221 5.623165748023379 8.821913615453603 0 0 0
161 1 1.9544100545099414 7.8099716867788 9.176538259675898 0 0 0
200 1 3.691760023164146 9.01133099221954 5.611602883893547 0 0 0
328 1 3.60912868892883 9.632126214394546 9.143634065734675 0 0 0
323 1 27.969536382849984 9.22679703918554 9.162722111996437 -1 0 0
292 1 28.076621823929678 5.471858775995629 9.000322000606243 -1 0 0
300 1 6.9182021033353065 5.113903811578227 9.268324968174854 0 0 0
166 1 5.460177787889092 7.481310636101317 5.912664566703302 0 0 0
172 1 7.327010404982582 5.900643267697427 6.061123397275513 0 0 0
294 1 5.136129239810713 5.5683340514453095 7.589212738307007 0 0 0
327 1 5.083209538360641 7.6260557271878335 9.478274572532271 0 0 0
204 1 7.199577731851194 9.178698359022459 5.818256144345102 0 0 0
326 1 5.4348872738975675 9.306247202843483 7.334122751724659 0 0 0
332 1 7.6323892403532465 8.948272429714553 9.316887139944182 0 0 0
329 1 6.897681107096268 7.379576700418322 8.044473246903767 0 0 0
203 1 8.933943895104745 7.3325291935042785 5.6465384979758655 0 0 0
176 1 10.71805322838211 5.526626172284587 5.328432191947985 0 0 0
298 1 8.92172356255554 5.506250795150089 7.536097838697919 0 0 0
333 1 10.776934933424124 6.885616459779554 7.208946809403663 0 0 0
208 1 10.856669832359241 8.613836945693787 5.502032145597713 0 0 0
336 1 11.09068316787819 8.79654540356139 8.892904189701891 0 0 0
304 1 10.707304467094401 5.510439180820263 9.132031712038833 0 0 0
331 1 9.33095333548591 7.089105001516243 9.221507603829822 0 0 0
330 1 9.453724723898974 8.86165331507678 7.457671529937591 0 0 0
335 1 12.56781668732707 7.187962985631484 8.594701347129563 0 0 0
212 1 14.224025706178596 9.205535623346865 5.36969747831095 0 0 0
207 1 12.4885741269203 6.998926165812427 5.447849886325221 0 0 0
302 1 12.597122455731872 5.663362450183219 7.10443834009545 0 0 0
308 1 14.179702473446552 5.709743878582431 8.890587769410542 0 0 0
337 1 14.197687226671901 7.178848734492324 7.068129824446087 0 0 0
339 1 16.11751011842732 7.520264870577262 8.835058717391156 0 0 0
211 1 16.208364331301798 6.882620682203482 5.549768883967366 0 0 0
340 1 14.138814455236163 9.036459606563183 8.654620136334035 0 0 0
243 1 16.038045329043655 8.90050975380951 7.0280281686370145 0 0 0
306 1 15.973562078852586 5.804979075547135 7.454382700014099 0 0 0
334 1 12.596221470224215 8.660571898398342 6.798552933768329 0 0 0
215 1 19.5287140675989 7.547133425165376 5.86078450454839 0 0 0
184 1 17.872195789432954 5.531185512980945 5.713781689258177 0 0 0
310 1 19.725938184249113 5.5938231554115285 7.353083651849104 0 0 0
341 1 17.666210920550103 7.43312141613775 7.330198172750061 0 0 0
342 1 19.58221703205687 9.102712129208598 7.356093886367686 0 0 0
312 1 17.912268649794537 5.521309522073464 8.810394281133473 0 0 0
216 1 17.74832624705078 9.15228159534348 5.573177748775592 0 0 0
344 1 17.620902139105734 8.963551630448086 8.87887596587618 0 0 0
343 1 19.38708299884753 7.055861861573189 9.214009780353384 0 0 0
219 1 22.645884236589684 7.474271290785026 5.296312277736863 0 0 0
188 1 21.21240286051436 5.627517083280973 5.616993042539319 0 0 0
314 1 22.883419929681704 5.319232307814171 7.065552022045965 0 0 0
345 1 21.563915112975973 7.629907790284138 7.439329327394236 0 0 0
348 1 21.044883765947553 9.258714195023805 9.590468689339877 0 0 0
346 1 23.05349485591392 8.998626529264975 6.680616256718372 0 0 0
316 1 21.051870843088864 5.492377073869069 9.16630128705812 0 0 0
220 1 20.82937270304074 9.206528575787793 5.405709355030979 0 0 0
196 1 0.35616611674294907 9.05645863801513 5.739388830996363 0 0 0
290 1 27.8542025779855 5.667520545663745 5.425929305790482 -1 0 0
321 1 28.090586006558805 7.4477841732901835 7.589864579198094 -1 0 0
349 1 24.647282281766667 7.5702209391707775 7.453625942183498 0 0 0
192 1 24.47442378202718 5.970407806226211 5.351111993600996 0 0 0
224 1 24.595837636203697 9.22786250740371 5.350066241768276 0 0 0
223 1 26.232394661982617 7.500330046193645 5.885042505387545 0 0 0
318 1 26.147377309088984 5.780435876425245 6.809041140097494 0 0 0
351 1 26.373949379805936 7.2227803726409405 8.983223890653063 0 0 0
350 1 26.414385666708867 9.25783916614589 7.39619141776528 0 0 0
477 1 24.78059210587091 5.401575016853885 9.16302382975527 0 0 0
352 1 24.659685722658768 9.018731300184273 8.870376946291636 0 0 0
512 1 24.684744255012667 12.543618710310758 12.587992596766021 0 0 0
354 1 1.817046887296268 12.718838694507458 7.22218751799681 0 0 0
353 1 2.367665317245585 11.070310805165699 5.586550202403209 0 0 0
232 1 4.008944957389879 12.715620523659515 5.300514567750012 0 0 0
360 1 3.405542005509237 12.14469353606382 9.501664879046576 0 0 0
357 1 3.7431573216363687 11.2604666311787 7.380660707418715 0 0 0
355 1 1.9509993223634274 10.85434781156325 9.431393207079873 0 0 0
324 1 28.07992171913137 10.987960784124489 6.953338472639254 -1 0 0
356 1 28.013788959536953 12.041696517666898 9.043317949946216 -1 0 0
228 1 0.21453223941187985 12.39435111941153 5.389719716291571 0 0 0
578 1 1.238181180428971 8.775858547042317 13.979526644145993 0 0 0
231 1 7.951539838114424 12.118394042081668 5.61547069746168 0 0 0
199 1 5.736526123430591 10.527676869465758 9.215964371369788 0 0 0
361 1 7.657608983345372 10.663090612264805 7.534566143113721 0 0 0
358 1 6.1256582960426345 12.44318801721644 7.455136567910675 0 0 0
364 1 7.422078701813542 12.28499265142819 9.178123594613322 0 0 0
573 1 24.371524764386805 3.410319844408661 13.947276098372974 0 0 0
235 1 9.498249892056846 10.574923251144435 5.70300345532714 0 0 0
362 1 9.440050942484273 12.515144824723858 7.291555642456029 0 0 0
368 1 10.594783055864335 12.372422269999937 9.408857615913764 0 0 0
240 1 10.77945583892555 12.738575353641815 5.418588278219397 0 0 0
363 1 9.08365811517698 10.712317147773167 9.571385896482262 0 0 0
365 1 10.79283449415446 10.630613396059859 7.7744728358277415 0 0 0
239 1 12.471315853390939 10.774738015200908 5.992295223949543 0 0 0
366 1 12.17386733882228 12.540446960479676 7.12630835303601 0 0 0
367 1 12.712337130689487 10.95094104012467 8.761046398915157 0 0 0
371 1 14.353666330468185 10.869333413808302 7.2956370660160905 0 0 0
372 1 14.1675804674802 12.759026871799923 8.763730411415958 0 0 0
369 1 16.034681349456758 11.03271774685676 5.614048570024386 0 0 0
370 1 15.997363173004045 12.55484263253473 7.28202377618882 0 0 0
338 1 15.949393396091144 10.72648567347959 9.088864061760857 0 0 0
971 1 6.935127011182857 7.213794338628261 0.29179804043036855 0 0 1
569 1 21.437648288468637 3.7230223789290915 13.782772880233209 0 0 0
1153 1 0.2889561673006341 14.157297936135283 3.576553007506337 0 0 0
1287 1 5.512255063562606 13.84596849587552 9.090856338965631 0 0 0
248 1 18.19731174815417 12.914907199109305 5.691866670726552 0 0 0
247 1 19.02541832012039 10.682437148819512 5.298720602232336 0 0 0
373 1 17.695416483894874 10.754481059376236 7.550467315496526 0 0 0
374 1 19.678227652033783 12.43523597412026 7.28316117757823 0 0 0
376 1 17.873946543473483 12.730855300757412 9.19591803732326 0 0 0
375 1 19.449538886495965 10.736836422966384 9.359469733741802 0 0 0
546 1 1.8995725031021211 4.807509234764106 14.007127671195875 0 0 0
534 1 19.351607392124954 1.9337352826583694 13.914714158206408 0 0 0
251 1 22.67441627703212 10.8855172315515 5.4717032668469505 0 0 0
252 1 21.246002151312762 12.5599187452024 5.8730355287595275 0 0 0
380 1 21.56857824718752 12.167947937552244 9.013706664764356 0 0 0
377 1 21.36864171437614 10.578528418161431 7.303080596366279 0 0 0
378 1 23.051279017863052 12.445321444688751 7.078600366708007 0 0 0
379 1 23.039155261347638 10.572373685860294 9.2149586602164 0 0 0
283 1 23.274118664295475 0.6129294720804751 8.947935007183942 0 0 0
507 1 22.64633577984775 10.764165161480472 12.751678373424719 0 0 0
255 1 26.31595052616773 10.772833636910264 5.327265629089562 0 0 0
553 1 7.082286980592421 3.1498124953781446 14.100066226714112 0 0 0
384 1 24.41761615890693 12.679334367111561 9.145023996995755 0 0 0
383 1 26.270746785330985 11.027355465502744 8.752703455415027 0 0 0
256 1 24.170855168987003 12.61956237430921 5.388231068805086 0 0 0
381 1 24.821289747972024 10.900516062085927 6.946681278512081 0 0 0
382 1 26.232245540865655 12.510722235427751 6.780067063949824 0 0 0
129 1 28.102448471708165 0.25652341799962775 3.4928501387910056 -1 0 0
634 1 21.035831782008664 12.417179712052485 13.023751743376637 0 0 0
267 1 9.001582297301322 0.3872500450731975 9.150180260814198 0 0 0
386 1 1.5980696395013574 1.6117971643577567 10.38546145368797 0 0 0
419 1 1.8083913752329932 3.2213620846393702 12.1642174759741 0 0 0
392 1 3.759540122591992 1.9751542242430689 11.799627436953454 0 0 0
424 1 3.496495699783096 3.5025564060908545 10.301236085484275 0 0 0
388 1 27.744373975669777 1.7181110558929924 12.247177590975362 -1 0 0
154 1 23.207032094609794 0.38255976788216106 5.47154826333624 0 0 0
417 1 28.08708445568064 3.7425083882521504 10.516825846275951 -1 0 0
390 1 5.194599062423715 2.1913795321340928 10.20094791523319 0 0 0
396 1 7.0972648567675725 1.3524988000829468 12.37762667083003 0 0 0
423 1 5.579924673661184 3.592724322216086 12.205189636861427 0 0 0
425 1 7.366732697156294 3.4164887827672996 10.624083802424842 0 0 0
11 1 8.813529241400122 0.27908333416135633 1.6577194116347334 0 0 0
505 1 21.011686746196506 10.950222493109102 11.255748083089253 0 0 0
394 1 9.092789289778358 1.8609264498350926 10.710133432030018 0 0 0
400 1 11.136362547220452 1.8890982899535194 12.24980497980141 0 0 0
427 1 8.993771117075367 3.6374586712879773 12.602772918500769 0 0 0
429 1 10.83090968330456 3.821255077409654 10.811347605467775 0 0 0
463 1 12.535693086929605 4.025621438445619 12.31393333476234 0 0 0
398 1 12.205743638803902 2.0477070973469953 10.51469357704901 0 0 0
431 1 14.164215246461929 2.3583854326275087 12.035326169529583 0 0 0
433 1 14.328145726471716 3.958596590347345 10.746380768352953 0 0 0
402 1 15.978332419733336 1.944829398714883 10.39019631896623 0 0 0
435 1 16.154322141237405 3.6797846585534777 12.017996690688806 0 0 0
1122 1 1.6637383151382281 1.8752423149219293 1.1681297401983555 0 1 0
285 1 24.719691964258693 0.40970444377740367 7.088411961611931 0 0 0
582 1 5.516043196835262 8.780104339562381 13.6387203781118 0 0 0
406 1 19.707212841114966 1.8559309561249302 10.531392837428806 0 0 0
408 1 17.875601733219266 1.970018221022389 12.2418482075666 0 0 0
437 1 17.83118844769128 3.403017875699018 10.550840446536412 0 0 0
439 1 19.43906495083373 3.5137824521152083 12.465384260534497 0 0 0
506 1 22.736158608823175 12.404044483536563 11.050447296535607 0 0 0
110 1 12.087413791877369 12.19783009738603 0.2523388347383387 0 0 0
18 1 14.40501855438247 0.5130109634118334 0.3419677515619373 0 0 0
410 1 22.86811519676186 2.244707271566758 10.271670663408111 0 0 0
412 1 21.214205592256164 1.8939729881707625 12.183212326470416 0 0 0
441 1 20.749380673455683 3.691384764680114 10.522310265470077 0 0 0
443 1 22.57685900674583 3.9497173249645487 11.98530212300383 0 0 0
503 1 19.371034329584845 10.665624564349367 12.660814943772657 0 0 0
14 1 12.412254179984933 1.8358133048023553 0.4687876618098709 0 0 0
502 1 19.655973237640076 12.456760447106964 10.75703970451835 0 0 0
125 1 24.60560205679862 10.655502129396476 0.6952849439526727 0 0 0
416 1 24.36156667076307 2.1127103614040603 11.997138335163491 0 0 0
445 1 24.67707363394706 3.625349673471801 10.426781985075646 0 0 0
414 1 26.361508300380486 2.1660332656079895 10.52292672286346 0 0 0
447 1 26.567492185806127 3.7515037303508683 12.246254278620997 0 0 0
538 1 22.845401867772928 2.0713691401129126 14.021211191925822 0 0 0
1043 1 15.90090040262034 13.895938107787565 1.878174197675126 0 0 0
501 1 17.43044242904544 10.551686693554394 10.659485487432773 0 0 0
455 1 3.509010385407131 4.892773795341044 12.210414845138446 0 0 0
418 1 1.8422265393567552 5.184745850303493 10.54164489807589 0 0 0
451 1 1.66965098427093 7.127233638770377 12.459627341588613 0 0 0
450 1 1.4360055247718 8.893761217669105 11.102760024771696 0 0 0
456 1 3.193772153562167 8.6840688109054 12.761173267725589 0 0 0
453 1 3.264163079325196 7.183966793636452 10.949313001842036 0 0 0
449 1 27.86362773925607 7.2094342793941255 10.696472922342277 -1 0 0
504 1 17.708122308122974 12.847396383782206 12.304116929975322 0 0 0
296 1 5.115254303470238 5.162809517780879 10.323813184813927 0 0 0
428 1 6.9345533676630975 5.3755984981036535 12.186329500341115 0 0 0
457 1 7.173563374489693 7.0070235968725525 10.763714526638699 0 0 0
454 1 4.9617611626998555 6.554164468771205 11.987372348190965 0 0 0
359 1 5.088159953530955 9.054893787790702 11.018689659844512 0 0 0
460 1 7.543676015040725 8.554111806733394 12.246199567214951 0 0 0
458 1 9.665917323721308 8.675389962901905 10.969527488442019 0 0 0
518 1 5.37760150095951 1.661202836922142 13.87924627571352 0 0 0
566 1 19.53163323161028 5.3684415968560915 14.16913830392562 0 0 0
459 1 9.173906900577357 7.3230053641477895 12.820049559761525 0 0 0
426 1 8.923000606964104 5.251712568142194 10.751334404035514 0 0 0
464 1 10.934693292143459 8.854415705646394 12.604798853432392 0 0 0
432 1 10.40321419492677 5.347021976666532 12.887769282453235 0 0 0
461 1 10.724095282877178 6.872697562008257 10.964064747742286 0 0 0
462 1 12.222729135694026 8.467830652728097 10.648970661345256 0 0 0
1420 1 7.186352393084143 14.122853295623692 10.297974148692507 0 0 0
550 1 4.9238511485504945 4.85050811355754 13.999339619655935 0 0 0
411 1 22.489700641651133 0.2903681730070957 12.292342392717494 0 0 0
430 1 12.728412957806592 5.737018069981366 10.665370213734214 0 0 0
468 1 12.542551320773143 6.719540661703717 12.645752909179528 0 0 0
499 1 14.116531608392593 8.84432933064028 12.701907351031213 0 0 0
436 1 14.722164963843259 5.349755233971665 12.640713318043373 0 0 0
465 1 14.26509089305781 7.379238017208803 10.493636071823921 0 0 0
434 1 15.971777050574813 5.6187201314781525 10.160598658886572 0 0 0
466 1 15.903513793458753 9.134857556314621 10.633303816696786 0 0 0
467 1 16.01372973709134 7.297222930819802 12.42286222154526 0 0 0
159 1 26.495642091832732 0.4588148349137917 5.177906044413556 0 0 0
78 1 12.1715554423157 8.693422315487284 0.5223192478656974 0 0 0
100 1 2.3186266599023067 13.023779143758892 0.446394476573574 0 0 0
438 1 19.213954071316365 5.373166782389411 11.445460632651898 0 0 0
598 1 17.63720410005764 9.213466171991474 12.618065024272285 0 0 0
470 1 19.338589686007438 9.117732107840016 10.905400092637658 0 0 0
440 1 17.49251190435436 5.2939842305645985 12.503545320468769 0 0 0
469 1 17.80372948522769 7.16173537960215 10.983310089776664 0 0 0
471 1 19.324463720517766 7.552065681596167 12.67999736678222 0 0 0
347 1 22.88631610594723 7.479793817896849 9.497419706556162 0 0 0
474 1 23.352315292977178 9.35774900694606 11.135070530076904 0 0 0
442 1 23.108386853751924 5.703231972246695 10.760185868235533 0 0 0