LAMMPS data file via write_data, version 29 Oct 2020, timestep = 300000

2048 atoms
1 atom types

0.1472076510123621 28.204792348986928 xlo xhi
0.1472076510123621 28.204792348986928 ylo yhi
0.1472076510123621 28.204792348986928 zlo zhi

Masses

1 58.933

Atoms # atomic

35 1 1.3515763051995404 3.7816710046224116 1.7127008761192062 0 0 0
131 1 1.1412141458522636 2.07575334465863 3.7012480888329273 0 0 0
7 1 3.2513065486788735 1.8348900456445958 2.3054737546849307 0 0 0
168 1 3.107180748861862 3.7746550023947636 3.5227250026710117 0 0 0
5 1 3.634358047643209 0.28626348101661325 0.3105321949289952 0 0 0
130 1 1.561804178699641 0.1766031894147219 2.021468780054315 0 0 0
8 1 1.9218506042331223 2.158702346479809 0.38770030641373066 0 0 0
2 1 3.583652391649461 3.8505957351796867 0.4908656538882866 0 0 0
12 1 7.293270986598455 1.8105122743601447 2.059624379896433 0 0 0
134 1 5.0172762809352855 2.0343014595112052 3.7199232466533663 0 0 0
169 1 6.885167939743211 2.9494010124152856 3.663580937657561 0 0 0
37 1 5.157288930010652 3.452515727224402 1.9294365153531894 0 0 0
1132 1 5.50472268154723 0.5681760014565503 1.5462140706246974 0 1 0
171 1 9.009553809264029 1.6485895644520776 3.7425633974178436 0 0 0
173 1 10.226218148123486 3.3374568093098462 3.8554925209182094 0 0 0
45 1 10.769317345384836 1.8516017672675749 1.8666419521361581 0 0 0
42 1 8.873868927326496 3.266046645466965 1.7518839321267066 0 0 0
142 1 12.13816933211156 2.3525311274967926 3.906286884614028 0 0 0
47 1 11.652408680722179 4.074302019892531 2.3861602417438785 0 0 0
170 1 8.422610174932117 4.791408748164439 3.71395083293302 0 0 0
943 1 10.737854902337299 3.9874954528841036 0.20167371873333484 0 0 1
1098 1 10.82838264550599 0.2529200709357368 0.3368227649240083 0 1 0
20 1 14.11028920985113 1.9848628410409894 2.3760008078255472 0 0 0
16 1 14.244393368560722 3.42947461305726 4.359491958028303 0 0 0
51 1 15.836344311109576 1.7875126490032807 4.176126297634911 0 0 0
56 1 15.586507117023782 3.392457524772106 1.745711856837569 0 0 0
145 1 14.219202555920031 0.3830691017076431 4.241471492659084 0 0 0
1232 1 12.538254088262036 0.5563681928971118 2.320622302510055 0 1 0
19 1 13.964626686846747 0.8134329159817487 0.5357980492185965 0 0 0
18 1 15.641730920795945 0.527689798617417 2.052349266812511 0 0 0
944 1 12.814822547341643 2.840050808112171 0.866773208937351 0 0 1
85 1 17.596719072208675 3.951110005480679 0.3852384155660381 0 0 0
181 1 17.416523921535745 3.7073095326600423 3.6031386284349285 0 0 0
185 1 19.565236160067773 1.8948917717076499 3.695777153006246 0 0 0
57 1 17.565377582208 2.072165878657408 2.2901110484056044 0 0 0
182 1 19.65255824875141 3.8711425583561203 2.2971106521131057 0 0 0
1139 1 17.447291313726534 0.39153929398947573 0.38056999176141004 0 1 0
149 1 17.528613339886768 0.2973066929510755 3.963070470444622 0 0 0
23 1 19.422765917149942 0.6165522672668887 1.7798721990436466 0 0 0
87 1 22.479984805197603 3.8874639346469624 1.8343239324077174 0 0 0
32 1 21.433019004493094 1.838549474142976 1.1813815025179373 0 0 0
156 1 22.872424174910993 2.2254100468397264 3.2963007746260224 0 0 0
183 1 21.20333164697839 3.709492678989306 3.5020220923627394 0 0 0
25 1 21.400717038987786 0.6106740604652745 3.1659674372901554 0 0 0
36 1 27.940657152298478 2.252545724053262 1.5155026660328001 -1 0 0
61 1 27.675831524781714 4.44327757410938 3.501192422668727 0 0 0
1152 1 24.49132560279531 3.7238254555794557 3.4656932238001983 0 1 0
189 1 24.557414712749527 2.393613224685591 1.5139602129568186 0 0 0
190 1 26.166213778076493 4.104776319836044 1.6080897450266338 0 0 0
31 1 26.376508537935145 2.3493194968707627 3.4117007526990144 0 0 0
1254 1 27.900762818819548 0.34691293005159657 3.142446623030085 -1 1 0
2018 1 28.08408582407775 0.23932122014661772 0.4133797969291888 -1 1 1
58 1 26.185617599835464 2.4830244174112126 0.1915506604866053 0 0 0
71 1 1.644647205214387 5.489628953307963 3.4028547954435386 0 0 0
197 1 3.1472319151206727 5.6361655800806165 1.7943467215828148 0 0 0
963 1 1.9739465874104076 7.53194325141945 1.7106383010609794 0 0 1
162 1 3.6338121970917525 7.557860164672921 3.782776056885626 0 0 0
69 1 1.8780219662556241 9.051020198923814 3.7719160332430373 0 0 0
194 1 3.2948525251380243 9.019372504848441 1.5494531969101932 0 0 0
67 1 0.2199821005387068 6.062316713162082 1.785104353564294 0 0 0
39 1 4.826712661473463 5.133166574370429 3.49029708171678 0 0 0
44 1 6.748534509176827 5.059038953499625 1.7706953258896359 0 0 0
201 1 6.28932657318227 6.988438216920881 3.5373884790766676 0 0 0
73 1 4.619940589657424 7.077637382793744 1.8028633107009235 0 0 0
76 1 6.769705457758158 9.415674624013286 1.7599268656443305 0 0 0
198 1 5.569514416336707 9.23083787588265 3.931163003442551 0 0 0
971 1 7.006917271427771 7.1745831885096685 0.2773056569121363 0 0 1
48 1 10.330984682802468 5.737211457923321 2.381090592252143 0 0 0
74 1 8.747889018197165 8.779381682966557 0.6315310097218786 0 0 0
75 1 8.52668987779865 7.40761864284282 2.4015464589237907 0 0 0
205 1 10.764477853176263 7.077451289233866 3.6919339725339264 0 0 0
107 1 10.641135257151177 8.934854862338327 2.051282683221679 0 0 0
202 1 8.538104440623467 9.468385504147191 4.241791274227948 0 0 0
77 1 8.781549223760067 5.375157639696015 0.41177220451774993 0 0 0
80 1 10.501006393299486 7.04862716740127 0.7113279622323465 0 0 0
78 1 12.091615820628027 8.573781836983464 0.5021759646476829 0 0 0
79 1 12.505857427780477 6.8035988613827705 2.0358241617084 0 0 0
174 1 12.582011080098967 5.462445136694016 3.9271350159169134 0 0 0
177 1 13.82174016004828 4.951212728532694 2.0922424500001053 0 0 0
209 1 14.062632294853968 7.20230443146033 3.979763572848648 0 0 0
84 1 13.854439326003464 8.7056039189806 2.2575930451235764 0 0 0
115 1 15.802375661343657 9.115322407108685 4.141624205435592 0 0 0
979 1 15.87179111147781 7.27603939607328 2.36597460212237 0 0 1
178 1 15.476163153397692 5.1093611328274 3.6604729637828153 0 0 0
206 1 12.333143517784903 8.93258659281382 3.8922383560058376 0 0 0
52 1 14.142393572131088 7.258244038200948 0.1886678601368642 0 0 0
24 1 15.677976312213117 5.555722568047611 0.48481944952437783 0 0 0
46 1 12.440087173435183 5.256990093949659 0.17999946447065085 0 0 0
984 1 17.47116454630775 7.239487903025736 0.8038982791735453 0 0 1
53 1 17.502151976542923 5.356124778036375 2.1340301805687796 0 0 0
213 1 18.009861247119517 7.222317013383272 4.31631585842399 0 0 0
214 1 19.396490645952213 7.121101943827528 2.2816500567186826 0 0 0
88 1 17.44533969206296 8.887202658421545 2.319229918288695 0 0 0
184 1 19.51256552775533 5.560369677958798 3.9979777828263376 0 0 0
342 1 19.29648328572564 9.033541502270266 3.7209537467112965 0 0 0
983 1 19.389258851981733 9.23617140946633 0.7475345296832213 0 0 1
187 1 22.858612321619518 5.358205266759376 3.862566857264763 0 0 0
89 1 21.172511453260345 5.924097508914667 1.8339171351364416 0 0 0
186 1 21.300405644519326 7.71987927223709 3.761299516302902 0 0 0
91 1 22.800359212720103 7.696493203216462 2.12557463099623 0 0 0
220 1 22.972468293182757 9.36683548550809 4.172593074766575 0 0 0
92 1 21.254749073786822 9.201693309259554 2.212625780972634 0 0 0
932 1 24.188159114362517 5.58157051182427 1.7260367387977673 -1 0 1
96 1 20.87595548813572 7.720824469929623 0.22187667209756623 0 0 0
1019 1 22.86048090067128 8.95783789109943 0.3028841960872795 0 0 1
290 1 25.778521857172688 5.59817080753853 3.6074684531747674 -1 0 0
68 1 28.031121658176136 8.88937560857828 2.072708045067771 -1 0 0
225 1 27.842343477514955 6.933536038483193 3.8586094593516123 -1 0 0
221 1 24.34957977482747 7.483251466485183 3.638162392333448 0 0 0
93 1 26.287558205363215 7.006645168985293 1.5657175397475613 0 0 0
94 1 26.40593102549554 8.544480922431294 3.5779017896633136 0 0 0
859 1 24.77444891884359 9.149123152659277 1.9282728278879506 0 0 1
90 1 24.36133372893206 7.509602022359769 0.18412694106571637 0 0 0
229 1 1.4496128138576836 10.568491452455298 1.5134738677578063 0 0 0
235 1 3.341721814219292 10.90005746461976 3.1714643702637417 0 0 0
104 1 1.6726961350272815 12.310296001938024 3.502854079862277 0 0 0
99 1 3.395569538718783 12.56689793512487 1.8334781567048013 0 0 0
1156 1 0.2771789291332825 10.690171650378126 3.4418786723917743 0 0 0
1031 1 7.174538731343972 14.080517947158365 3.818479382249899 0 0 0
999 1 7.090113388073156 10.936653491840449 0.3347525967308372 0 0 1
1035 1 7.363880169570333 12.65041969365874 1.8959280236889504 0 0 0
227 1 4.885650088483771 10.432488503449925 1.926836568427218 0 0 0
233 1 4.897396212324276 12.475821253675981 3.576869008138431 0 0 0
234 1 6.607757862925938 11.281982013604887 3.90267683574529 0 0 0
102 1 5.363096553577582 12.098627076604169 0.5850151821665379 0 0 0
109 1 10.461973073171587 10.495671673210873 0.47861809196867927 0 0 0
108 1 8.759388904534166 10.569164388130273 2.4942806650515497 0 0 0
231 1 9.109306078065206 12.21141418659978 3.879854352131799 0 0 0
112 1 10.515689833069734 12.503398166421771 1.7440584587835877 0 0 0
237 1 10.778651699965447 10.553240720548448 3.7784831918005755 0 0 0
1163 1 10.593594918088396 14.094867561591139 4.0138826305132085 0 0 0
110 1 12.333951974588302 12.495552247470329 0.3530590583098159 0 0 0
113 1 13.866164762914877 10.707422771040314 0.6266291423290133 0 0 0
111 1 12.34270548309208 10.951997377856818 2.043145095234253 0 0 0
1169 1 12.336290814139744 12.396079028840383 3.884428711090181 0 0 0
116 1 14.633307740852999 12.30884640152098 1.9854959111518753 0 0 0
241 1 13.912125567505052 10.64140816526877 3.898732285503604 0 0 0
245 1 16.05134665043346 10.411972906513984 2.2243555955142265 0 0 0
1165 1 12.414711595659002 13.839367074954728 2.178580573406442 0 0 0
1043 1 14.214565622519165 13.912029568583508 3.8577441988065724 0 0 0
1048 1 17.60951880031631 14.169174228592947 3.931721866319772 0 0 0
242 1 16.22112925020908 12.333911904279887 3.422429978550615 0 0 0
120 1 18.261941353835837 12.743186874242943 1.8644609878729432 0 0 0
247 1 18.09151700962628 10.939754904839644 3.8767483303339643 0 0 0
246 1 19.56437610996372 12.711172630016843 3.813810505591041 0 0 0
119 1 19.550777893627696 10.737798627727377 2.45874643812286 0 0 0
117 1 17.723019191763548 10.882985102263559 0.6724906993091024 0 0 0
114 1 16.24449531708108 12.382372956123186 0.2645873110078914 0 0 0
124 1 20.945715762186392 13.241196388069593 1.682688418508122 0 0 0
249 1 21.151818265016782 11.087654842238651 3.6842462225510366 0 0 0
123 1 23.043101430754035 10.618043628377631 2.332378713176837 0 0 0
1181 1 23.23142665576546 12.642595161074633 3.12088962568235 0 0 0
1177 1 21.382247572630117 14.130469300029715 3.7843557790133064 0 0 0
122 1 23.202055696580057 11.845846737386477 0.5237106287525795 0 0 0
1052 1 22.987295658250027 14.115721780263192 1.5502478241664999 0 0 0
891 1 20.891774189143383 11.039359442661553 0.43358150450643507 0 0 1
382 1 27.915785084734768 14.116502939473397 3.461227240772559 0 0 0
1309 1 28.138460754551826 12.437100575522335 1.2029085330648326 0 0 0
218 1 24.89416798849998 10.578231582426337 3.575865066022388 0 0 0
128 1 25.248967199291496 12.23253247761882 1.917568180232994 0 0 0
223 1 26.716803205261353 10.629097381131725 1.6218868739024506 0 0 0
254 1 26.718946799729995 12.064630206813685 3.4293306952171054 0 0 0
127 1 26.38149982284041 14.15228164016596 1.5319000091204549 0 0 0
1256 1 1.6981803811362777 0.2474950034004301 4.887503570277068 0 1 0
136 1 3.2415302391101073 2.0714653953453794 4.9703603458988885 0 0 0
258 1 1.751114761661534 3.9680358495441967 5.045035881830629 0 0 0
259 1 1.8923326189772656 1.8066128710155407 6.727502276448185 0 0 0
164 1 3.226300213539223 3.5937994257712584 6.959042989992409 0 0 0
291 1 1.3730314173163962 4.019191703333681 8.843817791079509 0 0 0
386 1 1.9498513378788507 0.41262984342169995 9.099364152319364 0 0 0
264 1 2.884654776337076 2.6726292229534785 8.632077877091792 0 0 0
390 1 5.652099201290608 0.37752610538383635 8.394458913236676 0 0 0
165 1 4.930281167899092 3.531548649104178 5.137313258092608 0 0 0
140 1 7.06479743664569 1.6907117914759597 5.360351715045556 0 0 0
262 1 4.343630574446786 1.4791347138475297 6.839698848182847 0 0 0
297 1 6.497038275188291 3.214101236687088 6.845095851990422 0 0 0
295 1 5.011219279009732 3.7747331084550018 8.268238716220472 0 0 0
268 1 7.059375798263462 2.1205952392454526 8.425213863571464 0 0 0
299 1 8.501204466403882 3.517761232543276 5.5325746442390145 0 0 0
266 1 8.588282849283981 1.2735494879517648 6.7271969869330865 0 0 0
301 1 10.302551504820121 3.8634365302846994 7.071506807567352 0 0 0
176 1 10.523487738603846 2.0941649707540333 5.520693668077684 0 0 0
428 1 8.389025831882508 3.9055228439082588 8.40595925635312 0 0 0
272 1 10.061776544896945 2.2489231245458505 8.77853944867631 0 0 0
270 1 12.124706037651904 2.247329779683096 7.103147830910821 0 0 0
269 1 10.761331697961786 0.406632326563009 7.139321207389322 0 0 0
147 1 16.04307373564737 0.5281281179869142 6.157007379832221 0 0 0
175 1 12.548297833820644 3.9343719070953727 5.758076254485418 0 0 0
303 1 12.447140866937492 3.463308590360245 9.43461771943686 0 0 0
148 1 14.185511307337201 1.8608487351909675 6.095227991205013 0 0 0
305 1 14.426515917350834 3.7666760298377766 7.606727369455491 0 0 0
276 1 13.950706003908387 1.7531268551965196 9.138971189019902 0 0 0
274 1 16.13824765202081 2.0069591102848303 7.819802631841284 0 0 0
146 1 15.969484385739793 3.2927314139145083 6.175463177385982 0 0 0
307 1 16.73527466921242 4.207425999261128 9.177247164686325 0 0 0
152 1 17.968929753840577 1.987561643519608 5.434225419417455 0 0 0
278 1 19.785079727169506 3.7387077247636853 5.121502736925787 0 0 0
150 1 19.77123713292029 1.673873160771728 7.336495554677137 0 0 0
309 1 18.009873623583708 3.316287719065273 7.121345184986153 0 0 0
280 1 17.968094941380695 1.8053655080868842 9.166940314937088 0 0 0
311 1 19.39093893079836 3.658172883037855 8.84565063160796 0 0 0
279 1 19.50735410791408 0.20888390116792976 9.203669912525488 0 0 0
154 1 22.851761729430304 0.1637615318067002 5.244154168168746 0 0 0
62 1 23.067841774145666 3.5372184540301586 5.212048729378337 0 0 0
217 1 21.201346020672926 3.5483971675733232 7.347430694743274 0 0 0
282 1 23.04135116407875 2.1204232884392997 7.132388042366215 0 0 0
313 1 21.000933289380825 1.7227872329706444 5.263810284582032 0 0 0
284 1 21.28172053410704 1.8863891903976713 8.899212341452596 0 0 0
315 1 23.043132164627906 4.016929856477942 8.92211299395932 0 0 0
281 1 21.702196370062826 0.20376790330340938 7.341433399876182 0 0 0
287 1 26.343637188603594 0.2585342034516884 8.672497476394383 0 0 0
132 1 26.302574533465897 0.44751128461383705 5.001702740633535 -1 0 0
285 1 24.62642323834848 0.22927628601647715 7.0300061516107215 0 0 0
293 1 27.99303020017966 3.874446089189574 7.0596388323273125 -1 0 0
286 1 27.9170435725986 1.831024302033731 8.403986818398018 0 0 0
64 1 27.97929353585502 2.258971434337451 5.247965252116661 0 0 0
160 1 24.516344855318852 1.9713797991100002 5.353996329941619 0 0 0
314 1 24.52799542795259 3.713119639993699 7.156275373755608 0 0 0
288 1 26.349068357625264 1.9812823744968464 7.093139008698631 0 0 0
191 1 26.11427124604614 3.63677078087983 5.106598475982909 0 0 0
317 1 26.066318170063912 3.7708255036435725 8.783097087499703 0 0 0
410 1 24.774946284497307 1.7092640112957238 8.852654217678433 0 0 0
163 1 27.90430284127429 0.5547870172928258 6.696266271884162 -1 0 0
421 1 3.4326910506162305 5.525681597673267 8.396466237943876 0 0 0
195 1 1.7241455907422 7.027279851893527 5.1689801869394145 0 0 0
325 1 1.7403282846526602 5.419289445396315 7.040307135428753 0 0 0
161 1 1.3515976710421644 6.933786072694109 8.75261671781223 0 0 0
200 1 3.162593878953128 9.303696213937904 5.598865299521422 0 0 0
327 1 3.2180506294148343 7.247230634048227 7.026038522222669 0 0 0
322 1 1.4349335833703563 8.70602662605196 7.047983437609257 0 0 0
167 1 3.5313717190261853 5.506509835559686 5.459567621481674 0 0 0
328 1 3.6576946575684097 9.18164886853943 8.775081651075192 0 0 0
196 1 0.44023751070269057 8.996437936427467 5.158254009089283 0 0 0
294 1 5.287797980183313 5.301013318880431 6.549388809102707 0 0 0
172 1 6.847962538562542 5.091814109579492 5.025485617116736 0 0 0
166 1 5.275705883084253 7.423487484609881 5.432886132856661 0 0 0
329 1 6.818705744772262 7.041996372279862 7.11432738151526 0 0 0
300 1 6.493026583955798 5.3670376641184845 8.590777955798853 0 0 0
359 1 5.048025563861198 7.381133523843672 8.665752877021008 0 0 0
326 1 4.672281021520034 8.835670049461172 7.053642994636134 0 0 0
361 1 6.92013212717991 9.067343887837305 8.58504454759136 0 0 0
331 1 8.471769994949968 5.466448293399005 6.831180275573277 0 0 0
298 1 8.555034767042494 7.09322973160901 4.940811214488895 0 0 0
203 1 10.82783648649725 5.264580459724175 5.1850132267272935 0 0 0
333 1 9.985140461928701 6.8009233057447105 6.689911439447002 0 0 0
369 1 10.45697056149198 9.006921734574624 8.845619011460657 0 0 0
334 1 8.531168325095638 7.4763721130175425 8.413887130652391 0 0 0
304 1 10.045461590788271 6.1713328520540776 8.655051731428024 0 0 0
330 1 8.758863828587852 9.203158145356557 6.904990392703742 0 0 0
336 1 10.573353506535604 8.74415917557885 5.406437515091196 0 0 0
335 1 11.983214392798853 7.2993574157621275 8.493699405071272 0 0 0
208 1 12.020547488864075 8.870281345632753 7.238389873468663 0 0 0
207 1 12.497119548236721 7.018946678715688 5.966586715723516 0 0 0
302 1 12.302630727017215 5.347323839595098 7.444064777636852 0 0 0
180 1 14.24354491908563 5.453152124011312 5.821545074288888 0 0 0
337 1 14.202964455947138 7.014175794417717 7.1959585734552185 0 0 0
371 1 14.20722488626486 8.724512779223096 8.769837746276563 0 0 0
243 1 16.123493612974787 9.11947755178096 6.863075374905338 0 0 0
308 1 14.507715577506994 5.321792427361823 8.847171703478727 0 0 0
469 1 16.05607661090236 7.114522390126642 8.981834755069272 0 0 0
210 1 16.090299780913803 7.4236768117801155 5.655710451446812 0 0 0
212 1 14.041759056301297 8.903913833332668 5.69441751671155 0 0 0
216 1 18.005357367214962 9.444583961514876 5.49763090367684 0 0 0
306 1 16.45269281135265 5.7974626284491 7.28735998694047 0 0 0
179 1 17.568714806541454 4.953496028560011 5.554210885569401 0 0 0
215 1 20.03802151573579 7.219852049579889 5.35734723762745 0 0 0
211 1 19.61027405812307 5.592268983583981 7.102954711178201 0 0 0
341 1 18.13943194203516 7.471813096250831 6.813750035217241 0 0 0
466 1 18.013135732897513 8.452379142875431 8.92880819252925 0 0 0
348 1 19.67468338904177 8.786276714861783 7.274005762748655 0 0 0
438 1 18.204092442304557 5.921019400912078 8.719689803616214 0 0 0
343 1 19.991638534541543 7.252618785838015 9.00027897904239 0 0 0
219 1 22.911115581158878 5.265802624243522 7.41325359889247 0 0 0
310 1 21.35532210677412 5.619794509130725 5.425596159352108 0 0 0
377 1 21.000880787608764 9.46849466104286 5.451729672334144 0 0 0
224 1 22.994293483742286 7.682607299815973 5.548924973589756 0 0 0
345 1 21.60745684319243 7.321043543872533 7.158849141021603 0 0 0
347 1 22.899743527327495 7.759925422855295 9.305296796814545 0 0 0
316 1 21.278453123617304 5.456022909354132 9.076592496921016 0 0 0
505 1 21.225950827604404 9.288226022039334 9.17468299584624 0 0 0
346 1 22.706860063142063 9.389675442991246 7.1912400575589555 0 0 0
321 1 28.082895751266197 9.001362135298676 8.495781182634712 -1 0 0
292 1 27.762827323005713 5.528190747165839 8.634696382233033 -1 0 0
193 1 27.883832207057115 5.525217600468161 5.526306577147893 -1 0 0
289 1 27.684827669717485 7.337289462438758 6.483804500625025 -1 0 0
352 1 24.631729961920993 9.32444764924741 8.423184013799874 0 0 0
253 1 24.778121187119694 9.313757809102146 5.373380742428545 0 0 0
192 1 24.380333528351574 5.317144764794247 5.723148307905418 0 0 0
318 1 25.46856227799563 7.2516930528909365 5.721344431943462 0 0 0
349 1 24.3564921559265 7.51939264735297 7.566109704682866 0 0 0
319 1 26.132029305757204 5.626687743143046 7.111747384120792 0 0 0
350 1 26.30643076539083 8.785314669544722 7.083501833503373 0 0 0
477 1 24.405758941889275 5.830296213910555 8.90162883979565 0 0 0
351 1 26.49934653147499 7.456683995126401 8.668426289079434 0 0 0
232 1 3.2716603664357846 13.06905294981733 5.1636504028455015 0 0 0
1155 1 1.4909876387065901 12.667055822974891 7.19893789182103 0 0 0
357 1 1.7679550680914975 11.008851815420469 5.246953119055071 0 0 0
355 1 1.5058690397349834 10.609677780098774 8.747754175535064 0 0 0
324 1 3.2875272388072054 11.357310911404113 7.324554361724933 0 0 0
226 1 3.14955173604334 12.588724921038636 9.469750905591683 0 0 0
358 1 3.1876159293216038 14.090767283022874 7.8446222372194665 0 0 0
332 1 6.801589450903534 9.909559961742659 6.0712604053972 0 0 0
204 1 4.7147855445605185 11.422154404547532 5.8053977649843755 0 0 0
236 1 6.990421427208127 12.692018012389328 5.321015234964887 0 0 0
1287 1 4.9644933996048435 12.888212737486601 7.404632120583232 0 0 0
362 1 6.637326906973679 11.354000020142507 7.505818409712407 0 0 0
1420 1 6.974795550860457 13.086072887179668 9.093648838413372 0 0 0
492 1 5.34394104493558 10.875503941503517 8.995009640624675 0 0 0
1161 1 5.287165784904202 14.001286280907884 5.191096267336562 0 0 0
1449 1 12.068697809879573 13.992037986506034 9.153802074841327 0 0 0
230 1 8.316769089687028 12.852539116299123 7.171796917060696 0 0 0
486 1 8.676018238266828 10.76084929364257 8.613904931799407 0 0 0
365 1 10.838049388261778 10.789502917541904 7.040083694980989 0 0 0
1296 1 10.747461207124562 12.246187492429707 5.557561192743975 0 0 0
238 1 8.668424130492625 11.281187729765344 5.776128808917061 0 0 0
368 1 10.124307437438762 12.274920656459505 8.614976698578111 0 0 0
1453 1 10.620976780275024 13.99496072455412 7.254184616830806 0 0 0
1167 1 12.44282200160307 14.083902585185243 5.523694613501353 0 0 0
1170 1 15.9749043928957 13.860653908195408 5.462342971950142 0 0 0
367 1 12.477588658636815 10.867580030129341 8.861770454313847 0 0 0
366 1 12.49802766683599 12.466021525855359 7.410871417541399 0 0 0
240 1 12.640374629859547 10.610061836743101 5.667163064920217 0 0 0
244 1 14.051472083198034 12.359163359472445 5.864759854784658 0 0 0
239 1 14.275682741403038 10.619105417586818 7.109254713403932 0 0 0
372 1 14.127021211561402 12.288585175371056 9.383169933814232 0 0 0
373 1 16.021148972844777 12.08006157894684 7.724672535411242 0 0 0
248 1 16.12502334674261 11.449032111320758 5.5500860797848315 0 0 0
1171 1 18.04231023313444 14.055199647785864 7.370997610811372 0 0 0
338 1 16.25404773049571 9.966124694968178 8.847178165649861 0 0 0
501 1 17.801074434339867 12.312919487210241 9.271341896094778 0 0 0
250 1 19.76319916033165 11.184610138137016 5.493945874722529 0 0 0
374 1 19.619469157542568 12.444180596595215 7.63397573025758 0 0 0
376 1 17.773390212574736 10.534259514885024 7.331933875078362 0 0 0
252 1 18.009407583002876 12.685083332200643 5.899791789178562 0 0 0
375 1 19.44281949785042 10.834905323856615 8.992108226469853 0 0 0
1305 1 19.586603118881364 14.124808174139222 5.490914425663952 0 0 0
1179 1 21.19042735340371 12.784142677507518 5.808375391274857 0 0 0
379 1 22.957565168694696 10.713445656823602 9.220465826487375 0 0 0
502 1 21.100485093796372 12.379457852101838 9.463804450641891 0 0 0
251 1 22.800751954652856 11.462960181129656 5.150386994867497 0 0 0
380 1 21.19805523543475 10.677865097250287 7.274807955820713 0 0 0
222 1 22.998001269744954 12.545275839879658 7.334371135814901 0 0 0
1302 1 21.448724068116785 14.158243351499733 8.089777840420414 0 0 0
1306 1 23.132378624898205 13.887203580422018 5.3098956696298645 0 0 0
256 1 26.72790605899403 14.037259049624325 8.91956051071398 0 0 0
1215 1 28.105139763273552 14.09338756773477 7.4157915158172045 0 0 0
353 1 28.120214362192954 10.765484686782672 6.98439013849209 -1 0 0
482 1 27.940853409280617 12.191482817668499 9.036364139546757 -1 0 0
228 1 28.067992472417906 12.644381519565608 5.450362058421862 -1 0 0
381 1 25.1186180234134 10.795643388424944 7.092670391253121 0 0 0
1187 1 24.91292252425946 12.038097218881715 5.404453189626647 -1 0 0
383 1 26.3890443299833 10.849777163034858 8.74060832801535 0 0 0
384 1 24.656351343398217 12.170626910587158 8.99339894250181 0 0 0
255 1 26.724871793541116 10.430855474995607 5.356993710675779 0 0 0
1311 1 26.40880041372266 12.458560194531312 6.880630977331657 0 0 0
378 1 24.78311213708926 13.896844357529398 7.448410133579541 0 0 0
387 1 1.893221229650904 0.5132650579488223 12.253357971725542 0 0 0
419 1 1.4284317704821554 3.7823458230009357 12.536609115674963 0 0 0
392 1 1.3070294117225172 2.4214448648086506 10.364210197235979 0 0 0
424 1 3.4707766885847238 3.5911309801879256 10.748337110581256 0 0 0
391 1 3.2794636657426284 2.3197320891244453 12.80131252342804 0 0 0
389 1 3.2805561996526835 0.8989827009195894 10.697640920591796 0 0 0
546 1 1.5301890008694483 2.0143757119430243 14.051335510688974 0 0 0
542 1 5.270896008425222 2.214190640214627 14.16182916201887 1 0 0
396 1 7.32761344193783 2.413644245781252 12.593776436563946 0 0 0
425 1 5.054174525330942 2.0098667880383205 9.979548714824427 0 0 0
296 1 6.918419086517195 3.1167358389814264 10.149502102744389 0 0 0
520 1 5.288347268420239 3.1652603039239575 12.167292302613406 0 0 0
521 1 5.3304773747259135 0.7277094100880255 12.296378615681595 0 0 0
393 1 7.241619952842958 0.23352389300209403 10.765408912991367 0 0 0
400 1 10.454993209666645 0.17178728209556837 14.0618727015971 0 0 0
397 1 10.580010140157336 0.23201352366914918 10.328566805021287 0 0 0
522 1 8.541496250241162 0.2853812437908785 12.817271404161902 0 0 0
426 1 8.6504588453338 4.378555792378376 12.383213918289924 0 0 0
394 1 8.917583961295884 1.776829762520981 10.745576802438363 0 0 0
429 1 10.660684556369151 3.9500558453674532 10.414030857717337 0 0 0
557 1 10.210581035652687 2.0383634396967825 12.956974974740495 0 0 0
398 1 11.748856385119229 1.8067896961995589 10.873754171816984 0 0 0
686 1 10.067088417998212 3.7490352624400876 13.975021736269191 0 0 0
399 1 13.689396087901947 2.1101218847498098 11.610861943360522 0 0 0
526 1 12.519988700093991 1.5450589672079398 13.482091480117871 0 0 0
468 1 12.454854433124968 3.886191117270491 12.016711951946567 0 0 0
431 1 15.253692718697346 1.5996929437148042 13.053139716915581 0 0 0
433 1 14.744037616925642 3.4809119962189863 10.203402556479427 0 0 0
463 1 15.947323680140086 3.7431631094141267 11.999354411913794 0 0 0
402 1 15.863928214937218 1.3758106213471086 10.586866477023959 0 0 0
559 1 14.39049753266526 3.4213247169291017 13.640252862891046 0 0 0
537 1 19.075930890306942 1.9328255831338457 14.125201973440603 0 0 0
407 1 19.633534259955585 0.18220595741688733 12.43569696502643 0 0 0
312 1 17.82124731241788 3.6847553147874477 10.712938493683435 0 0 0
408 1 17.528669590483222 2.1431695388583325 12.0727622413077 0 0 0
439 1 19.5342474677109 3.9021233267247326 12.599877083868371 0 0 0
406 1 19.44408352116289 1.9280302763387391 10.919325837495306 0 0 0
437 1 17.550756941804586 4.034359683043478 13.456620708687618 0 0 0
411 1 23.1285566175755 0.4483169096111901 12.432719115231802 0 0 0
536 1 21.34517391694891 1.8861423634682268 12.383194562958142 0 0 0
441 1 21.11852916422198 3.7084910729077465 10.578500518229173 0 0 0
569 1 22.812082530732297 4.097137723911407 12.71514061084032 0 0 0
443 1 23.06117799772669 2.2480983182208343 10.718134665593917 0 0 0
260 1 27.971945567465998 0.4567689730688531 10.381075187285557 -1 0 0
417 1 27.730258072609722 3.8676990438012426 10.57707435586083 -1 0 0
545 1 28.080662968741635 2.3213366238758275 12.219198365256151 -1 0 0
415 1 26.581869045358605 0.6419258962179172 12.74555917915883 0 0 0
445 1 24.62287901976704 4.357766531679806 10.794477405951042 0 0 0
416 1 24.54846292501388 2.2459396978449084 12.307488734681845 0 0 0
414 1 26.277751517882226 2.0705428103671366 10.522525527991043 0 0 0
447 1 26.413068763484745 4.2505755123852715 12.382934733493073 0 0 0
573 1 24.696642924273938 4.306752377199304 14.064834518594786 0 0 0
418 1 1.953765520412911 5.111856526933136 10.710315765437663 0 0 0
451 1 2.108068883491718 7.268131163148846 12.17209876504965 0 0 0
450 1 1.7016380139319793 8.828520550786182 10.46214912980532 0 0 0
455 1 3.5309187302151694 6.9323822752175275 10.214902031238882 0 0 0
456 1 3.405822578007512 9.077085710341192 12.649753342922896 0 0 0
574 1 3.52823990917774 5.417709376491621 12.396038489679698 1 0 0
585 1 3.7405003225519073 6.87018825914165 14.128589322839206 0 0 0
554 1 5.465701424277576 5.2978745888710375 13.523924079576195 0 0 0
618 1 6.773694466699679 6.981330551260723 13.806510270346513 0 0 0
453 1 5.0149681423509715 8.96612628860529 10.640597900751695 0 0 0
560 1 4.8183462903611245 5.469893255629274 10.371421554754455 0 0 0
582 1 4.7820361281446875 7.366021454550032 12.125046728862314 0 0 0
459 1 6.598519364121572 7.281314327041474 10.87736430564397 0 0 0
464 1 6.75685779723815 8.983832646215797 12.301379667185318 0 0 0
454 1 6.845986646571675 4.883988146089215 11.488264822051706 0 0 0
614 1 8.676764459788808 8.870669881935147 13.444138931594127 0 0 0
590 1 10.801736674504957 5.438784231671962 12.666913565047553 0 0 0
457 1 8.379212954725384 5.541221438677909 10.109544932694746 0 0 0
586 1 8.536476851229956 6.8597677000381125 12.329963056517606 0 0 0
458 1 8.666142317200592 8.565673874635522 10.373661811642254 0 0 0
461 1 10.758448154242428 6.561423228434062 10.593798358600118 0 0 0
462 1 10.398751355769726 8.744526310848647 11.616346887548822 0 0 0
556 1 10.67217032506846 7.273849064135766 13.717556008273563 0 0 0
340 1 12.590602490993842 9.205508629506866 10.220630691319615 0 0 0
589 1 12.195009515834863 7.540593715645425 12.215333146903314 0 0 0
430 1 12.746210371526589 5.658981871655954 10.165266299954382 0 0 0
339 1 14.158839973105477 8.498329178557006 12.816946702384433 0 0 0
436 1 14.416283474686965 5.395278413858057 12.003409181780919 0 0 0
465 1 14.295321461704242 7.18634051133957 10.731112269711463 0 0 0
558 1 12.8002830690934 5.821953927902188 13.639304976412932 0 0 0
467 1 16.392243082950728 6.776667880767696 12.908014440961338 0 0 0
499 1 16.299638740653947 8.577574522666422 10.724089596898684 0 0 0
434 1 16.37927586596224 5.760290774854975 10.642296848554563 0 0 0