LAMMPS data file via write_data, version 29 Oct 2020, timestep = 300000

2048 atoms
1 atom types

-0.03369035021668587 28.38569035021905 xlo xhi
-0.03369035021668587 28.38569035021905 ylo yhi
-0.03369035021668587 28.38569035021905 zlo zhi

Masses

1 58.933

Atoms # atomic

2031 1 2.319872863451902 3.475371795592587 1.245337320544976 0 0 2
927 1 4.01965289238798 1.2965651523779491 2.3993019046080777 -1 -1 0
1133 1 2.336736769657003 1.2964299142967977 4.108900737273143 0 1 1
1937 1 2.537074135743661 5.205428994580382 2.685172848075356 2 -2 2
1130 1 1.6160845219397395 3.0650038401950344 3.3816020229365336 -1 0 1
1844 1 26.122389728345105 14.033708163997211 12.777754060040593 -2 0 0
221 1 28.24169851592938 0.06690797306857996 0.42363444115137655 0 2 -1
1788 1 26.49273857094181 4.702489476893327 6.624057528541527 1 2 0
1758 1 21.89673271388324 0.23006717587142816 2.0903389030621544 -1 0 1
868 1 6.251788920586324 1.4590811874925018 2.769951905283418 0 2 0
944 1 7.282948343381722 0.6793307798188548 1.0093779889198191 1 1 0
763 1 4.995301711888143 4.539224592307978 4.808589506501016 2 2 1
1555 1 6.963108847022115 2.9483791910347397 0.23793999899212193 -1 1 1
976 1 20.8985157915563 0.10759318176421573 5.135086987535734 0 -1 -1
985 1 4.00983902367222 3.08096482385091 3.2470894395766696 1 -2 0
224 1 6.457285322994988 3.096952407785413 4.40769342548259 1 3 0
474 1 10.16375685716858 4.6378091761840174 3.721786761124605 0 0 0
1362 1 12.18402625492169 5.838240909452748 3.0695195209453905 2 0 1
915 1 8.993247419606844 3.8833947673531655 1.5736270882709125 0 1 1
1561 1 10.18174946102093 2.559786814870789 2.9060187235603223 0 2 1
1204 1 3.5772546136862684 9.291114553211967 1.0333455734038348 1 1 2
1720 1 9.277589698093431 1.4548694476429964 1.0860303686059651 -2 0 1
874 1 2.8419302541678473 1.3719877902724391 0.08727634415293067 1 1 0
922 1 14.936207047084764 2.955669913000282 3.9453530925231526 2 0 -2
1249 1 11.913085870611201 1.7704556884812737 1.785552967688811 0 2 -1
1950 1 5.021836006649236 2.0668361865181644 0.6921376742977807 2 1 -3
1316 1 14.145033190939182 5.693318675539938 5.803800079920566 1 1 0
605 1 14.356818997032871 4.891024476777589 3.6822457522838534 0 -2 1
393 1 10.400882381582862 0.41353269963423833 2.795220145194968 0 1 0
787 1 12.43106175941695 3.369533101444314 3.2749650107534176 2 0 0
495 1 14.564109100573498 3.5421113618396123 1.6091525329298277 -1 5 1
505 1 14.541083822269668 7.332333872631592 0.8295620963022111 -1 1 -1
1928 1 15.26609291665862 1.512577615238407 1.6136047017133146 -1 1 0
653 1 0.8298009261240269 13.092054867925066 0.6395887718475807 0 -1 -2
148 1 16.715964365349855 3.5896519210671602 2.5623484369619143 0 0 -2
1099 1 20.786777689436427 13.245356118944438 8.712523697294323 -1 1 -2
86 1 17.318398926095355 1.4411109139697704 1.726896123537671 3 -1 0
249 1 20.457110996561077 1.8078707463038082 4.042898828405248 0 2 0
262 1 15.708739446286078 0.23362320065548836 4.365989530188128 -1 -1 0
1442 1 1.31903844627174 0.9500739667774634 11.734507801816466 0 1 -1
252 1 18.96648505734411 3.076674261199758 2.3191805468333473 0 1 -5
717 1 19.570454676663033 0.5704179905131014 2.355040130829023 0 2 0
1330 1 2.6729270189712357 13.414670061756143 2.5187186254181717 1 0 -1
991 1 24.664952751689 3.6937434286055386 2.709108390969564 0 3 0
353 1 24.772158410201378 1.6907705650102602 3.425200779532224 -2 1 1
286 1 21.290414936649142 3.9480509884232675 1.6954238536831336 -1 1 -1
1510 1 22.77589287617326 0.23073445033710271 6.103355285838423 -1 2 0
1790 1 6.354516031216585 8.651392065754985 12.60668376482324 1 0 -1
23 1 22.4961730262066 2.4880599217293473 2.4028313643297214 1 -1 0
2030 1 26.95682973421728 1.8433104086933925 1.7323157202930513 -2 2 0
844 1 24.46032296289203 0.8672120088595991 1.3572115181555497 -1 4 0
1992 1 28.05614677843255 1.438437485348883 3.607726216858416 -2 1 2
128 1 28.32571321730645 3.605439569020205 4.692687841550533 -1 0 -1
1936 1 25.97138906855556 12.089278947661224 8.827148496930047 0 1 1
68 1 28.381663512347416 3.6452358449210225 2.0605862994083304 -1 -1 1
1079 1 1.5245852138715832 1.4017370840772012 1.6772261828323882 3 2 -2
522 1 26.0707080060194 1.9758409850258567 5.6018984635840665 -2 0 0
2024 1 16.07531431259725 5.632690333246676 2.11084681326415 1 0 4
814 1 2.444442576955382 5.249730261465777 4.811537299524964 0 -1 2
1908 1 27.368077066237063 5.458539694319701 4.402781105416471 0 2 1
50 1 2.3221127499398264 7.9152477729372785 3.5841176542078554 1 2 0
1444 1 17.019561742283393 13.706751265507162 4.335561580909493 1 -2 1
1026 1 17.543958389197655 4.49108940764778 0.6141381418600009 -1 0 -2
208 1 3.8427086848163645 7.126896692065781 1.8921947569185733 0 1 1
417 1 0.4013841460862188 5.895149399934359 2.4058527627572253 0 -1 1
837 1 4.243536724812514 7.070867974286753 4.353330181444612 -1 -1 -1
1355 1 21.093737101894888 3.6685526492772818 12.346592264592763 0 1 4
996 1 5.3360461350803075 5.58742772341209 2.948518088165836 -1 -3 0
1522 1 6.626796276054062 7.694189647098253 3.735072670260932 -1 2 2
567 1 5.830504105990477 7.363926857437987 0.952047629390405 -2 -1 1
222 1 8.680608945683444 9.767471500263856 0.19724441926957376 2 -1 0
2026 1 6.911698460827557 3.9521722580370833 2.3508753798897444 0 1 -2
1129 1 8.129377961592125 8.483808433050909 2.076346871165816 0 0 3
726 1 6.887681264698185 5.248297360512441 0.6465961983090207 0 0 -1
1591 1 20.284249745373977 0.5926970783966388 7.4984651566325935 0 1 1
1683 1 8.188189400197016 6.249956255848045 2.367215011934986 0 1 1
693 1 10.456170136093867 7.758851001482705 2.7944999961265187 1 -2 1
621 1 10.57236952660452 6.675133105323893 5.26424967081216 -2 -2 0
988 1 10.206853621588701 5.8700424704030265 1.8702101235840183 -1 0 0
1531 1 12.364791188850722 7.785601812552409 1.9897305130000973 -1 -3 1
620 1 10.404231405991583 8.395564005773684 0.7794142571178041 -1 0 -2
613 1 15.107214109471384 1.1146191797211114 9.378313840140851 -3 0 0
436 1 13.01981278453555 5.313413069465049 0.9674234556196522 2 -1 -4
130 1 12.54913589833335 7.375015040893105 4.973573309105614 1 2 -1
578 1 16.234551523970957 6.695484723253835 4.072240823352002 0 1 0
74 1 12.871338447409888 9.350825489076906 3.704715253156763 -2 -1 0
484 1 14.437360726595271 7.295646078962702 3.0240690021132606 2 -1 -1
1498 1 10.902780664932964 9.09932029522935 5.215067306841238 3 0 1
1210 1 21.793561273369534 13.426670708442579 3.637201790164407 -3 -1 -1
341 1 18.19012271531154 6.87835535907251 1.5256647306756437 1 1 2
1071 1 18.11087642865307 3.5696265709581403 4.632716168130625 0 1 -1
1897 1 19.185373358439904 7.33022611612089 3.97336315885806 0 1 1
1525 1 18.107304660479826 5.4833419219705375 3.2007628531274714 2 1 1
871 1 16.401168735733407 8.193723096754285 2.1420153886550173 0 0 1
1907 1 20.137480267942408 5.596750494120318 2.5639124146480663 -1 0 1
942 1 15.298232710252892 9.770723319956732 6.231996796152594 2 -2 2
44 1 18.311832344689705 9.279559051010844 3.7930724812811305 1 0 -1
902 1 18.24344030973591 12.751938926646707 9.55630291206817 1 0 0
1703 1 20.373836185237217 3.8049285050420067 4.597138688676281 -2 1 2
525 1 22.839433854877754 5.544779655633754 2.4285948533982933 -2 0 2
1712 1 21.75293165490934 6.215089901614895 4.36374952025436 -1 -2 0
929 1 21.567994649843598 7.39573747483652 1.5841232111979948 1 2 0
831 1 19.857769537703803 8.753655381804366 2.148388135423767 -1 0 1
1723 1 22.147511757906855 8.726547200290133 4.006570466595507 0 0 1
1806 1 0.40540206697780945 7.586166564654721 4.441859384540005 2 2 0
1058 1 24.839956956946416 5.845763446819855 3.444641918144354 -2 2 0
863 1 26.527045020216775 5.343576255933942 2.072284102949527 2 0 0
1052 1 26.06112334764827 7.454099567168418 2.49055739338788 -1 2 2
197 1 26.343631848823243 3.4187783499824773 3.6146874984547037 -2 0 -2
1121 1 23.98628971468056 7.016446085866333 0.7648715902699008 -2 0 0
1051 1 0.4326975526854658 12.615352119262637 4.458235078135378 -1 2 2
1590 1 1.2765601917449694 10.04540165159099 4.710711669418159 0 0 2
878 1 1.8261162858528726 9.761882739733377 2.186908098697404 0 -2 0
909 1 2.630461914608255 11.651116092391888 0.2622911089780354 1 0 4
912 1 0.4887446550212605 11.795747066125175 2.284406333567827 0 0 1
520 1 3.804982905119199 12.591644465748542 4.103729733916821 2 -1 -1
1196 1 9.107731450876761 1.8780431069192496 9.799687703822368 2 2 1
1145 1 1.7019432891972301 7.529541622991117 1.0188276076631109 2 -1 1
483 1 8.294794669921107 2.3315769172105556 3.508956949235387 0 -1 0
66 1 7.174076589377435 9.782995952577854 4.2207176615352235 0 1 -1
1380 1 7.156704880726308 11.72742274810555 0.1918901910550003 1 3 -1
490 1 5.02905759822773 8.577030582233709 3.1945482003849635 -3 2 3
1661 1 5.4473328895394575 10.839540328060302 3.5843943845230597 0 2 -1
1565 1 5.860577913019961 9.869778703871246 1.3040244121861322 2 1 2
1219 1 6.966741555153164 13.002041329189618 2.187912436345079 -3 0 0
1190 1 5.906604062849569 13.585757067857667 4.027039201945304 -1 2 -2
1651 1 4.562711530251238 11.771355724535177 1.7801279118227935 -1 -1 3
415 1 11.746492954178983 12.980847219364597 1.094444443224046 0 0 0
1841 1 2.5703140723425784 0.09100884438510383 8.053724751601242 2 1 3
93 1 7.767185453524212 10.70933646244479 2.1744031092618434 -1 0 0
15 1 10.02734884676608 12.399678990240275 8.706979243508943 -1 -1 1
427 1 8.914115431590318 9.860839570946029 5.166868855260022 -2 0 2
366 1 9.729965626248143 11.407555150373224 1.2098995627020221 -4 0 3
556 1 9.684126680723898 11.773701019841571 4.696364553973744 2 0 -1
1175 1 11.275775651731424 12.276398807414132 3.150862263096501 2 -1 0
1060 1 10.127080377784077 9.856699312281933 2.906763903274123 1 1 1
1139 1 13.610409775807925 12.771583684815933 2.380418142110046 1 0 0
106 1 16.554871071384312 7.621992794287109 12.286991570111635 -1 -1 -1
936 1 14.217892051250773 9.538212121193277 1.6831094714956265 -1 -4 5
784 1 14.556493704039417 0.4691916650355983 11.263911904374886 -1 -1 -2
1420 1 12.003115817526808 10.442468409819703 1.2227076696903134 1 1 0
471 1 0.9296112232637933 10.091575664405346 0.2075915727987801 1 -1 2
1250 1 11.971495855749552 10.925252272141936 5.122719732643145 -1 0 0
1372 1 14.237075515779813 11.37708475201624 4.676753673033074 2 -1 1
962 1 17.479801618536676 10.359794798835967 1.8779792419170607 -1 -1 2
134 1 15.867534586954847 11.480405759165635 2.81829232687437 -1 0 0
345 1 15.61526447075 9.407771726902302 3.5179223787542715 2 -1 1
123 1 18.014058542444353 13.017582071242982 2.5477218694024653 1 -1 1
2044 1 17.25109536599686 8.295977428523335 5.622741209334171 1 1 1
1944 1 19.852271895325444 5.259859418524781 0.20481439055485148 1 0 3
479 1 23.062952163993536 0.870254905379269 10.845864687961528 0 1 0
344 1 17.122248714333438 12.75472249047908 6.553327619423258 0 0 0
358 1 20.062879753398782 13.647162743426275 2.3714074346682925 2 1 2
1764 1 22.10382860382667 10.941929285451478 2.869999625634124 1 1 2
1779 1 19.780712370654683 11.397210390227055 2.4363962941228223 0 1 0
357 1 22.866493290887348 12.69061590107633 1.48275293883725 -2 1 0
1158 1 21.222963810507068 9.86953706246769 0.4536440412107966 -1 1 2
1415 1 23.15151025172878 9.379098769026392 1.6020421641100604 -1 -1 2
1617 1 18.175502793550635 11.65390463137731 4.0745462972508095 -2 0 1
677 1 23.586273604586076 7.631956625027125 2.8920508798358773 0 1 -1
1650 1 7.490730485486804 7.0550084997539955 13.739792477438932 2 0 -2
2035 1 26.743212627158684 3.4572868325052637 0.25020380015411603 1 -2 1
1926 1 24.74397800032594 11.097449906048915 1.0362582461293013 0 -2 -1
945 1 23.97069899150452 12.084999798776057 3.4224069988798242 0 -1 0
669 1 24.734098173533923 10.084837184002287 3.043905462479943 -2 -1 1
1809 1 28.060133556928143 8.692973981659797 2.669432091056958 1 4 1
811 1 26.831902036947454 13.04886926777248 1.427308353073824 -2 1 0
885 1 24.528216575928873 10.437800498366677 5.135667599551381 0 1 0
551 1 27.67593282729883 2.7566395615813333 7.1270119916631005 -2 1 0
532 1 27.068176316088568 10.392669429097822 2.0032910635399572 1 0 1
1314 1 24.946344505604472 9.040143059902677 0.3571432403368368 -1 0 0
255 1 5.050235331679038 1.193926710542017 4.729327966658358 1 0 2
1424 1 17.433328905664744 12.438066335649333 14.097781123711066 -1 3 2
1745 1 3.122414014904164 3.096926838600025 5.473829133733199 0 1 0
643 1 3.1958124545360156 2.6205847211545827 8.142233663657091 1 2 1
590 1 24.333939680521958 13.215506977182285 13.97197013650725 0 0 0
1890 1 1.2134024232262872 4.471292817950834 6.206779719664967 -2 0 0
1906 1 0.377642171947914 0.5952663110337069 7.639148414013577 0 0 2
692 1 7.535108574382345 5.177353643094299 4.278057058074027 1 2 0
1520 1 5.930441020566508 0.9011557924825088 6.8370814220198435 0 0 2
1090 1 13.137335477824502 2.7570325376218188 7.493908685381521 -1 1 3
736 1 7.405439797552916 3.1939005506210982 6.677392804105156 0 0 1
781 1 0.8126241073065379 11.288988724460582 14.102242520610158 1 -1 -2
562 1 4.922164451636703 2.7432181855841566 6.731751795297232 -3 1 1
711 1 4.657854663891949 0.7784649787182275 9.361620137271778 0 1 1
720 1 7.000279163955155 1.8516351239991546 8.737809443167079 2 1 -1
1503 1 21.06428120227045 1.684246972384743 0.6090523329835748 1 1 -1
1449 1 5.176553977944395 3.4764455002557817 9.231262907912422 1 1 0
1053 1 27.126963310524125 10.74078212493422 10.591143004707579 0 2 1
170 1 11.347923543083253 4.368060244774563 7.947400692023126 2 1 -2
1680 1 4.099274459174391 -0.01256696081355102 12.485907122089484 2 -1 2
408 1 9.480544273014985 1.8212639898110212 6.970499469339048 2 1 -1
1869 1 11.78999431403164 0.9864022609419589 6.499569634333504 0 0 2
226 1 8.886828680630124 3.385683493244226 5.1609150262482055 -1 0 -1
557 1 2.288623192756037 5.234856901772121 12.060597044159136 2 0 2
1721 1 15.180233630636721 3.434078789915738 7.679101570440389 1 1 -1
432 1 11.183648009778075 3.4400929742117743 5.567884036104444 1 1 -1
597 1 13.552797007376462 3.8375583478287743 5.63044496474348 -1 0 2
122 1 15.925529939844505 1.0503377826697051 6.733263072948076 0 1 0
2011 1 18.211214990455574 3.433274451788271 8.634294139827347 2 0 -2
113 1 16.101488872454176 2.6769543539373504 10.542519972520184 1 2 0
1436 1 12.087637939245937 5.487976882413301 6.264270707778627 1 -1 -3
1708 1 14.111765224192414 1.4542978558039863 5.567433512231358 -1 0 1
768 1 15.861411360166496 4.414712340328089 5.292223922979686 -1 1 2
901 1 16.82872951495144 2.7473021918335636 6.1965051089067895 1 1 2
576 1 19.33236719841308 2.4282738045061913 6.614236214915611 0 0 0
1541 1 20.22893733330136 2.3228509400318544 9.052445816422603 3 2 -1
374 1 17.87209265255097 1.3960464501813585 9.199064143250688 -1 2 0
1103 1 18.485056283295926 2.722331926141494 11.251060965645879 0 2 -1
1418 1 17.868018781324352 4.684262437676544 10.565806619600188 -2 2 2
1080 1 9.656419946925608 13.431200780867123 11.056128016652899 1 1 0
325 1 19.197278169778507 11.987319116777378 11.46732190992927 1 0 -2
447 1 16.850481389222693 0.5190507600065528 11.189246708591781 0 0 -1
764 1 22.799909599990784 1.745205866733779 4.461306891541086 0 1 0
812 1 21.93254012039361 1.785538905327547 8.36422551991971 -1 -1 2
1063 1 21.46026720362193 2.0103913361488126 5.8346947819018915 1 0 0
712 1 22.99507397056827 4.573298824693076 4.279440218104928 -1 0 -1
1577 1 23.391399161756013 3.783895057460535 8.136834525843922 -1 0 -1
1038 1 1.7133195441218356 1.9130038239152012 6.739955163102989 3 0 -3
1327 1 25.40468388705095 3.0053571346421912 7.717402147367031 -1 3 1
973 1 26.391342621171688 0.3758043683386819 7.294069971241589 -1 1 4
1660 1 26.86789210998507 1.3215320353640414 9.184790926887793 1 2 1
1605 1 23.933350122203052 2.433936363527178 6.207759840102403 -2 0 1
1521 1 24.85029130069133 4.182624648607425 5.30620616122706 -1 1 -1
1569 1 0.08755248073437538 6.235783656758117 6.220816417971148 -2 1 1
1201 1 2.4730948975224907 4.581290515637125 8.079110354296228 3 -1 -1
198 1 0.4303724437811668 8.683181989559758 6.300278512464881 -1 0 -1
698 1 2.4648645343422295 7.977275104365132 5.7130542148102785 -2 1 0
1704 1 -0.006085943624562162 5.084846816035173 8.33267547875873 0 1 -2
1183 1 27.620959035582565 7.646850611277442 7.812723976985979 -1 1 1
1872 1 3.922235480586531 5.793970668981115 6.223953353721463 0 2 -1
899 1 4.108473102704972 7.709576461170788 7.344770698232529 1 1 3
1604 1 5.791504465534927 4.907770893234865 7.403442250160454 0 -1 2
725 1 6.170061653858704 7.060088300774632 8.108644640498714 0 -2 3
1010 1 5.896219224813393 6.720554026457039 5.603355107315774 0 -1 0
1911 1 8.932651411659823 9.543007803936039 7.565248412854925 2 -2 2
179 1 7.095102303848621 8.519784375317064 6.621995159746279 -1 2 1
1652 1 5.258355078847393 9.448563752787054 7.710775241240708 4 0 -1
1829 1 8.680061951165118 7.418604462658715 4.625223356631566 0 0 2
1621 1 7.787350797375592 5.9918713528889 6.547367626344902 -2 1 -1
728 1 10.70711200570935 7.3705812059176665 8.6537368218636 1 -2 2
488 1 12.326067694616901 8.716005281850295 6.977985658504792 0 3 2
1993 1 9.761456270817819 4.924244679604429 6.312743968442638 1 3 0
472 1 9.401338656059817 3.294536728557147 8.426684013533492 0 0 -1
405 1 9.335969025055512 7.568499416967324 6.923433277620524 1 0 -1
1644 1 7.115151172940757 10.009352820340307 8.656479843310219 1 3 1
304 1 11.62816613813103 2.9769030687413616 9.40841275557165 2 0 1
1067 1 7.4046342855168374 4.238374773684935 8.710222420689437 0 -1 0
1836 1 13.307129244488253 6.859727709617819 7.760836572902369 -1 1 1
25 1 13.80776403786075 4.9576684609447685 8.159142788236718 0 1 0
1542 1 10.956966423608067 5.364309613966545 9.716844120876507 -1 2 0
65 1 12.740814942625496 8.396055671479576 9.430813170890353 -1 -1 1
1050 1 17.986946079163616 4.523865789360972 6.962535197554447 1 4 1
29 1 13.46428484894411 10.959338628089203 6.747986522664801 3 -1 -1
1460 1 19.984529797755634 5.787898383316447 5.384030125551919 -2 -1 0
1620 1 17.921906306542397 6.228109006036222 5.599806527334358 1 1 1
278 1 14.512721027733914 8.168415979542523 5.355421797191599 1 -1 1
779 1 18.30041866411625 6.458680430663511 7.847770373887754 -2 1 0
1165 1 19.634339350738763 7.725722997357067 6.529982241833723 -1 2 -1
1691 1 19.831936710910952 4.368797441822369 7.207680591935847 0 1 -1
1245 1 19.085087007138583 7.289714440804268 10.15225786755332 0 1 0
162 1 22.71063884788647 9.781443827285036 8.38096843221463 -1 1 0
509 1 20.11120122648228 6.188381653915314 8.902145315222894 2 0 0
1391 1 17.389052096319972 11.214998152126014 12.300201007248875 1 4 3
1411 1 21.26200094056268 6.210145414512858 7.116591163747641 0 -1 -1
1197 1 22.029820515008666 3.9830740312627544 6.455865604198658 -2 0 1
1382 1 26.626586156883143 9.256734439121084 4.353583716752729 -1 0 -1
1894 1 23.761111185656134 8.408701443517959 6.866808462617397 1 0 2
307 1 21.614399875643137 7.969443089320162 5.886145435635478 1 0 1
963 1 21.40664437877369 4.520090453263804 8.867842454201334 1 0 3
919 1 24.97125342352455 10.492806119014789 10.094950651662304 1 -1 0
2000 1 26.073125892123542 9.028401127716961 6.607132940343744 -2 -2 0
564 1 26.634942177477384 7.27822067969878 5.2512734492733335 -2 1 1
744 1 0.32854743660906366 9.551444864688541 9.287968773646666 -1 1 2
56 1 23.59808999509606 6.371620957660083 5.693433013504968 -1 -1 -2
1266 1 25.606126245818565 6.759643122104894 7.3511935435624265 0 2 -1
1243 1 26.481199997493142 8.538205765805742 9.502957825765273 -2 0 -1
228 1 23.31276101537972 5.786191323566846 7.984324297042114 -1 -3 1
1108 1 5.101624576158752 9.06077460028202 5.268780573180306 0 -1 0
284 1 2.0231558565916763 8.401084060961832 8.821080776648047 0 1 -1
503 1 1.9292325262192767 11.024600877055258 8.650424503534968 1 -1 0
1756 1 3.5043546850155933 10.218355817793087 4.453151216234293 2 0 2
2013 1 27.270684016940194 7.893816551402093 0.6781874541684524 -1 -1 3
1029 1 8.22963792816456 7.490091789720517 0.16171001563596302 0 -1 1
1537 1 3.873408408388665 11.15970608967 7.35477281674589 2 -1 1
1074 1 4.577495286280634 13.218512793822878 6.0842929952402365 0 0 4
1488 1 2.386588171191947 9.906147576109317 6.523082582341975 1 1 0
137 1 7.466222654722354 12.133311786748619 4.085773151901566 0 -3 0
181 1 6.299859556909551 12.165545264351483 10.269489329766762 1 -1 1
527 1 2.626691609432638 12.126318624456921 5.834659087067928 0 -2 1
510 1 7.981529400745735 12.976183131426552 8.013743290943609 -1 -1 0
11 1 5.602249574561619 11.08378832884767 5.804155345973943 -1 0 -3
704 1 7.738392512252943 11.238173042080875 6.430998070300153 -1 -1 1
1597 1 5.427226763275216 12.44062822701697 8.170116836273001 1 1 2
895 1 7.230747007189026 13.171400149557368 6.229999602524322 2 2 1
1328 1 15.285721978500943 13.74343816754668 10.908944465973578 0 0 0
1676 1 12.231196658488352 10.713593740618455 8.800325709085909 1 -1 2
1464 1 11.656511146634 12.723651150196924 7.334015322774498 0 2 0
546 1 9.335448650303626 13.365722332248977 2.8076155388162753 -1 1 0
1215 1 9.561640637325436 12.846756256406591 6.649452227559302 0 -1 -2
1070 1 10.379325987406043 10.814192308049481 6.959078121301054 0 0 -1
251 1 16.878754915273582 12.25560576555179 0.2527560491948728 2 1 -2
680 1 10.515143685872061 5.865626270036127 13.329963105282884 0 -2 -1
254 1 17.288495999312445 8.396311434326893 7.843366525638742 -2 1 1
451 1 14.340698780040105 9.39274615101177 7.93471567150512 -2 0 0
2005 1 14.903402281307063 12.604484920499145 6.390342090525428 2 -1 0
1710 1 12.533811174401885 12.80682902457339 5.027442946993117 0 2 1
730 1 14.42426749248394 11.471889294051243 8.709337923240978 2 -1 -1
1004 1 13.387543647493056 9.94790108136617 11.17985472034402 0 0 -2
1095 1 19.04641135772247 12.47354298253747 7.285026368930477 -2 -1 1
412 1 18.714223288160944 10.698775424768382 6.138393971333834 2 3 1
1435 1 15.726217303261535 14.05499819138752 13.517085268007223 -2 1 0
1988 1 16.737071578321206 10.930326823357179 5.288562984322262 1 -1 -1
229 1 16.356889478075743 11.042490799373763 7.572510373536851 -2 1 0
1889 1 19.578715068547403 13.51316387851413 4.534860394558454 -1 3 0
1015 1 19.11846798533861 9.399690668053482 8.040386392348672 0 0 -2
1552 1 21.99024872258161 12.891291020927286 6.765070074519962 1 1 1
1898 1 19.96076925132501 10.967129737940311 9.50380843261294 0 1 4
983 1 20.901458091056085 11.942965024347531 5.025796333494355 -1 0 -1
1796 1 20.149397262065875 9.687899467509157 4.753020991697233 -1 0 1
227 1 24.35894990030647 11.196054114461475 7.515840546290295 -1 0 2
392 1 22.460702745768003 10.192289907194949 5.6830644565562 0 1 0
700 1 23.7762666259663 12.558853146055851 5.465046701129623 0 0 -1
1340 1 21.038639324088315 10.755700037304916 7.245960305239504 1 2 1
333 1 28.187962470606394 12.947176312720975 6.662398817987699 0 0 -1
459 1 26.1150757094369 11.813001910614357 3.2796669887364707 -1 -1 -2
1260 1 0.4274398005634411 10.825648259118449 7.041300830199212 0 1 1
1066 1 27.00681853997056 11.201067214061178 5.203152912781962 0 3 -2
675 1 24.47336432934072 8.311723159662822 4.837343011219096 -1 -1 0
1361 1 26.922160830205904 10.285335619410443 7.842261910145871 -1 0 0
1828 1 17.78215458274981 2.6511348454861214 13.90655072716462 0 -1 -1
981 1 0.048595553595141505 3.230697749110013 12.52160798488635 -2 -1 1
223 1 0.8724742570585384 3.1307781025485046 8.591688672891106 1 1 -2
1325 1 0.3301723742573193 5.887950766723757 12.28578152267905 0 -2 -1
1719 1 23.719220757428168 9.373160004530957 13.020313765283156 -1 -1 0
1732 1 27.286353707697216 1.176678463762744 13.598333512465246 -3 3 -2
1278 1 2.6536532008677454 2.7523216583563217 12.433656776410048 -1 0 0
1910 1 0.9225023940044574 3.9342696153484424 10.678785717682038 0 1 1
797 1 3.4474919994023874 4.465453082302853 10.27717598481692 1 -2 0
1461 1 28.047749055856215 2.1511599027504302 10.703055064222657 -1 -2 2
794 1 7.1666719956003035 11.251476917235285 12.390871097698973 0 -1 -1
573 1 19.921582033998128 8.366479695754348 12.491158474192048 1 -2 0
1568 1 1.7282055549622355 1.5363663602586173 9.488647056539099 0 0 1
1235 1 6.243711390164234 3.1055378607424924 11.430491039311372 3 0 1
1368 1 6.5502101901004774 0.8544554369884408 10.664633475841763 2 2 0
738 1 8.633155593310839 1.3671468959985933 11.914176076641354 1 1 1
1918 1 3.984636243456859 2.0568953834552293 11.001965325918142 -2 -1 2
1138 1 19.587107693020947 1.6904674883898543 12.886878468692583 0 0 1
1827 1 8.264711339312868 4.714656823451042 12.73593346540216 -1 0 0
1725 1 7.414816127778856 2.70386457000733 13.966924734729444 0 1 1
1596 1 4.408551630367868 4.427323073878539 12.355422804680998 0 3 0
780 1 18.774232473898905 13.430284246306245 0.07199885196757065 -2 1 -1
1194 1 19.10203233045381 4.433476727569189 13.423201289544622 0 1 0
1476 1 10.000296082459693 3.0216819498176686 12.74978879996151 -2 1 1
1064 1 12.434149539233903 2.4798864130437934 11.506028366261177 1 1 0
80 1 24.794778845402703 4.392856809869009 0.43328572986772035 -2 -1 -1
76 1 11.173566296829613 0.7524370167711968 10.618675406329562 -2 0 -1
953 1 11.368489478754187 0.7030263012056617 8.469783838916893 -2 1 0
1105 1 11.259995218711765 1.2191083436635481 13.591952266645798 1 0 1
446 1 8.583375437014581 10.264353748374985 13.673817109319387 -1 -1 0
1899 1 25.022219973621176 7.484179532672348 13.75042645780371 -1 0 0
12 1 14.04028633232383 3.271586455763923 9.798582420719795 -1 2 1
1976 1 13.63158130035612 1.6668022267075455 13.11832916030147 3 1 2
637 1 13.315433624367236 4.261942331353974 13.636339087166615 1 0 1
1681 1 14.929562783358332 5.857342969614004 13.15205168623075 0 -1 -2
1570 1 16.631657482475838 4.394048725023852 12.617545557481503 -1 -1 -1
437 1 23.105560319619286 2.2196600100839436 0.14335284123752304 -1 1 -1
143 1 22.913501315468118 12.303821293003129 9.091282411820963 -1 0 0
1998 1 14.469457617032507 3.41983785012061 12.005041134101983 1 0 1
1222 1 20.024580750951138 4.103752386538348 10.568807442003973 0 0 0
264 1 4.86578996312945 4.220670071363609 1.2869895566246436 2 0 1
880 1 16.175771233875352 1.1245510217852779 13.235202889215682 0 -1 -1
1246 1 21.82380965661749 0.748005916099699 13.181687218108483 1 0 0
937 1 8.289777778338232 12.948197074947645 12.436099465942563 0 0 1
746 1 13.440437333877703 13.487187332130375 8.072136235499178 -1 -1 2
1729 1 24.548280330887593 11.234636878355014 13.009683882248206 0 1 0
2021 1 11.339525840704125 3.985157904306929 1.286393528741991 1 1 2
340 1 21.063257309286087 1.55939852817607 11.038856853731732 1 2 0
579 1 24.52328827115975 4.436159362762936 11.90516160035162 0 -1 1
1664 1 23.75756389053354 0.4059316411751117 8.38121077679877 1 0 -1
1842 1 21.346860411520915 12.707574502665677 10.788393796122595 0 1 1
799 1 27.489787259662677 7.294203135440304 14.169207864430149 1 0 2
756 1 22.818510372711636 3.5424932266097127 10.432633390556068 0 1 0
1429 1 23.560550338976434 2.440809195028226 12.302228541438888 -1 0 -2
660 1 13.83257276317794 0.8714655461497072 3.1882982523023213 1 1 1
1149 1 7.173777866448396 1.0088823660010566 5.143056000951422 2 2 -4
1344 1 2.073127336690132 9.5434151216145 13.071913695252183 2 1 0
550 1 5.179962046039014 13.766464073449455 1.1581227095892395 -1 0 -1
1396 1 17.899820294294337 1.489621238154424 3.837603358318681 -1 0 -1
1931 1 28.0335352661126 0.7660747232514435 5.660662891258267 0 0 2
467 1 26.908114946049835 3.690850960662554 9.320675789254613 0 -1 0
1317 1 25.045774215697257 2.3839041103410232 9.937069641307366 2 2 -1
758 1 24.71818552591842 0.7754180051062393 14.023853688722951 0 0 -1
1 1 25.691325750359617 3.118125440655594 13.962909723868153 -1 1 -2
1036 1 26.06530477190673 2.5120707353319096 11.705683069273366 1 -1 0
1238 1 28.170162573945845 12.089078031626617 9.368391234972034 -1 0 4
120 1 1.8166239398091377 6.724053304276847 7.544282360703672 1 -1 0
1094 1 4.2358283987232745 8.270738204484402 9.516821098222927 1 3 -1
196 1 26.95094545992078 4.514285057972182 11.14650882520051 -1 -2 1
848 1 1.4429123226086809 5.712410751785838 9.776125540761827 1 2 2
658 1 27.06432278648675 7.556399601024528 11.597984858641583 0 -2 -1
645 1 3.8256373799511834 5.827889477087655 8.936697033267619 -1 0 0
1629 1 2.8154203522928456 9.483362635534881 10.623113771810583 1 -1 0
790 1 2.1458377404979654 7.4034848782167195 11.134943697831666 2 -2 1
888 1 4.30419453036733 6.411232714689447 11.41024446314375 -1 -1 -1
946 1 3.093001559447135 7.161206961864538 13.276158264801117 0 -1 0
348 1 7.626051261728174 5.788307404075947 10.177459114439403 1 1 1
2047 1 6.137104468348798 5.762059050168305 12.62311784972765 2 2 0
743 1 5.565983293564192 9.913920514655675 10.833296143053088 0 1 0
1886 1 5.717839517185125 5.271126909293965 10.49583061934368 1 1 2
166 1 6.571633968485484 7.7195746509062815 10.349481493197846 2 0 -1
1972 1 8.889451055515815 7.801630740628893 12.382218667837904 1 0 2
555 1 8.388448696753251 7.87417254913777 9.560419606851157 -2 -1 0
816 1 27.158677829136288 9.447202193992323 13.020421923077507 -1 0 -1
1588 1 4.303676547912168 8.438085497146533 11.991221051063993 0 -1 -1
243 1 11.670513023815303 1.0747826203350308 4.462596643616706 -1 2 0
449 1 18.063121920225434 0.6506149882199035 6.91335469427327 -1 -1 0
371 1 9.44170467098366 3.684225886314545 10.654040868771483 -2 0 0
1350 1 9.110209859008354 5.575716610723849 8.595560820473533 1 0 1
572 1 14.734384361095652 13.649225509840875 4.2500222051142496 -1 0 3
145 1 18.2092290837536 8.861465136917905 0.31303949064326886 0 -2 0
1390 1 11.74713279274777 4.6803011519755655 11.780301551811098 1 0 0
1964 1 10.449978897382852 9.90171170104743 9.189976755925107 2 -2 -1
1208 1 25.06233534893512 12.463341490842831 11.095828878783545 0 -1 -1
1402 1 20.85692821932568 6.718500139511551 13.922702901109812 2 0 1
1819 1 9.61407391019216 5.722010583054908 11.314266396667245 0 1 0
771 1 10.718182045332648 7.8101696991742955 10.809618938368168 1 -1 2
667 1 14.171288596420153 5.389525407718518 11.037708967662466 0 -2 1
1682 1 12.43162941057626 6.749575468223572 12.200754428448686 2 2 -1
935 1 15.632777625365431 6.761317237508146 7.159218163109554 -1 2 0
2022 1 16.156584102401006 6.006685418841192 11.153247613600053 -2 -1 -2
1253 1 13.37685522874702 8.632325685118662 12.854271675683604 -1 -1 -1