LAMMPS data file via write_data, version 29 Oct 2020, timestep = 300000

2048 atoms
1 atom types

0.011737411644149987 28.340262588354808 xlo xhi
0.011737411644149987 28.340262588354808 ylo yhi
0.011737411644149987 28.340262588354808 zlo zhi

Masses

1 58.933

Atoms # atomic

1506 1 0.22023665425047056 4.455766224197639 1.308214721649224 1 1 0
1639 1 3.241686329074406 2.6820089272485865 1.0583450660466545 0 0 1
233 1 1.8255750426163997 3.1990183323308603 2.947980084099925 0 2 0
401 1 1.600517434930204 1.4973793706953082 4.610099870469384 0 0 0
636 1 0.8525232942083871 2.4175169954327638 0.7062940322078322 1 0 1
1887 1 3.4106229536949844 1.2894080477293495 2.814333665906196 0 0 0
830 1 1.0328171276042613 1.1188526092787037 2.3630426412321137 0 -1 0
718 1 5.325895039301053 3.1353923033811784 1.5828260446573437 0 0 1
896 1 4.326795851525557 2.889214859969255 4.245628770075884 1 1 0
399 1 7.886711098957729 1.9350374152395793 2.0665685274259076 0 0 0
987 1 5.825177903941893 1.2551752068811275 3.200417206909791 0 0 2
1829 1 6.919267100522727 3.0840361605002955 3.511953162385224 0 0 1
234 1 7.907797142503842 0.9053434280054949 4.456272693037648 0 0 -1
483 1 4.556606012599817 0.866420202539397 0.951992605726412 0 1 1
1005 1 6.700248935896184 1.9405423135430933 0.19948100980987826 2 1 0
1014 1 9.539222171909495 3.633829961439004 3.6992173878807177 1 1 0
703 1 10.237075718590116 0.8098786593112399 3.5290437676321273 -1 0 0
686 1 10.275568468766375 2.3027041248905538 1.7638969023690447 0 -1 1
246 1 10.717014242216099 4.669289625304088 1.3441052121383914 0 0 0
1731 1 8.69986093112647 4.013274997708554 1.7399089306605795 1 0 1
1761 1 12.228412305919994 3.696443058651645 3.816287999186381 0 0 0
240 1 14.559157516473777 2.8577806483095785 3.3704647285536287 -1 0 0
1856 1 15.69594969932906 4.039935669089065 1.1856517681139986 0 0 0
263 1 12.288128217483434 2.762230222763104 1.7515732240843183 1 0 0
1942 1 12.660561993117664 1.1555194659325971 3.32858735082765 1 1 1
1412 1 12.734667003686313 0.6294404050832503 0.8419177375726752 0 0 2
1818 1 14.28812310808601 1.8714218143521544 0.9419882980294713 0 0 0
1360 1 14.851331208841778 0.2882061661286717 3.2965418451192594 -1 1 0
75 1 17.589918238652338 2.499563959236092 0.2943381331495126 1 0 0
698 1 18.796185278927318 3.9596286128786873 1.5624470562999435 0 1 0
1931 1 16.970941236482275 1.0555256550221388 2.545925576320755 0 0 1
321 1 16.899386252675527 3.198934837828329 3.216432050693216 -1 1 0
1598 1 19.138925931420864 1.9785253665217237 2.357290752613119 0 1 1
1842 1 16.702328139297258 1.3499363883041362 4.665767252191054 0 0 0
1952 1 19.231964710319055 4.217963490561323 3.715088467529421 0 0 0
87 1 22.605347383692816 1.3532742464854126 3.579440191320487 0 -1 1
1546 1 21.47719603932528 3.091674581048838 2.210060252965766 -1 0 0
1555 1 20.529106076893136 1.9093997049387055 0.3827106018412251 -1 1 1
1899 1 23.723246189697022 4.008200030892802 1.1971469445719014 0 0 1
1683 1 21.066647436209927 4.46605380706197 0.31495625740701644 0 0 0
1619 1 20.53678885790484 2.1733200017016907 3.962614111761999 0 1 1
534 1 21.77553355907144 4.24719721237255 4.268915209421333 -1 0 1
1495 1 23.95622789766354 3.4157383395957823 3.6883466228557684 0 1 0
815 1 23.569940082923637 0.5609467837064845 1.686686413873699 0 1 2
1212 1 21.27185527837809 0.644822550202657 1.7800894978371162 -1 1 1
416 1 27.300461633051356 1.8067734614156297 1.9420354915959719 0 0 1
1868 1 28.103737008887343 3.4052800485194825 3.3175380317066017 -2 1 0
1748 1 26.00273297612148 4.45401429472986 0.6279758672080032 -1 1 1
2042 1 25.16763320319349 2.2329596205572275 1.4247969575241715 0 1 1
1391 1 26.093022934832874 2.8909434795002213 3.5739660087413605 1 2 1
9 1 25.07215178172136 0.8631223972906065 3.2570622017667805 -2 -1 2
538 1 26.17881588666596 0.05625922241138426 1.7501433772875 0 -1 1
1807 1 27.2698710168658 0.19192812518884203 3.94840548326048 -1 0 2
322 1 2.2066889101812874 4.9525451981815465 1.75157199134592 -1 0 0
273 1 0.5098430109714948 6.978008567376877 1.4572955629607922 -1 1 0
824 1 2.8251951406929408 4.926817807707071 4.728998628564967 0 -1 0
696 1 0.7355929770331178 8.556868341847546 4.026539045760682 0 0 0
1785 1 0.4515835364883966 5.4561882809043265 3.4211585751681475 1 1 1
992 1 2.246578082684384 8.297886171835701 0.8826667839008905 0 0 0
1305 1 2.6490087338932184 6.8381127184789765 3.3612222654151207 1 0 0
1756 1 3.0607125536102933 9.158332102217848 4.578689078218388 1 0 2
342 1 3.7607197119136453 9.120152406968545 2.66968519225295 1 0 0
690 1 4.018977182501273 7.1981726031878335 1.6954280994231028 0 0 1
510 1 6.784311934208211 5.283331959503514 4.315490924631118 0 1 1
1712 1 4.219963209930252 5.035461137114374 2.9085404798315935 0 0 0
1302 1 6.132039229575591 5.31073336876527 1.9381078840116959 0 1 1
497 1 7.858464755022319 8.389139420890666 2.40311584189394 1 -1 1
259 1 5.82832339303918 7.779392175344516 3.242498931417097 0 0 1
173 1 6.29456077492507 7.615684327284013 1.078899146800408 0 0 2
1749 1 4.062557846895556 5.111700303274764 0.12859706217257236 1 1 1
71 1 8.146667273391337 6.228325892767824 1.433458457991671 0 0 0
584 1 8.75072212391941 6.001521929239557 3.46300726263489 0 1 -1
1578 1 10.906733001918063 6.574386488716737 0.4210788649641206 0 1 1
184 1 10.246351704185921 7.252140815508006 2.314937728059384 1 0 0
472 1 11.42527057274014 7.988105851377606 4.11148096273 0 -1 0
1882 1 11.052438981451708 5.474576881898921 3.588510750984823 0 1 1
1547 1 11.34541638665278 9.010728125828326 0.45090734645438985 1 0 0
1900 1 9.255910840131868 8.628797680437426 4.24642107390755 0 0 1
912 1 16.065676725449393 5.228298438939922 3.5609931691464793 -1 0 2
761 1 14.659440486469704 6.12045610640321 0.48054793050561473 0 1 0
327 1 12.518061804881999 7.450938190753747 2.229833612838743 0 -1 0
1193 1 15.703642720670988 7.934683620954175 0.5543482499060858 0 0 1
1208 1 12.968693833446766 5.402726475454611 2.149763548164853 0 0 0
1574 1 13.743847405963594 9.371386912667232 0.6047044997720777 0 1 0
706 1 15.593053181087473 7.404664834803959 2.8117856957595087 -1 1 0
1898 1 13.728339848611395 7.184944742963091 4.3436878151547855 0 2 1
1429 1 17.762913819002172 6.873686418081083 4.037075620894647 0 0 0
1643 1 19.015522112886835 6.423692708418244 2.087112157027389 -1 1 0
625 1 18.021649431437226 7.8805936675231365 0.7821877026838823 0 1 0
1516 1 16.976169526540033 5.87248428527861 1.5836166941951888 1 0 1
41 1 19.76088751733947 8.460952774122543 2.895125373511888 -1 0 0
63 1 17.205220614682737 8.96000065410638 3.7628263391111134 1 -1 1
278 1 19.694387800760353 5.981926836228383 0.0733279338144682 -1 -1 1
1510 1 21.062309467701986 6.580445247949832 3.605793132862296 -1 1 0
1881 1 21.95234369543909 5.414770125188542 2.3442145389144846 0 0 1
1077 1 22.421746155245835 8.217863228856162 4.467557410058606 0 0 1
567 1 20.88186401748861 7.633475659040155 1.4460751114699277 -1 1 0
693 1 23.517139926867387 5.852818722906324 4.42378687643107 0 0 0
542 1 22.88012120551103 8.154979299840868 2.182853181017389 0 1 -1
1554 1 28.022027618295226 8.914010744724983 1.9999101166566022 0 1 2
755 1 25.532635563099205 9.396781291809566 3.072654244286339 -1 0 1
501 1 26.79662460403459 6.85168717131728 1.9974107283991667 1 0 1
503 1 26.57123584961583 4.880197003217412 2.806906127334537 0 0 0
788 1 24.54011046880808 7.845440215611457 1.2173541306862283 0 0 0
530 1 25.055674753439796 7.277551120725066 3.708973876082703 1 -1 2
1660 1 27.212438124142487 7.324748072663741 4.429616404296926 0 1 -1
2003 1 24.393648671764787 5.379149970103246 2.3750529817110095 0 1 1
1434 1 1.6087743039135063 9.940933768893535 2.4509613781485795 1 1 1
1901 1 3.1489015472349244 10.004972803900522 0.16239271417075765 0 2 1
1365 1 1.2232717382152472 12.25445687542443 2.8576304493582447 0 0 0
1760 1 3.7752473829886832 11.440297261579033 2.4832904495068115 1 0 1
844 1 1.1633551236454562 13.304383295477075 0.9186013986748248 1 1 1
996 1 0.29373951999741565 10.672412940289309 4.35425077073597 0 -1 0
594 1 3.008344655591441 14.034287836444404 2.0874780935594024 0 0 1
285 1 5.591682757926469 13.717040509676371 1.6400369520305402 -1 -1 1
1199 1 5.138557495635606 9.51605565243668 0.7580871689936763 0 1 0
1296 1 5.0841584869307965 9.672265101446252 4.263082878503989 1 -1 1
77 1 6.101608171694953 11.962128288394698 3.604225298727845 1 0 1
363 1 6.5798545913327935 11.085689292139143 1.6377779304852997 0 1 -1
1032 1 7.897117055948005 13.39954673121591 0.7867609084159655 -1 0 0
119 1 4.1416049638180334 13.227386872775925 3.690697227435712 -1 0 -1
2011 1 8.027371027025751 10.297549541471946 3.4616233002784575 1 -1 0
1499 1 4.433720928539245 11.809885167402738 0.38961893757847565 1 1 0
455 1 7.1625539255017845 13.96527412544322 3.00489944085115 -1 1 1
478 1 7.410674902480771 9.473317110480668 0.23240821589246963 0 0 0
660 1 8.714619353113159 10.871782463243079 1.2399376970509064 0 -1 1
192 1 9.838303330536407 9.481859208878863 2.353317923536431 0 0 0
1937 1 11.998380966507758 9.75280497806555 2.531370340184391 0 0 0
1791 1 10.423196475548993 12.89337487760851 1.0957678342070811 0 1 1
1816 1 10.91041459348269 11.568183681983339 2.451016338346128 -1 0 1
735 1 8.658189572548755 12.514200720817733 2.6830186687467137 0 0 1
1646 1 11.883086831063967 13.950211634964218 2.5185291001950856 -1 0 0
54 1 10.816239925788995 10.3727487190841 4.654568479665816 1 -1 0
2006 1 10.625338505113097 12.843606409194843 4.4644681917764855 0 1 0
1799 1 15.404946693062909 9.725248873642402 2.2086540417064944 -1 -1 0
224 1 12.370982055145046 11.411443595267087 0.4952919809961625 1 0 1
1800 1 14.839176330414983 11.392352162840716 0.6690905147639361 0 0 1
1936 1 13.49567443767866 12.275010878764398 2.5872645621215913 0 0 2
308 1 15.753904849642826 13.01330336188231 2.125120153313909 0 0 0
1226 1 15.253528870403528 11.433109111988056 3.782452398070452 0 1 0
79 1 13.30524093162291 9.746748648670911 4.203633563534232 0 1 1
1610 1 14.51677710937068 13.949966906528827 3.8283708683457025 1 1 0
452 1 17.264727785385126 11.378879122111147 2.4369234621377527 -1 0 1
779 1 19.940355967298586 11.78405409439211 2.588012624485022 -1 0 0
1497 1 17.75129817332688 13.168355276795976 1.1809031961671719 1 1 0
267 1 18.885188888678236 10.57613469522451 4.03336682803943 -1 0 0
1274 1 19.74011541407058 13.706755717362212 3.9772319230889637 0 1 1
902 1 18.992570740856934 9.95368030117514 1.9687806341442151 0 0 0
32 1 17.410142760640184 10.260364550130397 0.40172707358013343 0 -2 0
124 1 21.35441424062907 10.043640016849652 2.0251686217743043 1 0 0
529 1 23.820483708304423 10.165679541932006 1.508432693558343 0 0 0
1161 1 21.84160021772602 12.036942179811852 4.594743261947232 0 1 -1
888 1 23.15258023047687 10.87837478191289 3.445182020676169 0 0 0
458 1 23.13827861713446 12.603975062859192 2.483301003144099 -1 0 1
504 1 21.09128169098831 12.70785707362787 0.9299431880214499 1 0 1
904 1 21.05906676772868 10.23722612148409 4.360300083806548 -1 0 1
853 1 23.384791469792937 12.227418525026954 0.3146317778921812 0 -1 0
1513 1 25.381920963156603 12.34539342869144 1.2641712973377885 -1 0 0
608 1 26.296064849160096 9.624550921222047 0.8173171399560414 0 1 0
531 1 27.74642339617391 11.520676399062648 0.4152950804759831 0 0 0
923 1 25.099485262377925 11.440489051955991 3.659720774199675 0 0 0
1648 1 27.28970848623056 10.75693931276455 2.684422933947162 0 1 1
251 1 27.685095975794425 14.083317513109089 1.1051763678434015 0 0 -1
2002 1 26.29220134250643 13.057112508801556 3.3048758883912837 0 0 0
1539 1 0.8458169778527711 1.9642177458341594 8.859782817751856 1 0 0
457 1 3.4440051046089173 1.902123213429971 5.859713360002199 1 -2 -1
1701 1 1.1871369243689907 0.9013116336165399 7.146257105828878 1 1 1
407 1 1.6505975764177272 2.72564404271317 6.608794151280262 0 0 1
1558 1 0.7991097203977078 4.114588028440826 5.401819801617737 0 1 0
1788 1 0.8077756632124822 4.129172537449872 8.392965705490031 1 0 0
1531 1 3.684299351325733 4.226581080104553 6.857403244032946 0 0 0
1341 1 3.132705274792586 2.7817840271243655 8.48047941592619 1 1 0
1711 1 8.06749642091717 0.2731324665193591 6.7204545917749385 0 0 0
1114 1 6.252681711922005 0.06471175535784823 7.613625585631663 0 1 -1
1632 1 4.284525470186694 0.9533952088056723 7.806230954770079 1 2 0
895 1 5.22078622533695 0.6622293890707955 5.604632830101389 2 1 1
189 1 5.714640012715675 2.6265114469322257 7.311026318956308 2 1 0
1737 1 6.885728416431555 2.8435100726680083 5.497515150258567 -1 1 0
624 1 6.864582212497591 3.128388315785702 9.372988563571345 -1 1 1
1599 1 5.180397446984723 4.354591488677206 5.450035747746716 0 0 0
1907 1 7.383479325784516 1.0780789190028175 9.133008881422358 0 0 0
601 1 7.03402029961822 4.683826584601738 7.192211280391137 1 0 1
1997 1 5.2337561833425905 4.557796915445301 8.789946387070572 0 -1 0
540 1 9.665201383471333 2.236777617998307 5.273771058062219 0 0 1
1481 1 10.933607545704053 2.1976496878924845 9.437715018385607 -1 1 0
536 1 8.3272965703483 2.7176945367958654 7.351454733509089 1 0 1
823 1 10.000662393324783 4.284682007880948 7.567766080558711 0 0 1
835 1 10.23907449684542 0.9166500273779602 8.265321418633752 -1 1 0
106 1 11.793201571470284 1.5888967240960101 5.210386167578115 0 0 -1
198 1 11.473926667445513 4.145750209296634 9.452333065247775 0 0 -1
11 1 11.33646556660937 2.4509485150062504 7.0882561279158685 -1 -1 -1
1403 1 11.242485214191781 3.8368572708842756 5.640051266670616 0 2 -1
44 1 10.11093883435581 0.08780756823982058 6.034498688029313 0 0 0
1063 1 13.520792299791442 2.807745119944008 6.109681237801415 1 0 0
60 1 15.719861736429783 3.5877105424554867 5.3692944062069685 0 -1 -1
938 1 12.49644160279741 4.596961556475209 7.304239445280499 1 0 1
464 1 15.507074018133407 2.0666722743733663 8.359735785257673 1 0 0
670 1 14.845012669386701 1.0132385572557063 5.680428519152715 2 1 -1
1187 1 14.850249290577441 4.544383313117251 7.459105953735707 0 0 -1
619 1 13.454903540046944 2.387554853359209 8.606720815200694 0 0 0
1596 1 12.635713278435937 0.5484448161955274 7.331946005621346 1 2 0
265 1 18.457225326771677 1.0022181224519755 8.913064834541945 0 0 -1
968 1 17.727485644703457 2.5929977174524703 6.333723311133498 -2 1 2
1180 1 17.685391256113633 4.71649169592504 4.994358077694574 0 1 0
1976 1 19.124737325376422 4.179191695221205 7.767560455629753 0 1 0
962 1 16.851029989187722 3.7766483477679986 8.181253819257698 -1 -1 1
989 1 19.851630671873977 2.0281802498785586 7.127297068112036 -1 0 1
1398 1 20.1190798888723 4.59391149725788 5.8305188568916995 -1 0 0
1195 1 16.932037452115814 0.8268273936618254 7.079340628259392 -1 0 1
1121 1 18.87314538671177 1.1041279410236569 4.838289206164264 -1 1 1
325 1 19.010508452571308 0.04603895155926807 6.910684420080736 0 0 0
1410 1 23.264858949547744 0.18316348639692137 8.63590974115692 0 2 0
1029 1 21.7208025900079 0.5439364134585897 6.811497490615344 -1 0 0
1322 1 22.36857613660434 2.329485849285793 8.120958429379394 0 0 1
474 1 21.10885900223944 4.089994233234241 8.124928579766042 0 0 0
78 1 21.650571483026603 2.7580232046756206 5.912064927432981 0 1 0
190 1 20.758119974286373 0.4073605238409649 8.920799039282425 0 1 1
757 1 23.727302293857278 1.8891851456967679 5.559893914263445 -1 1 1
51 1 23.342487764860763 4.293270676053997 6.2539729098598835 0 0 -1
1456 1 23.47517139492968 4.6389451555570025 9.141998380913689 0 1 -1
868 1 24.55612351920731 2.848471347104681 7.79271919445164 -1 0 0
365 1 25.178398442290835 0.9368213583247476 7.853865759434349 -1 1 0
863 1 26.826219789809443 2.3044049542022265 8.696309041409043 0 0 1
28 1 27.83203047003098 1.1263565920646728 6.1122429068759345 1 0 -1
1339 1 27.286424958699236 3.2338788362136737 6.7955985206585865 0 1 0
1249 1 25.437250405323752 3.475698028489516 5.4952302033043505 -1 2 0
717 1 25.608168348764565 0.46331801199176187 5.69998779043368 -1 0 0
1073 1 1.8228908285289158 5.689771169377527 7.142254907960596 1 -1 1
255 1 2.2327361548252935 7.083042671111121 5.411768901093804 1 -1 0
760 1 0.1982282204412034 8.642505661104117 6.225409753319559 -1 0 0
1024 1 2.744769082531803 8.390969716912224 7.225616874256154 0 0 0
2024 1 2.41060408029579 6.346747796678394 9.08502257987835 1 1 2
937 1 6.546386733818632 6.634745900442689 5.870599309537745 0 0 1
1957 1 4.61677256750494 6.097786116364152 7.272866045288477 0 0 0
742 1 6.398826220143054 7.047114100501795 8.056109823015964 0 1 -1
1345 1 4.366165815021575 6.537301205014346 4.847469640071651 -1 0 1
448 1 4.55218521984892 8.387161763726622 6.017282999091224 1 0 0
763 1 6.529373919799073 9.45050953526584 7.3785519454233945 1 0 1
1582 1 6.948460093942668 8.975459615126839 4.927351034529832 -2 0 0
1727 1 4.5090583784382385 8.338843704796115 8.577825166092984 1 0 0
1230 1 8.425537208477689 4.817938459130413 5.527869077617582 -1 1 0
811 1 11.013832335318018 6.6772622869812475 7.281670992997372 -1 0 0
1423 1 11.034578641713544 8.776257971955495 6.384582719569154 0 0 -1
914 1 8.501404620878983 8.485805470150853 6.992425486279008 0 -1 0
1681 1 10.066734046302674 6.851854330267086 5.512656154550153 0 -1 0
1862 1 8.458923809896628 6.34188896786598 7.245031712462814 -1 -1 1
935 1 12.019576723697353 5.983929694444917 5.546332412168096 0 0 1
1732 1 8.76169848238469 5.042986079064204 8.916235150091051 0 2 0
1300 1 8.450273987992258 7.524692345284857 9.423522411757096 -1 0 1
1560 1 10.655411974192667 8.342239571334124 8.541381829255094 -1 0 1
1521 1 13.997606031518972 5.019394957445584 4.88304350518249 -1 1 0
634 1 15.263285414902159 8.504420411698097 5.309194620982003 0 0 0
1631 1 13.876501225375033 6.534410223069437 6.911493579015116 1 0 0
1934 1 12.93227936368508 8.478291680725942 8.33485884730455 0 0 0
1667 1 15.101575767165727 6.413837968149283 9.433269183736135 -1 0 1
1875 1 13.074007053070275 8.436341782927025 6.1226281743971285 0 1 1
1637 1 15.085958339395756 8.95894060207488 9.426786552209364 0 1 0
1091 1 15.439744596632858 7.5709696685016 7.606024942950617 -1 1 0
1572 1 12.40479148559044 6.255944213718706 8.729774682725013 1 2 0
151 1 19.606468577853988 8.465959221003068 4.905980300581392 -1 0 1
1198 1 17.139517970997808 6.018658132858256 7.497289433061593 0 0 -1
1236 1 16.213833800279673 6.366318785064436 5.415475353754327 0 0 0
405 1 18.291152264666543 8.076424916942013 8.314733260315519 0 -1 -1
156 1 19.805930655393865 6.145989920646437 8.135756949706874 0 0 -1
108 1 18.94728485903041 6.258640095084672 6.0344926024849626 -1 1 0
1894 1 17.44008825479628 8.100715831955888 5.9631556681437425 0 1 1
1595 1 16.500108515510597 9.441865306701146 7.810564856483063 0 0 0
1906 1 19.976536761878954 8.759515134526243 7.310624620310085 0 0 1
1608 1 23.843953147530158 6.9661600987716765 6.274521767555152 0 0 0
848 1 22.471680191537523 8.48028863565539 7.261553155319593 0 1 1
929 1 21.349144425519178 6.736181448832295 5.800913560312322 0 1 0
1353 1 21.027989777749283 7.870971710999377 9.11527930560913 -1 0 1
643 1 22.50334660529503 5.786593933809516 7.644703641520551 0 0 1
22 1 26.495788315078258 5.29136737775792 4.943472896534708 0 0 -1
1803 1 28.067356864356164 6.094179103677301 6.036210935865853 -1 -1 0
1955 1 24.949202815741884 6.8086858773932795 8.051995377852675 -1 0 1
1316 1 28.207316906526092 7.38019130993723 8.118838455182793 0 0 -1
349 1 27.221431518997235 5.115758915797617 7.85636361211025 0 0 -1
431 1 26.156047753735237 7.8371112236724745 6.405729104473979 0 -1 0
1175 1 25.2140933476456 5.030625051210132 6.982785044449182 0 0 0
1871 1 24.615506951628127 9.314393573812252 5.21878482301591 0 0 1
1366 1 0.8582994632924474 13.391785919197721 7.683142522472642 0 0 0
387 1 1.8731680808948177 12.746917943523798 5.401952175140601 -1 0 1
96 1 3.976111802532251 11.815311637341033 5.17547879392857 0 0 0
890 1 1.749936216624421 10.508534800983211 6.153677672441685 2 0 1
1662 1 2.2495928934632734 12.21583835235438 7.4567586775468895 2 0 1
657 1 3.8982753136802653 12.332671380920189 9.241286184670706 1 -1 0
740 1 0.8716293129278727 9.630755887832699 8.024393797272698 1 1 1
1039 1 0.7121680775775883 11.678350745957855 9.28596115179845 1 -1 0
1750 1 3.1632682503127683 10.336189254432405 8.887031705589367 1 0 1
116 1 5.917738482992099 13.366067908926022 5.18986621660728 0 0 0
1695 1 4.936287038285692 12.73539712465063 7.078129070169997 1 0 0
1082 1 4.347059482144764 10.364324056048257 6.729977728322955 1 1 0
39 1 6.530992870302527 11.19136142963101 5.9583254309448295 0 -1 1
1017 1 5.886222486566371 11.069760949311311 8.352066358609727 1 0 1
65 1 8.079152668908812 12.749674985059716 5.080688065521635 0 0 0
477 1 7.644492433048622 9.855289953386915 9.329856997971177 1 -2 0
677 1 7.955099591450262 11.603656073786361 8.08432093301321 -1 0 0
76 1 10.788688536097613 14.169526277372883 8.526055321483463 -1 -1 0
2022 1 10.321438236984132 14.077991302961392 6.191453787272775 -1 0 -1
162 1 8.84857930282463 13.800551497667783 8.081932060828105 -1 1 -1
1848 1 9.763459383956587 10.29346696550941 7.571311795349212 -1 -1 1
1861 1 8.738307199049153 10.512985105193803 5.63668056952485 1 0 0
1524 1 10.028509156816586 12.034575346987735 6.59197051296682 0 0 1
775 1 11.25096327972107 11.887891941952654 8.765111046118845 0 0 2
1415 1 12.053374293720546 10.82785937499039 6.844917261079479 0 0 1
1262 1 14.997214041856049 13.521300240647053 5.8724577104589155 0 0 0
1540 1 15.66804877950665 10.915222411831266 5.828647071530001 0 1 1
1703 1 13.350244839514712 11.98001834497341 4.896181170547232 -1 0 1
1030 1 12.704681734458703 13.89419987662198 5.299336242122688 -1 0 0
1996 1 15.329155372840617 13.351640617325664 8.873542111810723 0 1 1
1601 1 14.235148994745966 11.841206907949411 7.2809222493232575 0 0 0
532 1 12.800045876630309 13.28993632251413 7.861125763124126 1 -1 1
602 1 14.39522569724971 9.730019977463643 7.302675320571117 0 -1 1
668 1 12.80117910895564 10.513700356811427 9.221039741777394 0 0 2
1890 1 14.832849163153497 11.040919754402063 9.009122769283932 -1 0 1
1023 1 18.941322526419356 10.277792377884495 8.468568350309798 1 1 1
1945 1 16.72627137155061 12.151498763914107 7.31819571318806 1 1 -1
378 1 17.26788517281708 12.096076480255187 4.738813410184293 0 0 0
589 1 18.131559510516773 10.233622194430044 6.2505889009568065 0 0 -1
671 1 16.964772361052688 11.724694615223608 9.358382032192225 1 -2 0
1478 1 19.518520296882123 12.654165761072484 5.925772657403952 0 1 0
99 1 19.324948567809912 12.39083343674782 8.431171487422205 -1 1 -1
1773 1 21.327151211259483 12.277491669840416 7.215256617705308 -1 0 0
747 1 21.483419704572533 14.065220476257418 5.841412925672921 0 0 0
47 1 20.345145900684123 10.631926510460456 6.170732200866604 -1 0 1
1804 1 21.529373856262865 10.201957167964894 8.5407181564588 0 0 1
447 1 22.527697593273565 10.457128619257032 6.211693790224372 1 0 -1
1565 1 23.615154231525644 13.050880608383448 5.3575488914766645 1 1 1
1243 1 23.27158622114861 11.502990089231899 8.042953900623699 -1 0 0
1238 1 21.398902026102157 12.610360717347623 9.227500871683707 -1 0 2
741 1 22.61544523316465 14.01879658849126 8.279815048063567 -1 0 1
1289 1 25.16026874172762 13.315678262395828 8.68708239941537 -1 1 1
609 1 27.28871384439553 13.00263408031219 9.319312342670402 -1 0 1
1066 1 25.813278014883807 11.283351291747943 8.878412223544402 -1 1 -2
1676 1 26.54277587096182 9.9077725626496 5.170689877327876 -1 0 2
1461 1 26.991832671788437 13.155787905539334 7.073587358643103 0 0 1
1806 1 28.0388400807848 11.232555330485821 6.7883827182255825 0 0 0
829 1 25.30754862697743 11.777365782694602 6.9325641645680935 0 0 0
1162 1 26.802969120022745 9.560542346518517 7.876406273062139 0 0 1
90 1 26.489402564594926 12.054832449684625 5.13365483762722 0 -1 0
352 1 24.405450478471714 9.55016931995482 7.610372804050174 0 0 1
1742 1 27.92463040788509 13.811447995340183 4.825295391232933 -1 1 0
799 1 0.23577586965053776 1.742809852261558 13.776153518227632 1 0 0
1043 1 3.1518563999993163 0.10044640495822867 9.66150674881827 -1 0 1
1838 1 2.369735893490098 1.7765271400131932 11.374787382317004 1 1 0
1500 1 3.85962006224139 3.1730359112784603 12.266442496499385 2 1 0
1981 1 1.2147087020143605 0.3188996175492463 11.098125496857739 0 1 1
910 1 1.6882495704004565 3.650005582756529 12.885741368900597 1 0 1
1416 1 1.577462900184085 4.271145636530507 10.832735861964931 0 0 -1
411 1 2.588759685612391 1.2814724984024606 13.490328899601899 2 -1 -1
1905 1 3.435627466191702 4.685464125566909 10.16891868187165 2 2 0
1618 1 5.432864576058981 0.029896428937233956 9.779323533934937 0 0 -1
1354 1 8.074740019340377 0.16918716591116123 11.315794928081718 1 -1 -1
1767 1 6.591209575961345 2.2546279406108476 11.561263385916291 1 0 0
939 1 7.4922241910930465 1.0462745422451842 13.907723321743962 -1 0 0
1612 1 5.657267040154373 4.193384693358687 11.118068495479331 0 1 0
1460 1 7.560931530054228 4.718818521854416 12.808987231797893 0 0 1
1224 1 4.679998243878477 2.452035388783105 9.988618415481387 1 0 1
1122 1 5.074263374852582 2.043987643972167 13.90099181112832 0 1 0
359 1 5.537484115302266 4.455462556581533 13.909277568352657 -1 2 0
21 1 4.7713318261573345 1.2304087680393456 11.923669595907795 0 0 -1
995 1 8.330569301642269 2.854469495288549 12.95698922768849 -1 0 1
1331 1 9.005533532069135 4.364117791920651 10.903457099626868 0 1 1
1847 1 11.108793136419996 1.6802654319607477 11.656168886314136 1 0 0
547 1 10.083119093529776 4.139321688556566 13.355063409811354 -1 -1 -1
1411 1 11.974295004388305 2.613569401849463 13.216905177638672 0 0 -1
1442 1 8.866187989601363 2.0872850048951817 10.552135694908943 0 1 0
284 1 11.299390845697479 0.2977893831091606 13.551990879224707 -1 1 0
36 1 9.642821652934774 0.7719901703705534 12.883661731319576 -1 0 -1
2039 1 13.75297661696897 0.3083352406656656 13.54693861937746 2 1 1
745 1 12.29548749354959 0.4458805594559417 9.59119385685426 0 0 1
429 1 14.430376914649147 0.9025442196487463 10.161595050422461 0 0 0
2009 1 13.099829481755423 2.4446687178351585 10.871853243193858 0 2 0
1100 1 13.665050228908274 4.4411575473016915 9.852893638164275 0 1 -1
293 1 15.79234534730007 3.1023408500026 10.278409640443119 -1 0 1
88 1 15.110028209213235 1.694842648334293 12.287873433740916 1 0 0
307 1 13.496562699227317 3.97831305021513 12.392543211562698 1 0 0
892 1 16.20345813180181 3.654144090168748 13.156681323353007 -1 1 0
2031 1 19.906233304065196 0.6490460106835304 13.121642243494872 -1 0 1
1843 1 19.14990689960173 4.489487452992435 14.091190213559946 0 1 0
802 1 19.306801681316195 0.4146154961254431 10.847857801816934 0 0 1
1232 1 18.227418928991064 2.589228842025182 13.491220552214559 0 1 -2
665 1 16.47915820964692 0.5832768425272554 9.888114617005805 1 0 1
1569 1 17.636710143598307 1.3445720630797393 11.55011289386701 0 2 0
998 1 18.290436967864906 3.236015636800995 9.90375600601446 0 1 0
646 1 19.983345947710568 3.8720614330961904 11.447767341429358 0 1 0
977 1 22.92446792684936 2.156509903566975 13.346827978810168 0 1 0
1636 1 22.240385029558183 0.4491830212407039 10.346608213162208 -1 1 0
420 1 21.50454608377221 1.6544485087968823 11.762863434714067 -2 0 0
330 1 21.759296770024072 3.8817243765951983 13.264913002150674 -2 1 0
297 1 20.369449570083106 2.6084298017390655 9.547017703279165 -2 0 -1
943 1 21.993719225194496 3.469033159598307 10.62898848380837 0 0 0
1080 1 23.45633676508006 0.528164303316198 12.091266146760532 0 1 0
909 1 24.02181152241844 1.79769697316746 10.208341176706956 -1 0 2
1951 1 23.909316579089506 3.4421167634987477 11.71964764037699 0 1 1
86 1 27.70152766933824 4.019394652186378 13.850088420167713 0 0 0
1041 1 25.85180443809527 3.9453223384036216 12.643516611257654 -1 -1 -1
1053 1 25.75112129948711 4.00542242445683 9.584855230060281 0 1 0
1705 1 26.051208599185124 1.8475884025237548 11.239421330617382 -1 2 0
1255 1 28.293742699925268 2.57534196223085 11.280364097938866 -1 2 0
1141 1 25.65282164518942 1.812709812237845 13.648611706422644 0 -1 0
331 1 27.45268747523766 0.215469802326823 12.620254555899283 -2 0 0
1363 1 3.6977332643530096 8.948340891484893 13.857530274945857 -1 1 -1
1698 1 2.350528104478265 8.33512971762107 9.827270849789203 1 1 -1
663 1 0.6407601479564012 5.535600099082363 12.495002181653401 0 0 0
126 1 3.1264115874039136 5.352842024905258 12.56760481619485 0 1 -1
2032 1 2.1188960390130838 7.399647266828889 11.874387518342017 0 1 2
1301 1 0.4622040977616559 6.908613737260164 10.453125287126019 1 2 0
963 1 2.068251498394873 7.39743544894399 13.994323057340862 1 0 1
1707 1 7.099554585887643 5.575055232591637 10.23761101572985 0 1 0
1508 1 4.153755164423964 7.577705737319608 11.584299613197151 0 1 1
721 1 4.631024990845439 6.5232492819053975 9.75825065453577 0 0 1
473 1 5.467585663865392 8.94935370902968 12.662684185243789 1 0 0
384 1 5.982141141411608 6.583398740488471 12.377509225987493 2 1 0
324 1 6.481884765424189 8.104998002016071 10.164940393324295 0 0 -2
268 1 7.463278652999282 8.300162183831176 11.957673762808987 0 0 2
1304 1 7.161138132387648 7.976495071402917 14.080049609753367 1 0 -1
1790 1 4.210164785377642 6.759495147053912 13.97530481428381 0 1 0
1050 1 10.283624377370849 6.606401247784301 12.850221619711892 0 2 -1
1028 1 11.148599006661438 9.345960058181335 13.638192058864604 1 0 -2
707 1 8.688816840188819 5.973017271037243 14.053149878111368 0 0 -1
644 1 11.252480280719968 4.807468999405604 11.674186815412865 1 0 0
1171 1 8.983042151860984 9.065500149981638 13.157740663012513 1 0 -1
1839 1 8.730789171319884 6.67295293321351 11.878816601503228 1 -1 0
1355 1 10.621291320028716 6.867998636523407 10.285008519457236 0 0 1
17 1 9.649557060283886 8.94747304134663 11.026880887922474 0 0 0
1147 1 13.451661040033592 8.22819544812742 10.584500405110605 0 1 -1
1263 1 12.878812724707055 6.143101151032609 11.138956699736799 -1 1 -1
1914 1 12.587375435909754 7.449929204764558 12.983657922680612 -1 1 0
1665 1 14.42939654373793 8.685488963338344 13.160020979827811 -1 0 0
1628 1 15.883343466945474 8.83129508305941 11.541138726514335 0 0 0
1075 1 15.3200734198048 5.282377895687997 11.833640987799194 1 0 0
1031 1 12.517268079767083 5.195053098956425 13.865654888942503 -1 0 -1
1544 1 16.582305254704345 6.919752249731452 12.976731880695626 -2 0 0