LAMMPS data file via write_data, version 29 Oct 2020, timestep = 300000

2048 atoms
1 atom types

-0.05300508146624949 28.4050050814688 xlo xhi
-0.05300508146624949 28.4050050814688 ylo yhi
-0.05300508146624949 28.4050050814688 zlo zhi

Masses

1 58.933

Atoms # atomic

1786 1 3.4050654588903746 4.291785769711835 1.335311058601047 0 0 2
99 1 1.8639907790783679 2.6766384141767037 1.3172594574408742 1 0 0
1239 1 1.648808569946713 1.1129259682970924 5.1547391938000775 -1 1 1
489 1 1.2767735185349338 5.310116315251238 2.396691111792093 3 -1 1
853 1 27.73219230615584 1.3886021845801617 1.8985177701475333 -3 -2 1
816 1 17.296973155851163 1.9936411738805941 0.7137744457301577 -1 0 -1
269 1 3.4083465079387643 2.370537910149239 2.3111971544755114 2 -2 2
113 1 12.593129434797754 8.648826346290818 13.27319739982251 2 2 0
929 1 23.599728486495422 0.3985637284062917 5.215356919577795 0 3 -1
1293 1 7.611867864284147 2.3159727849294294 2.437529872934277 0 0 2
676 1 4.476263851559083 2.8563069174560685 4.293295520197796 0 -2 0
1630 1 3.749508846826948 1.0025568750347023 11.441527501733322 1 1 -2
82 1 20.8056478180116 8.661432499457716 13.941319467998218 1 0 -1
138 1 12.238373230711352 12.150704425074762 13.788027711175541 0 -1 -2
1497 1 5.650202405230374 1.411575630212602 0.8452972929469755 1 -1 0
1779 1 20.38554454618813 0.44938445052896103 9.838031498131047 -1 1 -1
1902 1 7.194170929357843 6.895502481494197 0.4495721528439862 0 -2 1
990 1 20.581417944923853 11.847964225969262 0.44403442651391817 2 0 -1
879 1 11.546570514161651 3.441762495781789 1.553356475264669 -2 -1 -1
547 1 14.44308599163008 0.3245443022676099 5.973860935399824 -2 -2 0
680 1 12.380890534255853 1.2344539123883798 9.371295909124097 0 -1 -2
1088 1 11.724447382656873 2.3114790372317833 4.083947493493005 -1 -2 -1
1471 1 11.21327955158729 1.4225167344922525 2.0371550373969582 0 0 1
343 1 12.97279319836488 0.6024825948847055 3.719790753456107 -2 -1 0
1869 1 16.61275143771422 2.560690507224389 2.947581513176439 0 1 3
1928 1 10.562425042708833 7.375535593721691 1.1605906117097649 -2 1 0
1241 1 17.827769459331133 2.716479792004816 4.891054891022297 -1 2 0
183 1 14.074956496959905 3.7618764074552193 0.7920888023712056 2 -1 -4
1392 1 15.131406604621105 4.625656837776541 2.947085737205796 -2 0 4
1568 1 24.25475717113154 0.43131027359616203 0.8278786024793091 -1 0 2
1815 1 25.170205118027564 8.145778546618532 1.0227934929358717 1 -2 1
832 1 6.314851847352826 10.078842273471176 0.08790687174037684 -1 -1 0
372 1 20.16809139022326 0.41455164450607446 3.2922137025108587 0 -1 2
559 1 15.063040597681203 1.2118660621021422 3.871120823159047 0 -5 -1
1414 1 19.404357655731246 4.662626552880985 5.1666225304637905 1 0 -2
1709 1 25.942383486474775 13.687253176402603 9.438850873810155 -1 -1 1
636 1 20.999147755799257 2.40002363114929 3.810682141566292 2 0 0
955 1 18.97177465507243 2.280581720091673 2.368462175280395 0 0 2
582 1 26.788438081898875 1.0742743687906962 8.667128952476531 -1 0 -1
340 1 20.751600547452817 2.98139007882978 1.1536705093779096 2 3 -1
251 1 25.183370443701264 0.3281295306627591 11.197136482938014 1 2 -3
1280 1 19.020997844933344 3.8706958067737824 0.34434903595662547 2 0 2
1870 1 20.292078246571496 4.067648386084609 2.9577265020028842 2 -2 0
625 1 10.53073544538394 10.18168248485203 1.1582422863211068 2 -1 3
687 1 8.498945549229145 8.738728954509856 0.6399438048622836 -2 1 1
1243 1 21.710343071361276 3.2615626514416087 6.094802963885949 -3 1 -1
2045 1 22.581431218025315 1.025579729709396 2.852329053593161 -2 0 3
1299 1 24.923507299975565 1.9620415511059486 2.448420627076264 -1 -2 0
1750 1 22.98721268174067 2.682419891213869 4.257707090888128 -1 0 0
2017 1 28.072193214835963 9.88652998106653 11.89211942438023 0 1 1
1567 1 8.244378680979755 4.1610862793244765 3.369222812225574 0 2 -1
1410 1 22.81998429483426 2.22742861965814 0.5237593186516861 0 0 0
925 1 26.49370729843902 1.2870708225494214 6.149138240852313 0 -1 -1
1052 1 25.147163934932593 4.355281024781267 3.292473213534105 -2 4 2
238 1 0.9955084599299491 0.9998253028055288 3.0825236646480785 -1 2 0
1273 1 26.932923237876466 2.600926429211056 3.3487265607818744 3 1 0
15 1 26.290201225653878 3.6107595219232285 1.3408443087920083 -2 0 1
1985 1 26.601533611074746 1.3754952204886453 0.17054251805227824 0 1 2
1034 1 0.7379050521609263 2.9688342103594527 3.7267064350703247 -1 3 -4
1048 1 22.75778146160208 4.007245484185129 2.4322869869483252 -3 2 2
203 1 6.7032473723494075 1.210427110056735 11.623838229076522 -1 1 0
476 1 2.458830316756843 6.978071882149334 0.5674607351225817 1 0 1
1931 1 1.4091106582502841 6.116505948242167 4.573256993970634 0 -1 3
244 1 28.208446791837975 7.480926138360598 4.416604040873425 -4 2 1
1029 1 1.9305961459430203 8.176593856256588 3.1344615967656915 0 -2 1
516 1 11.081909480175076 13.219539620909837 7.870898006867351 -1 0 0
728 1 3.8771937031795702 8.311581331647172 1.6684351837253582 2 -2 2
477 1 3.5969692477610495 6.492233696794814 3.346782235533016 1 -3 -2
2039 1 2.26757937571586 8.268935249944215 5.164785856332698 3 1 3
877 1 2.702241616629069 6.114955755641067 6.351850140182069 1 -1 -1
1968 1 22.409790868486233 7.154947897306394 0.48894250158583397 -1 -1 0
1640 1 6.1060738913017785 13.92222599834253 8.861812285075214 1 2 0
1435 1 16.634954657253594 4.239860448391687 13.009872638596624 -2 0 1
1774 1 5.688264295687006 3.3764746461803328 2.4696549424908962 0 -2 -1
409 1 8.297563430561494 8.639155478411435 2.9758746197895927 0 1 2
1938 1 6.306509231086265 3.822181247908846 4.482726917648856 0 2 0
142 1 6.091935012907161 5.522283833306424 2.5829820728977846 0 0 1
1597 1 5.7476427070715355 7.6013672585293435 3.6472226473508282 1 1 2
166 1 5.3432724641492735 5.839373366215844 4.600110372091358 3 0 0
1823 1 7.5530614696286245 10.96769978711797 1.7009776059815926 0 1 3
1051 1 9.753257159091124 4.942610601196819 2.0585845838853696 -1 1 2
1731 1 10.35521864150033 9.162387475113112 3.275584748790688 0 -1 0
685 1 12.052234933193747 7.544008145869579 2.7415803656400035 -3 2 1
1097 1 13.152170992343223 9.509877863963148 3.6397134944313323 -1 1 3
1169 1 12.392646993054166 9.440302722993923 1.7152738276338293 -2 -1 -2
653 1 7.027461832073401 11.170145498671918 11.084655599195925 1 -2 -1
1462 1 10.657399554356596 7.397325325534356 4.2704541726231025 1 0 1
255 1 9.827422560297896 2.8284467367238437 3.4255581839620914 -1 -1 2
1382 1 11.81960958961835 4.970037147860503 3.30150287911426 0 0 -1
360 1 7.465441779881399 6.476895350260209 4.408370584460102 0 2 0
583 1 15.04184093718248 10.815719178078627 3.0382519678695794 -2 -2 1
1486 1 13.641383491941301 5.129011491605741 4.553368969555832 -1 0 -1
328 1 13.366804800309572 5.9875195724740875 2.0586283921599224 2 -1 1
1810 1 13.47246395971458 2.9220882486300623 3.1135026509883623 1 1 0
8 1 14.508379991407386 8.993291601707265 1.8795281958323375 0 -1 0
315 1 17.689116257620746 7.829529800926925 4.221231085059968 1 0 -1
510 1 13.685895054554958 7.183437198717043 3.9975595210037795 -1 -1 0
1168 1 16.56143944078594 10.66702613384218 0.8015042990410478 -1 2 -1
219 1 17.920401805285415 4.619146095635347 2.1491405634143135 -2 -3 -2
1093 1 17.91294359338587 8.622113000569474 0.32720008165332914 0 -1 0
1867 1 15.90659776622999 5.066588698388105 1.0143224147373113 2 1 2
2025 1 17.081518930175022 4.991128706314511 4.267601384850158 -1 1 -2
1289 1 3.56594944600833 12.339807927799038 0.7068888420805353 1 1 2
2007 1 19.250324637958244 6.387973799616495 3.511337149399985 0 0 1
1401 1 17.028217226437448 6.990908250014356 1.3997558216781023 1 -1 1
552 1 19.40498399626122 8.25893314372217 2.7963680842219647 -2 -2 -1
458 1 19.521219938902604 6.541463835650972 1.1386878124346758 -1 1 1
1620 1 15.643558060120014 14.029464628560811 1.5876101198792845 0 0 2
1446 1 24.702302019359085 7.413321868799351 3.988244000124727 -3 0 -1
1644 1 21.573756352499274 6.828254956686304 2.490627177019691 0 3 1
1150 1 23.090255861350254 8.56944683578429 1.9349652858308366 2 2 -1
262 1 23.205516661110185 4.830696358982626 4.739147536181858 -1 -1 -1
177 1 24.255529803490504 10.274378835714982 3.394055313237005 1 -1 -3
779 1 24.27175920882391 6.217788337635651 2.1792586825918447 -1 -1 2
1090 1 27.294041180251604 8.735864733765577 0.6952023432204929 -1 0 3
1739 1 0.0020477501816212815 6.834360292386701 1.8240657003020817 0 1 2
659 1 0.4864856657953046 9.520743495583876 2.467908240543893 1 1 2
671 1 26.305973471143613 5.901802782097816 1.3082298813781201 1 -3 1
335 1 26.605189995543128 7.46601281429231 2.977301856237365 0 -1 -4
1092 1 27.602541153883262 4.738689213225253 3.3834363949384474 2 0 -1
757 1 15.063052320714483 12.759324794149787 13.701754155761579 -2 1 3
1505 1 25.95018999859422 5.5841673802143 4.834521211400686 -3 0 0
389 1 4.68119637230945 0.6995863423494587 5.591418972117388 -2 0 2
481 1 4.532960650399111 11.99350264724155 4.292982872448477 1 0 2
2016 1 27.750992135906337 11.692198277729535 3.6803112143665913 0 1 0
260 1 8.58141115716163 6.727363678915434 2.1100683156949223 -2 0 -1
424 1 2.6457837001760196 10.305444201730078 2.3199311254338593 -1 0 1
1464 1 2.6923382842443475 10.66677847552815 5.269975097027984 0 2 0
1028 1 26.928456987145754 13.152656299509683 1.3436748745116496 2 1 0
1534 1 19.746559542421515 3.884472165656619 13.498535591605544 -1 1 0
433 1 4.296301010279764 13.411010039136755 2.5143978784687784 1 -1 0
1474 1 5.067577364759196 10.859511207980306 1.9209511420120406 3 0 0
844 1 26.40551855699983 14.084903350206487 3.502964689059696 -2 5 0
1557 1 4.051963462429896 9.328386063102563 3.7837348175830168 -2 0 2
1375 1 6.392933379971359 12.507163138844405 3.14170390128231 1 -1 -2
220 1 6.503005973801511 10.204777831871297 3.4480874708046416 -2 -2 0
1580 1 26.748688535338992 12.039617523448786 12.345092815590327 0 1 2
1670 1 2.2246534601551007 14.047676190007513 2.820285873349714 1 -2 -1
808 1 6.272196077790323 8.570529200181232 1.5568798431930282 0 1 1
1448 1 11.142642993581937 13.696676022134039 3.343856717962618 0 -1 0
1575 1 9.241014958488758 10.549306767878164 5.090319869669125 0 3 0
1919 1 8.864995280257107 12.402395430882281 4.047318535709552 2 1 1
1544 1 8.858342119311107 13.040864957841382 1.340769161431676 -2 0 0
1775 1 10.339302971903406 11.639877256122887 2.418688238751342 2 0 1
1514 1 23.086756218699808 13.73889438868444 8.058370665556886 -1 3 -1
248 1 18.986172577719138 7.7827526447789355 13.170130289322412 0 -1 1
1458 1 14.808613201785121 11.849924475986718 1.3993705775101735 -1 2 1
1832 1 14.830012626838533 9.268899139586303 5.003610337575989 -2 2 0
1323 1 15.336259427621915 12.944309874899867 3.826225161378975 0 -1 0
390 1 16.458335297010997 8.832005238597185 2.9323720193562406 -1 -3 0
1831 1 17.301702103810275 12.420624486146423 2.0888364363955065 1 4 3
325 1 22.176557976900458 3.9085853998295006 13.905493738113515 1 1 -3
856 1 16.409984551879397 10.89339566613121 4.79316306078153 2 -1 3
1523 1 19.682286500674174 11.933788013544325 13.301549590675258 -1 2 -1
1667 1 12.722354159116335 11.903370380382645 2.9534252401454344 -1 -1 2
85 1 18.15522841262122 10.334185998940837 3.1199058362757706 1 -3 1
1364 1 20.35291849289023 12.813150933118173 4.579620067027422 1 2 1
784 1 2.846342467605864 13.69278172751451 5.255120711469759 -1 -2 -1
1706 1 18.489574739221975 13.129339747540957 0.2113380970454694 -2 2 3
1563 1 17.360513330373568 13.867436877660834 3.693279923547196 -1 2 0
1356 1 14.136248258347221 0.3092000525957527 13.134862917884789 -2 1 -1
776 1 0.8209636871423849 12.412151931239174 9.141628183279723 -4 0 0
1254 1 27.873851223571894 14.119387684686606 11.00284964276989 -2 2 -2
624 1 19.944481201422242 12.479037719768636 2.442855013727211 -3 0 0
1561 1 25.014017624640452 10.077391060522464 0.5370428153554528 -1 1 1
1960 1 12.645976088060143 7.419645768314355 0.4436726163066029 -1 -3 2
1674 1 24.28925149110518 12.126704228296852 1.4862236786900669 -2 1 1
1008 1 18.891355021429813 10.497506470520097 0.9890077305750264 -2 -3 0
1768 1 21.537112729035506 10.004402829555127 1.9850812095527655 -2 -2 2
1285 1 22.462013959381753 13.136455010633107 0.931997411989353 -1 -1 2
62 1 22.87598780023361 12.890335021984463 5.028358408038172 -1 -3 0
1456 1 17.9049930313607 13.425783826882162 10.849874704318125 -1 -1 -1
580 1 26.38454400053669 10.286379917879099 2.401734948538356 1 -1 1
1918 1 11.042524696540646 10.019402540723833 14.129684050307837 -3 -2 3
1274 1 22.274911662232864 12.044827676575093 2.7602147000911548 1 2 0
1186 1 24.06097610996155 13.846203191112366 3.1944067728798773 -1 -1 2
1238 1 26.91020643180682 10.92481857777254 0.2704871187403016 0 0 5
557 1 25.62751710259959 11.947210673886584 3.8893114204730996 0 0 3
468 1 3.844574881181714 0.1562112832341902 1.2868761265186552 1 -3 0
921 1 0.1301408327572165 3.730037802448878 1.6127219988681474 1 1 -1
322 1 28.29186342724195 2.444243146836908 5.574767576145449 -1 1 0
1335 1 18.215762358983955 1.8506760132536093 13.619320849758452 0 -2 -1
1666 1 3.093100516635185 0.1638010719818237 7.208603131188087 -3 0 0
1318 1 1.4521618220158272 4.168310105425623 5.982017255299513 2 1 2
1697 1 0.9568267981473684 3.9686362385454457 9.36744529270138 0 -2 -2
666 1 24.223103560744008 11.88808783333059 8.474192040746987 1 -2 1
1319 1 2.569040637462654 4.287560611014143 3.950519787694404 1 2 -1
579 1 3.9628419203528544 3.11776384310552 7.580379248980892 2 -2 1
707 1 0.3442199626340959 6.280313155979422 11.0589505158843 1 -1 -3
268 1 1.5704689603593056 2.286260664843305 7.279717113522613 -1 1 0
1649 1 12.404823297002554 11.87146259024215 0.8358863039451002 0 -1 0
147 1 3.1737324468959134 2.366706598079181 5.707256863028212 1 -1 1
902 1 16.37006829331674 0.08333741664855168 7.792959751214087 3 0 -1
569 1 8.568304522211875 2.035526259584386 6.832734660370414 3 -1 -1
199 1 3.1522421490390076 0.5974182220165771 3.4993232779076164 0 0 2
1659 1 4.9740562908603705 1.0758449182189078 8.025916239779232 1 1 1
977 1 6.189035966835159 2.1904252416462975 6.019334442348031 1 2 1
1531 1 8.018395928998412 1.6174714127351622 4.732063154417421 0 -3 1
1023 1 3.9207078598856793 13.7468401674279 7.314053588057741 1 1 3
1654 1 21.769888873183188 11.035570174891028 12.58250707377091 3 2 2
806 1 10.952499909616154 1.6739837392197765 6.2190125831093575 0 3 2
1658 1 10.167762081581337 3.644456848435311 5.614896359175801 0 3 0
797 1 5.07040393069384 13.775675002037548 5.023559878587353 0 -2 0
1794 1 10.681975331759924 2.968969841499224 9.914937744330153 -1 0 2
607 1 8.824782226576342 3.3138418758881856 8.37899720174233 1 2 1
840 1 16.96923204148025 -0.0014098618087459158 13.135592298127538 0 -1 4
169 1 17.079624324797432 8.593784166415013 12.625161751019958 1 -1 -4
394 1 13.694319347330028 2.6114097873974287 5.287215750899997 -1 2 -3
1653 1 12.591815410797764 4.308685148924739 6.272995261809326 1 3 -2
1807 1 15.704426963742366 2.4262257249808026 6.484093666726999 0 -1 3
1841 1 13.968482459199542 3.7220001237524327 7.716002771406917 2 1 3
1817 1 15.382874035716865 4.2801814950961585 5.53995251730777 -2 3 2
391 1 14.21512516987828 0.7050696209280778 8.508283812005292 0 2 4
1263 1 16.580237631967286 1.2957953393809283 9.53951407729281 -1 1 -2
320 1 11.494907765377368 2.891895993792489 7.986507008827939 0 2 2
1965 1 8.445024257883807 13.934565254856121 8.159507715861865 -1 1 0
46 1 18.768955408202224 0.8783968829321335 5.412529949884118 1 0 0
1011 1 16.4542710417039 0.3900701009992087 5.508888353322387 1 3 3
407 1 20.45438894104585 1.5413549654850218 7.482431988810261 0 0 2
313 1 17.433884841362516 2.055616445803006 7.619361132094861 1 -1 0
1306 1 18.703305078307686 0.2837775593831361 8.479544635632628 0 2 2
1793 1 21.876976231861622 3.835855276392006 8.083824452138524 -2 1 0
673 1 18.625033491144745 2.5837264421468817 9.165587294835602 -3 -3 4
898 1 22.498175348697448 0.22954187556355188 8.688742592201454 1 1 0
1551 1 23.9566964257944 3.6352305685931228 6.336944967757779 -2 1 -2
893 1 23.20976831948271 1.6573954817736114 6.813096829277615 2 2 0
1840 1 21.78618596355149 2.1843123237661435 9.552065985574457 2 2 -3
1480 1 22.793652004937762 4.560756561382037 10.391566620599063 0 1 2
1488 1 16.687690444842694 10.910351224207858 13.171235070023158 1 0 0
23 1 25.557941766602507 2.5646826219899044 7.876379445199609 2 -2 1
1701 1 0.5380365267678031 1.5142099112521772 8.915253387359162 2 0 1
620 1 25.360058759039795 0.2948706260758733 4.437339306769606 -1 0 -2
1188 1 26.185664730154393 3.213301198474196 5.592881324126794 -1 0 -2
363 1 25.71085480743488 3.762770273530509 9.605348323864462 0 2 -1
904 1 27.681145918252277 3.513105710251683 7.51296076588392 -1 1 -1
1956 1 27.0016758500452 5.664563873959638 9.78808568619324 -1 0 -2
6 1 24.72955092884576 3.2867770456599468 11.416630056113297 3 -3 0
471 1 23.788908820046462 4.1419318716246 8.639970593812816 1 -1 1
585 1 23.99833700327574 1.6259641972143435 9.256234607557262 -3 1 -2
1411 1 4.202762913182438 4.898125854797842 6.159445975839609 0 -1 -2
1545 1 0.721959340775068 7.045645495907593 6.2556426541229095 1 0 0
1393 1 3.596683564817267 8.91688727320867 9.921863051596992 0 2 3
1726 1 3.0171348946690064 7.745834464796758 8.005303951535309 2 -1 0
1251 1 3.377268692814342 9.764881463554502 6.990967450527015 -1 2 1
577 1 27.981303146163974 5.266975007237198 5.490626682341346 0 1 0
752 1 2.7510056779999257 4.919988177070951 8.345450653532422 0 1 -1
1861 1 5.506068508636631 8.178093434047488 9.612409396489246 -1 -1 -1
1015 1 4.57895347322803 7.932301918790524 5.483944752396186 1 1 -1
49 1 5.420439372724749 8.136755051682279 7.509362582712533 -3 0 1
1288 1 7.041894111548386 8.502452368406873 5.159425315502255 0 0 4
434 1 6.290114378721812 5.8337932525062675 9.194330122688799 3 0 -2
161 1 4.709039703226234 6.038044127225807 8.198082822542117 -3 -1 1
600 1 8.056331147835943 4.650908109956338 5.842585678634901 -1 1 0
1383 1 6.379016237906056 6.195520688059708 6.80909567699581 1 0 -1
2 1 4.185890722357356 4.342401551759639 9.864612878078004 3 0 0
1818 1 7.970619833467131 7.974806864086323 7.270208706427982 0 1 0
1326 1 6.308742685363391 3.6312310441245645 8.238263793029521 0 -2 -3
411 1 9.514948947222086 5.452526246051358 4.557698571797749 2 -2 -2
246 1 9.449388514601718 6.712641284935863 6.466239797225414 0 -2 1
144 1 10.882940325375872 8.639210732665033 7.415444990592825 1 -1 -2
1192 1 11.89347557808263 6.912870294682377 8.128152203190199 -1 -1 2
1175 1 8.271147364208094 5.6548872740423075 8.010033552930349 2 -1 -2
608 1 10.417510753235838 4.937617181177327 7.321443526487827 0 1 -2
732 1 9.192328973408475 10.197958545536975 7.911796864775167 1 0 0
1353 1 13.972789560094293 5.969043137365193 6.654486356256278 -3 -1 0
858 1 12.975998709027024 8.018742646846048 6.157995621276621 1 -1 0
272 1 11.732664135390731 5.969071729768542 5.513314951112003 1 0 -3
1141 1 14.779907477764109 7.622081903688617 7.826218021110291 2 -2 0
1613 1 15.687423846976571 6.803207408217738 5.305646092955831 0 2 -1
1068 1 16.71515348010497 8.36753565583275 6.298242762876926 -1 3 -1
1988 1 12.861902573428514 9.565034948471293 7.826028359487615 1 -1 -1
1672 1 18.278901007346136 6.515802387541537 6.268387244943216 -3 0 0
1181 1 15.857408530507875 6.83376567734534 2.8561658243257315 2 1 1
1979 1 19.59619228957381 7.839898064293517 5.560079874691426 0 -1 -2
1885 1 18.611320826965414 5.385758970750857 8.553199968801161 -2 1 1
1765 1 17.117411996007696 3.852406974549309 9.37122253877521 2 1 0
942 1 18.553327813311135 8.537250755368223 7.847566025482522 1 -2 3
1529 1 17.932146607661302 8.414841261796637 10.49174849148795 -2 0 1
833 1 17.33569606806596 4.30460096902888 6.712641442073648 -1 -1 2
674 1 15.901201795904537 8.641492208224577 9.341726883048459 0 -1 2
1993 1 18.46291288570826 9.962936962599798 5.933530449292597 0 4 0
178 1 20.084619743331807 10.152499578132932 4.176785707547086 0 -1 0
1734 1 22.917737448978453 5.559827509674924 6.7357873756689 -2 1 1
127 1 21.93929332852392 7.628386711227002 6.179227437548178 -1 -2 -1
742 1 21.191650457012308 5.453086788928322 4.829392587540313 -2 1 -2
1598 1 24.634067600574294 6.8898766468736845 6.321402803461399 0 0 0
1441 1 20.269220791306996 6.089001878687476 7.1677221336424575 -1 -1 1
1182 1 23.788546663348264 9.026720419379599 5.335353228647386 -2 0 -2
497 1 23.236725284359657 8.122674910551664 8.320314107413106 1 0 2
686 1 21.598587917608583 9.444343459968396 10.485121549256721 -2 -1 1
1631 1 26.747687497817072 7.8161331461716905 6.0544729427789905 0 -2 2
854 1 1.1298999875791829 6.05662891980892 8.52816487586505 1 -1 1
1140 1 27.37428364592606 6.267460413929784 7.638634218020093 0 0 0
65 1 25.68872882704212 7.9876776774578335 8.422136556904428 -3 0 1
1453 1 25.719286601434415 4.807570815682148 7.1951319132205525 -2 0 -1
714 1 24.36455585937744 6.078131705255171 8.918537814771877 -1 2 1
669 1 27.126937425348803 9.427933826561048 7.7058086777652575 -3 0 2
1498 1 26.69513158182562 9.95577683854818 10.011791622918214 1 0 1
1758 1 1.548549958020726 11.940084786223084 3.764138639077732 0 -1 1
36 1 1.105066796350069 8.92897430493184 7.0371646692949135 1 2 1
1282 1 4.750056236165822 10.58162850922372 10.69868858313271 -2 1 -2
561 1 0.46253984610183907 9.94925344345786 4.8782991184225795 -1 0 -1
1080 1 26.799047938340294 10.861398497055797 6.086423836042448 1 2 1
849 1 5.06649707084974 9.892578785447624 5.6347882044250035 3 -2 0
427 1 2.6203029175798656 10.812394095115282 8.70367575201782 -3 0 2
1910 1 1.7549462096978836 12.308247540716742 6.658723607785567 -1 1 1
1778 1 27.16071739575784 13.243264648212232 5.53869681401562 0 0 0
1980 1 6.478459811398543 11.734308830355218 5.455519250223165 0 -1 -1
1647 1 8.70760616711251 12.378099594589713 6.508372333265563 1 0 -1
886 1 7.360626977033397 10.289746918275826 7.018062418122436 5 1 4
1418 1 4.888552926782787 11.833086171196799 7.442785375961135 -1 2 2
1440 1 5.411415631565659 10.163579188956676 8.433627153176245 2 0 0
1610 1 6.4997746374829015 13.68665961118353 6.621175783929413 0 2 0
1747 1 0.6022418505857509 11.679018638400485 12.021317986410486 2 0 -1
658 1 11.188227118530808 9.536359568023324 5.1273953390614055 1 -2 -1
1756 1 10.95547347502993 11.272530501975648 7.2394036738550875 3 0 1
1443 1 22.855687381813212 10.879259610726075 0.5879485289561411 0 1 0
1202 1 17.512704921852393 2.472499311806677 11.488058422214687 1 0 -2
798 1 9.239576455726517 12.020529369933433 9.825678484001521 -1 1 0
425 1 8.947133764569404 8.516565952120347 5.415506994944852 -2 1 -1
542 1 11.2118426796803 11.742289647035651 4.507606430345509 -1 1 0
897 1 10.112309301102636 14.0343260237574 5.068843239593038 -1 1 -1
1916 1 16.773609257187065 12.113595623700942 8.919923450929092 -1 2 2
472 1 14.375648239414536 10.148411801083759 13.928615609667613 0 -1 -1
928 1 14.865799196677404 10.405141495584695 8.98648539043717 -1 0 -1
720 1 13.863726360946647 11.182703439335745 5.103135239780264 2 1 -1
1173 1 12.26825185746623 12.794966119841384 6.0143983349250645 3 -2 1
1218 1 17.323928889377672 10.639091182408288 7.793738982743535 1 0 0
1201 1 9.305843908859348 1.8960704300121625 0.7288256229978567 2 0 -1
1297 1 17.587172070082975 12.237659588063092 6.019472402415643 -1 0 -1
132 1 10.24852795999406 8.09832242295774 13.318809707083107 -1 0 2
1325 1 19.405481134382054 9.614406574032047 9.402903757803097 -1 -3 -2
1102 1 18.796559592120946 12.053648365085364 9.145641473350691 0 1 -1
1143 1 1.4029819581056346 11.882388736341552 0.9032933268778256 3 0 2
758 1 19.46424951554208 12.295285028894963 7.227277082020581 1 0 -1
201 1 21.177863339455822 10.72148699096056 8.628520509144778 -1 0 0
521 1 22.325326630754226 10.559633478157526 5.0760463028328004 -4 0 1
267 1 15.52402238641972 11.8269603097215 6.696804964755732 -1 2 1
493 1 21.580782199275955 8.564084686909666 3.9862869228628934 -1 -2 -3
1327 1 24.687680096715944 11.690196561908694 5.789802482629253 0 3 1
912 1 20.933265792635357 8.210136617496428 8.557715355769153 0 -1 1
1573 1 21.678237468682756 12.238721838387425 6.655974263669023 0 1 0
1476 1 21.036735850300115 5.284531199290168 0.6033589975882189 -1 2 1
1372 1 24.99188289726023 11.228063686971364 10.838764961760623 1 -1 0
1655 1 23.192220160737183 10.12022983762478 7.175732435498565 -1 1 -1
1784 1 12.918015083306845 0.23117025147319686 1.559732259024356 0 2 0
578 1 26.41450094630833 9.274439131783412 4.3491237871516875 -2 1 -1
1710 1 25.15654925564265 14.161292458149344 5.287546079635094 -1 1 2
1634 1 27.22088328434457 11.858758856608878 10.229820951542761 0 2 0
871 1 23.9585155097068 4.208326157118394 0.9334551186782296 1 0 1
678 1 25.257018394818594 9.405040472596472 6.734569846629024 -3 1 0
1429 1 26.67548203167442 11.678378026803262 8.21342075293506 -1 -2 -2
431 1 22.507394664857213 11.357907369322522 10.348960597208855 0 0 -2
1283 1 0.012249604597078897 10.778538670871155 7.395192346173066 -2 1 -1
1215 1 1.9226754134765605 2.3385015326418417 10.970591121535548 1 0 -1
803 1 5.311851829003058 13.235997131631162 11.134550124475918 -1 1 0
589 1 3.049120475219335 1.6772995313894814 9.071191733860456 3 1 -2
1809 1 3.2370000740538867 2.8550250210351713 12.692980447559952 2 4 1
217 1 0.8727420091245666 3.9289228504818463 13.369240997669984 -1 4 3
780 1 2.211459901505078 4.525576612918798 11.47132143966162 -2 1 -1
845 1 28.29781691918109 3.7699514892833865 11.537647266835462 1 -2 -4
992 1 3.065593000112987 6.497079464694209 9.797382410708325 -1 -1 0
2044 1 24.419880629524517 13.511104911084226 11.340450056916577 1 0 0
39 1 13.392508615166273 12.337934121647494 7.980535833388572 0 -4 -1
295 1 5.413510154187169 2.917358404530677 11.835271038156252 1 -1 1
331 1 5.174634298985879 1.8154968116207488 9.890200882499562 -1 -1 -1
1661 1 7.303723560214598 3.131792096267237 10.321051268401698 0 2 -2
1295 1 18.602375817160592 0.12060113906048942 1.3936844408803604 1 1 -2
1920 1 6.016129370695655 5.034480944345258 11.06473527760971 -2 0 0
1522 1 7.633462357882362 3.5348810395600427 12.507631121638301 0 2 1
982 1 11.842935469229097 4.007208478713118 13.48813092136854 0 -3 3
1333 1 3.887070128325242 5.111721033836069 12.662837355486188 -1 3 0
869 1 19.851380249868967 9.591134071425742 11.73431355342216 1 0 1
348 1 11.294152799706913 0.5436949458202476 11.42146131956232 0 2 0
1214 1 7.370363461982849 1.4817937638356582 8.547270290839156 2 1 0
1862 1 10.125802292609775 4.378318435717647 11.583967732261994 -2 -1 2
755 1 12.45141294316101 2.40899547415702 12.002395943894408 -2 4 -1
622 1 9.889430991997967 1.1635862007469813 9.010184368609886 -2 0 -1
1881 1 9.315145459645208 1.7488081335422054 11.425616858415667 -1 2 0
1572 1 21.35728327148315 0.5127614063972633 5.400614047004011 1 4 0
699 1 7.189596179343153 1.5190920666574812 13.689734556656314 -2 -1 -1
1585 1 4.685955002761927 6.156390969118148 0.5475350633339853 2 -2 3
1054 1 14.085249977481675 3.59253554410467 12.687510769871897 4 2 -2
2028 1 12.793969824000266 3.329425639814723 9.960634521891505 1 4 1
670 1 25.387207777049944 12.909130001740408 13.977261981071745 3 0 0
1148 1 14.16519022224973 12.181697075920253 9.865492403024192 1 2 1
1368 1 19.849829671308306 2.473110807597268 11.009235150202798 2 0 -1
692 1 13.643113736551983 12.557518935862934 12.018845324739958 1 1 0
956 1 14.895470748889236 2.7762327991522224 9.341372362781042 0 -2 2
395 1 21.180441807721714 1.932238451800496 13.801139270764299 2 1 -1
611 1 19.322524976953993 3.6171337859568564 7.1241491349161254 0 2 2
1278 1 15.240786062992948 1.891744167365436 11.336136578842916 -1 0 0
1599 1 18.67835947000194 4.274417463398467 11.109070745814773 1 -1 0
1065 1 12.247771393944245 13.164106670761566 10.191725159765188 0 2 -1
158 1 18.819934056765085 0.2523406229814513 11.226462550854666 1 0 0
1460 1 23.105198150128416 1.4171700041776365 11.931158655870075 -1 -2 0
321 1 21.627832035774617 3.1658629751286966 11.742669609264873 -4 -1 1
748 1 25.43106087365629 1.234092965004211 13.314806245428029 1 -2 4
1958 1 20.303190162060567 4.15185345475171 9.421895015812861 -1 1 0
1651 1 14.724139866178454 7.48195797202672 13.959876350510429 -2 -1 3
847 1 22.269451290057727 13.675859349624053 10.690002801080094 -1 1 1
708 1 0.07410563590465405 1.0773154879363556 10.76833873108558 3 2 0
146 1 26.616521253781514 1.993293896417844 11.152329526973922 -1 -1 0
745 1 0.22607197400971246 5.889339620439688 13.249965779295461 -1 2 2
683 1 23.734882191279702 2.5615097087595817 13.789939695295443 1 3 1
108 1 23.20929406752176 9.402297258839146 12.305213155213691 -2 1 -1
3 1 26.622003795988295 3.012416625645034 13.808241817992261 -4 1 -1
1287 1 26.521118234640078 4.573157966385875 12.069426272889414 0 1 0
1147 1 13.222582007659385 10.556571829433064 11.057944377369079 0 3 0
1600 1 17.7308719977208 0.24603462970672663 3.3630893983695826 0 1 1
532 1 2.661370965745384 7.074302518066032 12.699920287424996 2 0 0
1834 1 27.663822416002365 7.8322018891705705 12.459216609904791 2 -1 1
264 1 3.395740094553316 9.187473939523597 12.798338731334777 2 0 1
1400 1 4.557319335486745 7.09275796219239 11.462849386924477 -2 0 1
746 1 16.2740157217972 11.776160401470095 11.007457241636143 0 -2 3
366 1 15.323896282731429 9.601323687644545 7.090540596242494 -5 0 3
741 1 13.581893060418166 8.684566044106308 9.59611891967378 -2 -2 1
1791 1 6.012605993910212 1.1604137315181013 3.5171467971292754 1 2 1
944 1 9.525359190919865 7.2031418181601135 8.922171324874425 2 0 -1
375 1 8.159425755356386 5.206976931848907 10.328575770637451 0 0 0
1041 1 5.779212467572745 8.6759834011588 12.817374714126373 -2 -2 1
309 1 7.105238152449718 7.48115033397154 10.962886100322022 0 1 0
1878 1 6.075344379647823 6.443938064614919 13.229629317852433 -1 -2 1
1730 1 6.067467473290456 12.685660601805939 0.8518916982184974 -2 0 -1
1515 1 10.65481524014053 5.335087417112155 9.343798421751517 1 1 -2
618 1 12.721386184921093 5.133982788379021 8.708923611930368 1 0 1
1461 1 10.57424184412822 5.937566566165561 13.262609167958056 1 -1 1
55 1 11.480373252445816 8.783846253460803 9.665900117560936 1 -2 -1
794 1 12.290489368878303 4.709206829366759 11.338273350219898 1 -1 -1
1438 1 8.094359101086614 9.17694335028272 11.867834648843827 -2 0 -1
1189 1 15.092554965420064 13.691594256155245 8.123108632480886 0 -1 1