LAMMPS (29 Oct 2020)
OMP_NUM_THREADS environment is not set. Defaulting to 1 thread. (src/comm.cpp:94)
  using 1 OpenMP thread(s) per MPI task
package omp 0
using multi-threaded neighbor list subroutines
package omp 2
set 2 OpenMP thread(s) per MPI task
using multi-threaded neighbor list subroutines
units metal
dimension 3
boundary p p p

lattice fcc 3.5440
Lattice spacing in x,y,z = 3.5440000 3.5440000 3.5440000
region box block 0 8 0 8 0 8 units lattice
create_box 1 box
Created orthogonal box = (0.0000000 0.0000000 0.0000000) to (28.352000 28.352000 28.352000)
  1 by 2 by 2 MPI processor grid
create_atoms 1 box
Created 2048 atoms
  create_atoms CPU = 0.001 seconds

# read_restart after_heating_press_200000_3100.lmp
# read_restart after_cooling_press_200000_1800.lmp

variable P equal 300000
variable dt equal 0.001
variable loopVar loop 6
variable sys_press equal "press/10000"

variable sim string "heating"
# variable sim string "cooling"



pair_style eam/alloy
pair_coeff * * Co_Zhou04.eam.alloy Co
Reading eam/alloy potential file Co_Zhou04.eam.alloy with DATE: 2018-03-30




neighbor 2 bin
neigh_modify every 10 check yes

thermo 1000
thermo_style custom step temp vol press ke pe density

timestep $(dt)
timestep 0.0010000000000000000208



velocity all create 3100 123123

print """
yo aagadi
"""

yo aagadi

label ensemble

print """
Label pachadi solti, hos garam.
"""

Label pachadi solti, hos garam.

variable T equal 3000+${loopVar}*100
variable T equal 3000+1*100
# variable T equal 1750


reset_timestep 0
fix 1 all npt temp $T $T $(dt*100) iso $P $P $(dt*1000)
fix 1 all npt temp 3100 $T $(dt*100) iso $P $P $(dt*1000)
fix 1 all npt temp 3100 3100 $(dt*100) iso $P $P $(dt*1000)
fix 1 all npt temp 3100 3100 0.10000000000000000555 iso $P $P $(dt*1000)
fix 1 all npt temp 3100 3100 0.10000000000000000555 iso 300000 $P $(dt*1000)
fix 1 all npt temp 3100 3100 0.10000000000000000555 iso 300000 300000 $(dt*1000)
fix 1 all npt temp 3100 3100 0.10000000000000000555 iso 300000 300000 1
print """
<--------------------------------------------------------------------->
<------------------ Equilibrating at temperature $T ----------------->
<--------------------------------------------------------------------->
"""

<--------------------------------------------------------------------->
<------------------ Equilibrating at temperature 3100 ----------------->
<--------------------------------------------------------------------->

fix temp all print 1000 "$(step) $(temp) $(press) ${sys_press} $(vol) $(ke) $(pe) $(density)" file temp_${sim}.txt screen no title  "step temp press pressGiga vol ke pe density"
fix temp all print 1000 "$(step) $(temp) $(press) ${sys_press} $(vol) $(ke) $(pe) $(density)" file temp_heating.txt screen no title  "step temp press pressGiga vol ke pe density"
run 250000
Last active /omp style is pair_style eam/alloy/omp
Neighbor list info ...
  update every 10 steps, delay 10 steps, check yes
  max neighbors/atom: 2000, page size: 100000
  master list distance cutoff = 7.6035394
  ghost atom cutoff = 7.6035394
  binsize = 3.8017697, bins = 8 8 8
  1 neighbor lists, perpetual/occasional/extra = 1 0 0
  (1) pair eam/alloy/omp, perpetual
      attributes: half, newton on, omp
      pair build: half/bin/atomonly/newton/omp
      stencil: half/bin/3d/newton
      bin: standard
Per MPI rank memory allocation (min/avg/max) = 4.354 | 4.354 | 4.354 Mbytes
Step Temp Volume Press KinEng PotEng Density 
       0         3100    22790.356    46122.756     820.2461    -9015.757        8.794 
    1000    3207.0569    22001.916    290564.89    848.57288   -8142.0587    9.1091333 
    2000    3074.5415    21854.389    303166.51    813.50991   -8137.4844    9.1706243 
    3000    3125.6065    21885.291    298031.24    827.02148    -8148.525    9.1576754 
    4000    3127.2199    21896.152    298274.33    827.44837    -8147.677    9.1531327 
    5000    3105.8452    21936.569    298584.72    821.79271   -8123.8797    9.1362686 
    6000    3138.0862    21838.403     304886.4    830.32355   -8139.3423     9.177337 
    7000    3109.8208    22046.576    285116.95    822.84464   -8138.0183    9.0906807 
    8000    3201.7315    21855.499    306698.82    847.16381   -8128.4202    9.1701583 
    9000    3088.8295    21947.936    289666.48    817.29043   -8160.2929    9.1315367 
   10000    3032.1525    21881.022    301441.22    802.29395   -8127.7092    9.1594621 
   11000    3121.4224    21852.397    308552.59    825.91436     -8115.63    9.1714601 
   12000    3092.3122    21992.959    294371.97    818.21194   -8119.5367    9.1128431 
   13000    3067.7779    21928.448    296317.41    811.72027   -8135.7552    9.1396522 
   14000    3080.8243    21928.883    294257.82    815.17229   -8148.3735    9.1394709 
   15000    3170.6075    21913.857    294608.54    838.92853   -8156.3219    9.1457378 
   16000    3139.8391     21867.43    300346.34    830.78735   -8148.7549    9.1651552 
   17000    3210.9829    21897.564     303225.2    849.61168   -8126.8496    9.1525424 
   18000    3014.9545    21997.425    290209.16    797.74345   -8134.9139    9.1109929 
   19000    3087.8256    21916.649    298778.57    817.02482   -8129.6663    9.1445727 
   20000    3149.2784    21845.374     309706.7    833.28494   -8112.0701    9.1744085 
   21000    3061.1809    21912.884     295160.1    809.97475   -8148.3688    9.1461435 
   22000    3122.6413    21945.735    294303.56    826.23688   -8142.7704    9.1324529 
   23000    3022.1439    21801.519    308741.95    799.64571   -8123.7879    9.1928632 
   24000    3158.2892    21930.838    297565.82    835.66916    -8134.595    9.1386559 
   25000    3095.4166    22036.747    290209.76    819.03335   -8121.1943    9.0947354 
   26000    3138.9141    21801.556    306425.58     830.5426   -8145.3719    9.1928479 
   27000    3096.8642    21829.244    305154.59    819.41638   -8139.5772    9.1811876 
   28000    3143.3294    21907.139    301854.72    831.71088   -8129.0489    9.1485422 
   29000    3068.9995    21772.322    312943.39     812.0435   -8123.2063     9.205191 
   30000    3120.1315    21954.304    290810.61    825.57282   -8154.3156     9.128888 
   31000    3140.7999    21909.909    300039.76    831.04157   -8131.9693    9.1473854 
   32000    3100.6115    21892.279     302261.1    820.40791   -8124.6271    9.1547523 
   33000     3066.626    21862.957    306354.19    811.41548   -8116.3565    9.1670301 
   34000    3142.3524    21911.166    296858.31    831.45235   -8146.0483    9.1468609 
   35000    3110.1032    21837.205    305173.25    822.91938   -8135.7565    9.1778404 
   36000    3042.1586    22041.898    285070.47    804.94153   -8140.5539    9.0926103 
   37000    3045.1793    21850.347    307825.73    805.74078   -8110.1358    9.1723203 
   38000    3058.2425    21857.774    307929.86    809.19725   -8107.7086    9.1692041 
   39000    3005.7164    22002.909    286809.07    795.29908    -8152.305    9.1087224 
   40000    3082.1101    21819.033    306421.86    815.51251   -8135.9894    9.1854845 
   41000    3090.2411    21777.461    308137.01    817.66393   -8144.9152    9.2030189 
   42000    3082.9059    21922.934    297911.37    815.72307   -8130.1151    9.1419511 
   43000    3070.2085    21776.304    309383.94     812.3634   -8142.0976     9.203508 
   44000    3189.1945    21936.072    293303.48    843.84656   -8154.7036    9.1364757 
   45000    3065.9448    21973.436    288332.77    811.23525   -8154.5082    9.1209397 
   46000    3111.5465    21839.956    304567.72    823.30125   -8138.5635    9.1766844 
   47000    3057.2381    21898.806    300694.39     808.9315   -8126.1355    9.1520234 
   48000    3080.2903     21879.71    297465.48    815.03099   -8150.9259    9.1600113 
   49000    3147.3819    21906.259    299852.53    832.78314   -8134.8188    9.1489099 
   50000    3088.8991    21896.536       296354    817.30885   -8152.5485    9.1529721 
   51000     3034.516    21944.442    296327.51    802.91933   -8123.9214    9.1329908 
   52000    3084.2464    21739.143    314959.29    816.07777   -8131.4486    9.2192407 
   53000    3070.9064    21935.746    295091.12    812.54807   -8137.3443    9.1366116 
   54000    3050.7764    21807.818    309333.61    807.22175   -8124.2336    9.1902081 
   55000    3068.4704    21784.914    307923.39    811.90351   -8141.1775    9.1998704 
   56000    3049.0054    21945.389     293266.6    806.75317   -8144.4154    9.1325966 
   57000    3072.8291    21953.923    294547.68     813.0568   -8128.5261    9.1290468 
   58000    3203.5854    21851.998    307256.44    847.65434   -8124.3299    9.1716277 
   59000    2939.1918    21849.081    297716.31    777.69697   -8159.7803    9.1728522 
   60000    2993.4815    21851.217    305025.85    792.06178   -8120.0392    9.1719551 
   61000    3046.2495    21871.229     307524.1    806.02395   -8107.0297    9.1635629 
   62000    3046.7227    21978.495    288647.82    806.14916   -8152.2518    9.1188405 
   63000    3039.9925    21957.411    294969.66    804.36839   -8126.3575    9.1275966 
   64000    3207.5853    21903.378    305202.45     848.7127    -8110.494     9.150113 
   65000    3066.3608    21822.038    306769.59    811.34531   -8128.5068    9.1842196 
   66000    3004.3971    21827.576    300204.07    794.95001   -8156.5825    9.1818892 
   67000    3068.9136    21877.034    306733.87    812.02078   -8104.8559    9.1611316 
   68000    3087.7299    21895.719    301683.19    816.99948   -8126.1508    9.1533137 
   69000    3035.2633    21948.454    293911.19    803.11707   -8139.7316    9.1313212 
   70000     3168.527    21923.877    294094.21    838.37804   -8151.4659    9.1415578 
   71000    3134.4237    21740.285    319247.23    829.35445   -8112.7505     9.218756 
   72000    3064.9315    21933.473    292918.49    810.96713   -8150.3458    9.1375582 
   73000    3064.1588    21938.001    293915.32    810.76269   -8142.5703    9.1356722 
   74000      3088.18    21834.592    309721.23    817.11859   -8108.1597     9.178939 
   75000    3033.0816    21774.082    309572.09     802.5398   -8135.2295    9.2044473 
   76000    3087.8045    21967.399    292046.49    817.01923   -8140.8988    9.1234463 
   77000    3128.6453    21844.442    308511.53    827.82551   -8112.2092    9.1747999 
   78000    3068.4923    21854.372       304676     811.9093   -8130.4532    9.1706311 
   79000    3028.2162    21918.066    294227.34    801.25242   -8147.5331    9.1439813 
   80000    3144.0707    21912.814    295400.91    831.90701   -8152.3367    9.1461728 
   81000    3174.6169    21927.937       295498     839.9894   -8147.4842     9.139865 
   82000    3005.1441    21843.137    300630.88    795.14765   -8151.2561    9.1753483 
   83000    3160.4995    21733.041     319999.9    836.25399   -8116.0049    9.2218291 
   84000    3023.9624    21815.208    305216.76     800.1269   -8142.9767    9.1870949 
   85000    3097.8283    21940.534    298620.75    819.67149   -8122.7686    9.1346176 
   86000    3089.3107    21889.558    303413.99    817.41775   -8119.6468    9.1558901 
   87000    3091.7544    21879.606    300922.31    818.06435   -8134.9914    9.1600547 
   88000     3156.641    22042.518    280663.57    835.23306   -8172.2686    9.0923546 
   89000    3120.5045    21827.178    311669.39    825.67151   -8109.2304    9.1820569 
   90000    3040.5269    21870.628    303229.97    804.50979   -8122.8759     9.163815 
   91000    3100.4266     21870.28    302260.35    820.35898   -8132.9591    9.1639606 
   92000    3011.5232    21866.682    300327.55    796.83554    -8137.098    9.1654685 
   93000    3059.6633    21824.432    311127.31     809.5732   -8107.8349    9.1832122 
   94000    3070.9244    21876.493     301082.2    812.55283   -8137.0416     9.161358 
   95000    3048.4626     21963.05    294784.68    806.60954   -8129.1878    9.1252531 
   96000    3158.2303    21907.636    301042.04    835.65358   -8131.9625    9.1483346 
   97000    3141.6286    21876.817    300569.46    831.26084   -8141.6322    9.1612224 
   98000    2992.2998     21895.83    298249.65    791.74911   -8134.5018    9.1532672 
   99000    3166.6344    21760.706    318204.97    837.87727   -8109.4246    9.2101049 
  100000    3045.0236    21866.154    296175.06    805.69959   -8165.1098    9.1656898 
  101000    3094.7802    21864.227     298741.5    818.86496   -8151.8412    9.1664976 
  102000    3096.9604    21890.241    296883.41    819.44183   -8155.4392    9.1556043 
  103000    3163.9673    21855.673    306205.57    837.17155   -8124.1565    9.1700852 
  104000    3120.8898    21880.885     299419.1    825.77344   -8143.0504    9.1595191 
  105000    3001.1318    21919.677    298685.38    794.08602   -8124.8391    9.1433093 
  106000    3068.8027    21894.963    300341.52    811.99143   -8129.9577      9.15363 
  107000    3219.8348    21929.014    304702.45    851.95386   -8101.8673    9.1394164 
  108000    3092.5428    21956.975    293677.55    818.27295   -8142.6816    9.1277779 
  109000    3078.8565    21828.196    304301.93    814.65163   -8144.2488    9.1816284 
  110000    3134.3394    21869.059    305212.66    829.33216   -8123.9458    9.1644724 
  111000    3093.3682    21881.176    295768.34    818.49135   -8162.3222    9.1593973 
  112000    3090.9041    21769.828    313124.87    817.83936   -8124.4527    9.2062458 
  113000    3108.5467    21960.454    296696.56    822.50751    -8123.458    9.1263317 
  114000    2978.3645    21910.041    295848.85     788.0619     -8136.42    9.1473305 
  115000    3067.6538    21927.594    299736.56    811.68743   -8118.5334     9.140008 
  116000    3150.6718    21897.989    301910.85    833.65363   -8127.7329    9.1523649 
  117000     3086.743    21897.714    297379.82    816.73835   -8146.2205      9.15248 
  118000    3087.7769    21961.198    293120.47    817.01193   -8136.7042    9.1260225 
  119000    3146.9019    21881.539    300576.28    832.65615   -8142.6761    9.1592456 
  120000    3197.1217    21925.318    299812.72    845.94408   -8129.4146     9.140957 
  121000    3131.8518    21915.289    298600.65    828.67394    -8134.001    9.1451402 
  122000    3191.0831    21835.273     313930.6    844.34628   -8096.8509    9.1786527 
  123000    3108.3428    22015.962    286196.26    822.45356   -8151.9625    9.1033218 
  124000    3100.5936    21882.006    295792.94    820.40316   -8160.2019      9.15905 
  125000    3071.2116    21931.004    300804.05    812.62881   -8115.6662    9.1385869 
  126000    3035.2515    21874.109    300031.63    803.11393   -8138.5246    9.1623566 
  127000    3102.4116    21911.804    308063.67     820.8842   -8086.9271    9.1465947 
  128000    3143.6489    21824.877    305916.15     831.7954   -8136.1492    9.1830248 
  129000    3018.8521    22025.805    279502.39    798.77472   -8175.1513    9.0992535 
  130000    3167.8823    22013.276    292337.63    838.20745   -8122.1448    9.1044324 
  131000    3067.7779    21854.085    306142.84    811.72029   -8121.3251    9.1707516 
  132000    3067.0888    21986.098    297748.71    811.53793   -8100.3062    9.1156869 
  133000    3034.1065    21998.802    292522.23    802.81099   -8120.9415    9.1104227 
  134000    3081.9495    22009.606    293915.05    815.47001   -8114.7884    9.1059505 
  135000     3024.357    21908.881    305125.23    800.23129   -8097.6999    9.1478149 
  136000    3097.0162    21873.335    307215.95    819.45661   -8107.6356     9.162681 
  137000    3024.7562     21992.38     287263.6    800.33692    -8146.585    9.1130829 
  138000    3118.3466    21848.874    302954.82    825.10052    -8138.191     9.172939 
  139000    3094.3933    21921.241    305243.45    818.76259    -8095.745    9.1426571 
  140000     3085.944    22003.952    289583.94    816.52694   -8138.2466    9.1082903 
  141000    3146.8992    21923.811    299479.31    832.65541   -8129.0453    9.1415853 
  142000    3135.1189    21836.175    308189.93    829.53841   -8122.0379    9.1782735 
  143000    3157.6956    21888.954     299475.6     835.5121   -8144.1308    9.1561427 
  144000    3082.2624    21848.168    309256.98     815.5528   -8105.8667    9.1732353 
  145000    3003.4055    21867.825    298539.34    794.68764   -8147.0667    9.1649896 
  146000     3089.085    21956.164    293212.13    817.35803   -8144.4833    9.1281148 
  147000    3044.0826    21677.865    322861.19     805.4506   -8118.6873    9.2453011 
  148000    3158.3232    21894.642    305226.45    835.67816   -8111.1311    9.1537639 
  149000    3090.7157    21963.352    294947.41    817.78952   -8130.7082    9.1251273 
  150000    3106.5599    21905.168    296801.36    821.98183    -8144.963    9.1493653 
  151000    3066.8863    21845.737    305254.17    811.48437   -8128.8512    9.1742561 
  152000    3120.2389    21845.331    308292.46    825.60123   -8114.8438    9.1744266 
  153000    3130.4952    21949.567    293760.22    828.31499    -8142.412    9.1308585 
  154000    3100.1448    21971.397    293089.58    820.28441   -8130.9001    9.1217861 
  155000    3127.7599    21863.875    303024.88    827.59125   -8133.5196    9.1666451 
  156000    3029.9707    21878.003    296793.06    801.71667    -8153.637    9.1607257 
  157000    3106.5388    21872.951    303201.59    821.97624   -8124.5583    9.1628416 
  158000    3029.0291    21880.435    303591.87    801.46752   -8116.2627    9.1597076 
  159000    3074.8216     21864.64    301129.48    813.58402   -8140.9604    9.1663246 
  160000    3135.2578    21940.025    296025.24    829.57515   -8136.6105    9.1348296 
  161000    3047.2749     21811.26    313965.38    806.29527   -8094.3733    9.1887578 
  162000    3058.9146    22022.437     288127.1     809.3751   -8137.1057    9.1006451 
  163000    3212.7594    21926.033    294546.34    850.08173   -8157.2609    9.1406589 
  164000    3112.9228    21848.223    308163.21    823.66541   -8118.6364    9.1732124 
  165000    3035.7913    22000.253    292106.54    803.25676   -8121.0981    9.1098218 
  166000    3125.0106    21798.683    304970.19    826.86378   -8155.6815    9.1940595 
  167000    3114.0214    21816.742    308747.35    823.95611   -8127.4304    9.1864489 
  168000    3038.1196    21915.383    293191.16    803.87281   -8155.2361    9.1451009 
  169000    3142.8166    21925.587    298679.05    831.57519   -8129.2172    9.1408445 
  170000    3125.6938    21856.912    302168.91    827.04457   -8141.0441    9.1695655 
  171000    3033.3467    21766.759    310480.15    802.60995   -8137.9432    9.2075438 
  172000    3009.9165    21956.196     292679.4    796.41042    -8138.928    9.1281014 
  173000    3143.8024    21869.434    311331.43    831.83602   -8091.1948    9.1643151 
  174000    3127.2328    21830.301    302001.06    827.45177   -8155.9941    9.1807432 
  175000      3088.06    21847.677    304041.11    817.08683    -8136.648    9.1734413 
  176000    3155.4763    21936.714    295458.73    834.92489   -8145.0787    9.1362084 
  177000    3100.4897    21829.435    305317.04    820.37567   -8139.4671    9.1811072 
  178000    3162.8618      21931.4     294642.6    836.87904   -8149.6211    9.1384218 
  179000    3050.2398     21909.46    295042.46    807.07978    -8148.406     9.147573 
  180000    3089.1763    21943.019    297837.99     817.3822   -8123.0165     9.133583 
  181000    3171.8304    21860.722    303957.37    839.25211    -8132.972    9.1679673 
  182000    3057.9613    21882.009    300755.59    809.12286   -8136.9502    9.1590489 
  183000    3139.0049    21908.414    296798.91    830.56663   -8148.2722    9.1480096 
  184000     3095.538    21823.257    307347.49    819.06547   -8129.8815    9.1837067 
  185000     3116.526    21910.566    293774.87     824.6188   -8159.8317    9.1471115 
  186000    3185.7595    21887.003    300915.73    842.93769   -8139.0723    9.1569589 
  187000    2965.6718    21919.266    298866.53    784.70346   -8120.5449    9.1434806 
  188000    3048.9464    21937.899    297112.47    806.73754   -8125.0545    9.1357145 
  189000    3221.9079    21907.684    297804.44    852.50238   -8147.4692    9.1483147 
  190000    3126.5255    21839.379    303455.74    827.26463   -8137.6255    9.1769271 
  191000    3040.5195    21965.702    295707.84    804.50783   -8120.7297    9.1241511 
  192000    3023.5195    21966.753    291808.08     800.0097   -8138.9894    9.1237147 
  193000    3130.6818    21846.254    305012.43    828.36438   -8132.5182    9.1740392 
  194000    3121.3813    21911.479     292378.9     825.9035   -8166.7063    9.1467303 
  195000    2983.0002    21866.286    308529.16    789.28849   -8095.7828    9.1656347 
  196000    3128.3543    21913.757    305245.44    827.74853   -8102.5705    9.1457794 
  197000    2999.1619    21953.591    294264.57    793.56479   -8132.0068    9.1291846 
  198000    3126.6922    21888.876    300764.95    827.30873    -8135.044    9.1561753 
  199000    3049.3688    21891.011    306601.39    806.84932   -8099.9822    9.1552825 
  200000    3115.5165    21940.643     296148.3     824.3517   -8133.8265     9.134572 
  201000    3092.1446    21927.617       298898     818.1676   -8123.8428    9.1399985 
  202000    3124.0276    21887.049    301043.57    826.60369   -8135.1391    9.1569395 
  203000     3075.628    21907.479    293887.37    813.79739   -8162.5964    9.1484003 
  204000    3061.5179    21819.611    309044.91    810.06392   -8118.5845    9.1852409 
  205000     3210.267    21980.562    292954.64    849.42225   -8139.6233     9.117983 
  206000    3052.0879    22015.237    290791.81    807.56877   -8125.4277    9.1036216 
  207000    3132.2831    21833.458    304944.69    828.78807    -8142.726    9.1794157 
  208000    3108.5116     21871.24    309079.06    822.49824   -8099.4745    9.1635584 
  209000    3070.4292    21915.654    296630.56     812.4218    -8143.415    9.1449878 
  210000    3182.7533    22040.037    294289.52    842.14226   -8102.0718    9.0933781 
  211000    3022.9317    21815.282    310007.74    799.85418   -8114.6276    9.1870637 
  212000    3050.1523    21937.366     303455.5    807.05663   -8091.0015    9.1359365 
  213000    3253.3647    21939.132    295745.15    860.82572   -8147.4226    9.1352015 
  214000    3129.3823    21952.553    291994.25    828.02052   -8151.2066    9.1296162 
  215000    3070.0752    21950.725    298829.49    812.32812   -8112.5031    9.1303766 
  216000    3116.5754    21938.793    305693.23    824.63188   -8082.7917    9.1353426 
  217000    3126.5667    21945.412    289873.92    827.27552   -8165.0511     9.132587 
  218000    3021.1264    21957.805    294326.35    799.37651   -8128.3389    9.1274327 
  219000    3234.1426    21871.295    305342.47    855.73963   -8128.3976    9.1635352 
  220000    3148.0601    21934.864    299325.61     832.9626   -8123.1325    9.1369786 
  221000      3182.99    22006.151     284755.6    842.20487   -8166.8619    9.1073805 
  222000    3093.9854    21889.043    302971.86    818.65465   -8115.6483    9.1561054 
  223000    3144.2663    21888.384    303750.76    831.95876   -8120.9457     9.156381 
  224000    3086.7166     21879.22     299308.6    816.73139   -8144.6533    9.1602161 
  225000    3132.2854    21957.648    295152.11    828.78867    -8131.928    9.1274981 
  226000    3108.2645    21941.377    304045.55    822.43284   -8092.0107    9.1342666 
  227000    3123.3011    21848.188     304260.6    826.41146   -8138.9038     9.173227 
  228000    3102.5116    21919.424    295732.37    820.91065   -8140.7716     9.143415 
  229000    3038.2161     21973.41    299263.36    803.89835   -8098.7065    9.1209506 
  230000    3121.4714    21910.378    304299.54    825.92733   -8109.7921    9.1471897 
  231000    3053.5945    21789.943    311385.86    807.96741   -8125.5735    9.1977471 
  232000    3083.0142     22001.45    291462.48    815.75174   -8130.2174    9.1093262 
  233000    3033.5779    21937.103    297496.41    802.67112   -8124.3724     9.136046 
  234000    3164.7416    21772.835     322962.7    837.37643    -8075.444    9.2049745 
  235000    3115.9237    21917.205    302166.72    824.45944   -8116.2702    9.1443406 
  236000    3070.5538    22004.251     288354.5    812.45478   -8140.2423    9.1081666 
  237000     3095.256    21858.399    311358.76    818.99086   -8096.1474    9.1689417 
  238000    3057.5077    21965.828    293380.32    809.00282    -8134.541    9.1240989 
  239000    2996.4353    21848.523    304860.58    792.84336    -8121.076    9.1730864 
  240000    3167.0344    21922.026    299562.91    837.98311   -8130.2811    9.1423294 
  241000    3147.3276    21996.797    294343.06    832.76878   -8119.3712     9.111253 
  242000    3185.5036    21901.791    302215.67    842.86998   -8125.9382    9.1507762 
  243000    3007.6285    21747.206    312966.39    795.80502   -8127.3453    9.2158225 
  244000    3096.5172     21934.04    297805.81    819.32457   -8127.8154    9.1373222 
  245000    3099.5213    21846.746    300569.77    820.11945   -8154.7113    9.1738323 
  246000    3063.7303    21835.534    312990.64     810.6493   -8086.6789     9.178543 
  247000     3133.544     22060.01    284977.08    829.12169   -8135.2794    9.0851447 
  248000    3156.1518    21903.713    303022.57    835.10362   -8122.3533     9.149973 
  249000    3082.3413    21883.976    306028.31     815.5737   -8110.8903    9.1582256 
  250000    3082.4538    21932.335    296576.01    815.60345   -8136.7606    9.1380322 
Loop time of 518.464 on 8 procs for 250000 steps with 2048 atoms

Performance: 41.662 ns/day, 0.576 hours/ns, 482.194 timesteps/s
121.8% CPU use with 4 MPI tasks x 2 OpenMP threads

MPI task timing breakdown:
Section |  min time  |  avg time  |  max time  |%varavg| %total
---------------------------------------------------------------
Pair    | 305.13     | 310.7      | 315.99     |  22.7 | 59.93
Neigh   | 5.2416     | 5.4013     | 5.5162     |   4.3 |  1.04
Comm    | 22.898     | 28.293     | 34.38      |  79.3 |  5.46
Output  | 0.006106   | 0.011653   | 0.013515   |   3.0 |  0.00
Modify  | 172.72     | 173.08     | 173.29     |   1.7 | 33.38
Other   |            | 0.9707     |            |       |  0.19

Nlocal:        512.000 ave         524 max         496 min
Histogram: 1 0 0 0 0 1 0 1 0 1
Nghost:        3090.75 ave        3104 max        3081 min
Histogram: 1 0 0 2 0 0 0 0 0 1
Neighs:        43709.0 ave       45158 max       42858 min
Histogram: 2 0 0 0 1 0 0 0 0 1

Total # of neighbors = 174836
Ave neighs/atom = 85.369141
Neighbor list builds = 5544
Dangerous builds = 0


# fix 132 all momentum 100 linear 1 1 1 angular
fix out_file_1 all print 1000 "$(step) $(temp) $(press) ${sys_press} $(vol) $(ke) $(pe) $(density)" file one_phase_${sim}_press_$P_$T_.txt screen no title  "step temp press pressGiga vol ke pe density"
fix out_file_1 all print 1000 "$(step) $(temp) $(press) ${sys_press} $(vol) $(ke) $(pe) $(density)" file one_phase_heating_press_$P_$T_.txt screen no title  "step temp press pressGiga vol ke pe density"
fix out_file_1 all print 1000 "$(step) $(temp) $(press) ${sys_press} $(vol) $(ke) $(pe) $(density)" file one_phase_heating_press_300000_$T_.txt screen no title  "step temp press pressGiga vol ke pe density"
fix out_file_1 all print 1000 "$(step) $(temp) $(press) ${sys_press} $(vol) $(ke) $(pe) $(density)" file one_phase_heating_press_300000_3100_.txt screen no title  "step temp press pressGiga vol ke pe density"

# dump 3 all custom 1000 traj_npt_new.lammpstrj id type x y z
run 50000
Last active /omp style is pair_style eam/alloy/omp
Per MPI rank memory allocation (min/avg/max) = 4.354 | 4.354 | 4.354 Mbytes
Step Temp Volume Press KinEng PotEng Density 
  250000    3082.4538    21932.335    296576.01    815.60345   -8136.7606    9.1380322 
  251000    3037.3437    21825.241    311637.94    803.66753   -8105.3972    9.1828718 
  252000    3160.0775    22049.234    294393.45    836.14234   -8096.8244    9.0895849 
  253000    3118.7441    21976.278    293298.05    825.20571   -8134.1361    9.1197602 
  254000    3122.3476    21850.912    310483.87    826.15917   -8102.1907    9.1720834 
  255000    3146.9908    22011.861    291536.91    832.67964   -8124.9028     9.105018 
  256000     3044.445    21907.174    298076.88     805.5465   -8137.1405    9.1485276 
  257000    3169.7621    21845.174    308837.49    838.70483   -8114.8103    9.1744925 
  258000    3056.7648    22020.438    289863.23    808.80627   -8125.9299    9.1014714 
  259000    3231.2324     21947.15    289620.73    854.96961   -8167.4401    9.1318637 
  260000    3152.8642    21917.783    303269.55    834.23374   -8113.2905    9.1440996 
  261000     3024.453    21932.733    294538.42     800.2567   -8141.4374    9.1378665 
  262000     3116.535    21903.202     297491.4     824.6212   -8144.9759    9.1501867 
  263000    3177.3746    21853.879    307800.03    840.71907   -8117.0077    9.1708381 
  264000    3182.0814    21883.535    298614.49    841.96447   -8153.6027    9.1584101 
  265000    3062.7492    21861.415    304261.32     810.3897   -8128.7604     9.167677 
  266000    3130.7504    21989.684    295496.65    828.38253   -8121.1986    9.1142002 
  267000    3099.8852    21941.315    301058.02    820.21574   -8107.5606    9.1342924 
  268000      3106.66    21911.449    297635.26    822.00831    -8141.512    9.1467427 
  269000    3096.7266    21888.557    303999.34    819.37998   -8116.3095    9.1563087 
  270000    3024.2471    21930.273    297443.35    800.20222   -8127.7407    9.1388917 
  271000    2996.7706     21983.55    293221.94    792.93206   -8121.6343    9.1167436 
  272000    3219.9767    21896.939    301087.16    851.99139   -8136.6355    9.1528038 
  273000    3053.1212    21872.519    301909.39    807.84218   -8133.5833    9.1630227 
  274000    3000.7958    21867.164    301905.74    793.99712   -8132.4342    9.1652667 
  275000    3115.9143    21852.267    309024.46    824.45696    -8109.705    9.1715147 
  276000    3132.2996    21943.283    286869.22    828.79244   -8177.6943    9.1334732 
  277000     3085.786    22001.526    290819.17    816.48515   -8134.6421    9.1092947 
  278000    3076.0647    21771.866    314285.26    813.91294   -8120.6447    9.2053839 
  279000    3096.2259     21917.54    301811.66    819.24748   -8114.1524    9.1442009 
  280000    3084.8538    21880.119    301916.96    816.23848   -8130.1917      9.15984 
  281000    3088.2455    21970.232    293899.49    817.13592   -8129.7878      9.12227 
  282000     3115.382    21910.948     301535.5    824.31612   -8122.1854     9.146952 
  283000    3168.2463    21850.573    310016.77    838.30376   -8107.3072    9.1722257 
  284000    3102.4802    21972.867    287219.44    820.90235   -8164.1298     9.121176 
  285000    3060.8928    21916.031    299560.61    809.89851   -8123.3458    9.1448305 
  286000    3156.2998    21936.325    298483.37    835.14278   -8123.5364    9.1363703 
  287000    3115.7927     21853.67    300958.59    824.42479   -8145.6608    9.1709258 
  288000    3026.0079    22019.706    288881.05    800.66812   -8132.8161    9.1017741 
  289000    2966.6181    21830.799    305653.87    784.95384   -8125.9055    9.1805339 
  290000    3050.3632    21856.759    305566.27    807.11244   -8117.7835    9.1696296 
  291000    3144.4336     21848.32    302142.74    832.00305   -8145.9021    9.1731715 
  292000    3142.7055    21936.308    293983.22    831.54579     -8152.16    9.1363774 
  293000    3126.8979    21885.354    302936.28    827.36317   -8126.4508    9.1576489 
  294000    3118.4264    21831.201    302614.01    825.12164   -8150.9533    9.1803649 
  295000     3135.012    21856.455    300724.12    829.51013   -8147.4804    9.1697571 
  296000    3128.8462    21865.717    304818.18    827.87868   -8124.4624    9.1658732 
  297000    2966.6328    21898.868    295430.02    784.95774   -8147.9362    9.1519974 
  298000    3172.2118      22037.5    284123.31    839.35303   -8153.7646    9.0944248 
  299000     3203.358    21884.674    307376.94    847.59417   -8107.8169    9.1579335 
  300000    3119.1608    21836.894    304446.53    825.31596    -8137.602    9.1779712 
Loop time of 107.725 on 8 procs for 50000 steps with 2048 atoms

Performance: 40.102 ns/day, 0.598 hours/ns, 464.145 timesteps/s
123.6% CPU use with 4 MPI tasks x 2 OpenMP threads

MPI task timing breakdown:
Section |  min time  |  avg time  |  max time  |%varavg| %total
---------------------------------------------------------------
Pair    | 63.833     | 64.789     | 65.806     |   8.9 | 60.14
Neigh   | 1.0722     | 1.1086     | 1.1291     |   2.1 |  1.03
Comm    | 4.5111     | 5.5464     | 6.6085     |  32.3 |  5.15
Output  | 0.0012571  | 0.0019291  | 0.0021549  |   0.9 |  0.00
Modify  | 36.003     | 36.078     | 36.123     |   0.8 | 33.49
Other   |            | 0.2006     |            |       |  0.19

Nlocal:        512.000 ave         516 max         505 min
Histogram: 1 0 0 0 0 0 0 1 1 1
Nghost:        3092.75 ave        3101 max        3089 min
Histogram: 2 1 0 0 0 0 0 0 0 1
Neighs:        43933.5 ave       46010 max       42496 min
Histogram: 1 1 0 0 1 0 0 0 0 1

Total # of neighbors = 175734
Ave neighs/atom = 85.807617
Neighbor list builds = 1100
Dangerous builds = 0

unfix temp
unfix out_file_1


write_data after_${sim}_press_$P_$T.in
write_data after_heating_press_$P_$T.in
write_data after_heating_press_300000_$T.in
write_data after_heating_press_300000_3100.in
System init for write_data ...
Last active /omp style is pair_style eam/alloy/omp
write_restart after_${sim}_press_$P_$T.lmp
write_restart after_heating_press_$P_$T.lmp
write_restart after_heating_press_300000_$T.lmp
write_restart after_heating_press_300000_3100.lmp
System init for write_restart ...
Last active /omp style is pair_style eam/alloy/omp

next loopVar
jump in.lmp ensemble

print """
Label pachadi solti, hos garam.
"""

Label pachadi solti, hos garam.

variable T equal 3000+${loopVar}*100
variable T equal 3000+2*100
# variable T equal 1750


reset_timestep 0
fix 1 all npt temp $T $T $(dt*100) iso $P $P $(dt*1000)
fix 1 all npt temp 3200 $T $(dt*100) iso $P $P $(dt*1000)
fix 1 all npt temp 3200 3200 $(dt*100) iso $P $P $(dt*1000)
fix 1 all npt temp 3200 3200 0.10000000000000000555 iso $P $P $(dt*1000)
fix 1 all npt temp 3200 3200 0.10000000000000000555 iso 300000 $P $(dt*1000)
fix 1 all npt temp 3200 3200 0.10000000000000000555 iso 300000 300000 $(dt*1000)
fix 1 all npt temp 3200 3200 0.10000000000000000555 iso 300000 300000 1
print """
<--------------------------------------------------------------------->
<------------------ Equilibrating at temperature $T ----------------->
<--------------------------------------------------------------------->
"""

<--------------------------------------------------------------------->
<------------------ Equilibrating at temperature 3200 ----------------->
<--------------------------------------------------------------------->

fix temp all print 1000 "$(step) $(temp) $(press) ${sys_press} $(vol) $(ke) $(pe) $(density)" file temp_${sim}.txt screen no title  "step temp press pressGiga vol ke pe density"
fix temp all print 1000 "$(step) $(temp) $(press) ${sys_press} $(vol) $(ke) $(pe) $(density)" file temp_heating.txt screen no title  "step temp press pressGiga vol ke pe density"
run 250000
Last active /omp style is pair_style eam/alloy/omp
Per MPI rank memory allocation (min/avg/max) = 4.354 | 4.354 | 4.354 Mbytes
Step Temp Volume Press KinEng PotEng Density 
       0    3119.1608    21836.894    304446.53    825.31596    -8137.602    9.1779712 
    1000    3180.8119    21880.154    308446.13    841.62857   -8098.8726     9.159825 
    2000    3280.1788    22020.852    296876.34    867.92061   -8101.7271    9.1013002 
    3000    3157.6343    22095.243    286496.18    835.49587   -8113.8952    9.0706578 
    4000    3182.7263    22009.472    300256.16    842.13512   -8082.2594    9.1060062 
    5000    3209.9626    21876.597    307188.67    849.34172   -8110.3851    9.1613145 
    6000    3198.9234    22032.407     293331.9    846.42079    -8112.617    9.0965271 
    7000    3330.6595    22033.634    299262.01    881.27756   -8092.9979    9.0960204 
    8000    3193.2998    22064.514    292217.67    844.93282   -8101.7337    9.0832903 
    9000    3156.6052    21993.612    295106.53    835.22359   -8116.2177    9.1125727 
   10000    3239.3248    22016.816    297111.64    857.11082   -8100.8609    9.1029686 
   11000    3189.3435     22041.65    302730.99    843.88598   -8058.9265    9.0927125 
   12000    3157.5866    21967.612    300936.06    835.48326   -8098.1913    9.1233581 
   13000    3135.6615    21977.339    297508.12    829.68198   -8111.0751    9.1193201 
   14000    3308.6207     22064.27    288641.71    875.44619    -8130.553    9.0833907 
   15000    3202.1631    22064.698    299134.39    847.27801   -8064.7561    9.0832145 
   16000    3212.4149     22117.82     287964.2    849.99059   -8099.2092    9.0613986 
   17000    3243.0194    21970.307    297239.63    858.08839   -8118.8077     9.122239 
   18000    3235.7577    21940.784    307502.62    856.16699   -8082.9578    9.1345136 
   19000    3219.5267    21962.234    298350.59    851.87233   -8117.7969    9.1255921 
   20000    3092.7564    22066.031    296069.99    818.32948   -8070.8799    9.0826658 
   21000    3179.9018    21887.189    307126.46    841.38775   -8109.4003    9.1568811 
   22000    3199.3471    21954.402    302615.98     846.5329   -8100.3134    9.1288473 
   23000    3136.4044    21918.719    308102.47    829.87855   -8081.4403     9.143709 
   24000    3143.1823    21977.276     299209.9    831.67196   -8102.1385    9.1193462 
   25000    3334.2797    22030.755    290161.13    882.23547   -8133.5285    9.0972093 
   26000    3277.5051    22068.317    292620.48    867.21316   -8102.5596    9.0817251 
   27000    3274.9677    21875.393    309996.03    866.54177   -8100.7105    9.1618187 
   28000    3072.5972    22124.967    289717.78    812.99544   -8081.7251    9.0584715 
   29000    3176.9087    21934.997    300046.79    840.59579    -8122.156    9.1369235 
   30000    3294.0658    21949.939    304443.13    871.59504   -8096.9243    9.1307034 
   31000    3168.9204    21963.989    302220.15    838.48213   -8095.8437    9.1248629 
   32000    3200.1247    21912.663    302441.33    846.73865   -8119.7518    9.1462358 
   33000    3235.6641    22017.281    297978.76     856.1422   -8101.7944    9.1027764 
   34000    3230.9511     21947.57    304022.21    854.89519   -8097.3053    9.1316889 
   35000    3147.7423    21961.691    301473.59    832.87849    -8097.307    9.1258176 
   36000    3231.5117    22073.331    290265.74    855.04351   -8108.7598    9.0796621 
   37000    3245.7703    21972.614    306326.14    858.81627   -8076.0104    9.1212812 
   38000     3098.852    21955.957    303503.92    819.94234   -8088.1303    9.1282011 
   39000    3215.7064    21947.903    305135.66     850.8615   -8097.3739    9.1315506 
   40000    3179.9844    22101.012    286490.51    841.40961   -8111.8551      9.06829 
   41000    3126.5994    21983.529    301256.07    827.28419   -8093.1695    9.1167522 
   42000    3344.4225    21987.256    300090.46    884.91921   -8104.7169    9.1152068 
   43000    3225.8212    21852.166    308854.02    853.53784   -8115.1711    9.1715571 
   44000    3199.2064    22069.491    293718.75    846.49567   -8094.4609    9.0812421 
   45000     3161.561    21984.078    302144.11    836.53486   -8087.3984    9.1165245 
   46000    3140.7562    21916.047    310363.14       831.03   -8074.2709    9.1448236 
   47000    3157.5265    22132.837    283431.83    835.46736   -8117.2183    9.0552506 
   48000    3232.6643     22063.61     302590.2    855.34849   -8052.1896    9.0836625 
   49000    3154.1156    21927.385     306941.8    834.56484    -8086.555    9.1400953 
   50000    3270.7267    21978.383    294524.38    865.41962   -8135.3026    9.1188867 
   51000    3220.5376    21885.912    314793.73     852.1398   -8070.6859    9.1574152 
   52000    3070.3409    21924.322    306866.67    812.39845   -8084.2981    9.1413723 
   53000    3153.8233    22013.685    286147.44    834.48752   -8154.0663    9.1042633 
   54000    3167.5429    21985.923    307415.57    838.11764   -8063.3421    9.1157596 
   55000     3257.927     21939.45    301277.55    862.03287   -8118.6851    9.1350687 
   56000    3145.1061    21941.419    302484.23    832.18097   -8103.2103     9.134249 
   57000    3222.5286    22045.414    294060.34    852.66662   -8099.3336    9.0911598 
   58000    3068.0931    21998.537    303033.96    811.80369    -8070.051    9.1105323 
   59000    3187.0419    22029.692    300626.96      843.277   -8075.7856    9.0976481 
   60000    3272.7765    21990.727    298769.36    865.96199   -8108.1534    9.1137683 
   61000    3180.8003    21939.206    304719.33    841.62551   -8094.5755    9.1351703 
   62000    3246.0483    22040.294    295408.11    858.88983   -8101.9177    9.0932717 
   63000    3087.4985    21886.265    310028.95    816.93827   -8081.0841    9.1572676 
   64000    3189.2484    21968.666    305805.17    843.86084   -8075.0626    9.1229201 
   65000    3167.5482    22091.604    290811.15    838.11904   -8088.9735    9.0721517 
   66000    3200.9527    21928.045    304729.04    846.95772   -8104.3175    9.1398202 
   67000     3153.497    22054.742    301093.43    834.40116   -8059.0173     9.087315 
   68000    3143.1902    22002.433    308597.65    831.67404   -8046.9284    9.1089194 
   69000    3152.8339    21951.951    307423.73    834.22572   -8076.6343    9.1298667 
   70000     3201.763    22084.567    291350.09    847.17212     -8101.84    9.0750424 
   71000    3129.9269     22004.61    296828.93    828.16462    -8102.808     9.108018 
   72000    3168.8013    21867.592    320273.95    838.45062   -8051.1146     9.165087 
   73000      3188.12    22024.888     293042.1    843.56226   -8113.3979    9.0996327 
   74000    3048.4385    21971.421    300588.51    806.60317   -8093.8544    9.1217761 
   75000    3195.9204    22056.556    297881.59    845.62621    -8073.291    9.0865675 
   76000     3217.713    21994.912     302567.7    851.39243   -8083.3374    9.1120339 
   77000    3333.5203    21890.951    316975.26    882.03451   -8062.3589    9.1553073 
   78000    3199.9383     22024.04       296701    846.68934   -8093.7284     9.099983 
   79000    3138.9329    22043.192    297337.34    830.54758   -8081.3695    9.0920766 
   80000    3223.9381    21845.524     316502.8    853.03957    -8085.147    9.1743456 
   81000    3277.8953    22036.859    299658.47     867.3164   -8079.6773    9.0946895 
   82000    3236.2277    22040.191    296310.97    856.29135   -8097.0425    9.0933146 
   83000    3228.2599    22112.334    298778.42    854.18311   -8047.6668    9.0636469 
   84000    3145.6556     21871.86    312481.97    832.32637   -8085.0951    9.1632986 
   85000    3361.2165     22065.34    298795.99    889.36281   -8083.6372    9.0829503 
   86000    3201.5049    22158.195    284442.01    847.10384   -8099.9231    9.0448879 
   87000    3249.8154    22010.739    304760.05    859.88659   -8069.5997    9.1054821 
   88000    3238.6277     21984.32    302818.87    856.92637   -8085.7178     9.116424 
   89000    3102.6367     22035.89    290262.22    820.94375   -8120.4535    9.0950893 
   90000    3238.9712    21960.273    299462.97    857.01726   -8114.1879    9.1264071 
   91000    3211.0769    22023.789    297662.16    849.63656   -8097.1622    9.1000866 
   92000    3227.4748    22049.854     294246.8    853.97537   -8101.9407    9.0893294 
   93000    3223.3228    22009.464    304629.55    852.87677   -8065.0661    9.1060093 
   94000       3253.8    21946.338    304626.47     860.9409    -8096.301    9.1322016 
   95000    3140.7562    22094.604    290852.17       831.03   -8093.6239      9.07092 
   96000    3214.6667    22036.454    302674.62     850.5864   -8064.3263    9.0948567 
   97000    3266.4982    22015.887    303007.91    864.30077   -8077.9304    9.1033527 
   98000    3139.9579    22102.109    289860.04    830.81879   -8098.5699    9.0678401 
   99000    3306.1801    21988.915    295770.65    874.80043   -8124.7599     9.114519 
  100000    3282.9399    22008.841    304788.73    868.65117   -8075.2604     9.106267 
  101000     3148.159    22038.148    291957.42    832.98876   -8109.8336    9.0941573 
  102000    3204.8249    21935.567     301984.3    847.98229   -8112.6813    9.1366857 
  103000    3193.2795    22076.422     297677.1    844.92744    -8071.842    9.0783906 
  104000    3142.6543    21960.789    300149.33    831.53223   -8110.3906    9.1261924 
  105000    3239.7109    21925.437    304479.44    857.21299   -8105.4333    9.1409071 
  106000    3143.2471    21956.362    299673.98    831.68908   -8109.4666    9.1280326 
  107000    3241.7284    22085.307    291979.19    857.74681   -8096.9218    9.0747385 
  108000    3212.9104    21993.872    302479.96    850.12168   -8085.7066    9.1124649 
  109000    3263.0194    22028.037     300502.9     863.3803   -8084.4134    9.0983317 
  110000     3234.273    22068.275    292334.29    855.77413   -8101.4196    9.0817422 
  111000    3240.5498    21904.332    313786.34    857.43496   -8070.1924    9.1497147 
  112000    3198.9058    22001.678    295123.92    846.41613   -8119.7189     9.109232 
  113000    3237.6846    22122.072    289544.02    856.67683   -8095.2542    9.0596569 
  114000    3202.9986    21937.887    301405.58    847.49907   -8111.4317    9.1357197 
  115000    3200.0957    22033.245    299246.72    846.73098   -8082.8522    9.0961812 
  116000    3171.5433     22009.51    299366.82    839.17613   -8091.1432    9.1059904 
  117000    3226.7993    22001.802     300437.1    853.79663   -8092.8581    9.1091807 
  118000    3289.8931    21976.546    308220.52    870.49097   -8068.3119    9.1196492 
  119000    3184.7907    22047.946    292069.75    842.68133   -8107.8354    9.0901161 
  120000     3186.288    21949.188    300571.59    843.07752   -8116.6624    9.1310159 
  121000     3142.086     21983.94    298379.99    831.38186   -8108.2641    9.1165818 
  122000    3268.0344    21937.477    306003.24    864.70724   -8097.9346    9.1358903 
  123000    3222.7649    21964.768    302123.32    852.72915   -8100.9468    9.1245393 
  124000    3164.1535    22037.878    294150.43    837.22082   -8102.5049    9.0942686 
  125000     3175.403    21844.009    314019.99    840.19741   -8094.4474    9.1749817 
  126000    3253.3384    21976.933     301035.5    860.81876   -8100.5583    9.1194885 
  127000    3132.2071     21989.06    295107.34    828.76796   -8115.0236    9.1144589 
  128000    3114.3028    21967.253    297227.58    824.03056   -8118.6135    9.1235068 
  129000    3220.3317     21947.39    307830.34    852.08532   -8079.0431    9.1317639 
  130000    3203.4302    21947.854     303519.1    847.61326   -8098.7814    9.1315708 
  131000    3136.5267    22033.038    295482.53    829.91091   -8099.0449    9.0962664 
  132000    3323.3436    22057.569     298292.8    879.34181   -8089.2223    9.0861502 
  133000    3259.8674    22078.471    292854.88    862.54629    -8097.452    9.0775482 
  134000    3144.4236    21949.282    308745.05     832.0004   -8068.5675    9.1309767 
  135000    3157.4466    21929.797    309210.49    835.44622   -8075.7158      9.13909 
  136000    3190.2644    22026.397     295149.4    844.12965   -8102.0457     9.099009 
  137000    3168.3064    22096.983    292579.78    838.31967    -8081.772    9.0699434 
  138000    3119.7397    21988.135    288886.45    825.46914   -8145.4308    9.1148426 
  139000    3289.7774    21987.532    298568.99    870.46036   -8111.0435    9.1150923 
  140000    3242.9487    21921.794    305029.53    858.06968   -8105.9866    9.1424263 
  141000    3156.7231    21950.607    307845.99    835.25479   -8073.1309    9.1304256 
  142000    3212.7246    22020.585    300726.13    850.07251   -8079.8404    9.1014105 
  143000    3288.1924    22137.373    284563.16    870.04097   -8113.9667    9.0533951 
  144000    3257.0331    21945.987    304653.36    861.79636   -8098.1916    9.1323477 
  145000    3174.2702    21975.889    303473.99    839.89766   -8086.0894    9.1199218 
  146000    3251.9799    21880.649    308484.56    860.45931   -8108.8761    9.1596179 
  147000    3068.0266    22037.313    298662.98     811.7861   -8077.4154     9.094502 
  148000    3218.4293    22096.709    284706.11    851.58195   -8126.3373     9.070056 
  149000    3228.5638    21866.627    313007.02    854.26352   -8092.6501    9.1654914 
  150000    3192.7165     21950.48    301087.14    844.77847   -8112.2964    9.1304785 
  151000    3244.0287    21976.948    298545.42    858.35545    -8115.335    9.1194821 
  152000    3190.7259    22058.968     301483.9    844.25178   -8054.2227    9.0855742 
  153000    3310.6851    21963.092       305503    875.99245   -8091.1215    9.1252356 
  154000    3173.9593    21987.738    303448.08     839.8154   -8075.5744    9.1150069 
  155000    3302.1762    22008.547    303962.39    873.74101   -8071.1496    9.1063889 
  156000    3143.2935    22086.792    299369.02    831.70137   -8050.6464    9.0741285 
  157000    3204.5096    22074.235    288690.94    847.89887   -8116.8796    9.0792904 
  158000     3244.729    22038.107    297194.28    858.54076   -8093.7084    9.0941741 
  159000    3387.6148     21908.32    311279.98    896.34769   -8088.8631     9.148049 
  160000    3132.4987    22056.215    288015.43    828.84512   -8118.5546    9.0867079 
  161000    3129.3056    22124.902    286999.42    828.00023   -8101.4717    9.0584983 
  162000     3231.738    22023.977    298131.29    855.10338   -8093.8023    9.1000089 
  163000    3238.4421    21972.991    298149.13    856.87725   -8118.4708    9.1211243 
  164000    3206.0843      22002.9    300885.13    848.31554   -8089.1983     9.108726 
  165000    3222.4083    21941.372    302539.53    852.63479   -8107.4917    9.1342688 
  166000    3349.0816    21974.358    301582.37    886.15198    -8104.692     9.120557 
  167000    3160.5285     22075.39    290840.22    836.26168   -8102.2537    9.0788153 
  168000    3019.2479    22031.982    294910.83    798.87945   -8092.2895    9.0967027 
  169000    3194.5979    21925.949    307039.11    845.27629   -8087.5717    9.1406936 
  170000    3244.5252    21976.202    305073.77    858.48681    -8083.453     9.119792 
  171000    3233.8489     21970.06    301645.99    855.66192   -8099.9343    9.1223414 
  172000    3176.7863    21966.048    306547.23    840.56341    -8071.088    9.1240074 
  173000     3153.919    21995.261     302732.1    834.51283    -8077.135    9.1118895 
  174000    3246.0355    21959.833    301516.65    858.88645   -8107.1964    9.1265897 
  175000    3295.4659    22104.765    291027.62    871.96552   -8095.8599    9.0667503 
  176000    3148.6391    21893.588    314319.56    833.11579   -8066.2652    9.1542047 
  177000    3203.9561    21910.602    311277.07    847.75243   -8078.8954    9.1470963 
  178000    3320.9378    22168.982    283557.01    878.70525   -8109.5918    9.0404868 
  179000    3251.4799    22047.405    293536.59      860.327   -8107.0222     9.090339 
  180000    3197.7333    21868.146    313163.77     846.1059   -8087.0268    9.1648548 
  181000    3289.7921    22024.987    300478.53    870.46424   -8089.6935    9.0995917 
  182000    3278.5624    22030.446    292750.75    867.49291   -8122.3406    9.0973369 
  183000     3124.292    21971.679    303636.23    826.67366   -8080.5817    9.1216692 
  184000    3288.8667    21978.145    303822.13    870.21937    -8091.438    9.1189856 
  185000    3197.4485    22074.952    290288.76    846.03055   -8107.3601    9.0789952 
  186000    3169.2468    21969.591    299426.12    838.56848   -8106.7972     9.122536 
  187000    3241.1596    21947.432    304481.11     857.5963   -8097.4339    9.1317466 
  188000    3119.9761    22065.711    286978.28    825.53168   -8127.9853    9.0827976 
  189000    3302.6764    21957.706    305669.93    873.87337    -8086.417    9.1274739 
  190000    3198.0728    21955.306    305851.25    846.19574   -8084.3661    9.1284714 
  191000    3174.8863    21923.902    303844.41    840.06068   -8105.1541    9.1415474 
  192000    3263.3968    22066.757    293082.36    863.48016   -8104.7119     9.082367 
  193000    3202.5313    22018.834     299875.2    847.37542   -8082.8462    9.1021345 
  194000    3140.3356    21986.808    305119.19    830.91873   -8067.8042    9.1153926 
  195000    3141.6735    21994.907    298185.01    831.27273   -8099.9475    9.1120359 
  196000    3227.3233    22003.427     303568.5    853.93528    -8075.803    9.1085077 
  197000    3211.8728    21917.997    308159.27    849.84714   -8091.1877    9.1440099 
  198000    3137.0987    22125.766    289006.72    830.06224    -8082.997    9.0581445 
  199000    3177.5873    22092.814     293889.2    840.77534   -8080.4824    9.0716548 
  200000     3103.034    22021.098    302900.81     821.0489   -8061.9029    9.1011986 
  201000    3171.6667    21991.844    297284.09    839.20879   -8108.9738    9.1133052 
  202000    3196.6666    22061.201    293909.43    845.82366   -8102.5082    9.0846542 
  203000      3196.48    21925.898    302860.34    845.77427   -8108.5373    9.1407152 
  204000    3242.5499    21947.343    303225.82    857.96416   -8104.7872    9.1317834 
  205000    3109.4284    22050.642    286813.63    822.74082   -8135.3495    9.0890045 
  206000    3189.4644    21999.829     301353.7    843.91799   -8086.2975    9.1099977 
  207000    3272.3697    21860.833    311939.95    865.85435   -8096.3824    9.1679208 
  208000    3266.7752    22071.507    294314.12    864.37407   -8093.0901    9.0804122 
  209000    3158.1632     22029.59    301800.88    835.63582   -8069.3729    9.0976902 
  210000    3189.1733    21950.282    307444.58    843.84096    -8076.137    9.1305607 
  211000    3261.1703    22120.356    294816.71    862.89103   -8071.0863    9.0603597 
  212000    3190.5536    22102.889    285269.65    844.20618   -8121.3239    9.0675201 
  213000     3127.273    21923.251    304078.84    827.46243   -8102.4922    9.1418186 
  214000    3203.8039    22126.278    290736.46    847.71216   -8082.8409    9.0579351 
  215000      3151.77    21987.889    297508.72    833.94422   -8104.9572    9.1149443 
  216000    3193.6707    21880.448    309260.61    845.03095   -8098.6442    9.1597022 
  217000    3259.2319    21980.762    299768.71    862.37815   -8110.8522       9.1179 
  218000    3134.7015    22060.903    285024.88    829.42798   -8133.7815    9.0847772 
  219000    3120.9124    21964.221     308997.7    825.77943   -8055.5447    9.1247665 
  220000    3242.0196    22034.565    300288.06    857.82385   -8076.9978    9.0956362 
  221000    3141.8317    22042.436    291564.59    831.31457    -8111.538    9.0923881 
  222000    3177.1062     22069.23    293693.75    840.64806   -8091.0764    9.0813492 
  223000    3266.1834    21898.846    309457.17     864.2175   -8097.0439    9.1520066 
  224000    3109.3883    21987.857    303756.91     822.7302   -8073.7739    9.1149578 
  225000    3107.0278    22031.278    295203.07    822.10563   -8097.7699    9.0969933 
  226000    3279.8121     21891.31    307287.23    867.82358   -8107.9123    9.1551572 
  227000    3198.8893    22056.999    299734.97    846.41176   -8066.2922    9.0863849 
  228000    3137.1319    22069.845    294273.12    830.07104   -8086.9954    9.0810963 
  229000     3206.842    22084.978    293898.17    848.51602   -8085.4203    9.0748737 
  230000    3266.7739     22010.12     306956.4    864.37372   -8057.6594    9.1057378 
  231000    3263.6242    22018.592    297490.89    863.54034   -8107.3806    9.1022344 
  232000    3179.6785    21971.982    300836.88    841.32869   -8101.9412    9.1215435 
  233000    3158.3541    22041.644    299063.57    835.68634   -8071.4014     9.092715 
  234000     3176.199    21922.062    307765.32    840.40802   -8091.2297    9.1423146 
  235000    3212.5051     22027.37     293534.1    850.01445   -8115.1908    9.0986074 
  236000    3144.8066    22110.126    285349.57    832.10173   -8116.3321    9.0645521 
  237000    3213.8812    21974.032    302957.79    850.37856   -8084.6613    9.1206924 
  238000    3233.7144    21979.739    298216.06    855.62634   -8113.5221    9.1183243 
  239000    3077.2958    22001.986    296881.72    814.23868   -8099.5547    9.1091045 
  240000    3225.7214    22114.683    290621.29    853.51142   -8090.9902    9.0626841 
  241000    3227.3092    22009.092     305221.7    853.93155   -8064.6268    9.1061634 
  242000    3256.7521     21968.25    300195.08    861.72201   -8107.8652    9.1230929 
  243000    3214.2599    22145.238    281350.87    850.47875   -8123.9387    9.0501797 
  244000    3198.0227    21952.818    304545.53    846.18247    -8091.088     9.129506 
  245000    3232.9162    22032.158     299752.8    855.41513   -8080.5147    9.0966299 
  246000    3152.8894    22010.444    296380.68    834.24041   -8100.2109     9.105604 
  247000    3141.9666    22031.926    295826.21    831.35028   -8094.3991    9.0967258 
  248000    3149.1693    21971.728    304340.12    833.25608   -8081.0978    9.1216487 
  249000    3121.1988    21946.711    301148.16    825.85522   -8105.6602    9.1320466 
  250000    3194.5476    22016.716    299732.97    845.26298   -8084.2898    9.1030101 
Loop time of 536.453 on 8 procs for 250000 steps with 2048 atoms

Performance: 40.265 ns/day, 0.596 hours/ns, 466.024 timesteps/s
123.3% CPU use with 4 MPI tasks x 2 OpenMP threads

MPI task timing breakdown:
Section |  min time  |  avg time  |  max time  |%varavg| %total
---------------------------------------------------------------
Pair    | 318.19     | 321.92     | 327.03     |  18.7 | 60.01
Neigh   | 5.5153     | 5.6964     | 5.8054     |   4.6 |  1.06
Comm    | 23.009     | 28.204     | 32.473     |  66.6 |  5.26
Output  | 0.0060614  | 0.011923   | 0.013917   |   3.1 |  0.00
Modify  | 179.23     | 179.62     | 179.86     |   1.8 | 33.48
Other   |            | 1.008      |            |       |  0.19

Nlocal:        512.000 ave         519 max         505 min
Histogram: 1 0 0 0 1 1 0 0 0 1
Nghost:        3077.00 ave        3085 max        3071 min
Histogram: 1 0 1 0 1 0 0 0 0 1
Neighs:        43566.8 ave       45578 max       41669 min
Histogram: 2 0 0 0 0 0 0 0 1 1

Total # of neighbors = 174267
Ave neighs/atom = 85.091309
Neighbor list builds = 5660
Dangerous builds = 0


# fix 132 all momentum 100 linear 1 1 1 angular
fix out_file_1 all print 1000 "$(step) $(temp) $(press) ${sys_press} $(vol) $(ke) $(pe) $(density)" file one_phase_${sim}_press_$P_$T_.txt screen no title  "step temp press pressGiga vol ke pe density"
fix out_file_1 all print 1000 "$(step) $(temp) $(press) ${sys_press} $(vol) $(ke) $(pe) $(density)" file one_phase_heating_press_$P_$T_.txt screen no title  "step temp press pressGiga vol ke pe density"
fix out_file_1 all print 1000 "$(step) $(temp) $(press) ${sys_press} $(vol) $(ke) $(pe) $(density)" file one_phase_heating_press_300000_$T_.txt screen no title  "step temp press pressGiga vol ke pe density"
fix out_file_1 all print 1000 "$(step) $(temp) $(press) ${sys_press} $(vol) $(ke) $(pe) $(density)" file one_phase_heating_press_300000_3200_.txt screen no title  "step temp press pressGiga vol ke pe density"

# dump 3 all custom 1000 traj_npt_new.lammpstrj id type x y z
run 50000
Last active /omp style is pair_style eam/alloy/omp
Per MPI rank memory allocation (min/avg/max) = 4.354 | 4.354 | 4.354 Mbytes
Step Temp Volume Press KinEng PotEng Density 
  250000    3194.5476    22016.716    299732.97    845.26298   -8084.2898    9.1030101 
  251000    3206.9072    22034.494    288128.39    848.53327   -8139.1465    9.0956655 
  252000    3297.2729    21952.218    308898.08    872.44362   -8075.1665    9.1297558 
  253000    3260.4647    21921.674    306492.55    862.70435   -8095.0409    9.1424762 
  254000      3231.13    22127.123    291684.65    854.94251   -8077.3158    9.0575891 
  255000    3093.6761    22003.213    293784.12    818.57284   -8117.2111    9.1085964 
  256000    3203.1006    21949.915    309147.42    847.52605    -8071.445    9.1307134 
  257000    3193.1526    22060.159    301222.58    844.89385   -8057.9605    9.0850836 
  258000    3129.8196    22003.625    295437.98    828.13623   -8111.1325    9.1084258 
  259000    3252.0097    22008.651    298070.86    860.46719   -8100.8955    9.1063456 
  260000     3204.728    21953.824    308070.14    847.95667   -8072.4537    9.1290878 
  261000    3214.2089     21939.87    307967.09    850.46527   -8080.2863    9.1348938 
  262000    3114.3657    22131.205    283126.44    824.04721   -8110.8636    9.0559182 
  263000     3272.482    22088.373    294436.63    865.88407   -8085.3516     9.073479 
  264000    3153.9422    21880.253    309238.09    834.51896   -8096.1533    9.1597837 
  265000    3177.5185    21987.286    299936.55    840.75714   -8099.8383    9.1151943 
  266000    3301.6223    22069.894    294739.85    873.59446   -8090.2237    9.0810762 
  267000    3242.9187    22119.468    284057.47    858.06175   -8123.5702    9.0607236 
  268000    3159.5563    21946.622    303407.77    836.00442   -8097.1175    9.1320837 
  269000    3239.1922    21827.343     310177.2    857.07573   -8122.7689    9.1819872 
  270000    3190.9357    22019.863    292763.75    844.30728   -8117.8756     9.101709 
  271000    3156.1737    21940.063    302885.13    835.10941   -8106.7336    9.1348136 
  272000     3287.974    21992.413    300623.43    869.98318   -8095.9832    9.1130696 
  273000      3151.73    21904.049    309238.11    833.93363   -8082.2933    9.1498326 
  274000    3165.2639    21999.664    291553.79    837.51463   -8139.6689    9.1100658 
  275000    3286.7663    22039.357    296155.68    869.66362   -8100.7274    9.0936587 
  276000    3287.6506     21910.69    308856.79    869.89761   -8093.4122    9.1470597 
  277000    3164.1084    22014.384     294867.3    837.20891   -8107.2854    9.1039742 
  278000    3294.6684    22079.963    293280.07    871.75449   -8097.9353     9.076935 
  279000    3223.8808    21985.967    302793.57     853.0244   -8088.5116    9.1157412 
  280000    3207.4383    21999.812    289905.46    848.67378    -8145.074    9.1100044 
  281000    3212.3407    21953.107    302472.92    849.97095   -8104.9024    9.1293858 
  282000    3178.9751    21919.398    303467.64    841.14257   -8112.8895    9.1434256 
  283000    3162.6325    22025.219    297372.05    836.81839   -8093.5604    9.0994957 
  284000     3281.846    21936.446    305828.39    868.36173   -8097.8112    9.1363197 
  285000    3140.0018    21967.693    302163.86    830.83041   -8095.6692    9.1233242 
  286000     3051.127    21954.884    300754.01    807.31452   -8099.3851    9.1286469 
  287000    3170.1735    22029.881    300451.97     838.8137   -8076.7135      9.09757 
  288000    3236.6773     21995.25    303095.04    856.41031   -8080.4368    9.1118942 
  289000     3232.746     21899.39    310240.49     855.3701   -8091.7393    9.1517796 
  290000    3156.9822    22065.521    288220.86    835.32334   -8120.5935    9.0828758 
  291000    3168.9609    21954.567    301851.05    838.49284   -8101.1915    9.1287787 
  292000     3265.362    22001.799    308880.88    864.00016   -8051.8625    9.1091816 
  293000    3134.9904    22041.034    295916.36    829.50441   -8089.3285    9.0929666 
  294000     3168.502    22056.844    290026.35    838.37142   -8115.1032     9.086449 
  295000    3259.7107    21945.785    308175.34    862.50483   -8080.2126     9.132432 
  296000    3173.7045    22032.544    300264.51    839.74798   -8075.5169    9.0964706 
  297000    3105.6034     21991.24    305951.51    821.72873   -8063.1514    9.1135555 
  298000    3205.8152    21928.621    314295.34    848.24432   -8051.7253    9.1395801 
  299000    3113.8669    21980.243    302465.65    823.91521   -8080.2174    9.1181151 
  300000    3261.7239    22087.718    295907.61    863.03753   -8073.2543     9.073748 
Loop time of 107.384 on 8 procs for 50000 steps with 2048 atoms

Performance: 40.230 ns/day, 0.597 hours/ns, 465.621 timesteps/s
124.6% CPU use with 4 MPI tasks x 2 OpenMP threads

MPI task timing breakdown:
Section |  min time  |  avg time  |  max time  |%varavg| %total
---------------------------------------------------------------
Pair    | 63.667     | 64.45      | 65.326     |   8.0 | 60.02
Neigh   | 1.1034     | 1.1394     | 1.1616     |   2.0 |  1.06
Comm    | 4.647      | 5.551      | 6.4408     |  29.2 |  5.17
Output  | 0.0011181  | 0.0017719  | 0.001994   |   0.9 |  0.00
Modify  | 35.963     | 36.038     | 36.081     |   0.8 | 33.56
Other   |            | 0.2032     |            |       |  0.19

Nlocal:        512.000 ave         520 max         504 min
Histogram: 1 0 0 1 0 0 1 0 0 1
Nghost:        3051.50 ave        3065 max        3039 min
Histogram: 1 1 0 0 0 0 0 1 0 1
Neighs:        43402.2 ave       44754 max       41935 min
Histogram: 1 1 0 0 0 0 0 0 0 2

Total # of neighbors = 173609
Ave neighs/atom = 84.770020
Neighbor list builds = 1134
Dangerous builds = 0

unfix temp
unfix out_file_1


write_data after_${sim}_press_$P_$T.in
write_data after_heating_press_$P_$T.in
write_data after_heating_press_300000_$T.in
write_data after_heating_press_300000_3200.in
System init for write_data ...
Last active /omp style is pair_style eam/alloy/omp
write_restart after_${sim}_press_$P_$T.lmp
write_restart after_heating_press_$P_$T.lmp
write_restart after_heating_press_300000_$T.lmp
write_restart after_heating_press_300000_3200.lmp
System init for write_restart ...
Last active /omp style is pair_style eam/alloy/omp

next loopVar
jump in.lmp ensemble

print """
Label pachadi solti, hos garam.
"""

Label pachadi solti, hos garam.

variable T equal 3000+${loopVar}*100
variable T equal 3000+3*100
# variable T equal 1750


reset_timestep 0
fix 1 all npt temp $T $T $(dt*100) iso $P $P $(dt*1000)
fix 1 all npt temp 3300 $T $(dt*100) iso $P $P $(dt*1000)
fix 1 all npt temp 3300 3300 $(dt*100) iso $P $P $(dt*1000)
fix 1 all npt temp 3300 3300 0.10000000000000000555 iso $P $P $(dt*1000)
fix 1 all npt temp 3300 3300 0.10000000000000000555 iso 300000 $P $(dt*1000)
fix 1 all npt temp 3300 3300 0.10000000000000000555 iso 300000 300000 $(dt*1000)
fix 1 all npt temp 3300 3300 0.10000000000000000555 iso 300000 300000 1
print """
<--------------------------------------------------------------------->
<------------------ Equilibrating at temperature $T ----------------->
<--------------------------------------------------------------------->
"""

<--------------------------------------------------------------------->
<------------------ Equilibrating at temperature 3300 ----------------->
<--------------------------------------------------------------------->

fix temp all print 1000 "$(step) $(temp) $(press) ${sys_press} $(vol) $(ke) $(pe) $(density)" file temp_${sim}.txt screen no title  "step temp press pressGiga vol ke pe density"
fix temp all print 1000 "$(step) $(temp) $(press) ${sys_press} $(vol) $(ke) $(pe) $(density)" file temp_heating.txt screen no title  "step temp press pressGiga vol ke pe density"
run 250000
Last active /omp style is pair_style eam/alloy/omp
Per MPI rank memory allocation (min/avg/max) = 4.354 | 4.354 | 4.354 Mbytes
Step Temp Volume Press KinEng PotEng Density 
       0    3261.7239    22087.718    295907.61    863.03753   -8073.2543     9.073748 
    1000    3272.4275    21983.177    313432.67    865.86965   -8039.3868    9.1168982 
    2000    3365.7274    22170.883    301530.02    890.55638   -8018.7545    9.0397116 
    3000    3225.7776    22236.886    290115.07    853.52629   -8033.2303    9.0128801 
    4000    3381.7896    22310.586    298909.93    894.80638   -7972.2774    8.9831071 
    5000    3310.5698    22630.107    302782.38    875.96193   -7812.7847    8.8562723 
    6000    3153.8667    22762.873    286887.44    834.49899   -7827.8538    8.8046175 
    7000    3260.4811    22759.106    297552.54    862.70869   -7785.1618    8.8060748 
    8000    3417.4511    22763.783    298866.68    904.24225   -7792.0008    8.8042655 
    9000    3346.0068    22770.875    295039.76     885.3384   -7795.1776    8.8015232 
   10000    3321.0065    22702.323    300334.22    878.72344   -7796.4484    8.8281005 
   11000    3306.0917    22685.848     299071.1    874.77705   -7819.4886    8.8345115 
   12000    3300.6741    22708.521    304879.03    873.34357   -7773.5458    8.8256908 
   13000    3363.0405    22619.212    310988.46    889.84544   -7778.9247    8.8605381 
   14000    3378.9735    22788.216    290740.12    894.06124   -7815.6801    8.7948255 
   15000    3301.5945    22682.434     303367.8    873.58711   -7789.0883    8.8358414 
   16000    3271.6397    22760.138    299862.77    865.66119   -7781.7529    8.8056754 
   17000    3333.1873    22674.944    307314.31    881.94641   -7780.2449      8.83876 
   18000    3294.2238    22663.934    307581.86    871.63686   -7778.6925    8.8430539 
   19000    3252.8779    22739.135    291240.68    860.69691   -7824.9027    8.8138086 
   20000    3260.7115    22737.041    299796.09    862.76965   -7780.8569    8.8146205 
   21000    3341.1705    22640.786    307950.49    884.05872   -7785.6865    8.8520948 
   22000    3211.3627    22786.455    291737.95    849.71217   -7802.6731    8.7955054 
   23000    3268.6335    22674.288    303858.25    864.86577   -7786.6888    8.8390158 
   24000    3392.1723    22764.298    296617.22    897.55358   -7795.6252    8.8040662 
   25000    3332.6793    22616.466    311678.07    881.81201   -7771.8174    8.8616138 
   26000    3301.1024    22677.314    308623.18    873.45689   -7769.4099    8.8378364 
   27000    3256.1862    22734.558    296744.25    861.57226   -7796.5681    8.8155832 
   28000      3284.38    22703.859    301520.49    869.03222   -7790.1928     8.827503 
   29000     3233.544    22742.616    302580.94    855.58124   -7768.4436    8.8124597 
   30000    3271.9601    22676.461    302054.97    865.74599   -7796.2358    8.8381686 
   31000    3285.5575    22810.425     292381.8    869.34378   -7791.4775    8.7862628 
   32000    3209.7213    22671.295    310477.75    849.27786   -7754.7347    8.8401824 
   33000    3388.0442    22738.952    295212.22    896.46132   -7814.5167    8.8138796 
   34000     3308.462    22778.554    296383.07    875.40421   -7790.6482    8.7985562 
   35000    3277.0077     22653.73    304693.44    867.08153   -7793.5137    8.8470369 
   36000    3441.3609    22778.809    295198.52    910.56866   -7803.0865    8.7984578 
   37000    3277.3688    22679.016    301739.56     867.1771   -7794.9326    8.8371729 
   38000    3369.7355    22747.905    299492.27    891.61691   -7782.3419    8.8104106 
   39000    3270.8769    22693.658    302155.28    865.45937   -7789.1616    8.8314711 
   40000    3325.6223    22821.667     291800.6    879.94475   -7795.6343    8.7819345 
   41000    3407.4651    22767.068     300009.4    901.59998   -7778.2122    8.8029949 
   42000    3265.6742    22786.356     290887.3    864.08275   -7806.1527    8.7955435 
   43000    3335.8096    22787.476    294828.93    882.64026   -7791.1189    8.7951113 
   44000    3318.5191    22667.609    307485.17    878.06528   -7776.1237    8.8416199 
   45000    3397.9973     22711.22     302196.9    899.09486   -7794.2849    8.8246422 
   46000     3216.858    22698.238    302336.91    851.16622   -7786.2928    8.8296892 
   47000    3218.4439    22661.737    300539.75    851.58582   -7805.5019    8.8439109 
   48000    3340.2056    22698.372    307434.43    883.80342   -7768.7814    8.8296371 
   49000    3262.2308    22532.058    318130.27    863.17163   -7775.1077    8.8948106 
   50000    3356.8475    22762.307    295310.13    888.20681   -7802.7672    8.8048363 
   51000    3304.7018    22763.479    295749.77    874.40927   -7793.3137    8.8043829 
   52000    3413.7392    22753.649     302532.2    903.26009   -7769.9111    8.8081865 
   53000    3277.8227    22738.239    294821.17    867.29718    -7805.761    8.8141559 
   54000    3299.3336    22779.562    299087.02    872.98888   -7779.1785    8.7981667 
   55000     3173.037    22654.042    304889.02    839.57135   -7786.8672    8.8469149 
   56000    3296.0329    22635.509    306937.45    872.11554   -7793.8186    8.8541586 
   57000    3289.6309    22674.994    307610.14    870.42158   -7773.0788    8.8387405 
   58000    3266.5023    22743.645    297429.58    864.30187   -7790.4366    8.8120609 
   59000    3291.4093    22883.794    283236.34    870.89215   -7814.2386    8.7580926 
   60000    3267.4913     22722.99    302938.06    864.56355   -7780.6725    8.8200712 
   61000     3406.981    22580.093    316994.15    901.47189   -7770.0878    8.8758886 
   62000     3382.349    22712.686    295600.19    894.95439   -7816.4308    8.8240726 
   63000    3237.3144     22688.85    301873.47    856.57887   -7790.5662    8.8333426 
   64000    3316.6278    22600.901    311323.87    877.56484    -7783.872    8.8677165 
   65000    3370.9914    22819.031     291208.7    891.94921   -7804.5998    8.7829491 
   66000    3243.8318    22719.997    302721.73    858.30334    -7774.245    8.8212331 
   67000    3386.3505     22745.59    300525.01    896.01317   -7787.8329    8.8113074 
   68000    3336.3906    22677.236    302861.04    882.79399   -7798.9781    8.8378664 
   69000    3410.6264    22739.002    298840.59    902.43645   -7796.4927    8.8138605 
   70000    3346.8196    22892.873    280392.81    885.55346   -7825.1552    8.7546191 
   71000    3297.9543    22746.266    298093.02    872.62392   -7791.9245    8.8110456 
   72000    3276.3329    22631.378    310514.05    866.90299    -7776.137    8.8557747 
   73000    3371.6349    22676.488     303804.1    892.11947   -7798.1706    8.8381583 
   74000    3369.1802    22732.202    301508.65    891.46998   -7783.9398    8.8164966 
   75000    3241.7608    22803.665    292263.64    857.75538   -7794.1729    8.7888672 
   76000    3304.3504    22857.024     284492.9    874.31629   -7815.2279    8.7683498 
   77000    3268.5262    22609.124    312362.45    864.83738   -7777.9339    8.8644915 
   78000    3324.3446    22649.832    298892.97    879.60667   -7824.3607    8.8485597 
   79000    3405.9131    22746.823    301974.94    901.18933   -7778.6089    8.8108299 
   80000    3238.6279    22645.394    306745.13    856.92643   -7782.8808    8.8502937 
   81000    3314.1658    22766.826    297029.93    876.91342   -7785.5042    8.8030885 
   82000    3453.7537    22763.329    296264.62    913.84774   -7800.7259    8.8044411 
   83000    3281.7614    22677.779    305426.95    868.33936   -7786.4238     8.837655 
   84000    3216.5961    22814.747    286651.46    851.09691   -7814.9681    8.7845981 
   85000    3325.3278    22731.283    297672.72    879.86684   -7798.0577    8.8168531 
   86000    3377.6064    22640.949    307120.22    893.69952   -7789.7681    8.8520312 
   87000    3165.6418     22747.79    296657.73    837.61462   -7789.2834    8.8104551 
   88000    3333.6684     22745.56    302414.16    882.07371   -7775.0506    8.8113192 
   89000    3267.4723    22701.428    302815.13    864.55853   -7782.7378    8.8284484 
   90000    3266.6379    22763.012    293966.59    864.33774   -7802.1325    8.8045636 
   91000    3256.8988    22850.024    285083.48    861.76083   -7810.8094     8.771036 
   92000    3393.1294    22760.714    297570.79    897.80683   -7793.6575    8.8054526 
   93000    3310.0603    22595.332    312605.53    875.82711   -7779.0343    8.8699022 
   94000    3208.4915    22740.106    299930.15    848.95247    -7779.372    8.8134324 
   95000    3312.1252    22679.626     303990.7    876.37348   -7789.9492    8.8369351 
   96000    3293.8282    22769.172    297847.72    871.53218   -7777.6252    8.8021814 
   97000    3339.7755    22712.582    304085.24    883.68961   -7778.5268    8.8241129 
   98000    3251.6652    22726.325    296223.07    860.37603   -7805.0427    8.8187769 
   99000    3311.4244      22750.1    295355.34    876.18805   -7801.8413    8.8095608 
  100000    3300.1471    22773.347    289299.95    873.20414   -7827.9958     8.800568 
  101000    3454.1979    22666.057    301663.32    913.96527   -7816.7092    8.8422256 
  102000    3313.2873    22661.534    305048.74    876.68097   -7789.9902    8.8439903 
  103000    3285.2169    22859.935    285668.86    869.25367    -7804.577    8.7672333 
  104000    3301.6179    22722.452    299368.82     873.5933   -7797.2893    8.8202798 
  105000     3293.626    22642.835     305322.3    871.47868   -7791.4821    8.8512939 
  106000     3246.798     22751.88    296287.76    859.08821   -7795.6942    8.8088714 
  107000    3339.5472    22613.253    308861.99    883.62922   -7787.3277     8.862873 
  108000    3366.6992    22725.051    304316.94    890.81351   -7780.1788    8.8192711 
  109000    3271.6384    22803.355    295735.92    865.66084    -7777.003    8.7889869 
  110000    3279.5567     22659.45    307123.64      867.756   -7780.4061    8.8448038 
  111000    3338.3383    22659.935    309658.84    883.30935   -7772.3725    8.8446144 
  112000    3253.3822    22755.038    297169.49    860.83035   -7794.9777    8.8076488 
  113000    3223.9507    22766.967    294435.79     853.0429   -7800.4134     8.803034 
  114000    3332.0192    22812.002    294158.73    881.63735   -7780.4179    8.7856551 
  115000    3351.6448    22817.713    288117.77     886.8302   -7816.7268    8.7834563 
  116000    3431.4608     22767.88    297746.95    907.94914   -7789.8922    8.8026809 
  117000    3308.8198    22580.973    320533.84     875.4989    -7752.714    8.8755426 
  118000    3232.3683    22677.814    306534.83    855.27015   -7775.0886    8.8376411 
  119000    3305.4444    22698.319    296820.86    874.60577   -7811.4552    8.8296576 
  120000    3197.3929    22692.092    302753.95    846.01582   -7790.7099    8.8320806 
  121000    3308.1204    22718.376     299504.2    875.31383   -7791.6194    8.8218622 
  122000     3285.047    22566.877    322694.56    869.20871   -7741.7042    8.8810864 
  123000    3225.3652    22756.465    294345.98    853.41717   -7803.4635    8.8070965 
  124000    3312.8427    22855.917    288885.67    876.56334   -7795.5488    8.7687749 
  125000    3356.2307    22629.809    312026.57    888.04359   -7768.8332    8.8563889 
  126000     3196.573    22612.278    314693.76    845.79888   -7754.9317     8.863255 
  127000    3334.8739     22689.01    299398.37    882.39268   -7809.1421    8.8332804 
  128000    3427.7145    22667.031    309533.98    906.95788   -7770.8632    8.8418454 
  129000    3268.1329    22701.128    300669.07     864.7333   -7798.1973    8.8285652 
  130000    3327.5189    22700.769    299297.42    880.44659   -7803.8429    8.8287047 
  131000    3280.3352    22741.826    295775.03      867.962   -7806.2323    8.8127657 
  132000    3372.7038    22652.689    305069.76    892.40231   -7797.7649    8.8474436 
  133000    3279.1465    22702.605    305696.71    867.64747   -7767.2269    8.8279908 
  134000    3178.1554    22726.535    294335.54    840.92567    -7806.988    8.8186953 
  135000    3210.8276    22807.045    289777.03    849.57059   -7806.3677     8.787565 
  136000    3339.7617    22672.671    311911.87    883.68597   -7752.2157    8.8396461 
  137000    3214.8999    22617.038    311566.71     850.6481   -7774.2399    8.8613896 
  138000    3340.8143    22800.301    296046.15     883.9645   -7782.5976    8.7901642 
[...]
  120000    3645.1195    23045.699    290048.25    964.48228   -7731.8029    8.6965635 
  121000    3501.5718    23066.234    287482.96    926.50019   -7734.0924    8.6888213 
  122000    3590.2729     23109.78    287627.39    949.97011    -7712.778    8.6724489 
  123000    3584.3765    22893.865    302101.78    948.40994   -7728.1127    8.7542398 
  124000    3575.7093     23070.64    287837.54    946.11666   -7733.2883    8.6871619 
  125000    3700.3211    23018.617    297091.75    979.08837   -7705.3599    8.7067954 
  126000    3604.9341     22867.32    307418.49     953.8494   -7713.9058    8.7644019 
  127000    3557.3801    22894.808    305726.78    941.26683    -7707.893    8.7538794 
  128000    3665.8231    22926.353    301917.62    969.96037   -7724.1504    8.7418344 
  129000    3643.7609    22858.461    305959.15    964.12279   -7724.9028    8.7677987 
  130000    3620.2169    22895.127     306801.5    957.89317   -7706.9994    8.7537573 
  131000    3514.5011    23011.044    295921.89    929.92124   -7711.1675    8.7096608 
  132000    3541.5628    22931.929    296605.92    937.08165   -7737.0288     8.739709 
  133000     3649.938     22992.39    297190.25    965.75724   -7723.6303     8.716727 
  134000     3609.654    22851.084    309040.62    955.09826   -7707.5576    8.7706293 
  135000    3630.9988    22953.165    298380.05      960.746   -7730.9706     8.731623 
  136000    3615.5662    23123.222    283079.79    956.66262   -7739.0375    8.6674075 
  137000    3581.2282    22996.234    292147.41    947.57693   -7738.2625      8.71527 
  138000    3510.3104    22898.226    295057.51     928.8124   -7763.8767    8.7525725 
  139000    3600.6788     22921.59    306178.81    952.72346   -7695.9512    8.7436513 
  140000    3518.8923    22770.188     313202.8    931.08313    -7711.588    8.8017888 
  141000    3598.1949    22974.402    299278.28    952.06623   -7705.2056    8.7235517 
  142000    3544.7312    22865.988    303607.83    937.91999   -7729.2428    8.7649127 
  143000    3657.8904    23025.217    297956.67     967.8614   -7700.1231    8.7042997 
  144000    3577.2129    22928.693    297206.94     946.5145   -7735.4487    8.7409425 
  145000    3602.9227    23020.145    293242.48     953.3172   -7722.7327    8.7062174 
  146000    3577.6772    22849.404    307112.08    946.63736   -7713.7585     8.771274 
  147000    3637.1805    22924.658    300280.74    962.38165   -7730.3568    8.7424811 
  148000    3519.0376    23063.707    283353.78    931.12156   -7753.3603    8.6897733 
  149000    3569.4672    22983.893    294873.82    944.46501   -7728.9988    8.7199494 
  150000    3631.0951    22811.574    315308.34     960.7715     -7701.52      8.78582 
  151000    3632.8984     22905.72    305299.32    961.24862   -7712.0019    8.7497093 
  152000    3614.8586    22906.479    300278.86    956.47537   -7736.0567    8.7494191 
  153000    3652.7687    22955.361    297515.99    966.50623   -7730.5202    8.7307879 
  154000    3708.6425    22864.061    313161.67    981.29017   -7692.1267    8.7656512 
  155000    3707.0797    22902.702    302129.27    980.87667   -7732.8983    8.7508622 
  156000    3494.4441    22854.384    307781.41    924.61423    -7702.771    8.7693628 
  157000    3664.0494    22979.692    301499.98    969.49105   -7708.6533    8.7215436 
  158000    3619.5749    22832.497    309549.54    957.72328   -7720.7457    8.7777692 
  159000    3604.5622    22880.216    312016.57    953.75099   -7689.9633    8.7594621 
  160000    3591.2939    22970.866    294968.81    950.24026   -7732.7482    8.7248948 
  161000    3472.7725    22939.437    293287.59    918.88003   -7751.9063    8.7368486 
  162000    3587.7888    23060.704    289856.34    949.31284   -7726.8762     8.690905 
  163000    3594.3374    22946.924    301178.17    951.04557   -7712.1563     8.733998 
  164000    3630.8286    22911.975    309281.71    960.70096   -7692.2156    8.7473204 
  165000    3695.6047    23070.877    291306.57    977.84044     -7719.24    8.6870729 
  166000    3539.5745    22984.568    295937.91    936.55553   -7725.3285    8.7196933 
  167000    3515.6445     23012.84    292332.78    930.22377   -7728.2001     8.708981 
  168000    3520.3945    23067.654     288740.5     931.4806   -7727.5633    8.6882866 
  169000    3707.3523    22953.763    298538.63    980.94881   -7726.2112    8.7313955 
  170000    3566.4715    22911.464    302807.75    943.67238   -7708.7762    8.7475156 
  171000    3640.9823      22879.2    303764.67     963.3876   -7730.9284     8.759851 
  172000    3620.6844    22881.508    304723.36    958.01686   -7720.4469    8.7589675 
  173000    3548.4662     22940.96    289367.14    938.90825   -7772.4914    8.7362684 
  174000    3627.0905    23058.518    288087.44    959.71189    -7730.102    8.6917288 
  175000    3653.0612    22927.664    301563.83     966.5836   -7722.2622    8.7413349 
  176000    3547.2685    22871.875    305919.44    938.59135   -7715.6115    8.7626567 
  177000    3631.0015    22854.369    303248.31    960.74671   -7735.8648    8.7693686 
  178000    3563.2614    22915.126    302686.53    942.82299   -7718.6373    8.7461175 
  179000    3538.4068    23050.003    290638.91    936.24658   -7721.2251    8.6949397 
  180000    3648.8936    22932.812    297873.54    965.48088   -7737.3708    8.7393726 
  181000    3589.2784    22784.847    317446.64    949.70696    -7693.025     8.796126 
  182000    3750.3749    22945.561    300545.63     992.3324   -7721.0072    8.7345165 
  183000    3500.9019    22888.611    302090.85    926.32296   -7726.5138    8.7562494 
  184000    3555.6611     22888.72    306988.29    940.81199   -7701.5812    8.7562077 
  185000    3595.6546    22959.532    302463.62    951.39408    -7695.717    8.7292018 
  186000    3595.4338    22927.749    300371.36    951.33565   -7725.2512    8.7413023 
  187000     3571.752    22864.711       302321    945.06957   -7739.9167    8.7654022 
  188000    3773.2936    22937.324    298126.92    998.39656   -7738.5378    8.7376535 
  189000    3627.6621    22971.288     295329.9    959.86314   -7733.6536    8.7247343 
  190000    3504.7994    23099.268    287264.92     927.3542   -7715.2939    8.6763957 
  191000    3547.9179    22924.264    299679.24    938.76317   -7723.7501    8.7426314 
  192000    3649.8718    22976.814    301653.28     965.7397   -7704.0753    8.7226361 
  193000    3671.2059    22909.728    300251.41    971.38463   -7740.1389    8.7481785 
  194000    3730.8904    22885.999    299193.97    987.17687   -7750.2629    8.7572489 
  195000    3693.0683    23024.852    292739.61    977.16932   -7731.5228    8.7044374 
  196000    3537.9675        22933    295361.25    936.13034   -7739.0257     8.739301 
  197000    3569.1867    22958.231    292042.98    944.39081   -7756.2892    8.7296964 
  198000    3532.6403    22950.036    298531.79    934.72079   -7719.2755    8.7328137 
  199000    3567.5091    22795.205    314917.49     943.9469   -7706.9863    8.7921291 
  200000    3654.3616    22925.327    305143.64     966.9277   -7704.5107    8.7422257 
  201000    3520.9594    22900.365    303247.44    931.63006   -7716.3294    8.7517552 
  202000    3551.1481    23118.152    287371.57    939.61788   -7720.4335    8.6693083 
  203000    3599.4606    22868.349    304207.66    952.40114   -7724.7993    8.7640078 
  204000    3617.2979    22929.583     302969.7    957.12082   -7712.9311    8.7406031 
  205000    3476.0294    22891.485    302948.41    919.74179   -7726.2707    8.7551502 
  206000    3540.9165    22891.742    306609.87    936.91063   -7706.2969    8.7550519 
  207000    3638.0986    23029.722    291102.21    962.62457   -7736.2419    8.7025969 
  208000    3506.9966    22886.975    306582.45    927.93559   -7699.5124    8.7568752 
  209000     3688.881    22877.362    306855.46    976.06138   -7716.5531    8.7605549 
  210000    3553.7547    22894.637    298112.22    940.30755    -7745.194    8.7539446 
  211000    3552.0941    22916.358    300264.27    939.86816   -7724.4245    8.7456472 
  212000    3684.7821    22832.539    312385.78    974.97684   -7708.0814    8.7777528 
  213000    3746.7934    22940.594    300905.51    991.38473   -7730.0021    8.7364078 
  214000    3660.5874     22936.34    294791.01    968.57501   -7754.7161     8.738028 
  215000    3541.2456    22968.287    293369.71    936.99771   -7739.2757    8.7258745 
  216000     3616.461    22999.741    295567.59    956.89936    -7728.521     8.713941 
  217000    3653.1589    22941.796    305116.48    966.60946   -7697.5709    8.7359503 
  218000    3669.5348    22931.897    304479.41    970.94246   -7708.3784    8.7397211 
  219000    3611.7805    22825.694    312351.03    955.66093   -7704.0405    8.7803852 
  220000    3585.0191    23005.946    291229.78    948.57998   -7744.5315    8.7115909 
  221000    3597.4252    23165.079    280881.25    951.86258   -7731.5947    8.6517463 
  222000    3586.2119    22867.694    306598.81     948.8956   -7717.5998    8.7642589 
  223000    3639.7544    22937.403    305099.23    963.06269   -7703.6996    8.7376233 
  224000    3684.2322    22975.581     298839.1    974.83133   -7716.1738    8.7231041 
  225000    3565.3839    22814.458    306982.69    943.38459     -7730.13    8.7847093 
  226000     3591.857    22899.449    309931.28    950.38927   -7683.0822     8.752105 
  227000    3579.1479     22974.72     294308.1     947.0265   -7728.7486     8.723431 
  228000    3636.6355    23079.923     285341.4    962.23746    -7741.641    8.6836678 
  229000    3635.9729     22915.74    301381.03    962.06212   -7731.1786    8.7458831 
  230000    3608.6502    22937.857    303823.01    954.83267    -7704.713    8.7374503 
  231000    3634.1939    22770.283    318382.03    961.59142   -7700.7022    8.8017521 
  232000    3568.6169    22840.532    310604.05    944.24003   -7702.8812    8.7746813 
  233000     3596.083    22954.011     296085.5    951.50744   -7728.8823    8.7313013 
  234000    3648.7899    23036.156    290607.29    965.45346   -7734.6447    8.7001663 
  235000    3529.1335    22933.754    305464.93    933.79291   -7696.0234    8.7390136 
  236000    3608.8817    22989.208    294776.58    954.89391   -7731.0225    8.7179333 
  237000    3505.1262    23182.856    276753.77    927.44067   -7738.5526    8.6451121 
  238000    3565.5563    22973.752    297225.24    943.43022   -7720.9316    8.7237985 
  239000    3492.1506    22853.441    308717.37    924.00738   -7707.6041    8.7697248 
  240000    3664.5406    22961.945    298238.01    969.62101   -7722.7215    8.7282843 
  241000    3616.3539    22986.353    298990.66    956.87103   -7709.8415    8.7190163 
  242000    3597.3683    22804.722    313894.75    951.84753   -7703.6446    8.7884599 
  243000    3663.6804     22923.97    303278.84    969.39341    -7714.956    8.7427435 
  244000    3570.7018    22928.511    299080.75    944.79168     -7723.34     8.741012 
  245000    3577.1529    22925.912    303763.12    946.49861   -7701.0333     8.742003 
  246000    3683.6865    23049.773    288923.72    974.68693   -7745.3726    8.6950266 
  247000    3661.8285    23121.309    283184.78    968.90341   -7741.7262    8.6681244 
  248000    3587.9651     22949.81    296397.73    949.35947   -7735.8255    8.7328995 
  249000    3677.6638    22953.413    303689.11    973.09335    -7703.603    8.7315287 
  250000    3706.0974    22954.298    295955.66    980.61676    -7753.193    8.7311921 
Loop time of 526.541 on 8 procs for 250000 steps with 2048 atoms

Performance: 41.022 ns/day, 0.585 hours/ns, 474.797 timesteps/s
121.9% CPU use with 4 MPI tasks x 2 OpenMP threads

MPI task timing breakdown:
Section |  min time  |  avg time  |  max time  |%varavg| %total
---------------------------------------------------------------
Pair    | 308.65     | 311.87     | 315.91     |  15.6 | 59.23
Neigh   | 5.9721     | 6.1398     | 6.2306     |   4.1 |  1.17
Comm    | 22.017     | 26.145     | 29.866     |  57.5 |  4.97
Output  | 0.0059643  | 0.011613   | 0.013505   |   3.0 |  0.00
Modify  | 180.98     | 181.34     | 181.58     |   1.7 | 34.44
Other   |            | 1.04       |            |       |  0.20

Nlocal:        512.000 ave         516 max         508 min
Histogram: 1 0 0 1 0 0 1 0 0 1
Nghost:        2852.50 ave        2861 max        2842 min
Histogram: 1 0 0 1 0 0 0 0 1 1
Neighs:        41676.2 ave       42661 max       40434 min
Histogram: 1 0 0 0 1 0 0 0 1 1

Total # of neighbors = 166705
Ave neighs/atom = 81.398926
Neighbor list builds = 6189
Dangerous builds = 0


# fix 132 all momentum 100 linear 1 1 1 angular
fix out_file_1 all print 1000 "$(step) $(temp) $(press) ${sys_press} $(vol) $(ke) $(pe) $(density)" file one_phase_${sim}_press_$P_$T_.txt screen no title  "step temp press pressGiga vol ke pe density"
fix out_file_1 all print 1000 "$(step) $(temp) $(press) ${sys_press} $(vol) $(ke) $(pe) $(density)" file one_phase_heating_press_$P_$T_.txt screen no title  "step temp press pressGiga vol ke pe density"
fix out_file_1 all print 1000 "$(step) $(temp) $(press) ${sys_press} $(vol) $(ke) $(pe) $(density)" file one_phase_heating_press_300000_$T_.txt screen no title  "step temp press pressGiga vol ke pe density"
fix out_file_1 all print 1000 "$(step) $(temp) $(press) ${sys_press} $(vol) $(ke) $(pe) $(density)" file one_phase_heating_press_300000_3600_.txt screen no title  "step temp press pressGiga vol ke pe density"

# dump 3 all custom 1000 traj_npt_new.lammpstrj id type x y z
run 50000
Last active /omp style is pair_style eam/alloy/omp
Per MPI rank memory allocation (min/avg/max) = 4.354 | 4.354 | 4.354 Mbytes
Step Temp Volume Press KinEng PotEng Density 
  250000    3706.0974    22954.298    295955.66    980.61676    -7753.193    8.7311921 
  251000    3562.7084    22952.875    298287.82    942.67667   -7718.3283    8.7317333 
  252000    3573.4599    22970.602     295386.3    945.52148   -7734.4386    8.7249951 
  253000    3482.4398    22999.732    289093.23    921.43797   -7743.1915    8.7139443 
  254000    3652.8343    22963.939     300252.1    966.52358   -7714.0104    8.7275264 
  255000    3694.6885    22958.892    300048.18    977.59802   -7719.9808    8.7294451 
  256000    3582.2674    22900.814    298440.44    947.85188   -7739.7145    8.7515835 
  257000    3650.2443    23090.963    289657.51    965.83827   -7715.9379    8.6795162 
  258000     3584.373    22953.005    295922.38    948.40903   -7737.6053    8.7316842 
  259000    3655.1236    22890.576    307049.37    967.12931   -7704.9148    8.7554976 
  260000    3611.5713    22767.323    318584.98    955.60558   -7699.0673    8.8028964 
  261000    3585.7186    22976.009    297510.87    948.76508   -7720.0512    8.7229416 
  262000    3534.0558    23037.568    291693.15    935.09531   -7723.6622     8.699633 
  263000    3514.5623    22898.976    303124.09    929.93742   -7719.5641     8.752286 
  264000    3701.6157    22984.788    294855.11    979.43091   -7741.3099    8.7196098 
  265000    3625.5036    23070.079    294353.73      959.292   -7700.0139     8.687373 
  266000     3565.094     22952.19    296681.01    943.30789   -7724.3758    8.7319939 
  267000    3507.3083     22800.86    313112.82    928.01806   -7711.6939    8.7899486 
  268000    3648.7312    22888.325    306049.36    965.43793   -7711.7159    8.7563586 
  269000    3515.7909    22945.401     299914.1    930.26251   -7706.0731    8.7345776 
  270000    3514.9362    22987.388    288905.29    930.03637   -7755.4961    8.7186237 
  271000    3605.4029    22958.383    299317.48    953.97344   -7721.3469    8.7296387 
  272000    3692.4303    23009.781    301722.31     977.0005   -7686.8629     8.710139 
  273000    3591.4693    22980.398    297160.93    950.28669   -7721.9312    8.7212758 
  274000    3636.1459    22982.422    289952.35    962.10791   -7758.3726    8.7205074 
  275000    3654.7629      22952.1    294073.03    967.03387   -7748.7811    8.7320285 
  276000    3511.9745     22916.99     297806.7    929.25272    -7739.199    8.7454061 
  277000    3587.6679    22947.386    302011.07    949.28083   -7709.8929    8.7338221 
  278000     3615.473     22866.71    308691.41    956.63796   -7703.3299    8.7646358 
  279000    3582.3718    22948.803    302878.65    947.87951   -7712.8721    8.7332827 
  280000    3475.4297    23029.537    286405.71    919.58311     -7746.12    8.7026668 
  281000    3599.7145    23020.682    287718.79    952.46833   -7753.1002    8.7060142 
  282000    3571.9384    22896.132    302007.68    945.11889   -7723.3464     8.753373 
  283000    3623.2059    22953.709    304491.52    958.68404   -7696.4609    8.7314163 
  284000    3602.9446    22914.128    302983.47      953.323   -7719.4995    8.7464987 
  285000    3571.3069    22953.834    294097.12    944.95179   -7748.2755    8.7313685 
  286000    3579.2514     23010.03    292412.64    947.05388   -7735.0975    8.7100447 
  287000    3599.4065    22993.783    300311.88    952.38681   -7697.6513    8.7161988 
  288000    3582.4747    22901.829     303414.6    947.90674   -7714.9297    8.7511955 
  289000    3723.2924    22922.945    300431.31    985.16647    -7733.797    8.7431345 
  290000    3617.2495    22994.896    294343.42    957.10801   -7728.9002    8.7157771 
  291000    3611.1311    23028.767    289381.42     955.4891   -7745.9413    8.7029579 
  292000    3594.5853    22931.378    297806.76    951.11117   -7742.1824    8.7399189 
  293000    3572.7869    22867.693    311147.09     945.3434   -7698.2322    8.7642592 
  294000    3583.7001    22812.715    314751.62    948.23098   -7701.5422    8.7853808 
  295000    3600.9624    22984.508    292682.93     952.7985   -7738.3804    8.7197162 
  296000    3582.4047    22937.093    295096.12    947.88821   -7744.6669    8.7377412 
  297000     3507.225    22851.436    303791.71    927.99601   -7736.6309     8.770494 
  298000    3641.6545    23032.614     296684.3    963.56545   -7714.5097     8.701504 
  299000    3540.9856    22887.947       305398    936.92891   -7713.5218    8.7565035 
  300000      3576.89    23046.957    285274.65    946.42905   -7756.5619    8.6960889 
Loop time of 111.063 on 8 procs for 50000 steps with 2048 atoms

Performance: 38.897 ns/day, 0.617 hours/ns, 450.195 timesteps/s
120.1% CPU use with 4 MPI tasks x 2 OpenMP threads

MPI task timing breakdown:
Section |  min time  |  avg time  |  max time  |%varavg| %total
---------------------------------------------------------------
Pair    | 65.29      | 65.971     | 66.717     |   6.7 | 59.40
Neigh   | 1.2407     | 1.2729     | 1.2976     |   1.8 |  1.15
Comm    | 5.6873     | 6.4589     | 7.2559     |  23.4 |  5.82
Output  | 0.001177   | 0.0018165  | 0.0020398  |   0.9 |  0.00
Modify  | 37.041     | 37.128     | 37.185     |   0.9 | 33.43
Other   |            | 0.2302     |            |       |  0.21

Nlocal:        512.000 ave         517 max         509 min
Histogram: 1 1 0 1 0 0 0 0 0 1
Nghost:        2871.25 ave        2889 max        2855 min
Histogram: 1 0 0 0 1 1 0 0 0 1
Neighs:        41649.8 ave       43042 max       40351 min
Histogram: 1 0 0 1 0 1 0 0 0 1

Total # of neighbors = 166599
Ave neighs/atom = 81.347168
Neighbor list builds = 1238
Dangerous builds = 0

unfix temp
unfix out_file_1


write_data after_${sim}_press_$P_$T.in
write_data after_heating_press_$P_$T.in
write_data after_heating_press_300000_$T.in
write_data after_heating_press_300000_3600.in
System init for write_data ...
Last active /omp style is pair_style eam/alloy/omp
write_restart after_${sim}_press_$P_$T.lmp
write_restart after_heating_press_$P_$T.lmp
write_restart after_heating_press_300000_$T.lmp
write_restart after_heating_press_300000_3600.lmp
System init for write_restart ...
Last active /omp style is pair_style eam/alloy/omp

next loopVar
jump in.lmp ensemble
























Total wall time: 1:03:08
