LAMMPS data file via write_data, version 29 Oct 2020, timestep = 250000

2744 atoms
1 atom types

0.16943840495536477 24.63856159504683 xlo xhi
0.16943840495536477 24.63856159504683 ylo yhi
4.240767653187039 55.425129299545986 zlo zhi

Masses

1 58.933

Atoms # atomic

40 1 2.9790013244955453 1.226603789615222 6.463865470213283 0 0 0
1629 1 1.5012785916468296 3.0867795535705205 6.649000847920133 -1 1 0
35 1 3.1104126055485186 2.9949807001983135 4.459977330533019 0 0 0
5 1 1.255272458315145 1.3792482663887522 4.594129603670936 0 0 0
134 1 1.008734368328271 1.3012721616775087 8.437502467537172 0 0 0
32 1 2.922681046295473 2.9161191045246104 8.293903417015912 0 0 0
104 1 4.839111711790314 2.98031929625449 6.827758056613731 0 0 0
135 1 6.604629768303732 1.20141440948985 6.616038235875885 0 0 0
1663 1 6.29998289109327 2.8343439450103363 4.948450373211884 4 0 -1
762 1 4.704481535574476 1.1968846465654002 4.710697754423778 0 1 0
131 1 4.742216300896652 1.2735720905973216 8.451096985735337 0 0 0
110 1 6.647399019922535 2.6769778413381253 8.488623793816846 0 0 0
12 1 8.558545849882377 1.2966687054753598 5.057244926953849 0 0 0
39 1 8.26291605115622 3.015957409384197 6.791427352600685 0 0 0
42 1 10.282021825126241 1.2803972043763945 6.648133400500681 0 0 0
69 1 11.563152647569522 3.1954021608427063 6.39792385997298 0 0 0
43 1 12.00420031072665 1.588606525509235 4.876393444516666 0 0 0
2096 1 1.0983094123269306 19.197540998392693 4.970039786975521 1 -1 0
139 1 9.924657618085355 3.2391407125898994 8.52903298199464 0 0 0
108 1 8.597269225087587 1.2514068193187722 8.769366261232825 0 0 0
14 1 14.895690500384184 3.211782129331995 6.296837437718436 0 0 0
2598 1 13.234957171105739 1.3233726423801282 6.742863571707342 -2 1 2
774 1 15.191984913123939 0.9183005719779512 4.5271596474814295 0 1 0
2622 1 13.904702462304709 3.1624809586093234 4.587996118683389 -1 1 2
116 1 15.392668182619763 1.5108095041128715 8.270176847125263 0 0 0
19 1 17.53103458752844 1.633395471355752 6.809642491578773 0 0 0
120 1 18.990464416821617 3.2596140915842113 6.6046741708833006 0 0 0
148 1 16.585736017731257 3.3368318684291522 8.076885700879329 0 0 0
147 1 16.849968587599342 2.949079928399759 4.81920918523053 0 0 0
1532 1 18.853132536554718 1.6486955225822928 4.5957747100912005 2 0 0
51 1 20.35906704329072 3.109208609425827 8.380154958834925 0 0 0
52 1 20.72634509410649 3.245269731157345 4.506152052857276 0 0 0
24 1 20.208389796569733 1.353014446000931 6.604537212053058 0 0 0
1880 1 23.809091351525783 2.0441563160443863 6.631939307191699 0 0 1
79 1 21.741833589788264 3.083012715257072 6.356386447730954 0 0 0
23 1 22.269940445305274 1.353725117008918 4.648166677381359 0 0 0
2679 1 24.268914155841657 6.332848373280395 4.3590302308957325 -2 0 1
153 1 22.333194100969163 1.6480433889493684 8.675343965201893 0 0 0
31 1 2.952857513324979 6.406698255475342 4.657952069198901 0 0 0
2222 1 1.2384208003665145 6.6764872640818895 6.284031483473806 1 -1 1
36 1 3.031430522971602 4.960237605561696 6.308369686953796 0 0 0
1834 1 1.2829548567986673 4.558170008877573 4.809969123595532 1 1 0
128 1 3.23060011829664 6.479179384390199 8.172421541966768 0 0 0
159 1 5.0615797512147775 6.416386561240532 6.355280343183802 0 0 0
38 1 6.501290576655233 4.5933780629655265 6.627031721755966 0 0 0
2190 1 6.306090582664913 6.712917057822505 4.580972765388571 0 0 0
163 1 6.3827287431353605 6.399442355992156 8.635830561417409 0 0 0
2173 1 4.775863970199055 4.6573050192744185 4.871457683600508 -2 0 -1
44 1 8.132033251273395 4.922612272185926 8.235588532598445 0 0 0
167 1 8.002685427999069 6.550534200438824 6.723500228209064 0 0 0
67 1 7.9740675496019 4.848631736488819 4.948096544502686 0 0 0
68 1 6.358621564457793 8.157156623035396 6.885516311537792 0 0 0
164 1 8.122411730333127 8.516100125173338 8.341512436262729 0 0 0
132 1 4.949039917797709 4.492524004526237 8.528907002488683 0 0 0
1615 1 9.889991140510615 4.606009535210765 6.751682511639159 -1 -1 1
72 1 11.676529865143696 6.738768158269162 6.913638669978406 0 0 0
66 1 11.884841818768002 4.798389868136482 4.910432169452142 0 0 0
140 1 11.75530352981095 4.570903648262109 8.48506132191319 0 0 0
168 1 11.569226572640456 8.272768691410537 8.515472394474656 0 0 0
37 1 10.177845129760403 6.366541507367832 4.952374418473055 0 0 0
71 1 13.234143520590537 4.795650697677878 6.553993372803436 0 0 0
48 1 14.872379731014837 6.499812246708878 6.428071446253805 0 0 0
171 1 13.594661215106507 6.339682642503167 8.384508397935832 0 0 0
18 1 15.52766141317329 4.906287759617371 4.331121094789087 0 0 0
144 1 15.102098956479589 4.877309692606997 8.482114724631412 0 0 0
2722 1 13.740268970654155 6.631348611298607 4.340402871382694 -1 -1 2
1707 1 15.114113903595797 8.667049572393108 4.550142876514931 -1 0 0
75 1 16.96598908062958 5.046574638322993 6.253814578751941 0 0 0
2435 1 18.620175772084174 6.851511250263203 6.14644101860978 0 1 1
56 1 18.605597296501056 5.062343778093153 8.507572108043343 0 0 0
2403 1 16.800166136743055 7.02496791846956 4.372747594662938 0 2 0
175 1 16.79522509304637 6.675817499258193 8.011196590334384 0 0 0
57 1 16.597912506173056 8.273307654880513 6.408449875153121 -1 0 0
1782 1 18.633049420452114 8.823317837814514 4.290771696689442 0 0 1
1810 1 18.67456954235725 4.802517869467811 4.655749547318792 -2 -2 1
4 1 20.62459766898547 6.868128875005359 4.839922476221984 -1 0 0
1516 1 20.300698959603405 5.061521956784232 6.34420497269645 0 1 2
180 1 20.838269531479078 6.67778331851899 8.088738189935174 0 0 0
29 1 24.189447348980902 4.769421877466198 6.588650192009794 -1 0 0
127 1 22.273064475366787 6.333476528470588 6.465726424372379 -1 0 0
295 1 22.327774388011274 22.659111042836948 15.922715393692414 -1 -1 0
2264 1 17.122130713289245 24.3954077518829 4.7187653327479095 -1 -1 0
83 1 22.43990088508564 4.488044467358856 7.978181229034491 0 0 0
59 1 1.0143138319727443 8.186617169405178 8.1152241496039 0 0 0
2287 1 3.246253204729364 8.374982636851342 6.680904073179256 1 1 2
86 1 1.0749589077187687 10.398195030697005 6.493306109446527 0 0 0
692 1 2.8239329988206303 12.00572277244989 6.36218924228775 0 0 0
785 1 1.1891313320468344 12.305519923723597 8.362408872672912 0 0 0
687 1 1.2923338581780317 12.093877694364787 4.806381082132545 0 0 0
1029 1 23.85289113295311 24.364773962127174 15.897477585245305 0 0 0
787 1 3.0585784875864386 10.250647061685811 8.235989898469093 0 0 0
2600 1 1.260581635480464 8.347514523976383 4.848990629700712 1 2 2
61 1 4.790087323500738 8.606900974348248 4.949028094735894 0 0 0
2148 1 8.103219199006995 8.15693195754297 4.968135136094281 1 0 0
160 1 4.783767091989123 8.452286069969071 8.525957306945978 0 0 0
2575 1 4.935228236466187 10.025562580626364 6.679920173107567 0 0 2
1464 1 6.3803758146615905 12.044841367731093 6.80210835389303 1 -2 0
1884 1 6.5884222465401825 9.9563396564609 4.495561524290126 -2 -1 0
187 1 6.704523619797456 10.154169019256093 8.531291848914623 0 0 0
707 1 4.7010495779114105 12.263673430509137 8.293113968321233 0 0 0
789 1 8.377505251729135 12.002201905760074 8.201987360091618 0 0 0
2723 1 4.905527092934018 11.704194624334214 4.865620724518267 -2 0 2
90 1 8.51995227030017 10.037974794953367 6.321317726409799 0 0 0
1698 1 8.01331132967731 11.909162459130394 4.761372101466519 1 0 -1
92 1 10.04965162007361 8.381180523775408 6.616464261702296 0 0 0
2019 1 11.926541142872399 8.144849586849528 4.736111351382366 -2 1 2
711 1 9.98252139897693 9.973161245649413 4.483231912164414 0 0 0
2396 1 11.621094483525626 10.058190390927734 6.603804468741787 1 1 0
694 1 9.971296831926436 11.906402128177197 6.567744680945646 0 0 0
2717 1 11.805681054516839 11.826817230552116 4.849315673604074 -1 0 0
791 1 9.778804403736475 10.245566125561918 8.617114886260271 0 0 0
189 1 13.434931900532787 8.424699337567624 6.723105420633283 0 0 0
94 1 15.215235170262652 11.826414016896615 5.023442112150331 0 0 0
80 1 14.992596158170802 9.954412804193373 6.571741255158884 0 0 0
719 1 13.344264828102812 11.894884367334173 6.723230571450831 0 0 0
78 1 13.398908970487994 10.111504033760689 4.878286604322424 0 0 0
172 1 15.253561934625363 8.152064588417318 8.419956480127073 0 0 0
191 1 13.341357914652054 10.461149347409586 8.520896832568969 0 0 0
793 1 15.404568511992172 11.696071241172582 8.070847646950204 0 0 0
2013 1 18.70985096860366 12.113986609723408 4.547484338514893 1 0 3
1916 1 16.936880027908412 10.361874025111023 5.112568749941647 0 0 1
84 1 18.734531846143256 9.892029241861339 6.352356742945988 0 0 0
193 1 17.05112440275074 10.09467915264216 8.26660302059203 0 0 0
795 1 18.686672212081064 11.608103130956179 7.994539602761442 0 0 0
195 1 20.315917362031083 11.577743590139407 6.402333201906333 0 0 0
1633 1 20.38096234644086 10.010517028100995 4.699031775548975 -1 0 -1
97 1 17.265615860454936 12.10645217630717 6.528790472365765 0 0 0
1640 1 20.682543540030693 8.449754399965014 6.621808631727481 -1 0 -2
700 1 20.431535722380787 9.960211455292436 8.236235305539461 0 0 0
156 1 24.087125578862473 8.548301241249499 6.330272914431198 -1 0 0
2055 1 22.531709405506763 8.370078086925085 4.569323953428538 -1 1 1
183 1 22.567284157869135 10.300614845875737 6.737101728742001 -1 0 0
703 1 24.074214306444492 12.1778386577417 6.535005289028206 -1 0 0
1535 1 23.884922811777074 10.372872058718494 4.96276313222309 -1 2 1
688 1 22.08121052477362 11.521820785642872 4.884605941472455 -1 0 0
182 1 22.01860352858044 11.885950970432583 8.152042507151382 0 0 0
699 1 24.316982043418406 10.666868535440907 8.524241160225433 0 0 0
1402 1 3.1739819778843925 13.599558723592086 4.687310208243702 -2 0 2
690 1 1.2012270161547776 13.884925327511436 6.644530725141244 0 0 0
709 1 2.837736409270825 15.502752043653272 6.704880724891936 0 0 0
803 1 2.8083780673991283 13.829614410504645 8.497227222237152 0 0 0
223 1 22.425239030999013 24.46368901733289 13.847185002283586 0 -1 0
956 1 23.976575927304 22.49019538398877 13.906142972561822 -1 0 0
705 1 4.829982710919134 13.808600870204522 6.551537338641186 0 0 0
735 1 6.366868300443736 15.734509790656872 6.6788433721524845 0 0 0
1514 1 4.65293186702003 15.674981660652415 4.920772770395933 0 -2 -2
807 1 6.717726254745289 13.84350029346147 8.24668142962808 0 0 0
804 1 4.679812453434684 15.313676240652091 8.288986512906018 0 0 0
712 1 8.279398155177194 13.952954504506527 6.535855301938885 0 0 0
1548 1 8.325827870082218 15.562460766577676 4.754083015064255 2 0 1
808 1 8.422975105122438 15.480961323045488 8.069107047799234 0 0 0
716 1 10.05075032149319 15.905157532543399 6.2720009575987845 0 0 0
715 1 11.437046384812597 13.568284256813056 6.4678898035340815 0 0 0
2532 1 9.710211822140497 13.667254424568346 4.833818057106026 0 0 -1
2692 1 11.694237095274035 15.672403827462547 4.640838729782064 -2 -2 1
1990 1 15.267610880442701 15.329117751178135 4.698970182007144 0 0 2
41 1 9.83802631853705 3.3815941694554 4.788326960217441 0 0 0
1491 1 15.430748899960404 13.59665145869637 6.5179713413365326 -1 0 1
720 1 13.606068463958485 15.720920869751104 6.723947184950703 0 0 0
815 1 13.541762761097958 13.848543906962021 8.336445108620062 0 0 0
2029 1 17.226349706347733 20.563703617156335 5.008151041879821 0 2 2
721 1 17.234682253076752 13.80961986070453 4.456542128246199 0 0 0
723 1 17.194574369301716 15.026975398875939 6.503337771491461 0 0 0
820 1 18.885224653035824 13.675710909675201 6.424506191180038 0 0 0
88 1 2.992535440630687 10.061829872197256 4.930254174142084 0 0 0
701 1 20.489263218909013 15.582463384349465 6.843353928047201 -1 0 0
759 1 23.86720759231955 13.400873352697886 4.589123940796387 -1 0 0
1708 1 22.20004247713505 15.27158280647584 5.210156443630256 -1 -1 1
733 1 23.992439509414172 15.498891815739848 6.522762963788674 -1 0 0
704 1 22.086543538204115 13.539553948066859 6.60447088213458 -1 0 0
799 1 23.727935704071278 13.470885830135476 8.363221472799335 -1 0 0
1376 1 2.5838241290428052 17.242935262618186 4.817852429146611 0 0 0
706 1 1.2533111479229258 17.4299306731514 6.880021631125114 0 0 0
765 1 2.9653921138839534 19.062537137159453 6.750735848944233 0 0 0
219 1 18.71878133610916 24.53638519277714 14.042873303931042 0 -1 0
2118 1 23.924269337621443 17.28136681642752 5.045558009082664 -1 -1 -2
2256 1 6.317034008135654 17.095664698243404 4.3694567071368935 -1 1 1
2530 1 4.712800676183 19.003482032488087 4.57324196994212 1 1 1
758 1 4.350260065943942 17.172248561960913 6.504132955524311 0 0 0
740 1 6.632549582397737 19.06847315070062 6.743329343061005 0 0 0
766 1 4.951943244799743 20.78830667179828 6.946171029009074 0 0 0
2350 1 6.619545462828974 20.578532245930298 4.886669363035351 2 -1 -1
836 1 8.230875907705542 18.635340047976676 8.488295068471658 0 0 0
832 1 4.683517620992035 19.15657045745188 8.262813863379598 0 0 0
739 1 7.92033981153655 17.207134020838627 6.63251574249102 0 0 0
2504 1 7.986114316758251 18.889310055899227 5.062224760997164 -2 0 1
1580 1 10.209280068034516 17.457241952333217 4.550091378264843 -1 -1 -1
744 1 9.948316743845357 18.95978248025386 6.719057363416331 0 0 0
771 1 11.79411580445133 17.187528206591594 6.567996769935096 0 0 0
839 1 10.033334409282942 17.29173876342042 8.269970901213174 0 0 0
1469 1 12.162563378033282 18.798164365599334 4.864018248847254 2 0 0
776 1 11.569566707379321 20.670828230813115 6.395955288710076 0 0 0
742 1 11.799493827089039 18.997546051805134 8.30413420063844 0 0 0
737 1 6.460718039776902 13.991981892749818 4.952151587791556 0 0 0
748 1 15.874771306121815 18.674949646028505 4.738302556730591 0 0 0
747 1 15.360541888480656 17.14925589669609 6.608791176151192 0 0 0
775 1 13.867584689817447 18.878563957646914 6.66092054742921 0 0 0
2707 1 20.54523869388909 17.250601761510406 4.8365934480595065 1 0 2
724 1 17.407517867828968 16.78367411075955 4.563408868520869 0 0 0
844 1 17.16077968671901 18.884739809900832 6.760672200788015 0 0 0
728 1 18.760375413615883 17.07650697906466 6.674302800004052 0 0 0
751 1 18.637904450370584 21.029138029417584 6.966136734257056 0 0 0
698 1 18.800525550089493 18.88674727388895 4.727838708245398 0 0 0
847 1 17.08163396802333 16.910145941589835 8.305010342671178 0 0 0
848 1 18.734501363019977 18.956565117990706 8.502191621386 0 0 0
753 1 20.380090643421205 17.35090554090237 8.421063797318006 0 0 0
783 1 19.903706853766963 19.14459709493086 6.722955844377866 0 0 0
1524 1 21.992325702292533 19.002864581720456 4.760711863896439 0 -2 0
797 1 20.594185916425964 13.222721204382 4.634941555845251 0 0 0
1973 1 22.35174755352906 17.70035586851322 6.495149238571397 1 -2 2
731 1 24.091675655198056 19.111026270143423 6.595273200214601 -1 0 0
827 1 22.16228859147775 19.137552473223728 8.40793750743594 -1 0 0
757 1 1.2623852869497416 21.01473251436807 6.775386600081415 0 0 0
763 1 0.9118022697319303 24.587406739923637 6.538658068194284 0 0 0
2088 1 3.23636179391865 23.50350832040524 4.945473332301056 -3 -2 2
2211 1 1.1704755923495211 22.369553437412385 4.8067396442586015 0 -1 0
1758 1 3.132472780922399 22.37934606229399 6.766027809594727 1 -3 0
99 1 1.0680265352049034 22.823564543347132 8.605176133549064 0 -1 0
768 1 4.6086542764635405 24.27571824351244 6.690744037077123 0 0 0
1888 1 5.44427651318464 22.406163788827755 4.815287919270012 0 1 2
11 1 6.804244788714428 22.616229736981882 6.626663750954453 0 -1 0
107 1 6.674995553451844 24.04908732966868 8.393549514049734 0 -1 0
10 1 8.589618521783356 22.402866550291456 5.204505013252359 0 -1 0
9 1 6.941860230347479 24.026896289844796 4.867595717614253 0 -1 0
2416 1 10.437816903643368 23.864392754830966 4.758862298047432 0 0 1
767 1 8.415184468123318 20.841762392200508 6.822371898056293 0 0 0
45 1 8.480414325621286 24.35354410150894 6.8397952150749255 0 -1 0
864 1 8.521740814129522 22.714061773228035 8.651930367578775 0 0 0
2154 1 9.853451170699726 20.455021958424684 5.010716980327265 1 -1 -2
16 1 11.777836049394754 24.124507696524155 6.5164581551313745 0 -1 0
15 1 10.060881254084018 22.51673680475388 6.879944101696446 0 -1 0
1563 1 11.921402583361909 22.18048183415895 4.961143158451827 0 0 1
111 1 10.46647188682019 24.198989381796935 8.622956652330306 0 -1 0
1840 1 15.579871554180027 20.875512601880764 6.463946808367779 0 0 0
2482 1 13.661169658763148 20.566032968353536 4.976782558274818 1 1 0
1553 1 13.421971299411547 23.920839874849253 4.48214905977015 1 -2 -1
115 1 14.933334909547288 24.453470899868744 6.481610965850186 0 -1 0
2242 1 13.652694405475087 22.43496047229062 6.682517058560129 1 0 1
868 1 13.392151100708755 24.18555103958233 8.518308893418858 0 0 0
777 1 15.412986356212595 22.61072752926417 4.727854197877815 0 0 0
732 1 20.39087358459683 20.814477325003423 5.0147077759775724 -1 0 0
782 1 18.900279638721514 24.076821427317384 6.7141491862758915 0 0 0
780 1 16.926399582509287 22.530661528124465 6.420920208700579 0 0 0
784 1 18.664064830666405 22.617595668616588 5.043876986719974 0 0 0
2665 1 20.460323148473307 24.236951731239458 4.694023068568305 -1 1 2
760 1 20.636347130163934 24.608116273724455 8.361219676546545 -1 0 0
779 1 20.602123419192377 22.434872216657958 6.731425447111369 0 0 0
875 1 17.0340773162607 21.129245831518652 8.483495643309006 0 0 0
119 1 16.864110174031932 24.36696759692382 8.85596326876875 0 -1 0
852 1 20.431765110035947 20.60424838760913 8.553136164187787 0 0 0
1027 1 18.805541827960948 22.47097335498344 15.707405657608 0 0 0
1488 1 13.897508318199964 16.924244524023536 4.6382136806865155 0 -1 3
755 1 22.04006855928086 20.59220152990434 6.527313325421644 0 0 0
2691 1 23.753510317947814 20.72423401481675 5.07709917608477 -1 0 -2
1523 1 23.892638035793066 24.17715073363122 4.68585867290002 0 -3 -1
1872 1 22.12866686023526 22.704652438853014 4.725896735165109 -2 -1 -1
124 1 22.38445794212753 24.31792696897807 6.806696159712496 0 -1 0
856 1 23.908042312385398 22.445045717321573 6.434359581141843 -1 0 0
123 1 23.891068509330818 24.18092850276333 8.864218388193757 0 -1 0
855 1 22.162787702283712 22.62389180781553 8.475461450355299 -1 0 0
106 1 3.1073418001373843 1.497612825015242 10.504119953601837 0 0 0
129 1 1.4795273276735519 2.8001783860392884 10.180944838132186 0 0 0
229 1 2.985741261130438 3.3233238429142125 12.12737936621534 0 0 0
198 1 1.0703746287302613 1.7833761409211986 12.114905285381827 0 0 0
133 1 4.666824876851686 3.2490370828008786 10.492813918816385 0 0 0
202 1 4.560625114510603 1.5824001175143603 12.167354273011437 0 0 0
105 1 6.482792801962559 1.631676848850582 10.404576698828894 0 0 0
233 1 6.393097524550445 3.241003784924134 12.140617325650984 0 0 0
137 1 8.145616214481672 2.74553254011198 10.347758288154761 0 0 0
206 1 8.246043974978592 1.3247380455788949 12.372547923534132 0 0 0
112 1 11.709905271511333 1.5167716372970181 8.693727530583676 0 0 0
114 1 10.168343122670715 1.4524711195725262 10.555181393125523 0 0 0
237 1 9.969292760825363 3.2272684356600783 12.223795855852632 0 0 0
141 1 11.781367324624156 3.2141584394273437 10.229956718683663 0 0 0
210 1 11.4662956303908 1.2867471055728175 12.395741417963018 0 0 0
209 1 9.842015788575313 24.05739084391605 12.39068274381796 0 -1 0
143 1 13.419697040356187 3.128497931003835 8.371792651843784 0 0 0
118 1 13.200875509196774 1.583985259368836 10.467377114677566 0 0 0
145 1 14.9635605668685 2.9105396187507804 10.470536046086357 0 0 0
241 1 13.313283411569925 3.173717754758562 12.25659163793431 0 0 0
214 1 15.343377142035944 1.4625234022486089 12.38388345282135 0 0 0
125 1 18.55413996676676 1.6163401516255358 8.66459745939569 0 0 0
122 1 17.013329657235797 2.119920939827842 10.444113200373348 0 0 0
245 1 16.76523140660115 3.59773975385546 12.072802468760141 0 0 0
149 1 18.92983704966922 3.4258088987925484 10.485214823741812 0 0 0
218 1 18.92036592106188 1.5792287145395867 12.310184761187573 0 0 0
217 1 17.11239120942819 24.2727288523893 12.019854550507869 0 -1 0
151 1 20.512909283281864 1.580005452663613 10.278047426483132 0 0 0
249 1 20.55237872251787 3.410616455834044 11.906296791130822 0 0 0
225 1 24.181325605975506 3.088543950300696 8.50656228446521 -1 0 0
101 1 24.02105923179763 1.5651966514819065 10.528092145969392 -1 0 0
250 1 23.83379639165001 3.3411421338441154 11.866463488088069 0 0 0
222 1 21.918041081482716 1.784637435502512 12.388199266857296 0 0 0
130 1 22.374575837361387 3.4779902101100144 10.138582446164074 -1 0 0
3 1 1.303922367254272 4.877939477636451 8.344084805052479 0 0 0
226 1 1.1392140909536685 5.130484781319761 11.920557499627883 0 0 0
230 1 3.0161274230206523 4.892593489261178 10.369856154205198 0 0 0
157 1 1.5354794319328149 6.4721509978880025 9.978451407033749 0 0 0
257 1 3.161739739068673 6.912573448411441 11.869710823916705 0 0 0
136 1 6.484224719920213 4.578594025197811 10.138573127030348 0 0 0
138 1 4.987783490164574 5.095285679903403 11.973903164207574 0 0 0
161 1 4.648927390599988 6.637219658311416 9.947674003734159 0 0 0
261 1 6.69973161926482 6.6427161375829336 11.795492722442853 0 0 0
234 1 8.208367881713304 4.863638440414958 11.632693925083881 0 0 0
165 1 8.251875414832236 6.683920827745482 10.216385376726485 0 0 0
166 1 6.559025469146281 8.387727104625405 10.161042841363026 0 0 0
2719 1 9.685159001781352 6.58530188645682 8.489275270343478 -2 1 -1
142 1 9.819657473992528 4.907576185522947 10.004786728294473 0 0 0
265 1 9.833459769767671 6.402923834630311 12.142122852739657 0 0 0
169 1 11.52695224347204 6.509066463699839 10.176244663250614 0 0 0
238 1 11.782964054386259 4.811384807975495 12.334986078634508 0 0 0
170 1 9.847607830361234 8.464622057431018 10.443330655698803 0 0 0
266 1 11.545337952609964 7.871182302268381 11.948906251724349 0 0 0
146 1 13.426667094191242 4.868966550480747 10.123724830613448 0 0 0
173 1 15.077798638705461 6.531885817560154 10.209984500165223 0 0 0
242 1 14.943815952361806 4.906515130897189 12.09720257711777 0 0 0
269 1 13.599229699131097 6.681248430706508 12.181464471589896 0 0 0
270 1 15.223249391144858 8.574500344979516 12.267252220094782 0 0 0
174 1 13.630875783763075 8.614435204207297 10.410606447727972 0 0 0
150 1 16.998539355054376 5.011580312640694 10.44358391540877 0 0 0
273 1 16.71034476005392 6.770787591007046 11.971958890906022 0 0 0
246 1 18.44050495443636 5.202907897778778 12.223645808254124 0 0 0
177 1 18.198790451488097 7.015071032818608 9.884574203743 0 0 0
274 1 18.371128502757383 8.44967638385634 12.187850209363521 0 0 0
178 1 16.5874418533121 8.464391232476991 10.441806235787134 0 0 0
155 1 24.038095586702767 6.297647186780151 8.270355972255896 -1 0 0
98 1 22.706892660899122 7.991835613261009 7.992463097924272 0 0 0
152 1 20.605706065963215 5.324109891467753 10.055842379606386 0 0 0
277 1 20.07407563805663 6.946440449365533 11.977191304083412 0 0 0
100 1 23.90585377291722 4.995339495785964 10.220981991682805 -1 0 0
253 1 23.713877977660307 6.562728685140091 11.761021286272987 -1 0 0
154 1 21.97119667920969 5.1986673870736855 11.845227793710894 0 0 0
181 1 22.482986211307797 6.717901040030131 9.671027445294158 0 0 0
179 1 20.429358869248446 8.259324882468084 9.836303022188284 0 0 0
162 1 2.668870017612753 8.444869553433103 9.624921301383793 0 0 0
254 1 1.0706193327642104 8.312395201708826 11.882222966366193 0 0 0
184 1 1.0133516199800803 10.116712168688966 10.323337870093422 0 0 0
283 1 3.2249919291406974 10.104031631331422 12.34824287095671 0 0 0
788 1 3.0231288760467345 11.876982900399398 10.066673252755518 0 0 0
883 1 1.450910208464627 11.87561851752681 12.111234095844004 0 0 0
258 1 5.102837414121509 8.355890360111294 11.929948690104531 0 0 0
262 1 8.07167604766149 8.391074591718546 11.975560037576873 0 0 0
186 1 4.91655679204871 10.093851506429173 9.974144219895393 0 0 0
285 1 6.509457580569793 10.243144405065486 12.071122525328668 0 0 0
885 1 5.012771646190414 12.112121838509331 11.651621951802762 0 0 0
790 1 6.660648126739253 12.050042945093068 9.847376223339374 0 0 0
887 1 8.306032240913312 12.122242942866837 12.002049378830343 0 0 0
188 1 8.580560858800133 10.251928888928788 10.330168919944313 0 0 0
696 1 11.816340694945858 12.301746398186697 8.37424802785813 0 0 0
287 1 10.252400691782583 10.403995811093946 11.865374143795837 0 0 0
190 1 11.494760512143568 10.49080185403851 9.906293806336073 0 0 0
792 1 10.432129312005157 12.621989639521665 10.226527659905777 0 0 0
889 1 11.840450923890609 12.245651711624376 11.953188809307392 0 0 0
192 1 15.18336555297013 10.492307688494861 10.247739594163823 0 0 0
289 1 13.135267866952752 9.994756136196669 11.913191264165267 0 0 0
891 1 15.23667771756326 12.06076769197201 12.155992922522797 0 0 0
794 1 13.354375731707819 12.444140668794107 10.036358607216872 0 0 0
176 1 18.813691290627844 8.39681980909584 8.17822008568465 0 0 0
796 1 17.382862277388032 11.518525714025746 10.282246958337407 0 0 0
194 1 18.635799176903824 9.926216240216178 10.377140827647608 0 0 0
291 1 16.876376075245 10.32098167396601 12.210909930337632 0 0 0
893 1 18.995752951289205 11.727354307707028 12.022063577752057 0 0 0
798 1 20.289719860210344 11.805579547627955 9.71488303488194 0 0 0
158 1 23.559764266280954 8.54662649716295 10.119921991811905 -1 0 0
293 1 20.640058071217457 9.97632272323652 12.2097072197202 0 0 0
278 1 22.006453265537562 8.204530987404468 12.168747960671938 0 0 0
281 1 23.74153694744128 9.887369326378732 11.869356688534065 -1 0 0
196 1 21.841964248164928 10.124712246841653 9.877097761867631 0 0 0
895 1 22.31662957630372 11.847809922401058 12.04986754730296 0 0 0
786 1 23.722401325461423 12.097739505596989 10.277935062387677 -1 0 0
708 1 1.0555906200023548 15.419451913914957 8.416583460418643 0 0 0
801 1 1.2383945552757085 13.508817847885144 10.30511136237962 0 0 0
806 1 3.0432194304964617 15.17912832884189 10.288645477061351 0 0 0
901 1 2.9367590229649636 13.517079984047209 12.012642596987824 0 0 0
898 1 1.5378892644862787 15.251701849906997 11.886071421085724 0 0 0
805 1 4.855918650924241 13.570589391070484 9.727963376315412 0 0 0
810 1 6.6396983745645235 15.247271077744584 10.189390830623582 0 0 0
905 1 6.608932916180361 13.629735895363577 12.115931722534047 0 0 0
902 1 4.982620850561152 14.979722144194893 11.7670450493832 0 0 0
906 1 8.030814877949263 15.327411827384406 12.149992664157555 0 0 0
809 1 8.418534577689414 13.752596979706807 10.120255437135643 0 0 0
811 1 9.860386380545823 13.780982680047899 8.757601945084978 0 0 0
812 1 11.676053124008556 15.59578835339402 8.27223118432676 0 0 0
814 1 9.905611025285484 15.45552551660847 10.37086490738125 0 0 0
909 1 10.201158267336584 14.19055947401531 12.165419180558416 0 0 0
910 1 11.534563653746968 15.974478767776128 12.35107614085369 0 0 0
813 1 11.818086103631275 14.355876507239241 10.61523768415255 0 0 0
816 1 15.446432354898784 15.213455234306723 8.295943166779534 0 0 0
817 1 15.291783294657897 13.504468211243593 10.105966363647024 0 0 0
818 1 13.604057594056254 15.809716050801411 10.261945134733267 0 0 0
913 1 13.796494350281808 14.01323192640566 12.090342615029497 0 0 0
914 1 15.539183055963298 15.245774635483071 12.075895725871565 0 0 0
819 1 17.150541152215204 13.614676149786721 8.573517776986881 0 0 0
823 1 20.244014244326713 13.631916644615082 8.450290472857214 0 0 0
851 1 18.904346317202865 15.551720071066125 8.816574462188456 0 0 0
822 1 17.22791485086681 15.203737085130124 10.318897424428108 0 0 0
917 1 17.065247838769952 13.554529655950965 11.867850032855195 0 0 0
821 1 18.75213073857934 13.37041470639945 10.187573224636058 0 0 0
918 1 18.97402807027511 15.465604087614416 12.193646773871084 0 0 0
921 1 20.570389820490828 13.012411472065565 11.770622327491445 0 0 0
826 1 20.47044265288156 15.325459102750557 10.164934445598075 0 0 0
824 1 22.31484569914384 15.55958687505605 8.438362974756284 0 0 0
802 1 23.796149677815205 15.257446979602795 10.074142220464122 -1 0 0
897 1 23.990171105916897 13.721498541348279 11.92516910055372 -1 0 0
825 1 22.035863296305568 13.765061444629806 10.29156763187575 0 0 0
922 1 21.94786818147967 15.224894443439451 12.094584533241163 0 0 0
859 1 2.701410545519801 20.859808131648098 8.666384787950953 0 0 0
736 1 1.197636626396189 19.071618404439494 8.829254363642136 0 0 0
831 1 2.8790737211971136 17.335223250310914 8.874565370486405 0 0 0
929 1 3.0594814721117203 17.26203962157714 11.910138655523795 0 0 0
829 1 0.8561725438120024 16.78443091928576 10.324818510438256 0 0 0
834 1 2.8824505311469326 19.161420254382588 10.342514736307283 0 0 0
926 1 1.1132385907965021 19.193250147732268 11.734324800893507 0 0 0
857 1 1.163950373309714 20.890426281109256 10.476215991030209 0 0 0
835 1 6.280930342350687 17.283820613989334 8.454904004028082 0 0 0
930 1 4.481080402529681 18.783585949174455 12.15135293410512 0 0 0
833 1 4.975309900232733 16.896280421917048 10.32456909841657 0 0 0
933 1 6.641828158205858 17.361154649984492 12.084206855962428 0 0 0
838 1 6.134632083831839 19.01065324205439 10.236120882583434 0 0 0
837 1 8.251294902426611 17.09523727274074 10.226629354137279 0 0 0
934 1 8.081280966381904 18.921259144196668 11.960156882793946 0 0 0
937 1 9.840639413284224 17.42084877000392 12.019237537750671 0 0 0
842 1 10.069138783345535 18.793863099348073 10.24095637225431 0 0 0
841 1 11.88197654264333 17.309295229714163 10.176433698837009 0 0 0
938 1 12.050903023884691 19.050923034111797 12.196572254542101 0 0 0
865 1 8.635638723271727 20.505037687782345 10.116888545751493 0 0 0
965 1 10.076326903578462 20.4921428715618 12.440706024235613 0 0 0
843 1 13.404814003206285 17.195510836868827 8.218788619619609 0 0 0
871 1 15.497844313853971 18.91333866641756 8.33203330140285 0 0 0
845 1 15.536072661901054 17.20316735184497 10.587179433083332 0 0 0
941 1 14.14072895719761 17.11528362811563 12.24099541362941 0 0 0
846 1 13.990009934899922 19.070295039447046 10.134491106759196 0 0 0
942 1 15.698802241251572 18.840816559496336 12.215988680315363 0 0 0
850 1 16.9325937354412 18.982779714662996 10.489404857362793 0 0 0
945 1 17.286777270299524 17.034843683949596 12.248361049607416 0 0 0
849 1 18.575128391310084 17.217117440909718 10.192909076406567 0 0 0
946 1 18.793769397375158 19.21739646798882 12.274794155864251 0 0 0
949 1 20.498529791211183 17.183190284303368 11.900541974638879 0 0 0
854 1 20.58166087608697 19.00013333150367 10.174688997973185 0 0 0
973 1 17.10424463050755 20.86056305437713 12.342384641457878 0 0 0