LAMMPS data file via write_data, version 29 Oct 2020, timestep = 300000

2048 atoms
1 atom types

-0.6295022358799596 28.98150223588027 xlo xhi
-0.6295022358799596 28.98150223588027 ylo yhi
-0.6295022358799596 28.98150223588027 zlo zhi

Masses

1 58.933

Atoms # atomic

290 1 3.412603909228646 1.103034249655479 2.126471817457559 1 0 0
1228 1 1.0195104354372122 1.0561139099436956 2.859138677233404 0 0 1
1239 1 0.6968796845548344 3.1518418869082434 2.979418837932771 1 2 1
1145 1 1.3755623596518407 2.075624581660075 0.9968403904025862 0 0 0
1116 1 2.648273677938199 3.749083340502053 1.9592715048156957 0 0 0
1007 1 3.2450472968370034 2.6940572172776243 4.121973629324875 2 1 0
774 1 -0.014730135905739683 -0.2654315850713988 0.7810982344609212 0 0 0
1329 1 3.687073626319606 3.2352914809312536 0.0364955645097953 0 2 1
218 1 7.621962002167484 3.3186432085142052 2.996786689834631 0 1 -1
932 1 6.765428638231201 1.9699891063810324 0.5261323036568561 -2 1 2
1873 1 7.136826577750609 -0.22006333832196 0.04807824583205633 1 2 2
1598 1 6.43442578019279 0.1293474399744573 3.372622542275683 0 1 1
2004 1 5.434428474032771 2.486546772900669 2.003770821363946 0 2 1
480 1 5.113637951276701 -0.4187399367744829 1.246681236640612 0 -1 -1
1497 1 9.151199432249777 3.7549634284525872 1.1071631638370487 0 0 -2
715 1 9.299764283573658 1.275775318043705 -0.0848382334282134 1 -1 2
553 1 8.18716282177196 0.7359999122416241 1.987778876944387 1 0 3
155 1 10.322642615748618 1.8075823738187586 2.1198486227345104 -1 1 1
1370 1 11.516051198162836 1.0772690163979945 3.732016403187714 0 -1 2
1513 1 9.759345820698481 3.9880771549753797 3.1131148358386116 -2 -1 0
1452 1 11.086296384231515 2.766192961299692 0.13008952196238854 1 0 0
503 1 9.871505467268175 -0.5448769344682977 1.6047506764409856 -1 2 -1
196 1 11.394408046515483 0.1037375601847551 -0.2842479010269473 0 0 -1
930 1 12.712990270043807 1.6398225781786309 1.4303117812532435 -2 2 1
141 1 14.876759240270456 4.004117566596091 2.885906543156987 1 0 0
126 1 14.023093928317893 2.7468566606815017 -0.14975971448293857 0 2 1
1834 1 14.232443305371781 1.280845023007863 3.362326016984409 3 0 1
1402 1 16.214335007067177 2.008160746366665 1.4321394811129204 1 0 2
950 1 12.667459653027604 3.204825911980207 3.430883822574595 1 1 2
1459 1 14.329736085143988 -0.1938323336187116 0.5645615659366505 -2 1 0
564 1 17.20936371447973 3.9307845607009835 2.484916554583005 0 0 2
212 1 16.896874836161842 1.1311823468654463 3.6338092468680454 0 0 0
1079 1 18.714222008455422 3.0795040445562716 3.7076928893626935 -1 2 0
1471 1 20.265343108533536 3.2497307120060586 1.0681858707566088 -2 1 1
977 1 19.725395334168354 1.0416492669300788 1.7884182650701317 -2 0 3
1901 1 17.7496280368483 -0.13257121724507398 0.3720883725365609 1 2 2
1225 1 17.433361206896336 3.5247458028496306 0.05798190371609413 0 -1 -2
61 1 18.75653586135884 -0.27161050870993364 3.432979011344689 -1 2 -1
961 1 21.300199998711044 -0.23490425771813106 3.7654101739389754 1 0 3
1546 1 24.39096029735972 3.3383885800609345 -0.0038249326871441225 0 -2 1
1724 1 22.01575164994226 1.8193746002653772 -0.5983530886205987 0 -1 3
1862 1 21.936017378266143 0.6201553727407969 1.54474423213601 -1 0 1
655 1 22.500907506519788 3.180872132164517 1.6962638830885215 1 -1 0
162 1 24.510714332725435 2.5623406702034157 2.3455324987928354 -1 0 -1
992 1 23.062033721954663 1.2891629714262869 3.9725532597706987 0 0 0
846 1 24.35771898249508 0.2587343961119558 -0.04668723032091593 -1 -1 0
523 1 22.4421444573711 4.281733893065405 -0.2391871968697084 -1 0 -1
779 1 21.36109813304884 2.7611760672656547 3.63287529521444 0 2 1
190 1 26.879685143419508 -0.1780948637167175 0.14132806097985318 -1 -1 0
1119 1 28.771366889714606 1.6115018515481334 -0.3528352326534999 -1 1 4
264 1 26.126393750979354 0.19396219649384117 2.2009295194936023 -2 -1 -1
903 1 26.970877664847727 3.272172181265107 3.4349281928520705 -1 -1 2
757 1 28.894954478102854 3.835748379854378 1.0864214117282767 1 0 2
909 1 26.09045849619382 1.9094382301572068 -0.02666152592598814 1 0 0
919 1 27.73306421118187 -0.17823064652158066 3.891230176525797 -1 1 2
1095 1 26.32994673920976 3.7443443041752182 1.208029808627301 -2 -1 0
808 1 28.326921654520227 1.691425665312675 1.9435673076330304 1 0 2
617 1 25.23745125172608 1.5540954187865363 4.076885396155729 0 1 1
1097 1 3.0324283726754278 7.815945448515933 1.181267578598494 -1 -1 2
963 1 1.6659255569771814 5.382331219495522 0.33764755079000874 0 -1 1
1575 1 0.8178655454036288 5.450468878378568 2.4839020174366704 1 2 0
1684 1 0.5388390050786043 7.262245109007477 1.186059796322542 0 0 1
1562 1 0.8228339469667354 8.693640000188891 3.158724498267212 2 -2 1
781 1 2.9382570676325535 5.952109077142808 2.879715531605532 3 0 0
552 1 6.392346183474105 4.406579567506689 0.9550660251923362 -3 0 -1
350 1 3.747195582369094 8.226416024348543 4.035422603105996 -2 0 0
1547 1 7.191533186198192 5.931062098714518 4.0308367987383384 -2 1 0
1255 1 4.26578429621812 5.70518641989616 0.5800017550855516 -2 1 1
450 1 5.588548115264132 6.5333048378350895 2.370730160698232 -1 0 1
807 1 5.700366971504693 9.146000258290858 1.5694134565189883 2 1 1
1003 1 5.735422229847155 7.168179206980291 -0.06435731832229763 -2 2 1
2014 1 4.514398296546802 4.382646291344531 2.779680527045246 -1 -1 2
62 1 7.4303191577340275 8.243455093934514 3.1034703068821377 0 -1 -1
1362 1 11.64193866143738 5.5284255240671305 2.3786557508677406 1 0 0
1273 1 9.96954270228365 7.564483421677805 1.1287757644777192 2 -1 0
610 1 7.84942113431984 7.925330666263735 1.0509707415319958 0 1 0
1634 1 8.341195489190723 5.644016527079263 2.058086135569397 2 1 0
858 1 9.951584264666016 6.866644356673178 3.4117964519633013 1 0 3
513 1 11.929582667650028 7.620140833713428 -0.30013232917487553 -1 -2 1
764 1 8.915490799101004 5.830810534474876 -0.46378065889282283 1 1 2
1568 1 14.810651656288323 8.098887821704183 0.9946086733253263 -2 0 1
722 1 13.269720147568982 4.444353010243113 1.0196385353797912 0 0 -1
1405 1 13.885980997744605 6.264900314867535 2.085260825839687 0 1 -1
1408 1 16.17336958474693 6.569236487311601 2.8030327260702594 1 -1 -1
1200 1 15.908457754808365 5.173454665186032 0.8463995685837105 0 3 2
643 1 12.27996361739139 7.860818698759431 2.1069990266839986 2 -1 3
694 1 13.538240634502259 5.4528376598203225 4.169800529677296 -1 -1 0
1219 1 14.196275299358945 6.231407383478102 -0.4115974184688502 0 -2 1
177 1 17.980971471028447 6.827352892232809 2.0776695646178984 1 1 0
928 1 16.764327746571972 8.920088837506947 2.9423594991013937 0 -1 -1
1032 1 18.13389717078615 5.6029832633604455 4.29046347445022 -2 1 0
989 1 19.07737106012339 5.259774887837583 0.3629562293830014 1 1 -1
283 1 19.9884672150965 7.5588769373460885 1.3298658039001758 1 -1 1
588 1 18.098100098783483 7.751401069472717 4.05652030678419 3 0 0
516 1 20.000560669909305 5.273211879305344 2.5836055060194543 0 -2 0
1740 1 20.185566578685837 8.813719641805166 3.5889805880673737 0 0 2
740 1 18.339215736739384 7.40879472739312 -0.5883343790581677 -2 1 3
115 1 22.23922172894629 5.063126772197945 3.4106923195228322 2 2 0
848 1 23.76572798622511 5.61431857942848 1.705837199821731 0 0 0
250 1 21.54360050713158 6.038546882149938 0.8794802819223817 2 -1 1
1510 1 22.824997453522542 8.106807537898577 0.9339851263183512 -2 0 0
1139 1 22.572994341865545 7.322600666941105 3.248964289142433 -2 -1 0
707 1 24.2906572130334 7.905501626032567 2.3656480747015713 -1 1 0
2008 1 28.346676902870747 8.107770499253435 2.931786172758132 1 1 3
1970 1 26.2984044901199 6.410184848410225 1.5090928586299994 2 2 1
448 1 25.010397192309334 4.715274634459945 3.583866526025858 -1 -1 -1
1456 1 28.08680990537264 5.553159088654703 2.9328531863154432 -1 -2 -1
1868 1 25.994349317315937 6.8483352583010255 3.9679335486959175 -1 1 0
98 1 25.487588390721072 7.7923946715104915 0.0012067716176943355 0 0 0
1798 1 27.86173807150415 8.165523865178884 0.47723870988754236 0 0 2
1880 1 2.9437684938472493 11.194389961674917 0.5975993628255027 2 0 2
1435 1 1.3920140256117408 9.457919417964069 0.8422981615646274 1 2 -1
739 1 -0.06223791856499594 10.594338073526306 3.803048427982482 0 0 0
46 1 1.1839804485505045 11.19329503816197 2.2390237245522258 1 -1 0
766 1 0.4427082474513264 13.190381098203089 1.8943952666282664 2 -1 -1
1423 1 2.9913891882348027 11.60418749109043 3.4658478606770258 0 2 2
1582 1 1.2679205821930344 12.69567227214894 -0.24459668235301169 2 1 1
1172 1 2.8704556917846897 13.748429297695411 2.6433323147743 -1 0 0
310 1 7.305073452327553 12.558562236705752 0.36809962520257833 0 -1 2
585 1 5.28003920495099 11.78629964704443 1.9199656626761739 2 1 1
702 1 3.8845621368230105 9.787916677095266 2.0948369290576863 1 -1 0
613 1 5.2768267424030455 11.611454406409395 -0.3860152212792989 0 -1 1
1886 1 3.8678076887254296 13.23576488056484 0.33096096404457565 0 2 1
736 1 7.378071995195501 11.272472664460143 2.3099210676948845 1 -1 -2
1762 1 6.348733404836233 9.889897120999967 3.9705611022011613 -1 2 0
705 1 6.479762351873892 13.141945826035943 3.9449770826869353 1 0 1
1477 1 4.455299705451117 9.452658367053877 -0.28114676980782544 -1 1 -1
1141 1 7.904293349163062 10.032214099344221 0.25199958549530843 0 1 -2
1507 1 10.141733031259085 9.304837504049809 -0.4197574543645342 -1 1 -1
1969 1 9.037254191494553 9.504319533775979 2.301850039038518 0 1 2
1765 1 11.989778729306808 9.81221447493855 0.7825269285180514 0 3 -1
1078 1 11.133368792615036 9.530261365457685 4.114965561394141 1 0 -1
995 1 9.782047437159058 11.5978988694406 1.032771475013143 2 0 2
525 1 9.863114521647557 13.344183990623934 -0.3300827052392522 0 0 0
1517 1 8.340672206593057 13.321919914768577 2.378593196307093 -1 1 1
776 1 10.290663740036546 11.938012150836917 3.335056566307763 1 -1 1
714 1 10.358968225466224 14.091939791781279 1.9730146015862338 -1 -1 -2
1291 1 12.486517727293995 13.320660261770183 3.4584129766626353 0 -2 -1
1881 1 13.671932293402412 9.838346311346566 -0.46251078017605163 1 0 1
1332 1 14.695582095893169 13.421500440020274 2.0761174799400233 0 -2 0
881 1 12.60279973592743 13.210509971628356 1.0389160237074204 -2 -1 0
107 1 12.193217229476643 11.222861646757483 2.264132330824372 2 1 1
518 1 13.790542696284652 9.56117477171995 3.1039012631156475 0 -1 1
379 1 14.203436083328901 12.146425774352752 -0.5221645006772704 1 -1 3
1482 1 14.714653925856839 10.893178241477267 1.4006754251609261 0 0 0
877 1 14.062954086673718 11.704501120501329 3.6930147270866085 -2 0 1
602 1 20.132004463268864 14.1739631650566 2.644241184861519 0 0 1
1822 1 18.072760514014448 10.335077007178258 2.265292381400067 0 2 1
1973 1 16.505808095069398 9.64796780095786 0.6737547171509208 2 -1 2
936 1 19.199497892290836 12.120329179396867 3.5809433193611175 -2 1 0
501 1 19.31296233223697 9.442357002255683 0.09642891672264375 -2 -1 0
755 1 19.333128286168325 11.682502793695564 1.2353712620228952 -2 0 1
6 1 16.47386531042025 11.796374195177577 2.717974782494716 -1 -2 0
1793 1 17.640921105385225 13.928555136167274 2.2904462121094804 -2 -1 1
1444 1 16.34448727125838 12.753342318783291 0.30956748363161535 -2 1 0
1925 1 18.84873012460644 13.598719385817969 -0.1721916352906338 -1 1 3
187 1 21.206347556176155 10.16651570027467 1.5231698726604765 -1 0 1
97 1 23.053003896639773 11.99282710680232 0.054835606017591854 -3 -2 1
993 1 21.793932060887663 12.094461188408223 2.5010559913135704 -1 0 1
203 1 24.29856076884743 10.01799805482788 0.9391242086070832 1 -2 -2
1345 1 22.592117784724977 9.820417047202039 3.7162796181226367 -1 1 1
258 1 23.05975040888783 12.858346318091023 4.283412575656008 1 -1 0
599 1 24.070295830626712 11.381985812611328 2.883391457696664 1 -2 0
341 1 23.927803160806462 13.477878685764857 1.3639015845861937 -1 -2 0
272 1 21.00749935356786 11.218432469513179 -0.5994546229375359 -1 0 -1
1005 1 28.352636335204494 10.303590446857775 1.682392419215478 -2 -1 1
642 1 26.10711763608031 13.489843683553257 3.6032893529417827 -1 -1 2
1657 1 26.34787380594885 13.015089352894881 1.3828807457238392 0 0 -1
540 1 28.029639556570977 12.146965764870718 2.6558811569846483 1 0 0
1246 1 26.12044600370691 9.764411151557455 2.624650140286307 1 -1 0
565 1 28.300272468179244 12.40867146115492 0.49229799645073147 1 -1 1
1295 1 26.66764489889011 10.16086386451975 -0.07982592171610359 -1 -1 0
421 1 0.1655048047973604 1.768950567156645 4.8389680599488125 1 0 -1
215 1 -0.47063916104412584 3.995877975177325 4.635453936326639 -1 0 0
8 1 1.0304732408719155 3.896419271332963 6.532639891542708 1 0 -1
1182 1 1.7551884669319056 1.826585985601945 6.299279548522028 0 0 1
741 1 1.7286867941873751 3.1635536723962483 9.004822317787253 -1 -2 2
1346 1 -0.03495713082950058 0.46569426113117496 6.9465690342955835 0 1 1
730 1 -0.329419021068605 2.725308471042904 8.092497279904922 1 1 0
558 1 1.9541651156954023 -0.30639708652018044 5.11729616614792 -2 0 -1
1476 1 4.366506573984216 0.33851449197382677 4.6274706431044885 -1 3 1
968 1 6.104771389196113 1.9467962669410404 5.473190086417614 -1 -1 -1
237 1 5.863246916756999 4.091676289896578 4.8991289463297125 -1 1 3
1250 1 7.768571288294666 3.574333849423991 5.837196949064139 0 2 0
158 1 3.7979126280186986 2.96658408663576 6.219296788130655 1 2 2
2028 1 5.479672265536653 3.4643535875925533 7.937192043515697 2 0 1
1537 1 3.6082305076532766 1.9193406266535926 8.049996805589531 1 1 0
279 1 5.379463434449036 0.4322293748943271 7.380777974451398 -1 0 -1
721 1 7.840395933309969 1.82255069151873 7.756654487683415 0 -1 -2
830 1 9.98385853357983 2.6068911844961726 5.118865371250188 0 1 2
1117 1 8.037623717773483 1.1866702669291105 4.49372944512322 2 0 -1
1763 1 10.23954626761162 2.1064019487619614 7.429137811817032 -1 0 0
1071 1 8.064138414061182 3.9012319126670123 8.860686747025785 1 1 -2
207 1 11.978538338375706 1.0808160370621311 8.673694971855232 0 0 -1
809 1 8.9288569732915 -0.4314871862571721 7.140847573840293 0 -1 1
1433 1 10.03395851284182 0.5002832558373425 5.183473149646845 1 0 1
622 1 11.420450760979444 -0.5814155649853916 6.856223534609642 0 0 1
644 1 15.824565709533102 3.3833694296719266 5.106977447986504 -3 0 0
703 1 12.127663866346634 1.415863447106683 5.884244950770306 1 1 3
626 1 13.60795101725689 3.0547646984426753 5.150183391004038 -2 2 0
587 1 14.71192201330197 1.8497418136093806 8.333223720259111 0 -1 -1
106 1 12.47700990119937 3.7918109897411973 6.965539150789734 1 0 -2
1067 1 15.46419632254558 -0.18209842277794985 9.137793720512853 1 -2 -1
475 1 14.55886536973623 1.175324032103026 6.01164002106237 1 1 1
113 1 15.533541186310034 4.003326197809288 8.896732779514538 0 0 0
1494 1 15.75542123265416 -0.6027238811584112 6.901225419638086 0 -1 -1
1662 1 20.430934754183248 4.189166212968235 5.498760922483916 0 -2 0
125 1 17.433479867968046 1.3709295153753884 5.861979558897397 3 1 -1
119 1 18.082653281562408 3.866481224109056 5.448479452555548 -1 0 1
1751 1 17.308619156568042 0.6773015019353359 8.232195743617057 0 1 0
66 1 16.644013309236023 2.7537025806001707 7.825837774862141 -3 0 0
1499 1 19.58749993623364 1.0402413448690526 5.088643278054413 0 2 1
712 1 19.3678657470739 2.299387627600248 7.012083269746574 0 1 0
1980 1 19.960994816280802 4.259024056474472 8.150730372214996 1 -1 1
1747 1 18.191242298998283 2.860395474493523 9.13087862021596 -1 1 -1
965 1 18.755756755706045 -0.35197740863047733 6.766136701158906 1 -1 2
414 1 23.32523911183967 3.535096235821296 4.700328781566012 0 0 2
1486 1 22.85333692183856 2.99873314112496 6.907551421715015 -1 3 -1
108 1 23.389662757466077 0.9902786871909561 8.700249739894902 -4 1 0
199 1 24.383746722773388 0.45099066303285396 6.307254375775047 1 0 0
1076 1 21.596261003529513 1.3844027200660989 5.962573494210515 1 -1 -1
1885 1 24.33843695239259 3.032628580444717 9.083808103328572 0 -2 2
1443 1 21.014700024670503 0.45552734353938495 7.869467621555204 -2 0 1
492 1 21.27409426198013 2.578649829296314 8.963483766493498 -1 1 0
1648 1 27.120832797652227 -0.5795728785027806 6.2937847775280895 0 2 -1
1128 1 25.075445789703807 2.8416645446657522 6.371063221332216 -1 0 -1
317 1 26.26712991313584 0.9585966508532258 7.675936161943518 2 -1 -4
905 1 27.281986352912625 2.2154573909373227 5.470974813516359 0 1 3
575 1 27.172601507665853 3.487074416953331 7.682551782137169 2 -1 1
1220 1 28.31066888278039 -0.30624905894129323 8.795916244429273 -1 1 -3
1398 1 2.92775199786155 4.794268735410662 5.384120490729153 2 -1 2
1945 1 3.431311866696235 5.175392325966069 7.625305873754568 3 1 0
222 1 0.45104117314696035 6.394599146287306 5.508568670060441 1 -1 1
263 1 1.8530868113661474 6.706949462752663 8.146578019983943 1 -1 0
1845 1 2.9298483923010217 7.608767982595246 5.86617796753242 1 0 0
1282 1 -0.4358061458580522 4.804694767458357 9.194022892915468 -1 -1 1
1993 1 0.0727842279924239 8.74709172087787 5.855019061386519 0 1 1
669 1 -0.4108876868400415 7.329139033646817 7.732160676864252 1 0 1
1354 1 4.5062088004353615 6.023750047493311 4.530156312142599 -1 1 0
1678 1 5.608967861427141 6.198969985590172 6.416906887473788 -1 0 0
1930 1 6.222598233457533 7.101868929287921 9.238808638108258 -1 1 2
981 1 6.883642475561654 7.7319576037378805 5.315922020776183 1 0 1
366 1 7.49077958808795 5.26657262973188 7.116756049032797 0 0 0
2003 1 11.312221274279217 4.804554347437971 5.230146959556938 1 0 0
1759 1 9.219982972679036 5.699648444658657 5.537647600092164 0 0 -2
738 1 9.74217833183275 4.371448551779738 7.298357270970076 0 0 -1
1923 1 10.905500770954689 7.656369179409644 7.0353186034565605 -2 0 1
1190 1 8.45282408312461 7.260210642069932 6.961786478773378 0 2 0
737 1 9.274853604118388 8.192007183112224 4.891274233521442 -1 0 3
1564 1 9.638941493139848 6.975363175361736 9.19865822928775 1 0 2
1008 1 11.419380354857548 5.495493733322356 8.39915830739789 0 1 2
827 1 14.884415390840923 8.205060061640008 4.516027952659902 1 0 1
1434 1 15.856730950773118 6.13473378959798 5.370823496373673 0 -2 -1
804 1 12.175890644543044 8.56481412607429 8.341020617907562 -1 0 -1
946 1 12.12816122130948 7.295780153100874 4.861538433759497 -2 2 0
76 1 14.280639226287573 8.172172893914603 7.318120837587898 -2 1 0
308 1 14.97251427326654 4.632354793255528 6.747417387531263 0 0 -1
1242 1 13.98944183490498 6.057534263556622 9.16632785374347 -2 3 -1
502 1 12.97195974089759 6.253678208858142 6.899865290057766 0 0 0
843 1 15.815439832258265 6.375353468276843 7.74539871007434 -1 0 2
1689 1 17.53771677537143 4.87701369834612 7.960841227966872 -1 0 1
763 1 16.692259173249653 8.21578264359254 6.2367171098601 1 0 2
253 1 18.256796333890904 6.349797615412074 6.554992276145007 1 0 0
731 1 18.60468708469488 7.7753391495423525 8.162582706160219 0 -2 -1
1778 1 20.35634225953673 6.50131245094574 4.59933700049544 0 2 -1
1324 1 19.2181244982664 8.457349015508926 5.82556639621542 0 0 0
1699 1 16.470589488132674 8.732276816726639 8.376279196495984 -1 -1 -1
2023 1 22.53590958759525 5.2683423946854315 6.048281479531165 0 1 2
25 1 24.144246852713025 6.490157671023718 5.0577467981196245 3 -1 -1
1642 1 20.55878532429503 6.531806241262725 7.1118093222108625 -2 0 1
1253 1 21.221605465823203 8.744978628429571 7.268992930768972 -1 0 2
1895 1 22.595029002675993 4.429460182540321 8.78190649995709 -1 0 1
942 1 24.470244622372483 4.994387125277998 7.274805889837856 -1 -1 1
1187 1 24.69272403399667 9.071036557069556 4.337141887435172 1 0 -3
945 1 22.40208003591969 8.40834720161963 5.268235049531906 -1 -1 0
693 1 22.934737440763804 7.153325184005867 7.018157367315402 1 0 0
729 1 24.511494246132088 6.996376941844954 8.808219880959257 0 1 1
914 1 22.869024497642386 8.825937869221374 8.725321404636604 2 0 0
300 1 28.609644610409575 4.994237020009731 6.81865662191266 1 0 0
818 1 26.275811404160443 5.110847563162293 5.697448106569395 0 -1 1
1796 1 25.885636898264558 7.409848813624585 6.615446242874478 -2 0 0
59 1 26.713499556549436 5.82896673900301 8.261916616746042 0 -1 0
1349 1 28.160746895988012 6.829861358284415 5.126636949514966 -1 -1 1
1644 1 26.374900145337648 9.136106697027637 8.510447463461427 2 1 -1
1066 1 27.20576689217001 8.93296409378981 4.924221663358792 1 1 -1
468 1 2.34656542576876 11.735453554284 6.026184179693738 0 0 0
1240 1 1.9513676449913566 9.864991924275584 4.501623070645891 2 -1 0
205 1 1.3814981657812138 9.566827966124787 7.715270054075837 1 -2 2
656 1 -0.12931071796650428 11.250963507425665 6.021834008864276 -1 1 0
1325 1 1.7076599575276874 12.650147516513105 8.142236363479801 0 2 2
628 1 0.7379602483803953 13.151752885338114 6.262560166068998 2 0 0
607 1 3.1089886186649784 10.332118435290639 8.863155328143925 3 1 0
26 1 1.5317082485844322 13.635570121447298 4.4727455339165 0 -3 0
971 1 2.985602724916831 14.138446678078944 6.790447021840661 2 0 -1
1573 1 4.002967811345649 13.857140706784167 8.880054061949012 1 -1 -2
1073 1 4.11514153431542 13.26344530675149 4.9062519858218305 0 0 0
775 1 4.755657299044881 11.175657820325766 5.000279859795109 2 -2 0
2 1 5.972211768308573 10.203156542065669 7.6254330299247695 0 1 1
541 1 4.376978137641778 11.942009286601383 7.4071444737165475 0 0 -1
1893 1 3.884439123620095 9.59598248130347 6.5839977501367395 0 1 0
1584 1 6.1979544664549735 12.650383979275382 8.691756621035132 0 0 0
948 1 7.1645402828531495 11.740329022379122 6.52024269025283 -1 3 0
1978 1 5.895881893842049 13.888611923310267 6.560744263885908 1 -1 -1
166 1 11.521900046983097 12.838636085620367 5.483202819252663 1 2 3
1813 1 10.10287380629308 10.873032144022202 5.486850421457913 -1 1 2
689 1 9.54641754879446 9.322273363629215 7.731259822896769 1 0 0
957 1 10.21047033935432 13.165321694782907 7.254924662084207 1 -1 0
1162 1 7.944210959117955 9.706466354398197 6.495553366073251 1 0 -1
1185 1 8.076969023228498 11.388943534018841 4.639017830572488 -1 1 0
497 1 11.818441371331977 11.21967892455369 7.525240353577898 0 -2 -1
1548 1 9.301218602428767 13.645987115317089 4.779220411331352 -1 0 1
94 1 8.386471002413764 11.228596784966772 8.791749554488772 1 1 -1
467 1 7.8884586761188356 14.111571477198865 6.867013120321522 1 -1 -2
1989 1 15.397415820524698 10.170731340683265 4.975320543668617 -1 1 2
1406 1 12.956831519965528 10.457095885174784 5.306489221505272 0 2 0
369 1 14.584056965916526 12.263151559866342 6.628306491345171 0 2 2
911 1 14.312697348356602 10.188630973895357 7.654124888143912 -2 -1 0
982 1 14.487744797476665 13.817566001678353 8.794537848167112 0 0 4
266 1 19.654405071915214 12.391524195796249 7.7916374441704885 1 -2 -2
1023 1 18.892585346193734 12.599437593647286 5.795798210369665 2 0 0
1163 1 17.970416911596608 10.268809635997892 4.483697351099208 1 0 -1
252 1 16.4315096831885 12.429278622615893 5.110967281951913 0 -1 1
1133 1 16.490647743389488 10.584416354941787 7.310703802151362 -1 -2 1
1817 1 18.566941096962367 10.394796559163888 6.717342012341615 -1 -1 0
1331 1 19.505279542647088 9.7411555084105 8.893231559924564 0 -1 -2
788 1 16.483853569325802 12.784886781972926 8.367205849210368 1 -1 1
1483 1 21.238345121762165 14.021924122253422 9.104311628337996 1 0 1
1390 1 23.83987332935026 13.544130359652764 8.355281769022609 -2 -1 1
1624 1 24.428369598056726 9.3438802959429 6.86964245000249 0 0 -2
1555 1 22.603536461234768 10.614116271618812 6.308473283388595 -2 0 1
1620 1 20.74232489347368 11.031247530957964 5.454895991642089 0 1 1
1744 1 24.1773718647242 11.195267135906938 8.036144275153244 -1 0 -2
95 1 22.181815161971414 12.927991526996994 6.963882625665657 -1 3 -1
802 1 21.56331898042113 10.846238598102861 8.560438817152598 0 -1 1
1191 1 20.79690116743027 13.883746312889391 4.878806310705446 -1 1 -2
383 1 28.538621430616267 13.570111506612294 4.448770559945389 -2 1 -1
590 1 24.80260317466766 11.362154457311357 5.190850624054156 1 0 -1
924 1 27.508663925677197 11.647597450706625 4.823675969892095 -1 -1 -1
1630 1 28.817342303889333 9.926597932059911 8.081788113397568 1 3 1
673 1 26.40729699913561 10.445714655979721 6.566630157590171 -2 1 1
137 1 28.14210197957309 12.794672293590056 6.743629665512323 -2 0 -1
1049 1 26.12307174755543 13.677592994921492 7.9758463399177835 1 2 -2
536 1 27.47550501832353 11.897436028260703 8.593634181170403 2 3 -1
1280 1 25.057710358083824 13.768230659626795 5.719749429927061 0 0 0
399 1 2.0083392636462087 -0.21588717188743206 12.71605250759845 0 1 0
872 1 0.6394671545102917 1.2582219183959067 9.350573568202194 -2 -2 2
276 1 2.0434295383629313 4.015870130780544 13.574255735911143 1 2 0
1465 1 -0.007899849420132665 0.2672375217649041 11.26597129559766 3 0 0
645 1 2.4302563897385245 1.9804855943939712 11.249489580636752 0 0 0
122 1 2.1307206847798 -0.35981799343653204 9.31921361267588 1 2 -4
1849 1 0.8865723908807526 2.070522080045717 13.001722523547201 0 -1 1
148 1 0.1967957378795766 3.134486649323474 10.692163589800389 0 2 -2
1561 1 4.150425974921969 4.297311497881053 9.791103140269467 2 1 1
1735 1 6.0148757739977725 3.4131651128014058 12.75757383233313 0 2 1
1867 1 3.6656767180054945 1.3363192079300292 13.270322030441383 2 -2 -3
1340 1 4.111053109146524 0.45471964704254786 10.921198554694833 1 0 -2
1115 1 3.60209236569046 3.4674165975728126 12.35861829878317 -2 0 -1
683 1 6.270778371316945 1.7265986598500946 9.66956676937445 0 0 -1
1188 1 4.8832502950452 -0.551547190421303 13.212790169730052 -1 2 -1
510 1 6.72666125940137 -0.5465142948300409 9.330159914559022 -1 0 1
1336 1 6.110224453903159 1.2764618738081341 12.206619432148365 1 -2 0
254 1 7.792637616979755 2.7093848297228056 11.057960836095917 2 0 0
624 1 9.495801333056152 1.727580567398014 9.775156062513293 0 1 -2
1752 1 8.072166400029824 0.09238558131605812 11.37497261423598 -3 0 0
1668 1 8.202290112951589 1.915525303074031 14.010043449938573 1 1 1
1638 1 9.85485536712067 2.568971123023831 12.246288407221131 1 1 -2
1872 1 10.46758712336344 0.22809101532864495 11.495652985145979 1 0 1
1316 1 9.870314262046561 4.186887712445268 10.194752402816505 -1 0 1
678 1 9.193271761542324 -0.15057254963979994 13.397253934501316 -1 -2 3
1929 1 11.230859736840513 4.127243108766128 12.443282085729303 0 -2 2
130 1 12.682303481127386 2.4832262108622425 13.86313000792097 -2 1 -1
623 1 12.805423707873151 2.959559883982542 9.39972189190305 1 1 0
440 1 14.208215462693154 4.1428932173142945 12.49022936193851 2 1 1
761 1 14.151310552920568 1.4942612252490766 12.43115933717371 -1 0 1
173 1 12.74871246817188 -0.2171328198656594 13.141240927181725 -1 -1 -2
299 1 13.40411097684504 0.06704518876228627 10.494450651886908 0 -1 0
1294 1 14.77580953539816 2.90225086454121 10.839332223434244 -2 -3 0
1319 1 12.09962901732693 1.8760534638711577 11.37889124615712 -1 4 -2
1520 1 16.474566089354276 3.1532104065718793 12.890990317511035 0 1 1
1529 1 16.395264690091736 1.6066225683239086 10.288318613642623 0 1 1
654 1 19.535181607438012 0.6176496304948591 9.615604736826004 0 -1 1
1011 1 16.801374998577025 0.7017914829323022 12.802369085460684 1 -1 0
1907 1 20.44598696260514 0.5744378178689671 13.04250685742593 0 1 0
1541 1 18.433216911044155 1.9845400375317666 12.083552713679149 0 1 0
1680 1 19.301019953720534 3.832985686157688 12.889902541827032 1 0 -1
93 1 19.92540521105561 4.166887171630187 10.703449631067413 1 2 -1
1082 1 18.230663108406304 -0.3127908483580981 13.90045396380053 0 0 0
1685 1 23.965446055144916 -0.5102415260377171 10.955189486329191 0 1 0
533 1 22.84210357527492 0.9983877348403309 13.071815262502676 0 1 -2
1372 1 21.678037786280683 0.2036751073345655 10.274494123848603 1 1 -1
1473 1 20.563202332531667 2.05727906985174 11.244276673623553 1 0 1
1318 1 23.39640554708211 1.833799101335026 11.03672582189582 -1 1 -1
456 1 21.846917119868024 3.4590389081209594 12.263153960779242 0 -1 1
1597 1 23.358471664572996 3.0903364342495583 13.769508951356563 1 0 1
346 1 25.878093661320136 0.595301138690004 10.357970506394768 1 -1 1
1038 1 27.45085756869964 3.601308678710458 11.037408960876116 0 -1 0
1108 1 28.357812159130773 1.8327227788753477 12.41485437622333 1 2 -1
708 1 25.358779286175796 2.8997840862727577 12.027314732867962 -1 2 0
1348 1 27.80141192981752 1.7870256696083366 9.963937167748327 0 1 0
1371 1 24.863650691477304 -0.19515500902774818 13.237009362901478 0 0 1
1769 1 27.247244964854723 0.15630805111996027 12.342464163492242 -1 2 -1
1010 1 25.661913579221277 1.6597311891087219 13.783073435532776 0 0 1
1245 1 27.20594616904203 3.8795597838505325 13.359981487400464 -1 1 0
105 1 -0.20710066197943028 8.9017641396451 10.057466600545348 -1 -1 -1
1025 1 1.9399953116109963 5.007764938382798 10.571897570140962 1 -1 0
1266 1 1.3067810684944006 6.043730911438412 12.99900566422956 -2 0 0
1877 1 0.3436351907858548 6.531604221711643 10.058371788680693 2 1 1
16 1 2.087298250753667 8.28596602288585 9.89362393699783 0 -1 0
1412 1 1.7283225495789765 8.594397249334218 12.313591826681241 1 1 0
117 1 -0.34376888279113516 5.077942309301459 11.591167264890196 -1 0 1
427 1 -0.6257720849362443 8.158989253019888 11.982098273884365 1 -2 -1
1485 1 6.7281385634704485 6.549766515685722 12.946312234037645 0 3 -2
1984 1 3.6480184077680047 6.7608770824027244 13.152353066714255 -1 -1 -2
1160 1 6.767946655517821 4.975497410157032 10.281810253257902 -1 0 -2
615 1 4.669472866574719 8.798126059494573 9.540065718766193 2 1 2
288 1 5.175386845326867 5.350964177482987 11.965497874533822 1 0 0
1469 1 4.017277221105463 9.009974299902906 12.190820555390403 -1 1 -1
1928 1 3.691844880860999 6.806539399867887 10.861532485666888 0 -1 0
1999 1 5.912612295388887 8.08829944717317 11.434280313922184 1 -1 1
1223 1 6.58588658939806 9.17497296209306 13.331304398672716 0 1 1
1958 1 7.582901160403043 8.918436610373977 9.388094938994424 -2 0 -1
1683 1 4.513450156439876 4.826004200380579 14.12077853796615 -2 1 1
48 1 9.9779694091077 5.745614036266733 13.65898551002798 0 0 0
1773 1 8.116701691132562 6.983187347301953 10.887104364418898 1 -1 -1
1104 1 8.264727428348923 4.729790894556266 12.391892548043426 0 0 -1
1342 1 9.49379841471638 7.806434532492505 12.526373390726963 -1 1 -1
249 1 10.245088193501573 6.1084225237937755 11.44941395877739 -1 0 -1
52 1 10.621107753067244 8.875475674501837 10.39834149398512 -1 -1 -2
1143 1 11.972297421374236 8.065174392708437 12.699547334870688 0 2 -1
636 1 11.985773683978222 7.111407551424963 10.002235056727812 1 -3 1
303 1 14.732790314125294 5.99492920999384 13.786733575902248 -1 1 -1