LAMMPS data file via write_data, version 29 Oct 2020, timestep = 300000

2048 atoms
1 atom types

-0.5482047059127737 28.90020470591613 xlo xhi
-0.5482047059127737 28.90020470591613 ylo yhi
-0.5482047059127737 28.90020470591613 zlo zhi

Masses

1 58.933

Atoms # atomic

1776 1 1.7433279601198977 3.244876317984667 1.2973257707391594 1 1 0
326 1 28.170047376423952 1.38616622342324 0.9271257362311522 0 0 0
170 1 -0.4713811050719104 0.3144207905537033 10.888270654689576 0 0 0
1947 1 0.35229324651915217 5.984420381869365 4.092566580775059 1 0 0
405 1 2.267246146256815 1.0979709479172493 0.5392020571028997 0 0 1
2041 1 28.77364533680643 3.531034925741052 0.3521423916039077 -1 1 0
336 1 1.0635924131624506 3.6323852445235563 3.5853566719692473 1 -1 0
1755 1 4.692333698073216 1.5157844060219539 0.08708505673406353 1 0 0
1489 1 3.5221492852276954 4.06948919392033 3.267688500055598 0 1 0
983 1 3.236969700223316 3.0637332024691313 -0.45727441681724146 2 0 1
484 1 5.697499144339913 3.449512391893046 1.7789890662435934 0 0 -1
1443 1 6.281721494415446 3.2951117774547076 -0.4177942607866267 0 1 2
1787 1 15.314658080221152 0.934500537126121 6.851074781530128 0 1 0
302 1 8.170725576235021 1.8424422620875744 -0.34694033552410786 2 0 0
1174 1 5.95476714172707 0.830368555078169 3.192472860646468 0 2 0
1897 1 6.85088163551859 4.871622451598604 3.3533021303464112 0 1 1
703 1 10.63650981935313 2.2912813041001447 3.276592625222716 1 1 1
1531 1 9.566365007694573 4.288643210486436 4.316374093843741 0 1 0
1805 1 7.782656832349785 2.517475581962823 3.159899551305509 0 1 1
1439 1 7.124618557143411 0.6410493215832671 1.2517228722599696 1 0 1
615 1 9.55591967459099 1.1820310528995057 1.6156663934628757 0 1 1
1247 1 15.3382403884314 13.698492067131989 7.436709370795726 0 1 0
1818 1 15.792052005424072 4.155487079197396 2.095458933500165 1 0 1
20 1 13.396527593640213 2.45784440188803 2.42577209446144 0 0 0
1737 1 14.097916729186434 0.338998848947774 2.3446448054603444 -1 0 0
100 1 13.762877291772028 4.370732319901135 0.9919924187930804 0 0 -1
1918 1 13.04597760219589 7.525316392627106 -0.25474377756648553 0 1 0
1993 1 13.486135985574043 2.2637545880134424 0.0946248272617971 -1 1 1
1429 1 2.4073968693620813 12.958907545278954 10.436219131168627 -1 0 -1
131 1 15.545351253133596 1.6037330867368667 0.8382282310422511 -1 0 0
1080 1 12.321627242405453 13.643363246742926 1.2796103545524882 0 1 0
267 1 4.775279941347133 11.155560328403965 0.13855586519713614 0 0 0
1898 1 16.910747725887955 0.34496640747064333 2.19112195115853 0 2 1
1758 1 20.06701161136643 3.4074905353740594 2.038325933309907 1 0 1
116 1 14.873253690562455 2.4031344287668506 4.461680241488002 -1 1 0
363 1 17.32114326637258 2.654445790453287 2.532027130754938 0 -1 0
1410 1 21.29323347245507 0.9833773497920384 1.5882171264188125 -1 0 0
1516 1 21.862878491388884 2.5420826537443912 3.3160594718217675 0 1 0
1860 1 26.64226804445435 1.1665206622893578 5.346259437824973 -2 1 0
1613 1 23.623975982515855 2.4753811574244717 1.380540924710164 -1 1 -1
186 1 -0.38940600801260833 12.365726430479915 12.561338698299034 1 0 0
2032 1 19.214818890702812 1.366830272078122 3.5845622161287496 0 1 0
1742 1 22.378809921381837 -0.0024116517744150467 3.1145135598136156 -1 1 0
252 1 21.354673396843655 2.9699872839974204 0.19914713405060624 0 0 0
1901 1 26.24161426370989 3.4822170034935986 1.1499827948913905 -1 1 1
90 1 26.109979712261655 1.6214918620552807 3.150897391031743 0 -1 0
955 1 28.740705960317747 1.009184009275336 5.238812206304894 -1 0 1
1718 1 26.06368555926106 3.3917308383157105 4.712021269857049 0 1 1
556 1 28.739698357569306 1.8887854113125329 3.171348649184241 -1 0 2
1241 1 2.0417910456481017 13.864778615505292 13.996346526743945 1 0 -1
303 1 4.154891063486741 7.9149779934883036 1.9732877199758105 0 0 0
1771 1 0.15505828942905442 5.024679695235652 1.5135280212408642 0 0 1
1130 1 2.5859735466217915 6.777724325497898 2.9976382967076787 0 0 0
87 1 2.8021881885329707 9.188917819076106 3.9653975311004013 0 0 0
386 1 1.5654466901383062 7.949903565310752 0.9107267151946963 0 1 2
1856 1 0.8813771907866115 8.017049696587808 4.913594036511876 1 0 0
51 1 1.6187461496265332 5.662087522676176 13.924924780871766 2 0 0
337 1 2.4095381927473443 5.480593159108453 0.18086320523109267 0 0 1
954 1 6.5119064824913195 6.9150277745372035 4.43844461454722 0 0 0
1792 1 4.690896570207079 5.7214446857363335 1.29571790977699 1 1 1
2038 1 5.564952667745402 9.413811558170979 3.0424441142276373 0 1 1
1108 1 6.531995192631077 7.246484730179987 1.6512872329337211 1 1 0
353 1 4.651980644442264 6.109683415818279 3.725957721485311 -1 0 0
169 1 8.285531076833983 8.622971653108486 4.245975619809065 0 0 0
623 1 7.265109974493581 5.095605487491638 0.8647239070166961 0 0 1
1704 1 9.545879408541817 5.940106701913543 0.12795403768886537 -1 0 1
1919 1 11.275635976144729 4.608243367205859 2.434173984598749 0 1 1
604 1 10.126641452062659 9.255494103616833 0.31412957582220336 1 0 0
914 1 8.64351921592551 5.765705042487592 2.3811085248518986 0 0 1
796 1 8.717976547549524 6.386542945717805 5.198662724090085 1 0 0
1794 1 9.866568117190747 9.484819469533317 2.792949567227675 0 0 0
1520 1 8.501601439525224 7.979425729339429 1.267523827708217 1 1 1
666 1 10.232891899860075 6.735481057254486 3.188072779602851 1 1 1
1517 1 9.330635189676782 3.643719781987727 1.3476967074821038 0 0 1
1782 1 13.888810914863802 4.622457919767018 3.3051035043751305 1 1 0
1389 1 11.006087188004152 7.394208839807484 1.2231618297912723 0 0 -1
381 1 14.654496857007764 8.342419522289251 6.534225010049675 0 -1 0
656 1 15.242288976445924 6.104845669992581 0.9385206641385795 1 -1 1
751 1 15.472998270100053 6.216219544349086 3.3893663805878793 -1 0 1
906 1 11.752617971802415 5.137085710281519 -0.14969122669474727 -1 0 0
1862 1 13.055202799390237 6.46322476888096 2.085570769838215 0 0 0
513 1 16.397638629233434 6.691846496403211 6.276908695965208 0 0 1
236 1 25.70280287090532 1.0638613419281122 0.436674323354314 0 0 1
1557 1 18.381594526011398 6.883509675816822 1.6878082399575094 0 0 1
724 1 18.16321064575701 4.760812548922622 1.8467055579453544 0 0 0
88 1 20.553027680929144 5.113761478361109 0.628925067258929 0 -1 0
172 1 17.537936619769784 5.730109344903914 3.9357488930840985 -1 0 1
1276 1 20.378665557114648 6.091936898636396 2.55391784114948 1 1 0
276 1 16.333856705066086 8.261669390420609 3.963521146678599 0 0 0
1802 1 18.970138827973543 8.580420573632185 4.0398244720765675 -1 0 1
639 1 22.234131298845703 6.861575243782539 0.44465842601303196 0 0 1
1810 1 26.12361567969202 13.919137366375848 5.4829683872404855 -1 1 0
85 1 23.01631407726124 4.585892508547766 1.6630880042252572 0 0 0
493 1 22.28578501027709 5.3009680910619625 3.762757313369427 -1 0 1
1632 1 21.550764725393016 7.403262959942087 3.9099661672236667 0 0 1
447 1 23.920465852072986 6.780261798978971 3.5054724582377856 1 0 0
394 1 22.688896416249662 8.327487865740508 2.443424496572151 -1 0 1
1102 1 14.769806987855677 10.225255923678285 12.112952226599033 0 0 -1
980 1 26.453655224333133 6.455795065643992 0.6679212056395316 0 0 1
1720 1 25.738402601244758 5.193592258940446 2.486442027308316 1 0 1
1250 1 -0.22476661683566035 7.036471969055114 1.8658158047686317 0 2 0
1486 1 27.79515977361693 4.22780288579562 2.767655423301543 0 1 0
1210 1 27.736139708038962 8.625232579943232 3.668449781270085 0 0 0
1107 1 25.893249309827546 8.96352468860864 0.3207678342196717 0 0 0
1494 1 27.188581769174334 6.952747363913323 2.6982135170662382 -1 1 0
973 1 24.398236103855346 4.978671040609318 5.3326907283990375 -1 0 0
622 1 27.07709768230672 5.571439342265502 4.90849175128099 0 0 0
1330 1 25.784511220023774 7.341048217987028 5.066192060930628 0 0 0
1279 1 27.389854123083055 13.41695161535825 9.713166852865598 1 0 0
1533 1 14.938405909710012 9.189461037752743 -0.36258080929447284 0 0 0
756 1 0.47401939666827353 9.299356656722269 3.1521951312606773 1 -1 0
309 1 2.37973984049012 11.859169354312991 0.6444499656042009 1 0 -1
611 1 14.554782536422232 13.28076519707042 5.230646425496386 0 0 1
1373 1 7.788323707507216 13.076170694123293 0.6174585407925162 1 0 0
1667 1 5.311117102785481 -0.5294272017974109 10.75515851734947 0 0 1
1020 1 2.4671861229399377 11.580376428043355 3.341869286634803 0 -1 1
310 1 0.7535252061376057 10.081202817604586 0.9571720960244459 1 -1 0
988 1 27.83050765212072 11.262762444310768 11.00432729510532 -1 0 1
1686 1 7.527635177846934 10.354951598754697 1.5368250128459482 1 0 1
1318 1 3.2970886726721 9.950862933307166 1.731373098632802 1 0 0
1114 1 3.6780294760456638 13.185294172308103 2.7244404421095822 1 0 0
1713 1 4.542112977235064 10.943565185003497 4.414118672468617 0 0 0
1423 1 6.268016681600717 12.16728885173791 2.333094260452135 0 0 0
605 1 8.094874121253328 12.747851748460613 5.505393752038671 1 -1 0
454 1 5.583045858059649 8.833564100495755 0.19720206660008266 0 0 1
1727 1 5.2483433561897 13.75043649402712 0.35193725641305607 0 0 1
1307 1 8.844606821901673 12.138388640204376 3.1193900755974346 1 0 -1
1546 1 9.92195322414717 13.599487244868605 1.333791976920871 0 1 1
1817 1 9.606570426336468 11.418484846946427 0.8488187128600515 2 1 0
1287 1 7.714608456527486 13.844471022771247 2.8799920566879296 0 0 0
1924 1 11.883855116066048 11.509069164927789 2.250664868286898 0 0 0
648 1 10.587779256932125 12.963166227506678 4.115917199920652 0 0 2
1853 1 14.666661317484676 8.531475814558371 2.221848613605185 0 0 0
1017 1 12.406440924014047 8.04052886995447 3.4507483039979743 0 0 1
2028 1 12.330985444158733 9.671680931978962 1.2071168078657666 -1 0 1
1421 1 18.70346556273744 12.248708555352232 0.2994458498143845 0 1 1
624 1 14.815055330808695 10.99951576072094 1.1757443190417416 0 0 0
143 1 13.202704817323347 13.420311458115068 3.1724138224911687 0 -1 0
809 1 27.56096594270215 0.5303594740392212 7.57979148378541 0 0 0
886 1 3.2951263650706326 8.64795539259836 -0.1193380500767196 1 1 1
1393 1 14.315981620675675 0.61009055087343 13.71272167397775 1 0 0
867 1 11.370578506137134 10.558795111511042 4.407578268301927 -1 0 1
319 1 0.6384568016267889 0.6093630862423176 8.74031331390988 1 1 0
1628 1 19.08965161354385 0.6964259212141815 1.3600313306728726 0 1 0
1891 1 16.889106172073195 10.237860454126771 2.920858718485551 1 0 1
165 1 17.698248476844967 9.942294574161924 0.3915177162606789 0 0 -1
1148 1 16.764905508416142 12.530137010705872 1.5600958562659324 0 1 0
1483 1 20.935115726159605 9.84648830993757 3.715920485881359 0 0 -1
936 1 23.751739092174294 13.706770144840656 6.16287958963278 -1 -1 0
1344 1 13.409385259213954 -0.136977019822495 11.50252691860609 0 1 0
159 1 20.381439600578435 8.20138603038781 1.782760233263546 0 -1 0
240 1 19.086156062180994 10.197750260901447 2.3523594896730473 0 -1 0
1331 1 28.460495790468904 6.298203573307065 12.859219436253646 0 0 0
897 1 15.628918331592008 12.152643758624388 3.5227524607830416 -1 -1 0
509 1 20.807792569983423 13.1509631507285 0.741804904872122 0 0 0
1984 1 0.5056791513341683 13.48608533301215 0.9174618039705167 1 1 0
1540 1 23.458069686025546 10.091343006530831 4.006156993030571 -1 0 0
1427 1 25.32813671053342 11.919933220058397 -0.0704771002436772 0 1 0
1206 1 23.95950042035562 9.802656448473078 1.3346925008690183 1 0 0
1715 1 21.846359354271037 10.867585603785018 2.0717582530669216 0 -1 1
695 1 25.208024354465703 8.737677987724444 3.027814854001269 0 0 0
1674 1 10.170026214630717 -0.17973812762889102 11.963603334537009 0 0 1
352 1 24.916897379843455 12.22770076047067 4.5839130512081425 0 0 0
1819 1 28.386191081671285 8.940192036676343 0.27026714279117614 0 1 1
1352 1 -0.39984335938458404 11.54182839269478 2.07680652749005 0 1 1
181 1 24.743902321882068 11.431783837913825 2.568993943283057 0 -1 0
1878 1 27.079550282923368 10.426052424066445 1.6972693843868565 -1 1 1
1690 1 27.191911451699387 13.028842017210206 0.5969574713529426 0 1 0
1195 1 16.858543387515258 9.98860742865071 13.154034500811234 -1 0 0
805 1 1.224063045783387 3.748954316216052 6.113859395224411 0 0 0
2048 1 2.2248995500385456 2.610655271633273 8.000232623807152 0 1 1
1324 1 0.006997931511652733 2.1563159321135497 7.07161541835155 0 0 0
1395 1 -0.48352789427393605 4.31843685859213 13.906779255823302 1 0 -1
716 1 2.8726074375825914 0.5860746451482055 7.0550478588654535 0 1 0
1356 1 0.40810072723866697 4.288465292707881 8.643642633181768 0 0 0
1018 1 1.6642880796431343 1.3471081364932134 5.042910733258255 0 1 1
1512 1 3.5905909102844467 3.1483829261580847 5.879713842169968 -1 1 -1
819 1 4.636979590999188 2.0027574119577642 7.415857557168538 0 1 0
1569 1 7.24781527007718 2.845578727908377 8.417556660992336 -1 0 0
1173 1 5.177079700586443 3.2929389825330806 4.301725276724402 0 1 -1
1995 1 3.7858790084315714 1.4779562603957404 2.236857941920956 1 1 1
1634 1 6.164287512237955 1.9028900457354712 5.863185666131494 0 1 0
1479 1 6.76867216781795 4.451491555812573 10.050479282295493 -1 1 0
332 1 4.043887384125735 0.9604016674549298 5.01800030570161 0 0 0
1655 1 9.386238206293427 0.9595038639441538 7.605255154192308 1 1 0
221 1 8.438407472323686 2.5437492296067368 5.718532758932987 1 0 -1
1407 1 17.49473478019309 0.3085560730581418 -0.2045735241935988 1 1 1
440 1 11.19684012416645 1.6188173887955881 6.126425510164336 0 -1 0
971 1 13.306451211685882 0.9971800459449742 4.986016583018443 0 -1 1
1140 1 8.910648090489447 2.7781572710518425 9.814534364341304 0 2 0
693 1 9.900421557486444 3.6520407147756995 7.017409102446178 1 -1 0
849 1 10.67417032374126 0.6201203858880822 9.774713278308905 1 0 0
1296 1 21.904442511298267 9.205094669744605 0.16683803402701436 0 -1 0
1244 1 14.378002835508596 4.7007841624543225 5.572331301723385 0 1 -1
1056 1 22.861575265114183 11.649277078522763 0.4508055875915795 -1 -1 0
448 1 13.933306696276803 2.7161975938757963 6.6623043232137205 1 0 0
1347 1 11.384213527351552 2.7025678120785397 8.659259704121673 0 1 0
418 1 1.2302292080163746 0.9474235661517372 2.6648902171044937 1 1 0
1391 1 13.219595210465464 0.8886127879417585 8.462250398221883 -1 1 0
1873 1 12.36577267153102 4.495422718596683 7.191658176288818 0 0 1
1446 1 13.907236935888369 6.677961091326892 4.636800400933766 -1 0 -1
362 1 14.26524883637671 3.4791717814635312 8.620270365022561 0 0 0
79 1 26.631516888958856 12.586626102748959 12.591825359317735 -1 -1 -1
847 1 18.114448030846127 5.346275029470995 -0.1823581097506422 0 0 1
876 1 15.543581233475201 1.6920109379803576 9.635354868108866 0 1 1
481 1 17.01381460173852 1.6209818648202603 5.074435974411395 -1 0 0
1268 1 17.971925905765904 2.483871995282829 8.857905669553126 0 1 0
62 1 15.986935416688798 3.411424188180459 7.228213064369166 0 0 0
986 1 17.64884859577757 0.8540751059032863 7.190434593606001 0 0 1
1820 1 19.106387665794703 4.979483722473653 8.573076127003635 0 0 0
109 1 14.85608102354637 3.6503995663520126 10.887523172559636 0 0 0
460 1 22.203159113675532 1.9629240500616412 7.289156561904045 0 0 0
940 1 0.10632058001715028 -0.5152336061971283 1.243578809754549 0 1 1
923 1 22.50314815130915 -0.04220932177381964 5.666529831776253 -1 1 1
344 1 24.146048926919224 1.090093962597517 4.3464914733214925 0 0 0
412 1 20.25347846643778 2.57625238113774 8.758643031244349 0 1 0
1240 1 21.087015980119226 2.0511036675501466 5.403450987213217 0 0 0
1740 1 18.909375385098468 3.0154013677962657 6.64987929146462 0 0 0
1854 1 20.939383621223822 4.447669105936311 7.152310077667435 0 1 1
1863 1 20.278917295751434 1.0932507610807929 7.163121907967756 0 1 0
419 1 19.224697452898745 0.512586989068887 9.496555161560213 -1 0 0
402 1 24.691690173067077 2.5771992223748317 6.425633649583491 -1 0 0
275 1 22.91556373813473 5.95012345012929 8.529791712141929 0 0 -1
1380 1 26.833082631198316 2.55076694501451 7.0719890888351005 -1 1 0
842 1 22.259880262947643 3.7925152497410544 5.632821137121564 0 0 0
1669 1 26.156943651891115 4.698527076917734 6.700917780221477 -1 1 1
32 1 24.134170465410097 3.4680297221981418 3.5387043688994737 -1 0 0
674 1 28.420866676962333 3.0233667757923994 4.9001750166369265 0 0 0
1212 1 25.740881299376305 1.3904962202841762 8.884594482840747 0 1 0
636 1 23.716697686477445 1.5276590176273221 8.515782850829252 1 0 0
1747 1 27.654886044868075 10.81147375217677 13.562424488420664 0 0 0
431 1 2.497063371224532 5.869524891944899 5.219830253293468 1 0 0
1833 1 2.780983158796076 7.953542127263166 6.0878716042639835 0 0 0
1413 1 4.687254500881201 8.14518956558685 5.103250762471046 0 0 0
1137 1 2.6853571873627318 4.945538156672765 7.219477729622388 0 1 0
316 1 2.711763255172301 7.153653835929795 8.41263864868586 1 -1 0
230 1 0.7564162722353975 6.267757801081901 6.981036416155416 1 1 1
1497 1 0.6815770887275368 7.05395715012011 9.067053938650734 0 0 0
1899 1 0.06108465389815931 8.66866986561206 7.2661354797857705 0 1 0
1705 1 4.977321935735266 5.299410031615922 5.727173729406824 0 0 1
282 1 5.439449627451338 4.184485324813441 7.776202566370733 1 0 0
1519 1 6.230300717395315 9.493176965224716 5.910772841112544 0 1 1
1846 1 7.127392494432926 9.270268090238027 8.562184434034428 0 0 1
459 1 7.070730249262631 7.4457365507590545 6.641069070877433 1 -1 0
573 1 4.807728106220891 7.065392730492339 7.179720821302802 1 0 1
301 1 8.40356671077931 4.866701068960088 8.284895354110207 1 0 0
445 1 4.57126021117619 9.186079115537693 7.860596231185706 1 0 1
1215 1 12.02803473797231 3.6137906186052593 4.844530669197725 1 0 0
507 1 7.460079754686735 4.660555067675528 5.751373536266531 1 0 1
1736 1 10.832196767002229 8.508907041276562 5.0918204926323964 0 1 0
1447 1 9.015270226678343 8.74221637785934 6.784864037969003 0 1 0
65 1 10.134826435408755 6.174716795470605 7.23079996397378 0 0 -1
1103 1 10.519236770077642 8.433118341311022 8.385216227588876 -1 0 0
1769 1 9.404282325226117 10.413029927260956 8.778718965432441 0 1 0
1425 1 11.456633924363135 5.784508088428821 5.095526895688618 0 1 0
713 1 12.400926965715124 7.253312716414048 6.447730308219333 0 0 0
13 1 12.610350934387782 6.408603204092529 8.723460167004697 1 0 0
882 1 15.913100707890457 9.296116644411228 8.095132945413875 0 0 1
1548 1 14.65108589013441 5.6355744027106445 7.606624445954454 0 0 0
71 1 16.844758088773403 5.218387758987271 8.493789584019048 0 1 0
1980 1 14.088455184810863 8.195618064636703 9.689329039231454 0 1 1
33 1 16.61713468311919 3.8809980807158038 5.097387442005526 0 0 0
701 1 19.950215621749564 9.364021988430082 7.962607927196508 1 -1 1
1471 1 21.18847821245418 8.63902670255471 5.935090656261761 0 1 0
884 1 18.93349881664214 7.756117926935833 6.715510008075132 -1 1 1
1981 1 19.04989470493077 7.636810207143808 9.365931411380048 0 1 0
1451 1 20.228937310700115 10.0242575064046 10.198614719478536 -1 0 0
132 1 18.23770345695627 5.1542284129349545 6.369073048178278 -1 0 -1
1014 1 19.67727277714601 6.690617330668458 4.97357628865983 0 0 1
869 1 19.688956890247482 4.212270210130554 4.09427812485183 -1 1 1
2039 1 21.726049857573756 10.582716313650776 6.621734766879626 0 1 0
323 1 22.294654136496785 5.9986010679987665 5.93408494752769 0 0 0
378 1 21.00889210627477 7.215671790344163 7.776229624440438 0 1 0
1205 1 22.288660960694145 9.118000775774426 8.477804178255308 0 1 0
361 1 23.7551511653229 11.691128620639034 6.326638892846487 -1 0 0
755 1 23.780505570697287 11.138647774584303 8.733757691047705 0 -1 -1
496 1 23.29589437832098 8.213274211035962 5.557866809579675 -1 0 1
2022 1 21.211265083085863 4.961445245075296 9.73248193721008 0 1 0
1044 1 28.66910984887932 4.800052650595663 6.541760073772728 0 0 -1
853 1 28.146940996439234 8.034014509535133 5.655615678321507 -1 0 1
942 1 24.396318284679893 9.30433502142115 7.152525470800849 -2 0 1
601 1 24.398356925772692 6.988959348019223 7.08934258460539 -1 1 1
883 1 27.72510084467219 6.511303097860982 8.332103828285273 -1 0 0
746 1 24.23677532724407 7.921040188364126 9.412506173277402 0 0 0
1401 1 0.5119935385871208 10.482447851361801 4.88963843172981 1 1 0
726 1 1.652646126026725 12.429246333404262 5.362264434943801 0 1 0
238 1 3.130616864740183 13.845058735577334 8.479687581016655 1 -1 -1
1457 1 1.840422806236361 9.705238612774544 8.2282506343828 0 1 1
491 1 28.670512666669687 12.521411098780373 5.325496789345546 -2 0 -1
1550 1 1.5124267792337815 12.371737824148942 7.649166503584009 0 1 0
1433 1 28.347583852334875 11.428091026692194 -0.2730879802991057 0 -1 0
1585 1 3.554883627784392 11.75828345414338 8.422579348362328 1 0 0
1703 1 0.23568468839417978 12.706916387540222 9.316986510842227 1 0 0
347 1 14.911018462038413 13.576576408583344 0.4439277684798907 0 0 1
1505 1 6.7798511135326756 11.091497711798402 4.3765705106183255 -1 1 1
1646 1 2.987238895099381 10.394523126842579 6.323974290973249 0 0 0
506 1 5.656217376212517 11.59643950592327 6.633404788617739 1 0 1
1079 1 3.852790790633139 13.050224721250046 6.358937702406629 0 0 -1
1364 1 5.833267804745666 13.674188093446942 4.887301066228118 1 1 0
552 1 5.221670793136022 10.925960025379513 9.559872318012488 0 0 1
1379 1 19.75780890606169 12.14797407460501 11.32063695379838 0 1 0
1503 1 7.7413179497412745 12.86301445704324 8.344626950360382 1 0 0
2016 1 7.802502837859958 11.053864322076967 10.085113655042564 0 0 1
366 1 9.27580736082716 10.706267394512697 4.976832394183908 0 0 1
1965 1 10.836875231884946 10.229994854588394 6.742456647872996 0 1 1
1555 1 9.69708354983201 12.694801045576023 9.621072046768262 0 -1 0
1767 1 7.742504419246361 10.720356224760076 7.080773211551364 0 1 1
1134 1 12.574773143300016 12.069764188568373 5.751386978571274 0 0 1
1967 1 10.28947593412666 12.774147091007746 7.0665831234936585 0 0 1
1343 1 24.425468976273187 7.054182739201455 1.1410663396669471 0 0 1
801 1 12.04122736157655 11.913283760273703 8.759747346979081 0 0 1
1791 1 16.918511089269753 -0.025381326262615467 9.860571040610957 0 1 0
1865 1 12.82676767019224 9.235899905604697 5.650348113873963 -1 1 0
193 1 13.919220913883017 10.805119702434215 3.650183655049343 0 0 -1
1375 1 14.142975354624799 13.03258769538118 9.129172512605868 0 0 -1
1577 1 12.692473630806854 9.421026290232414 7.982126376246255 0 1 -1
1656 1 14.163495847351488 11.025539928112423 7.205976434598534 0 1 0
21 1 14.65560633134371 10.366563533807337 9.698050706991907 -1 -1 0
675 1 15.315352169815965 10.291777100117587 5.236533060477549 -1 0 1
676 1 16.82459386969816 12.787210573136987 5.492513256307462 0 0 0
947 1 20.56323651792118 13.619011187472562 8.843861890087837 0 0 1
865 1 16.605872294676125 11.430964873201225 7.331201380244313 -1 -1 1
856 1 19.53748237482753 11.090877126816084 4.948447156793594 1 0 0
1717 1 17.664437465215293 9.711390440976084 6.128844051570466 0 1 0
642 1 18.891690618344427 11.638692814583731 8.674113266872103 0 0 0
1472 1 6.495305351140029 1.8338855905176437 13.58119556646479 1 1 -1
1444 1 20.631151173753047 12.564920747718274 3.2620555973996144 -1 0 0
2029 1 17.949702827846565 9.923760570072263 9.425234034225543 0 1 0
351 1 21.108799141928888 11.294391405476746 8.825870607596075 1 0 -1
5 1 22.49803101972431 12.058915819867996 4.493489725966656 -1 0 0
1889 1 22.712372741585224 13.701803081303854 2.4849942020432265 -1 1 0
1643 1 22.40163741209785 10.646252328013418 10.480263609716898 -1 1 0
1627 1 20.685268456339443 12.663697453120996 6.143082985002526 0 1 0
534 1 22.36569956386949 12.797000099515843 7.755229852425298 0 0 0
1702 1 11.53485434996557 3.0428249144976447 0.8018777193700046 0 1 1
1274 1 17.97736578930799 13.612431863353057 7.625245921461403 0 0 -1
14 1 24.644154671706307 13.546607571293661 8.289743064547865 0 -1 -1
797 1 25.73825552718871 9.83094773678799 5.289459238964406 1 -1 0
281 1 26.748334651764612 11.074207483990067 8.501293573727263 1 0 0
118 1 27.848510402378025 10.394518911380192 6.028098238144465 0 0 0
7 1 -0.376524330769343 10.692107941312361 7.990339596672227 0 0 0
1142 1 26.890083718863988 8.739689838570953 7.519963066563683 0 1 -1
1803 1 27.511055384117455 11.322720726993415 3.8022441266519174 -1 1 0
891 1 26.227274280320017 11.905986981158215 6.536313891607543 0 0 1
1037 1 28.46020578310328 12.955300646424693 7.472899387934792 -1 0 -1
312 1 25.153562762713857 12.214271945058421 10.85759714615069 0 -1 0
325 1 0.631631781980057 7.655879144470706 13.971761654305833 0 0 1
462 1 11.839531396115335 6.3871781586717455 12.957724073947006 0 0 0
49 1 28.429927179312152 2.140219923766233 9.215440380752481 0 0 -1
1414 1 2.4159551967570136 0.6825023131138874 10.086089286719085 0 1 0
357 1 1.013409022326732 2.67809688157727 10.047844964246334 0 1 0
595 1 27.720364557414403 4.391902404740401 9.883108843085672 0 0 1
1159 1 0.830320868599379 1.882774494783753 12.455725348543542 0 1 0
858 1 2.50670524718569 0.354210093966964 12.752822251084172 0 0 0
187 1 4.3527225057388375 0.7398584281205571 9.116065413320298 0 0 0
602 1 6.609762509668544 0.6810519345004187 8.205697849762482 0 0 1
57 1 5.255832118623176 1.2313673268555725 12.029800970033879 0 0 0
222 1 4.105968590917722 3.06489179265055 9.553994594230517 1 0 0
929 1 8.26981104642746 1.2595464930839084 11.61907258387031 0 0 0
1155 1 6.319933558671422 2.089725083556172 10.180353989546683 -1 0 0
1989 1 8.163101670637353 3.2941651974609334 12.00715251830154 1 0 0
620 1 3.4203555356207778 2.479144373723643 11.30631655882033 0 0 0
29 1 17.95785739320289 13.764558963637716 2.8790152884521474 0 0 0
1203 1 8.187565433196314 0.21523472994190473 9.77803493457174 1 0 1
1095 1 9.65056455541993 1.99731217440615 13.234233345284627 0 0 -1
1808 1 10.764324413199393 2.5213169212878577 11.132833201796858 0 0 0
407 1 5.546621705535793 -0.20558609367882585 6.679885923334673 1 0 0
1949 1 12.078598112307237 3.8545560779057784 12.595312153647015 0 0 1
2024 1 14.791019308465534 -0.4670537878033869 9.530630398029917 0 2 1
127 1 15.696259044049434 0.9938107493807327 11.997590343542605 1 1 -1
345 1 14.208802689933437 2.917358289799572 13.095598324474265 1 0 -1
1761 1 13.034925913338515 1.9262076663703267 11.222686826414042 0 1 0
155 1 16.297799600705318 7.779034040324689 0.9253742552760043 -1 0 0
1436 1 12.59793438234645 4.109763016309375 10.483918594945363 0 0 1
1929 1 12.018283602160542 1.2492218742441121 13.550804818080634 0 1 0
1265 1 21.497758421970623 8.075197397618647 12.076053745108506 0 1 0
227 1 18.415277434708013 4.0703782726668765 10.673577805563593 -1 1 -1
1733 1 20.012359631733965 10.199456486809359 0.1770383684344019 0 1 1
857 1 17.293329357473638 2.2609264893400685 11.232692083291692 0 0 0
659 1 19.914594502833257 0.3873959799276485 13.401742255074375 0 0 0
112 1 18.956093259874073 3.2282125638562524 13.391875500105638 0 0 0
946 1 16.299800157336634 3.7474986540738566 13.746931828726956 -1 0 1
803 1 24.446981030644434 -0.07982698049752168 2.298928420697223 -1 -1 0
600 1 17.2719105531886 1.2258749793798782 13.62816966899652 0 0 0
315 1 12.011254044846968 11.860110677366546 -0.275853294024282 0 -1 0
706 1 23.474511484371735 4.23544478259959 7.573985999990825 -1 0 0
53 1 21.654466043644987 0.8049341096147768 10.07007236490593 0 0 0
205 1 21.881611334313586 1.3417378411824101 12.484057925646841 0 0 0
1657 1 22.69569170664329 2.7412266203551416 10.43177374217109 -1 0 0
1966 1 0.8505284225261986 13.378352384758857 3.4330433793083004 1 0 0
246 1 19.579764939251383 1.7536859082175886 11.648875424732106 -1 0 0
367 1 24.078682201177763 0.8928430518922745 10.869760635958949 0 0 0
952 1 7.781712390158125 -0.4317507614484029 6.032767394185242 0 0 0
1618 1 5.5697411968635295 13.802894736541083 7.725858361589497 0 0 0
196 1 27.863285929175223 1.3884612843701252 12.595803907437611 -1 0 0
177 1 26.651542528233414 1.657411355083524 10.808570791492347 -1 0 0
278 1 28.36559681076374 3.3504174504080724 11.623520672598293 0 -1 0
832 1 26.73065626528015 4.891197888681234 13.42447221944981 0 1 0
43 1 1.7459015953213908 8.640054473057258 10.308235750746869 0 0 -1
555 1 -0.09622996511719084 7.898159674585477 11.523929203894436 0 0 0
229 1 2.1903414603822196 5.140959929590815 9.757551609523698 1 0 -1
1070 1 28.577249787780207 9.422557234315287 9.67190371903424 0 0 -1
1007 1 3.609363996109759 4.9809919215188305 12.303425530425372 0 0 0
1011 1 1.2257776935711164 4.185981903994694 12.230424167576855 1 0 0
1002 1 1.5634168652147764 6.884165054660868 12.01763111267388 1 0 1
1772 1 23.418002617395604 0.11024253847322185 0.2938876448556287 0 1 0
1045 1 6.292020479666453 6.220970418329213 8.641907017820227 0 0 -1
206 1 5.441863202002561 3.650661274413549 11.810614666022287 0 1 -1
1145 1 4.380115897130007 5.213624859111049 9.52909453462155 0 1 -1
911 1 5.557672817673077 6.448932483132014 11.496650759340177 1 0 0
1290 1 3.484567127373163 7.188918707961647 10.454039299428063 1 0 0
866 1 4.995039735856977 8.964350041959888 10.749581663104173 0 1 0
75 1 7.160399650795753 5.458539465809515 12.980148674361054 0 0 0
1652 1 15.384468660792823 0.05363704421437154 4.377427428861317 0 0 1
1163 1 8.350201241670423 7.2997947144563415 8.764130547168268 0 0 0
1253 1 7.2964587702913395 8.055060830996647 12.989671923805506 0 1 0
468 1 10.377150088406179 5.670485179361287 9.35615216982235 0 0 0
1573 1 7.538462355405837 8.62369485555359 10.902595121255736 0 0 0
1008 1 8.34858879336784 6.046376249189277 10.802000455679028 0 1 0
813 1 9.373489972770153 7.328453022568995 12.430865032096564 0 0 0
437 1 11.176084017046783 8.692451962376675 13.049325412553069 1 0 0
1961 1 10.247013720389505 7.816183172588168 10.245305084859847 0 0 1
1133 1 27.904898687134253 14.03501353468268 3.449341781890113 0 0 -1
1608 1 13.47486057711899 8.166149498895235 12.40926048326409 0 1 1
1563 1 14.661442188446001 5.8004514735578585 9.764891224553272 1 0 1
907 1 16.422333397410352 5.013722491653786 11.699625936140867 -1 0 1
1724 1 14.051170623617859 5.3173506525236105 12.598631540949805 0 1 1
488 1 10.013547930987722 4.866142734902139 11.846849730237146 0 0 0
634 1 12.703161039527107 6.470575962327884 10.852926351257572 0 0 0
635 1 15.30610326471846 7.0078378431613535 11.849270067654427 0 -1 0
1603 1 16.34682686968653 7.457961041009108 9.266422638704093 -1 0 0
44 1 17.638301840063292 6.88582947603362 10.91980905135328 0 0 0
2008 1 18.73272117326089 9.237167484829726 11.759887659274922 -1 1 1
1619 1 19.722831875982237 6.122414495491371 11.174814335407543 -1 1 1
1237 1 19.448604770959545 8.002548715114887 13.743939566367137 0 0 0