LAMMPS (29 Oct 2020)
OMP_NUM_THREADS environment is not set. Defaulting to 1 thread. (src/comm.cpp:94)
  using 1 OpenMP thread(s) per MPI task
package omp 0
using multi-threaded neighbor list subroutines
package omp 2
set 2 OpenMP thread(s) per MPI task
using multi-threaded neighbor list subroutines
units metal
dimension 3
boundary p p p


lattice fcc 3.5440
Lattice spacing in x,y,z = 3.5440000 3.5440000 3.5440000
region box block 0 8 0 8 0 8 units lattice
create_box 1 box
Created orthogonal box = (0.0000000 0.0000000 0.0000000) to (28.352000 28.352000 28.352000)
  1 by 2 by 2 MPI processor grid
create_atoms 1 box
Created 2048 atoms
  create_atoms CPU = 0.001 seconds

# read_restart after_heating_press_0_1600.lmp

variable P equal 50000
variable dt equal 0.001
variable loopVar loop 6
variable sys_press equal "press/10000"
#variable temp_word equal "heating"

# print "step temp vol pe" file heating.txt screen no

pair_style eam/alloy
pair_coeff * * Co_Zhou04.eam.alloy Co
Reading eam/alloy potential file Co_Zhou04.eam.alloy with DATE: 2018-03-30




neighbor 2 bin
neigh_modify every 10 check yes

thermo 1000
thermo_style custom step temp vol press ke pe density

timestep $(dt)
timestep 0.0010000000000000000208

# fix 2 all npt temp 300 300 $(dt*100) iso 0 0 $(dt*1000)
# run 30000
# unfix 2





# dump_modify 1 append yes
# dump 3 all custom 10000 traj_npt_new.lammpstrj id type x y z

velocity all create 2100 123123

print """
yo aagadi
"""

yo aagadi

label ensemble

print """
Label pachadi solti, hos garam.
"""

Label pachadi solti, hos garam.

variable T equal 2000+${loopVar}*100
variable T equal 2000+1*100
#variable T equal 1250
# velocity all create 1200 123123
reset_timestep 0
fix 1 all npt temp $T $T $(dt*100) iso $P $P $(dt*1000)
fix 1 all npt temp 2100 $T $(dt*100) iso $P $P $(dt*1000)
fix 1 all npt temp 2100 2100 $(dt*100) iso $P $P $(dt*1000)
fix 1 all npt temp 2100 2100 0.10000000000000000555 iso $P $P $(dt*1000)
fix 1 all npt temp 2100 2100 0.10000000000000000555 iso 50000 $P $(dt*1000)
fix 1 all npt temp 2100 2100 0.10000000000000000555 iso 50000 50000 $(dt*1000)
fix 1 all npt temp 2100 2100 0.10000000000000000555 iso 50000 50000 1
print """
<--------------------------------------------------------------------->
<------------------ Equilibrating at temperature $T ----------------->
<--------------------------------------------------------------------->
"""

<--------------------------------------------------------------------->
<------------------ Equilibrating at temperature 2100 ----------------->
<--------------------------------------------------------------------->

fix temp all print 1000 "$(step) $(temp) $(press) ${sys_press} $(vol) $(ke) $(pe) $(density)" file temp_heat.txt screen no title  "step temp press pressGiga vol ke pe density"
run 250000
Last active /omp style is pair_style eam/alloy/omp
Neighbor list info ...
  update every 10 steps, delay 10 steps, check yes
  max neighbors/atom: 2000, page size: 100000
  master list distance cutoff = 7.6035394
  ghost atom cutoff = 7.6035394
  binsize = 3.8017697, bins = 8 8 8
  1 neighbor lists, perpetual/occasional/extra = 1 0 0
  (1) pair eam/alloy/omp, perpetual
      attributes: half, newton on, omp
      pair build: half/bin/atomonly/newton/omp
      stencil: half/bin/3d/newton
      bin: standard
Per MPI rank memory allocation (min/avg/max) = 4.354 | 4.354 | 4.354 Mbytes
Step Temp Volume Press KinEng PotEng Density 
       0         2100    22790.356    33721.934    555.65059    -9015.757        8.794 
    1000    2146.2723    24465.652    43859.414    567.89404   -8370.0867     8.191827 
    2000    2056.0574    24242.446    49809.646    544.02356   -8406.8902    8.2672511 
    3000    2075.7425    24242.908    52953.443    549.23216   -8400.2811    8.2670933 
    4000    2101.4947    24266.142    48389.271    556.04608   -8414.0183    8.2591779 
    5000    2104.5877     24206.63     52415.33    556.86446   -8414.4888    8.2794834 
    6000    2034.8978    24245.805    50193.521    538.42483   -8405.9257    8.2661055 
    7000    2105.8251    24207.817    52036.217    557.19189   -8418.3857    8.2790772 
    8000    2097.6783    24241.209    47248.573    555.03627   -8427.4787    8.2676727 
    9000     2102.106     24159.92    55599.682    556.20782   -8412.4198    8.2954905 
   10000    2103.8398    24222.777    50180.105    556.66657   -8423.4465    8.2739641 
   11000    2100.9175     24293.04     49582.92    555.89336   -8396.3666    8.2500334 
   12000    2034.9895    24128.619    57501.565    538.44909   -8411.8326    8.3062517 
   13000    2144.0505     24347.21    42949.092    567.30614     -8414.18    8.2316778 
   14000    2101.6451     24199.02    52624.592    556.08588   -8415.2167     8.282087 
   15000    2131.1996     24260.62    54251.246    563.90585   -8388.3031     8.261058 
   16000    2145.4638        24433    43037.906     567.6801   -8386.2585    8.2027744 
   17000    2109.1178    24215.361    51828.164    558.06312   -8416.6658    8.2764979 
   18000    2094.3659    24425.813    42091.825    554.15983   -8388.0229    8.2051881 
   19000    2122.4565    24228.804    52136.654    561.59248   -8412.4101    8.2719058 
   20000    2132.1319    24251.121    46978.484    564.15253    -8428.115    8.2642938 
   21000    2072.8505    24231.495    52208.875    548.46694   -8405.1282    8.2709871 
   22000    2032.8763    24143.773    56153.644    537.88996   -8412.8979    8.3010384 
   23000    2084.1457    24192.441    51497.249    551.45561   -8423.1415    8.2843393 
   24000    2160.1975    24300.078    44399.348    571.57857   -8424.6698    8.2476438 
   25000    2085.3599    24209.642    51174.148    551.77687   -8416.9262    8.2784532 
   26000    2067.2432    24296.245    45828.822    546.98329   -8412.3939    8.2489448 
   27000    2024.0599    24121.344    53470.982    535.55717   -8434.2149     8.308757 
   28000    2072.3275    24223.132    54017.111    548.32856   -8395.9362    8.2738427 
   29000    2095.2835    24273.871    47004.622    554.40263   -8417.6013    8.2565482 
   30000    2153.9916    24285.551    48748.288    569.93653   -8405.6706    8.2525772 
   31000    2046.7267    24226.884    51395.306     541.5547   -8408.9913    8.2725615 
   32000    2126.5905    24259.624     50460.43     562.6863   -8406.5186    8.2613971 
   33000    2081.2296    24262.128     47528.09    550.68401   -8419.4705    8.2605443 
   34000    2073.4046    24213.415    52756.135    548.61357   -8408.6262    8.2771631 
   35000    2129.1911    24207.153    54519.422    563.37442    -8405.976    8.2793044 
   36000    2061.4764    24309.724    46125.809     545.4574   -8407.9389    8.2443711 
   37000    2110.0461    24293.051    50510.084    558.30873   -8393.5502    8.2500295 
   38000    2072.4669     24142.37    55415.517    548.36545   -8417.5678    8.3015207 
   39000    2065.8813    24307.665    47330.527    546.62293   -8402.7268    8.2450695 
   40000    2211.9275     24409.05    44012.078     585.2661    -8394.382     8.210823 
   41000    2062.9474    24082.687    59457.237    545.84664   -8417.5527    8.3220941 
   42000    2067.2613    24223.708    48261.084    546.98807   -8427.7559    8.2736459 
   43000     2097.339    24254.655    51291.682    554.94649   -8404.1816    8.2630894 
   44000     2115.788    24234.996    51149.636    559.82803   -8413.2044    8.2697924 
   45000    2175.8963     24349.21    45468.917    575.73239     -8406.38    8.2310015 
   46000    2133.3627    24226.746    50133.589    564.47822   -8420.1637    8.2726085 
   47000    2124.8086     24237.79    48541.283    562.21484   -8423.9253    8.2688391 
   48000    2133.4405    24399.875    42506.947    564.49879   -8402.4735    8.2139102 
   49000    2127.2944    24146.776    56699.089    562.87256   -8414.6196     8.300006 
   50000    2071.1918    24271.539    45989.677    548.02805   -8424.7996    8.2573415 
   51000    2089.1494    24392.346    43667.202    552.77957   -8394.1601    8.2164458 
   52000    2107.4534    24112.143    56722.405    557.62273   -8422.3786    8.3119276 
   53000    2088.5583    24323.141    48888.271    552.62317   -8392.4593    8.2398234 
   54000    2065.2364     24173.03    55369.936     546.4523   -8405.8677    8.2909914 
   55000    2063.3188    24230.848    48038.452     545.9449   -8426.1891    8.2712082 
   56000    2155.1901    24222.207    51827.183    570.25363    -8416.242    8.2741588 
   57000    2074.2795    24314.175    41221.358    548.84506   -8431.1876    8.2428618 
   58000    2056.4303    24271.136    52450.211    544.12224   -8389.4872    8.2574786 
   59000    2099.9252    24250.934    47883.186    555.63081    -8418.858    8.2643574 
   60000    2109.5095    24217.692     53540.17    558.16675   -8405.5892    8.2757015 
   61000    2095.2966    24254.006    49168.071    554.40608   -8410.1569    8.2633105 
   62000    2071.0872    24282.315     47603.88    548.00039   -8411.2945    8.2536769 
   63000     2182.295    24192.337    51045.751    577.42549   -8428.5366    8.2843748 
   64000    2152.9545    24275.788    48287.285    569.66212     -8412.58    8.2558961 
   65000    2085.1307    24228.513    50395.542    551.71624   -8416.1818    8.2720054 
   66000    2135.0845    24170.878    52690.047    564.93379   -8427.9195    8.2917297 
   67000    2143.7061    24353.658     46796.83    567.21503     -8394.22    8.2294981 
   68000    2085.1584    24262.451    50382.371    551.72357   -8403.4764    8.2604344 
   69000    2047.1389    24179.643    57355.787    541.66377   -8395.6791     8.288724 
   70000    2109.1532    24265.662    50349.134    558.07249   -8404.8236    8.2593414 
   71000    2051.5044    24297.819    47839.395    542.81887   -8407.4644    8.2484104 
   72000    2131.1963    24381.781    44871.466    563.90497   -8393.8277    8.2200061 
   73000    2091.0702    24068.356    55605.264    553.28779   -8445.2147    8.3270494 
   74000    2113.2955    24326.113    44819.391    559.16851   -8409.2228    8.2388169 
   75000    2061.7181    24143.267    57339.694    545.52137   -8407.7694    8.3012125 
   76000    2061.3629    24269.829    50156.644    545.42738   -8399.8781    8.2579232 
   77000     2146.758    24296.376     47386.12    568.02255    -8411.012    8.2489003 
   78000    2176.0935    24214.773    53248.224    575.78457   -8412.0537    8.2766989 
   79000    2125.3966    24281.061    46353.648    562.37042   -8420.2819    8.2541035 
   80000    2152.3028    24332.277    45626.665    569.48967   -8409.3499    8.2367296 
   81000    2025.4846    24107.058    59136.397    535.93414   -8410.6059    8.3136807 
   82000    2001.1497    24215.977    49604.588    529.49525   -8418.7146    8.2762876 
   83000    2120.4878    24197.679    56780.063    561.07157    -8397.189     8.282546 
   84000    2149.8926    24279.016    46010.799    568.85194   -8426.2148    8.2547986 
   85000    2097.7609     24222.82    49091.895    555.05812   -8424.5351    8.2739495 
   86000    2088.4781    24237.964    49927.818    552.60195   -8417.3217    8.2687799 
   87000    2121.7207    24295.685    48989.702    561.39778   -8404.2089     8.249135 
   88000     2076.327    24120.596    55294.983    549.38682   -8424.2179    8.3090146 
   89000    2033.6906    24236.161    49238.053    538.10541   -8414.0164    8.2693949 
   90000    2081.9627    24295.987    49328.123      550.878   -8396.9028    8.2490326 
   91000     2209.265    24363.347    51207.508    584.56162   -8375.1319    8.2262255 
   92000    2102.9992    24355.369    44507.752    556.44415   -8399.4345    8.2289203 
   93000    2123.7765    24254.526    50141.701    561.94173   -8413.4169    8.2631336 
   94000    2095.7091    24290.079    47387.684    554.51523   -8412.6215    8.2510388 
   95000    2095.5834    24194.338    57443.356    554.48197   -8396.0841    8.2836897 
   96000    2107.6969    24308.159     46035.76    557.68715   -8412.8278    8.2449018 
   97000    2054.7962    24183.144    50705.094    543.68985   -8428.6587     8.287524 
   98000    2070.0137    24071.372    59224.364    547.71635   -8422.9789    8.3260059 
   99000      2190.92    24377.474    44188.498    579.70761   -8399.8593    8.2214583 
  100000    2083.6577    24310.384    46303.471    551.32648   -8406.9541    8.2441473 
  101000    2054.6569    24184.715    50959.407      543.653   -8426.1905    8.2869856 
  102000    2129.0338    24151.492    58163.085     563.3328   -8405.6374    8.2983854 
  103000    2075.5961    24337.042    41798.132    549.19342   -8424.0961    8.2351168 
  104000    2101.7456    24101.591    59082.928    556.11247   -8417.3907    8.3155668 
  105000    2073.9179    24238.646     48306.18    548.74939   -8424.9899    8.2685472 
  106000    2098.3444    24174.183    53675.335    555.21252   -8418.9225     8.290596 
  107000    2106.1753    24292.543    50229.506    557.28455   -8397.0203    8.2502021 
  108000    2094.1615    24239.649    47606.272    554.10575   -8426.1331     8.268205 
  109000     2118.658    24299.512    45716.833    560.58742   -8415.6475     8.247836 
  110000    2135.4862    24257.288    49065.259    565.04006   -8416.7107    8.2621926 
  111000    2156.1141    24272.675    47768.291    570.49813   -8414.9813    8.2569549 
  112000    2120.7557    24128.163    53021.092    561.14244   -8440.2536    8.3064088 
  113000    2112.9658    24252.088     50087.32    559.08127   -8409.6272    8.2639642 
  114000    2141.9131    24247.066    51712.324    566.74061   -8406.6029    8.2656758 
  115000    2069.1277    24244.105     49968.59    547.48192   -8407.7583    8.2666853 
  116000      2131.06    24268.297    45506.609    563.86892   -8429.1426    8.2584445 
  117000    2143.4936    24299.842    47703.302     567.1588   -8407.8284    8.2477238 
  118000      2156.84    24298.695     47402.13    570.69019   -8410.6545    8.2481132 
  119000    2100.4464    24277.653    52155.327    555.76871   -8392.4612    8.2552621 
  120000    2056.5201     24382.26    42664.335    544.14601   -8399.6053    8.2198447 
  121000     2091.219    24127.959    61844.152    553.32716   -8392.8572    8.3064791 
  122000    2138.2679    24251.293    51086.542     565.7761   -8407.7881     8.264235 
  123000     2063.843    24362.468    44206.717    546.08361   -8398.9945    8.2265223 
  124000    2161.4134     24260.77    51599.375    571.90029   -8406.8742    8.2610068 
  125000     2068.322    24387.487    44044.093    547.26873   -8391.5707    8.2180829 
  126000    2137.7423    24184.776    54087.509    565.63702   -8416.2231    8.2869646 
  127000    2035.0715    24272.563    45232.265     538.4708   -8420.4281     8.256993 
  128000    2120.1755    24148.953    57106.936    560.98893   -8413.9901    8.2992579 
  129000    2073.6508    24244.892    52056.707    548.67869   -8399.9383     8.266417 
  130000    2075.5434    24231.943    50177.454    549.17949   -8416.0956    8.2708345 
  131000    2143.2208    24345.661    46562.031     567.0866   -8396.4767    8.2322014 
  132000    2067.5267    24168.745    54677.293    547.05829   -8419.2957    8.2924616 
  133000    2111.7609    24294.413    47715.913    558.76247    -8408.324    8.2495669 
  134000    2112.5476    24317.505    46147.427    558.97062   -8407.8443    8.2417331 
  135000    2117.2347    24299.636    44803.037    560.21081   -8422.7434    8.2477937 
  136000    2186.9982    24247.228    51925.205    578.66993   -8408.5582    8.2656204 
  137000    2045.3847    24224.452    52970.967    541.19962   -8401.8032    8.2733919 
  138000    2078.5319    24303.535    48115.657    549.97023   -8403.2084    8.2464707 
  139000     2036.806    24140.995    56824.702    538.92973    -8414.146    8.3019937 
  140000    2077.2317    24396.443    42445.092     549.6262   -8398.8629    8.2150657 
  141000    2136.9177     24242.92    48443.133    565.41884   -8424.0719    8.2670895 
  142000    2126.7028    24261.054    48263.188    562.71603   -8419.0726    8.2609102 
  143000     2112.544    24249.181    48549.143    558.96968   -8422.4896     8.264955 
  144000    2040.5281    24352.918    47922.329    539.91458    -8386.074    8.2297484 
  145000    2084.8007    24153.661    55784.249    551.62892   -8412.4789    8.2976403 
  146000    2067.4738     24388.31    41366.128    547.04431   -8407.3753    8.2178056 
  147000    2114.8845    24168.803    57239.194    559.58896   -8406.8289    8.2924415 
  148000    2161.4098    24269.328    48796.726    571.89933   -8409.8474    8.2580938 
  149000    2117.1395    24372.061    41945.541    560.18562   -8411.5975    8.2232843 
  150000    2133.6222      24168.6     54318.68    564.54688   -8423.0688    8.2925112 
  151000    2133.3426    24198.716    49129.852    564.47288    -8436.698    8.2821909 
  152000    2079.6039    24251.706    50857.593    550.25387   -8407.4349    8.2640944 
  153000    2029.8537     24185.84    52295.657    537.09019   -8417.0934    8.2866001 
  154000    2069.8504    24198.714    53410.076    547.67315   -8410.8194    8.2821916 
  155000    2053.3195    24332.091    46304.036    543.29914   -8398.2592    8.2367925 
  156000     2102.458    24229.622    56306.279    556.30097   -8385.3003    8.2716265 
  157000    2105.0532    24415.025    43630.591    556.98763   -8390.9108    8.2088135 
  158000    2173.2718    24259.197    48845.689    575.03797   -8417.0823    8.2615426 
  159000     2020.123    24279.706    51007.028    534.51549   -8389.7962    8.2545641 
  160000    2058.8708     24300.58    46907.683    544.76798   -8406.0425    8.2474735 
  161000    2119.6828    24150.622    56794.652    560.85856    -8410.151    8.2986841 
  162000    2113.3332    24342.142    43853.031    559.17848   -8410.0136    8.2333916 
  163000     2094.104    24210.087    50781.572    554.09054   -8420.9873    8.2783009 
  164000    2172.2889    24287.893    51158.263    574.77791   -8398.6831    8.2517815 
  165000     2102.315    24248.424     50265.16    556.26313   -8413.4171    8.2652129 
  166000     2056.471    24264.665    47728.682      544.133   -8416.5069    8.2596807 
  167000    2133.4421    24265.907    47845.404    564.49922   -8417.1365     8.259258 
  168000    2137.3785    24275.664    51818.222    565.54078     -8398.54    8.2559383 
  169000    2141.5403    24266.899    45075.361    566.64197    -8432.837    8.2589203 
  170000    2164.2252    24305.409    50793.843    572.64428   -8391.0805    8.2458349 
  171000     2039.216    24097.506    56106.877    539.56741   -8430.4383    8.3169764 
  172000    2049.6836    24421.751    33225.498    542.33708   -8430.0559    8.2065526 
  173000    2123.1329    24249.123    53979.832    561.77144   -8393.1795    8.2649748 
  174000    2116.3095    24160.037    55321.327      559.966   -8413.0737    8.2954502 
  175000    2004.5261    24229.604    50222.183    530.38861   -8409.4762    8.2716328 
  176000     2086.487    24248.508    49460.616    552.07512   -8410.7063    8.2651843 
  177000    2136.2011    24304.918    47128.887    565.22925   -8406.0278    8.2460012 
  178000    2089.0687      24118.8    58954.354    552.75821   -8409.6627    8.3096334 
  179000    2036.6155    24279.368    44947.577    538.87932   -8422.2734     8.254679 
  180000    2100.7607    24141.308    56791.971    555.85187   -8413.6506     8.301886 
  181000    2067.7011    24250.518    47669.149    547.10443   -8421.7816    8.2644991 
  182000    2107.4812    24209.119    55864.931    557.63008     -8396.72     8.278632 
  183000    2126.5225    24237.661    53179.069    562.66832   -8402.3741    8.2688833 
  184000    2079.5016    24372.843    41886.028    550.22679   -8407.4785    8.2230205 
  185000    2104.3981    24196.736    57171.283    556.81431   -8393.9763    8.2828688 
  186000    2105.5357    24309.444     45121.94    557.11529   -8414.9344    8.2444662 
  187000    2149.0525    24302.697    49436.638    568.62966   -8397.4198     8.246755 
  188000    2116.6699    24256.695    50822.268    560.06137   -8404.7792    8.2623946 
  189000    2060.6999    24140.323    57609.548    545.25195   -8409.5172    8.3022248 
  190000    2057.3555    24262.979    52306.464    544.36705    -8393.094    8.2602548 
  191000    2067.1385     24238.97    48652.944    546.95557   -8421.5976    8.2684366 
  192000     2114.018    24169.817    55427.485    559.35969   -8410.4618    8.2920936 
  193000     2070.174     24333.69    45597.645    547.75877   -8401.8584    8.2362514 
  194000    2148.9507    24229.778    55078.644    568.60271   -8396.8506    8.2715732 
  195000    2085.5448    24342.129    45960.695     551.8258   -8400.6969     8.233396 
  196000    2096.8108    24276.124    51670.138    554.80673   -8394.9639    8.2557819 
  197000    2020.7181    24363.476    40606.291    534.67295   -8416.2285     8.226182 
  198000    2175.9435    24178.589    52538.631     575.7449   -8431.6004    8.2890852 
  199000    2096.8403    24237.823     46060.25    554.81454   -8434.8323    8.2688279 
  200000    2100.2981    24298.856    47192.812    555.72946   -8409.7165    8.2480586 
  201000    2166.6242    24190.786    54398.663    573.27905   -8413.5939    8.2849059 
  202000    2097.0143    24194.476    52380.326    554.86059   -8421.6305    8.2836423 
  203000    2121.7654    24324.303    46709.593    561.40962    -8404.992    8.2394296 
  204000    2178.1909    24369.967    46099.602    576.33955   -8393.1046    8.2239909 
  205000    2070.2074    24232.641    50474.776    547.76759   -8413.6298     8.270596 
  206000    2071.9232    24041.035    67420.247    548.22158   -8398.0837    8.3365124 
  207000    2012.9292    24339.245     45641.56    532.61204   -8395.9767    8.2343716 
  208000    2079.1202    24117.187     59523.66    550.12588   -8411.9617    8.3101891 
  209000    2051.0082    24288.934    47996.608    542.68757   -8405.1389    8.2514277 
  210000    2095.2746    24222.905    52704.788    554.40026   -8408.4525    8.2739203 
  211000    2135.9825    24326.394    45519.839    565.17139   -8409.9858    8.2387214 
  212000    2090.5204    24234.146    50678.435    553.14234   -8414.0811    8.2700823 
  213000    2167.8258    24184.166    56064.341      573.597   -8406.8763    8.2871739 
  214000    2071.4336    24380.968    43625.022    548.09205   -8397.3689    8.2202802 
  215000    2164.6837    24333.505    48008.196     572.7656   -8396.3347     8.236314 
  216000    2067.3005    24209.153    53390.742    546.99845   -8406.2779    8.2786204 
  217000    2115.1111    24302.724    50670.136    559.64893   -8394.6563    8.2467457 
  218000    2113.2383    24300.483    49961.568    559.15339   -8394.1994    8.2475064 
  219000    2093.6447     24315.34    40679.394      553.969   -8434.2787    8.2424669 
  220000    2128.8867    24200.181     51792.26    563.29388    -8420.099    8.2816897 
  221000    2045.2038    24288.739    50503.543    541.15175   -8393.7508     8.251494 
  222000    2111.7963    24237.684    50013.839    558.77184   -8409.6634    8.2688752 
  223000    2081.0712     24308.18    48421.966    550.64211   -8396.4451    8.2448946 
  224000    2150.7124    24223.268     53314.34    569.06886   -8406.9605    8.2737963 
  225000    2099.6223    24249.876    46614.259    555.55063   -8427.0538    8.2647181 
  226000    2087.2118    24308.851    49219.344    552.26688   -8397.5708    8.2446671 
  227000    2111.7134    24352.487     48923.03    558.74989   -8380.7617    8.2298941 
  228000    2081.4321    24326.329    45798.204     550.7376   -8405.1516    8.2387434 
  229000    2119.2028    24217.807    53466.828    560.73157   -8409.3706    8.2756619 
  230000    2110.6692    24232.216    49547.074     558.4736   -8421.1563    8.2707413 
  231000    2067.4883    24294.275    49533.422    547.04812   -8396.8992    8.2496138 
  232000     2176.562    24143.342    56617.374    575.90856   -8416.2464    8.3011866 
  233000    2132.2052    24318.167    44242.705    564.17194   -8417.7224    8.2415088 
  234000     2149.607    24215.586     54428.85    568.77638   -8405.5026    8.2764209 
  235000    2133.5936     24282.45    46306.845     564.5393   -8419.1377    8.2536312 
  236000    2052.1091    24250.477    51698.537    542.97888    -8402.492     8.264513 
  237000    2122.9692    24311.557    49026.723    561.72814   -8397.2587    8.2437494 
  238000    2111.3155    24191.071    53156.026    558.64462   -8412.2132    8.2848084 
  239000    2116.8754    24404.741    37660.084    560.11574   -8418.8967    8.2122727 
  240000     2135.829    24188.385    57877.474    565.13077   -8398.3793    8.2857284 
  241000    2124.9021    24366.792      45295.6    562.23957   -8398.9243    8.2250624 
  242000    2153.3934    24260.539    49007.248    569.77824   -8417.0561    8.2610854 
  243000    2116.0686    24277.594    48812.141    559.90227    -8408.973    8.2552822 
  244000    2076.7729     24257.31    46878.649    549.50479   -8422.8397    8.2621852 
  245000    2102.3392    24338.663    46101.535    556.26952   -8402.7733    8.2345684 
  246000    2046.4889    24246.695    51083.643     541.4918   -8404.0834    8.2658022 
  247000    2099.6133    24106.773    58101.032    555.54827   -8419.1445    8.3137792 
  248000    2022.9726    24416.202    38614.944    535.26949   -8406.8065    8.2084179 
  249000    2141.9191    24164.364    56805.481     566.7422   -8410.9697     8.293965 
  250000    2074.2211    24235.357     44983.77    548.82961    -8438.946    8.2696694 
Loop time of 471.14 on 8 procs for 250000 steps with 2048 atoms

Performance: 45.846 ns/day, 0.523 hours/ns, 530.628 timesteps/s
119.1% CPU use with 4 MPI tasks x 2 OpenMP threads

MPI task timing breakdown:
Section |  min time  |  avg time  |  max time  |%varavg| %total
---------------------------------------------------------------
Pair    | 271.44     | 276.12     | 280.92     |  20.8 | 58.61
Neigh   | 4.1399     | 4.2326     | 4.2917     |   2.8 |  0.90
Comm    | 19.992     | 25.006     | 29.862     |  71.2 |  5.31
Output  | 0.0056941  | 0.010906   | 0.012664   |   2.9 |  0.00
Modify  | 164.67     | 164.91     | 165.07     |   1.3 | 35.00
Other   |            | 0.8655     |            |       |  0.18

Nlocal:        512.000 ave         523 max         501 min
Histogram: 1 0 0 0 1 1 0 0 0 1
Nghost:        3025.75 ave        3058 max        3004 min
Histogram: 1 0 1 1 0 0 0 0 0 1
Neighs:        39631.2 ave       41994 max       36721 min
Histogram: 1 0 0 0 0 1 1 0 0 1

Total # of neighbors = 158525
Ave neighs/atom = 77.404785
Neighbor list builds = 4656
Dangerous builds = 0


# fix 132 all momentum 100 linear 1 1 1 angular
fix out_file_1 all print 1000 "$(step) $(temp) $(press) ${sys_press} $(vol) $(ke) $(pe) $(density)" file one_phase_heating_press_$P_$T_.txt screen no title  "step temp press pressGiga vol ke pe density"
fix out_file_1 all print 1000 "$(step) $(temp) $(press) ${sys_press} $(vol) $(ke) $(pe) $(density)" file one_phase_heating_press_50000_$T_.txt screen no title  "step temp press pressGiga vol ke pe density"
fix out_file_1 all print 1000 "$(step) $(temp) $(press) ${sys_press} $(vol) $(ke) $(pe) $(density)" file one_phase_heating_press_50000_2100_.txt screen no title  "step temp press pressGiga vol ke pe density"

# dump 3 all custom 1000 traj_npt_new.lammpstrj id type x y z
run 50000
Last active /omp style is pair_style eam/alloy/omp
Per MPI rank memory allocation (min/avg/max) = 4.354 | 4.354 | 4.354 Mbytes
Step Temp Volume Press KinEng PotEng Density 
  250000    2074.2211    24235.357     44983.77    548.82961    -8438.946    8.2696694 
  251000    2108.8489    24146.656     54790.51    557.99197   -8421.1983    8.3000474 
  252000    2114.1143    24232.319    53956.294    559.38517   -8399.1983    8.2707059 
  253000    2089.3203    24348.143    40189.733    552.82478   -8426.7505    8.2313624 
  254000    2138.1537    24203.527    52714.351    565.74589   -8413.3901    8.2805448 
  255000    2085.0275    24274.267    51408.289    551.68892   -8396.3246    8.2564134 
  256000    2083.6807    24175.521     54198.65    551.33257   -8414.5458    8.2901373 
  257000    2100.2516    24307.988    50349.399    555.71715   -8390.5566    8.2449598 
  258000    2070.7619     24203.07    54407.364    547.91433   -8402.2953     8.280701 
  259000    2136.2111    24319.295    46436.137    565.23188   -8408.0673    8.2411265 
  260000    2157.6859    24275.163    48605.428    570.91401     -8413.33    8.2561089 
  261000    2089.9095     24302.22    44748.827    552.98068   -8416.8273    8.2469168 
  262000    2064.3004    24304.461    48247.129    546.20462   -8400.2828    8.2461565 
  263000    2130.6199    24272.788     49644.01    563.75247   -8404.7764    8.2569168 
  264000    2046.0897    24207.268    53605.997    541.38615   -8405.3115    8.2792648 
  265000    2100.3366    24150.792    53443.705    555.73965   -8428.2818    8.2986259 
  266000    2068.7077    24309.479    46613.385    547.37079   -8405.3687    8.2444543 
  267000    2108.8125    24307.328        49784    557.98233   -8394.2079    8.2451836 
  268000    2113.6634    24241.935    50805.398    559.26586   -8410.1642    8.2674254 
  269000    2111.9895    24470.305    39741.669    558.82296   -8387.1044    8.1902691 
  270000    2079.7482    24183.915      54572.2    550.29206   -8409.1126    8.2872599 
  271000     2076.187     24360.97    46847.016    549.34978   -8386.6702    8.2270283 
  272000    2041.1065    24302.324    48423.907    540.06764   -8401.2072    8.2468815 
  273000    2070.4128     24205.83    55117.662    547.82194   -8400.7823    8.2797569 
  274000    2070.1707    24264.184    50518.321    547.75788   -8403.2011    8.2598444 
  275000    2193.1595    24369.222    47035.022    580.30018   -8390.1756    8.2242422 
  276000    2096.2117     24166.24    56255.744    554.64823   -8408.7583    8.2933211 
  277000    2055.7075    24234.324    46560.522      543.931   -8430.1996    8.2700219 
  278000    2147.0989    24117.189    57317.687    568.11273   -8424.1535    8.3101884 
  279000    2085.9891    24314.064    44686.233    551.94337   -8412.2295    8.2428995 
  280000    2138.6771    24301.844    50784.841    565.88437   -8392.0466    8.2470444 
  281000    2114.6345    24179.454    54838.799    559.52281   -8409.6512    8.2887889 
  282000    2031.3471    24288.881    44649.216    537.48533   -8418.3115    8.2514459 
  283000    2142.8193    24090.662     57965.54    566.98038   -8426.3294    8.3193392 
  284000    2080.0978    24250.744    49338.184    550.38456   -8412.9284    8.2644223 
  285000    2106.6761    24226.575    54568.138    557.41704    -8396.606    8.2726669 
  286000    2141.6143    24159.118     50776.21    566.66154     -8442.26    8.2957657 
  287000    2078.6385    24413.282    40452.605    549.99843   -8399.5889    8.2093997 
  288000    2118.0802    24209.346    55860.598    560.43453   -8399.4716    8.2785543 
  289000    2057.7437    24179.011    52117.771    544.46977   -8422.5969    8.2889406 
  290000     2045.158    24348.672     46232.49    541.13965   -8393.1323    8.2311833 
  291000    2093.7426    24147.711    53927.807    553.99491   -8429.5098    8.2996845 
  292000    2098.6519    24275.811    50327.904    555.29389   -8406.0428    8.2558884 
  293000    2151.5455    24260.872    49787.868    569.28929   -8413.7025     8.260972 
  294000    2067.4174    24229.755    54892.411    547.02937    -8391.016    8.2715812 
  295000    2101.4298    24226.467    47816.636    556.02891   -8428.2483     8.272704 
  296000    2080.3797     24269.57    48671.411    550.45914   -8407.0715    8.2580115 
  297000    2136.7261    24243.344    52228.395    565.36815   -8406.1012    8.2669446 
  298000    2107.6893    24304.439    49190.579    557.68513   -8395.9627    8.2461639 
  299000    2147.8795    24219.112    52135.636    568.31929   -8415.0902    8.2752162 
  300000    2047.8311    24252.411    50577.629    541.84692   -8405.1951    8.2638541 
Loop time of 93.8861 on 8 procs for 50000 steps with 2048 atoms

Performance: 46.013 ns/day, 0.522 hours/ns, 532.560 timesteps/s
119.8% CPU use with 4 MPI tasks x 2 OpenMP threads

MPI task timing breakdown:
Section |  min time  |  avg time  |  max time  |%varavg| %total
---------------------------------------------------------------
Pair    | 54.204     | 55.14      | 56.085     |   9.1 | 58.73
Neigh   | 0.82551    | 0.84461    | 0.85866    |   1.3 |  0.90
Comm    | 3.6714     | 4.6505     | 5.6134     |  32.2 |  4.95
Output  | 0.001044   | 0.0013465  | 0.0014491  |   0.5 |  0.00
Modify  | 33.042     | 33.08      | 33.104     |   0.4 | 35.23
Other   |            | 0.1696     |            |       |  0.18

Nlocal:        512.000 ave         519 max         504 min
Histogram: 1 0 1 0 0 0 0 0 1 1
Nghost:        3032.75 ave        3048 max        3017 min
Histogram: 1 0 0 0 1 0 1 0 0 1
Neighs:        39637.5 ave       41853 max       38136 min
Histogram: 2 0 0 0 0 1 0 0 0 1

Total # of neighbors = 158550
Ave neighs/atom = 77.416992
Neighbor list builds = 930
Dangerous builds = 0

unfix temp
unfix out_file_1


write_data after_heating_press_$P_$T.in
write_data after_heating_press_50000_$T.in
write_data after_heating_press_50000_2100.in
System init for write_data ...
Last active /omp style is pair_style eam/alloy/omp
write_restart after_heating_press_$P_$T.lmp
write_restart after_heating_press_50000_$T.lmp
write_restart after_heating_press_50000_2100.lmp
System init for write_restart ...
Last active /omp style is pair_style eam/alloy/omp
next loopVar
jump in.lmp ensemble

print """
Label pachadi solti, hos garam.
"""

Label pachadi solti, hos garam.

variable T equal 2000+${loopVar}*100
variable T equal 2000+2*100
#variable T equal 1250
# velocity all create 1200 123123
reset_timestep 0
fix 1 all npt temp $T $T $(dt*100) iso $P $P $(dt*1000)
fix 1 all npt temp 2200 $T $(dt*100) iso $P $P $(dt*1000)
fix 1 all npt temp 2200 2200 $(dt*100) iso $P $P $(dt*1000)
fix 1 all npt temp 2200 2200 0.10000000000000000555 iso $P $P $(dt*1000)
fix 1 all npt temp 2200 2200 0.10000000000000000555 iso 50000 $P $(dt*1000)
fix 1 all npt temp 2200 2200 0.10000000000000000555 iso 50000 50000 $(dt*1000)
fix 1 all npt temp 2200 2200 0.10000000000000000555 iso 50000 50000 1
print """
<--------------------------------------------------------------------->
<------------------ Equilibrating at temperature $T ----------------->
<--------------------------------------------------------------------->
"""

<--------------------------------------------------------------------->
<------------------ Equilibrating at temperature 2200 ----------------->
<--------------------------------------------------------------------->

fix temp all print 1000 "$(step) $(temp) $(press) ${sys_press} $(vol) $(ke) $(pe) $(density)" file temp_heat.txt screen no title  "step temp press pressGiga vol ke pe density"
run 250000
Last active /omp style is pair_style eam/alloy/omp
Per MPI rank memory allocation (min/avg/max) = 4.354 | 4.354 | 4.354 Mbytes
Step Temp Volume Press KinEng PotEng Density 
       0    2047.8311    24252.411    50577.629    541.84692   -8405.1951    8.2638541 
    1000    2185.5435    24278.854    50348.242    578.28502   -8404.7136    8.2548536 
    2000    2173.2575    24329.197    53611.479     575.0342   -8371.6994    8.2377722 
    3000    2233.0991    24411.772    51741.917    590.86801   -8357.2018    8.2099072 
    4000     2201.948    24382.235    47313.759    582.62556   -8383.7454    8.2198531 
    5000    2161.2312    24381.849    54851.655    571.85209   -8344.6138    8.2199829 
    6000    2216.5918    24297.091    54990.326    586.50025   -8377.8418    8.2486578 
    7000    2195.0485    24496.453    41647.906    580.79999   -8376.6227    8.1815267 
    8000    2259.1295     24358.52    53916.506    597.75554   -8369.3538    8.2278557 
    9000    2202.6623    24466.925    44799.913    582.81457   -8372.1249    8.1914009 
   10000    2122.0118    24408.088    47509.461    561.47482   -8371.6334    8.2111465 
   11000    2164.4056    24400.412    53063.195    572.69201    -8350.609    8.2137297 
   12000    2210.8139    24543.401    41702.366    584.97145   -8358.1093    8.1658766 
   13000    2281.4485    24357.536    54053.076    603.66103   -8363.4374    8.2281882 
   14000    2248.8437    24313.412    52308.591    595.03397   -8388.5949    8.2431204 
   15000    2195.3806    24382.286    47140.445    580.88786   -8386.3404    8.2198359 
   16000    2171.1362    24578.593    43342.776    574.47291   -8338.5292    8.1541848 
   17000     2222.261    24275.229    58074.217    588.00031   -8367.3087    8.2560864 
   18000    2207.5768    24522.173    44188.296    584.11493   -8351.2055    8.1729456 
   19000    2226.0896    24480.941     47444.79    589.01333   -8352.5913    8.1867108 
   20000    2156.1949    24277.981    53509.986    570.51951   -8386.1601    8.2551504 
   21000    2221.5466    24391.781    47169.217    587.81128   -8386.2263    8.2166359 
   22000    2206.8692    24419.923    44496.894     583.9277   -8386.6396    8.2071671 
   23000    2306.5087    24198.068    60882.166    610.29186   -8385.4578    8.2824129 
   24000    2207.2444    24417.478    45093.425    584.02697   -8385.0327    8.2079888 
   25000     2245.337    24404.063    47077.336    594.10609   -8382.4232    8.2125007 
   26000    2202.8658    24290.838    57774.039    582.86841   -8364.8308    8.2507809 
   27000    2141.0449    24393.919     50488.11    566.51088   -8363.7987    8.2159158 
   28000    2261.5039    24360.376     49594.84    598.38378   -8381.0163    8.2272288 
   29000    2050.6898    24409.549    52204.151    542.60334   -8341.6954    8.2106549 
   30000    2220.5269    24386.501    49375.851    587.54146   -8373.8142     8.218415 
   31000    2223.2714    24527.238    43873.854    588.26764   -8356.0064    8.1712578 
   32000    2210.2729    24491.378    45070.488     584.8283   -8363.8619     8.183222 
   33000    2189.8674    24473.053    50448.093    579.42909    -8338.586    8.1893496 
   34000    2209.2872    24468.848    44762.306    584.56749   -8372.0381    8.1907569 
   35000    2242.5548    24393.116    49377.637    593.36994   -8375.0856    8.2161865 
   36000    2248.3886    24315.099    59986.793    594.91353   -8350.3941    8.2425486 
   37000    2127.0983     24439.89    51954.535    562.82066   -8337.9682    8.2004618 
   38000    2253.8876    24565.137     37853.06    596.36856   -8374.2929    8.1586513 
   39000    2196.5942    24420.927    51164.263    581.20899    -8352.299    8.2068297 
   40000    2199.6417    24382.819    49138.427    582.01532   -8376.0668    8.2196559 
   41000    2320.9739    24428.149    47963.155     614.1193   -8375.2238    8.2044033 
   42000    2205.4943     24386.57    49230.116    583.56391    -8375.565    8.2183918 
   43000    2194.1872    24313.507    54978.516    580.57211   -8372.3939    8.2430884 
   44000    2195.3352    24344.559    51616.628    580.87584   -8377.0174     8.232574 
   45000    2188.6193    24365.872    51445.122    579.09886   -8370.0389     8.225373 
   46000    2137.7674    24373.621    49978.951    565.64367   -8372.9281     8.222758 
   47000    2190.1002    24521.096    47478.132     579.4907   -8337.3206    8.1733047 
   48000    2218.5573    24313.416    53227.413    587.02032    -8381.335    8.2431192 
   49000    2171.7636    24286.043    53197.838    574.63891   -8388.1316    8.2524099 
   50000    2197.5484    24372.264    51526.653    581.46146   -8370.9384    8.2232157 
   51000    2166.1598    24416.654    48215.331    573.15617   -8369.9296    8.2082657 
   52000    2205.3872     24449.72    49838.315    583.53558   -8345.6401    8.1971648 
   53000    2208.2105    24365.709    52903.947    584.28259    -8362.644    8.2254279 
   54000     2143.925    24462.136    45506.337    567.27294    -8363.721    8.1930042 
   55000      2232.33    24372.098    51963.754    590.66451   -8368.9757    8.2232718 
   56000    2259.2687    24397.191     49073.12    597.79237   -8374.4711    8.2148141 
   57000    2263.0262    24462.537    47362.153     598.7866   -8360.8948      8.19287 
   58000    2219.0241    24324.289    54227.728    587.14383    -8370.933    8.2394345 
   59000    2260.7999    24351.171      53179.5    598.19751   -8366.8914    8.2303389 
   60000    2166.7192    24413.692    49770.579    573.30417   -8361.5666    8.2092618 
   61000    2236.4871    24367.015    50572.559    591.76447   -8376.7697    8.2249873 
   62000    2188.9054    24480.939    43455.772    579.17456   -8370.5935    8.1867117 
   63000    2254.7232    24430.452    51092.625    596.58966   -8351.2902      8.20363 
   64000    2166.2592    24438.363    50971.812    573.18247   -8349.0506    8.2009743 
   65000    2148.4964    24485.107    40242.101    568.48251   -8384.0203    8.1853179 
   66000    2258.8842    24326.439    54589.378    597.69064   -8369.7566    8.2387064 
   67000    2269.7457     24388.61     48378.17    600.56453   -8384.1316    8.2177045 
   68000     2173.773    24364.088    47949.451    575.17059   -8384.0714    8.2259753 
   69000     2289.973     24448.22    45317.134    605.91658   -8375.7474    8.1976677 
   70000    2169.4342    24399.327    50862.436    574.02256   -8361.0801    8.2140947 
   71000    2191.5221    24553.555    44397.164    579.86692   -8344.2004    8.1624998 
   72000    2230.6104    24521.973    47675.824    590.20951   -8337.9342    8.1730122 
   73000    2228.8919    24224.662    56490.795     589.7548   -8391.5809    8.2733204 
   74000    2176.6523    24362.579    49934.344    575.93245   -8376.5421     8.226485 
   75000    2274.2254    24453.892     42771.17    601.74985   -8387.9593    8.1957664 
   76000    2210.5492    24280.326    59752.954     584.9014   -8355.4801    8.2543531 
   77000    2140.5327    24488.546    43181.553    566.37534   -8370.8515    8.1841686 
   78000    2224.9035    24411.514    47615.067     588.6995   -8376.0212     8.209994 
   79000    2217.7176    24369.176    53521.532    586.79812   -8358.3719    8.2242579 
   80000    2189.6834    24329.346    49115.675    579.38041   -8394.7624    8.2377218 
   81000     2226.498    24269.873    56748.084    589.12138   -8378.1929    8.2579082 
   82000    2226.3511     24616.89    37845.036    589.08251   -8355.2949    8.1414991 
   83000    2194.6041    24512.357    45734.941    580.68241   -8353.1185    8.1762185 
   84000    2215.9174    24343.927    53555.754    586.32182   -8365.7214    8.2327877 
   85000    2203.1722    24432.839    49029.387     582.9495     -8361.08    8.2028284 
   86000    2185.7977    24392.285    51141.545    578.35226   -8361.3379    8.2164661 
   87000    2257.8789    24518.111    38778.075    597.42464    -8388.519    8.1742995 
   88000    2267.4569     24422.32    49818.115    599.95892    -8365.133    8.2063616 
   89000    2237.0865    24382.616    51971.849    591.92307   -8364.2185    8.2197244 
   90000    2196.2566     24359.24    50714.545    581.11964   -8375.7045    8.2276126 
   91000    2141.2273    24360.898    50583.095    566.55915   -8371.1816    8.2270524 
   92000     2211.501    24433.034    47338.448    585.15325   -8366.7554    8.2027629 
   93000    2196.2174    24319.738    53211.578    581.10927   -8376.9756    8.2409762 
   94000    2152.0129    24240.253    52092.429    569.41296   -8406.5926    8.2679988 
   95000    2191.8973    24560.695    41080.848     579.9662   -8354.0888    8.1601267 
   96000    2199.0391    24386.611    54191.329    581.85588    -8352.502    8.2183778 
   97000    2176.8721    24342.868     52317.33    575.99061   -8368.6177    8.2331458 
   98000    2197.2316     24397.47    45578.758    581.37764   -8387.7737    8.2147201 
   99000    2116.9684    24222.148    62722.194    560.14034   -8360.5485    8.2741791 
  100000    2229.4858    24439.787    44405.952    589.91195   -8381.3496    8.2004965 
  101000    2219.1048    24459.711    46117.935    587.16517   -8368.2634    8.1938167 
  102000    2193.8701    24454.816     49396.39    580.48818   -8352.9259    8.1954567 
  103000     2187.145    24400.015     49994.74    578.70876   -8368.3967    8.2138632 
  104000    2233.7381    24321.892    51786.616    591.03709    -8386.211    8.2402465 
  105000    2219.2579    24441.903    45820.477    587.20568   -8376.8001    8.1997864 
  106000    2211.2992     24361.32    49314.933    585.09985   -8383.6562      8.22691 
  107000     2177.544    24336.745    52691.988    576.16837   -8370.2728    8.2352175 
  108000    2181.8593    24406.463    48211.326    577.31018   -8372.0793    8.2116932 
  109000    2151.3928    24440.295    51184.764     569.2489   -8347.6173    8.2003261 
  110000     2216.006    24288.192    54457.549    586.34526   -8382.2424    8.2516799 
  111000    2158.4859    24511.271    44878.477    571.12569   -8352.3767    8.1765808 
  112000     2194.812    24336.576    55857.425     580.7374   -8359.0294    8.2352746 
  113000    2215.4944    24347.121    54012.531    586.20988   -8366.1154    8.2317079 
  114000    2205.8563    24347.724    47653.395    583.65968   -8395.7159    8.2315041 
  115000    2188.8532    24415.751    51976.073    579.16075   -8350.0733    8.2085696 
  116000     2212.863    24325.657    51913.675    585.51363   -8380.6526     8.238971 
  117000    2187.6879    24284.292    53461.744    578.85242   -8384.8191     8.253005 
  118000    2212.8949    24388.414    47410.052    585.52208   -8382.0289    8.2177705 
  119000    2150.7185    24433.697    46324.677    569.07047   -8368.4821    8.2025404 
  120000    2249.5019    24356.777     56770.95    595.20813   -8348.2264    8.2284443 
  121000    2223.9941    24463.306    43332.158    588.45888   -8378.3952    8.1926126 
  122000    2236.1358    24382.722    48184.096    591.67151   -8382.3351    8.2196887 
  123000    2272.5707     24329.41    52116.517    601.31202   -8384.0386    8.2377001 
  124000    2184.5414    24504.541    36550.726    578.01986   -8393.2367    8.1788265 
  125000    2339.2204    24294.012     57028.27    618.94724   -8372.5341     8.249703 
  126000    2150.7951    24402.045    50012.218    569.09073   -8362.4183    8.2131798 
  127000    2172.8161    24396.543     50027.33     574.9174   -8366.3472    8.2150324 
  128000      2167.67    24321.028    54799.154    573.55575   -8367.8101    8.2405391 
  129000    2137.6475    24385.797    50226.046    565.61195   -8367.8439    8.2186522 
  130000    2229.7693    24277.623    57045.023    589.98696   -8375.4602    8.2552721 
  131000    2222.0898    24463.263    46449.037    587.95499   -8364.3327    8.1926269 
  132000    2169.5851     24304.79    54038.415    574.06248   -8377.3185    8.2460446 
  133000    2181.5075    24420.394    44506.341    577.21711   -8383.2694    8.2070089 
  134000    2232.1382    24507.861    39434.291    590.61376   -8384.8964    8.1777183 
  135000    2317.6902    24301.657    57930.496    613.25043   -8364.4215    8.2471079 
  136000    2166.1597    24476.742    46049.069    573.15615   -8359.9462    8.1881155 
  137000    2230.4729    24411.068    52056.272    590.17313   -8353.9708    8.2101442 
  138000     2226.432     24351.23    51956.239    589.10393   -8371.8815    8.2303189 
  139000    2219.6268    24385.585    49395.592    587.30331   -8371.5974    8.2187237 
  140000     2148.444    24327.283      53535.6    568.46866   -8370.9844    8.2384205 
  141000    2263.4354    24423.085    45259.054    598.89485    -8388.386    8.2061043 
  142000    2204.4086    24464.467    46301.608    583.27664   -8365.6713    8.1922239 
  143000    2227.7178    24230.671    60834.886    589.44413   -8370.2948    8.2712684 
  144000     2186.053    24438.124    47109.143    578.41981     -8366.15    8.2010546 
  145000    2173.5583    24369.165     48389.44    575.11379   -8382.4113    8.2242614 
  146000     2322.725    24355.052    53288.713    614.58262   -8368.8893    8.2290272 
  147000     2181.902    24432.477    47323.726    577.32149   -8364.8171    8.2029498 
  148000    2157.0031    24302.114     57389.97    570.73334   -8357.6865    8.2469527 
  149000    2220.2236    24330.254    53632.845    587.46122    -8370.488    8.2374145 
  150000    2158.6272    24366.499    44672.816    571.16309   -8402.3979    8.2251615 
  151000    2190.2904    24344.323    54461.817    579.54101   -8362.6306    8.2326539 
  152000    2228.3013    24303.184    55020.224    589.59854   -8375.7287    8.2465896 
  153000    2216.3537    24492.434    45898.069    586.43725   -8360.6934    8.1828692 
  154000    2212.8186    24469.437    46207.221    585.50188   -8360.6825    8.1905597 
  155000    2151.8951    24412.866    51320.127     569.3818   -8351.8513    8.2095395 
  156000    2135.7646    24347.692    49222.829    565.11375   -8386.1296    8.2315147 
  157000    2168.0983    24313.679    55911.801    573.66909   -8362.6577      8.24303 
  158000    2216.4025    24413.213    48730.683    586.45016   -8368.8236    8.2094226 
  159000     2205.233    24574.649    36606.162    583.49477   -8371.8171    8.1554935 
  160000    2231.0038     24277.47    53276.208     590.3136   -8392.5606    8.2553242 
  161000    2232.0894    24350.977    49130.542    590.60086   -8387.5985    8.2304045 
  162000     2203.869    24537.452    40841.867    583.13386   -8368.0258    8.1678566 
  163000    2216.5374    24341.744    52611.426    586.48585   -8375.1924    8.2335262 
  164000    2169.0303    24324.452    55548.106    573.91569   -8361.1754    8.2393792 
  165000    2197.6824    24602.446    37929.855     581.4969   -8356.8686    8.1462789 
  166000    2212.3001    24199.406    58229.568    585.36468   -8396.7328    8.2819548 
  167000     2194.689    24391.624    49928.855    580.70488     -8365.69    8.2166887 
  168000    2202.0574    24352.002    52313.329    582.65452   -8369.9461     8.230058 
  169000    2172.3349    24401.136     46912.46    574.79009   -8379.7126     8.213486 
  170000    2144.7808    24409.527    46398.843    567.49939   -8376.8861    8.2106623 
  171000    2202.5209    24303.721     54384.89    582.77716    -8373.944    8.2464074 
  172000    2145.6753    24300.328    52641.188    567.73606   -8383.3505    8.2475588 
  173000    2210.6895    24474.402    45912.182    584.93853   -8363.2184    8.1888981 
  174000    2206.5864    24296.151    56117.459    583.85287   -8371.7686     8.248977 
  175000    2188.4659    24415.139    46284.728    579.05825   -8378.6361     8.208775 
  176000    2109.0127     24306.49    55505.587     558.0353   -8364.6148    8.2454679 
  177000    2160.9716    24281.826        54209     571.7834   -8386.7566    8.2538434 
  178000    2172.1029    24374.375    49146.123    574.72869   -8375.3251    8.2225038 
  179000    2183.5576    24404.016    53228.566    577.75955   -8348.2198    8.2125167 
  180000    2172.8795    24488.742    44677.499    574.93418   -8361.0402    8.1841031 
  181000    2243.7892    24394.768    49875.825    593.69657    -8370.788    8.2156301 
  182000    2194.4057    24300.902     57422.22    580.62992   -8362.0023    8.2473641 
  183000    2148.8771    24404.823    46600.567    568.58325   -8378.5373    8.2122449 
  184000    2152.5179    24217.385    62203.674    569.54658    -8361.466    8.2758064 
  185000    2165.2634    24455.164    47536.569      572.919   -8359.1041      8.19534 
  186000    2218.1381    24409.123     50591.46    586.90939   -8359.6313    8.2107982 
  187000    2196.4922    24296.016    53187.538    581.18199   -8383.9399    8.2490227 
  188000    2268.9365    24392.855    48435.234    600.35042   -8379.9982    8.2162743 
  189000    2162.7936    24515.296    41353.144     572.2655   -8368.7914    8.1752383 
  190000    2183.5883    24387.273    52239.074    577.76768   -8360.3818     8.218155 
  191000    2277.5241    24302.656    57944.816    602.62265   -8365.9836    8.2467687 
  192000    2206.8849    24369.645    50277.167    583.93186   -8375.8641    8.2240995 
  193000    2239.1397    24317.131    50255.271    592.46634   -8394.0112      8.24186 
  194000    2212.2212    24371.818    48627.811    585.34382   -8381.6132    8.2233664 
  195000    2131.4876    24458.586     44335.28    563.98207   -8370.1788    8.1941934 
  196000    2230.1085     24385.18    53881.919     590.0767   -8354.9452    8.2188603 
  197000    2252.3343    24392.083     51008.65    595.95755   -8366.1028    8.2165343 
  198000    2244.9312    24568.894    38385.256    593.99873    -8369.193    8.1574038 
  199000    2167.2897    24305.916    56804.687    573.45513   -8360.7708    8.2456628 
  200000      2176.28    24420.854    48432.266    575.83392   -8366.0245    8.2068542 
  201000    2202.2303    24482.278    45899.791    582.70026   -8360.7608    8.1862637 
  202000    2207.7022    24312.338    55428.812    584.14811   -8366.6061    8.2434847 
  203000    2170.1058     24434.59    47742.665    574.20026   -8362.0469    8.2022406 
  204000    2194.4647    24378.756    47089.456    580.64553   -8385.4342    8.2210258 
  205000    2193.2555    24384.586    49395.485    580.32558   -8372.3882    8.2190603 
  206000     2202.626     24437.07    45384.489    582.80498   -8376.4011    8.2014081 
  207000    2131.4659    24336.133    48419.008    563.97632   -8392.2503    8.2354246 
  208000    2220.3847    24298.149    58265.149    587.50384    -8360.734    8.2482984 
  209000    2241.5513    24359.527     52009.45    593.10442   -8372.4467    8.2275156 
  210000    2203.8076    24339.227    53835.326    583.11761   -8369.2441    8.2343778 
  211000    2152.1194    24330.294    54394.725    569.44116   -8366.7182    8.2374011 
  212000    2211.7651    24426.722    45927.575    585.22313   -8378.8651    8.2048824 
  213000    2215.6254    24222.539    57478.718    586.24455   -8392.4885    8.2740455 
  214000    2268.0691    24442.188    47130.593    600.12091   -8372.0155     8.199691 
  215000    2163.2896    24411.955    45342.547    572.39673   -8382.4676    8.2098459 
  216000    2172.6968    24375.878    52927.748    574.88582   -8359.0091    8.2219967 
  217000    2215.8717    24383.323    53291.936    586.30971   -8357.4216     8.219486 
  218000    2128.1062    24481.765    40095.052    563.08736   -8381.9314    8.1864353 
  219000     2226.741    24371.123    50855.613    589.18568    -8373.176    8.2236007 
  220000    2221.3376    24402.884    49542.928    587.75598   -8368.4238    8.2128977 
  221000    2174.5664      24321.6    53238.375    575.38051   -8374.3226    8.2403456 
  222000    2201.5242    24344.419    52076.102    582.51342   -8370.9947    8.2326214 
  223000    2203.2602    24509.026    38948.055    582.97276   -8384.5845    8.1773298 
  224000    2194.3386    24322.481    56547.046    580.61215    -8358.357    8.2400471 
  225000    2192.2247    24477.452     47080.56    580.05282   -8356.0841    8.1878777 
  226000    2195.2834    24387.747    51938.849    580.86214   -8361.7844    8.2179953 
  227000    2189.6189    24275.596    53828.034    579.36334   -8391.3252    8.2559615 
  228000    2203.4291    24548.695    40754.478    583.01745    -8362.874    8.1641158 
  229000    2131.6727    24405.058    46313.028    564.03103   -8377.7568    8.2121659 
  230000     2193.126    24371.749    53842.915     580.2913     -8355.72    8.2233894 
  231000    2191.8243    24363.037    54322.076    579.94688   -8356.6772    8.2263303 
  232000    2171.8225    24507.882    44912.539    574.65451   -8354.7397    8.1777112 
  233000    2254.2978    24449.011    47477.107    596.47709   -8365.1805    8.1974025 
  234000    2223.9104    24346.012    52364.305    588.43673   -8373.2381    8.2320827 
  235000    2145.9678    24500.379    42253.795    567.81345   -8366.7564    8.1802157 
  236000    2200.7032    24319.295    56888.373    582.29619   -8358.1527    8.2411264 
  237000    2175.3295    24433.054    49169.309    575.58244   -8356.0062    8.2027562 
  238000    2203.2585    24350.893    49756.125    582.97233   -8383.4478    8.2304326 
  239000    2148.6334    24313.281     54464.29    568.51876   -8373.2573    8.2431648 
  240000    2203.0316    24289.799    59315.406    582.91229   -8360.7568    8.2511338 
  241000    2199.3664      24403.6    46383.464    581.94248   -8380.8617    8.2126566 
  242000    2247.5318    24417.936    46739.678    594.68684   -8380.9515    8.2078348 
  243000    2195.1646    24424.168    47763.703    580.83072   -8369.8351    8.2057404 
  244000    2180.1067    24332.258    52051.804    576.84646   -8377.7218    8.2367361 
  245000    2201.4903    24325.987    54918.556    582.50446   -8366.8918    8.2388594 
  246000      2190.28    24307.016     52030.86    579.53827   -8382.8487    8.2452896 
  247000    2222.0832    24481.314    47277.659    587.95326   -8353.3228    8.1865863 
  248000    2226.9189    24347.606    51551.342    589.23275   -8377.4354    8.2315439 
  249000      2199.48    24272.994    55573.132    581.97254   -8380.5214    8.2568465 
  250000     2168.894    24412.455    46233.592    573.87962   -8379.3526    8.2096775 
Loop time of 482.613 on 8 procs for 250000 steps with 2048 atoms

Performance: 44.756 ns/day, 0.536 hours/ns, 518.014 timesteps/s
119.7% CPU use with 4 MPI tasks x 2 OpenMP threads

MPI task timing breakdown:
Section |  min time  |  avg time  |  max time  |%varavg| %total
---------------------------------------------------------------
Pair    | 279.17     | 283.37     | 288.19     |  19.8 | 58.72
Neigh   | 4.3737     | 4.4805     | 4.5591     |   3.2 |  0.93
Comm    | 19.687     | 24.682     | 29.017     |  68.8 |  5.11
Output  | 0.0059644  | 0.011394   | 0.013221   |   2.9 |  0.00
Modify  | 168.94     | 169.17     | 169.32     |   1.1 | 35.05
Other   |            | 0.8951     |            |       |  0.19

Nlocal:        512.000 ave         518 max         499 min
Histogram: 1 0 0 0 0 0 0 0 2 1
Nghost:        3013.50 ave        3039 max        2991 min
Histogram: 2 0 0 0 0 0 0 0 1 1
Neighs:        39454.0 ave       41637 max       37853 min
Histogram: 1 0 1 0 1 0 0 0 0 1

Total # of neighbors = 157816
Ave neighs/atom = 77.058594
Neighbor list builds = 4808
Dangerous builds = 0


# fix 132 all momentum 100 linear 1 1 1 angular
fix out_file_1 all print 1000 "$(step) $(temp) $(press) ${sys_press} $(vol) $(ke) $(pe) $(density)" file one_phase_heating_press_$P_$T_.txt screen no title  "step temp press pressGiga vol ke pe density"
fix out_file_1 all print 1000 "$(step) $(temp) $(press) ${sys_press} $(vol) $(ke) $(pe) $(density)" file one_phase_heating_press_50000_$T_.txt screen no title  "step temp press pressGiga vol ke pe density"
fix out_file_1 all print 1000 "$(step) $(temp) $(press) ${sys_press} $(vol) $(ke) $(pe) $(density)" file one_phase_heating_press_50000_2200_.txt screen no title  "step temp press pressGiga vol ke pe density"

# dump 3 all custom 1000 traj_npt_new.lammpstrj id type x y z
run 50000
Last active /omp style is pair_style eam/alloy/omp
Per MPI rank memory allocation (min/avg/max) = 4.354 | 4.354 | 4.354 Mbytes
Step Temp Volume Press KinEng PotEng Density 
  250000     2168.894    24412.455    46233.592    573.87962   -8379.3526    8.2096775 
  251000    2161.4248    24397.433    49289.499    571.90332   -8368.8848    8.2147326 
  252000    2185.6166    24356.271    51894.347    578.30435   -8371.9004    8.2286155 
  253000    2177.2626    24441.751     46177.71    576.09392   -8370.7907    8.1998375 
  254000    2221.9277    24310.943    54562.407    587.91212   -8374.2527    8.2439579 
  255000    2197.5352    24462.913    49534.899    581.45797   -8347.5083    8.1927442 
  256000    2162.0177    24414.083    46718.143     572.0602   -8374.7984    8.2091302 
  257000    2217.4711     24303.81     56674.95    586.73292   -8364.3612    8.2463772 
  258000    2225.9224    24452.555    46331.653    588.96909   -8369.6079    8.1962144 
  259000    2261.0594    24361.918    49464.757    598.26619   -8389.1599    8.2267079 
  260000    2168.7769    24263.389    56335.282    573.84864   -8380.0391    8.2601152 
  261000    2198.2311    24482.121    44664.005    581.64209   -8366.8967    8.1863162 
  262000    2271.1341    24343.013    57997.548    600.93191    -8349.612     8.233097 
  263000    2194.6333    24434.134    45439.555    580.69012   -8375.4781    8.2023935 
  264000    2182.3707    24389.062    47969.048     577.4455   -8377.1323    8.2175522 
  265000    2215.8116    24315.764    54742.281    586.29381   -8369.3027    8.2423231 
  266000    2120.3935    24464.374    44119.342    561.04661   -8371.5018    8.1922549 
  267000    2206.0256    24287.036    54617.991    583.70449   -8383.0624    8.2520728 
  268000     2207.792    24384.985    51635.065    584.17187   -8358.3881    8.2189259 
  269000    2144.1081    24390.053    52164.632    567.32139   -8355.7773    8.2172182 
  270000    2219.6261    24348.326    52654.238    587.30313   -8371.3285    8.2313003 
  271000    2175.7802    24301.073    52257.598    575.70169   -8385.1851    8.2473061 
  272000    2170.6153    24379.806    46323.496    574.33508   -8390.2503    8.2206718 
  273000    2198.2855    24414.693    49395.184    581.65648   -8363.7036    8.2089252 
  274000    2261.1015    24409.386    48877.998    598.27731   -8372.0574    8.2107098 
  275000    2124.0661    24475.071    43563.352    562.01838   -8370.0109    8.1886745 
  276000    2214.4535    24391.867    54269.287    585.93446   -8345.0372     8.216607 
  277000      2165.14    24487.786    46745.962    572.88634   -8352.7627    8.1844224 
  278000    2253.9403    24451.424    47619.981     596.3825   -8365.2392    8.1965938 
  279000    2229.5728    24400.929    46028.567    589.93498   -8389.5207    8.2135556 
  280000    2189.6407     24343.28    54090.368    579.36912   -8366.4641    8.2330066 
  281000    2179.8482    24193.174     60465.93    576.77806   -8382.4524    8.2840883 
  282000    2232.5442     24412.96    46116.401     590.7212   -8383.2039    8.2095079 
  283000    2200.6466    24385.426    45203.368    582.28123   -8395.3204    8.2187772 
  284000    2255.4654    24353.282    51304.678    596.78603   -8379.2144    8.2296254 
  285000     2169.836    24368.425    48408.452    574.12887   -8381.1589    8.2245112 
  286000    2192.6475     24366.14    51118.784     580.1647   -8371.4147    8.2252826 
  287000    2251.1156    24352.876    48492.776     595.6351   -8392.2971    8.2297625 
  288000    2229.5139     24410.83    43888.372    589.91939   -8393.6068    8.2102241 
  289000    2275.0589    24303.404    57505.742     601.9704   -8367.6159    8.2465151 
  290000    2186.3904    24363.683    48786.722    578.50909   -8382.5932    8.2261121 
  291000     2246.862    24421.611    49455.947     594.5096   -8363.4285    8.2065997 
  292000    2187.6874    24349.127    49737.976    578.85228   -8381.2074    8.2310296 
  293000    2124.8669    24379.725    45442.889    562.23025   -8390.7994    8.2206991 
  294000    2226.8822    24381.348    50483.008    589.22304   -8374.1654    8.2201519 
  295000    2263.8261    24361.338    51770.183    598.99824   -8373.7237    8.2269039 
  296000    2289.0725    24436.289    46027.591    605.67832   -8380.5149    8.2016703 
  297000    2165.2994    24425.534    46095.265    572.92852   -8374.0121    8.2052815 
  298000    2267.4014    24271.584    62602.855    599.94425   -8349.8304    8.2573261 
  299000    2125.6349    24397.447    50704.494    562.43346   -8358.6587    8.2147279 
  300000     2209.774    24397.419    46110.237     584.6963   -8389.0416    8.2147372 
Loop time of 95.2153 on 8 procs for 50000 steps with 2048 atoms

Performance: 45.371 ns/day, 0.529 hours/ns, 525.125 timesteps/s
119.2% CPU use with 4 MPI tasks x 2 OpenMP threads

MPI task timing breakdown:
Section |  min time  |  avg time  |  max time  |%varavg| %total
---------------------------------------------------------------
Pair    | 55.346     | 56.008     | 56.924     |   8.0 | 58.82
Neigh   | 0.8646     | 0.88607    | 0.9016     |   1.5 |  0.93
Comm    | 3.9331     | 4.8823     | 5.5712     |  27.8 |  5.13
Output  | 0.001028   | 0.0017     | 0.0019285  |   0.9 |  0.00
Modify  | 33.212     | 33.258     | 33.287     |   0.5 | 34.93
Other   |            | 0.1794     |            |       |  0.19

Nlocal:        512.000 ave         520 max         500 min
Histogram: 1 0 0 0 0 0 1 1 0 1
Nghost:        3026.25 ave        3046 max        3002 min
Histogram: 1 0 0 1 0 0 0 0 1 1
Neighs:        39361.5 ave       41223 max       36233 min
Histogram: 1 0 0 0 0 1 0 0 0 2

Total # of neighbors = 157446
Ave neighs/atom = 76.877930
Neighbor list builds = 965
Dangerous builds = 0

unfix temp
unfix out_file_1


write_data after_heating_press_$P_$T.in
write_data after_heating_press_50000_$T.in
write_data after_heating_press_50000_2200.in
System init for write_data ...
Last active /omp style is pair_style eam/alloy/omp
write_restart after_heating_press_$P_$T.lmp
write_restart after_heating_press_50000_$T.lmp
write_restart after_heating_press_50000_2200.lmp
System init for write_restart ...
Last active /omp style is pair_style eam/alloy/omp
next loopVar
jump in.lmp ensemble

print """
Label pachadi solti, hos garam.
"""

Label pachadi solti, hos garam.

variable T equal 2000+${loopVar}*100
variable T equal 2000+3*100
#variable T equal 1250
# velocity all create 1200 123123
reset_timestep 0
fix 1 all npt temp $T $T $(dt*100) iso $P $P $(dt*1000)
fix 1 all npt temp 2300 $T $(dt*100) iso $P $P $(dt*1000)
fix 1 all npt temp 2300 2300 $(dt*100) iso $P $P $(dt*1000)
fix 1 all npt temp 2300 2300 0.10000000000000000555 iso $P $P $(dt*1000)
fix 1 all npt temp 2300 2300 0.10000000000000000555 iso 50000 $P $(dt*1000)
fix 1 all npt temp 2300 2300 0.10000000000000000555 iso 50000 50000 $(dt*1000)
fix 1 all npt temp 2300 2300 0.10000000000000000555 iso 50000 50000 1
print """
<--------------------------------------------------------------------->
<------------------ Equilibrating at temperature $T ----------------->
<--------------------------------------------------------------------->
"""

<--------------------------------------------------------------------->
<------------------ Equilibrating at temperature 2300 ----------------->
<--------------------------------------------------------------------->

fix temp all print 1000 "$(step) $(temp) $(press) ${sys_press} $(vol) $(ke) $(pe) $(density)" file temp_heat.txt screen no title  "step temp press pressGiga vol ke pe density"
run 250000
Last active /omp style is pair_style eam/alloy/omp
Per MPI rank memory allocation (min/avg/max) = 4.354 | 4.354 | 4.354 Mbytes
Step Temp Volume Press KinEng PotEng Density 
       0     2209.774    24397.419    46110.237     584.6963   -8389.0416    8.2147372 
    1000     2264.549    24464.559    53473.358    599.18952   -8328.2378    8.1921928 
    2000    2328.2695    24258.131    66507.314    616.04968   -8341.5315    8.2619054 
    3000     2311.882    24585.421    42226.928     611.7136   -8347.1197    8.1519199 
    4000    2236.6102    24504.431    49637.237    591.79704   -8333.2045    8.1788631 
    5000    2291.7759    24431.591    56774.673    606.39363   -8328.6154    8.2032473 
    6000    2279.8023    24534.894    49447.462    603.22546   -8326.0028     8.168708 
    7000    2243.4755    24645.226    41894.228    593.61357   -8328.3526    8.1321382 
    8000    2351.1066    24341.995    59528.128    622.09227   -8343.7289    8.2334411 
    9000    2383.4957    24616.342    47006.325    630.66228    -8321.585    8.1416802 
   10000    2283.0759    24558.935    48034.695    604.09165   -8330.6695    8.1607115 
   11000    2270.7746     24581.15    47009.231    600.83677   -8326.3548    8.1533364 
   12000    2363.3693    24562.411    50988.529    625.33693   -8317.4032    8.1595569 
   13000    2301.9814     24648.85    47439.598    609.09395   -8306.4941    8.1309428 
   14000     2326.125    24550.198    46463.698    615.48224    -8339.206    8.1636158 
   15000    2345.3213    24443.265    55242.177     620.5615   -8335.2843    8.1993296 
   16000    2310.0883    24672.302    43944.374      611.239    -8314.256    8.1232138 
   17000     2287.312    24475.376    51460.025    605.21249   -8340.7827    8.1885724 
   18000    2292.2768    24622.917    44499.541    606.52617   -8328.1095    8.1395064 
   19000    2297.0494    24549.572    47758.579    607.78898      -8336.4    8.1638241 
   20000    2294.2362    24475.987    51221.562    607.04462   -8341.0148    8.1883679 
   21000    2355.2141    24643.108    46139.746    623.17909   -8317.3251    8.1328373 
   22000    2283.4926    24562.312    52492.891    604.20191   -8305.9525    8.1595896 
   23000    2380.2874    24630.132    44709.279    629.81337   -8322.8709     8.137122 
   24000     2363.789    24532.793    53732.859    625.44797   -8310.0203    8.1694077 
   25000    2285.1373    24552.485     50137.53    604.63707   -8314.2402    8.1628555 
   26000    2227.6888    24657.016    42884.439    589.43648   -8318.5691    8.1282498 
   27000    2265.2626    24526.715    49988.623    599.37834   -8326.8838    8.1714321 
   28000    2313.3166    24596.342    45559.805     612.0932   -8328.3627    8.1483004 
   29000    2333.6093    24470.943    52493.622    617.46255   -8339.9099    8.1900556 
   30000    2265.7778    24439.865    54254.623    599.51466   -8337.6802    8.2004703 
   31000    2274.2271    24673.668    42420.817     601.7503   -8316.7453    8.1227643 
   32000    2295.2097    24461.366    53511.104    607.30219   -8328.9068    8.1932623 
   33000    2357.1479    24493.258    58684.372    623.69076   -8304.4576    8.1825941 
   34000    2298.0166    24662.889    42397.423    608.04489   -8326.5265    8.1263144 
   35000    2331.1075     24552.39    47933.749     616.8006   -8336.8854    8.1628871 
   36000    2378.5612     24684.81    46568.482    629.35663   -8298.1477    8.1190979 
   37000    2318.8783    24650.651    49861.093    613.56479   -8290.7905    8.1303488 
   38000    2276.4291    24672.471    41697.861    602.33293   -8320.2873    8.1231583 
   39000     2258.204    24509.069    52559.113    597.51066   -8321.2945    8.1773153 
   40000    2366.7716    24621.423    47716.602    626.23717   -8311.6671    8.1400001 
   41000    2375.9266    24468.025    52606.117    628.65952   -8340.4905    8.1910325 
   42000    2271.1097    24542.418    49405.728    600.92545    -8325.337    8.1662037 
   43000    2299.8883    24702.371    42344.911    608.54013   -8311.4361    8.1133258 
   44000    2320.8772    24585.993    47809.776     614.0937   -8322.4676    8.1517305 
   45000    2336.1864    24460.926    52773.334    618.14445   -8339.3913    8.1934095 
   46000     2254.584     24476.04    50317.332    596.55281   -8345.7376    8.1883501 
   47000     2364.936    24491.971     51652.98    625.75146   -8337.7074    8.1830239 
   48000    2340.0073    24535.068    53661.161    619.15544   -8310.2249      8.16865 
   49000     2306.516     24584.95    45598.114    610.29379   -8332.7148    8.1520763 
   50000    2349.0597    24584.219    48423.989    621.55066    -8321.901    8.1523186 
   51000    2316.8451    24551.252    50882.879    613.02683   -8319.6466    8.1632655 
   52000    2353.1271    24613.803    44882.249    622.62687   -8329.4928      8.14252 
   53000    2309.9592     24532.72    48495.666    611.20485   -8335.7811    8.1694321 
   54000    2353.7766    24537.377    52532.613    622.79874   -8314.4696    8.1678813 
   55000    2316.7937     24637.99    47125.406    613.01323   -8308.8262    8.1345267 
   56000    2283.2173    24546.834     48124.79    604.12907   -8332.1462    8.1647345 
   57000    2262.1496    24479.139    51441.553    598.55463   -8335.3349    8.1873136 
   58000    2259.6194    24465.031    54604.858    597.88517   -8325.1671    8.1920348 
   59000    2282.6979     24562.78    48292.572    603.99162   -8325.1622     8.159434 
   60000    2210.9367    24640.538     42893.62    585.00394   -8320.2983    8.1336854 
   61000    2389.3174     24438.83    58627.598    632.20267   -8322.6496    8.2008175 
   62000    2294.3872    24529.442    50079.259    607.08457   -8326.7089    8.1705236 
   63000    2252.7104    24608.941    51340.431    596.05706   -8292.0583     8.144129 
   64000    2312.5547     24538.48    51306.955    611.89161   -8317.2238    8.1675144 
   65000    2292.8635    24578.002    49007.004    606.68141   -8319.3674    8.1543808 
   66000    2262.5129    24525.726    51041.759    598.65076   -8321.7896    8.1717617 
   67000    2308.3915     24542.74    48220.334    610.79004   -8333.8468    8.1660965 
   68000    2362.6097    24520.463    51880.165    625.13594   -8327.2456    8.1735155 
   69000    2289.4849    24454.632    49751.286    605.78744   -8350.7211    8.1955184 
   70000    2362.2663    24619.341    47488.991    625.04506   -8315.8356    8.1406884 
   71000    2234.6488    24553.999    48490.057    591.27805   -8323.2761     8.162352 
   72000    2256.9463    24544.555     49403.79    597.17786   -8323.8261    8.1654929 
   73000    2335.8878    24417.233    58319.972    618.06545   -8328.5066     8.208071 
   74000    2260.5029    24683.857     43663.29    598.11894   -8307.6557    8.1194112 
   75000    2301.2091     24608.39    52161.541    608.88961   -8292.2834    8.1443111 
   76000    2378.3851     24537.47    49901.095    629.31003   -8334.0087    8.1678505 
   77000    2299.3394    24614.321    45088.578     608.3949   -8325.9372    8.1423488 
   78000    2309.6228    24485.193    54740.774    611.11583   -8317.6393    8.1852894 
   79000    2332.3295    24557.245    51132.161    617.12393   -8319.4151    8.1612731 
   80000    2363.9008    24741.112    42463.091    625.47755    -8305.191    8.1006216 
   81000     2280.272    24534.461    49167.116    603.34974   -8330.7759    8.1688521 
   82000    2237.4981    24473.766    55239.846    592.03197    -8319.582    8.1891109 
   83000    2265.6538     24683.01    41673.915    599.48184   -8316.0101    8.1196899 
   84000    2365.4393    24540.514    51860.358    625.88464   -8317.0972    8.1668374 
   85000    2314.1699    24466.143    55954.736    612.31899   -8320.6635    8.1916626 
   86000    2253.1272    24657.427    45854.941    596.16735   -8301.8715    8.1281142 
   87000    2356.9631    24594.303    50804.877    623.64188   -8309.3642    8.1489762 
   88000    2330.3717    24376.485    58007.533    616.60591   -8344.3652    8.2217918 
   89000    2329.1689    24636.646    43290.773    616.28765   -8329.6466    8.1349704 
   90000    2328.1023    24529.512    52900.647    616.00543   -8317.8306    8.1705004 
   91000    2274.6982    24481.554    57182.068    601.87493   -8306.3529    8.1865059 
   92000    2289.3209    24669.672    48043.208    605.74405   -8289.8739    8.1240799 
   93000    2277.3063    24628.395    47032.059    602.56504   -8313.3162    8.1376957 
   94000    2300.8514    24420.384    59770.949    608.79497   -8316.5521    8.2070121 
   95000    2272.8717    24566.751    48942.428    601.39165   -8318.9297    8.1581153 
   96000    2302.2748    24631.466     46401.56    609.17159   -8312.2403    8.1366811 
   97000    2273.5298    24379.642    60347.718    601.56578   -8323.3803    8.2207271 
   98000    2376.1052    24586.386    45337.941    628.70679   -8335.6852    8.1516001 
   99000    2369.1065    24611.898    47547.092    626.85497   -8320.3889    8.1431503 
  100000    2269.5596    24363.766    58110.978    600.51529   -8338.4494    8.2260841 
  101000    2314.7606    24546.616    46770.529    612.47528   -8337.6378    8.1648071 
  102000    2261.2431    24441.388    60739.601     598.3148   -8302.8192    8.1999594 
  103000    2293.5937    24603.614     45362.94     606.8746   -8331.2591    8.1458921 
  104000    2306.8376    24631.434     46993.21    610.37888   -8315.6582    8.1366917 
  105000    2254.8775    24557.905    48666.042    596.63048   -8324.9568    8.1610538 
  106000    2286.6424    24432.128    55775.765    605.03533   -8330.7631    8.2030673 
  107000    2318.0818    24612.156    49995.677    613.35404    -8307.191    8.1430651 
  108000    2313.9026    24688.858    41740.423    612.24826    -8317.491    8.1177665 
  109000    2293.1912     24397.84    57667.976    606.76811   -8333.0678    8.2145956 
  110000    2289.2388    24599.639    47521.869    605.72231   -8316.9718    8.1472085 
  111000    2214.2747     24603.38    44151.929    585.88716    -8330.608    8.1459696 
  112000    2331.2061    24517.382    53450.088    616.82669   -8320.3314    8.1745426 
  113000    2281.3873    24506.123    53279.437    603.64486   -8318.6914    8.1782985 
  114000    2266.4485    24683.938    41241.426    599.69212    -8315.172    8.1193846 
  115000    2348.0847    24572.647    50042.191    621.29268   -8318.6618    8.1561577 
  116000    2410.7304    24537.307    54918.667    637.86845   -8310.2591    8.1679048 
  117000    2302.0756    24702.708    40015.488    609.11887   -8321.6523    8.1132154 
  118000    2291.7793    24529.164     51892.21    606.39454   -8318.7626    8.1706162 
  119000     2204.631    24369.162    57565.587    583.33547   -8341.1031    8.2242627 
  120000    2277.6898    24540.413    47209.015    602.66652   -8336.4483     8.166871 
  121000    2242.0407    24419.353    52576.417    593.23393   -8345.3637    8.2073585 
  122000    2259.7671     24501.93    52506.829    597.92425   -8320.6949    8.1796981 
  123000    2311.1326    24536.776    49459.635    611.51532   -8329.2425    8.1680814 
  124000    2336.0371    24540.214    53514.156    618.10494   -8306.8255    8.1669373 
  125000    2349.4207    24458.091    51187.621    621.64618   -8350.8953    8.1943593 
  126000    2325.5891    24719.677    35976.421    615.34044   -8336.3201     8.107646 
  127000    2350.1361    24465.949     53926.34    621.83548   -8334.0363    8.1917275 
  128000    2298.0831    24378.959     58982.19    608.06249   -8333.1166    8.2209575 
  129000    2268.9039    24544.731    53384.427    600.34179   -8305.0911    8.1654341 
  130000    2374.4446     24551.32    48524.411     628.2674   -8329.9677    8.1632427 
  131000    2279.9223    24517.988    52439.519    603.25721   -8319.0961    8.1743406 
  132000    2294.1352    24381.343    59858.809    607.01789   -8329.1223    8.2201538 
  133000    2320.0759    24653.093    45608.357    613.88167   -8309.0134    8.1295434 
  134000    2302.0866    24534.098    50496.439     609.1218   -8322.3341    8.1689731 
  135000    2253.6188    24499.841    50817.916    596.29744   -8333.7898    8.1803954 
  136000    2362.1071    24650.189    45360.881    625.00294   -8318.4169    8.1305011 
  137000    2357.7093    24591.499    50766.055    623.83932   -8302.5829    8.1499054 
  138000    2302.8109    24413.558    54662.617    609.31344   -8342.8794    8.2093067 
  139000     2298.497    24459.603     52467.59    608.17199   -8339.8922    8.1938528 
  140000    2248.4221    24597.783    46596.022     594.9224   -8319.8385     8.147823 
  141000    2261.0181    24587.555    47992.779    598.25524   -8319.8777    8.1512126 
  142000    2324.6565    24457.262    53634.994    615.09369    -8332.257    8.1946371 
  143000    2244.3883    24613.718    49826.657    593.85509   -8301.3898    8.1425482 
  144000    2311.9554    24648.467    47019.055    611.73304    -8303.553    8.1310689 
  145000     2326.657    24462.233     50292.45      615.623   -8352.1169    8.1929719 
  146000    2269.7494    24475.559    52825.121    600.56553   -8329.2352    8.1885111 
  147000    2285.3558    24554.299    45675.392    604.69489   -8337.9839    8.1622523 
  148000    2322.1002    24567.294    46580.271    614.41729   -8333.6281    8.1579349 
  149000    2342.7433    24474.068     55957.73    619.87938   -8319.2619    8.1890101 
[...]
  117000    2661.4684    25983.748    51336.541    704.21259   -7917.9443    7.7132208 
  118000    2539.7632    25998.654    49588.666    672.00997   -7913.6348    7.7087986 
  119000    2520.7743    26017.443    47379.826    666.98557   -7914.3069    7.7032315 
  120000    2626.1356    25953.852    52778.306     694.8637    -7910.974    7.7221055 
  121000     2606.074    25777.114     62968.69    689.55551   -7917.8861    7.7750514 
  122000    2674.0315    25909.387    53593.102    707.53675   -7926.9904     7.735358 
  123000    2563.6023     25884.88     51858.97    678.31768   -7932.6813    7.7426817 
  124000    2517.0692    26036.417    45634.617    666.00522   -7916.3482    7.6976178 
  125000    2666.9427    26056.453    46746.086    705.66108   -7921.8304    7.6916988 
  126000    2604.2042    25904.765    55017.281    689.06076   -7913.3835    7.7367383 
  127000    2515.4599    25982.673    47295.002    665.57942   -7923.6366    7.7135398 
  128000    2601.6177    25947.649    51988.033    688.37638   -7915.5418    7.7239516 
  129000    2626.2403    25962.045    50097.561     694.8914   -7922.1525    7.7196688 
  130000    2650.7955    25869.519    54330.865    701.38862   -7930.9137    7.7472793 
  131000    2579.4035    25854.701    59602.514    682.49859   -7908.2751    7.7517195 
  132000    2579.1235    26058.377     47384.88    682.42452   -7901.4038    7.6911309 
  133000    2617.5925    26002.321    45633.971    692.60325   -7933.4523    7.7077115 
  134000    2591.2444    25831.079    56071.777    685.63166   -7931.5423    7.7588081 
  135000    2664.0784    26025.682    45160.308    704.90319   -7932.9852     7.700793 
  136000    2576.2214    26001.194    46932.044    681.65663   -7928.2861    7.7080456 
  137000    2551.4209    26126.649    38931.095    675.09452   -7921.7919    7.6710331 
  138000    2584.0693    25970.165    52340.808    683.73315   -7911.7376    7.7172551 
  139000    2648.1347    26082.536      46725.5    700.68458   -7909.8265    7.6840069 
  140000    2622.7613    25864.308    54898.817    693.97088   -7931.7291    7.7488401 
  141000    2638.4341    25920.032     49102.52    698.11783   -7940.4109    7.7321814 
  142000    2615.2992    26005.577    46956.368    691.99645   -7925.3254    7.7067464 
  143000    2558.7293    25863.338    53029.353    677.02829   -7936.3809    7.7491308 
  144000    2662.7734    26015.963    47906.396    704.55791   -7924.5794    7.7036696 
  145000     2601.073    25840.623    54321.822    688.23225   -7931.0223    7.7559425 
  146000    2663.0118    25949.529    51589.204    704.62099   -7919.0868    7.7233921 
  147000    2589.9376    25893.982    49800.067    685.28587   -7940.8877      7.73996 
  148000    2602.0926    26103.367    44345.921    688.50203   -7913.2735    7.6778748 
  149000    2639.1071     25967.76    46128.049    698.29591   -7938.5347    7.7179696 
  150000    2634.7786    25840.592    53218.463     697.1506   -7944.5792    7.7559518 
  151000    2541.8739    25846.322    53769.578    672.56844   -7934.2492    7.7542324 
  152000    2536.6563    26207.977    40126.035    671.18788   -7894.0542    7.6472284 
  153000    2647.1527    26141.522    42134.278    700.42474   -7906.9358    7.6666687 
  154000    2674.4099      25871.2    57786.621    707.63688   -7914.7708    7.7467757 
  155000    2606.7664    25893.014    53602.573    689.73871   -7919.0659    7.7402495 
  156000    2619.2975     26110.53    42813.302    693.05437   -7919.2805    7.6757687 
  157000    2708.9512    26142.557     43318.73    716.77633   -7909.1699    7.6663651 
  158000    2509.0255    25938.214    49979.383     663.8769    -7927.307    7.7267612 
  159000    2691.1799    25978.358    47351.704    712.07413   -7933.1466    7.7148211 
  160000    2583.0273    25958.683    47819.224    683.45744   -7933.8716    7.7206686 
  161000    2552.0725    26142.454     43894.68    675.26694   -7901.8266    7.6663954 
  162000    2553.1479    25915.784    49450.363    675.55148   -7933.9776    7.7334488 
  163000    2547.3069    25972.979    46729.695    674.00598   -7928.5602    7.7164189 
  164000    2565.4459    26151.768    39955.402    678.80548    -7916.225    7.6636649 
  165000    2500.9031    26046.432     47386.55    661.72775   -7912.9459     7.694658 
  166000    2711.7446    25922.755    53890.401    717.51545   -7918.2759    7.7313692 
  167000     2658.077    25839.079    56294.424    703.31526   -7933.1971    7.7564061 
  168000     2604.571    26035.254    46248.978    689.15781   -7922.4099    7.6979617 
  169000    2628.6412    26190.246    40744.525    695.52667   -7908.6509    7.6524055 
  170000    2557.9071    26026.255    46857.852    676.81074   -7920.2935    7.7006234 
  171000    2668.0475    25977.572    49432.702    705.95342   -7921.3251    7.7150547 
  172000    2632.2796    25804.792    58140.353    696.48938   -7930.6866    7.7667119 
  173000    2554.7882    25976.903    45003.779     675.9855   -7934.9847    7.7152533 
  174000    2571.0342    26038.653    47886.252    680.28412   -7908.6522    7.6969568 
  175000    2614.2305    25970.135    52241.331    691.71366   -7905.5115    7.7172639 
  176000    2575.7036    25735.525    55552.675    681.51963   -7958.0411    7.7876159 
  177000    2588.4562    25836.267    54563.707    684.89391   -7937.2721    7.7572501 
  178000    2585.5562    26034.135    51380.401    684.12657   -7899.6676    7.6982926 
  179000    2558.4781    25760.295    60003.739    676.96183    -7928.243    7.7801278 
  180000    2619.9313    25957.379    52271.372    693.22208   -7915.6087    7.7210562 
  181000    2496.4826    25973.798    49013.642    660.55809   -7915.7223    7.7161756 
  182000    2658.2658    25824.421    55632.939    703.36521   -7935.9802    7.7608084 
  183000    2648.4228    25959.755    48711.442     700.7608   -7930.1503    7.7203498 
  184000    2571.0185    25912.331    46365.164    680.27997   -7950.4322    7.7344793 
  185000    2532.1917    25907.009    51341.305    670.00656    -7930.662    7.7360681 
  186000    2637.1803    25824.013    57644.602    697.78607     -7929.14    7.7609311 
  187000    2693.1335     26025.96    50179.707    712.59104   -7913.2859    7.7007106 
  188000    2623.2918    26018.419    45265.307    694.11124   -7929.2226    7.7029426 
  189000    2626.5003    25893.174    51077.806    694.96021   -7933.5085    7.7402015 
  190000    2528.3828    25981.327    50478.613    668.99875   -7910.5935    7.7139395 
  191000    2649.8871    26028.962    47785.048    701.14824   -7921.5367    7.6998226 
  192000    2619.4975    25989.077    45506.309    693.10731   -7936.7094    7.7116392 
  193000    2604.5018    26071.725    42752.104    689.13951   -7933.1828    7.6871932 
  194000    2524.8701    26017.122    43855.612    668.06931   -7936.7718    7.7033266 
  195000    2568.0007    25987.148    50134.409    679.48148   -7917.2431    7.7122116 
  196000    2607.7073    25796.044    58700.732    689.98767   -7930.7524    7.7693458 
  197000    2655.5937    25867.484    55808.817     702.6582    -7924.418    7.7478888 
  198000    2622.5386    25961.965    50189.291    693.91196    -7921.118    7.7196924 
  199000    2584.8775    25933.492    44431.092    683.94701   -7952.3359    7.7281683 
  200000     2562.028    25890.232    54546.921    677.90112    -7919.062    7.7410812 
  201000    2582.9597     25987.64    51489.447    683.43956   -7905.3192    7.7120657 
  202000    2698.5902     25912.36    54645.581    714.03488    -7919.097    7.7344705 
  203000    2633.6283    25948.017    46142.623    696.84625   -7943.5463    7.7238421 
  204000    2598.1632     25847.44    53820.118    687.46233   -7934.2701    7.7538969 
  205000    2570.7884     25998.02    45813.946     680.2191   -7934.7587    7.7089866 
  206000    2568.8655    26023.006    47057.039    679.71029   -7918.4899    7.7015847 
  207000    2628.3641    26050.605    49919.479    695.45337   -7905.3351    7.6934255 
  208000    2548.1795    25886.243    52899.354    674.23686   -7928.4355    7.7422741 
  209000    2641.6115    25905.025    54188.909    698.95857   -7924.5504    7.7366605 
  210000    2657.8557     25976.12    47508.483    703.25669   -7937.7579    7.7154858 
  211000    2531.3078    26094.762    40368.194    669.77268   -7926.4858    7.6804067 
  212000     2539.137    25996.514    45465.446    671.84426   -7931.4067    7.7094332 
  213000    2546.3799     25878.78    53700.942    673.76071   -7924.4675    7.7445068 
  214000    2550.8887    25862.662    53295.757    674.95372   -7924.0148    7.7493332 
  215000    2524.8726     25901.56    50301.419    668.06998   -7931.4936    7.7376955 
  216000    2666.7221    26088.638    44228.023     705.6027   -7915.7865    7.6822096 
  217000    2621.7784    25834.313    55631.859    693.71082   -7927.5408    7.7578369 
  218000    2647.0946    25905.791    54291.135    700.40937   -7917.5167    7.7364319 
  219000     2610.092    25754.805    58120.877    690.61865   -7945.1961    7.7817863 
  220000    2606.6544     25976.03    51750.987    689.70907   -7907.3258    7.7155125 
  221000    2646.6834    25833.995    58085.991    700.30057   -7925.2557    7.7579323 
  222000    2571.3765    25950.587    50571.537    680.37469   -7921.5242    7.7230771 
  223000    2560.7038     25979.86     45382.59    677.55073   -7936.1388    7.7143751 
  224000    2648.1086    26082.699    45416.673    700.67766   -7911.6415    7.6839588 
  225000    2626.0606    25846.678    52923.083    694.84387   -7935.5372    7.7541256 
  226000    2665.3266     25853.58    59434.422    705.23346    -7919.734    7.7520554 
  227000    2589.2449    25969.702    52180.283     685.1026   -7911.8184    7.7173925 
  228000    2593.3924    26052.404    45262.799    686.19999   -7920.1921    7.6928941 
  229000    2603.2099    25915.336    54276.833    688.79766   -7916.6004    7.7335825 
  230000    2558.0887    25947.779    49789.013    676.85881   -7929.3472     7.723913 
  231000    2559.1176    26009.713    46308.975    677.13105   -7928.3338    7.7055208 
  232000    2628.7142     26001.24    48543.496      695.546   -7921.2819    7.7080318 
  233000    2668.6349    26038.719    49787.547    706.10884   -7907.3545    7.6969372 
  234000     2558.529    26005.627     50383.75    676.97531   -7905.4204    7.7067316 
  235000    2574.5211    26138.451    40357.695    681.20674   -7912.6897    7.6675693 
  236000     2562.034     26030.86    46000.556    677.90272   -7921.2568    7.6992611 
  237000    2598.2088    26151.139    42862.903    687.47439   -7906.2253    7.6638493 
  238000    2578.4406    25937.647    52831.539    682.24382    -7916.106    7.7269301 
  239000    2691.1214    25817.668    57500.979    712.05865   -7930.0135    7.7628385 
  240000    2637.0264    25969.925    51585.464    697.74537   -7919.4215    7.7173264 
  241000     2534.924    25969.615    49752.067    670.72952   -7918.9443    7.7174185 
  242000    2574.7756    26144.438    44805.447    681.27409   -7897.0646    7.6658137 
  243000    2592.2768    26110.748     44164.06    685.90481   -7912.3999    7.6757044 
  244000    2630.0895    25991.227    49050.456    695.90989   -7924.8893    7.7110014 
  245000    2616.3382    25909.452    55116.453    692.27135     -7914.69    7.7353386 
  246000    2645.0569    26006.617    50401.299     699.8702   -7915.6544    7.7064382 
  247000    2579.3086    25993.552    50004.593    682.47348   -7913.2177    7.7103116 
  248000    2589.6941    25857.237    54317.536    685.22146   -7927.6828    7.7509591 
  249000    2571.6898     26025.93      50531.2    680.45759   -7900.6955    7.7007194 
  250000     2599.184    25878.915    51941.869    687.73243   -7941.2466    7.7444663 
Loop time of 479.765 on 8 procs for 250000 steps with 2048 atoms

Performance: 45.022 ns/day, 0.533 hours/ns, 521.088 timesteps/s
118.0% CPU use with 4 MPI tasks x 2 OpenMP threads

MPI task timing breakdown:
Section |  min time  |  avg time  |  max time  |%varavg| %total
---------------------------------------------------------------
Pair    | 273.33     | 276.59     | 280.61     |  16.5 | 57.65
Neigh   | 4.8159     | 4.9262     | 4.9785     |   2.9 |  1.03
Comm    | 18.809     | 22.945     | 26.326     |  58.2 |  4.78
Output  | 0.0057746  | 0.011303   | 0.013158   |   3.0 |  0.00
Modify  | 174.1      | 174.35     | 174.5      |   1.1 | 36.34
Other   |            | 0.9431     |            |       |  0.20

Nlocal:        512.000 ave         513 max         511 min
Histogram: 2 0 0 0 0 0 0 0 0 2
Nghost:        2676.00 ave        2690 max        2661 min
Histogram: 1 0 1 0 0 0 0 1 0 1
Neighs:        37182.5 ave       38478 max       35955 min
Histogram: 1 0 0 1 0 0 1 0 0 1

Total # of neighbors = 148730
Ave neighs/atom = 72.622070
Neighbor list builds = 5311
Dangerous builds = 0


# fix 132 all momentum 100 linear 1 1 1 angular
fix out_file_1 all print 1000 "$(step) $(temp) $(press) ${sys_press} $(vol) $(ke) $(pe) $(density)" file one_phase_heating_press_$P_$T_.txt screen no title  "step temp press pressGiga vol ke pe density"
fix out_file_1 all print 1000 "$(step) $(temp) $(press) ${sys_press} $(vol) $(ke) $(pe) $(density)" file one_phase_heating_press_50000_$T_.txt screen no title  "step temp press pressGiga vol ke pe density"
fix out_file_1 all print 1000 "$(step) $(temp) $(press) ${sys_press} $(vol) $(ke) $(pe) $(density)" file one_phase_heating_press_50000_2600_.txt screen no title  "step temp press pressGiga vol ke pe density"

# dump 3 all custom 1000 traj_npt_new.lammpstrj id type x y z
run 50000
Last active /omp style is pair_style eam/alloy/omp
Per MPI rank memory allocation (min/avg/max) = 4.354 | 4.354 | 4.354 Mbytes
Step Temp Volume Press KinEng PotEng Density 
  250000     2599.184    25878.915    51941.869    687.73243   -7941.2466    7.7444663 
  251000    2619.6699      25939.3    50216.212    693.15291   -7929.9297    7.7264379 
  252000    2556.3253    25807.833    51572.963    676.39222   -7958.0197    7.7657967 
  253000    2598.1964    25974.236    50799.879    687.47113   -7912.9985    7.7160455 
  254000     2683.776    26101.269    50201.083    710.11511   -7883.0772    7.6784921 
  255000    2436.0126    25824.859    54330.789      644.558   -7934.6634    7.7606768 
  256000    2575.0111    25892.948     56930.89     681.3364   -7907.9134    7.7402691 
  257000     2608.333     25961.69    53444.382    690.15323   -7904.1452    7.7197742 
  258000     2684.987    25761.554    56795.937    710.43553   -7951.4169    7.7797476 
  259000    2648.8587    25979.466     46245.99    700.87614   -7931.2235    7.7144923 
  260000    2599.6663    25834.113    54217.784    687.86006    -7937.478    7.7578969 
  261000    2669.0467    26073.964    45394.792    706.21779   -7915.2232    7.6865331 
  262000    2602.2934    25833.306    51841.635    688.55517   -7949.0288    7.7581391 
  263000    2585.6815    26067.291    45170.807    684.15973   -7915.8566    7.6885007 
  264000    2563.5153    25984.526    44809.929    678.29466    -7940.744    7.7129899 
  265000    2620.2061     25983.05    50520.694    693.29479   -7909.9197    7.7134281 
  266000    2611.1034    25970.678    47993.168    690.88626   -7929.6829    7.7171026 
  267000    2520.4255     26056.23    45126.971     666.8933    -7910.146    7.6917645 
  268000    2651.5843     26038.28    49053.814    701.59731   -7911.6071    7.6970671 
  269000     2621.944    26131.862    47915.379    693.75462   -7883.3402    7.6695027 
  270000    2627.1721    26022.648    44701.308    695.13796   -7931.0684    7.7016908 
  271000    2605.9928    26053.889    47601.009    689.53402   -7914.5454    7.6924556 
  272000    2598.7707    25871.434    52745.782    687.62306   -7938.7467    7.7467059 
  273000    2570.3331    26054.617    46064.304    680.09861   -7915.5578    7.6922407 
  274000    2532.0445    26021.321    43831.546    669.96763   -7933.7895    7.7020835 
  275000    2568.8649    25917.435    53255.133    679.71012   -7922.0175    7.7329562 
  276000    2683.2117    25847.685    55851.035     709.9658   -7932.6467    7.7538235 
  277000    2553.2704     25886.78    50405.981     675.5839   -7939.7116    7.7421134 
  278000    2625.0361    26136.348    44379.222    694.57277   -7903.2017    7.6681863 
  279000     2619.596    25802.794    55416.039    693.13335   -7941.0419    7.7673133 
  280000    2683.6959    25883.311    55068.885    710.09389   -7922.7279    7.7431509 
  281000    2641.8945    25994.273    51006.207    699.03345   -7906.9414    7.7100979 
  282000    2551.5587    25939.629    52113.024    675.13098   -7920.5491    7.7263397 
  283000    2520.9086     25941.61    52329.521    667.02112   -7912.5373    7.7257498 
  284000     2587.091    25909.085    50361.791    684.53269   -7934.1474    7.7354482 
  285000    2651.8521    25945.484    53677.302    701.66818   -7910.6276    7.7245961 
  286000     2665.906    25888.015    58444.184    705.38677   -7912.7052    7.7417442 
  287000    2635.2877    25946.902    47607.566    697.28531   -7937.8273    7.7241741 
  288000    2623.0792     26010.77    51188.651      694.055   -7903.4375    7.7052076 
  289000    2542.4272    26115.573    40765.512    672.71483   -7919.7678    7.6742865 
  290000    2505.3264    25928.493    48505.568    662.89814   -7932.8275    7.7296582 
  291000    2603.6086    26014.539    45800.086    688.90317   -7927.2239    7.7040913 
  292000    2536.0053    25920.481     51566.53    671.01563   -7923.1566    7.7320472 
  293000    2551.2847    25935.163    50916.335    675.05849   -7924.6224    7.7276702 
  294000     2678.084    25938.998    51090.323    708.60901   -7928.5516    7.7265276 
  295000     2653.161    25883.951    54111.116     702.0145   -7922.5507    7.7429596 
  296000    2572.1837    26012.797    46187.254    680.58829   -7927.6051    7.7046074 
  297000    2532.5441    25922.212    52485.114    670.09983   -7921.1847    7.7315312 
  298000    2648.6364    25875.301    52518.535    700.81733   -7935.9023    7.7455479 
  299000    2665.9764    26070.504    45905.036    705.40541   -7914.6915    7.6875533 
  300000     2637.743    25963.272    48829.077    697.93498   -7930.8373    7.7193039 
Loop time of 96.3575 on 8 procs for 50000 steps with 2048 atoms

Performance: 44.833 ns/day, 0.535 hours/ns, 518.901 timesteps/s
117.4% CPU use with 4 MPI tasks x 2 OpenMP threads

MPI task timing breakdown:
Section |  min time  |  avg time  |  max time  |%varavg| %total
---------------------------------------------------------------
Pair    | 54.994     | 55.583     | 56.282     |   6.4 | 57.68
Neigh   | 0.96858    | 0.99229    | 1.0051     |   1.4 |  1.03
Comm    | 3.7591     | 4.481      | 5.0967     |  23.0 |  4.65
Output  | 0.0011147  | 0.0018086  | 0.0020426  |   0.9 |  0.00
Modify  | 35.066     | 35.109     | 35.14      |   0.5 | 36.44
Other   |            | 0.1904     |            |       |  0.20

Nlocal:        512.000 ave         515 max         507 min
Histogram: 1 0 0 0 0 1 0 0 0 2
Nghost:        2676.00 ave        2692 max        2658 min
Histogram: 1 0 0 0 1 0 1 0 0 1
Neighs:        37103.2 ave       37925 max       36027 min
Histogram: 1 0 0 0 0 1 1 0 0 1

Total # of neighbors = 148413
Ave neighs/atom = 72.467285
Neighbor list builds = 1064
Dangerous builds = 0

unfix temp
unfix out_file_1


write_data after_heating_press_$P_$T.in
write_data after_heating_press_50000_$T.in
write_data after_heating_press_50000_2600.in
System init for write_data ...
Last active /omp style is pair_style eam/alloy/omp
write_restart after_heating_press_$P_$T.lmp
write_restart after_heating_press_50000_$T.lmp
write_restart after_heating_press_50000_2600.lmp
System init for write_restart ...
Last active /omp style is pair_style eam/alloy/omp
next loopVar
jump in.lmp ensemble
























Total wall time: 0:57:43
