LAMMPS data file via write_data, version 29 Oct 2020, timestep = 300000

2048 atoms
1 atom types

0.1887562226686672 28.163243777330415 xlo xhi
0.1887562226686672 28.163243777330415 ylo yhi
0.1887562226686672 28.163243777330415 zlo zhi

Masses

1 58.933

Atoms # atomic

1777 1 2.3501409386539955 2.1686010939428426 2.2404007856060444 -1 0 1
412 1 1.3041121750124205 3.8802949943094918 3.8371630198945534 2 1 1
197 1 3.2785866032953273 4.212405000165416 2.5048051686536543 -2 1 -1
1049 1 0.6760016704879985 3.890598549509145 1.4945046055729279 1 0 0
1217 1 28.154799454344428 1.7567613528387456 3.466184136038714 0 2 -1
1104 1 3.0418618600942735 2.3823978890739763 4.597877601314515 2 2 2
66 1 25.96356839563211 10.081739082218636 10.115417909154457 0 0 -1
1071 1 2.287695372638532 3.9825887321125233 0.3984920741761067 0 -1 -2
595 1 4.276284786100296 2.298554201536546 1.022565115723519 0 -1 -1
812 1 7.1251155430024475 2.514445141355725 1.9598536465547998 0 3 4
1534 1 4.9587177455118825 2.5531075303304283 3.2609715727504636 1 1 2
1493 1 5.418241579943217 4.157632170275825 1.7703965264197354 -1 0 2
505 1 6.000247916965664 0.6089614654478249 3.9764573669326064 -1 2 2
852 1 7.205573389694265 2.835545621464368 4.557646872834799 0 0 2
997 1 5.571276837839627 4.635433522427707 4.186106294320101 -2 2 0
1012 1 5.714375945197762 0.7897354987265585 1.6598083318274275 1 1 2
1169 1 8.310551834663034 0.8092834781506004 2.8611112426525245 1 0 1
1123 1 11.155347979460945 1.2552278151863983 3.635065141121935 0 3 0
1086 1 9.389494745773746 3.083696616950039 3.1209279362599776 2 1 0
1956 1 11.568282899482362 3.3417202783847015 1.8057163829908311 0 0 1
262 1 10.485760906897204 1.0349902984330428 1.2980237517374598 -2 -1 2
715 1 8.98221879717839 2.6481665658607887 0.7631631406000746 1 1 1
1300 1 11.729637083163515 3.4698279963603573 4.226389295219012 0 0 -1
2014 1 9.221024738647221 1.2280803764465498 4.730655216402207 -1 0 -2
1898 1 13.44686938900777 1.7860241328416826 2.437374433723513 0 0 1
370 1 13.806274613688238 4.056167167161373 2.491659830866308 -2 -1 -1
1845 1 15.621171279619286 2.2323739839215193 3.097462773524494 0 1 1
790 1 15.064605343373946 2.039546805779211 0.6794529512509875 0 -2 1
301 1 13.304266211206494 1.728848113058093 4.740680775772713 0 -2 3
1509 1 24.90794359885001 5.069297721008971 0.31046862350635557 -1 1 0
1701 1 15.954549587451165 4.0716701446336465 1.4200744050919347 0 0 1
1650 1 16.134123577214446 4.4285091941878365 3.9262312650293825 0 1 1
1802 1 17.43879935107053 2.326526631258792 1.9400757279420862 -1 0 1
1769 1 17.59422706755752 2.5682468616422045 4.318095624874839 -1 -1 0
2032 1 19.43870093600207 0.5874055299968761 4.405982675433946 -1 0 1
1628 1 18.296634838428538 4.509850951619889 2.2960981835058796 -2 1 1
924 1 19.980622512136172 2.70005768647893 2.6172015122764525 0 1 2
1294 1 18.950184418517885 0.7470098059527136 2.0187760797298644 0 1 0
1992 1 24.019048784097407 9.255475286512436 0.7929802009955231 2 0 0
1756 1 27.14578722600337 12.498862371114024 13.076556919750026 -1 0 2
602 1 20.77992362950326 0.654233840487201 0.6362368626502191 0 2 3
818 1 22.225168376234883 2.953938546653671 3.5390163218313284 -2 -1 1
1735 1 23.737301731621145 0.7691852830810931 1.4596721998893185 1 0 -1
1644 1 22.161443715857338 2.3268056954680105 1.1578867431634987 -2 1 -2
1856 1 21.751838031192904 0.8768895026601861 2.660169007511097 -2 -1 1
680 1 23.801558441017384 1.2750164124893661 4.227708833846291 -1 -1 0
981 1 20.71500538954875 4.363745507108963 0.9854399064556156 2 1 -2
1460 1 22.813499161495415 4.610955962986196 1.769106203815644 0 -1 -1
417 1 20.036813292519163 3.1665566836582206 4.9827043590080775 0 2 -1
493 1 24.235367139084794 2.7998499081850032 2.297760042641584 -1 2 3
2019 1 0.2553871757985457 1.4625987098438153 1.2903704625029402 2 1 0
579 1 26.59621031704073 3.119783756938392 0.6702137165330064 -1 2 -2
1806 1 25.955774183435658 1.3497042473271912 2.3709370503883758 -1 -1 0
822 1 26.606124023927975 3.6376852241331203 2.997222327526143 -1 -2 1
1923 1 24.636030446074166 3.45802085721305 4.508423951991753 0 0 1
1737 1 2.042749091649301 6.240923221272346 2.2703696639920024 2 0 1
1546 1 2.931473545927729 8.115064895450192 2.8424374691380163 1 -1 0
1392 1 3.5883092545020676 6.155738368340093 0.853326382224897 0 -2 1
1859 1 0.27787621200498075 7.995619653046564 3.9594010219456792 2 1 1
1946 1 1.733941614524368 6.412096131819606 4.588064835509953 1 0 3
77 1 1.9204929807600457 8.114304945406143 0.34759992035307496 0 -2 1
603 1 28.012074612265355 7.552631335883573 1.5374467689825244 -1 -3 -1
1541 1 14.860459864235773 3.145424450256169 13.768397441212718 0 1 1
1523 1 7.595311975029823 4.665140055540036 2.8272605954782297 0 2 1
1039 1 4.464370339463911 6.11472967565944 3.228383958183053 2 1 0
880 1 4.715368351669945 7.989977940953714 0.9714090033604843 4 2 2
1522 1 6.3046104212524945 6.346541121104655 1.8050004256244316 1 0 1
151 1 7.037488020137871 8.549159875213254 2.2352928089553434 -1 0 -1
772 1 5.017594696298817 8.353984151614817 3.591481019152188 0 -3 3
1415 1 6.62089279080513 6.731639657404431 4.353402548168136 -1 -1 1
1970 1 8.464916560035347 6.737774368722032 0.2841765607384314 2 1 2
1372 1 7.987540289935098 5.060188259418737 5.247522463796015 1 1 1
1091 1 9.853652009416829 4.92310891056204 1.5506827514931742 0 1 0
544 1 10.168608192384898 5.401557847097342 3.700375700842957 3 -2 1
520 1 8.547935770046529 6.780298322085448 2.968261909085798 -1 -1 0
37 1 10.412363817589943 7.390615497771938 1.630452184295567 -2 1 -2
838 1 11.190604965910941 7.7505179268363555 4.055536003967971 -2 -1 2
586 1 9.043318361286223 9.245168530171195 1.276687526521764 2 0 1
1098 1 9.455101665325813 9.093152290288042 3.6587905689418334 -1 1 1
687 1 12.280126623523765 6.005913880215762 2.5215186381205736 -1 1 -1
939 1 14.404006231543605 5.889397058305863 1.0570462083506 0 -2 1
1133 1 15.423987703507716 7.872118417986642 1.5345132207203003 -1 1 -1
1417 1 13.202245239932774 8.123369425991323 2.956188953558721 0 2 0
1794 1 14.626237584392179 6.3232633580655415 3.4186504153156165 1 -2 1
1510 1 15.539298386019768 8.668268516451521 3.76831540031711 4 2 -2
311 1 12.528344749836227 6.1420926112877074 4.692507688880619 2 0 0
873 1 11.908264990150903 0.30590711682226157 12.657362476118003 1 -1 -1
915 1 18.6663630268784 6.371061237909762 0.7443787875137111 0 0 -1
292 1 16.69977878966359 6.0779097958370265 2.397661123053477 -1 1 1
474 1 17.40842769521263 6.774938199164103 4.4418075913753 0 2 0
1613 1 19.45746618216345 6.514867729454353 3.004824733067619 1 1 3
758 1 17.378231903135834 8.260981706369371 2.189095794032457 -1 2 3
1807 1 19.58736953048684 8.471986937560786 1.0927611252811917 0 1 3
1941 1 17.97943208903491 8.943229988322495 4.487740984765954 0 1 1
1539 1 20.111912128137988 8.791920899353409 3.5770832846502745 -4 -3 1
88 1 20.902546413768214 4.648372817193212 3.3377693323503124 2 0 -1
1928 1 22.129750324148198 8.886669571127467 2.593256086925286 -1 0 0
1883 1 21.753154155124548 7.019055047806592 3.678807200900303 -1 0 -1
1966 1 21.291799559337285 6.7758205185691285 1.5747338405632154 1 -2 0
700 1 23.118472386768005 5.195489785949357 4.201611588111855 1 0 3
1804 1 23.801359213903886 6.932587405436696 2.1393357873979824 -1 0 1
438 1 22.469790394620254 9.24616395734951 4.694280355598398 1 1 -1
1772 1 3.119325203703308 10.605120289093254 13.783772242491763 1 1 1
227 1 24.150503731172527 7.5925868089658755 4.524094960940235 -1 -1 0
455 1 2.087783086227816 13.834368520595849 1.4759283608253124 -1 -1 4
1685 1 27.709785870622248 5.710211505925524 3.5246100661573205 1 1 1
943 1 24.947940180162128 5.105525288096478 2.847954847055484 -1 2 1
365 1 26.17386243071023 7.25054650646197 3.1187424754411164 1 2 0
1368 1 27.048034838308062 5.469872511704287 1.3000252107442056 -1 0 2
270 1 25.882603193171015 7.3010936306110805 0.6256912160633925 2 -2 1
2022 1 26.54101669846625 9.359645073682813 1.3458679388627732 1 3 1
1367 1 3.077670866937523 9.955222054871202 0.5566759636617908 1 1 0
653 1 0.8080529442113596 9.592802498148014 2.0221719383354344 -1 -1 -1
847 1 3.645701165709355 10.24103038262233 3.299591456339439 -1 -1 1
1305 1 2.1060032465072243 12.096432896136292 2.911304542649211 1 -1 0
1560 1 1.334017439933035 11.732503157752951 0.4389081942672328 -1 0 2
1084 1 3.8988539436433305 12.065425080891997 1.2435937818551426 0 -2 1
290 1 4.559800050898877 12.354886341802988 3.6275476071100012 2 -1 0
1462 1 3.7772515103870807 6.866053183191285 13.92069213013822 4 1 0
1162 1 5.354070781315906 10.167962307535829 1.7040519930810354 0 -3 1
1184 1 6.419627800351518 12.346328691287068 1.762339858977632 -2 0 0
1311 1 5.905817971253387 10.641186832776187 3.9807373625512095 1 -1 -1
212 1 7.30976128666786 10.618628486279547 0.49059811039889056 1 0 2
1764 1 7.951595664065277 10.754591605730921 2.8035111771953347 -1 2 -1
1775 1 8.465378380104282 12.84265644852623 0.956686755356185 -1 0 1
1663 1 2.7175047807504034 14.09467695110404 3.928806315814135 -1 -1 -1
241 1 27.769300197185963 0.2098392225467962 5.212639764574287 0 1 1
162 1 2.1926821810039945 0.40522432828599636 6.46528038206758 1 -2 0
84 1 11.505807376871015 9.551511394192417 2.180116115420705 0 -1 0
450 1 8.731651773319314 13.311255175197708 3.162602991733614 -1 -1 0
1717 1 10.105112138584783 11.390762520697693 1.720165510588481 -1 0 0
1309 1 10.820811639523221 13.569494947060488 1.9578161108905376 -1 0 -2
1097 1 10.419635541084864 11.43094013532215 3.9243360555847637 2 1 1
168 1 11.099100372836993 13.688226458342815 4.148577703871392 0 0 2
1236 1 12.267567565439178 9.612183913187772 4.582166041060816 0 -1 -1
1504 1 12.535726609011823 11.75251565362986 2.808847369264959 2 1 2
1232 1 13.043440220991952 14.106446626114867 3.037692317203387 0 0 -1
299 1 13.58055344594493 9.861263483027289 1.2201907029426258 -1 0 -2
232 1 14.219472683485227 10.522289672222087 3.263217893962292 1 2 0
428 1 14.45223417633112 12.168535856622237 1.3827279051819965 0 0 -1
1608 1 14.721742398277588 12.793083990464586 3.663687149735646 -2 0 -1
1783 1 12.731026857780744 13.385959460622603 0.6752366396812866 0 2 2
62 1 16.0354737634109 10.383473005374821 2.056832666383316 0 0 0
711 1 25.02945066840173 13.738038336940468 10.582353582729686 -2 -1 1
1936 1 16.108551565939486 11.084442162822835 4.207971812823922 1 5 -1
2008 1 18.162091159530185 10.343822852893663 0.36286658325779014 1 1 -1
323 1 16.895845765916846 12.518888648395274 2.2001202056512326 1 -2 0
1697 1 18.998851062994426 12.428858353625788 1.1487026834059173 -1 1 -1
355 1 18.36327181815416 10.391160542802941 2.6038230751422975 0 1 -1
727 1 19.330469677008395 12.819343182125234 3.398972314306811 1 0 3
995 1 17.188817767823018 0.2764707337110579 3.367376793785775 1 -1 2
1379 1 20.61673287078284 10.559065336284169 1.7855864848250325 -1 1 0
1342 1 22.949006868639415 11.053304333030441 2.6343373245124804 1 0 0
1369 1 21.564210252470303 12.913413342662883 2.1926665264790146 -1 1 -1
814 1 23.42284846630185 13.392048765175737 1.0141447334977078 -2 1 -2
1871 1 21.115887219412322 10.81175595811149 4.076679777706743 -2 -1 -1
738 1 23.89793107390708 13.19387439572007 3.3805165106890085 -1 -1 0
324 1 21.90268413790944 12.93916133382163 4.693106937414954 1 0 -1
1185 1 24.5518303149259 9.343835854724308 3.0306335900624366 -1 0 0
1188 1 26.892211976244525 9.530336619440074 3.621525162070179 -4 1 -1
1159 1 27.738627996678034 13.4991764421986 0.5081594972252883 -4 1 0
1998 1 26.094847657128973 13.530124698109516 2.077583943019859 1 0 2
15 1 25.28033712898568 11.366728848436662 1.6541322075902203 -2 -1 -2
1357 1 27.614829473792703 11.79934626254171 2.335388313755304 1 0 1
699 1 25.755995596215243 11.63474300747967 4.0033013788130205 0 -2 1
891 1 26.5064309568694 13.745644373596152 4.448731939104578 1 1 -1
877 1 3.1211054341114663 0.6066706415007792 8.790747036079974 1 -2 -1
652 1 3.1808248005656052 4.458669502966086 5.231930675327168 -2 -1 -1
865 1 3.078380397958339 2.4846357461401896 6.977878993689643 -2 -1 1
1374 1 1.276513768082033 2.09287821006543 8.212205973155308 2 -2 -1
188 1 1.4268459730729501 4.545876947462813 6.418924065957619 -2 1 -1
987 1 1.0483801745605037 2.243216411120784 5.631757467176521 0 0 1
1057 1 1.7622768940839137 4.452136072893095 9.064396491653808 3 -1 0
923 1 3.527745797745284 2.634326422360821 9.588153481257482 1 -1 0
837 1 19.422277465400704 2.366724288782932 0.24862214446904665 0 1 1
777 1 3.873725109604943 4.701937541849162 7.830830928858757 3 0 0
1127 1 15.01141961007223 0.33930887870207604 4.699366539298542 -2 0 0
433 1 5.124888636282889 0.7664303679642718 7.544170136039933 1 -1 -2
910 1 6.912678972060504 0.925035642009423 5.98181542141533 0 1 2
1105 1 5.262410295104528 2.556877432746596 5.736069367113088 1 1 -3
1344 1 7.2065807538061675 1.3271162619665573 8.725981291814321 0 -1 2
631 1 5.400089919920939 2.842737768805229 8.285815891605859 1 1 0
1019 1 7.593394862421689 2.9654456873364756 6.93865852879683 1 -1 0
63 1 6.1990563182451535 4.587243562261202 6.387767741598865 1 -1 0
12 1 8.140850875146942 3.351373335000955 9.380141169465292 1 2 1
1068 1 11.466439505850902 1.767778579232652 6.007252271464321 2 2 -2
577 1 9.711201017706225 3.365004848907201 5.661347031007408 2 1 1
1885 1 9.499958676445626 1.3770983975671602 7.073730895789953 -2 1 0
393 1 10.266736654786888 3.6293071105421135 7.85378796140424 2 0 -1
1930 1 11.59645106625622 1.9801286174096928 8.399418799797251 -1 2 0
41 1 9.704292495597555 1.804686791512903 9.957495291291178 -1 0 0
1222 1 13.530385092624268 3.6262767032222607 0.32215987267278123 0 2 -3
1805 1 26.52519054220344 12.094338613151544 10.937404754845165 -2 0 -1
26 1 7.948097407050021 13.694766238521668 13.90562199256702 0 -1 -3
485 1 12.27024653936488 4.027124316382328 6.363241411399152 -1 0 -1
1660 1 14.10842024429691 3.9462384781992235 4.710694474597912 1 0 3
1391 1 12.616464042668976 4.038483324533416 8.652031979976952 0 2 -1
1571 1 13.611033364481047 2.2394681944800188 7.192732843644783 -2 0 2
1073 1 14.603874431550063 4.569890079214996 7.226844729179466 -2 1 1
774 1 15.503452635284605 2.27256886248685 5.758716395146967 0 0 -1
1002 1 14.0843572049934 2.1639929589813507 9.29616572599733 -2 0 0
2009 1 15.758316280336034 0.7025197498747418 9.69610857443287 -1 1 3
127 1 17.636409129496208 0.898465374697626 8.203619160364681 -2 0 0
1266 1 16.13695597936175 2.659680391498015 8.123697161514855 -2 1 -1
272 1 17.22460492031758 0.7513731660503078 6.089191165656173 0 -1 -2
1767 1 18.17415173325668 2.6614807572012067 6.570956238737809 -1 1 1
945 1 18.62999588535601 3.0211686551416235 8.760879032642567 2 1 0
185 1 16.723682965304647 4.3808825305841514 6.274976790083504 2 -1 0
431 1 19.745501371333823 1.0064717889499022 6.713854990382328 2 -2 2
100 1 16.9316226486223 5.0293243326831965 8.777475408960004 0 1 1
1251 1 20.151815129999925 1.3396287803708689 9.274119521616214 -2 -1 -3
571 1 21.765260221047114 1.1099896678048813 5.482225508552149 0 2 1
1583 1 20.55618655401952 3.1414320219130683 7.689565937386951 -2 0 1
59 1 22.466033011309328 3.247917389949427 5.904414342118032 -2 -1 0
539 1 22.02468944655292 1.4162409275575487 7.64494346839683 0 -2 1
405 1 23.356735030282607 3.4195164804716898 7.994509637604601 -3 1 1
1842 1 21.196487203663736 3.2566108310128437 9.885478394203071 2 2 -1
743 1 26.040503471575676 1.9269379302409109 4.76823886389396 1 2 1
1741 1 27.755743246043792 3.9566802929343448 7.754403168760821 1 1 0
1647 1 24.11420258855655 1.3543602544287445 6.6290794711261505 -1 1 1
186 1 24.913798272898063 1.6807798750202005 8.649493986276118 0 4 0
356 1 27.185751678640912 4.016004762693365 5.213742776236 -3 0 0
269 1 26.41965250009514 1.9118596218135258 7.076366691266003 -2 0 0
532 1 25.158740209403838 3.8071843548061257 6.489090948742094 -1 -1 0
228 1 25.64526154280363 4.037285332248811 8.865530332505301 -1 1 -1
882 1 27.142457681797275 2.1576381776764038 9.523070744638883 -1 0 2
1602 1 3.071363569319916 8.052487007437264 5.132098634292514 0 -2 -2
1043 1 3.344137558782129 8.713915833821446 7.5656254787323105 1 -1 1
1813 1 2.7125359933394773 6.690898855976429 6.8352401585076725 0 0 2
140 1 1.1277534327208099 8.201850030806682 6.192228140384491 2 1 0
222 1 1.4177589504814765 8.185703206434198 8.60770654219908 0 1 -1
229 1 0.4225280402384063 6.221939137162862 8.099504531738525 1 0 1
1734 1 2.975152474507419 6.478237185712964 9.100086522906428 2 3 1
1442 1 4.694138321229413 6.288120148182876 5.562495942158409 3 0 0
1489 1 7.197712756801512 9.021539194955807 4.69599758990822 0 -1 0
1779 1 6.482488006218774 4.926582560874092 8.708859703851886 4 2 1
1738 1 5.126845036625772 6.998144775135169 8.062519576614893 0 0 -1
713 1 6.999806909336258 6.889062380406958 6.8497361479578265 0 -1 0
705 1 5.371585531040218 8.417546835131596 5.743858890023219 -2 2 -1
24 1 5.508745880556428 9.094199206012242 8.469732266005197 -1 -1 2
580 1 7.378417523617447 7.407813658638292 9.178636000469778 -1 0 -1
1038 1 7.597017339416859 9.112207451299534 7.08586190971247 1 0 2
221 1 8.70449082611763 5.211754401366542 7.411744353365182 2 -3 -3
1865 1 9.001622362523795 7.474437152644712 5.367552724342187 -1 0 1
1612 1 10.5480960199216 5.881741790489248 5.930795675380583 -1 0 0
2038 1 9.519302606864153 7.315913524398331 7.535657561978445 0 0 1
925 1 10.994506879548952 5.796892869076726 8.640927771267148 1 0 2
1986 1 11.727160588145379 8.237369154335937 6.3601130107798625 -2 1 0
1150 1 11.978798817433091 7.921786408698263 8.808100041850198 2 0 1
291 1 13.874390541796359 7.643768128425721 5.429153566901559 0 -1 1
302 1 13.03911798928039 6.225982760799856 6.972760658348643 1 1 0
1905 1 15.191428065130609 5.93365523005309 5.57488522390013 -1 0 2
1765 1 14.130433023496828 8.500664895470429 7.380078659195874 0 2 1
2012 1 15.501587713677733 6.644417322020649 8.084230538003423 -3 0 1
907 1 13.530828320091556 6.123987687230518 9.36220869515697 -1 0 0
1230 1 14.381392884969461 8.426277734453505 9.682752920240219 2 0 -1
216 1 18.589769813133202 4.927496970774441 4.410453501675369 -2 -2 -1
651 1 16.18289752568529 8.369870802291048 6.208535328231232 -1 -1 1
1013 1 19.095152480640714 4.789324553306861 6.9328575350163035 2 1 2
338 1 16.573801760478744 8.72929577917012 8.58124206276545 -1 0 0
1705 1 19.652361908436163 7.014764697204522 5.268184509902435 -1 1 0
996 1 17.518957783617104 6.414699274491906 6.860646410316883 -1 0 -1
775 1 18.226458452178775 7.050050778048747 9.107424506068437 0 -1 1
1274 1 18.294642607371564 8.97735617508099 6.8983332195964975 0 3 -1
1245 1 18.6927493385857 9.266091643459855 9.660680596089739 1 1 -1
1450 1 20.18643175901269 6.6957911715380805 7.481144353455379 0 0 0
332 1 20.537574603424297 9.300930166134725 5.625811572562028 -2 1 1
101 1 21.086179704461372 5.1217835114388235 5.772444378287662 -1 0 0
1918 1 21.77654372364406 4.75457010983925 7.888483909174875 1 -1 1
1919 1 22.003107741897765 7.424761016213219 6.147141040773274 1 0 2
737 1 22.13793288818364 7.237553230200523 8.262810145022506 0 -1 2
801 1 23.657926401380642 5.378405171956964 6.317982591118356 -2 0 0
1474 1 20.374517975351807 9.025752110352322 7.929777682505159 -2 2 -1
1861 1 23.895604447784635 5.782761304541173 8.689231357980873 -1 2 0
1154 1 27.76311169229546 6.332341905116486 5.907021707088154 -3 1 0
1324 1 25.80476101537657 5.945666081421208 4.955963479341372 -1 0 -4
988 1 24.161870874512438 7.518836566387353 6.865928532203841 -2 0 2
1894 1 26.307393682384166 8.007150201087754 5.800072765922276 -2 2 2
1090 1 27.015846057277706 7.924895907457705 7.836231740836961 1 2 -1
1456 1 25.733895256444022 5.774552290213934 7.36012602280025 -2 2 1
857 1 24.957440500724346 7.814690718785522 9.199389668684333 1 2 3
1040 1 1.7139137715909663 9.849942708025614 4.110663735292343 2 1 1
398 1 2.5698446095305187 12.100897197913323 5.121456712393897 1 -2 3
817 1 1.9753001326003632 10.324582902944485 6.80644226956653 0 1 0
1237 1 2.502430121739515 12.550224102681888 7.485210297461272 0 0 2
293 1 0.7071830237024518 12.224115391456756 9.095188633988272 2 1 1
218 1 4.058099906782682 10.892529557234925 7.85012699470479 1 -1 1
1858 1 4.126575612968994 10.194666737841153 5.7672577499408115 1 0 1
442 1 28.070491123377053 11.851918963956326 7.044706734046936 -2 0 0
507 1 6.8277765560962305 12.692136646666608 4.429459640123709 1 1 -2
1139 1 4.85562023944019 12.638091848845862 5.726268326011353 0 -2 2
1088 1 5.305074791994353 12.90497390107957 7.818361264305816 0 2 1
662 1 7.481718733485752 12.635359247950172 6.788776146428909 0 -3 -1
1581 1 6.149260306997511 10.704870360027257 6.373241142782022 0 1 1
1360 1 6.5524577377258355 11.090505988875098 8.637431564653081 2 -2 0
1329 1 10.271796111590778 9.637365813268 8.397376146713745 1 2 -1
31 1 9.709982542980393 9.536408014656269 5.9620624659329176 0 0 0
1826 1 11.306991450321167 13.661830342019687 6.570371368599244 0 1 0
119 1 8.462374847492807 11.156742586168649 5.071552470104011 1 0 0
1268 1 9.208703032069515 13.400167412149704 5.445392347556899 -1 1 3
1110 1 8.700276940022105 11.080934275965996 7.717328438541575 -1 0 2
588 1 10.408839920839526 11.554536527971095 6.33236946882373 1 -1 0
500 1 11.367329691230562 11.851147609089882 8.622382295525835 -1 0 -1
1532 1 9.581653636340235 13.25460163555725 7.962868554791416 -2 3 -1
2039 1 8.260386955848862 9.616869070574404 9.798995690185652 3 2 2
2010 1 12.72853207552024 7.585641686046988 0.6410094642404318 2 2 1
627 1 12.63907298758333 10.38601070961288 7.023729812569 1 -2 0
1192 1 12.835524032074904 12.077944967785607 5.039777215058774 0 -1 -1
1835 1 14.361954699524317 10.097917566029807 5.570029502170933 -4 0 -1
1148 1 15.004160418034775 12.408289506202424 5.922179847968056 3 1 1
1798 1 13.313744757146669 12.67725614830722 7.3962624996240045 2 0 0
1487 1 15.060724619563526 10.332447808723304 7.829278936895202 0 1 -1
424 1 15.617867272448107 12.629029469897601 8.173893575851713 2 -2 1
129 1 12.991342113170838 10.350660747197013 9.314805664416689 2 -1 -2
881 1 17.266673093820224 12.82989275809934 4.77017162068106 -1 -2 3
1147 1 18.849103656714085 10.852611812128261 5.461683573532251 -2 2 2
1640 1 16.768037315297185 10.651396365305636 6.186447423205407 -2 1 1
325 1 17.717228101692243 13.0000053434373 7.335670125733185 0 -2 0
1216 1 19.12208516204447 11.003850937507409 7.6801149445292785 -1 -1 1
1799 1 19.729678844009555 13.023000383698443 5.8139721546214655 -1 1 1
251 1 17.1211102439038 10.909315502576577 8.50293310967074 0 -4 -1
1820 1 20.110051333125007 13.185722529570882 8.098684890902845 2 0 0
1438 1 23.57727697435603 11.124016825752697 5.2435825131596285 -1 0 0
1459 1 22.88031800803477 9.443699739927137 7.0653528576944975 -1 2 -3
984 1 23.5404701832654 9.481921360457688 9.383081266433308 -1 1 1
1109 1 22.312026176062815 13.222153479812219 6.972600618878959 -1 2 1
1463 1 21.40750039642328 11.096522673660129 6.381652055691917 0 -1 -1
1816 1 21.705951934706654 11.289815263631858 8.650766887331956 -1 1 0
548 1 23.85443984577023 11.45447935015864 7.736113042145963 -2 1 1
1937 1 22.231342399068183 13.880851877915331 9.207601406990987 -1 0 0
472 1 24.362039664275592 13.369349793608865 5.89024057331631 -1 0 1
899 1 26.68742656199295 14.04142246746263 6.928263307689847 -3 -1 -1
99 1 25.087453196136828 9.705987226329707 5.227115628439694 0 1 -1
1545 1 0.4003768699139627 11.48548350368339 4.531419831131624 1 0 -1
859 1 27.83712657927572 10.11646280552613 8.525517293910783 -2 0 0
1879 1 25.388009920791163 9.722523540892073 7.7644450316415154 1 1 0
550 1 26.130911727523497 12.131830357972838 8.601104096645074 3 1 2
1521 1 27.530109896716787 9.751482903335269 6.063321355049721 0 2 -1
407 1 25.897583726473776 11.63401053451719 6.285816040764473 -2 2 -1
57 1 24.572557618542326 13.845663167299469 8.3007381043354 1 -1 -1
1163 1 7.403422417883742 4.710440285644931 0.34374441921929444 1 0 -1
1423 1 3.5996893668526413 0.8702813131855546 13.684762953933244 -1 1 1
723 1 3.243751825387867 0.8679963866861045 11.150202797870609 0 0 -2
429 1 1.1238499641344712 2.8277286877196173 10.759638730913686 0 -2 -2
534 1 2.1398567499748116 2.5109493846152517 12.866021488656662 -1 0 0
423 1 27.418036528081757 0.2709071279677264 13.381602206753469 -1 -2 0
284 1 0.5000412334190779 4.425730718761841 12.541082526802352 4 1 -1
1497 1 2.7246799076384534 4.599561387671337 11.062115274282228 1 2 -1
79 1 27.70523718256787 4.347228034008763 10.25566327538126 -1 1 2
1203 1 4.4973055461513205 2.913794168663811 11.793384045692173 0 -1 0
959 1 5.326436949511305 1.050190539808601 10.157307530845179 2 -1 -1
1884 1 6.047130179410007 1.1861726310198795 12.69773216161011 2 0 -1
714 1 6.232948509472301 3.3196777892502025 10.629194715162582 -1 0 3
1381 1 6.747643395554376 3.397404381143264 12.977100332536864 1 2 0
1446 1 7.838310731408218 1.3672218784723125 11.281814587007526 0 2 -1
965 1 8.231492257802762 1.8147571742550688 13.49960755277298 2 1 0
1 1 28.105395620378005 10.362782711460504 10.846182863782715 -1 -2 -1
1670 1 14.569468907132034 6.939989291743353 13.895590104686224 0 1 0
47 1 8.695321113529808 3.7949670231918584 11.687704596327084 1 1 0
1569 1 10.715492604055582 3.9401751195456147 10.118733365646749 -2 -1 0
1350 1 10.349863972728862 2.291523828720246 12.02512914485183 -1 1 -2
1448 1 11.02317478341024 4.460120182752184 12.356644186253268 2 2 -1
640 1 12.120612575361921 13.942081219656178 8.872525571911089 3 0 0
1669 1 24.810202295127333 12.151999817255161 12.574748040280515 -1 1 0
470 1 14.822033194959419 4.311791851091242 9.672033768181354 -2 -1 0
1664 1 12.360748088090936 2.2204254985095 10.645014503526946 0 0 1
955 1 12.73056976355146 2.7276785800356214 13.024416373173974 0 -3 1
835 1 14.710197874270648 2.561395080796396 11.559130601416769 -1 3 1
1279 1 13.142355805578216 4.367816366280221 11.101577932264636 -1 -1 1
1291 1 13.396105487611784 5.077550386808836 13.428722050457223 -1 -1 1
1771 1 14.504053343169453 0.630486278191246 13.250793023208729 -1 3 1
1896 1 0.6921291132323599 13.580156603760749 5.45468631801103 0 4 2
970 1 13.86830635668237 0.30599451046638226 11.12094689015494 0 -1 2
1548 1 16.22649166865544 0.9663139429748674 11.953000022315091 3 -1 2
816 1 16.669038976000245 2.8044747651045197 10.2621760054739 2 -1 0
1833 1 18.001040315793198 0.9294020831853711 10.458916618577812 2 2 -1
1293 1 19.153620779504436 3.152340572540233 11.009084859797216 1 -1 -1
1158 1 18.746509699839535 1.343818418662355 12.825617241820813 -1 4 0
1825 1 16.913500450366797 2.9782898204554162 12.70583212833025 -1 1 0
677 1 19.502340142237315 3.313132584273189 13.57767231574781 -1 0 0
504 1 22.38351935266887 11.093003672425452 0.45689072786810747 0 1 1
797 1 21.255927376667714 1.9109944159271819 13.822775391695805 2 1 -1
1665 1 22.79098460295254 1.6098338530782068 10.139225520554865 1 0 2
871 1 20.875938581227338 1.2071280570138256 11.579321834883801 -1 -1 1
1246 1 23.127774347023333 1.8003896127501582 12.33535871891273 2 3 1
617 1 21.46064554120622 3.402236463249069 12.13496077624359 -2 1 0
703 1 23.58408224289608 3.694835808990928 10.626672711654614 -1 1 3
805 1 23.92638179183627 4.391332029489112 12.85570329304788 -2 0 -1
334 1 27.037121424100597 2.3876750260856454 11.94563453775848 -2 2 0
1061 1 25.257829729201013 2.116428771121839 13.378595481323167 -2 -1 0
693 1 25.75896135076397 4.074842346818061 11.065936897635247 -2 1 -1
1812 1 25.230394239962003 1.7933201965041177 11.11221828062871 0 2 0
1934 1 26.687989039147062 4.024304458377026 13.834547936364537 1 0 0
745 1 26.061628818741553 8.462156794981258 14.045330552005694 0 0 0
1712 1 2.704043060259992 4.608569501942506 13.486156399989342 -1 0 1
953 1 3.7530500493114056 8.51955198494591 10.047545116036636 1 0 3
543 1 1.0472159602278839 6.239249741355067 10.66856496200728 0 -1 1
1718 1 1.6021344542790503 6.3839487643435815 13.085044272442264 0 0 2
962 1 1.714941844110236 8.467767747459455 11.021745205137522 0 0 1
1363 1 3.379924604620252 6.708467451912482 11.653108732296177 3 -1 -2
928 1 2.0282821110975267 8.498033964468164 13.412873790004477 2 3 -1
1219 1 4.122359269918994 8.998782037876326 12.223341996931747 0 2 -2
686 1 4.494431935650195 4.672438871155689 9.834747675694418 3 2 -1
1773 1 5.294803545006308 5.105955306458144 12.289615849217952 -1 0 1
2047 1 7.103930197219035 5.466245272436473 10.738762875189183 3 1 -2
815 1 7.110346054244317 5.771504082489109 13.43148768043002 -1 1 1
1596 1 5.346789396838017 6.886142717035439 10.391022387441351 1 0 -3
538 1 5.759720088289704 7.662599228903444 12.90158742364548 0 -2 2
768 1 7.552029274105419 7.587279159125884 11.423013125512256 0 0 1
691 1 6.18395235597987 9.209706691367327 10.739089119011357 -2 3 1
501 1 7.01132959119114 9.583051348389136 13.215791250503557 -2 1 1
508 1 9.031511796249559 5.718108809348377 9.6981474645279 2 0 0
1483 1 0.3355423361606671 13.619615559203648 3.123369098923538 1 2 0
876 1 8.591965927817428 7.8819480585098205 13.86495952987363 1 0 2
511 1 9.213486918302698 6.077342959827591 12.308656171025437 -1 -1 -2
51 1 9.941790063534834 7.832783205694198 9.962926886763581 0 0 0
1994 1 10.398744671218713 8.023513305571614 12.317218300078046 0 2 1
2017 1 11.295445083161638 6.205321096024507 10.848781589889741 0 0 -1
1405 1 11.82754804936338 6.752446362446675 13.214528835209045 1 0 -1
1551 1 15.578540267189727 4.631483712374531 11.992211818742389 1 1 -1
1400 1 12.552314690570334 8.026116039927475 11.30175748834732 2 1 -1
240 1 13.055421940704932 8.771591167421612 13.657957908822077 0 -1 1
649 1 14.887474945970324 8.488855139371541 12.159560717737042 1 0 -1
1272 1 13.90362216256538 6.556090518454615 11.610040937786296 0 -1 -4
831 1 16.070074341625272 6.568288011066699 10.391603048658753 3 0 2
1075 1 0.22701096802534199 2.3817100280384094 14.160720557800058 1 1 -2
1271 1 19.65005987336469 4.97634268684069 9.343760436306551 -3 1 1
352 1 17.701058185674235 4.906322125142711 11.186283325394097 2 -1 -1
897 1 16.367420668075013 6.907948319974617 12.714500359271632 -1 1 3
1430 1 18.027747132080833 5.462231164380833 13.275554829126758 1 -4 0
1939 1 18.279561038376556 7.243229924865995 11.523321710305247 1 0 2
864 1 16.847959850726568 8.979237539835998 10.787559736886514 0 -2 -2