LAMMPS data file via write_data, version 29 Oct 2020, timestep = 300000

2048 atoms
1 atom types

0.013135297629922604 28.33886470236625 xlo xhi
0.013135297629922604 28.33886470236625 ylo yhi
0.013135297629922604 28.33886470236625 zlo zhi

Masses

1 58.933

Atoms # atomic

32 1 2.143229784298963 2.020903400780157 3.2842472424744273 -1 -1 -1
834 1 0.9445590552284043 3.0640832483179716 1.5551118867290263 0 2 -2
988 1 2.971543344990358 3.899224495457478 1.981974355086295 -1 0 2
375 1 3.154048283882623 4.254913385855466 4.370048723252805 2 0 1
1655 1 1.4574337718959134 1.0437875431242605 1.1375538479661227 1 3 3
596 1 3.464904084608236 1.8353533631888135 1.0376763661810275 0 2 -1
1706 1 13.296963546073963 0.30744735287089126 2.115828719608444 -2 0 0
1020 1 0.8108188760930006 0.1992697865721421 3.52623924880234 0 -2 3
580 1 26.08159908378144 13.585011676527628 0.9367025427738261 -2 0 0
2024 1 4.720220867473838 2.742980203640307 2.8722690996921787 2 2 0
1890 1 19.827610745527977 0.29860324744977995 2.766001757573372 -2 0 2
429 1 5.3997649273010255 3.68387597592096 0.4729887146206606 0 -2 -1
2033 1 4.725806089252943 0.2947655520257176 3.4164246383972507 0 2 1
1567 1 7.560248900203704 3.1689433438136616 0.5282213248585211 3 1 -2
528 1 7.912210073727654 4.470583206929948 4.1831424170804 1 -1 1
179 1 6.944786477257247 2.5316705842510174 3.204020111790835 -1 -2 0
1465 1 20.953648956950524 1.1081960951904308 13.752183357457826 0 0 1
50 1 3.0829805172995366 0.051927387522438466 5.410144690353324 1 0 -1
75 1 8.93214873876232 1.6331262159032172 2.3100417577562085 -2 -1 0
535 1 10.172388621528718 2.3574036540633245 0.1576966508150924 -2 -1 0
383 1 9.984843813723275 4.139925565956395 4.868890964370255 0 1 -1
1823 1 10.763893136316264 0.1277770801232645 1.7157473958791027 -1 1 -1
1439 1 10.721618379904406 2.7336733126972512 2.743268846768741 1 2 0
1848 1 19.307176272618367 13.311239338090079 0.13449104854872523 2 1 -1
102 1 11.152394083515603 4.274347051253391 0.9423870400493991 0 0 0
1718 1 13.294545604220884 2.0294161344956247 3.702635416040065 0 0 2
1028 1 12.558253714492245 2.544281094473835 1.1869340467234175 -2 2 1
776 1 13.160774860501698 4.20507750679681 2.4098648230700306 0 -1 -1
1802 1 15.023643406012555 2.437465442531516 2.221590703842778 -1 0 1
1504 1 2.576850409781238 11.45987665222339 0.6259134458054187 3 1 2
1444 1 16.808141763817254 3.4913392653858852 3.3796898364074615 0 1 -1
264 1 0.34091991078621103 8.278942759965126 13.279945117842528 -1 0 1
1574 1 20.955368267703886 13.449793604374658 11.731098917413846 -1 0 0
886 1 17.207674120832156 1.4063208225676553 1.5516952477560393 -1 0 3
887 1 17.670478868261725 1.7005767872006656 4.0802574693049545 2 2 1
1692 1 18.643298780950964 3.657423497920658 4.405631266926894 0 0 -1
76 1 19.602413611451837 0.8043726629556297 0.24951575411593832 -1 0 -1
1182 1 19.004741257353686 2.672615840119343 2.2509344610239457 0 1 0
914 1 15.384747387179315 1.8598618243765677 5.210485266016579 0 -2 0
209 1 8.657759555267875 0.2685109775082682 0.46680688937415604 1 1 2
466 1 23.737403569409537 7.214729277113166 13.780138914523521 -1 1 0
406 1 21.17216199799401 2.3708661175032435 1.9293338262930082 -1 -1 -2
796 1 23.110395014645377 2.1975076363284147 0.5542216403136802 0 -1 -1
804 1 20.12561635993414 4.118224550693048 0.679337960572808 -1 -1 3
801 1 21.02326007734213 4.021351028250506 3.3772022552673517 -2 0 0
1993 1 22.8611070596709 3.995094057990645 2.1231143529170726 -2 1 1
1173 1 22.558402320943166 2.1521615748968173 4.373826756102593 0 -1 2
412 1 11.562775153051986 7.956217658832119 13.883834068944642 1 0 0
1734 1 23.535844137906693 1.313340530266572 2.5603702821268888 1 3 2
518 1 25.798530767134004 10.88273842035063 11.934647841064663 -1 0 0
909 1 27.616163966916 1.7859268590374582 2.2617240512698045 0 0 1
599 1 25.171503034358786 1.7531840325686496 0.6873817034634848 -1 -1 3
199 1 27.192153857347016 4.0660390251399505 0.9496178940605964 0 -2 -1
889 1 25.42615295378636 2.966471044235018 2.4541566444874356 -1 1 -2
1001 1 24.625531485028123 4.2067558474473685 0.5135684294984691 -2 1 1
1965 1 26.922191769930418 0.43009362639051735 4.429562085977194 -3 1 2
977 1 1.1566199813944018 4.609244629782721 3.7846009756892536 0 0 1
119 1 1.5753512658313105 5.560891821543576 1.4808623211959806 1 1 0
1516 1 2.621559496550038 6.378493359003538 3.309474030249285 0 1 1
755 1 2.422035031302143 7.715053617972306 1.2302792204057447 1 2 0
1365 1 28.300478784328423 8.67006407159089 1.6628188517955858 -1 2 0
11 1 1.8188318845609446 8.786009184466518 3.024666137292762 2 0 0
1958 1 0.4639824552880829 6.743444614466851 2.869120614077358 0 1 0
343 1 4.0605272680179025 5.599236929224089 1.089227702458787 2 2 0
1565 1 2.936233868892299 7.691801963691293 5.019929363730693 2 1 1
1495 1 4.908765524534082 5.551556675227281 3.218856370891612 3 -2 0
1064 1 4.132955646540794 7.756940880397598 2.759801686498925 -1 0 -1
1933 1 6.555240998204157 7.593421767045355 2.4083735536705797 0 1 0
1618 1 6.399888170620996 4.91112881114779 1.9235011160737 2 2 3
1269 1 0.12493565631919368 12.710208354851911 0.8769832572336267 2 0 1
1328 1 8.166156697928866 7.974080388327754 4.6158641920350405 0 -1 1
1387 1 7.089373546543862 9.706375703256134 1.3670736843415503 0 -1 1
940 1 8.300593224247361 5.812741117944435 0.6915671952501241 -1 0 3
166 1 6.139930528349253 6.636729481355292 0.4067341851085377 0 0 0
1646 1 9.19809562687823 8.371361446768104 2.031317952593982 1 2 1
745 1 8.885177590003583 4.12199130092849 2.154564619871344 1 0 0
632 1 8.947825297638953 6.25213267737616 3.0066414378792494 1 2 -1
949 1 10.452938828177219 6.722324418821251 1.146462157535103 -2 -2 1
272 1 10.969203975295278 5.245433804246548 2.8660694656165733 0 -1 -2
1543 1 12.832018584280178 6.151134611879854 1.5419504065732696 -1 2 2
1604 1 11.820621812684237 8.451153685117447 2.2259060411296034 0 -1 -1
1120 1 10.495233618851264 7.438122280623167 3.8764140420334265 -1 1 0
1703 1 10.703575677530559 8.973165529520518 0.19308346389504444 -1 1 1
1237 1 12.699029768637242 8.75277186446657 4.407715295940535 0 0 2
206 1 24.98109535020658 0.6170945935559842 9.531384534224431 -1 0 -1
35 1 13.183047261697713 5.750887855025853 4.189720701969853 0 0 -1
1419 1 13.882150433449812 7.147091167297422 2.872934478465125 -1 2 1
1431 1 16.030687692474395 5.436952412190662 4.228077979471257 -2 0 1
1971 1 14.182984975366137 8.655640349906822 0.9264123357895231 0 0 -1
1236 1 16.519401186017383 8.30706066791826 1.3400741445012652 0 0 -1
708 1 15.425054644334065 4.6085795911623615 1.9328277917846843 1 0 1
1857 1 18.61771240834222 0.2033027279270492 12.286964822176607 -3 0 0
1191 1 17.440353859384263 3.900624293196559 0.9548247600223293 0 -1 0
1196 1 18.780498386448546 6.298911740869481 0.4318206826570155 1 5 1
471 1 16.903753331081315 6.172355077214925 1.9723097407591494 -3 -1 -1
1997 1 18.70757868300734 5.071986101907599 2.6572318581619383 -1 0 1
1716 1 18.80277014541635 7.558222972721095 2.4880450555727514 0 3 1
493 1 16.154117695512333 7.727135807511024 3.7778490001757117 -1 2 2
526 1 20.36874125425702 7.8219117410995755 0.24824067219615223 2 -1 0
637 1 18.33361820783957 9.24326307895592 0.7224452925190366 3 0 3
2043 1 20.920782951624656 6.177948261849243 1.780321408894312 0 -2 0
327 1 22.582215765981665 7.84496250554113 2.3142401070391267 -1 1 1
1573 1 21.414253210958876 12.991145920827192 14.013983829302665 -2 0 0
1449 1 23.003862634240292 5.962881421821697 0.7893647723791474 -1 2 1
1915 1 22.836214015934267 5.65384086326208 3.5186801456476617 1 -1 -1
1647 1 24.29241804756095 3.961093672359496 4.173821717571589 -1 1 1
371 1 20.93990699056741 8.55590527356189 4.017516083055842 3 0 0
685 1 27.181176116989825 4.752022186453966 3.289041813962046 0 0 1
1591 1 24.547986198978755 7.370066477263129 3.9354005391141285 2 -2 4
1797 1 24.947722671924296 7.220939543241118 1.288328947533618 0 -2 2
400 1 27.399460620485776 6.329170771751673 1.0881890432576227 -2 1 1
1641 1 25.121323477973096 5.329602953006724 2.430765243806756 -2 3 0
430 1 26.76743695972384 7.269916398470318 3.0926638495088605 -1 0 1
1415 1 3.4419963612576767 9.97136752995827 3.86947464471942 -1 0 1
1203 1 8.721711888524686 1.318923178691531 11.011423081881466 0 0 0
1783 1 0.9727228910816929 10.697187909806521 2.107539487464624 1 1 2
1029 1 3.5228882721001993 9.677542167439324 1.5085423189698548 -1 -2 -1
688 1 1.904228698988953 12.849480111877403 2.2020254828610057 0 0 2
1482 1 3.7334837852497103 13.477995937002097 0.6519058318411706 3 -1 0
1490 1 1.3510472613971842 11.376919862888714 4.198808184770102 0 1 2
618 1 4.041367850420907 11.866219080041432 2.681806927085714 0 0 0
2028 1 25.070397804515615 12.933995832126175 11.158576957091215 -3 2 0
1544 1 6.731748451769136 12.183684355410607 3.3896437168501152 -2 0 0
1663 1 5.778084025560518 10.118869127518323 3.1559366590784514 -1 -1 -1
116 1 6.131028052147155 13.847216297387572 1.646302010185682 0 0 2
841 1 5.713966132847905 11.79268340976322 1.320295392948042 -1 2 0
1866 1 8.296589765580315 11.590581646652392 1.6415916170990812 -2 -1 1
1453 1 8.039227028478898 10.038049807315588 3.4812676068375277 -1 0 2
1457 1 3.2861918738987033 0.8786775187317084 9.542233119845463 -1 -1 1
1197 1 10.1601130010486 12.867449970509112 1.6209443748023302 0 0 -1
1192 1 10.215933384717566 10.602737188817683 2.171271171646045 0 -1 -1
595 1 11.305297114732713 12.371574295867987 3.9555689580001876 0 -1 -1
1280 1 12.924091895907708 10.361225994370791 0.9190747363513277 1 1 0
1964 1 13.070562105250913 10.972529049544864 3.36147128520048 -1 3 0
848 1 11.090182899886276 10.065682739080776 3.9779436253864215 1 1 0
772 1 9.095295895334097 12.045942649183113 3.7951924588647343 0 -3 2
1681 1 15.777332146411903 10.677561660892284 0.9485368801080133 2 1 1
827 1 14.717987016740977 9.496792086560307 2.874151615285555 0 1 0
478 1 14.434150323989785 12.121408965826065 1.7864079780377604 0 -1 1
1087 1 16.030146207139452 12.057033792717421 3.3076841829636874 -1 0 0
807 1 13.738105824377234 4.17089235714664 0.15713045617776425 1 -1 0
822 1 21.70062674571069 0.15888314607108084 1.167632895309195 -1 -2 1
2040 1 12.29091455058967 12.64268748750344 1.7205074735015595 -2 1 0
2002 1 1.3866020773173082 0.6950243455054603 6.994178753648724 0 -1 2
1599 1 17.116159287403065 9.747505161950347 2.6452614575214426 3 2 2
931 1 18.046845011853673 11.49525365702306 1.3664420318359303 -2 1 -1
359 1 20.01537681396347 10.87554042479548 0.14598452190564726 -2 0 -1
232 1 18.535139895430863 12.158898044728634 3.530283448314956 1 2 0
1207 1 13.60817963076634 14.060262801223425 8.834652723862115 0 -1 0
214 1 19.68955152841276 9.933477258693028 2.79003556829106 0 -1 0
1273 1 23.619415781380972 9.474904496047534 13.445787204786415 0 -1 0
1293 1 20.964778690286913 11.901263372875725 1.6165441619720995 1 -1 -1
2021 1 21.711839371760647 10.578571129099338 3.2527998790338852 1 0 1
1193 1 21.77031466174189 9.65231382987882 1.2682523127848588 -1 -2 1
1700 1 23.05807676662007 12.306782851058585 2.0957930152291975 -3 0 2
202 1 21.44969860797528 12.949160511385971 3.781365125267329 -1 -1 0
260 1 24.588393673263536 13.534021930867143 5.345573621402769 -2 -1 2
1205 1 23.765755775282607 10.095017141135287 2.5211470404640517 1 -2 0
656 1 25.327499672569434 11.536691281863508 0.9371233993059224 0 0 -2
1024 1 13.907347821435991 13.189086587299787 10.978876577803018 1 0 -2
1132 1 27.189750434656606 11.575148191874778 2.5755085713723047 0 0 -2
33 1 24.876621148409967 11.686161323116803 3.618606808348656 -1 -1 0
1240 1 25.198260492034837 13.663490014479295 2.9352962177697397 0 2 2
386 1 27.72363211442695 9.665119368099619 3.9636392393540416 -3 -1 1
862 1 19.883529956945964 11.489496970579678 12.640138196766479 -2 1 0
210 1 25.97793873820315 9.347023551511086 2.302363506686481 1 0 0
1286 1 27.752389714914248 13.829547700454327 2.5519737799503526 -1 -1 0
1978 1 2.0369994060989813 2.705934091151228 5.618402177594458 -1 2 2
1262 1 1.6984240059158586 11.76370511913641 12.58967836410932 -1 2 -1
1027 1 0.41653401855287947 2.775475934345363 8.400358001086547 1 1 4
1650 1 3.0067463662012437 2.3649670718020905 7.901314044682765 1 2 1
1939 1 0.3480828567229147 4.058085747018027 5.774520128365777 1 0 1
305 1 3.4829448207578824 4.210037653917905 6.635898633942356 2 1 -2
2035 1 1.8730871864120362 4.826394466267841 8.197494021541958 -1 2 0
831 1 27.856602029998104 6.000773999188112 13.631917693378316 2 0 2
1002 1 8.171647427327251 13.974829348326605 5.129248800844008 -2 -1 1
999 1 10.406536890886857 9.767386582220999 13.816023889347814 -2 1 1
187 1 8.577492176954673 1.7842997278164632 4.640627948096 -1 1 -1
261 1 5.59924345400923 3.9891333787956085 4.896350629286446 2 -1 -1
82 1 5.321120013366314 2.9675802340594615 6.831408772471746 0 1 -1
615 1 6.365344662186328 1.3983281286957145 5.394544994479694 -2 1 1
1335 1 4.799011533370976 2.620218492486 9.209124612799487 1 2 1
598 1 5.102455809124655 0.7670362529616888 7.514666390817637 2 -1 3
808 1 6.555912905131194 3.9502346220765405 8.610128510113121 0 0 2
1343 1 6.973111402618966 1.4503468469404792 8.8826000804286 1 0 0
1539 1 4.02591356700279 1.9982317831055092 5.104638064112833 -3 -2 1
544 1 11.079451812157506 1.564610325257929 4.77222109644218 3 -2 1
1932 1 7.983057535920926 2.7011893268923877 6.68676922253275 -1 0 1
1856 1 9.521927178392822 1.65546537713605 8.789292139483868 -2 -1 1
1957 1 10.732917719963568 2.8294327681196063 6.616499801211112 -1 1 -2
1605 1 9.719035122821834 0.6788570115165949 6.567474840336703 -2 0 2
800 1 12.233276115231066 3.708675231334199 5.021951834560435 1 1 1
2046 1 8.37322883830452 4.803484024958092 6.68650341269124 0 0 0
1486 1 11.021287924422502 4.840525365682056 7.093310974033768 1 1 -1
379 1 14.458328987756804 3.850348771558186 4.631134843594692 0 -1 2
1973 1 18.717749743820008 12.671308709812646 10.90411769948961 0 0 1
1215 1 11.619639304168395 1.3199024554435796 8.153641633145245 -2 3 1
2012 1 12.699339479121264 3.5957200594011782 7.873491922179148 -2 1 1
1873 1 14.588651030510942 1.124212599037481 7.586501628342289 -1 1 2
954 1 13.100712411437684 1.9006333645341555 6.283284323610821 2 2 1
614 1 15.146104525641176 3.298922631709311 7.658180414754992 -2 0 0
1581 1 25.705959595889453 0.4685705551482198 2.4371245834001 -1 1 0
1026 1 18.645536742857814 4.7851054197454435 6.3009323615021255 1 2 -2
439 1 18.637439360565306 2.5524437348205202 6.249288058117901 0 0 2
1846 1 18.119908984942683 2.3437270912156714 8.76090088353471 2 1 0
1290 1 16.81818362731272 1.277091909069741 7.393242944553282 -2 1 0
1842 1 20.731447885466565 3.4303512623810177 6.296537546856051 2 2 -1
396 1 17.19453649843188 4.515444375318389 8.548862219196039 -1 -2 -1
742 1 19.50425630353258 4.125491443689516 8.039474448572026 -2 1 0
503 1 16.543368618121633 3.820925195603965 5.818550618297521 0 0 -2
560 1 19.795514672237456 1.1548105572755378 10.143216495248224 0 1 1
274 1 20.354298441560648 1.845213171383856 4.516269499324741 -2 0 0
2009 1 20.469825219144692 1.5627106847404666 7.876622707918447 -1 1 3
127 1 22.41608469863291 1.9416648654134459 6.910229181101726 -2 0 0
676 1 15.179356009231947 6.562493100875296 0.5665477516718886 -1 2 1
228 1 22.128900012181038 3.939050511910322 8.347400440640907 -1 1 0
1324 1 22.12385605217029 1.7090140088685686 9.322592422089768 -1 0 -3
1005 1 22.492417526699377 4.245233969583071 5.458355802683621 -1 -1 1
55 1 24.131557142142988 3.4017372986095467 6.596275832414434 1 0 -1
785 1 18.41191685934574 10.508435733385296 10.487165472091428 -1 -1 4
1154 1 27.242481203004782 0.8276158660305364 8.67326641427563 -2 1 0
331 1 28.30464636164137 2.6114006734041757 4.048956234124621 0 0 0
1520 1 27.623055045412258 1.5078581720562996 6.435276414855612 -2 0 -1
291 1 24.768132333796718 1.4501944585619542 4.608784912735802 0 -1 0
491 1 24.08293814521803 2.2876157963895776 8.666723977727088 0 1 1
1737 1 25.20803856324834 1.3261872359281657 6.984648495915408 1 0 0
1184 1 26.668961020269027 2.8122607469744465 9.098555952375122 -2 0 0
1118 1 24.633638722454894 4.450464182965762 8.911483883907447 0 2 -1
315 1 26.466993049874546 1.3522127924953773 11.04584360003371 0 -1 1
459 1 27.931118838251052 10.134277335488981 11.711952993828582 0 -1 2
525 1 1.7262144850682073 5.921089413621321 5.881129677705514 0 0 0
981 1 4.507435078139995 5.946356605387607 5.443123525389789 2 1 -2
1968 1 0.33169660778169485 7.662641727701541 5.047112412655489 -1 0 2
139 1 3.9826397234776145 6.912250086270909 7.5079027032523085 -1 -1 0
1671 1 2.202521923549616 7.993538824643853 7.28335242743138 0 1 1
1755 1 4.1059209035402215 9.485161656631988 6.271337815020645 1 1 1
1527 1 5.550686594246492 8.411488056751333 4.67936819875742 2 2 -2
1228 1 6.939657262037651 6.225240421133729 5.066930329999492 -1 2 0
566 1 5.64899507156284 5.286728546188996 6.969985834323354 -1 0 1
678 1 7.425555422914283 6.393376503745718 7.773656464282245 -1 -2 1
1685 1 5.928879684716785 7.796063494984618 6.841567855294398 1 1 0
2004 1 5.738917293746756 6.559538987414898 9.233347652805746 3 0 2
1774 1 7.102698643812481 8.977079826889135 8.373311744103619 -1 -1 -2
462 1 8.50631628890267 8.293844776855316 6.729017661691035 1 1 -1
891 1 4.675750846299499 9.061195064380236 8.693251722835724 1 1 -1
1256 1 9.486070626889447 6.364875905652789 5.587165545326123 1 1 1
384 1 8.924114237167469 7.459175929572782 9.52960666976067 -1 2 1
427 1 9.068643899476353 4.334083849762439 8.70447445495855 0 1 0
679 1 12.184929391051654 6.124129072697653 8.003785025989917 -1 -1 1
463 1 12.00664531484684 6.947311397056018 5.841128618998957 0 1 0
1514 1 10.520197377577484 8.69480364978669 5.955214840626116 -1 2 -1
42 1 9.913442699344325 6.863740502336853 7.68777762512901 2 0 0
1763 1 16.03756718101961 6.076073554591654 6.4838315424141095 1 2 1
229 1 14.573530568027882 5.5840853953116705 8.469523036621633 0 0 1
764 1 11.620810646982703 8.137951909997346 8.020886378514005 2 -1 2
425 1 13.782322473027628 5.398335370304497 6.280591117112192 2 -1 1
1122 1 14.116439586876817 7.569807998813176 7.470136453399005 -3 0 0
913 1 14.436756728764715 7.437614722059872 5.1904196618075416 0 -1 1
300 1 14.080671514199613 9.069543981376452 9.412065915552368 -1 0 -1
966 1 16.29417046260903 7.0134813980183175 9.252935039531273 -1 0 1
1155 1 18.151485890357847 6.351407408686205 4.74743582480956 -2 1 0
923 1 16.259935284111513 8.75648800682849 6.458721290105927 1 -1 1
441 1 18.345661817114255 8.815646084581088 4.630337744783421 0 -3 -2
484 1 17.787826795858724 7.04017691907729 7.02381728831838 -1 0 -1
1163 1 17.876402945909337 8.769458230267187 8.980818152957807 1 0 -1
1309 1 18.87088567343051 9.714108698916098 6.938841956953732 -1 0 -2
401 1 20.448464162612797 6.122766182306939 4.314454094996955 1 1 -1
1084 1 19.669350785255777 7.670006536584734 5.884120670804055 -1 -2 0
592 1 22.41687502100355 7.163374413696526 5.305913584734162 0 1 2
304 1 20.95331159744931 5.872550196342625 6.821456641266871 0 1 0
158 1 20.02716890176167 8.34824361970656 8.538252049882189 -2 0 0
700 1 23.504266492900097 5.822416238899632 6.934539457027345 1 1 3
1146 1 23.190678607183937 9.284077305321578 4.725534179314821 -1 2 -1
14 1 22.218222526312278 7.696319884062505 7.4754851945535945 -1 -2 -1
1597 1 27.410222058428133 5.634772418632547 5.300354895438031 1 1 0
2026 1 28.233151471969233 6.057247271144321 7.305489330019224 -2 3 3
901 1 26.498239596308895 7.617586354365898 5.74473718360792 0 -1 1
797 1 26.333564288083977 3.390954893388593 4.826604655204706 2 1 0
712 1 25.15550719468833 5.654640402615868 4.9883981161134185 -3 1 -2
541 1 26.497573869572182 4.033118538182998 7.22925998532783 1 -1 -2
1368 1 0.14905442315939718 8.79558410851869 7.333730287633526 0 0 1
1522 1 25.722338560056965 6.165188016722278 7.701110817096284 0 0 0
117 1 24.400641533431706 8.032288924564268 6.328257562242269 -1 -1 -1
527 1 1.9210787257762376 9.672053714371055 5.448591034686872 0 -2 1
686 1 27.546363133381224 10.601548825639009 6.3321677329657025 2 2 0
454 1 1.847347552687847 10.525263707098912 7.886779838729193 2 -1 0
1506 1 3.359310357288056 12.582121108295008 5.042629827816545 1 1 2
1875 1 3.928977245894568 11.834158649615246 7.239561060545357 0 0 -2
93 1 1.137674669016713 12.124867709487537 6.3312285655028635 1 -2 2
105 1 0.0879621129290743 11.533894026304244 8.331514224275036 2 0 -3
1714 1 0.8466044593068377 13.643790112293862 4.159183385603327 2 -1 1
445 1 27.879448031514666 10.754121373468665 13.81939786967086 0 -3 1
45 1 5.738973209834859 10.747909188615365 8.01914738582447 -1 0 0
519 1 5.955408211309689 13.042900825508893 8.26714534543487 -2 1 0
1615 1 5.013541006031811 11.117971453042301 5.22899388583568 0 0 -3
61 1 7.247337887381205 12.09221727770602 6.131937457212141 1 1 1
257 1 7.071344998613859 9.75062363445996 5.750147167178161 -1 -2 1
224 1 4.061068908343185 13.323155069215508 9.36854589496971 1 -2 -1
1878 1 8.07954913046584 10.97813510173683 8.037857487619698 0 3 -1
475 1 7.748174750531922 12.437403148044401 9.482693686874553 2 1 -1
1905 1 6.0097599252770895 10.662921935935108 10.584861429272404 0 0 1
1870 1 11.982833679967564 12.537653644071495 9.716900409003257 0 2 0
1354 1 9.903084324909335 9.42384344782119 8.262499249591832 1 1 0
1585 1 9.291733999927041 10.634856603072468 5.855439142597124 2 3 -1
1429 1 8.270996752271632 13.619339703194475 7.4292480777388645 2 1 1
575 1 27.219914182327916 10.577754517737196 0.6518085332633689 -1 -1 0
2032 1 10.12218681279763 12.99020690664625 5.667260096774494 -1 0 1
1201 1 10.096327631364538 12.279823007376319 8.01028460906468 0 0 0
1889 1 12.281196888789063 10.358599368510271 8.108206696335582 -1 1 2
1744 1 26.094467054637203 4.552099178598053 13.467602365613798 -2 1 0
1542 1 15.619040356281857 10.430531811150704 13.649152149687673 -1 1 -1
1644 1 15.115392230060062 10.12411347895072 5.084901227631802 -1 1 -2
59 1 14.735309535171279 10.40050613427717 7.530601793647657 -1 -1 0
1074 1 12.008536350663737 11.11189911390578 5.994529073243267 1 1 1
1829 1 12.888654772115425 9.122806355883197 6.478658056417461 0 -1 0
819 1 13.81729838623773 12.113006232435092 5.127432213476481 -1 -1 3
1435 1 15.939800229399598 12.145744212515815 6.167973006562904 -1 0 0
1796 1 13.17616121898425 12.529767807467792 7.412582147568633 -1 -2 0
1210 1 15.523585350182106 12.526927711539992 8.390058271867067 3 -1 0
1247 1 15.614066814747932 0.39371395682076515 3.243741951972406 3 2 -3
1048 1 17.67731536476093 13.0868609772549 8.806316800873073 -1 0 1
1062 1 17.32636040453099 10.59849126620718 4.878217074270648 2 2 0
1230 1 17.19572444947751 13.61377878372334 4.682740602414951 1 0 -1
1721 1 18.61115833174111 12.086749044917092 6.081550937769434 0 1 2
1103 1 20.00217604240333 10.649213050484555 4.959475647405829 -1 0 -2
405 1 19.633253099136578 13.790070793488649 5.080438493814438 -2 0 1
908 1 17.07993028258041 11.076775268966815 7.686406041129984 0 0 1
248 1 26.510466555572908 11.404939950583127 9.917204266025058 -1 0 -3
1844 1 9.48440866985338 14.021831913576063 9.371285559432762 0 0 0
2039 1 19.20244840994597 11.449137751217343 8.41650366263074 2 2 1
63 1 21.165197564203975 9.347619747675484 6.208894332633822 0 -1 0
1254 1 27.626193762640792 13.534402251490453 6.018158938476859 -2 0 -1
1245 1 22.93278584131672 11.71753833563439 4.9608130227583205 0 1 -1
600 1 21.67275793771576 10.398888005535815 8.491622851323855 1 0 0
970 1 20.912770175122166 11.83742184133343 6.9152960876622425 0 -1 2
1533 1 22.869453060921817 12.299736314806504 7.459313199291684 -2 1 0
1798 1 20.744017187487962 12.451892348036852 9.605289772073606 1 -1 0
1422 1 23.434154480517574 9.91639364667932 6.914423229786448 0 1 -1
724 1 23.29346222866913 10.134581779061294 10.889626042214067 1 0 1
1693 1 25.483657819261513 9.812077792911484 4.850336412668149 2 0 0
609 1 24.823992108688525 11.50610914151784 6.507139883836836 -2 1 0
245 1 26.32231293292892 9.516241800861708 7.942291293399369 0 2 -2
1717 1 26.337840329185354 12.217683361839967 7.746768912199795 -1 0 0
976 1 26.871518136538732 12.065330491438273 4.626298479200103 -1 1 2
811 1 24.480054499429926 12.897074070750147 8.809409053766236 -2 1 0
951 1 5.027694550633943 2.9782264255860924 12.962147779784189 2 -1 1
353 1 19.54565132219471 13.828147216477225 2.360926219001044 -1 -2 -1
1863 1 2.177156666240926 3.1209551269171554 9.757032793357729 0 2 1
1116 1 4.261194932244835 4.753986047429689 8.883054039542246 0 1 -1
654 1 28.061027127822605 3.2922136027998072 11.096122893502798 -1 2 0
1864 1 3.457767693427903 4.7963102472906645 11.336048082000758 -1 1 1
1594 1 1.518731570707494 2.097630979155857 12.310849034314815 0 0 0
1661 1 1.225898720845153 5.29602525375725 10.367668563284214 1 2 2
1969 1 3.708419390559279 2.402805129942352 11.503926798273685 2 2 1
1497 1 3.25000231236741 1.1216342813139188 13.387786224256102 1 2 0
1372 1 28.140982729554516 0.7748766452200457 12.559142996694865 0 1 0
682 1 19.29748470293895 9.14927890817384 12.236324302552417 -1 1 1
1538 1 18.70886751563643 0.2613359140629721 5.654686488299795 -1 0 0
1348 1 4.1113761112298794 13.995762698060199 3.344795971685599 1 -1 1
1112 1 7.419441783156999 3.5656048450505216 12.574956260014032 0 0 -2
387 1 6.458114153457554 1.6556398379559263 11.065220446012818 -1 -1 -1
1057 1 5.717679477299061 4.217445157966705 11.028186002672928 3 -1 -1
1331 1 5.5359803554351545 13.407663725465897 5.610067544829994 1 -1 2
24 1 7.438679964640843 0.8935068097804949 13.216090878731125 -1 -1 1
979 1 27.95892629722895 3.2222203262252833 13.76516303634166 0 -1 1
194 1 7.801651414004174 3.2890988746949557 10.35701838993514 0 -1 2
1417 1 3.388398456314547 5.244733339159109 13.75389848615921 0 2 0
840 1 9.505336382383168 2.3307780988961393 13.307076753561436 0 1 1
1545 1 11.271327225586216 4.009487811952011 13.818824846094131 1 0 -1
1780 1 11.038747668851267 3.3980814041834466 9.310948219820991 0 -1 0
925 1 14.535120247475334 10.231348586664296 11.539177502145659 1 0 1
1077 1 13.483203910102656 2.5728143667580894 9.605290998564799 0 4 1
411 1 12.314377025695611 13.229106799409946 12.89726934387925 -1 0 0
864 1 11.952766767901277 3.016376484798643 11.37965612480662 0 -2 -2
1391 1 13.505436434262352 0.49737980258274256 11.061519150432822 0 2 -1
918 1 13.62137932483567 4.3915465575269375 13.082306195062642 -1 -1 0
1189 1 14.525493032554632 2.5587676030959967 11.785326702790243 -1 -2 0
675 1 12.798174738785624 1.6001026196112917 13.262485647524581 0 -1 1
1985 1 13.371906207470907 4.831165911392088 10.217339217671196 2 1 0
1455 1 16.02013263426747 4.904336413340055 13.162940975482979 0 0 1
991 1 15.848851060507254 0.1913498969034599 12.281005029703028 0 0 1
2047 1 15.900881592289121 3.817999015575771 10.398892123461664 2 1 -1
449 1 18.291404397633034 3.6619562035600848 10.785204963322577 0 0 -1
1756 1 15.58574588080371 1.807481605383268 9.878781077529718 0 1 3
1561 1 18.446890386292353 4.148078037380305 13.047596964943857 -1 -2 1
192 1 19.60329430664099 2.295579678444406 12.190422709455984 -1 2 -1
1336 1 17.157132465778982 2.2129787043653653 12.569579778988548 -1 3 -1
46 1 10.866677146027678 0.7571136565475614 12.240997133360775 1 1 1
504 1 17.44664944134486 1.0031996323392 10.694540336708751 0 1 1
619 1 0.20117377420051158 13.678352340114511 8.322543975609067 1 1 0
461 1 23.344896326359567 0.9050187314545767 13.152439325185673 -2 -1 0
1121 1 21.86708185914338 11.34370402894193 12.269697540543788 0 1 -1
1827 1 20.740670037115187 3.6701820670335805 9.984191654399494 0 0 1
719 1 21.790965133197627 2.234539723474097 11.899364147770848 1 2 2
1479 1 23.626444746642512 3.3409885133972885 12.982407420299273 0 1 1
53 1 23.09356692444361 4.008393980200311 10.41943527251572 -1 -1 0
1400 1 12.312188726359722 10.59106432766383 10.56840338747377 2 1 -1
1371 1 17.39638190292921 11.799939009251604 12.927524634428009 -2 0 0
31 1 26.036048418686416 2.3064781230131364 12.963066427889347 -1 0 1
2015 1 6.153337970922746 1.3751706174651723 1.537174152743944 2 2 0
330 1 27.617909257919884 5.046616478912793 9.122646432084089 -1 1 0
1680 1 0.2212734261768723 0.8122778322179129 10.44036534910547 -1 0 2
432 1 17.341362705277483 14.094781114577206 6.870739646128151 0 1 0
1384 1 27.574948168636965 5.601763606941918 11.512970187877878 -1 1 0
243 1 24.307450596168138 2.1441454754221256 11.149339031870198 -2 -1 0
1727 1 10.24561602908865 13.71061007611261 14.02775267184759 -2 -1 -1
982 1 25.627538877185764 3.9257687854615826 11.189806453137209 0 2 0
17 1 3.89750433612942 9.42087710160337 13.584473078066829 -1 0 -2
983 1 1.268417203129103 4.352662150670303 12.56589479627857 -1 1 -1
1534 1 2.17740462003834 9.39475323723582 11.862291108753459 1 1 2
1813 1 3.5144957152628513 6.902727455106523 9.833445844498582 0 0 2
479 1 2.4549112274367983 6.974623395205524 12.343148340659084 1 1 0
2001 1 2.4886507071142985 8.97442016745946 9.653362031242239 -1 2 2
1858 1 0.4950643564522108 7.814399651315261 10.933203129929678 1 0 1
759 1 1.1845000313449747 7.086046545029271 8.967906972850974 0 0 1
66 1 28.23965357556207 9.732235243779042 9.57493898296033 0 0 0
398 1 5.908036969364523 4.612707685401402 13.98017879690279 1 -1 2
591 1 7.842014851244257 5.510582205359606 10.319411968624616 0 1 1
1036 1 7.359177282524077 6.658266169719524 12.560350278997893 0 0 2
1086 1 7.048601413066732 7.756161444186412 10.822715296675693 3 1 0
871 1 4.996435275675746 7.304843707315276 13.876003583130444 -1 -2 0
779 1 4.968426655218139 6.387572988503714 11.665291803555984 -1 -2 2
1396 1 4.585889395271088 8.622341750562226 10.878529960413449 1 0 2
1525 1 15.040226388899477 13.832708212390868 4.753328681288288 -2 2 0
1416 1 9.656984194368007 3.6234660161205414 11.289503693802356 1 0 -2
899 1 8.460709288207726 9.116382213981705 12.473194144237857 -2 -1 -1
477 1 9.838068458848475 7.2824114797486175 11.83844525929526 -1 1 1
43 1 11.03462902804696 8.074733880959592 10.239271997607641 0 -1 -2
1052 1 10.482892363866059 5.639584139053883 10.186927340780022 -1 1 -2
510 1 11.661031100223909 5.614130457331321 12.456432421238796 0 1 -2
753 1 9.357450406678808 5.212405925925853 12.931256997367777 0 0 1
1469 1 12.688007312009713 10.893700743230308 12.945630045446748 0 -1 -2