LAMMPS data file via write_data, version 29 Oct 2020, timestep = 300000

2048 atoms
1 atom types

0.06083868974397433 28.291161310251915 xlo xhi
0.06083868974397433 28.291161310251915 ylo yhi
0.06083868974397433 28.291161310251915 zlo zhi

Masses

1 58.933

Atoms # atomic

1450 1 1.6468199310000442 2.9034096479852693 3.5090397827557966 1 0 0
773 1 3.6768114947797543 2.102638019707751 4.322458874027085 3 1 2
42 1 2.3631784108927802 2.0597490242528833 1.5706379692664363 2 0 -1
1493 1 3.387098086103465 4.073594017249294 2.5143197911508977 -1 0 2
1805 1 1.7848024152083657 0.38026527054527914 3.0619240460028827 -1 0 -1
467 1 3.0565643674645155 3.7865763766521727 0.1567745655512897 1 -1 -1
1852 1 3.1028780199176182 0.3574030568854356 0.09413336493234326 0 2 -1
481 1 5.559040496438507 2.8066433941759246 3.0794925368664754 -1 1 -2
479 1 7.848394315657631 3.3933705198669393 2.151834915007565 0 2 0
701 1 6.543928164484375 0.8568489926439767 1.9327207665977308 0 2 -1
1359 1 5.421873654682262 3.9282436356931156 0.8320912573108715 2 0 2
413 1 4.242378225402206 4.474808033961923 4.475139942464466 0 -3 0
844 1 7.52169774181645 3.4736909672229888 4.746786013120827 -1 -2 2
119 1 4.732930872297305 2.0826141323690024 0.689860276909054 1 0 0
1974 1 7.871291825160468 1.4308836228412676 4.064279302286082 -1 -1 2
1575 1 4.130887433974252 0.358437533051342 2.2764403894598817 4 2 -1
340 1 5.6264882148672655 0.512796054581669 4.135772250945878 2 -2 -1
216 1 9.122156267493171 1.2874345719327758 1.54190643209833 -2 -2 -1
798 1 11.593017656026085 3.5343343295724106 1.7602995017492142 1 0 1
1660 1 9.712302093695275 2.681096615803451 3.194802223504979 1 0 3
552 1 11.23516582109773 0.662226409058828 2.1429409908435577 0 1 1
770 1 11.771507954755304 2.3102709715836 3.9788763180074294 0 1 1
1278 1 9.559062535101875 3.311134891696983 0.5628108123545473 1 2 1
1770 1 13.818171962744465 3.97593800354828 1.0657219004783898 2 -3 2
1696 1 15.313761213963907 2.0867429417798573 1.2936284362877304 -1 -1 0
298 1 13.484342822247257 3.319528173281175 3.142735548518455 1 -1 -2
825 1 13.230635233671427 1.3511560137376537 1.2475139280638465 1 -1 0
1186 1 15.83136110267146 3.4971014259828013 3.2989511600466344 1 -1 0
829 1 13.893952586498074 0.7160046695341866 3.521522356657408 0 1 0
266 1 16.28543214356769 1.1078700320667816 3.298887755067014 -1 -1 2
163 1 17.85876614627465 1.6657336235806788 1.4743059828156297 0 -1 -1
404 1 18.02893257521456 3.7224929376512725 0.34794670621821844 -3 0 -2
1864 1 19.975439345156385 2.6653512025631296 1.0560917850078784 0 1 2
92 1 17.993765893344303 3.7357225327311285 2.7174470039624494 -1 2 -1
882 1 18.641971609274123 1.3823101552984247 3.714217258283074 -1 0 3
52 1 20.0878551040359 4.689371914206797 2.177932014864061 0 2 1
1097 1 19.635406095037713 0.13013564220646856 1.987214709181347 2 1 1
1884 1 17.290668682509146 4.735688528504763 4.707099239090085 2 0 -1
1226 1 20.429285374587916 2.81077710078344 3.2330960309389187 2 2 -1
889 1 22.045555556672248 3.418764639129554 1.4135019967536062 0 1 -1
1973 1 21.64633429328272 0.9396826022224327 1.3700435894729968 0 1 1
1335 1 23.307197587142674 2.395666171787114 3.0201874396490664 1 2 2
275 1 23.903566406625398 1.8450730205633346 0.5038222344526527 -1 -2 2
1509 1 22.33080943411145 4.373207659887763 3.602321239969801 -1 1 0
1551 1 21.69922752275881 0.8075595956523177 3.9005636606887353 1 1 -1
56 1 24.43363533569763 4.163575433636295 1.5974871079121895 1 0 1
1163 1 27.189371363491798 0.6985843238696827 0.5547268766703045 0 0 -1
346 1 27.79690123493253 4.059984733788051 3.8478740831138007 0 0 -1
1950 1 25.927676072712686 2.6570978187865117 0.1697907675730888 2 1 -1
1725 1 28.254586239631042 2.139283822950614 2.013987421103536 -2 1 1
1190 1 25.67100137447563 1.2078982032651837 2.284989141310386 2 4 3
802 1 25.417533259112005 3.625680654400894 3.757503973768593 -1 -1 2
618 1 24.646232947896788 1.6735470285734408 4.496294646327023 -1 1 0
1732 1 27.51906941105383 1.491220815590036 4.052454579736754 -3 0 0
21 1 27.961122227462244 3.643449112720193 0.22339631025290174 0 2 -1
1900 1 1.0955172099989048 4.769673398620825 1.7351582772581924 0 1 2
463 1 1.9100824801830212 5.2651093062121905 4.041319335300313 0 1 1
1795 1 2.073543074710552 7.063899468667763 1.508997481350011 0 0 -1
501 1 2.358701778235931 8.203872912117177 3.5171805062778816 -2 1 1
1777 1 0.5650663002704753 8.910456665053387 1.26520221283005 -1 0 1
39 1 0.37503350201057184 6.755319095271748 3.4391965017615242 0 2 -1
394 1 3.8979315608893996 6.574274415609833 2.786310096060213 0 0 0
366 1 3.9444050614511346 6.016660117808733 0.81745891740555 -3 0 3
223 1 0.07049908355698543 8.892159475878598 4.656157425779114 0 -1 2
1693 1 5.860770592320012 5.195698464309404 2.6308763899022725 2 0 -1
602 1 4.3821761757607955 8.492370516698564 1.0644589383266054 1 2 3
1872 1 7.9455755527785055 5.934625907935204 1.7278722033949139 3 2 2
1849 1 4.41181335324471 9.002049617986494 3.7243905404993813 1 1 -2
913 1 6.290825815926422 7.421462556804645 3.8667674501293363 0 -2 1
1945 1 6.110771954980727 7.033896972615549 1.3684852790581723 0 1 2
1015 1 8.00935096297579 5.345978312767838 3.8367665788239487 -1 1 -1
1309 1 7.848145313847284 8.665272962318046 1.088716999176233 -1 0 -2
53 1 11.637685081209142 4.83345074838511 3.7874425667564546 -1 -1 -1
1860 1 9.754979331067256 4.956643223178682 2.24154942190659 1 0 0
1610 1 8.436998847081226 7.766594728175405 3.140819690353789 0 0 0
546 1 10.343990155704375 9.134697856032686 3.3146918674877233 1 1 3
650 1 10.249430010123003 7.577540097299802 1.29112262278609 -1 -1 0
1148 1 11.503005482010984 7.396853495358622 3.5535053339703695 3 1 1
1738 1 11.67390908995186 5.837804565056677 1.6252170357032982 0 0 0
1025 1 9.7623316205456 6.201676120445447 4.331669910964249 -2 1 0
1635 1 16.133315308032707 4.9113133484335885 1.3812606679473172 1 1 0
1225 1 12.232776136121766 8.524019979107186 1.3717359227110961 2 -1 1
588 1 13.924473684408914 5.67165242341933 2.750821261425065 1 -1 0
823 1 14.309239852494327 7.772528846535934 3.3651371924186972 0 1 3
1299 1 14.170025055215676 6.9090160546813175 0.9177555263884795 0 1 0
837 1 16.15838773784947 7.0010215893468075 0.8207241365487594 0 1 1
377 1 16.082262112147898 5.966033438677971 3.3453875620478923 0 -2 0
946 1 14.488347852222814 9.306396907296744 1.9621476149940393 0 -2 3
248 1 16.98297756323005 8.47003935667439 2.3746628596669597 -1 -1 -3
1526 1 18.31733931977392 6.160018224101858 2.9028868829278203 1 0 0
1971 1 18.708352870292416 5.850655065270969 0.6556927818791172 0 -1 -1
1165 1 19.552613386791943 8.646170322989196 4.324335477833087 0 1 0
1115 1 19.076797370792445 8.134601303981295 2.084636046132728 -2 0 2
987 1 17.454536338551385 7.519538221828016 4.72629324200106 0 0 1
355 1 16.29033404920435 9.326799335830248 0.2508048314072873 0 1 -1
675 1 20.8775043120048 7.192265512297577 1.4106388958238825 -2 -2 1
991 1 20.407493934471646 6.379088241837582 3.595247526755262 0 0 1
1724 1 22.87596539179114 8.213740020932478 0.9030578121950007 1 -3 1
647 1 22.627390123784412 5.726421927019659 1.3811674805161125 -1 -1 3
1283 1 22.771258138286537 6.682658142168442 3.6966283715556307 -1 0 1
136 1 21.79138672010567 8.5152412172712 3.551618745371861 -3 -3 0
1444 1 24.933361419860002 5.714637752653175 3.2165856930997796 -1 1 -1
1152 1 24.864614915558313 7.16826659529391 0.935298959586171 -2 2 -1
431 1 26.624263234127913 7.657155267270578 2.5362447035797215 2 -2 2
433 1 26.81254926912235 5.011199999359835 1.9653813835573835 1 -1 -2
1705 1 24.534030957107337 8.463232408269784 3.050934053825608 -1 1 0
1294 1 28.11434297930459 6.512983475632567 0.7746291358663031 0 1 0
785 1 26.703564299513786 8.889771426364387 0.44653874900419366 -1 0 4
378 1 26.77923893502 6.108837176963304 4.650073862232125 -1 0 1
15 1 2.3853275059568624 13.462999003028715 0.7214121322564608 -1 -1 -2
945 1 3.028434854121184 10.214329821415443 1.8814285795247527 3 1 0
439 1 2.9150493189647406 12.926754442691776 3.219043388228081 1 -1 3
911 1 3.0118822023600047 10.824461469060571 4.693574487363709 -2 -1 1
1593 1 0.9441921907661489 11.407755123636273 1.5451428431980583 2 0 0
1537 1 1.017419831155344 10.469329467773894 3.55541685473929 -1 2 1
1023 1 0.579694618036501 12.736020441279921 3.987867190088674 2 1 1
905 1 0.27156162117837296 13.451598058699627 1.7676902801736576 1 0 1
1670 1 7.00917242869467 10.890205265570062 0.3892599499501003 0 1 1
839 1 5.8351459416155205 9.742025649307294 1.967766487665671 0 0 0
2046 1 6.694985891375235 9.678049694891952 4.119604692918873 0 0 0
1503 1 4.615927467059176 12.057785903904117 1.1631869244402278 2 1 0
1866 1 4.759593163042956 11.174069448183673 3.3493334693986676 -2 -2 1
652 1 5.181389242641128 13.565078154515717 3.415136155317029 -2 -1 -1
213 1 6.93948045286344 12.0986336266485 2.4963635834001106 -1 0 -1
227 1 8.020379272163666 14.050497185362017 2.2754496254239345 0 -1 0
1300 1 7.466692288999514 13.97484650548964 4.691290284239417 0 0 -1
187 1 6.61401682846332 13.103765590654586 0.3120061481227019 -1 0 -1
2010 1 8.572841294734491 11.753837883963266 4.061806310974917 2 2 1
510 1 8.501928428189391 10.602498994479191 2.1726150463712894 1 1 -3
1784 1 11.534553423715458 13.272087743639768 0.9301935559373908 -3 0 1
482 1 10.424310347669497 9.869113345929007 1.0396452101586218 1 1 2
240 1 10.449577365259229 11.626556790649527 2.6653903805309627 0 -1 1
910 1 9.17179994714552 12.706144698851936 0.9346294334862737 0 1 2
1488 1 10.021765868050204 13.873990642431323 3.770566637401466 -3 3 0
1552 1 14.146081755421163 14.0595805579317 4.051743336322529 2 1 -1
447 1 12.609525531352194 11.135095564444148 1.242767434199898 -1 1 2
1406 1 12.506815043229066 12.43944344630904 3.1429011540715726 3 1 -3
1598 1 14.907042356432179 11.221738513990674 3.705320643553875 1 0 -1
1003 1 14.423299918327801 12.42242354131488 1.705435809225277 0 0 -1
506 1 12.638859315089503 10.089943434737993 3.374875511655307 0 1 2
1315 1 16.69864261060718 10.810642072572312 1.888793630653815 -2 -1 0
37 1 18.80374442562575 10.529079441128115 3.220883112571542 -2 1 -2
2027 1 18.57647867585846 9.997292135617736 0.3744140033740496 1 -1 2
1588 1 18.753382990747998 12.181175581524926 1.9368848743973925 0 0 2
1357 1 16.502568921874925 12.980131209665737 2.9104879292456047 1 0 1
1926 1 16.446515812358438 9.61011864082844 4.1325451227651815 -5 1 0
1211 1 18.80496798572773 12.762353209150012 4.257237451698537 0 0 1
739 1 16.900489204712176 12.840699008265624 0.4149775144665208 -1 0 0
890 1 20.395038811067984 14.02569002370602 3.1947602527787304 -1 -2 0
1313 1 20.684433837045667 9.975479561397123 1.8012497812076964 -1 -1 2
1245 1 22.51026865703154 10.384289464711937 0.32765601894860985 0 1 -1
2015 1 21.128516072581352 11.847670082637512 3.154589930615275 1 2 0
835 1 23.012600028292965 10.701084389979185 2.311111286013611 -1 3 1
1919 1 22.27549672666496 13.569002797827675 1.952891017937531 1 0 2
150 1 22.99300446785372 13.080872277756091 4.009029140562049 -3 1 -2
34 1 22.544873843782224 10.813146346129788 4.694476652983259 1 -1 1
851 1 20.617265964494916 12.40261844989973 0.908631297383649 2 -1 3
1254 1 24.418355553909628 12.600649918408191 1.9520618718358838 -2 0 -2
1314 1 25.120795531757366 10.817291715324368 3.7794322066397887 0 -1 -1
1929 1 25.809678305153387 13.678312443410212 0.6720025775255661 2 3 1
198 1 27.05659802186712 10.022613326598053 2.6894391194095753 2 0 0
1650 1 25.046886894354977 10.386143645014636 1.3980505638702039 0 1 1
1408 1 26.561207162764994 12.278166585213787 3.129439879848254 0 0 0
1216 1 26.88673373743169 11.32565028067193 0.6747933290074316 -1 -1 1
1876 1 27.32755029706145 10.88800090464369 4.688812304073545 -2 2 1
162 1 1.0655732057522032 0.7734841111261049 5.072415858423625 1 -2 0
363 1 0.453803890725366 2.5947239352144527 6.337687348386118 0 2 1
568 1 1.1911129969494387 3.425153654167074 8.38258381471635 1 -2 0
809 1 2.575377274948418 3.7916359239769917 5.832757419294551 0 0 1
922 1 0.42889095340695915 1.1774951423415971 8.516772073177712 0 0 2
305 1 2.562389210305505 1.3082848221550227 7.007646299820226 2 1 -2
732 1 3.949629303916578 3.2777668171220995 8.427950946498877 2 1 0
1159 1 4.792732142160628 0.8309983978676749 6.143732942639078 -3 2 0
480 1 4.330006896975335 0.9112929316478057 8.593498610961658 2 0 -1
1683 1 5.395687244907255 3.175391552411586 5.814188440802552 0 -1 0
285 1 6.096418718202324 2.152680498915963 8.000866144199934 2 0 -1
1943 1 6.631643897058975 4.15332137129809 7.246435603155183 0 0 3
1740 1 7.133307361470454 0.5324899860545518 5.829346595246115 -1 0 0
1728 1 7.784896734532162 0.33959006192819885 7.971539322517847 1 1 0
1530 1 10.07848074883508 1.3168083168882698 5.3504427763784275 -1 1 0
1564 1 10.032402357699524 3.8361781320718253 5.046058920890147 0 0 0
1671 1 10.94771403619146 2.766982491162387 6.95654478134761 -1 1 1
1106 1 8.231322265319367 2.2326993454311364 6.475544073699891 2 2 -2
2014 1 9.023768446377348 3.457695426165016 8.172762972454024 -1 0 -2
539 1 9.958024637765941 0.9663001324808038 7.80727545733289 1 -2 1
1744 1 11.849955134367042 4.081260999628475 8.642429521956872 -2 1 0
816 1 14.67558169095876 2.2905821936612627 5.277761918513767 2 -1 0
525 1 12.471335997418276 3.9571799981501923 5.73326474059593 0 0 0
1363 1 14.536845110198488 0.20518532350934163 7.751847171854001 3 0 -2
1179 1 12.627637357007064 1.3249887413367123 6.196388733846691 -1 0 1
634 1 13.952809211033234 2.60739881162311 7.41613524225279 0 0 0
49 1 15.740653551797829 2.0345057408314675 8.925086809682476 -1 3 1
518 1 12.31415895274856 0.830963173200102 8.335191827102909 -1 0 1
1492 1 14.286266710094807 4.364495416685807 9.202364745197603 1 1 2
1096 1 16.07142603667096 3.902487388715468 6.541313034748526 1 4 0
450 1 17.457025001328656 2.639972259253099 5.084030434156066 -1 0 0
613 1 19.667951147284658 4.147366720879156 4.846501774785115 1 -1 1
1399 1 16.21364970576735 0.8728575837638279 6.145147915788545 1 1 -3
1628 1 17.955775052100755 2.3997736115650548 7.296038117896272 -2 1 1
966 1 18.589656833993118 0.32357053312191686 6.082911539087275 -2 0 1
1574 1 19.97047662859001 2.0380328807790047 5.635112505109564 0 0 1
495 1 18.981259569577826 3.50527118149843 9.134416749924137 -2 0 -2
457 1 19.59108886256273 1.344370723048769 8.248646177883037 -1 -2 1
1267 1 18.50201512803979 4.640106081087241 7.159232580531567 -1 -1 1
994 1 16.706402387836327 4.104053889667574 8.699199253138065 0 0 0
80 1 22.0789794957032 3.0772232911845183 5.576285144467303 1 2 -1
875 1 22.355371076194434 1.7103186861367747 8.025546037252576 0 -2 0
1812 1 23.079801053697008 1.1665963584213976 5.884371302322039 0 2 0
332 1 22.57488755258601 3.962927543466898 8.477306162364284 -2 1 1
391 1 24.083598510569626 4.213627720089716 5.205514056429789 -2 -1 -1
1333 1 20.49021937454738 3.211330866026508 7.3716961183423315 0 0 0
1913 1 24.1512517321233 0.36236794322210086 7.986222990601192 0 3 1
258 1 21.12425258020433 0.1434566508916204 6.695775116691301 0 -2 1
485 1 24.372134996650143 2.703000245601127 6.856733204393487 -1 0 -1
1865 1 27.10615534433759 3.770658429074868 8.521043682426425 -1 0 1
278 1 26.648757381926234 3.1536173755825994 6.16250744797521 -2 0 -2
750 1 26.04419835065348 2.001212709337435 8.595146165296637 -3 2 -1
351 1 26.080184066920218 0.9637901210301179 6.353513061095257 0 0 0
1485 1 1.2703466401603372 6.732983232824426 5.7766709615723775 -1 0 1
795 1 2.3227322574625497 5.5366577331291476 7.578751819370376 2 0 1
334 1 1.3121339322248318 8.754391224042935 7.595727330269949 -1 2 0
1830 1 3.3136609289441803 9.132241636758303 9.290876390664039 1 1 -2
1210 1 2.5282194058570377 8.78737255802578 5.605935464286731 3 -1 0
1100 1 3.529263153808672 6.49603076146447 5.205356189298442 0 1 -1
915 1 3.36490480105972 7.688118287038296 7.534187812596751 0 0 -1
1630 1 1.7273408058810527 6.963650931264353 9.285856750912581 -1 1 0
1238 1 5.072693162259628 7.752172878593836 5.8916019650815015 2 1 1
1176 1 5.702098468336909 4.984233429118118 9.256277291250136 0 0 1
1758 1 6.150342914072417 5.46987265274136 5.143003053802084 1 -2 -1
1802 1 7.921851880878835 7.36543070366292 5.552561333162539 -1 0 1
338 1 4.538467754326971 5.378832705308505 6.924570507047377 -1 0 0
1432 1 7.057886668009694 9.130899647871452 6.460607054495027 1 -1 -3
1680 1 6.663773858004245 6.376499879767565 7.595173488520627 -1 0 2
1639 1 5.591653356751319 8.920841732430585 8.417461951333594 1 -3 -1
1098 1 7.748328306688528 5.439556867887515 9.180787090254835 -1 1 1
310 1 11.679985046239706 9.068687765015595 5.449170138716688 -1 0 0
362 1 9.961966857059322 7.8418838101593575 6.296478150586882 -1 0 2
681 1 8.71935758638936 5.372326878632899 6.340034325185081 -1 0 -2
306 1 9.775606493684228 5.730939102088997 8.542621893664741 -2 0 -2
838 1 11.151477474424036 5.622585474730245 6.415814957527484 -2 -1 2
1681 1 8.704591270711045 7.705210225451865 8.043219585500113 2 0 1
1279 1 11.88872589860493 7.859263734717047 7.74407636386979 -1 -1 1
1836 1 10.215623052113605 9.212368554794837 9.029244067991224 -3 0 0
1166 1 14.49268259815515 4.918955030561856 4.862443031165998 1 0 1
876 1 13.033947296376972 6.241840206075217 8.850609279980219 1 0 2
472 1 15.09201183781685 7.117783402924986 5.303132319119497 -2 0 1
364 1 12.796954726520251 7.115535739042083 5.39595304530491 2 0 1
1346 1 15.577535117741748 6.219052474304941 8.550116619003756 -3 1 0
2008 1 13.863550980465718 5.320466571801538 6.840376772346436 1 1 -1
1024 1 14.29817794615625 7.655371852677975 7.378461275013136 1 0 0
333 1 14.121812402448617 9.201412409100149 5.261055727429793 -2 0 0
1816 1 16.861283632664684 6.095735898703345 6.665119006407376 -1 1 1
211 1 19.34790460928412 7.1265896832895645 7.494316175043472 0 0 -1
1987 1 18.890146560436634 6.392490223359628 5.524203879504069 -2 2 1
600 1 16.274684848381387 8.877332895808275 6.406761883997732 1 0 0
1525 1 17.25375780346428 8.107024185088584 8.17707075685431 -2 2 0
561 1 17.930388751065028 5.880242977698158 9.029090929287184 0 1 1
735 1 18.359289878227784 9.357038628017017 6.190443418157509 -2 -1 1
712 1 23.880194288677476 5.359025933941311 7.445719716927812 -2 2 -2
924 1 21.977032295298432 5.574951008300081 5.510877430377608 0 1 2
1246 1 21.0407241300366 7.538076045371081 5.884456426293057 2 3 1
631 1 21.160671047861825 8.346313825627432 8.612669271349233 0 1 0
1939 1 22.57801098216725 7.303243394306073 7.136248557616904 1 0 2
1180 1 21.222916410675836 5.558198418037569 7.842122848108194 -2 2 2
183 1 23.452070053985583 8.600216731973525 5.11882293772083 -1 -2 0
2013 1 23.521820940238747 8.366880994957983 9.16614221036367 1 0 -3
1242 1 28.18173918809239 4.958880687923009 6.235032363711368 -1 0 -1
1376 1 25.971585314809843 8.448553372000859 4.767545104358593 1 1 1
1626 1 27.28272710839937 7.445611955063223 6.381501061172139 -2 1 0
1378 1 25.979499548385377 5.206873389272416 6.905415924184103 2 1 0
488 1 24.575678275566574 6.558299467440972 5.592316972493278 0 2 -1
1868 1 24.90085011195877 8.020071327677911 7.089071610224172 -2 2 0
742 1 28.137524262054683 5.996823846918485 8.160747752826696 -3 1 1
153 1 27.529401149135225 8.229957050987808 8.535869344350033 -1 0 0
1539 1 25.32496651476045 6.605471349339925 8.773309618095636 -4 -3 1
1532 1 3.512564386505848 10.116815132803994 7.257357510168692 -2 3 -1
171 1 2.2849407612383636 12.836242163091274 5.61578464631807 -1 1 0
1808 1 3.2351971521566947 12.328702757270026 7.543395928520733 1 -1 0
284 1 2.1683405244583858 11.089110751236337 9.209127129409813 4 1 -1
409 1 0.9242280709478919 12.680987853678591 7.533459820196931 -2 -1 1
526 1 1.1505225689580398 10.767303703575077 6.179123326380908 3 0 0
800 1 2.838719594354282 13.495480705169033 9.28730368893501 1 1 1
657 1 7.957451221842135 9.751951871857436 8.691888098436264 2 -3 1
487 1 4.68195089334584 12.512125650569436 5.667926812485225 2 1 2
1595 1 5.247022763567992 13.518147635201968 8.560048241663102 1 1 -1
1312 1 5.063041870741781 10.257983077417311 5.530873196701417 4 -1 3
1760 1 6.587822953247387 11.820011409066067 4.905540555478787 2 -2 -1
453 1 7.110845566110977 11.878769092204644 8.80287685138687 1 -1 2
998 1 6.791105683885566 13.562682593447203 6.798592439599294 -2 -1 0
1099 1 5.969170537295639 11.088599101433383 7.267943433857063 0 -1 -1
196 1 8.041366980658605 11.172329700351346 6.5191152910120005 -1 0 -1
1054 1 4.49740679833022 11.139850270781956 9.263653348450262 2 -1 -3
1402 1 10.648134744778266 11.412174752385027 5.025516918442581 3 0 -1
920 1 8.959961708883059 9.582188305584104 4.961772430585613 -2 0 5
2 1 10.054290035196015 10.21268338114611 6.99346940618076 2 -1 -1
1793 1 9.45814109844622 12.06214159453487 8.429752924202937 0 -3 2
1139 1 11.532611648308697 12.307528051849674 7.340543672598184 0 -2 2
1345 1 11.623205953272818 13.445693029309556 5.44328849094515 -3 -4 -1
658 1 9.314975689058969 12.93341355116938 6.081459289189788 -1 0 1
407 1 14.764806374320356 9.792628785093818 8.573084619384778 -2 2 -1
766 1 12.714278840349586 9.916775558410677 7.385412248715898 0 0 -1
1771 1 15.657541803651124 12.767278729907101 5.064052857708971 -1 3 2
1059 1 13.755940120827526 11.79186489976968 8.43561063758778 -1 0 0
1788 1 13.074142590825451 11.468448623675945 5.357299794065199 -1 0 1
1799 1 15.027348362160698 11.101659420042209 6.70817986171851 -1 1 1
1055 1 15.628525731363975 13.29231367525778 7.821117361747454 1 -1 0
999 1 13.942963603907883 13.28372469440427 6.451532681712501 -2 1 2
1542 1 17.746835979705004 13.344294534671407 8.05816052622656 -2 1 -1
1358 1 19.421971872579963 13.61138633183134 6.822456525686864 -2 0 0
1247 1 17.382859998258915 14.161080582233069 5.795469185633327 3 2 -3
700 1 16.870529040843845 11.055076189627858 8.015830084779449 1 0 3
300 1 17.453346885816764 11.472475669342472 5.439216097137689 -2 0 -1
1377 1 19.07961499100113 11.55977932513618 7.123595834518609 -1 1 1
1184 1 18.99938288802447 9.705015452700819 8.619164471288194 -3 0 0
942 1 20.00097872522167 10.820015942573107 5.075537008950605 -2 -1 1
133 1 20.039169494388243 13.375042969352121 8.841550127401009 -2 -5 0
1391 1 22.163114131267278 13.787463393573953 7.282077150536744 0 2 -1
1212 1 20.71401894425495 9.583390082423563 6.933162870573739 -1 0 0
410 1 23.02277589794734 9.600043498007068 7.263928609715836 0 0 -1
110 1 21.045430409050237 13.11266490333068 5.074794235749199 -1 0 -2
1794 1 21.620680995714256 11.625484935471402 7.890952797480908 1 -2 1
1187 1 23.544442629020114 12.12726437083756 6.254475014625699 0 0 -2
908 1 25.19389539070103 13.98844341577036 7.11076700235345 0 0 0
1205 1 25.267617459235 14.077917829090802 9.329037542726386 1 -2 0
1545 1 26.971766378890962 9.570284491446888 6.598267220561523 0 0 -1
1687 1 27.552392364233373 13.246779098060788 5.557647072491635 1 -3 -1
703 1 24.878683216488053 10.416284327730544 6.142057242503301 -1 1 3
71 1 26.338736950376994 11.84887808496129 6.904237460149481 0 0 1
1579 1 25.602489923525404 10.083350776099973 8.50075535396667 -2 -2 0
893 1 25.234105923105663 12.859093620929627 4.920688315237333 -1 1 0
341 1 28.18662234460885 10.611332212663335 8.322318572844482 -2 1 0
1751 1 26.564402285041467 12.345653876745304 9.2099564897471 -1 0 1
1495 1 24.495408612910033 12.262658457321333 8.557423802040088 2 -2 0
2022 1 0.9294948220762126 1.6066744530213202 12.25237170302638 2 3 1
1727 1 2.3162338483441935 1.316359890709913 9.729258294516109 -1 -1 -1
571 1 2.484366798399885 3.2025459463174024 10.775521447912677 1 2 1
1658 1 2.462572168118972 4.1715998321113235 13.308134062049605 2 0 -1
1044 1 3.6060904456061738 2.0292073459788114 12.235435094642089 2 2 1
1217 1 4.044129244253051 0.40700131729052874 13.722473866580652 1 2 -1
665 1 7.999630418164401 0.2494850785777948 11.770758232340414 0 1 -1
104 1 4.535398360354392 0.15185452803542865 10.900691605432813 1 -2 2
1091 1 7.3338236605745815 3.167126401321997 9.80742073394659 0 1 0
1421 1 4.7248720327317795 3.2134080170752846 13.80517530565656 3 2 0
461 1 5.06410447886707 2.7259171952385137 10.00794994269377 -1 -1 1
263 1 7.003259592151638 1.1283362933419767 14.052740167658555 0 0 -1
1132 1 6.5670387828353505 0.782284509710479 10.081478837556338 1 0 -3
1644 1 4.422716825985896 4.253048078441961 11.627952980229423 -1 1 -2
925 1 7.024278778067683 3.676422505314269 14.00199377529061 1 0 2
1538 1 6.318209227364814 2.104305296995632 12.196102617821188 -1 0 0
764 1 6.772533740500722 4.5242766143946955 11.818220264397683 3 0 2
1653 1 10.982178868414987 2.361646385973474 9.983136208574138 2 3 -2
935 1 8.958063963865143 1.57175069848536 9.988687974551274 -2 -1 2
928 1 11.74395558014848 1.544950443174535 14.067153432852637 2 3 -1
808 1 10.780998454812082 3.1170295645384245 12.37903878209473 0 1 2
414 1 8.347639650056783 2.5288211041925748 12.109180593865918 1 -1 1
438 1 9.303439747499729 4.179788396106408 10.770626879436952 1 1 -1
551 1 10.198309988303958 0.6088972889501758 12.339642281206364 0 -1 -3
894 1 9.064795382346736 4.631447326787209 13.234762672875853 1 2 3
290 1 13.619518839806613 2.268025333644671 9.72754292126276 2 -1 0
537 1 12.627542664092196 3.8415512385217245 11.133358529044985 1 -1 0
557 1 12.75849877846316 1.4394061085052907 11.785107751533953 -3 2 -1
527 1 15.170436502340692 3.361243144322761 11.006661433767162 0 -2 1
777 1 13.456043326010693 3.0262275627644692 13.286868847925367 3 0 0
1571 1 16.184652983953445 2.311456218414008 13.028549744201406 -2 0 2
226 1 14.366661767794154 0.743213360069731 13.296491932720643 0 3 -2
496 1 15.684991495173882 1.0951620730842682 11.359291889064526 0 1 0
1587 1 15.376725034515427 4.376282886529923 12.77689015840245 -1 -1 -2
1578 1 18.505531664416807 1.6590354243069476 12.344934774045093 0 1 0
1035 1 19.585204419062492 3.4333264830283396 11.397700940335426 2 0 2
940 1 17.43815128617037 3.1442119475915695 11.210476298133262 -2 0 2
517 1 17.995312210211722 1.3035998859931957 9.734560836877964 -2 -1 -1
1697 1 18.130791577183853 4.434753825734595 13.272978321905395 -1 1 -1
1826 1 19.65183904967206 2.9473505999682073 13.94228378955444 0 1 0
1911 1 23.863799622893566 2.0385272504344165 9.546169296064052 2 1 0
1620 1 20.839023838019187 0.7171852074755748 13.135219083440328 2 2 2
1723 1 22.658500071962457 1.117727989046194 11.068513080073144 0 1 1
96 1 21.12550839827103 2.8823828458174128 9.819034974194402 1 -1 -2
7 1 21.5757677602308 2.7664510042167856 12.54748500488991 2 1 0
356 1 20.259837852121347 1.228538056472846 10.885184608694857 -3 0 -1
1847 1 23.229661161326927 0.6419941113575883 13.702395149834084 -1 0 0
1927 1 24.02784808836684 3.087618944938606 12.523239618348756 0 1 1
1318 1 22.67407230883688 4.624435677184172 11.172823363589476 0 0 -1
302 1 24.736774435759216 4.605061492604192 9.659785476781803 1 1 0
774 1 24.939271396453115 0.17730883142412115 10.115876047794316 0 0 -1
866 1 27.019768106862312 0.5079562134882591 12.67735779331213 0 -1 1
1640 1 28.280534003431473 2.9121106843536415 10.450986577490927 -2 1 1
1668 1 27.26735421491822 0.6131705930576211 10.469489967572141 -1 0 2
337 1 27.276756608207627 3.285135118411357 12.516649927557367 -1 2 -1
1249 1 25.536974776897008 4.686797379528167 12.232645987799089 -3 1 -2
676 1 25.76295210047971 2.8686633919717317 10.703165768767972 -1 2 1
1556 1 24.743975365192487 1.104165027477713 12.148998523052729 0 -2 -2
1642 1 25.888917179432774 2.3244447402449295 14.056268624368599 -2 -2 0
192 1 3.128581501673563 9.3364978762319 14.034407678805598 0 1 -1
1233 1 0.8988779173199631 5.0062794295410855 10.072662585608859 -1 3 0
1047 1 3.1126721756560163 4.960480646592746 9.605368031711143 1 -1 1
1128 1 4.062715523546136 6.836495747397459 9.482381671723884 1 2 -1
1237 1 0.1641391837213529 5.23651753599016 12.261516483506002 0 1 2
982 1 0.6581105180315359 6.5486276929626035 13.931882510193422 1 2 0
873 1 2.501889743619054 5.938476771909669 11.944549619901903 2 -1 -1
655 1 0.8993011263526579 8.968373169077731 10.203719420050357 3 1 1
847 1 4.003016407213271 7.647913665299923 11.874296356247795 -1 0 1
159 1 1.6873656930444516 7.871677866111434 12.447573155314485 2 0 1
1954 1 7.1019794738606565 6.377355027043194 14.011617995079375 0 0 1
1117 1 7.021646971103303 7.513110260452746 9.745171710321703 -1 0 -1
629 1 4.560732909578435 5.791568036687854 13.459057323582462 2 1 2
221 1 5.63346016569852 6.32839370100181 11.064724288285507 2 -3 -3
1641 1 5.154957284665277 8.082104707985 13.805974250724626 -1 3 0
390 1 5.006904349928176 9.192984143117318 10.586787621455672 -1 0 1
87 1 6.376373292699266 8.345427080933785 12.056420283059147 1 1 -1
1033 1 10.19043574617018 7.145170924541132 10.143773112520647 2 0 0
1597 1 8.212346560553785 6.422554527538884 11.600993155453443 2 1 0
1379 1 8.503223839542326 8.092031708780159 13.41386260297166 -1 1 0
1933 1 11.159253898878122 5.43587061052926 10.801499044371123 1 1 0
1721 1 10.144943202540848 6.680368222286228 12.679466057252966 0 1 1
1110 1 8.636544581067573 8.514894331226738 11.108095727250898 -1 0 2
41 1 10.98179990361507 8.928532314947445 13.706589136768498 -1 0 0
1523 1 11.060064983369077 9.302434306712573 11.289101632002916 0 2 1
1972 1 12.634017087374417 8.845817911057146 9.69567488931078 1 0 1
1182 1 12.374966333216882 7.399663484889779 12.04213034674359 1 1 -1
45 1 12.941202033246418 5.4146768781226955 12.90913353952094 -1 1 0
713 1 15.041251827292184 8.123878197441892 10.031852151512883 0 -1 0
563 1 14.709034823488208 7.468625118551187 12.500783668423836 0 1 1
1041 1 14.139912297314876 5.96683986360192 10.91989707813179 0 0 0
1092 1 15.86880593181954 9.445734868980498 12.2953793927035 -3 0 -1
570 1 19.09094217894248 9.275555918222796 11.280438784611631 -1 0 -1
1145 1 19.001853626935638 6.7679195936548995 13.954020216542235 0 1 -1
1747 1 16.262806923073203 5.311345735689379 10.619232046857755 -2 0 2
476 1 18.630368143581308 5.54363426826098 11.242803991084482 1 1 1
1678 1 16.67203801823038 6.264882408063754 12.697403937396599 1 2 -1
965 1 17.235110294042524 7.449456189410653 10.575895034973405 1 1 0
297 1 19.452747861221372 7.432721523530439 9.810072944417458 0 -1 0
1944 1 17.898530959053062 8.213798594149823 12.702613588143121 1 0 1
1922 1 20.20575164794148 7.37661533428439 12.106461895739375 2 -2 2