LAMMPS data file via write_data, version 29 Oct 2020, timestep = 300000

2048 atoms
1 atom types

0.035164997208248394 28.316835002786966 xlo xhi
0.035164997208248394 28.316835002786966 ylo yhi
0.035164997208248394 28.316835002786966 zlo zhi

Masses

1 58.933

Atoms # atomic

159 1 1.4543676095459879 0.8990893418399006 2.8567093937507355 2 0 1
900 1 2.3884308615315137 3.1470863038207195 3.592175068852257 0 -2 2
644 1 3.3266394491956555 1.9809443380779186 1.5866744572851241 1 -1 3
1954 1 1.1936943134468225 2.639676768702829 1.3009948825046065 0 0 1
1874 1 1.8929011124913313 0.9907341320286164 0.21814715925648476 1 0 2
1475 1 19.4154630099618 6.602798828190385 1.5171596394571587 -1 1 1
1219 1 4.355191965626195 3.855221019328736 2.4387661110726504 0 2 -2
512 1 3.4738330465203053 1.2156967963230236 4.494016738061523 0 1 0
468 1 7.6356668157476975 2.4782289639561355 5.104830663565306 0 0 1
73 1 6.952257922418239 2.909424272156367 3.023319869578064 -1 0 0
1047 1 7.44104865341415 4.933085241728838 3.9830338985607807 1 -1 1
746 1 8.001931753269314 4.340964174555761 1.6559450749919384 -2 0 0
1057 1 7.2422178890381055 0.700668956811809 1.3054804762187224 3 -1 0
835 1 0.07597740498556396 0.559554685746871 12.403002883944431 0 3 1
760 1 5.988194996155303 2.7489720850091786 0.9684705952647548 2 0 0
129 1 11.135449259931848 3.0829303915504194 2.579575666089453 2 -1 -2
50 1 8.707087917954098 2.145755169764408 2.2149081393306274 1 0 -1
1237 1 10.62088351093472 0.6383544782555034 3.050319684222475 0 0 2
1003 1 10.326840796026945 1.992626849371164 0.7706097792555955 0 1 -1
997 1 10.093046728870004 4.624221317946195 0.8736526854828162 -2 2 0
1343 1 13.032209778626479 3.170308941780015 1.2991394901553308 1 0 0
67 1 8.16726866713419 0.6160310398144234 3.70494267196997 -1 1 -1
590 1 12.691572856691748 1.5424580618021528 3.7387504434129863 0 0 2
1792 1 13.235206119507602 3.9138812315897455 3.3762991831325837 3 3 2
1907 1 14.52714239271184 1.5091350901750304 1.4249762812406592 3 0 -1
1990 1 15.2019551583415 2.1698898022189343 3.462283813158558 -2 0 -2
1802 1 15.205088369721022 3.6959850419398164 1.5560412193457485 -1 0 1
937 1 19.550845593276335 13.10932395789604 9.757199577985384 -1 -2 1
569 1 12.258954910271333 0.858991552371792 1.2183576518477466 -2 -3 1
1656 1 24.797251861239342 12.344227708930239 11.86053695612095 0 0 0
887 1 2.392209526582005 13.493291728539406 13.77638561666102 2 1 1
528 1 18.173262381851146 2.475052501294814 3.9938590943051167 1 -1 1
838 1 16.906726413287345 2.203936819127961 1.786279780978699 -2 -1 2
243 1 19.383112682784926 2.720536951699566 1.9929082602947836 -1 -1 0
322 1 20.204611082116468 0.7092052220354724 1.1603656618874014 -3 0 1
1700 1 18.032011414483087 0.44131390785867564 2.6008448968438618 -3 0 2
1200 1 20.433343281004877 4.546575894940015 0.5097888904703937 0 0 1
458 1 17.319585598243812 4.156396692553313 2.89798279230198 -1 -1 0
1987 1 22.030017987969302 0.4133485302848293 0.4903352387937662 -2 2 1
1751 1 21.578363398947147 2.857924350183563 1.5497289374350627 -1 0 1
1470 1 20.404705542185464 1.5367614845368949 3.8775280163428314 1 0 1
652 1 21.098882981394443 3.5143121947315716 3.58011378498612 -3 -1 -1
1389 1 22.908914485528722 1.2601887431195147 3.054607958588977 -1 0 0
664 1 24.139506968355608 0.6183986505431296 0.9283842216652789 -1 -1 -1
1886 1 23.364624389001804 3.3647645895586655 3.138429622543615 0 -2 0
251 1 23.10544717031287 4.614225708511193 1.197601871735521 0 -3 -1
286 1 0.3336071553605664 3.9971952713926897 3.771130139116745 2 0 1
1629 1 15.756964663534413 13.930187604352747 2.281814658423027 2 0 0
117 1 27.826034145680588 1.7662913321920648 4.037403161003443 -1 -1 -1
106 1 24.77727147038253 2.920443085502771 1.5250900217058116 -2 1 1
1766 1 25.025841106973573 1.7505535116777726 3.461977627763542 -1 2 -2
2026 1 26.443474549026895 0.9149501115029419 1.5429239706708888 -2 3 3
90 1 27.06017187387361 2.8688584272462485 2.1347991009485834 2 -2 -1
2011 1 18.8134932863241 0.3678073240466808 11.625540231711005 0 1 1
1846 1 2.1210471578607297 4.8522758198096785 1.530722106517758 2 1 0
876 1 1.0291470741386237 7.1521517769489416 1.567967759088582 1 0 2
1601 1 2.21547062182344 5.8996581323332915 3.449558043373338 -1 0 1
1117 1 3.001419351217729 7.978881752819591 2.9493395066789905 -1 0 -1
1233 1 27.787881654541412 8.33196046361506 2.5973125495549105 -2 2 0
1524 1 1.9987730869399343 9.242655007473866 0.9384960977448724 -1 0 0
204 1 4.457847054809404 6.3518385900925765 1.9662275880651405 -2 1 0
182 1 12.687120318978844 6.29654486256849 12.78851533340731 0 1 3
1764 1 5.497077107336253 1.1574344218113275 2.9451509258116193 -1 2 -1
858 1 6.993298282943157 6.570726302475539 2.2874390896514005 3 0 -1
277 1 5.293019381608188 8.049895391337945 3.5025495195177347 0 -1 -2
1560 1 7.7156791376712865 8.437840015522694 3.32023242257851 -1 0 1
1800 1 5.086709880948511 5.5172919121470345 4.0234527623829255 -1 1 0
119 1 5.923012400926728 5.154218506016118 0.5878073835277662 1 1 0
719 1 6.769416847770998 8.462325587255448 1.2784247739244676 1 2 2
1066 1 4.588324057857172 9.02627402878145 1.2704050672932523 0 1 2
1258 1 19.157893004203228 13.655460713868486 7.478657880867242 1 1 1
1379 1 12.214592736197629 5.079153807183761 1.2866688450322112 -1 1 0
714 1 11.476156150808968 6.042985208253226 3.263854238979088 -1 0 3
943 1 9.074252069815781 6.144678376046193 2.409838440621021 0 2 1
1827 1 9.268566931104138 6.921520337420287 4.424853011057102 0 -1 1
344 1 10.599985188010686 7.96545088002074 2.3235323202262905 0 1 1
1226 1 8.670403401670896 7.4626402238468295 0.10725859445294422 2 2 -1
424 1 8.961565536260878 9.310634926748955 1.8124678917597252 2 -2 1
226 1 20.273999912041056 0.060574737205783435 7.184648705828023 0 3 -1
447 1 15.40103794752812 4.566049718901884 3.941049143082032 -1 1 2
828 1 5.405134391966872 0.12222968662725173 0.2858457804456929 -1 0 0
1582 1 14.146469768837518 5.881969401512468 2.547496500764818 -2 -1 1
952 1 13.348465443103711 5.92321343854453 4.755242713942906 2 0 1
1489 1 15.100394085707995 7.235669510081524 4.044498209690554 0 -1 0
255 1 14.756284155961787 8.119168305530668 2.0775663632146957 0 -1 -1
975 1 12.440836157386167 8.239026455937388 4.0270881456100485 -1 0 2
160 1 16.559466538395917 6.224467780586566 1.7160692918587972 0 -1 -1
511 1 12.552852205476926 7.820108511191852 1.5807040303793298 -1 -1 -2
1322 1 17.321247386074322 6.0798224080337055 4.169442501119912 -1 1 0
1100 1 17.93523588206667 8.748544435576962 0.8093059490952841 -1 1 -1
360 1 18.1929007232478 4.6282070032421885 0.988607583928806 -1 2 1
623 1 20.34311825788537 6.815998117677222 3.7876281828803835 2 1 0
1744 1 19.307848605383967 4.983213819212219 3.043891063613231 -2 1 0
641 1 16.995728928241338 8.146454812257236 2.8992114825333335 -1 -1 -1
619 1 18.12916185903838 8.542648566686708 4.675225160790705 0 1 0
801 1 19.295638342001343 8.82194498746921 2.860224432165199 -2 0 0
1113 1 19.180699148371627 6.396949120693289 5.6074676362419 0 1 -4
910 1 3.823704421404078 13.798721679335557 9.39475774825483 0 0 2
1474 1 23.538985062782036 7.035112017691218 1.6855793143000133 -2 2 0
850 1 22.62357295322073 7.563255424157983 4.022306517644607 2 2 -1
470 1 21.583307753483002 5.720127404710983 2.232241092306967 -2 -1 0
1130 1 24.276844259737103 8.920327352108002 2.2206956097740744 1 1 0
116 1 21.554425842958874 8.222740083264233 1.793511723271162 0 0 2
798 1 23.846723448865603 5.613091306344701 3.714706531830388 1 -1 1
1014 1 21.847281624110114 0.4780904160390494 11.704128978392001 1 1 1
544 1 21.479096960283076 5.3676521277352025 5.152178943119681 3 -2 1
403 1 27.53279047428159 5.279570777459551 2.081661739366355 -1 -1 0
1367 1 28.26140150807456 6.111006328958629 4.478618330345637 0 1 0
940 1 27.35449907527305 6.609558361391058 0.1985520469958481 -2 0 3
1742 1 25.89483804217596 8.228553327668081 0.791348896069277 -1 1 1
1060 1 26.006832269990596 4.44401991063574 3.696328902738879 1 0 0
970 1 25.208304296970134 5.212829183224212 1.4909424968161593 0 -1 2
629 1 25.890389732664644 6.874417435059177 2.8265348670312536 1 1 2
302 1 4.541760706127175 0.33259938568415953 10.577470080768801 2 1 0
425 1 2.495775758926503 12.011497983510436 2.0568182905973984 2 -1 1
872 1 1.8835817763667873 9.91033381497157 3.234421549357187 0 0 3
395 1 1.1780507496737826 12.300088033789551 4.275590062350661 2 1 -1
227 1 0.6353489894239319 13.487263637357467 2.188144329672224 0 -1 0
1780 1 3.3511678622829506 11.885792225314125 4.643372697286744 0 -1 0
1217 1 26.242432209341302 0.2193435908052847 4.815729440023734 0 2 0
1083 1 0.36488668091551285 10.628779499276845 1.7643658961314967 3 0 0
1818 1 4.508544083757645 10.45622719259177 2.945743175737788 2 2 -1
1930 1 7.306742156262805 10.69109429250904 2.315893570146411 -1 2 0
1301 1 5.04159558748656 12.53929787047168 2.6875749980675105 2 1 -1
1572 1 5.499307600298727 11.189670427186007 0.6484068882228536 2 1 2
29 1 2.911377659492052 7.166141230355969 0.38454157886709756 1 -1 -1
1314 1 7.2013196513322395 12.862837962114579 3.200262676570514 0 -1 -1
149 1 7.778855290104789 12.298371519254879 0.6394960736414671 0 1 -1
1917 1 9.419894994866382 11.912848539874512 2.204281015827919 0 -2 1
174 1 12.428633092498497 0.18604384860550247 10.986455668762801 1 -1 0
450 1 11.361560005942744 13.07059722691165 2.7712024826903336 -1 -1 0
550 1 11.222531578936064 10.04375985156149 1.8199619521755648 3 1 2
1388 1 10.512791320763538 13.606575519840698 0.896436940758524 -1 0 -2
1703 1 5.625231905134524 13.486224810375871 5.1328590888205925 -1 1 1
539 1 24.09663428076149 10.341312039750909 0.28816782612947023 0 -2 1
1723 1 3.9910228983571803 8.173238489654342 13.550584009205517 1 1 1
1007 1 15.21897105972502 9.785283906423995 3.9487558064855834 -1 0 1
1763 1 12.36669659534285 11.673602630113752 0.7851450027915685 1 2 1
1431 1 13.264085740402848 10.115021848764604 2.5347956655372763 -2 0 1
1622 1 13.351438289961273 13.281098061496731 1.8566796493493858 0 0 2
441 1 15.508821473304256 11.613675471864244 2.764476374469274 0 -3 -2
127 1 14.79113688621386 11.618701810717189 0.6191149123673568 -2 0 0
1445 1 19.341267108472685 12.293687861540986 0.6026167581206102 0 1 1
1613 1 17.207132820508654 11.633431992663006 0.9602446197810987 1 1 3
1186 1 18.129616700343604 12.885992899829006 2.6072524659222 1 -1 0
1127 1 20.070127241728237 10.254527818332143 0.6040321249361412 -2 0 0
864 1 16.102975322429668 9.889937633546529 1.5597434410352096 0 -2 -2
1525 1 20.230196902893493 11.133154297053547 2.6348471940636347 -2 2 0
150 1 21.461595591043306 12.678550770499587 1.5874312493935345 -3 1 -2
1369 1 22.384163329472706 10.745774552219057 1.4145133826451273 -1 1 -1
63 1 22.201228389836636 9.961856411436834 3.62145474377516 0 -1 0
1094 1 21.973401739837225 12.035419434792452 3.987073678876693 -3 -1 1
1473 1 23.95935098247452 10.635148096608013 4.681410250214546 2 3 3
848 1 23.33467158081466 13.572030130264263 2.1780108149103232 1 1 0
1513 1 24.557365600607163 11.17160331629654 2.6191274983387687 1 0 -2
1208 1 17.61690442979087 11.697044310269426 14.106072042146382 0 2 -1
1340 1 28.05429711572884 8.65798067694978 0.2108271497658782 1 0 0
2039 1 25.953605682794386 9.787260524046106 3.240039173891988 2 2 2
1973 1 28.10937046247819 10.254378178158861 4.329680805639481 0 0 1
522 1 27.175231601050836 11.920637399519148 2.689382354673813 0 0 2
1072 1 10.791174965173731 6.716955369136088 0.12746657224287364 -1 1 -3
792 1 10.52991936731291 0.872376137933818 12.4589596148353 2 1 1
1177 1 27.600482149303556 13.743526640224585 4.822715045341778 0 0 0
1528 1 26.33120820502001 10.373728621286096 0.9179167874847792 -1 5 1
1533 1 26.223645945877173 11.81302547699255 4.879582567313251 -2 1 0
1652 1 3.6513473246537718 3.472742905229155 6.926463388073796 0 1 0
1437 1 2.299702811435204 4.928741668354298 8.148985815405096 1 -1 -1
532 1 1.4199942237771024 2.3014672618479515 5.4804816952201945 0 -1 0
1680 1 3.8799717899929544 1.9104320073986345 8.79949560742034 -1 0 2
1921 1 1.2165034697527344 4.512726210739039 5.820976609484475 0 2 2
459 1 3.129002074885803 10.662897650917202 0.1339813948577544 0 -1 3
1115 1 1.9680544932725634 2.46647655356191 7.770480940244949 -1 0 2
409 1 10.120868494539762 2.6721535091639796 13.548743408439337 -3 -1 0
1900 1 5.015162192768117 3.18392337202721 4.634670055852988 0 1 2
1080 1 5.916921077375597 1.0278818959807952 5.244525084851428 1 2 -1
896 1 6.591640758630336 4.6630473493892275 5.832157010724433 2 -1 0
22 1 5.58943084954223 2.8440207641319715 6.793443371701686 3 0 0
1771 1 4.834622408760454 4.571106246619403 8.733645782992962 -1 3 1
1940 1 7.310363244721957 4.760333569235667 8.597879961531287 1 1 -1
1302 1 4.4865028974743675 3.3070121620044577 10.53730052431738 0 1 -1
430 1 9.839008369729365 1.81034639308553 4.80568719748733 0 0 1
617 1 11.632882559183448 3.3839693996978855 4.633124630626633 -1 1 0
1551 1 27.409530134272845 12.76558946253834 12.456319481579596 1 0 -1
647 1 9.839796051134881 3.8229411202900567 6.242461735804464 0 -1 2
1515 1 10.202524869973386 0.40120340330227977 7.71232475038475 1 0 0
1557 1 7.700017871299922 2.352756121525803 7.431033436137194 1 0 -2
1864 1 9.385711155107707 5.1655081624933095 8.157688645406179 -1 1 1
1054 1 10.188463569342037 2.577661573229441 7.995540411795577 1 -1 -3
889 1 11.862215899372899 1.603010441315008 6.374108897346985 0 1 -2
1964 1 14.327300784937693 0.6181295115905163 5.295734079655636 -1 3 0
663 1 14.198608204753194 3.9231785816924507 5.765025995959297 0 1 1
1949 1 12.71591424323069 1.1393842195099908 8.592558156503458 1 2 1
717 1 12.153938188804913 3.980694787089553 6.729634560556745 0 0 1
837 1 14.048613767123797 2.429978027782489 7.508079380103134 0 1 1
1857 1 15.085615520401314 0.44626838965383797 7.226957052058347 -3 0 0
1794 1 12.66478378349005 3.371968980417374 8.988381677060334 1 -2 1
401 1 24.978477788127037 10.29770296964353 12.805540848519913 1 1 -2
1635 1 16.11177757154092 2.466857440635684 5.796159211676667 1 1 0
633 1 19.5722109412918 4.079172421450662 5.0731008993028315 -1 1 1
563 1 16.755975157856412 1.6984123575912662 8.183544527656522 0 1 2
1071 1 18.03431020244576 1.1287742791396087 5.907895669416331 -1 -1 -2
11 1 19.839692620711492 2.526625280899477 8.370792969998842 2 0 0
1493 1 18.129527957182386 3.1354079680528266 7.065055805360957 -2 0 2
1809 1 15.636679385651403 3.162454253677648 9.497429466773877 0 -1 -1
488 1 17.52042315592198 4.675031191230505 9.359144929185357 0 2 -1
915 1 22.260385267141846 2.9020893016495544 5.464551362812378 0 1 -1
700 1 20.258672361658796 1.9577863182559778 6.1186411104750915 1 1 3
1527 1 21.457326576108546 3.315096361886659 9.301735388377146 1 2 -2
1860 1 22.075925986442034 1.203161819495734 7.830659246152769 0 0 0
1958 1 20.707870685125886 4.173527057873259 7.250351959824581 -1 1 0
1826 1 23.726431712202988 2.7559193513220634 7.240130996989151 0 1 0
1933 1 24.426399885706157 0.13066175404070185 8.36262120794013 0 1 0
1923 1 20.36799713926491 0.4851480684483754 9.401730624570769 0 0 1
1671 1 21.93208134171609 0.6670170810845998 5.102672993858164 -1 1 1
771 1 27.176274708757212 2.090191088898095 9.506027963015105 -2 1 0
1725 1 24.077483927594244 1.0053218488450288 5.8151492375874385 -2 0 1
1861 1 28.031110041466484 2.933365507312677 7.335766273395142 -1 2 0
694 1 24.744661231080947 2.469864207261176 9.377486498048755 1 2 2
800 1 24.41698736163718 4.295710494907931 5.262918321531075 0 1 1
797 1 26.34252985206846 2.556298356857639 5.582171167589732 2 1 0
1225 1 25.599994688641793 1.5083646048924382 7.384770818179858 2 0 0
785 1 27.675425929146652 0.7669096620414838 6.453093148243563 -1 0 4
680 1 28.281129880684837 5.279353976898209 7.970658531401234 -1 -1 0
745 1 1.588742814416131 6.514100515906157 6.81564476004978 1 0 0
290 1 2.7313025254547227 8.685256273576154 7.105141910545667 2 -1 0
527 1 3.522395432499845 6.752896401570816 7.786793208303646 0 -2 1
1230 1 27.745345810900158 6.8720632614061605 6.633113697832281 1 0 -1
114 1 1.0146651567157807 8.1232320506591 8.444050108494784 0 1 0
187 1 3.3943597426251437 4.775340761002738 5.416133370457454 -1 1 -1
151 1 1.43071214155335 8.152716486190414 4.931637554150253 -1 0 -1
898 1 1.3807319271263943 6.406060282610301 9.864093577764285 0 2 1
485 1 5.520038856518465 7.155015182699305 9.184160924254568 0 0 -1
1720 1 5.147404507930279 5.891660734942997 6.781762291005098 1 0 1
1495 1 5.190191895721877 8.592086908706214 7.082065406873286 3 -2 0
138 1 3.7343859301333344 7.206766669105314 5.453848924958989 0 0 1
1444 1 7.136228721372403 6.850598089690167 7.499149236765867 0 1 -1
1446 1 6.701229943609133 9.369610131898835 5.285832665070623 1 2 -1
183 1 7.335136646585122 9.101519277234805 7.667645990080064 0 -2 0
132 1 6.543517932463823 7.004001444130481 4.923064593345578 -1 0 -1
148 1 9.549851183025854 4.017731390203219 3.5184346137389713 0 -1 -1
1948 1 10.854024860509828 5.593312007542935 5.574860973120125 1 -2 1
338 1 11.578579497820431 5.638795671997312 7.896443646159271 -1 0 0
1423 1 8.68399431124823 8.69396831057864 5.824884208439927 -1 1 1
782 1 10.35482201956151 9.051745184304323 4.4053240035086025 0 0 2
1768 1 8.399373044045065 5.606593569966122 6.215299762053714 0 0 1
1227 1 9.489486984886906 7.316219384848987 7.570650751425115 -1 2 1
1048 1 11.031387948185648 7.571060071246131 6.004776194049125 -1 0 2
163 1 13.162898964447068 7.049706503830487 6.832847035576467 0 -1 -1
1982 1 11.596349587918024 10.026342217721995 9.40309806896164 1 0 1
352 1 15.379579471101358 6.131644595199705 6.18415739871829 2 -1 -1
964 1 13.905975405006629 5.032947427865149 7.841472227882056 -2 1 0
1666 1 14.36961539518997 8.701096200589447 5.668193675974087 1 0 1
791 1 12.313518742062083 9.955921025897203 5.627444842883215 1 0 1
1865 1 15.391681279764816 8.005524154859195 8.187377973296329 -1 0 1
988 1 15.907687038260145 4.070544667426829 7.485624293776062 -2 0 2
1681 1 16.715989289562774 10.237222836236331 5.821520235374967 2 1 1
12 1 15.17932884232376 10.451220046989846 8.28824925789321 0 2 1
1793 1 13.164485886179085 9.227708134747802 7.609213774909418 -1 -2 2
20 1 17.237776626439906 4.377157850355465 5.322186776728501 0 1 1
523 1 17.360018559987243 6.018643053046045 7.095093625220315 0 -1 2
122 1 18.635083820393508 8.468891272472137 7.224356444231236 -1 1 0
1546 1 17.16570223000096 9.525655187178021 8.796271827857675 1 -1 0
99 1 15.922236726430237 5.977718782039675 8.652161528698972 0 1 -1
847 1 16.52526981774329 7.936158497944377 6.241331582539545 -1 -1 1
1974 1 19.505938907960243 5.683204773582651 8.355674718094201 -1 -1 1
1577 1 17.91558093042961 7.158110643256488 9.087443118117426 0 -1 0
1476 1 19.42361218130208 9.798701055904656 9.12422980760074 -2 1 0
431 1 23.359545740875113 6.433668225541891 6.033290395289917 2 -2 2
1486 1 21.352641950167996 5.734961563010256 9.463164232882336 1 1 -1
1043 1 20.877179505972624 6.858726135747081 7.07146928367536 0 -1 1
738 1 24.18414299338663 6.363772635490955 9.378877830920699 -1 -1 0
1155 1 23.17178529857352 4.957565962464328 7.826182308862409 -2 1 0
600 1 22.650436684770163 7.481028771500642 8.013241307856322 1 0 0
133 1 20.663942254116513 8.342513974920864 5.303531763949128 -1 -4 -1
823 1 27.181810473506744 4.560415550291527 5.72426806787891 -1 1 3
167 1 0.1509461628423594 9.124997320369204 6.65600937150184 1 0 0
134 1 23.472430860329798 4.127418659030771 10.10768732673763 -2 -2 -1
1427 1 25.61219805511274 3.7588525177070653 7.3875283193874814 2 -1 2
1455 1 25.764010486600792 6.474926790100174 5.452526608044107 -1 0 1
1749 1 24.83626525202235 7.794366154429124 7.141455248740366 0 0 1
604 1 26.095368820065765 6.027526111665616 7.810470918573884 1 0 -1
1303 1 26.94920244375042 8.220138475725292 4.51956235315883 -2 -1 1
1694 1 26.68503359536052 8.513854145324872 8.211999020237052 2 -2 -1
1916 1 24.219384941837877 8.82341080537076 10.117391858188997 -1 2 -2
1160 1 8.10334223454339 8.844975543495858 13.825482361389913 0 -2 -2
752 1 1.2053606495940046 10.270658614060887 8.229800421463661 0 2 0
222 1 1.9414371426508783 10.328142211844783 5.707208806877129 0 1 -1
389 1 27.953967201795205 12.776368038179783 8.290500082405773 -1 -2 0
1584 1 2.2022724775054483 12.432328988538055 9.095725432256243 -1 0 0
1321 1 2.1662161445051704 12.141894699844265 6.8664787780993715 0 -1 -2
1941 1 3.9289235708953814 9.316823012780391 4.827020720311919 1 1 1
189 1 28.078667613938748 11.57339647967416 6.296997515419441 -1 -2 0
1603 1 20.731367657859106 13.320143464153622 11.457133599882365 1 1 1
1985 1 24.127696453143926 0.3681405588297401 11.106902141641307 1 0 0
807 1 4.213530981721683 10.745607340584213 6.8135708758492175 1 -1 0
1175 1 4.317017715008788 12.830329563315763 6.884750308275684 -1 2 2
1295 1 5.839792501650047 11.163981275403314 4.612714225581746 0 4 1
1968 1 6.608400103108309 13.210590739096041 7.636494487464855 -1 0 2
677 1 6.538504091636444 11.000597776266519 7.215923340511884 0 0 0
1318 1 7.567343693043233 12.347107879924367 5.740710335840713 0 0 -1
1570 1 8.426039422445454 10.908460646546818 4.271335244215127 1 -1 0
1391 1 11.031372143811081 11.996211776541747 5.916550481859604 0 2 -1
1799 1 9.442494297255438 13.007462052037873 4.6314254207075685 -1 1 1
1995 1 10.788759747744145 9.572582037656751 7.444713143412172 0 0 0
772 1 9.045750100615983 9.610546711147979 9.124147971135175 0 -3 2
708 1 7.782974952959181 11.683554752686202 8.880598879908325 2 0 1
860 1 10.9590083136746 11.102147284034107 3.8893305237261924 0 0 1
566 1 8.945480032609561 10.733880141293708 6.710082908598455 -1 0 1
1935 1 10.105345636724008 11.85646502894265 8.528565100878472 -1 -2 -1
518 1 12.31169324498106 11.600435075590418 7.631742791828418 -1 0 0
603 1 13.454585767614505 13.234681582168822 6.4235977137703095 0 -3 -1
499 1 13.208016443420703 11.829078398870342 4.042280281103706 -1 1 0
1963 1 12.730554667796989 13.71179999669435 8.667876927652694 0 0 2
465 1 14.574143790375365 11.175094919645002 6.202112293519146 2 -1 0
853 1 15.622096726303997 12.841670759997816 4.826056397972521 2 -1 -2
589 1 15.112002671524642 12.902368925225497 8.381593801640113 4 -2 -1
757 1 17.810861427260747 10.572996349383068 3.4484590855875483 2 0 0
542 1 17.976383453717457 12.534548150154961 4.87327978340002 0 -2 2
2032 1 19.72178544007027 10.345401652424615 4.625150555209126 -1 0 1
1511 1 18.713409496731114 10.766968735101901 6.513481905400275 2 1 -2
935 1 17.026883374029318 12.389246190635598 6.844500757034676 -2 -1 1
373 1 20.443634675892017 11.774319287952956 7.843977408212423 -1 -1 2
466 1 14.17259153531616 6.8566908837719565 14.15973886168173 -1 1 0
776 1 20.257916802307403 12.668630457034036 5.444355325471516 0 -1 -2
1842 1 20.8953817809664 9.545024431985759 7.293922939938409 2 2 -1
1184 1 17.75181126538779 11.629594596065992 8.87232153814371 -2 0 0
697 1 22.003566305949647 13.635222282432071 6.4619890515971825 0 2 -1
1024 1 21.845874211701474 11.229229976685161 6.085394571280057 1 0 -1
1698 1 24.140641106527468 13.123618213165757 4.607984364725445 -1 1 1
541 1 22.645904266639267 11.510459944244024 8.211145919914891 1 -1 -2
1013 1 22.95782112942376 9.082437778136983 6.286460687713759 2 1 2
2017 1 21.724316641979186 13.868222917011813 8.602488590933548 0 0 -1
1814 1 24.489150127481977 12.731535234956043 8.824262854577281 1 1 1
741 1 24.275824596931784 11.87073671471581 6.485036495657717 -3 -2 0
41 1 6.6226922858153685 0.6439614999411 10.360999058203424 -1 0 0
31 1 24.552244419428256 8.30988892120849 4.562851921948523 -1 0 1
695 1 24.316685245389216 9.846639202140429 8.112880592589137 0 -1 -1
1198 1 27.705192478402168 10.661120756548767 9.337847205231757 0 0 0
1667 1 25.940303263576684 9.593046756845453 5.993666755207828 -3 2 0
1266 1 26.102935952045097 11.198803349634982 7.707608981012348 -2 0 -1
1715 1 26.38728944744091 13.303633477694575 6.660724606688042 1 -1 0
916 1 2.0668849141049206 0.5559434514019476 11.474238928700428 0 0 3
1417 1 2.6560553148249015 3.424262797566922 12.445691575970883 0 2 0
1361 1 0.6628477505207233 3.718006028061587 9.477682897906526 -1 0 1
1684 1 0.8206999259293497 0.9741691932043451 9.24323924011426 2 4 -1
616 1 2.203065819730322 2.41536015127786 10.321719964390818 -1 3 0
729 1 2.972985845697778 4.761634459676987 10.58101180374725 2 2 1
1750 1 3.9888019268910355 5.796246024606697 13.965447198172521 1 1 3
1519 1 1.1510096448266551 2.134040795454371 13.859276275895972 2 3 0
724 1 5.9652413657793755 2.547283062738217 9.063741772706644 2 0 1
1146 1 5.4985613703877405 1.9817328774312182 12.21962685312273 0 2 -1
23 1 3.7138245638357117 1.6941820867407236 13.545317526329393 0 2 1
1640 1 6.857487596078646 3.4166288488644985 11.04218665712103 -2 1 1
1889 1 4.057841795078376 6.818528866381857 11.860846742073035 -1 1 2
1142 1 4.994177997769111 3.9931979205975883 13.157039918634464 1 0 -2
1173 1 7.672539894727604 5.077797867686484 12.624735063815745 1 -1 2
1526 1 7.623428125311071 2.6734303585383117 13.425541846788116 1 1 0
693 1 27.81977308248077 12.419582664313365 0.14701913169292502 -2 1 -1
1644 1 8.627366762086337 2.899193154402002 9.442559002830574 -1 1 -2
492 1 8.368508260574286 1.2513165212548154 11.439113168514092 -1 1 -2
273 1 11.026664571403446 2.0714233184550204 10.375636888573299 2 0 0
508 1 9.075506835463285 3.2939094319083684 11.583670539281593 2 0 0
1374 1 11.75056281110029 3.3300781702882847 11.97345404808363 2 -2 -1
1074 1 10.728355541260077 4.30456953777098 9.834598095137705 1 1 1
1549 1 8.608983552868947 5.182233433393684 10.35422322017587 1 2 -1
62 1 9.817562076529223 7.195514460317457 13.799716581604299 0 0 -1
1856 1 14.715921785208558 0.790861264360456 9.803366934266705 -2 -1 1
37 1 13.909942248719407 4.868083414422473 10.458253461491086 -2 1 -2
58 1 14.805711460690778 0.5867611362455375 12.214535973157968 1 1 -2
1872 1 27.13547064931394 0.06618560372589885 8.569157888222636 2 2 1
816 1 13.508664560533566 2.417416227193697 10.78029464174582 2 -1 0
355 1 12.703396579611526 1.3537362214521045 12.960573870401422 0 1 -2
230 1 4.836506826871961 14.147512393131937 13.742530146070123 1 -1 1
340 1 17.506307222831047 1.9063610956241601 13.398707379584378 2 -2 -2
764 1 18.285144702774172 1.7088138527031105 9.641093489772524 2 0 2
790 1 15.545327452991671 3.043824368872056 11.919207352665028 0 -2 1
1816 1 16.407757206772676 1.2425023679772662 11.093510116763664 -1 1 0
1360 1 20.050161110217168 3.92991082591555 12.737327005638505 2 -1 0
1103 1 17.807788392425792 3.16295240488732 11.541736667633248 -1 0 -2
1862 1 17.24234272908511 13.64384534283862 0.2949773205945608 2 1 1
1939 1 8.178020091903182 0.42862137459331023 6.165860602206546 1 0 2
1485 1 22.730968149400812 1.484749804719451 9.830996380997318 -1 0 1
673 1 22.48362664943589 1.6035237619801257 13.842824358885526 -2 2 -1
1291 1 20.136628459073254 2.3189169449172082 11.18208526266153 -1 -1 1
1126 1 22.150824998285714 4.367260284689107 14.05058105709693 1 2 -1
1655 1 19.519356680314594 4.2014777687253115 10.479648923809593 0 3 3
902 1 23.64866722855521 2.6309928379066005 12.110811632898486 -2 0 2
1821 1 21.683141682849044 3.839409909271449 11.360258723339912 -1 1 -1
1579 1 19.907993530978544 1.3503797620562925 13.297629161926343 -2 -2 1
461 1 15.042184348468936 14.110043117799412 0.17455748445152208 -1 -2 1
765 1 26.44954310152063 4.74389578754086 9.650083152471051 -1 1 2
196 1 25.648386393305234 3.2652757788289164 11.087292049351486 -2 0 -1
177 1 28.288008429429524 2.704009315378832 11.602757614509315 -2 0 -1
1875 1 26.372783687339503 0.8618404232967474 11.235237390664569 -1 0 -2
980 1 26.604008538468968 2.327210651803888 13.190169753776308 -2 -1 0
829 1 11.637907676827218 13.83084229388129 4.8951465207147935 0 0 0
684 1 2.3270935944060396 5.435224977774252 12.670060118055984 1 0 -1
1490 1 0.3504537538239452 5.081868037320671 11.29245840126834 0 2 2
1011 1 0.3377274641382324 8.705320805564282 10.531006863402695 1 0 1
1878 1 1.9526594503808878 7.619879825491275 12.222759001276565 0 3 -1
620 1 3.46825944706515 10.147132887543709 8.882792119679278 1 2 2
1777 1 27.9953664787227 7.0079382905673855 12.445549808177372 -2 0 0
1679 1 0.620593342167213 9.313922585971945 12.885043697687143 1 2 -1
580 1 3.0864554668902286 7.617975108161439 9.76332086556062 -1 0 -1
990 1 3.6329895979494795 9.077033473796357 11.277586767871313 2 -1 1
333 1 16.58114011637286 0.28163842058333755 4.264717827147448 -2 0 0
1542 1 6.172197143173761 5.790041586515673 10.92518242169084 -1 1 -1
209 1 5.676403404429273 8.101258637712956 11.168294627400195 1 1 1
1895 1 6.188246791001581 6.883881984881444 13.182101793513457 1 -1 -1
407 1 7.824720829455548 9.524751326166678 11.430419747301228 -1 2 -1
687 1 5.47601200154848 9.784829161611956 12.680885996694213 0 1 -1
766 1 8.227262456623981 7.190873725911637 12.003929891925068 0 0 -1
398 1 1.598753516858281 0.2626123187944146 6.132831845907916 1 -1 3
382 1 10.015747202650134 7.08741911154234 10.175781627260712 0 0 0
1452 1 7.894002606605972 7.573989777619473 9.573231994671277 0 1 -1
1211 1 9.974292644820592 8.911447987013153 11.720707028905855 0 1 0
1419 1 10.053832957882072 5.413551325679345 12.17434253940044 -1 2 1
1274 1 12.235014237952354 8.041753606699892 11.14597612203584 1 3 -1
925 1 3.734221270061614 4.618569511658312 0.06413819845601057 1 0 2
1538 1 14.082139187280871 6.628842062050576 0.34402835652483693 -1 0 0
328 1 13.891418365307974 7.263984810493142 9.455649760462281 -1 -1 -2
1496 1 11.52159349897835 7.831315736262697 8.645485856656764 0 0 -1
1636 1 15.533053079702068 5.155386192729422 13.03983725787927 -2 1 0
666 1 13.879339813136715 9.243908824101105 12.507295817221408 -1 1 1
1402 1 13.893069349943886 9.383126742282904 10.240350988534148 3 0 -1
2045 1 12.095916809958656 5.880236730455227 10.411628608545529 1 -1 -1
1137 1 14.477932447130858 7.035880716022419 11.658224949696287 2 1 -1
272 1 13.559861295376443 3.9752732085918403 12.682223278374757 0 -1 -2
445 1 16.81977587876065 7.652241359995524 12.549188344752771 0 -3 1
1687 1 16.074032803988562 8.207134481227035 10.192988694200599 1 -2 -1
1556 1 20.407985341853653 8.966853640866047 11.28458985765363 0 -2 -2
1433 1 16.478544102661683 5.543607920167309 10.854396544722226 1 0 0