LAMMPS data file via write_data, version 29 Oct 2020, timestep = 300000

2048 atoms
1 atom types

0.18410332097739257 28.167896679020977 xlo xhi
0.18410332097739257 28.167896679020977 ylo yhi
0.18410332097739257 28.167896679020977 zlo zhi

Masses

1 58.933

Atoms # atomic

1777 1 2.0816953769591233 2.6203881422329283 2.3347832389425305 -1 0 1
197 1 3.2467498034215367 4.806812545044383 2.691161199468802 -2 1 -1
412 1 0.9993970246101057 4.436491442311759 4.21578686234515 2 1 1
1049 1 0.40966091323546844 4.324406807173849 2.039443197847217 1 0 0
1104 1 2.8837263123130685 2.539603743663653 4.679148702690501 2 2 2
1071 1 2.636806186784787 3.9898128625651963 0.767232569807551 0 -1 -2
1213 1 3.610847150070338 0.8830567683837748 2.449751980654941 4 -1 -2
808 1 1.6482392375335067 0.5791725981082345 3.7543828455996473 0 1 2
595 1 4.216723493637312 2.3568255973973087 0.7993261156563403 0 -1 -1
1012 1 6.0383910014462145 0.6447510234757184 1.3844467202010766 1 1 2
812 1 6.6687208836434495 2.8544154948185985 2.0036756828939093 0 3 4
1534 1 4.671854278365417 2.7262766142077934 3.1776761121164867 1 1 2
505 1 5.944199160020511 0.8593937276578403 3.6084303026903783 -1 2 2
852 1 6.9560389578468 2.783521755289124 4.279716303446545 0 0 2
1493 1 5.358008483250117 4.567069918865544 1.365139458070317 -1 0 2
1523 1 7.94260305902489 4.716681808177684 2.4516673186772557 0 2 1
997 1 5.818195963789905 4.792448621292212 3.7681259587232887 -2 2 0
1169 1 8.191348559305048 1.1238899047885815 2.6147112809064685 1 0 1
1123 1 10.790128143508845 1.612391030230157 3.6074459726725676 0 3 0
1086 1 9.454914379849818 3.0398937380673865 2.9503138515260052 2 1 0
1300 1 11.860100767606076 3.8710944257770104 4.155676701428695 0 0 -1
1956 1 11.365280348533576 3.34776321818988 1.609783276720882 0 0 1
262 1 10.259910759949445 1.2748856709847434 1.3334617506712063 -2 -1 2
715 1 8.69364836035946 3.1598941361491444 0.7048125485899694 1 1 1
790 1 14.5776234369401 1.7704999384686126 0.34566891053769666 0 -2 1
1898 1 12.64530982215723 1.3695173487397645 2.100447596247803 0 0 1
301 1 13.148043088651548 1.910228252364562 4.346426927572646 0 -2 3
370 1 13.621673745352018 3.6525460012620274 2.7532537999516635 -2 -1 -1
1845 1 14.884798721594288 1.719597900237044 2.5441138368356104 0 1 1
1701 1 15.427463896351945 3.8640720691406636 1.357205761773395 0 0 1
774 1 15.554914418571535 2.070095448010818 4.824391747859933 0 0 -1
1650 1 16.112544164542292 4.172802011154825 3.5494991865525534 0 1 1
1222 1 13.190572747440307 3.8538501433109627 0.4089570741209343 0 2 -3
1294 1 18.504365622705002 0.7491126901754552 1.5413636345575072 0 1 0
1802 1 17.0484057528191 2.293674642609948 1.2023299768167477 -1 0 1
1769 1 17.36368116022767 2.4968064398928074 3.4098144774255412 -1 -1 0
1628 1 17.790715056853138 4.717562029355157 1.884589374859177 -2 1 1
924 1 19.416982608523536 2.6512895797080946 2.4361555049513997 0 1 2
216 1 18.737007377095637 4.455927953131295 4.16407895247748 -2 -2 -1
981 1 19.763987560962722 4.697781396562364 0.5947574678380465 2 1 -2
995 1 16.705596817796884 0.23126983108953514 2.966911341341119 1 -1 2
2032 1 19.22230400214802 0.6641960773196218 3.987282259222838 -1 0 1
417 1 20.346875138384114 2.6963144799206775 4.751608163068793 0 2 -1
88 1 20.6770963466391 4.675257557981739 2.986646521144384 2 0 -1
818 1 22.353635530147805 2.794146817502755 3.1653355347035044 -2 -1 1
1856 1 21.081440142761547 0.8110167982603712 2.7223028471961404 -2 -1 1
1735 1 23.517888995053255 1.1760564615502245 1.68135535732015 1 0 -1
1644 1 21.615550292705663 2.8562777709567233 1.023003438730261 -2 1 -2
680 1 23.829626992792097 1.20196536391656 3.951336666499536 -1 -1 0
602 1 20.61025021922684 0.7331644218396053 0.42070490849383835 0 2 3
493 1 24.285272452989084 3.291132523972187 2.235560097691723 -1 2 3
1217 1 27.945576621734237 2.0998022183488736 3.7829808244082743 0 2 -1
579 1 26.22888542752339 3.381250015368676 1.0900539397804363 -1 2 -2
1923 1 24.459419878086766 3.4451981504925655 4.402337664799673 0 0 1
2019 1 27.851830571770773 1.7096211542606232 1.6193545484497058 1 1 0
1806 1 25.66923617050402 1.5428147840714448 2.4865495013039176 -1 -1 0
822 1 26.529588633858925 3.789679550379738 3.493573576018103 -1 -2 1
743 1 26.06138040195698 1.83864086010719 4.816814066436829 1 2 1
585 1 25.502774239414556 1.294734638005066 0.2905965979677241 0 -1 0
1737 1 1.5940560815981353 6.425148883246389 2.380935933765453 2 0 1
1546 1 2.5170996895141284 8.593210650608416 2.595478370676053 1 -1 0
1392 1 3.651870171961129 6.44299974340204 1.082196958208236 0 -2 1
1946 1 2.1239268357023002 6.364154018519975 4.826001192019944 1 0 3
1039 1 3.82620844853221 6.800425278566534 3.544700709588213 2 1 0
1859 1 0.43046893169013006 8.29574853597658 3.9559434471659096 2 1 1
77 1 1.749882922250389 8.038419886187837 0.6964372127893492 0 -2 1
1969 1 1.3738380509915138 5.883264724991469 0.204290717734132 1 3 1
880 1 4.6533459628805485 8.5727286104768 1.5730098009881144 4 2 2
1522 1 6.004974331668743 6.743182360708941 2.047884283515029 1 0 1
151 1 6.644922771602734 9.17466052486552 2.5854666359598366 -1 0 -1
772 1 4.898214144240563 8.934348821404042 3.901666362074874 0 -3 3
1415 1 6.222480067221785 7.16426337517155 4.385635451285609 -1 -1 1
1489 1 7.46422140908461 9.025280743441522 4.679870359963391 0 -1 0
1372 1 8.065673628886703 5.072604945547887 4.707379948223968 1 1 1
1557 1 6.560464396829071 8.556996893415826 0.30942126619614996 1 0 -1
1163 1 7.198745597271775 5.130501917098028 0.40418266064407504 1 0 -1
1970 1 8.215953426805621 6.99776052679625 0.9247858955203864 2 1 2
1091 1 9.978425115302032 5.2885601019635455 0.8679776231761721 0 1 0
520 1 8.292287233338227 7.418175534210736 3.187660166708488 -1 -1 0
37 1 10.212229066635338 7.471395410108095 1.9544240738211525 -2 1 -2
544 1 10.104948805198061 5.400595658176537 3.6753093897600357 3 -2 1
838 1 11.047056667549356 7.596710499135445 4.0560576339511485 -2 -1 2
586 1 8.734663664098438 9.168103460278958 1.5136625099812002 2 0 1
1098 1 9.504149448045984 9.258966883813956 3.681935390580864 -1 1 1
687 1 12.010420632304209 5.365977911359279 2.149562069573178 -1 1 -1
2010 1 12.004254431073825 7.515804917488637 0.42197188662165835 2 2 1
84 1 11.514600187688526 9.285564234350748 2.386639006754745 0 -1 0
311 1 12.60496348058241 5.886654656173332 4.754954150442101 2 0 0
939 1 13.953338839648534 6.110314061054328 0.8290980054145446 0 -2 1
1133 1 14.644740388638386 8.244726737103875 1.4794071474792079 -1 1 -1
1417 1 12.823183784482772 7.591933051576175 2.5957333946172785 0 2 0
1794 1 14.5160781219682 5.972983219574071 3.53005210018229 1 -2 1
1510 1 15.351103180989757 8.258344803248804 3.767537338819018 4 2 -2
292 1 16.18186012144003 6.469319432102346 2.175996978572714 -1 1 1
474 1 16.902812466769664 6.426087179928195 4.285332685050844 0 2 0
1613 1 18.91279211802595 6.545687550269605 2.793297045999896 1 1 3
758 1 17.153923755261587 8.330433522935033 2.5766352669718766 -1 2 3
1807 1 19.391600980114053 8.686159453270564 1.2521915680171871 0 1 3
1539 1 19.646733050311926 8.641705990349665 3.810114005380253 -4 -3 1
915 1 18.30531564414011 6.58104323140919 0.5312717534164837 0 0 -1
719 1 16.707983483252672 8.294461768815216 0.40766230517121826 1 2 2
1460 1 22.678003851003247 5.023011590477161 1.1282890203756026 0 -1 -1
700 1 22.987600088581107 5.3136913617353905 3.703010781629974 1 0 3
1966 1 20.9652056446487 6.799117598145732 0.9584442698948862 1 -2 0
1883 1 21.239871913806997 6.819223792934789 3.2253886030316297 -1 0 -1
1928 1 21.835809330124793 8.809011312989135 2.2545090783860946 -1 0 0
1804 1 23.433606656396048 7.024011559052235 1.9153661547993317 -1 0 1
438 1 21.92118004310304 9.498191364884546 4.228709331016971 1 1 -1
227 1 23.61523156873673 7.490002955828565 4.401930669636636 -1 -1 0
1185 1 23.831718715295658 9.345958639904923 2.4966517257260077 -1 0 0
603 1 27.73043092795234 8.124127729394722 1.6983137725843784 -1 -3 -1
943 1 25.01196029602165 5.454544452102184 2.667323879729879 -1 2 1
365 1 25.58885062837274 7.768048687227718 2.9495062138061785 1 2 0
1685 1 27.282592805959222 6.211197413784271 3.134438117852515 1 1 1
1368 1 26.93890731433015 5.926868160398594 0.9078342329556317 -1 0 2
1324 1 25.370750326176434 5.714170314605806 4.805885977557488 -1 0 -4
270 1 25.489566989816588 7.526603156138105 0.4109476338504884 2 -2 1
1509 1 24.651021134776045 5.299005960665543 0.3691950958786663 -1 1 0
1483 1 0.7857025495043883 13.87579441620285 3.6997941253634306 1 2 0
653 1 0.8114653130399614 10.189899472731359 2.0036365397191216 -1 -1 -1
847 1 3.247282402914735 10.725378076455225 3.0602754648865584 -1 -1 1
1305 1 1.7109026907222158 12.314002596770585 2.251660029223648 1 -1 0
1040 1 1.161066934234855 10.390792694726754 4.428905630741737 2 1 1
1084 1 3.631528755321082 12.451857412819216 1.2282680529603784 0 -2 1
1367 1 2.910264565902189 10.270966428825698 0.827418253197107 1 1 0
398 1 2.3182369537362932 12.246467486684317 4.763307899227411 1 -2 3
290 1 4.140315292212791 12.989338373432938 3.490090506368163 2 -1 0
271 1 1.7687777990518831 14.025170318094256 0.44884322485342665 0 0 3
1162 1 5.247492723047873 11.007623166060275 1.9142106810345294 0 -3 1
1184 1 6.117040765943467 13.132593467887084 2.4631245275337705 -2 0 0
1311 1 6.145519819045679 10.928313408316612 4.104062499814424 1 -1 -1
1764 1 7.821855956400593 11.264852833579738 2.875357739656625 -1 2 -1
507 1 6.870714930825417 13.00312684760602 4.691900188852076 1 1 -2
1775 1 8.078312634032853 12.962612053218269 1.141763283462668 -1 0 1
212 1 7.031360187463883 10.950376795431703 0.6103678883996341 1 0 2
1141 1 5.467248668175803 12.57021131868008 0.2258865752762098 0 -2 0
1236 1 11.62285936154362 9.61814021709288 4.628444655835169 0 -1 -1
450 1 8.833653350654373 13.544110650244475 3.164349702922989 -1 -1 0
1717 1 9.761151170641616 11.19887915381997 1.5509345069571079 -1 0 0
1309 1 10.752406533503747 13.33711606281983 1.8447845913918444 -1 0 -2
1097 1 10.350485484154092 11.525762810170276 3.6538314332882895 2 1 1
168 1 11.010073863215048 13.532609428874505 4.439395747120528 0 0 2
2043 1 11.836703009506843 11.618566763989909 0.2708296605950693 0 -2 0
299 1 13.181680194372142 9.676548197690517 0.8793552678724912 -1 0 -2
776 1 15.332677133526955 13.796743120625626 1.9823283665298104 0 -1 -2
1504 1 12.26520085734538 11.44425834022205 2.566585814898487 2 1 2
1232 1 13.432523224485289 13.607265985144313 3.1384668500018096 0 0 -1
232 1 13.795825806108336 10.008761589872904 3.4983424672178973 1 2 0
1783 1 12.72755136098931 13.419096658141159 0.7651606981396293 0 2 2
428 1 14.070743266062271 11.865455199340596 1.2325449750953241 0 0 -1
1608 1 15.000225068887895 12.024195129889542 3.6257291231566913 -2 0 -1
62 1 15.635588695070304 10.174706209047839 1.8382490352289333 0 0 0
1927 1 15.743342889562312 14.129696223886995 4.456807622539785 0 0 1
1192 1 12.68195084556425 11.80390986845257 4.810978441212496 0 -1 -1
1936 1 16.20860805240017 10.182114190245372 4.482975474609146 1 5 -1
323 1 16.958508881391673 12.047616709173319 2.4909551717772254 1 -2 0
2008 1 17.69634999881671 10.358295595872027 0.7125332452429406 1 1 -1
1697 1 18.74589424219268 12.495340955954925 1.2074945377325377 -1 1 -1
355 1 18.393943207033328 10.485921289694693 3.251331437645696 0 1 -1
727 1 19.298640285536802 12.617222829271627 3.853045935855148 1 0 3
1031 1 17.115386791465568 14.137961751822173 0.5256849605865791 -1 0 2
1009 1 20.90843280241962 12.618711089099424 0.48459349669208573 1 2 0
504 1 22.48020934729696 10.724471456013909 0.7430742996437021 0 1 1
1379 1 20.36518097080863 10.789103164701183 2.1291020764615345 -1 1 0
1342 1 22.853529748742062 11.154686913817534 3.0652119216244 1 0 0
1369 1 21.256669159133438 12.99627052861142 2.6312987269229082 -1 1 -1
814 1 23.434438868543374 12.974948922562607 1.5769101041965465 -2 1 -2
738 1 24.0287771844596 13.280501183629072 3.8359018900981465 -1 -1 0
1159 1 27.983937907321444 14.010193066927568 1.4855924415672312 -4 1 0
696 1 25.51335896063609 13.368494885941567 0.35891116091064185 -1 -2 1
99 1 24.76875250048444 9.637106828009415 4.557083801915134 0 1 -1
2022 1 25.985635570894285 9.554970834775581 1.3775822749571984 1 3 1
1188 1 26.844282677130895 10.019762131478865 3.413712469454191 -4 1 -1
1998 1 25.94623134977247 13.677810615930312 2.5712126039193506 1 0 2
1545 1 27.690719259826686 11.932176267643856 3.668412999284217 0 0 -1
15 1 25.20501386815876 11.33519476573084 2.9143249972766445 -2 -1 -2
1357 1 27.22246858215837 11.713975875932126 1.3657076974344107 1 0 1
942 1 24.649792133749806 11.31961479038489 0.4488433788840709 -2 -1 1
162 1 2.133341737205914 0.6938922749800536 6.231633946264669 1 -2 0
865 1 3.2840820387970786 2.6492299678938758 6.860189784685492 -2 -1 1
1374 1 1.1797986557833147 2.1866592005862735 8.167565929835577 2 -2 -1
877 1 2.936823464437096 0.5450519555721958 8.553082970171696 1 -2 -1
987 1 0.6984189730082629 2.628270276952938 5.9455488486094366 0 0 1
923 1 3.5958698305267114 2.5577092886261505 9.101451638459713 1 -1 0
188 1 1.8181049501977842 4.751180210213359 6.4326660973613565 -2 1 -1
1057 1 2.0754314850898328 4.49558411206277 8.933317151186472 3 -1 0
652 1 3.7164117800370415 4.661319441842213 5.236667796814302 -2 -1 -1
740 1 4.126040081744765 0.7504616387109817 5.006236329436305 -1 -1 1
910 1 6.7594919815317605 1.0498956612884538 6.317134982027264 0 1 2
433 1 4.815048444618198 0.5134895261645005 7.24543927193318 1 -1 -2
1105 1 5.149296547115521 2.8051459021320593 5.624802190287981 1 1 -3
1344 1 7.47412424571044 1.1741808804896015 8.647309382764279 0 -1 2
631 1 5.778294012150401 2.768853711502601 7.936916560619588 1 1 0
1019 1 7.935047243169283 2.940140001922264 6.401005920792518 1 -1 0
12 1 7.924431696317969 3.201608003549401 8.636519084110862 1 2 1
63 1 6.118728420394362 4.83662599808445 6.270626167402618 1 -1 0
777 1 4.258838834613232 4.808411363488346 7.396336760169112 3 0 0
2014 1 8.696478756584906 1.0421726335309232 4.904887097089597 -1 0 -2
1068 1 11.135545815517164 1.9618279839095194 5.999322885859037 2 2 -2
577 1 9.625107685912173 3.414321440055818 5.075040311106134 2 1 1
1885 1 9.33401519594595 1.1682157263370638 7.217617866820186 -2 1 0
393 1 9.89849067423818 3.193994552969327 7.7716356412443925 2 0 -1
1930 1 11.938701164922522 1.9775710464282474 8.302909739895046 -1 2 0
485 1 11.93500538690106 3.882186428090716 6.512585987874804 -1 0 -1
1660 1 13.984152641231733 3.934034412743573 5.064082307229809 1 0 3
2009 1 15.78232736967269 0.25220497787564955 8.878301375374631 -1 1 3
1391 1 12.868545546224714 4.069604717732213 8.502367400709955 0 2 -1
1571 1 13.658722137180051 2.068475035379243 6.689825415469811 -2 0 2
1002 1 14.404042528498062 1.9891469454719484 8.75673759754209 -2 0 0
1073 1 14.714765024891273 4.149026761977025 7.130061501977793 -2 1 1
1266 1 16.12249256152434 2.3139059352765314 7.063782012262344 -2 1 -1
470 1 15.160618419120821 4.189538678138585 9.40955706368944 -2 -1 0
185 1 16.728918512999083 4.2378268434144495 5.581109493125107 2 -1 0
1767 1 18.14002617652006 2.5404500867935034 6.068553275893171 -1 1 1
945 1 18.793438695309348 2.468393879972077 8.224469637354627 2 1 0
431 1 19.867615210157467 0.8882870432647196 6.476877317663938 2 -2 2
100 1 17.173113148637743 4.485607706153145 7.92085137911663 0 1 1
1013 1 19.020501339946506 4.606829471591601 6.276092777115707 2 1 2
127 1 17.863497852507855 0.6153872541624612 7.538752310375247 -2 0 0
816 1 16.634118014386555 2.328628551245281 9.24454123256717 2 -1 0
272 1 17.25331056890739 0.4189128185520765 5.304915498570023 0 -1 -2
1251 1 20.62629483491256 0.9680727166720924 8.922875154365189 -2 -1 -3
571 1 21.815365479459256 1.2209954113589916 5.122929717344673 0 2 1
1583 1 20.68473060576724 3.0921054785390476 6.944367557474536 -2 0 1
59 1 22.601105988737434 3.60945939698548 5.684772831107002 -2 -1 0
539 1 22.0254018077673 1.31850376111695 7.392984686157063 0 -2 1
405 1 22.876873790770205 3.1733474868682454 7.928129100451605 -3 1 1
1647 1 23.963379193358612 1.8115275814868614 6.168301479099029 -1 1 1
1842 1 20.899828671105986 3.169080193383913 9.14148427882763 2 2 -1
241 1 27.94051091943821 0.3311577512534901 5.679464180218104 0 1 1
18 1 28.081949897574695 0.19819055303786345 7.812848201014201 1 1 0
186 1 24.51021150130324 1.699560889304849 8.274564910191915 0 4 0
356 1 27.161103718286565 4.191669430646204 5.615372990623735 -3 0 0
1741 1 27.712604242967593 4.360433089691666 7.989755588895628 1 1 0
269 1 26.680092719788455 2.407912238270187 7.2667894629501 -2 0 0
532 1 24.829053006199725 3.882156261227778 6.636170415783017 -1 -1 0
228 1 25.586668589379002 3.772083236366253 9.044295443644774 -1 1 -1
45 1 26.270983366746556 0.40429641453741605 8.946069888352177 -2 1 0
1602 1 2.8102285582204414 8.792213539675732 4.966311069287826 0 -2 -2
1043 1 3.4707725379917047 8.779196239599123 7.4451303247863665 1 -1 1
1813 1 2.6169475443155292 6.771161477810848 7.172564154468686 0 0 2
222 1 1.6367024112269857 8.812152850285743 8.758276817707204 0 1 -1
140 1 0.8138980975584854 8.277031676503356 6.479383494920931 2 1 0
1734 1 2.9710011643073706 6.677749422382015 9.428843065192066 2 3 1
229 1 0.7238306641126658 6.5368322541696555 8.28061896156057 1 0 1
1442 1 4.58140124937276 6.725821805023229 5.74974342391626 3 0 0
1779 1 6.357235679336326 5.070875698499916 8.524391014958674 4 2 1
1738 1 4.842908475215652 6.901788750998604 7.832903239882728 0 0 -1
713 1 7.025164238384838 7.00562134533849 6.721959992808589 0 -1 0
705 1 5.432579699770816 8.910744341100276 6.173466923651322 -2 2 -1
580 1 7.325655178224944 7.314713627752356 9.084446580522306 -1 0 -1
24 1 5.866893215805976 9.143220427498505 8.688838440653921 -1 -1 2
1038 1 7.7717125567415195 9.194180216945893 7.053337573319401 1 0 2
1865 1 9.036167368907703 7.2426080519824705 5.482628532504066 -1 0 1
221 1 8.391806585610004 5.062511315202239 7.343786927120702 2 -3 -3
1612 1 10.470536425073089 5.426800757862085 5.950764331058966 -1 0 0
2038 1 9.401005993092122 7.199637240280091 7.6843281356820095 0 0 1
925 1 10.873237159759796 5.362488297173032 8.239972495692598 1 0 2
1986 1 11.520745314057754 7.748655680023638 6.2187943629113835 -2 1 0
1150 1 12.03933078790817 7.663332104005756 8.69759374226937 2 0 1
31 1 9.657189783134033 9.424772713686457 6.083175123504834 0 0 0
1329 1 10.288653297199442 9.148887686973039 8.502576513751317 1 2 -1
291 1 13.487902519761928 7.9381430572906355 5.046316287250554 0 -1 1
302 1 13.016603241496158 5.875842295088731 7.124000676522503 1 1 0
1905 1 15.218379172101233 6.165051422336695 5.663853286360386 -1 0 2
1765 1 14.030441681143666 8.088203180774556 7.357193045252235 0 2 1
2012 1 15.349957800828276 6.322197611226187 8.158192266190225 -3 0 1
651 1 15.64728604664883 8.509122007032365 6.006493725320938 -1 -1 1
1705 1 19.455125365568474 6.503254625360484 5.1446261375224 -1 1 0
1271 1 19.46780455728797 4.912091253799815 8.97908430832581 -3 1 1
338 1 16.38789911268614 8.718618391735044 8.432286787052217 -1 0 0
1941 1 17.6894100692474 8.23101394971085 5.064930435412653 0 1 1
996 1 17.349214294864634 6.36765461487732 6.732012970025454 -1 0 -1
775 1 17.803402064902787 6.712990003067101 8.999602244970198 0 -1 1
1274 1 18.791168847205498 8.711934054151625 7.307573359061603 0 3 -1
1450 1 19.92236732666954 6.70985894181774 7.34976408400749 0 0 0
101 1 21.080165299729046 5.004913893931497 5.172650862748725 -1 0 0
1918 1 21.499913298466957 5.116563702671451 7.748110505361692 1 -1 1
332 1 20.46505605210233 9.425619705449353 6.293862829970318 -2 1 1
1919 1 21.560261048364772 7.2719834368332235 5.513663441202984 1 0 2
737 1 22.207749353858944 7.180260333934037 7.848592164881252 0 -1 2
801 1 23.37306103841348 5.631892094387362 6.053375726654262 -2 0 0
1861 1 23.826577090751414 5.422813217044974 8.44321381924196 -1 2 0
1459 1 22.85318090122772 9.060574725069717 6.125260287124286 -1 2 -3
1474 1 20.94450493589792 9.013386771465763 8.5213855148008 -2 2 -1
984 1 23.1571597579663 9.304214613380722 8.42804947288684 -1 1 1
988 1 24.299966286127784 7.733733207949068 6.568196254532196 -2 0 2
1154 1 27.89693927555121 6.26575132461966 5.923793905942214 -3 1 0
1894 1 26.19688124158886 7.80174289080777 5.181467378008155 -2 2 2
1090 1 26.765153881906294 8.19619449355819 7.489696396779806 1 2 -1
1456 1 25.87289512744016 5.9280457026242805 7.236889816884219 -2 2 1
857 1 24.754446337169263 7.47174483337692 8.90582359631077 1 2 3
1288 1 26.43954176484387 6.005127591034661 9.3897284685677 -3 0 1
293 1 0.4075544650557291 12.445490342315358 8.1753543239657 2 1 1
817 1 1.5940277370051252 10.384505495937372 6.720829629119926 0 1 0
1237 1 2.632807157549716 12.886497011767897 6.90684533052692 0 0 2
710 1 2.3014223835717544 11.174216001533683 8.661536649636696 1 0 1
1858 1 4.055776640427112 10.747587585215191 5.313271947384024 1 0 1
442 1 0.24275691723958914 12.076594828575589 5.864086148280005 -1 0 0
1996 1 3.154020970479957 13.092611672705043 9.324790339153525 1 2 0
218 1 4.3119904774822695 10.808188348368454 7.8066350213230296 1 -1 1
1088 1 4.904227901229939 13.184096617594482 8.126522832456967 0 2 1
1139 1 4.680817467183363 12.84605703413163 5.947104941709185 0 -2 2
662 1 7.28353690211038 13.085902385982395 7.300157746261365 0 -3 -1
1581 1 6.486056463086227 11.051302387316785 6.330441992762918 0 1 1
1360 1 6.761855019803083 11.148292383502774 8.54309564728838 2 -2 0
119 1 8.495992803186198 11.499951314146735 5.138353248861436 1 0 0
1532 1 9.733256721748047 13.403279772325561 7.882767494182275 -2 3 -1
1268 1 9.285126617430462 13.559381461039202 5.74017550286653 -1 1 3
1110 1 8.852941534884167 11.279775420174307 7.418226481965235 -1 0 2
588 1 10.716999634510758 11.666203053723336 6.2208089132083915 1 -1 0
500 1 11.101361723881757 11.304541089752911 8.531970531875196 -1 0 -1
1826 1 11.866676439764674 13.69219377275367 6.729181345071704 0 1 0
640 1 11.945777814932107 13.568418163168273 9.249220780370205 3 0 0
627 1 12.201993302898439 9.802462895056996 7.220792668781233 1 -2 0
1835 1 14.071814683684309 10.273614676813985 5.869223410868852 -4 0 -1
1148 1 15.283489071811006 12.192961220037569 6.1289823707707605 3 1 1
1798 1 13.228039625122964 11.873415811463808 7.423565512156181 2 0 0
1487 1 14.81467938869315 10.473983255999917 8.235216117626184 0 1 -1
424 1 15.594584197816614 12.69205829654575 8.578282800226463 2 -2 1
129 1 12.746350809315375 9.852628491551597 9.408867060425191 2 -1 -2
527 1 13.648955691471057 13.895763102745612 5.620722340763201 0 -2 1
881 1 17.249357701068114 12.424114667327188 5.016065108851476 -1 -2 3
1640 1 16.84402911928724 10.674823507769162 6.845632006252214 -2 1 1
325 1 17.726409304867747 12.972851777479969 7.475580760212887 0 -2 0
1147 1 18.611187371641606 10.606319669308998 5.525562998895452 -2 2 2
1216 1 19.433035834283324 10.965281215900019 7.867666475074306 -1 -1 1
251 1 17.169523210331704 10.817662141741012 9.090960660515497 0 -4 -1
1799 1 19.963901905273524 12.939352227559628 6.271058070520858 -1 1 1
1871 1 20.64214371531131 11.103172648469982 4.875438917848053 -2 -1 -1
324 1 22.086335608756077 13.373173700764493 4.979930134918666 1 0 -1
1820 1 20.423114128707986 13.070990351290114 8.745904447685321 2 0 0
1109 1 22.268445316612365 13.389663439243236 7.313679005831442 -1 2 1
1463 1 21.746033016211378 11.256712342948191 6.917340327315011 0 -1 -1
1438 1 23.423536644639373 11.36716598765353 5.3412612646739035 -1 0 0
548 1 23.734906335932347 11.709174385924888 7.958989338999917 -2 1 1
1816 1 21.878599080034082 11.008154394036273 9.215989333057902 -1 1 0
899 1 26.749991903090134 14.146394717016436 7.270420683791783 -3 -1 -1
699 1 26.012305741137396 11.751312223011892 5.098931380868728 0 -2 1
1879 1 25.06632335626344 9.726545465921843 6.785955060307765 1 1 0
66 1 25.69477843718323 9.680180071277588 8.917032288125348 0 0 -1
472 1 24.52336078517312 13.219185979522447 6.407170104073469 -1 0 1
859 1 27.845163057977626 9.975432401635704 8.099665345358803 -2 0 0
1521 1 27.300846032406742 9.930569367945449 5.819368867942342 0 2 -1
407 1 25.856912122922488 11.757814363304405 7.329926138898736 -2 2 -1
57 1 25.056710743060822 13.810587055376429 8.72421023235014 1 -1 -1
891 1 26.76098532670277 13.900205863309695 4.9410824872781 1 1 -1
1218 1 0.8964699520305499 0.5156763337935475 10.142633844556594 1 2 0
723 1 3.1671658561980673 0.9782420472024654 11.181321255835142 0 0 -2
1423 1 3.7273420522552456 1.3680440252348183 13.51616338118692 -1 1 1
429 1 1.5822501039875527 2.959852491606887 10.68542867026897 0 -2 -2
534 1 2.2108667966585833 3.105522373114528 13.049767270778032 -1 0 0
1566 1 1.4489761020198837 0.8814334691139053 12.445013807164317 -1 1 0
1203 1 3.9608983139292877 3.199579733620497 11.536421609606535 0 -1 0
350 1 4.586960985796629 3.2974516788201345 13.923331340353684 0 0 -1
959 1 5.303614530528033 1.1212058205079043 9.79509738948826 2 -1 -1
1446 1 7.532008524917497 1.624947799455933 10.603571512980693 0 2 -1
1884 1 5.660933756472221 1.7491964397972315 12.237140797248363 2 0 -1
714 1 6.159290681363303 3.1935065683108 10.337394656574405 -1 0 3
1381 1 7.034456688757569 3.6954824359927527 12.543789138825792 1 2 0
965 1 8.054702164559828 1.732828903318619 13.059125708972362 2 1 0
686 1 4.5935862530895095 4.843655742843235 9.838326026877198 3 2 -1
41 1 9.905763714971286 1.391697820102664 9.591265243680256 -1 0 0
873 1 11.879391767070297 0.2812779828534993 11.962343870185185 1 -1 -1
47 1 8.425359334306956 3.6046781539572557 11.02766439538075 1 1 0
1569 1 10.830965242607585 3.811322198101275 10.036239449666615 -2 -1 0
1350 1 9.922749571285891 1.807544813238626 11.72039143654006 -1 1 -2
1448 1 10.860945291611399 4.158418291140615 12.440746569268354 2 2 -1
858 1 8.979805933602389 3.804441781033555 14.031910205971167 3 0 -1
1691 1 10.833265428174704 2.1917763842874263 14.048447089797426 0 1 -2
970 1 13.781170288993826 0.2931314905003539 10.291151907766816 0 -1 2
1541 1 15.250262614714062 2.600574203783852 13.570169766167647 0 1 1
1664 1 12.349539417750899 2.0296959650904745 10.504566199541324 0 0 1
955 1 13.165592890770744 2.5753763248484978 12.967133278437199 0 -3 1
835 1 14.77008765142816 2.5257599602332985 11.070288912081407 -1 3 1
1291 1 13.709526419996742 4.502082956598603 13.73208034750643 -1 -1 1
1279 1 12.849732956703399 4.090884484462234 11.156539911970869 -1 -1 1
1548 1 16.025734843975258 0.679930027187105 11.278991050913094 3 -1 2
1551 1 15.612470136672885 4.4280002894521004 12.022463714981109 1 1 -1
1771 1 14.179117647530889 0.6252960229381719 12.737547757137635 -1 3 1
611 1 16.687183575934274 0.8466766037015256 13.713970459318157 -2 0 1
1833 1 18.156502146828785 0.5823444588992461 9.796572141017444 2 2 -1
1293 1 19.154643616865396 2.7291431296080084 10.749687950121976 1 -1 -1
1158 1 18.671349205015876 0.8283982332743229 12.353249962913575 -1 4 0
1825 1 17.25903534286811 2.884938129714769 11.973188096734663 -1 1 0
677 1 19.439350977098755 3.0364837125847997 12.998722440704979 -1 0 0
352 1 17.497942204515006 4.246002129790857 10.099006669075361 2 -1 -1
1895 1 19.764220329283873 4.794074094243056 11.273711915254053 0 -1 -1
786 1 21.835590001563926 3.759066961108818 13.952102197926655 0 -2 -1
871 1 20.821638912340234 1.251275227445789 11.173930510714156 -1 -1 1
797 1 20.844453232640813 1.6131351453340836 13.59582800495797 2 1 -1
1665 1 22.755139382584115 1.7151278318539651 9.7874085507935 1 0 2
1246 1 23.080073274586507 1.6053118499624077 12.163206454545547 2 3 1
617 1 21.51826346090868 3.3498176326926288 11.610786969894155 -2 1 0
703 1 23.5165948442515 3.945329638533239 10.329952981383382 -1 1 3
805 1 23.751005663013782 3.6986189878780276 12.585617648680124 -2 0 -1
1333 1 26.8995045317423 0.48822856655871216 11.292901463535399 0 0 -1
423 1 27.243520033516283 0.8578170516671748 13.750375754191738 -1 -2 0
1934 1 26.540760934688546 4.396602069009229 13.693128086400101 1 0 0
882 1 27.432428497246704 2.398702249393726 9.751983625440344 -1 0 2
1061 1 25.50308632139209 2.2934694594132803 13.054276797290326 -2 -1 0
334 1 27.87134316956745 2.376763119776135 12.142101125288466 -2 2 0
693 1 26.197466695349295 4.136404472297382 11.551486249713165 -2 1 -1
1812 1 25.020264495863042 1.8680165836079687 10.641887229655788 0 2 0
79 1 28.055720663396116 4.79330844903831 10.380903391563388 -1 1 2
284 1 0.6779793893488512 5.065202423626076 12.55269282355947 4 1 -1
953 1 3.750886022650084 9.069654776361835 10.083852583590769 1 0 3
1497 1 2.368046969243402 5.221080341672181 11.150555008758106 1 2 -1
1712 1 3.1369917164677843 5.275887313420263 13.507696574614897 -1 0 1
543 1 0.839021389153309 6.830886789334867 10.525513664096795 0 -1 1
1718 1 1.5408321100780158 7.049428484984165 12.822121782619318 0 0 2
928 1 2.352317774837469 9.278851357741123 13.651763078905567 2 3 -1
962 1 1.8062532887747695 8.900986302324077 11.31261835479401 0 0 1
1363 1 3.7636362391261398 7.082578283933435 11.95112968852601 3 -1 -2
1219 1 4.347102219555833 9.367480919377751 12.142078845977673 0 2 -2
815 1 7.594524432992666 5.750345502078585 13.493746962084563 -1 1 1
1773 1 4.8907865776184725 5.169815537327143 12.219960229560126 -1 0 1
1596 1 5.274226294301093 7.284532884357542 10.381076613123183 1 0 -3
538 1 5.927393203416284 7.643332942646226 12.528282632598563 0 -2 2
2047 1 6.850258587025879 5.767123362892168 10.764281000660773 3 1 -2
768 1 8.11646607040418 7.603749076959428 11.33439042949193 0 0 1
876 1 8.60338788501922 7.651300315344736 13.498089220063834 1 0 2
508 1 9.046390316684443 5.512780616783641 9.793454350576937 2 0 0
511 1 9.347384018449869 5.6822849512191 12.157341738150105 -1 -1 -2
51 1 9.863279919235664 7.593652369443436 10.10914370782515 0 0 0
2017 1 11.527476838212673 5.972341788555047 10.648997039963435 0 0 -1
1994 1 10.705103035606069 7.871154123797099 12.428704016028345 0 2 1
1405 1 12.10095359408899 6.092851745690716 13.047797741672346 1 0 -1
2039 1 8.22549775765499 9.501918140503067 9.740592900698264 3 2 2
240 1 12.835033760892268 8.642244552771027 13.685271964222224 0 -1 1
1400 1 12.531070147188744 8.073792403842187 11.056975625800384 2 1 -1
907 1 13.756652327218855 6.002752108522141 9.575129702562691 -1 0 0