LAMMPS data file via write_data, version 29 Oct 2020, timestep = 300000

2048 atoms
1 atom types

0.040636520881427884 28.311363479115588 xlo xhi
0.040636520881427884 28.311363479115588 ylo yhi
0.040636520881427884 28.311363479115588 zlo zhi

Masses

1 58.933

Atoms # atomic

356 1 2.982494024221302 3.2195334086544123 2.4575814337176594 -2 0 0
1741 1 2.1780569811830763 1.3630492915156982 3.9481997775403213 2 1 0
241 1 2.0596580221301526 3.8580153229946252 4.39672811891025 1 1 1
282 1 2.0137168809201764 1.203321334293752 1.7266311860413641 1 -1 1
1520 1 0.6038099625575921 2.7916954156617124 2.4110947394519764 -1 0 -1
1813 1 28.302131428011016 2.4514754006868893 4.572914857886011 -1 0 2
375 1 11.159052546437511 6.364547001267363 1.046248255863881 2 0 2
1578 1 20.645319555349957 13.92861429799888 13.359418341452821 0 1 0
1764 1 6.839426089525457 1.3271127369971434 2.2224344346723948 -1 2 -1
760 1 5.086309173633978 3.355888683332893 2.1761645464095722 2 0 0
24 1 5.960392371670308 0.9412770531264789 5.458673469405358 -1 -1 2
1781 1 26.417299685261128 8.891981596776082 0.3267315887431474 0 0 -2
1609 1 4.170550839778021 1.4922785118443063 1.1567036989566652 -2 0 2
910 1 6.033498362563288 2.591845747089061 4.136264752272011 0 1 2
2038 1 8.026962716479856 3.3941931026547376 4.881449699468386 0 0 1
286 1 8.009666031662956 3.7793982306452345 2.5310431345215223 1 0 1
645 1 10.960369015071702 2.2473818469674542 0.26597106753922173 0 0 1
1380 1 9.54486512858943 1.4814918620122222 2.579364100500428 2 1 0
1068 1 11.535583910966226 2.3194415637427666 2.6266811961590166 2 2 -2
1047 1 10.004843082698796 3.466508152724826 4.175565959105229 1 -1 1
363 1 10.046273721871557 4.1439460744181655 1.854633432142038 0 2 1
768 1 7.180498603495563 11.148074376547326 1.070178768635689 0 0 1
1485 1 6.05236460683423 0.29856208316283744 12.871237389377777 -1 0 1
907 1 14.398066252692264 0.8855749196126307 10.83214162875416 -1 0 0
1986 1 12.370448441632975 3.913214950672158 4.299943755013721 -2 1 0
1701 1 13.444286295607048 1.4165084397197285 1.6856906358886456 0 0 1
1135 1 13.55056050210254 3.5220795291158056 0.3512708218045383 -1 -1 1
1377 1 16.114406723631973 1.919148907199911 1.5838935354840946 -1 1 1
1930 1 14.86654632337073 0.2779075774666049 3.4761815714743753 -1 2 0
1222 1 14.294250355919338 3.2779720938871413 3.0502446890166346 0 2 -3
1562 1 13.18515788031608 1.7505563668379258 4.5134046675053305 0 2 1
1571 1 15.990112262353222 2.1117704909281447 4.599962892962587 -2 0 2
2031 1 19.81546314991399 13.304154867352803 9.54380134523722 2 0 0
495 1 16.399398512086787 4.0187629414970045 1.2215786601283496 -2 0 -2
1391 1 17.594318445745614 3.3629180097795164 3.0551622978966533 0 2 -1
1588 1 17.874461349290137 0.8149041063317152 2.9297472157502735 0 0 2
1613 1 18.64699368000142 2.7047245112004243 1.0942695178523643 1 1 3
995 1 20.01746995706064 2.5558345462780347 3.3001661476868094 1 -1 2
333 1 20.047388546371348 0.93910537083601 1.5219764005140297 -2 0 0
1440 1 5.1590800986001195 13.626262142203347 1.0018013080257357 -2 -1 0
612 1 23.440194772481934 2.1683068644842156 0.505108372673074 -1 -1 -1
186 1 22.444667926702117 0.7328193957305216 1.677497814950567 0 4 0
1060 1 18.18701343010399 13.863873165619543 12.772128740363689 1 -1 0
100 1 20.96993632298726 3.0613657160892362 1.2839605753438224 0 1 1
1982 1 23.362624284984786 1.9292602155664742 5.412568958449538 1 0 1
272 1 22.217034571732206 2.445239346512431 3.618903793191446 0 -1 -2
585 1 23.868539428213687 0.5263241748728904 3.4994826296488526 0 -1 0
1152 1 24.47176062062827 2.7224651197941347 2.7186882646654955 -2 2 -1
360 1 26.84471704849488 3.5249194650428786 3.1056609078756923 -1 2 1
158 1 26.243877640989368 2.1251331910412943 1.1368626782281144 -3 0 0
743 1 26.464084370142334 1.2490605142887041 3.2184444805552506 1 2 1
680 1 24.95494136165218 0.48354975181721294 1.5528227216904424 -1 -1 0
1685 1 27.28017249566058 4.308559761902867 1.0045861195823171 1 1 1
1804 1 25.356577694945422 4.9142094682228965 1.9167932427106962 -1 0 1
1493 1 4.071645799589462 3.8278152329221293 0.2865034432392499 -1 0 2
1184 1 2.690097735589036 10.316984394865283 0.28533966243563014 -2 0 0
251 1 24.8964466735629 12.628871023639306 13.002082705591286 0 -4 -1
188 1 2.369402547655342 5.247788776008583 2.259066824522521 -2 1 -1
1154 1 0.24765522056847986 8.55891049340713 1.108479426327219 -2 1 0
1372 1 2.1099566711102016 6.033019398954734 4.46989001930437 1 1 1
79 1 1.00681442663292 7.377397049625021 2.8173625655854293 0 1 2
713 1 3.428860361444488 7.121480807131258 2.42799210454328 0 -1 0
264 1 2.243730087764802 9.671188069664153 2.3975740009815327 -1 0 1
648 1 2.6229113150829915 8.344787349527406 4.424421443246976 -1 0 2
804 1 2.401121877483392 7.876964545207441 0.3510061972275749 0 -1 3
603 1 0.8620149063296147 6.386944516994703 0.6888738703780567 0 -3 -1
1049 1 4.248084911589997 5.270187534370757 3.777778734433203 1 0 0
1946 1 6.046373468327787 7.435765411187597 1.6488856377853611 1 0 3
1091 1 5.420594748104681 7.732144791363704 3.670727657676676 0 1 0
1595 1 4.6750937458939905 5.835705116152823 1.2875082105481273 1 1 -1
1785 1 7.595712429593663 7.937848539245753 3.678638991502817 2 0 3
595 1 6.599911323946428 5.307363127936151 3.1988607125772632 0 -1 -1
222 1 4.453338746364565 9.125885583823852 1.33939019658271 0 1 -1
1747 1 6.922699596292402 5.412089489767992 0.8967365992005634 -1 0 2
1581 1 10.223787974665532 8.1088623186384 2.5356625139488833 0 1 1
1110 1 8.769151551829761 6.142600691584421 1.8093440826534557 -1 0 2
1036 1 27.385885176963566 9.479343468314816 13.437454454648847 -1 0 2
586 1 11.016328785835716 5.7629072041631035 3.4538220697112676 2 0 1
2014 1 11.478138099157928 7.534902738295832 5.0763910521438556 -1 0 -2
177 1 20.938080660642846 9.991999002637918 0.49620570798059527 -2 0 -1
1809 1 8.100695137277206 8.455643461251624 1.2411124567509926 0 -1 -1
1271 1 15.438097059737492 7.714507508302445 2.3186546312138385 -3 1 1
739 1 12.598888123215858 7.324445025551052 2.2144278489333518 -1 0 0
1034 1 12.358055152122889 4.57174825224123 2.0090879817518235 -4 -3 1
1865 1 14.634860234062367 5.425765645791511 1.6830209509447545 -1 0 1
1017 1 16.1160561336991 4.748699875562924 3.8918740541002834 -1 2 1
1583 1 13.707281409215092 7.8191381105685895 3.9510560575095326 -2 0 1
2032 1 15.917468507042358 7.148070402421096 4.517063479328841 -1 0 1
73 1 13.833095310199786 5.622220004142831 3.708536265266392 -1 0 0
1314 1 16.912916491567298 8.628195793876705 0.34141753874002373 0 -1 -1
544 1 19.459520529071305 4.780106821752802 1.8819606241059317 3 -2 1
1251 1 20.186732514175006 6.417939169972742 3.318986688893712 -2 -1 -3
2010 1 18.020048161130994 7.778685167834532 2.578208187806381 2 2 1
1845 1 17.275417466979047 5.725469871203141 2.1759039193082153 0 1 1
1450 1 19.839623986050483 9.43984284092723 3.2593117442527673 0 0 0
116 1 18.755472956632577 7.110125996020321 0.43861220705650195 0 0 2
291 1 19.197357917700508 4.288532799747366 4.417775105667584 0 -1 1
37 1 20.397329615113577 8.09059534167393 1.5448544809856768 -2 1 -2
1063 1 21.592205555763794 4.457847614228067 3.336266337752896 -3 -1 0
485 1 22.251947607368063 6.4824012415993 1.972557569691122 -1 0 -1
34 1 22.027072003689167 7.829136630340863 4.3516203686422665 1 -1 1
1650 1 21.017572134817048 5.5770602088776435 0.32447180601688297 0 1 1
746 1 23.866299600782483 6.020417951880926 3.3050713932959037 -3 0 0
801 1 23.114901492085153 4.321512248453154 1.5168433120484184 -2 0 0
868 1 2.972605683460053 0.6698967280109711 13.979300853957195 0 3 -1
1213 1 0.3126209773657992 5.182908479207928 3.128813519546101 4 -1 -2
1459 1 23.999452134907326 8.376274618831971 3.3632232836475136 -1 2 -3
924 1 27.217021313635012 6.9670577829628915 1.4450289330137813 0 1 2
1460 1 24.91572374128425 7.205074104367701 1.638138493090865 0 -1 -1
48 1 26.425037768627703 6.139716881434918 3.662309394549646 -1 0 0
1509 1 26.52080764882604 8.455900673144402 3.1496657167842748 -1 1 0
227 1 26.594990784841976 8.86245309407116 5.649460907326338 -1 -1 0
1237 1 28.208631104759053 6.482555331540318 4.7803156706428425 -1 0 2
943 1 0.21855800977963383 9.533693234923751 3.3177070663566606 0 2 1
412 1 2.5232772667426295 11.911532551966896 2.384420615051526 2 1 1
772 1 1.2760757230451492 13.496824102859946 1.5630874120652518 0 -3 3
720 1 0.695236899277923 10.987542800006969 1.2942951940138503 1 0 2
218 1 0.36335105399337436 12.341533474061698 3.3709244593859466 1 -1 1
990 1 3.20643491835714 12.726494836108508 5.855926125760455 2 -1 1
121 1 5.14197971253088 0.7896685138412443 7.5673938439026 0 -1 0
1518 1 12.799685577485151 9.910958540324929 0.49108265284400515 0 0 0
1324 1 4.277949011265494 10.067880816873595 3.317412208543206 0 0 -4
1601 1 4.331984484118441 12.46039417021706 3.686996178790088 -1 0 1
636 1 6.304728889859928 9.646625541230542 2.674044964178786 -1 1 0
1373 1 6.324937995010245 12.808406658769355 2.6426501372764655 2 -1 0
1038 1 7.047123912133398 11.169902597807935 4.267449016914148 1 0 2
1546 1 4.419371472916764 11.319519836037198 1.1157599493920407 1 -1 0
1822 1 8.088237853227982 13.371159048768396 4.7577529056090775 0 -1 0
1141 1 7.329373455511803 14.038016380936709 0.3907243073738169 0 -2 0
497 1 15.96604371489859 6.752281595313346 0.1547765734921201 2 1 1
1370 1 14.955361640042296 0.3159958567028797 8.307949758575853 0 1 1
1690 1 8.645688213672958 10.055899010792853 3.3823140127536604 0 0 1
1432 1 11.412863651562823 10.331212426738105 2.3148054639514943 1 -1 -3
299 1 10.67120581098306 12.387771231370298 1.5136283943824083 -1 0 -2
84 1 8.400539455647621 12.37593284642096 2.9056902401363778 0 -1 0
588 1 10.648720096869706 11.705079446560818 3.897296742163495 1 -1 0
2039 1 9.549305681434811 9.18802261828818 4.989282710114266 3 2 2
1844 1 24.824014958914642 13.589782261269972 4.518312789502178 0 0 0
1620 1 24.97490992091339 4.422772411339227 13.524389355125914 2 2 2
1295 1 13.75255547538326 9.716360343918588 2.442620798829763 0 4 1
1941 1 19.072621736103656 14.073422694362229 6.9695883566639765 0 1 1
2043 1 13.205109989541269 12.144890028947536 2.2088396322868302 0 -2 0
1300 1 14.965876463437997 11.593673038701242 3.335045861900162 0 0 -1
1192 1 11.854910338034884 9.383686344859827 4.392722507563117 0 -1 -1
8 1 9.129829295213062 0.37495908590208854 0.5002246019536463 0 2 -3
1789 1 15.05092719911853 12.104166377553803 0.5281941433211832 0 -1 0
1886 1 27.96878317469562 10.375235854979573 11.24063548675957 0 -2 -1
1209 1 17.34817172570159 6.6996684062079614 13.803965042012276 0 -1 -3
1956 1 9.093478195120861 12.27670631011222 0.12967660288705657 0 0 1
600 1 17.56642321027266 9.02089935882423 4.2080212578152745 1 0 0
2028 1 18.674340014503958 9.960073768872657 1.2424456526666547 -3 2 1
1085 1 18.530155723443933 13.456724460622521 3.057149589184572 2 2 -1
1889 1 25.208417922921072 9.658988058791206 13.088414912742902 -2 1 2
1400 1 18.212161293859275 11.027349622318356 3.308922025138975 2 1 -1
62 1 16.463679361090712 10.024247690282122 2.2986069349269638 0 0 0
310 1 20.717108360076725 12.116186439063311 3.430998752400359 -1 0 0
758 1 16.765101960646124 12.270123749109091 1.9252679293601824 -1 2 3
881 1 19.209237678397596 11.93102810511842 1.2946930333659459 -1 -2 3
271 1 23.76485152288742 11.151120424787296 0.3762649414174991 -1 0 3
987 1 8.164767747029362 0.6641949601383637 8.658247857913183 0 0 1
1638 1 22.85553579684146 9.194714627513612 1.3574771359972266 -1 0 2
88 1 22.000528083415833 9.980968673729045 3.359764711534628 2 0 -1
1098 1 9.529966472000673 10.458700819309572 1.3346656483889514 -1 1 1
1619 1 22.274464405322316 11.87921305814097 1.9086700855769434 0 2 1
729 1 23.020915419383424 11.544708621049145 4.792103562004043 1 2 1
900 1 23.769042503707993 13.861805342494566 2.00488957020378 0 -2 2
1799 1 24.321298479823692 11.738715196078918 2.798177495209866 -1 1 1
1124 1 22.371963101456128 13.619858441158495 3.8143892702899396 -3 -1 0
859 1 1.7090800782684363 3.765244664414675 0.5734629079299862 -1 0 0
719 1 10.916486359869491 8.850040902356538 0.5518443025679014 1 2 2
1955 1 24.995914311590578 9.893139631032787 1.6368108590437451 1 -4 2
1368 1 25.45831001165744 12.703286887239496 1.3162936964933594 -1 0 2
1076 1 26.814243063981753 10.863567655767719 2.4372824272698526 -1 0 0
1185 1 27.55349041238408 13.319816415245151 0.9365079773690337 -1 0 0
988 1 26.373949833388664 12.66516333127491 3.4775174515070253 -2 0 2
1534 1 1.8428025675685338 2.90793337671538 6.220239183373238 1 1 2
1752 1 2.0253683605379544 3.6917884679153317 8.330463846605287 0 2 1
2024 1 2.989616924385869 0.9772574800930693 7.720006233417696 1 2 -1
197 1 0.7668484347956689 1.7929610654095198 8.227327944705879 -2 1 -1
59 1 0.38739338520528616 3.4005625776255943 9.895358604678316 -1 -1 0
922 1 9.963968959448065 14.170085845235823 3.666258713795106 0 -1 2
1969 1 3.9036476872413832 2.398768165994111 5.024859415904618 1 3 1
631 1 4.257961572716635 3.2156989946690735 7.3866255372008895 1 1 0
952 1 11.861761070266768 14.153789908828768 13.969066244297638 2 0 1
549 1 24.130422997041876 13.703034224014777 8.87887631947988 -3 0 0
777 1 6.49588761062124 2.71155015035746 6.798782791359021 3 0 0
501 1 6.5740361576056685 4.400614390045363 8.548096579554898 -2 1 1
997 1 8.353910836558203 1.7387101571487178 6.555122956981589 -2 2 0
1201 1 8.099227637602347 0.8594164934793573 4.516095318897364 0 0 0
1329 1 10.485153911136425 1.6660240351196054 5.080110449416563 1 2 -1
1612 1 10.26644309976045 1.363552359765308 8.342487422964835 -1 0 0
1134 1 10.21182591832292 3.182392124273532 6.634129700427157 0 0 -1
257 1 8.653964272611526 2.975047427752605 8.394660775042553 -1 -3 1
1448 1 8.493972495872134 5.4859777485673735 9.344749078925753 2 2 -1
151 1 8.29472542763045 4.989842120425923 6.718655866851977 -1 0 -1
1976 1 11.146452904590792 3.0953688766792884 8.787864184066374 -1 1 1
1350 1 14.674573113851073 1.0723111632115314 6.371693669099905 -1 1 -2
1344 1 12.321094255896165 2.085547493350932 6.835392648549625 0 -1 2
1161 1 4.330059739181004 0.6164040591854583 3.1935309647239345 0 1 0
950 1 15.206025268805186 3.4321441063332827 7.59510003898538 0 1 2
1918 1 14.469478305240443 3.9687406843303688 5.421209272032743 1 -1 1
785 1 14.447454394057411 4.405491640703883 9.425790394561615 0 0 4
1551 1 15.969019382655551 2.14970931275956 9.504390821990311 1 1 -1
1230 1 13.672148271350224 2.3448316811838144 8.632250175301875 2 0 -1
1259 1 8.496387071872954 2.703955687352533 0.438209032052956 2 3 0
1274 1 18.745930132540792 1.1282418859738905 4.978421020640387 0 3 -1
332 1 17.112770816753493 3.521279612687558 5.743804112777545 -2 1 1
1898 1 16.706203325538542 1.2567661192537003 6.8921249835486 0 0 1
895 1 19.820182188090733 0.9886662254324645 7.439945442551837 1 0 -1
1548 1 17.400589383173454 3.5968195474151394 7.982740595314888 3 -1 2
183 1 21.187622534655798 13.458387992756322 5.8452030409981885 -1 -2 0
816 1 19.157302813175516 2.867703206026307 6.368229961483967 2 -1 0
1379 1 16.224190361835532 5.712754936588104 6.491747872973934 -1 1 0
204 1 18.156233544207247 1.4569555732530364 8.72939515875505 -2 1 0
127 1 21.293962401124414 3.428569783368366 5.519120978951949 -2 0 0
163 1 21.198862542169294 1.0116329847715142 5.293702558940727 0 -1 -1
1833 1 20.730055894291386 3.2720779782840514 8.08206245755002 2 2 -1
1832 1 22.26658751042407 1.3092705630473642 7.727541601796663 -1 2 2
571 1 23.109450899167427 3.3364050438658763 7.0233540527818965 0 2 1
1761 1 20.656430154178203 1.7973462962385987 9.820162999247184 2 2 -1
1641 1 23.368871568998628 11.336708759702262 13.847588325518117 -2 3 0
1542 1 25.532486103308642 0.2994808701765123 9.140859371016134 -2 1 -1
1806 1 24.797318451426946 4.407335572287746 4.502583267343907 -1 -1 0
1905 1 24.99230671493384 1.1332556770792637 7.119643124505949 -1 0 2
1075 1 24.173175532449257 2.6636064694369974 9.357690849715778 0 1 -2
289 1 26.967449510460284 1.4787743105457656 5.926307645919262 -1 0 2
330 1 25.547140975042232 2.440081220855751 4.745769278920579 -1 1 1
76 1 26.450234655342786 2.240509432286446 9.08435398710607 -1 0 -1
822 1 27.78376154802335 3.25215066704175 7.366681883354527 -1 -2 1
312 1 25.44121090851209 3.5002370402063177 7.212555594368985 1 0 -2
1644 1 27.09228238708855 4.26217387239898 5.322453785506413 -2 1 -2
1104 1 3.3413976384401725 4.863357188405724 6.141825259710426 2 2 2
1751 1 0.9135931944785712 5.1462073811920055 6.581139009448692 0 0 1
47 1 2.5416850155560406 6.002497868313188 7.974532515780916 1 1 0
538 1 0.7062764453977681 9.684035013132094 5.802227994027179 0 -2 2
1090 1 1.471352392302988 7.397406485358206 6.2763802019724615 2 2 -1
1779 1 2.1676852987944053 8.68063060085942 8.272972950725435 4 2 1
962 1 4.024244386436585 6.9581501997130655 9.45354497434772 0 0 1
526 1 3.4987852852219734 9.478534111703265 6.314332327142655 3 0 0
693 1 0.5789387649951561 6.468801829567328 8.71392985712229 -1 1 -1
714 1 4.191765862923917 6.6821632514391585 5.671769625359645 -1 0 3
652 1 5.997701994597044 4.266355704584997 5.689891551948049 -2 -1 -1
1489 1 5.672942751159407 8.85085390757498 5.390268719329446 0 -1 0
41 1 5.041862182267809 7.9017993045094705 7.500326937195323 -1 0 0
876 1 6.806603333894461 6.640743219008733 5.372085447523835 1 0 2
31 1 5.119291279348881 5.6155044485110945 7.516868086175221 0 0 0
1798 1 8.0994192283142 9.320845638701158 8.90746104119449 2 0 0
33 1 7.477917683120618 7.167220520281306 7.7801945777523756 0 -1 0
507 1 7.639064447030588 9.367006545700807 6.034456048027823 1 1 -2
1074 1 10.252812985529566 5.574107127821795 7.880080906965802 1 1 1
894 1 11.144496591054594 5.424200263669493 5.771748445708615 1 2 3
117 1 12.054677469635532 7.041154509397554 7.63903538157131 0 -1 -1
1926 1 9.227961973815917 6.96417528444399 5.614057472564185 -4 1 0
766 1 8.665988779529203 5.416459591040516 4.354998297120951 0 0 -1
1219 1 10.198069546755294 8.407577410208999 6.905894019916462 0 2 -2
1281 1 9.650892889766364 7.5339219338999435 8.922621883525514 1 0 3
1116 1 12.542159795572049 4.355809195617877 7.407501126756882 0 2 -1
975 1 15.353836165042951 8.206700807052227 6.245122662431024 -1 0 2
1279 1 13.617231953821609 6.381494297898388 5.999244573927921 -1 -1 1
1349 1 12.967846084069949 8.837364928300369 6.458525913774333 0 -1 -1
1871 1 13.788771103698162 7.843315785469576 8.847492627083543 -2 -1 -1
1457 1 12.693102425768021 5.634228525223725 9.45466700369413 -2 -1 1
1147 1 14.536218802831733 5.884612553410563 7.902087100500859 -2 2 2
996 1 18.097281068439674 6.403473243940996 4.5375004501244875 -1 0 -1
1684 1 16.258097129981607 7.994257192401562 8.454618422434285 2 4 -1
196 1 18.450952642605433 5.91599502257429 6.60409957801653 -2 0 -1
44 1 18.539878022070834 7.571109138332647 8.66717706553694 1 1 3
324 1 17.731418364027988 8.12773665512262 6.456141016083663 1 0 -1
1290 1 19.506393579731174 5.202666806766606 8.4123458217547 -2 0 0
835 1 16.695379260749142 5.672256394311559 8.524448697629362 -1 3 1
86 1 25.201839956045557 6.859301311826444 5.382319917496663 0 1 0
1568 1 20.350439144592073 6.38537185124113 5.652686627306528 1 0 2
1013 1 22.73617701555968 5.370335949198587 5.205116104766059 2 1 2
96 1 22.82549450176408 7.163807655816083 6.340205125456991 1 -2 -2
66 1 21.742022098613095 5.248552925247122 7.438398199773322 0 0 -1
474 1 23.03892914123848 6.64571275052361 8.72517894266258 0 2 0
915 1 19.593812051768392 8.387334285384128 5.1202455281770405 0 0 -1
15 1 23.823542751990153 9.111482247067261 5.495390455609238 -2 -1 -2
159 1 22.62697139566232 4.161196422860116 9.151505471212342 1 0 1
101 1 20.924532964186167 7.52623639961707 7.604690478648008 -1 0 0
1647 1 25.354579083723515 7.845408056246156 7.468127593099708 -1 1 1
499 1 24.294910194073434 5.402030185181757 7.109802618753433 -1 1 0
617 1 24.792481321250825 5.171296071809326 9.4835323638052 -2 1 0
703 1 26.936204827327217 4.746728162033518 8.522511026205343 -1 1 3
700 1 27.107248378886233 6.4244169382413885 6.742146138147376 1 0 3
1923 1 26.451001494239023 7.330081688435006 9.331821389175792 0 0 1
1462 1 28.204693307854424 8.462421894678357 7.5169296144862345 3 1 0
539 1 0.2632843036385033 8.471453879167838 10.070269749418072 1 -2 1
590 1 27.02216322955392 11.830973057337893 13.005129323791866 0 -1 2
1745 1 2.242905482780028 11.064996501107457 4.673870931496773 4 0 -1
1896 1 0.7639487098486899 12.630535004799958 5.741326317097697 0 4 2
543 1 1.7229118732473174 11.05011281086396 7.058048139408883 0 -1 1
27 1 1.7371355704265055 13.269879059580136 7.919590702019908 -2 -3 0
1861 1 0.33203958915049125 10.765301432278736 9.07539582884705 0 2 0
201 1 2.085882453224936 11.633529913241555 9.627295991404885 0 0 0
1760 1 5.937447921132237 9.792736399590327 7.685526553118756 2 -2 -1
817 1 5.01840524437884 11.18867357330115 5.679350666860386 0 1 0
840 1 3.8005664720920236 11.714471323761101 7.9384823228838295 -1 1 1
365 1 5.456937072324632 13.487032620233862 5.621853406706195 2 2 0
1791 1 7.121980837729153 11.734219399104047 6.643526099652124 1 -2 -2
1139 1 5.791847041585604 12.588139559164839 8.338068204996357 0 -2 2
315 1 8.088815657936044 11.759715784485328 8.956280081716214 1 -2 0
712 1 15.233440312550284 7.9281045929651475 13.617690823013739 -2 2 -2
728 1 14.344530400004476 12.197938805961622 13.691547836264988 1 -2 -1
1118 1 12.03566603709236 9.550722905289064 8.390251060337278 0 2 -1
119 1 9.127595519129756 11.409889770196967 5.451636285281745 1 0 0
1858 1 9.30657454856398 13.159323473390584 7.8472193466197915 1 0 1
535 1 10.611058113184093 13.337670354927264 5.942488207676544 -2 -2 0
290 1 9.36420952994923 10.396149437217307 7.397824264776091 2 -1 0
1927 1 11.08076192060193 11.7340705850911 8.031541312550491 0 0 1
1309 1 11.588346737153065 10.747420372684962 6.173963698957632 -1 0 -2
1405 1 10.062039512125299 12.352246952434665 9.773574364979073 1 0 -1
767 1 2.2767235828691836 13.6924676747213 3.8578706386284045 3 2 0
338 1 15.323318849096724 9.492626093874266 4.438306961631093 -1 0 0
319 1 12.969785415925687 12.682535254330464 6.5739420379121425 -1 1 0
1417 1 12.974514563812292 11.338937127863831 4.4516880816205875 0 2 0
1717 1 14.28117509749096 10.844943146201079 6.0260446777910825 -1 0 0
1826 1 13.400725009445075 11.954179933217832 8.882913149812905 0 1 0
1109 1 15.359160891330058 12.53222994809509 7.534693280601829 -1 2 1
430 1 14.864151471035642 9.875157078773038 8.276636452784084 -1 0 1
649 1 16.580300137328287 11.340350374247924 4.816514850687128 1 0 -1
248 1 15.02662556215585 9.886744769571873 0.28239432169431156 -1 -1 -3
1504 1 16.79443298888798 10.403055067453478 6.997904995782766 2 1 2
556 1 19.39188423553175 9.444726137527612 7.83611140284011 -1 0 1
699 1 18.65605951390298 10.329962254819176 5.790148234522053 0 -2 1
438 1 18.994032312705848 12.749321413716615 5.124061069015449 1 1 -1
1365 1 17.840680257678983 12.151725397772534 8.210626656900795 -1 2 0
1800 1 6.279417271389814 3.396045149030172 0.15517213160489618 -1 1 0
1438 1 19.7814681569734 11.905073033963006 7.484132693914376 -1 0 0
710 1 7.232611567435593 13.796883223428566 6.840934283743262 1 0 1
1447 1 17.522675692233484 9.816881417819497 9.224176773168907 0 2 0
1369 1 20.837594950702233 11.121923758368979 5.42363572690412 -1 1 -1
1964 1 23.13794554660631 8.899945032400048 7.906498679954364 -1 3 0
2022 1 21.48624580520163 9.125415541943646 6.277989112421447 1 3 1
1973 1 22.95391885783938 11.136480731340342 7.405044164006622 0 0 1
432 1 21.63597145717703 13.70059138056361 8.067457893755863 0 1 0
1580 1 21.22577133565862 10.125350475447172 8.533839641002078 -1 0 0
550 1 25.81429842750006 11.18136221315709 11.104045955628578 3 1 2
407 1 23.552635427498256 10.509440469202623 9.499264509547869 -2 2 -1
661 1 27.671503964932455 13.302285335923292 7.672935527126881 0 0 0
857 1 25.153289235531922 10.070209017169386 7.202592231040571 1 2 3
1539 1 25.43070894216291 10.173842603409948 4.251617533764312 -4 -3 1
1665 1 26.564449083214583 9.79286151753815 9.313383522468527 1 0 2
909 1 27.37525167050713 10.922482313302647 7.141164932209213 0 -1 1
691 1 27.493213656522673 10.952912759573671 4.9454660731897295 -3 3 1
953 1 27.15065899824528 13.6076840119404 5.290905392005185 0 0 3
1697 1 25.727047251480435 12.226403485199757 8.744337723886463 -1 1 -1
1895 1 25.5994625335088 12.055473582504549 6.101751007705628 0 -1 -1
2012 1 23.927766721787723 12.305329093288384 10.505652646015932 -3 0 1
1353 1 1.768761807291934 1.7506401615356546 10.71017110616331 1 1 0
1217 1 3.6738355568545025 0.4998228143689769 11.622625261377202 1 2 -1
229 1 1.7483236462291785 2.3923765116806592 13.075885085277182 1 0 1
284 1 3.1832980272684877 3.413746830226153 11.368897639146395 4 1 -1
959 1 4.628524566784507 2.1635568309696933 12.821385873268467 2 -1 -1
12 1 1.8094637013888668 5.129034953692014 10.57064513689242 1 2 1
63 1 6.390468294686764 2.214858935020844 8.994793779426177 1 -1 0
1019 1 3.9736586643213947 4.474524682658437 9.132900448631444 1 -1 0
1374 1 3.8490694811065693 2.161924000562838 9.430599418103165 2 -2 -1
378 1 6.881903995722309 2.9285842414221013 13.028277172516212 0 0 1
45 1 5.557651572725744 1.319796438639618 10.807280782303053 -1 1 0
85 1 5.530377967450432 3.4813208267400775 11.324347745522424 4 0 1
1669 1 20.740237592555765 11.495271547701389 13.927830709518501 -1 1 0
1307 1 5.233092483865598 4.795053690351413 13.293699725734227 0 0 1
162 1 27.45993112350213 0.08658577044513323 7.598534538408845 0 -2 0
1413 1 9.590627725795054 0.7082124417842428 10.391691155170731 -1 0 1
967 1 8.257999749186764 0.7254280505494374 12.484799846096008 0 1 1
965 1 8.03087102629596 2.437822059736083 10.772229410135097 2 1 0
1783 1 13.76856934115953 8.010457958653316 0.3829006185111912 0 2 2
308 1 10.0848512582759 2.3776247769560235 12.271014133478637 0 -1 -1
1112 1 12.049966369344293 1.1145145512364205 10.261256864213781 -1 -1 -2
660 1 9.156103764599132 4.296000751951485 12.875713445022965 -1 0 0
925 1 9.53412176272057 3.793071199689672 10.634961368882358 1 0 2
1164 1 20.97091503813768 7.718814683432321 14.128088438745172 -1 2 0
577 1 14.574299068256748 1.9535431965256145 13.281152180094544 2 1 1
16 1 16.60938927795086 1.5623361520171661 13.900987003008618 0 -2 0
2017 1 14.353272424128207 2.904956237105891 11.33943984694734 0 0 -1
678 1 12.327175907213336 2.162610662089118 12.553729223065549 -1 -2 1
295 1 16.5078265997055 4.2119586728683975 10.568015753106465 -1 0 0
1322 1 12.284293239345788 3.757576297255572 10.612621480521215 -1 1 0
1680 1 15.936459580407536 4.030587238339004 12.950665551076762 -1 0 2
791 1 8.085692438576174 12.494544352187601 14.000334595489157 1 0 1
1842 1 18.67834045602663 3.434261150795434 10.312785520353135 2 2 -1
838 1 16.81763817467578 0.34793274257990087 10.924489551103628 -2 -1 2
1541 1 17.423302322329473 2.38752059610645 12.080856067745282 0 1 1
1477 1 19.10176056665847 0.9703833682621531 11.236099353770161 2 3 0
1115 1 19.606840261939887 0.978124259395768 13.687969210120963 -2 0 2
1939 1 21.542592206742157 0.8500411315966725 11.608295213359535 1 0 2
1278 1 23.425583962140507 0.8138537299548788 10.295498991247511 1 2 0
1246 1 19.819756947644787 3.0944887384953637 12.012196475959133 2 3 1
611 1 23.614484505092545 2.097801989895996 12.72783341327517 -2 0 1
1197 1 23.96650483798328 4.010738308564534 11.5542583712312 0 0 -2
786 1 20.93124551241131 4.542014981541873 10.426554773329999 0 -2 -1
527 1 7.966861042287675 14.08578536170843 9.154138172800929 0 -2 1
1521 1 23.607821121959542 13.375712780600383 6.434393050530437 0 2 -1
763 1 21.62260441499411 2.3646931623008256 13.609397039040903 -1 2 -1
2026 1 26.594681118019164 3.7457668336026932 10.919498377681544 -2 3 2
1597 1 25.18852061345718 0.32449656013788847 13.481538531073795 1 1 0
1933 1 26.74151536263988 2.7472416777128257 13.370947297383093 0 1 0
1021 1 27.449794961021038 0.2111153857331112 13.194918626877943 -1 0 2
974 1 27.97334942650378 1.576695869422689 11.54544462543939 -1 1 0
1419 1 25.354861838962503 1.5949677921108785 11.28022771574058 -1 2 1
1726 1 0.9022186132636997 0.714128716797099 5.827061798316765 0 1 -1
1712 1 3.4510499636136847 7.612251712890192 13.565120796933451 -1 0 1
1264 1 4.0934977513788695 9.468997413931602 8.94623421866647 -1 0 -1
1233 1 2.016971126149392 7.3939093899381 10.468042682295287 -1 3 0
221 1 3.702684894565876 8.358141300812996 11.553266277695805 2 -3 -3
1738 1 1.2279075878832042 6.465561876081451 12.794900462791267 0 0 -1
882 1 2.607134824478467 4.801251703826806 13.26136850566584 0 0 2
228 1 0.3440079144211897 3.799151058474812 12.288437906593556 0 1 -1
1699 1 1.1376642730304891 8.882763549244475 12.245656811850118 -1 0 1
815 1 7.200583546211117 6.116997150954104 13.826694177726855 -1 1 1
1077 1 5.847048496163826 8.349549026203107 9.741082200962545 1 4 1
1691 1 7.7930212964210215 8.508811924521943 12.880414602408031 0 1 -2
1718 1 7.400610732137221 4.600041262587578 11.547779791564597 0 0 2
1734 1 3.937434073740274 5.823089851243424 11.770726080131075 2 3 1
1203 1 5.918892909539689 5.847069496702328 10.138560180303518 0 -1 0
809 1 5.683036075342439 9.446834405650533 12.434480233940613 0 0 1
1325 1 8.090792104758133 10.075337141343208 11.312704758078011 2 1 2
17 1 5.863152617432814 6.989866266830728 11.925396042866334 -1 1 -2
920 1 2.192431104373051 13.834807647302728 11.734518611949557 -1 0 5
508 1 11.505773399447074 4.413582251363257 12.587629557362783 2 0 0
1885 1 7.68778305381413 7.413916080372725 10.422099916894622 -2 1 0
1381 1 8.94724098867216 6.237424714388765 11.842629418977632 1 2 0
875 1 9.690941382236206 8.373780840793712 11.473007802496785 0 -2 0
1794 1 10.464627945800784 5.961671158020461 10.300875636477922 1 -2 1
1765 1 11.594395753409803 7.821318610276106 10.051230836883034 0 2 1
1802 1 17.381059611562286 0.6453795113589956 0.8319276448379065 -1 0 1
477 1 11.293855753971384 7.000004018731114 12.30917477439765 -1 1 1
1640 1 12.929295953875371 8.31148514877912 13.951878318776568 -2 1 1
2 1 13.355530800488623 6.3685144318611995 13.191864090380333 2 -1 -1
500 1 13.602457957122514 7.698562545188911 11.380603912289846 -1 0 -1
91 1 13.903956206933794 5.197565168219508 11.495064975760881 2 0 -2