LAMMPS data file via write_data, version 29 Oct 2020, timestep = 300000

2048 atoms
1 atom types

0.2000819878743556 28.151918012124476 xlo xhi
0.2000819878743556 28.151918012124476 ylo yhi
0.2000819878743556 28.151918012124476 zlo zhi

Masses

1 58.933

Atoms # atomic

1777 1 1.9543347264492503 2.405960145751641 2.40163854122226 -1 0 1
412 1 1.300608537685462 4.0767616465782455 4.0264656775976455 2 1 1
197 1 3.376400929333902 4.3173522122782995 2.7299046182525064 -2 1 -1
1049 1 0.6051918339307669 4.098818961552521 1.6890402742651738 1 0 0
1104 1 2.983880703584758 2.4760058827284452 4.639795639641163 2 2 2
595 1 3.9425308895175144 2.418864527530856 0.9651768808552953 0 -1 -1
526 1 26.730519734858966 10.255782900350003 14.01408080384331 2 0 0
751 1 24.49253409126007 0.42703155358444966 12.9892403139982 1 2 0
1534 1 4.606358484802568 2.4856816286554 3.390786938082793 1 1 2
812 1 6.929643108262453 2.8307334542703115 2.1130593981511065 0 3 4
1493 1 5.426199170045981 4.435194065020048 1.6270844183378945 -1 0 2
1169 1 8.195020456374428 0.982767504012413 2.3131966160808894 1 0 1
505 1 6.162265790343805 0.8280737710190447 4.2404742430758215 -1 2 2
852 1 7.148906214209984 2.9247662168810376 4.605860485001697 0 0 2
455 1 3.0761683711225873 14.163023119941071 3.089807856268313 -1 -1 4
1012 1 5.653908187261703 0.8370061853617994 1.870113043234754 1 1 2
1523 1 7.547906343399458 5.114650406017561 3.1843146178280217 0 2 1
715 1 9.103297380490144 2.946274225374565 0.8138825980665136 1 1 1
1123 1 10.521427665862433 1.248842189952382 2.839382813594111 0 3 0
1086 1 8.972739041522363 3.1217918202646735 3.2815429411072223 2 1 0
1300 1 11.385997287102766 3.353624373012772 3.346155434263679 0 0 -1
2014 1 8.934657768583273 1.4351446460915154 4.768177043543519 -1 0 -2
1956 1 11.227792322923401 3.2848809560794288 1.2110187800232541 0 0 1
1213 1 3.5942558026439957 0.5261572799449424 3.0347751002425793 4 -1 -2
1898 1 12.677155428984308 1.43929707920644 1.3750151001999218 0 0 1
370 1 13.355535362518472 3.5789994040277806 1.7189245916646778 -2 -1 -1
1845 1 15.12231281122642 2.0708756939582527 2.407463307419593 0 1 1
301 1 12.852952054949741 1.6569364392281505 3.796595186205908 0 -2 3
1660 1 13.520595625368282 4.015495540227076 3.9442048786689456 1 0 3
774 1 15.496207718517942 2.4107234693654194 4.858449133721166 0 0 -1
1650 1 15.423508941608189 4.279745977962051 2.8815015518385407 0 1 1
1163 1 7.390001442914354 4.758086978577999 0.6610540199808856 1 0 -1
1802 1 17.019373393485797 1.6871062042921172 1.1784278866807516 -1 0 1
1769 1 17.26249434736525 2.5358737227708916 3.3295215575217854 -1 -1 0
1628 1 17.553020059700785 3.982344340634948 1.7401051422438771 -2 1 1
924 1 19.359969823116145 2.6266550356209195 2.425382938779172 0 1 2
2032 1 18.939691210644582 1.2316680650717418 4.234353092961592 -1 0 1
417 1 19.861881664922723 3.058965468809383 4.651763214416244 0 2 -1
995 1 16.331871892555196 0.24746677017325425 3.0837538995116174 1 -1 2
1294 1 18.60586851373431 0.279101747568364 2.103791874017711 0 1 0
711 1 25.72651373560324 14.142277345240743 11.506332223473843 -2 -1 1
1735 1 23.142503719023757 1.1168032043052092 1.638651263818497 1 0 -1
1644 1 21.09026421657751 2.8661051726918627 0.9580158718437539 -2 1 -2
1856 1 21.089612523980264 0.8954837891854313 2.714768972949714 -2 -1 1
818 1 21.844773112901006 2.9641194682126013 3.2969546391061284 -2 -1 1
680 1 23.472938927668373 1.3334425597727235 3.8886012806589774 -1 -1 0
493 1 23.953323096698288 3.4039655532080793 1.838932322460482 -1 2 3
602 1 20.440573672440514 0.33802436373313416 0.5577798431095542 0 2 3
1923 1 24.342713764705273 3.4749903615662348 4.397806238673684 0 0 1
1217 1 27.93552176494127 2.198028426429256 3.537744589261322 0 2 -1
2019 1 27.4884119467346 1.624707700169756 1.2778041464619958 1 1 0
579 1 25.983340977986124 3.929931171098896 0.6056405914824343 -1 2 -2
1806 1 25.34309566908366 1.6059335161223072 2.468702785382186 -1 -1 0
822 1 26.116123334666153 3.767792200652171 3.1621488167331586 -1 -2 1
1031 1 17.626135565821897 14.16397318580423 0.6885113363791718 -1 0 2
1737 1 1.4597080463772483 6.128421302613903 2.0781156134411756 2 0 1
1546 1 2.700299103288936 8.009218662166116 2.670501092938301 1 -1 0
1392 1 4.072202553088833 6.289278226577389 1.0659516180398163 0 -2 1
1946 1 2.3485612321254434 6.271838110818533 4.234692254256035 1 0 3
1039 1 4.449435618497029 6.539903713830249 3.372863978811994 2 1 0
1859 1 0.5450007755309287 7.96413341016867 3.6400843164916106 2 1 1
1847 1 17.535855304607473 8.937116699243708 13.810467383121726 -1 0 0
997 1 5.579995158863469 4.731090101676651 4.301296479279967 -2 2 0
880 1 4.879359467404079 8.26234182605892 1.844936944600906 4 2 2
772 1 5.4241528760478 8.836333207747698 4.045632174894791 0 -3 3
1522 1 6.325405163308321 6.613216665338152 1.924113526200692 1 0 1
151 1 7.235211198883335 8.45112997209606 2.7162934712745397 -1 0 -1
1415 1 6.761582644174967 6.959352719552905 4.594373767200893 -1 -1 1
1091 1 9.854312011206288 4.910122687101958 2.0728747272806656 0 1 0
272 1 16.990842926870176 0.5655135875302364 5.398702340503743 0 -1 -2
1970 1 8.348061442005921 6.771835636523175 1.0186840054762927 2 1 2
520 1 8.989664071257309 7.027075825545004 3.399136289597273 -1 -1 0
37 1 10.515273215157498 7.126418645241924 1.9498788232475381 -2 1 -2
544 1 10.363306425563765 5.260319831115315 4.257781566528086 3 -2 1
586 1 9.107977993261944 8.79686079176574 1.2105416934935462 2 0 1
739 1 11.821430022240452 5.397197716891558 0.40553931733229254 -1 0 0
1098 1 9.751309099362537 9.337091806404544 3.5860627988620264 -1 1 1
838 1 10.984673956021183 7.394188821963868 4.367012764962104 -2 -1 2
84 1 11.86892635262092 9.284886256694106 2.393607779480892 0 -1 0
687 1 12.294383494466018 5.563451061262917 2.6772519010615645 -1 1 -1
939 1 14.398769078046989 5.949482579033394 1.5669224328901183 0 -2 1
1133 1 15.219383066026229 7.979220612796763 1.9460794906982066 -1 1 -1
1417 1 13.211621467217768 7.514459654298718 3.4634228487776157 0 2 0
2010 1 12.629821031469751 7.688518711078779 0.6217647546355729 2 2 1
1794 1 14.650678844767606 6.000218289016107 4.24974911271646 1 -2 1
1510 1 15.58617299586959 8.203431036233873 4.558207814527541 4 2 -2
216 1 18.00389198569113 4.850979631638389 3.8375117502417058 -2 -2 -1
292 1 16.293105360713515 6.1228534614231975 0.573509172926574 -1 1 1
719 1 17.292760701835906 8.13148319179231 1.053496025142688 1 2 2
474 1 16.58959434382723 6.399146458092219 2.774736803059134 0 2 0
1613 1 18.54818410765246 6.484521742624858 1.5831746234464434 1 1 3
758 1 17.61771599174251 8.422155097859642 3.409702854519341 -1 2 3
1705 1 19.138498720626124 7.063803815242012 4.087481856468687 -1 1 0
1807 1 19.418319116209982 8.884850220482072 2.116764063461839 0 1 3
1539 1 20.382700504286216 9.022810143307954 4.603298395110014 -4 -3 1
88 1 20.287530002193385 4.8797283014414825 2.9826680433552126 2 0 -1
1460 1 22.08757350816982 4.703255482228627 1.3169432360083586 0 -1 -1
700 1 22.728397983726794 5.333408067938619 3.6749615221602867 1 0 3
1883 1 21.05127491770705 7.183352248289452 2.926671457894983 -1 0 -1
1928 1 21.85782445862941 9.281591679798474 0.7733171585375614 -1 0 0
1804 1 23.009550459340876 7.071625825621596 1.8379225291268886 -1 0 1
227 1 23.960726676217984 7.6276837299510465 3.6404443697201265 -1 -1 0
1966 1 20.855365296263745 6.9592378116229066 0.7343860127769862 1 -2 0
438 1 22.45080900648178 9.288719090469447 2.9367805864199625 1 1 -1
101 1 20.863267453859052 4.85087314287637 5.064751132533444 -1 0 0
1185 1 24.376428896429147 9.320626780643734 1.7856211107782394 -1 0 0
603 1 0.244231859649652 7.933709020206201 1.3606157194742343 0 -3 -1
1685 1 27.602521755929136 5.672862699784671 3.444766865528731 1 1 1
943 1 24.802113355158422 5.518424094684036 2.3541068394421436 -1 2 1
365 1 25.999963685679358 7.699185140731911 2.749776393719873 1 2 0
1368 1 27.09914838732136 6.010841755800461 1.1483685918620632 -1 0 2
270 1 25.25615428491664 7.577846425289974 0.3564020875811229 2 -2 1
2022 1 26.443174742723667 9.730159868111178 0.5858770823847548 1 3 1
1324 1 25.56204409876535 5.776547049626893 4.883709732377061 -1 0 -4
899 1 27.559589666421886 13.956050124338535 7.9542789634750255 -3 -1 -1
970 1 13.331529708221055 0.357915131704986 10.50767149848668 0 -1 2
653 1 1.2827738839082967 9.925449384663436 2.267675157904316 -1 -1 -1
1159 1 0.4455900137640476 13.808334504999308 2.111552583294743 -3 1 0
847 1 3.7570535133843728 10.571040185365801 2.990601006693334 -1 -1 1
1305 1 2.2048466048732935 12.301503794182093 2.5145017396171983 1 -1 0
1367 1 3.2919527766922085 10.001891406072833 0.7835093573537644 1 1 0
1040 1 1.7843638673644768 10.195480685415045 4.261871139737207 2 1 1
1084 1 4.080708337105229 12.213507149223911 1.1649540286985665 0 -2 1
398 1 2.749057872782139 12.385047656184227 4.753953659207927 1 -2 3
1669 1 25.393723503782194 12.092828412150903 13.238913412225848 -1 1 0
1891 1 15.162152720943787 0.3677380498476741 6.8416940566329325 -3 -1 1
290 1 4.784327601389571 12.418450175581805 3.979214718682801 2 -1 0
1162 1 5.9675783220894445 10.346945405198525 1.7903599313418304 0 -3 1
1184 1 6.610026854729862 12.552786274084603 2.1091505488456326 -2 0 0
1311 1 6.428676362499965 10.84708875028976 4.170513635691557 1 -1 -1
507 1 7.052173903183917 13.046545862063677 4.538918384322646 1 1 -2
212 1 7.5855503791787555 10.773435124027085 0.32315947837549625 1 0 2
1764 1 8.050218884637694 10.81805468144485 2.7016131915655794 -1 2 -1
1775 1 8.916421720458757 12.68167086487536 0.7235979028175049 -1 0 1
450 1 8.937787409911934 13.097045635957425 3.081317525880581 -1 -1 0
1717 1 10.172331654898015 10.898426506301025 1.8216382710464665 -1 0 0
1309 1 11.16731461167845 13.20949986792719 1.8511012010608143 -1 0 -2
1097 1 10.654989343071321 11.416831132383974 3.982508614400007 2 1 1
168 1 11.632717565162206 13.733893905156812 4.022743399496814 0 0 2
1236 1 11.832052825504004 9.532141065864641 4.881721848980456 0 -1 -1
57 1 25.64463137863948 13.863126431993093 9.028833099165697 1 -1 -1
2043 1 11.971906873167805 11.230301171296416 0.3012074582747648 0 -2 0
1783 1 13.035108081709938 13.315544609827963 0.43964871807722095 0 2 2
299 1 13.624560011016 9.755334344346426 1.2006906016252927 -1 0 -2
1504 1 12.575426442883623 11.671615324457031 2.8344460677415757 2 1 2
428 1 14.659558044505362 12.059980640727165 1.7919279045980507 0 0 -1
1608 1 15.117767043334135 11.829929665209669 3.95077651040147 -2 0 -1
232 1 13.867468544004076 9.618298952330274 3.9409563758908206 1 2 0
1232 1 13.717246993147702 13.696272280540496 2.722100098015673 0 0 -1
590 1 23.447407788016463 13.926337765005627 12.279974536923394 0 -1 2
262 1 10.392667726233947 1.1291422653055445 0.4073834915766702 -2 -1 2
62 1 16.1383501207382 10.116110172971664 2.652919691832794 0 0 0
323 1 17.22773937207936 12.324313853250969 2.579171020625645 1 -2 0
1697 1 19.133766318476702 12.19347437657596 1.3501547239071203 -1 1 -1
355 1 18.50357632532605 10.39388462723165 3.823193257711424 0 1 -1
2008 1 17.847022099704365 10.384007467899265 1.2714945431427807 1 1 -1
727 1 19.519963294188987 12.46399790769339 3.664776783464674 1 0 3
808 1 1.7833989695292194 0.5852737252929003 4.219131496456084 0 1 2
1701 1 15.362749407117596 3.8448656202066336 0.5017765525906357 0 0 1
1379 1 20.74320661266597 11.03902011813153 2.5258741931061035 -1 1 0
1342 1 23.48756787181094 11.345720267545522 3.819130123972203 1 0 0
1369 1 21.844280241610402 12.85167478590558 3.079372463082121 -1 1 -1
814 1 23.81646701364966 13.191185846318211 1.8439314541902847 -2 1 -2
504 1 23.079314866531142 11.22123065763561 1.4186022062682095 0 1 1
1009 1 21.49114948669986 12.813627778772783 0.5473455488952133 1 2 0
99 1 25.152213827571078 9.600308227212967 4.35065716424543 0 1 -1
738 1 24.486161094992887 13.761397037960492 4.11335930947001 -1 -1 0
1545 1 28.133511261374377 11.772127153143531 3.9918489575039757 0 0 -1
1188 1 27.063742672618766 9.743853555100396 3.06060264956929 -4 1 -1
696 1 25.83527252167248 13.518645139337396 0.8594354346860424 -1 -2 1
1998 1 26.438377038326312 13.376675761258559 3.322951953928539 1 0 2
15 1 25.560636811829117 11.601920402333718 2.4141562053505288 -2 -1 -2
1357 1 27.568001527177287 11.771729686557252 1.3964287928367514 1 0 1
699 1 25.915487679110424 11.681425066234532 4.994638626957484 0 -2 1
423 1 27.127834257681084 0.7369341536857283 13.726665524287107 -1 -2 0
865 1 2.9892730447143365 2.529824261818034 7.080895040022076 -2 -1 1
1374 1 0.7887002784941338 2.386372483807065 8.110476071205198 2 -2 -1
188 1 1.2763247213436766 4.399743659776501 6.489934546563995 -2 1 -1
1057 1 1.7315023686597564 4.560285436441609 8.745588657167966 3 -1 0
652 1 3.6460581346214793 4.552883195898467 5.259420265119262 -2 -1 -1
877 1 2.56284912862995 0.5837844657199834 8.666767986324912 1 -2 -1
987 1 0.5020125189877152 2.0545745854061486 5.79780970992321 0 0 1
740 1 4.216590905657168 0.699415324555297 5.464362965819992 -1 -1 1
777 1 3.8638399021060406 4.6707029444537795 7.695247262337236 3 0 0
910 1 6.721406327561173 0.9507848223137547 6.516910182728746 0 1 2
1105 1 5.235764762332533 2.944553308898181 6.006341530550774 1 1 -3
1344 1 7.083555368708305 1.3543764337743123 8.82063062702674 0 -1 2
631 1 5.373798292951762 2.871067542781294 8.224941550959713 1 1 0
433 1 4.537896362278875 0.9491064089577521 7.64879880505898 1 -1 -2
1019 1 7.495549370777548 3.1776366270388023 7.229326845240919 1 -1 0
63 1 5.905911575294947 4.907785967042967 6.761310713030292 1 -1 0
1068 1 11.046795021630723 1.5102549959923675 5.326833452659618 2 2 -2
577 1 9.70048000799123 3.41957825139575 5.7884140080393545 2 1 1
1885 1 9.04338094966504 1.4096720369404958 7.016794633317433 -2 1 0
393 1 9.875641121888235 3.749392021236961 8.048879495369802 2 0 -1
1930 1 11.529909925731145 1.8320454817420728 7.474967683597551 -1 2 0
41 1 9.307140049167291 1.5873419735322616 9.192748040077856 -1 0 0
485 1 11.958451014083066 3.746583737562835 5.533481814200388 -1 0 -1
1391 1 12.46390643265502 3.8909088386172757 7.6443238489420064 0 2 -1
1571 1 13.687297447568291 2.1226701543392776 5.949120033163794 -2 0 2
1073 1 14.36947623519036 4.27501155066774 6.243737985092602 -2 1 1
1002 1 13.88321030008117 2.2065515953556907 8.298088491644506 -2 0 0
470 1 14.753417097034697 4.35900972016249 8.528961210311834 -2 -1 0
2009 1 15.238018170144786 0.5437927654557233 9.11758394269231 -1 1 3
1266 1 15.887489098566652 2.5767137861041913 6.956136205464105 -2 1 -1
1805 1 27.505232130448356 12.954787186896933 12.174696119412225 -2 0 -1
185 1 16.195579500625136 4.620938997663095 4.9365078567134075 2 -1 0
127 1 17.622368645050692 0.9241466484285502 7.839553965428058 -2 0 0
1767 1 17.835941846749716 2.7141569661654197 5.753813086940868 -1 1 1
945 1 18.14471922360879 3.1209817573146013 8.14130717309702 2 1 0
431 1 19.60215587554952 1.282297119623965 6.454250307559207 2 -2 2
816 1 16.387072824742013 2.715896254557625 9.362262038355583 2 -1 0
100 1 16.71635782156028 4.652568118624189 7.332312373405031 0 1 1
1013 1 18.534178504601954 4.930742703854832 5.904557455684242 2 1 2
1251 1 19.69387743775612 1.238602446845866 8.961041232640344 -2 -1 -3
1583 1 20.095124317710045 3.5230454315913295 7.095776026766026 -2 0 1
571 1 21.630823503486607 1.167511754332207 5.352083921921465 0 2 1
59 1 22.274712214204214 3.3051575911559827 5.5346988674302215 -2 -1 0
539 1 21.64849835585796 1.7581681249613177 7.826894765272217 0 -2 1
405 1 22.84505014683723 3.9127463507427063 7.969447762301717 -3 1 1
1842 1 20.90542858695189 3.5927137798558877 9.25395599935371 2 2 -1
1647 1 23.792769829504437 1.7702354819249702 6.461373502379897 -1 1 1
743 1 25.914656970869267 1.6602274478228012 5.034541733460014 1 2 1
186 1 24.370666721689684 2.047923162248975 8.513611953897295 0 4 0
1741 1 27.286952174066407 4.37468640348023 7.7148519583503345 1 1 0
356 1 26.936180563023893 3.758486209613015 5.328237252397657 -3 0 0
269 1 26.44230090946954 1.772052171886496 7.245116558154085 -2 0 0
532 1 25.214798784809005 3.8015681225273403 6.843147462426122 -1 -1 0
228 1 25.150029249048323 4.247582001692093 9.076874713201267 -1 1 -1
882 1 26.736649903474284 2.1530913814143555 9.62591816905113 -1 0 2
550 1 26.853151448511685 11.956637843998397 9.693969065611917 3 1 2
1602 1 3.2783958541227944 8.39852892452608 4.8463861056479995 0 -2 -2
1043 1 3.35785519824659 8.612813284569523 7.261809704511594 1 -1 1
1813 1 2.4180952007720347 6.435056032666296 6.608497909684235 0 0 2
140 1 1.2426242909702574 8.284093939960517 5.723114245370591 2 1 0
222 1 1.4170228494812696 8.50075643105719 8.243975862446332 0 1 -1
229 1 0.35605299197178697 6.540489512673814 7.926265601601137 1 0 1
1154 1 27.910752637299613 6.014548100796847 5.652035452776066 -3 1 0
1734 1 2.652479546876769 6.677837018957433 8.943159512866634 2 3 1
1489 1 7.774512386185049 9.11675877174523 4.984814261795567 0 -1 0
1442 1 4.5868852797832185 6.841816778766984 5.639747932173536 3 0 0
1738 1 4.683441331251055 6.9513947356831665 8.316843853821005 0 0 -1
713 1 6.958201904884703 7.175695230249554 6.871125761308856 0 -1 0
705 1 5.587806753382277 8.93965155701269 6.284479644069183 -2 2 -1
24 1 5.929351389545541 8.74224167819596 8.68317449011975 -1 -1 2
1779 1 6.281703030185661 5.15885327908033 9.071638637509439 4 2 1
1372 1 8.064062174169237 5.012169930629338 5.308399935786589 1 1 1
1038 1 8.05379884788574 9.238331947313636 7.537788395760006 1 0 2
580 1 7.498948498393524 7.100742173030121 9.142482402799258 -1 0 -1
221 1 8.264598241851248 5.401888090693247 7.827343614511316 2 -3 -3
1865 1 8.938518463937458 6.990996175023974 5.746131749998029 -1 0 1
1612 1 10.482548589107555 5.555092862380309 6.578297818285926 -1 0 0
1986 1 11.68726811165121 7.703189768270091 6.852747326368138 -2 1 0
2038 1 9.761110353220321 7.479441915998497 8.134164593179104 0 0 1
925 1 11.17781775484008 5.586731552516968 8.869023454418246 1 0 2
31 1 9.919912647039293 9.193698630527035 6.015092202543703 0 0 0
1329 1 10.575422872790703 9.564865509599002 8.625870024561655 1 2 -1
1150 1 12.002944812438615 7.885858358804179 9.308568908900106 2 0 1
311 1 12.823926856488647 5.682443067633248 5.486698570732959 2 0 0
291 1 13.664718199252434 8.02006939575914 5.520517805921436 0 -1 1
302 1 13.169856725494087 5.976184453830167 7.71755955629756 1 1 0
1905 1 15.15757663903551 6.207227226672042 6.440275656620226 -1 0 2
1765 1 14.018811728485586 8.044238715468046 7.934662696683693 0 2 1
2012 1 15.77851653070977 6.553901802565266 9.06529415821085 -3 0 1
651 1 16.127308163274414 8.635572396047014 6.80439960050807 -1 -1 1
1271 1 19.126313640818744 5.353527424929214 8.297813009052467 -3 1 1
996 1 17.14513852469449 6.631390406818935 5.173611714335217 -1 0 -1
1941 1 18.16765015715401 8.677892125517104 5.83146345014003 0 1 1
775 1 17.648123343401167 7.169618819363881 7.761759216793491 0 -1 1
1274 1 18.59683615777046 9.141178812114743 8.003957687194717 0 3 -1
1450 1 19.533145072930147 6.906374946037864 6.183423007417933 0 0 0
338 1 16.61028203404248 8.764596217076464 9.328359450786106 -1 0 0
310 1 20.06941771176012 7.324936553028386 8.52870221297812 -1 0 0
1919 1 22.20164899845581 7.401687707142249 5.002692632357397 1 0 2
1918 1 21.075257294705104 5.733103741500353 7.057189574379019 1 -1 1
737 1 22.255628390029397 7.343800836288553 7.418908039535352 0 -1 2
801 1 23.44354894611875 5.5191831174565165 6.060083178141666 -2 0 0
1861 1 23.82706155902441 6.031057558355546 8.325320165403514 -1 2 0
332 1 20.72044618713265 8.943314814471382 6.814092981626298 -2 1 1
1459 1 22.784602125829267 9.474914237937558 5.3628245911063415 -1 2 -3
984 1 23.115462610485356 9.454159629585526 7.754001149067078 -1 1 1
1474 1 21.21365325338689 9.02471261092807 9.051765698021713 -2 2 -1
988 1 24.604127965756884 7.540251188955838 6.173450573595623 -2 0 2
1894 1 26.533734523249837 8.060633771037425 4.958573148986124 -2 2 2
1090 1 26.933465029260834 8.142596410654166 7.449025992730432 1 2 -1
1456 1 26.011107950716852 6.027126578342827 7.0879611561987765 -2 2 1
857 1 24.945277400587564 8.062738242380734 8.526882175119747 1 2 3
1288 1 26.551018915044118 6.269658229142315 9.427882899591173 -3 0 1
817 1 2.1600235976530455 10.510622661890938 6.51872047437367 0 1 0
1237 1 2.873542354481213 12.605499955025415 7.094879717613717 0 0 2
293 1 0.9177100257496511 12.310228684741535 8.356928969338032 2 1 1
710 1 2.56918370242832 10.343525942440026 8.870385976339012 1 0 1
1858 1 4.325096905375684 10.391729207904126 5.314778210773724 1 0 1
442 1 0.5210867128713412 12.087086858208098 6.148523519445054 -1 0 0
1619 1 16.463615333688157 12.148617664856129 0.3635568234700719 0 2 1
218 1 4.578932678557957 10.614097238206297 7.922742829437998 1 -1 1
1139 1 5.15506250486661 12.485503688966846 6.103279702581567 0 -2 2
1088 1 5.569123581155031 13.104521032540143 8.305701721480963 0 2 1
662 1 7.676423761183329 12.903937426017084 6.841858587190428 0 -3 -1
1581 1 6.508021704574904 10.89050699735073 6.80870134307874 0 1 1
1360 1 6.847180630379324 11.284488013089318 9.036655913790792 2 -2 0
1429 1 7.78052187645524 13.076841695191522 9.232201705077026 1 1 1
119 1 8.650943995555638 11.27658213493114 5.241960531159247 1 0 0
1268 1 9.736466987663936 13.2724727436339 5.663629343543325 -1 1 3
1110 1 9.071747630280276 11.194089776143901 7.689701178226661 -1 0 2
588 1 10.865783209870754 11.277532679886095 6.340952115990324 1 -1 0
500 1 11.679562089583253 11.944914095356186 8.598481452788848 -1 0 -1
1532 1 9.869027850373227 13.39335401438272 7.97964703950914 -2 3 -1
1826 1 11.99196257659357 13.602244469994856 6.647516675191778 0 1 0
1192 1 12.923823604168911 11.7976681798768 5.384152019736591 0 -1 -1
627 1 12.559040274043337 9.883242760867272 7.26315553066886 1 -2 0
1835 1 14.55747824165275 10.14435615170673 6.120953445254687 -4 0 -1
1148 1 15.757340828345702 12.6158819442635 6.359021381960466 3 1 1
1798 1 13.894439975056374 12.205884321846424 7.598153415153352 2 0 0
1487 1 15.244973981723913 10.319536944090464 8.47395524901951 0 1 -1
424 1 16.02044376799797 12.682700257789625 8.716704586653076 2 -2 1
786 1 21.808833921470317 4.143587422832079 14.02891082367371 0 -2 -1
527 1 14.083356468100623 13.883184044691086 5.191290772109019 0 -2 1
881 1 17.6434065311496 12.320254538758507 4.909938475079089 -1 -2 3
1936 1 16.357487042310193 10.197603625198559 4.967699579244586 1 5 -1
1147 1 19.228204748417042 10.675753081727395 6.225192254597079 -2 2 2
1640 1 17.08234288503931 10.968562345794401 7.1612152800093885 -2 1 1
325 1 18.159898309725293 12.858339238624827 7.259368193941693 0 -2 0
1216 1 19.925541160009352 11.15260371983433 8.71051730333061 -1 -1 1
372 1 18.479459714041397 13.194141254265674 9.662537975962561 -3 -1 2
1799 1 20.212111685161652 12.598370514422905 5.95252461284131 -1 1 1
1871 1 21.22269554041529 11.153321483477539 4.746560138311065 -2 -1 -1
324 1 22.509660278779034 13.188491191394565 5.366765946810222 1 0 -1
1109 1 22.75654879824596 13.46304004418418 7.844860571511433 -1 2 1
1463 1 21.81971208309016 11.259946916757416 7.11419564582516 0 -1 -1
1438 1 23.999638635523358 11.422008315487785 6.355164697056896 -1 0 0
1820 1 20.462456981980267 13.378846994445283 8.541234370905677 2 0 0
1543 1 26.470485904315137 10.58051707579527 11.603406601480565 -2 2 2
1521 1 27.669253982938645 9.989949472634107 5.59064031146169 0 2 -1
66 1 25.90744832564793 10.102122083528801 9.18788246309216 0 0 -1
859 1 0.246901770800946 10.257114268578999 7.774710695914329 -1 0 0
1879 1 25.335372231335615 9.718271230895384 6.725313114039327 1 1 0
548 1 24.238875129138396 11.763206890265609 8.401895248906195 -2 1 1
407 1 26.463741615245294 11.779337622980291 7.511375931652208 -2 2 -1
472 1 24.796175669982652 13.620790443453348 6.627816180883183 -1 0 1
891 1 26.854375928319435 13.699491062404784 5.740376555397528 1 1 -1
923 1 3.1478224834058284 2.8412470602442874 9.632071445522369 1 -1 0
1218 1 0.6337260078287956 0.8998893312986603 10.216567693220894 1 2 0
723 1 2.8442894216946724 1.3763391215427052 11.242572322460246 0 0 -2
429 1 1.109758555354261 3.074795777406217 10.660368087869209 0 -2 -2
1566 1 0.9172858607049982 0.9245744289022475 12.414334284421905 -1 1 0
534 1 1.7412097245533562 2.8623689519506215 13.5383820836688 -1 0 0
1203 1 3.4957050369456297 3.414948660254812 11.890349136689249 0 -1 0
1423 1 3.543931347078812 1.1401855790335662 13.475919221900384 -1 1 1
1497 1 2.3910526250429145 4.9838244740600235 11.173811271005786 1 2 -1
1712 1 2.7787332156454014 5.034686107968668 13.793126126063836 -1 0 1
12 1 8.00165967263877 3.4822135252390103 9.62746483587187 1 2 1
1446 1 7.467747824540462 1.6392557146958764 11.111356345295597 0 2 -1
959 1 4.728698879741249 1.2066959739737302 9.976299451794963 2 -1 -1
1884 1 5.355042111565104 1.489994643416014 12.080337641131257 2 0 -1
714 1 5.512237601436099 3.3313059840228236 10.697159575444612 -1 0 3
1381 1 6.346750271035756 3.371637263216265 13.08035471073812 1 2 0
965 1 7.9333851878537756 1.5784209420803932 13.301488385722783 2 1 0
686 1 4.175340419721977 5.031882525342988 10.045838591651906 3 2 -1
1664 1 12.004514001465443 2.1275309490416987 9.661390198173148 0 0 1
1448 1 10.934192463916853 3.9795371811011244 12.578546991281732 2 2 -1
1691 1 10.249394639134055 1.8091669253985185 13.663186021370402 0 1 -2
47 1 8.596080914853287 3.5761432656623535 11.950018523874709 1 1 0
1569 1 10.356445055192445 3.9737036923731535 10.412244084185794 -2 -1 0
1350 1 10.107274918549408 1.7240685445879707 11.323471265269802 -1 1 -2
1239 1 21.422875811502603 13.614063771818564 13.209951543933048 1 0 -3
271 1 2.352796131136576 14.032560136606545 0.7448987205929638 0 0 3
955 1 12.468693245251588 2.228227440488546 12.129109109721517 0 -3 1
1298 1 12.930320272867537 14.155007901923977 11.121209495088127 1 -1 1
835 1 14.278979337036292 2.4733250187699842 10.735657761457249 -1 3 1
1279 1 12.944180238489496 4.105865577116843 10.101092677477602 -1 -1 1
1541 1 15.000840064437098 2.5586674165212777 13.018617347716607 0 1 1
1291 1 13.363624421272174 4.423500960424556 12.336909600693147 -1 -1 1
1548 1 15.487275886054553 0.33722035556425156 11.589376953516624 3 -1 2
1551 1 15.119977177290709 4.747391424642985 10.77833439721012 1 1 -1
1560 1 1.6220539476166307 11.648953011482893 0.20933912414041342 -1 0 2
677 1 19.017042440597784 3.5553848608399488 12.75501252443092 -1 0 0
1833 1 17.55675631935803 1.0327216053754626 10.406908122702683 2 2 -1
1293 1 18.758484326514974 3.173716392768739 10.29217668534194 1 -1 -1
1158 1 18.270759015683122 1.3493637336193602 12.305009601875923 -1 4 0
1825 1 16.72937626074053 2.9244401937469875 11.747524150553838 -1 1 0
352 1 17.337167157870812 4.791637755360761 9.681876527133014 2 -1 -1
629 1 21.888207478895936 9.673860279807684 11.620887408146261 1 1 2
1430 1 17.416121538048806 5.1433065833099745 11.990601712776455 1 -4 0
981 1 19.748050567858762 4.6377553212084095 0.45007261728973236 2 1 -2
797 1 20.731693305456616 1.7456986288648502 13.713072378175871 2 1 -1
871 1 20.358616030460233 1.518666925019788 11.17417449873708 -1 -1 1
1665 1 22.41370575899272 1.7431826810161495 9.953088191518072 1 0 2
1246 1 22.873766393828323 1.8024663423586575 12.18089572685299 2 3 1
617 1 21.237398520213937 3.6030334069890477 11.705442259286691 -2 1 0
703 1 23.226769162183345 4.006408058088741 10.246800768496408 -1 1 3
805 1 23.665995182629725 4.241073920390878 12.818390341080534 -2 0 -1
1960 1 11.133870768505366 13.976685979378432 12.839746819427797 1 -1 0
1699 1 24.88584772118956 11.90194898533402 10.79720464062611 -2 0 1
284 1 0.2366402598999344 4.278438056414946 12.585445016589553 4 1 -1
79 1 27.499120108712756 4.36103772061948 10.022442878028732 -1 1 2
334 1 26.9644006430912 2.5925966540003023 11.738575047092471 -2 2 0
693 1 25.654060777003732 4.353984127553576 11.570924958109355 -2 1 -1
1812 1 24.722626752761304 2.3276821503988256 10.967742896763003 0 2 0
1061 1 25.582824950391785 2.3181488027319275 13.433229843847094 -2 -1 0
1934 1 26.009121038540748 4.5294965664894065 14.025425222347394 1 0 0
1071 1 2.620951183098495 4.331987231833926 0.703616940511209 0 -1 -2
928 1 2.0810948384749475 8.740483597151492 13.341318657382114 2 3 -1
543 1 0.7692869737280197 6.408903041285459 10.30688864784029 0 -1 1
1718 1 1.3049580836042078 6.556400575616466 12.734186713326839 0 0 2
962 1 1.7755723226722273 8.771216847929443 10.729035095828248 0 0 1
1363 1 3.3767056568514993 6.979292263598198 11.530830666089575 3 -1 -2
953 1 3.9643159571135316 8.519512274508 9.939659387589304 1 0 3
815 1 7.3292791074782615 5.443182400141443 13.419890966527868 -1 1 1
1773 1 4.782734149652257 5.426739291320406 12.50547411242064 -1 0 1
2047 1 6.8318060412507124 5.238728877117127 11.205431999174744 3 1 -2
1596 1 5.595341557579353 6.826122793912357 10.50634380445748 1 0 -3
538 1 5.872229355956573 7.343141735171642 12.729671954759862 0 -2 2
1219 1 4.190868919890777 9.171585876406162 12.324904366557371 0 2 -2
691 1 6.1644345011065536 9.04413424565273 10.88853094041178 -2 3 1
768 1 7.981839735049306 7.728430147511821 11.708492904890722 0 0 1
501 1 6.724018507849741 9.51067651298156 13.284739602875588 -2 1 1
876 1 8.457250772418096 7.713567598917415 14.08784106287801 1 0 2
508 1 8.792644680418409 5.593098646181729 10.124162948779082 2 0 0
511 1 9.420036382992787 5.799008642896187 12.125428891093462 -1 -1 -2
51 1 9.849952996770563 7.510073688275157 10.454947663549232 0 0 0
2017 1 11.501670789181512 5.921108416063714 11.197566041943023 0 0 -1
1994 1 10.428393713788504 7.621085031252426 12.80746177292457 0 2 1
2039 1 8.334789900063122 9.46551197027018 9.873194407870573 3 2 2
1771 1 13.677058519605424 0.36430031553631514 13.012979959346666 -1 3 1
1405 1 11.821252661121711 6.142344440444989 13.516264377756938 1 0 -1
1197 1 15.474840146299336 4.756369321809188 13.325982574242923 0 0 -2
907 1 13.729485031111615 6.30777660603776 10.08625161284488 -1 0 0
1400 1 12.457626765947156 8.271767817958748 11.904296465902783 2 1 -1
1230 1 14.444405519159558 8.59657189138036 10.494601810084486 2 0 -1
649 1 15.114327105317305 8.510580936907466 12.871689122262376 1 0 -1
1272 1 14.063082215509382 6.505671239432293 12.86865994234595 0 -1 -4