LAMMPS (29 Oct 2020)
OMP_NUM_THREADS environment is not set. Defaulting to 1 thread. (src/comm.cpp:94)
  using 1 OpenMP thread(s) per MPI task
package omp 0
using multi-threaded neighbor list subroutines
package omp 2
set 2 OpenMP thread(s) per MPI task
using multi-threaded neighbor list subroutines
# units metal
# dimension 3
# boundary p p p

# lattice fcc 3.5440
# region box block 0 8 0 8 0 8 units lattice
# create_box 1 box
# create_atoms 1 box

read_restart after_heating_press_200000_3100.lmp
Reading restart file ...
  restart file = 29 Oct 2020, LAMMPS = 29 Oct 2020
  restoring atom style atomic from restart
  orthogonal box = (-0.22431562 -0.22431562 -0.22431562) to (28.576316 28.576316 28.576316)
  1 by 2 by 2 MPI processor grid
  pair style eam/alloy/omp stores no restart info
  2048 atoms
  read_restart CPU = 0.008 seconds
# read_restart after_cooling_press_200000_2800.lmp

variable P equal 200000
variable dt equal 0.001
variable loopVar loop 6
variable sys_press equal "press/10000"

# variable sim string "heating"
variable sim string "cooling"



pair_style eam/alloy
pair_coeff * * Co_Zhou04.eam.alloy Co
Reading eam/alloy potential file Co_Zhou04.eam.alloy with DATE: 2018-03-30




neighbor 2 bin
neigh_modify every 10 check yes

thermo 1000
thermo_style custom step temp vol press ke pe density

timestep $(dt)
timestep 0.0010000000000000000208



# velocity all create 2600 123123

print """
yo aagadi
"""

yo aagadi

label ensemble

print """
Label pachadi solti, hos garam.
"""

Label pachadi solti, hos garam.

variable T equal 2100-${loopVar}*100
variable T equal 2100-1*100
# variable T equal 2850


reset_timestep 0
fix 1 all npt temp $T $T $(dt*100) iso $P $P $(dt*1000)
fix 1 all npt temp 2000 $T $(dt*100) iso $P $P $(dt*1000)
fix 1 all npt temp 2000 2000 $(dt*100) iso $P $P $(dt*1000)
fix 1 all npt temp 2000 2000 0.10000000000000000555 iso $P $P $(dt*1000)
fix 1 all npt temp 2000 2000 0.10000000000000000555 iso 200000 $P $(dt*1000)
fix 1 all npt temp 2000 2000 0.10000000000000000555 iso 200000 200000 $(dt*1000)
fix 1 all npt temp 2000 2000 0.10000000000000000555 iso 200000 200000 1
Resetting global fix info from restart file:
  fix style: npt/omp, fix ID: 1
print """
<--------------------------------------------------------------------->
<------------------ Equilibrating at temperature $T ----------------->
<--------------------------------------------------------------------->
"""

<--------------------------------------------------------------------->
<------------------ Equilibrating at temperature 2000 ----------------->
<--------------------------------------------------------------------->

fix temp all print 1000 "$(step) $(temp) $(press) ${sys_press} $(vol) $(ke) $(pe) $(density)" file temp_${sim}.txt screen no title  "step temp press pressGiga vol ke pe density"
fix temp all print 1000 "$(step) $(temp) $(press) ${sys_press} $(vol) $(ke) $(pe) $(density)" file temp_cooling.txt screen no title  "step temp press pressGiga vol ke pe density"
run 250000
All restart file global fix info was re-assigned
Last active /omp style is pair_style eam/alloy/omp
Neighbor list info ...
  update every 10 steps, delay 10 steps, check yes
  max neighbors/atom: 2000, page size: 100000
  master list distance cutoff = 7.6035394
  ghost atom cutoff = 7.6035394
  binsize = 3.8017697, bins = 8 8 8
  1 neighbor lists, perpetual/occasional/extra = 1 0 0
  (1) pair eam/alloy/omp, perpetual
      attributes: half, newton on, omp
      pair build: half/bin/atomonly/newton/omp
      stencil: half/bin/3d/newton
      bin: standard
Per MPI rank memory allocation (min/avg/max) = 4.321 | 4.322 | 4.322 Mbytes
Step Temp Volume Press KinEng PotEng Density 
       0    3013.5954    23889.443    195884.41    797.38382   -7865.1749    8.3894124 
    1000    2076.7589    22756.079    203040.39     549.5011   -8189.9666    8.8072462 
    2000    1959.3214    22774.697    199974.59    518.42765   -8188.2035    8.8000461 
    3000    1997.0479    22842.928    196760.36    528.40993   -8177.8382    8.7737609 
    4000    1986.3285    22782.462    200146.54    525.57361   -8182.2683    8.7970468 
    5000    2008.6401    22742.861    206553.27    531.47717    -8172.045    8.8123649 
    6000    2011.2938     22837.35    199626.11    532.17933   -8171.0179    8.7759036 
    7000    2013.6639    22858.116    191608.45    532.80644    -8202.213    8.7679311 
    8000    2031.1032    22733.344    206076.26     537.4208   -8177.0934    8.8160539 
    9000      1978.13    22790.269    200401.18    523.40434   -8186.8324    8.7940334 
   10000    2051.0239    22890.542    191322.61    542.69174   -8196.4363    8.7555108 
   11000    2002.5293    22739.715    207056.03    529.86028   -8174.9794     8.813584 
   12000    2015.7418    22756.003    205762.57    533.35624     -8172.36    8.8072755 
   13000    2025.8313    22816.789    196540.04    536.02588   -8193.3402    8.7838122 
   14000    1954.9998    22776.243    202106.38    517.28419   -8181.1548    8.7994487 
   15000    2003.5658    22770.406    203108.05    530.13453   -8179.9579    8.8017045 
   16000    1960.0848    22799.913    199947.48    518.62965   -8180.1945    8.7903136 
   17000     2028.747    22802.881    197208.86    536.79736   -8196.3042    8.7891694 
   18000    2053.8071    22772.678    206920.62    543.42814   -8161.7436    8.8008265 
   19000    1995.0329    22817.829    196263.64    527.87677   -8191.8008    8.7834118 
   20000    2015.7906    22804.089    196159.24    533.36914   -8201.4378    8.7887038 
   21000    2039.0673    22762.521    204156.88    539.52807   -8180.7476    8.8047535 
   22000     1968.309    22852.634    190242.96    520.80574    -8209.915    8.7700343 
   23000    2007.4614    22820.072    196947.99    531.16529   -8189.4952    8.7825484 
   24000    1937.2246     22727.74    203175.68    512.58095   -8194.2885    8.8182278 
   25000    2005.6129    22855.041    195882.49    530.67619    -8187.105    8.7691109 
   26000    2003.9632    22781.672    198687.42    530.23968   -8197.0549    8.7973519 
   27000    2063.6632    22722.293    206177.88    546.03602    -8187.295    8.8203416 
   28000    1905.9767     22801.92     198615.9    504.31289   -8177.6565      8.78954 
   29000    1984.6417     22819.56    198455.83     525.1273   -8180.7617    8.7827456 
   30000      2010.03    22819.131    201196.44    531.84494   -8169.0359    8.7829107 
   31000    2002.5865    22769.597    205246.34     529.8754   -8167.8387    8.8020174 
   32000    1939.4556    22819.951    193760.77    513.17125   -8201.7838    8.7825951 
   33000    2056.3731    22727.769    200473.97    544.10711   -8211.1398    8.8182165 
   34000    2026.4476    22650.732    211389.33    536.18896   -8189.0212    8.8482079 
   35000    1971.0478    22879.721    190452.72    521.53041   -8195.7136    8.7596518 
   36000    1987.4649     22798.56     200452.2    525.87429    -8179.824    8.7908352 
   37000     2053.084    22795.744    198859.41    543.23683   -8194.5099    8.7919214 
   38000    2006.2896    22788.753    202529.24    530.85523   -8173.3759    8.7946183 
   39000    1969.9542    22863.223    192801.62    521.24106   -8191.8155    8.7659726 
   40000    2042.8486    22804.236    199659.94    540.52858   -8183.1613    8.7886472 
   41000    2072.9875    22650.315    217487.61    548.50319   -8160.7485    8.8483708 
   42000     1941.129    22801.632    196478.55    513.61404   -8193.0864    8.7896509 
   43000     2022.755    22802.362    197065.89     535.2119    -8194.699    8.7893695 
   44000    2016.6351    22768.023    204134.51    533.59262   -8173.6093    8.8026258 
   45000    2001.1402    22805.495    199703.91    529.49273   -8179.8779     8.788162 
   46000    1982.9407    22852.407    192369.25    524.67723   -8199.4036    8.7701216 
   47000    2032.3672    22744.919    204890.84    537.75526   -8181.0441    8.8115673 
   48000    1992.2334    22745.479    201596.67    527.13603   -8196.1931    8.8113504 
   49000      2023.33    22857.418    194471.73    535.36404   -8191.6624    8.7681989 
   50000    2074.3001    22730.518     204230.8     548.8505   -8192.0508    8.8171501 
   51000    1968.7798    22808.754    199299.64     520.9303   -8176.3893    8.7869064 
   52000    2020.8626    22822.219    195964.47    534.71118   -8197.7898    8.7817223 
   53000    2017.5586     22828.28    198819.76    533.83695   -8180.8131    8.7793906 
   54000    1995.8504    22726.414    206072.13    528.09306   -8178.9694    8.8187421 
   55000     2005.039    22838.436    200269.87    530.52433   -8165.5403    8.7754867 
   56000     1975.554    22837.656    194275.38    522.72273   -8195.6538    8.7757862 
   57000    2061.7801     22764.41    200858.65    545.53778   -8194.3475    8.8040228 
   58000    2006.4715    22761.999    202068.23    530.90335   -8184.4139    8.8049554 
   59000    1946.3773    22856.928    192398.72     515.0027   -8195.9676    8.7683867 
   60000     1999.621    22772.976    203189.86    529.09075   -8175.3711    8.8007113 
   61000    1995.4166    22679.679     206348.3    527.97829   -8194.7089    8.8369144 
   62000    1940.7765    22813.185    198337.31    513.52076   -8185.0184    8.7851996 
   63000    2035.8428    22769.106    203319.53    538.67487   -8185.7666     8.802207 
   64000    1963.0407    22730.383    207558.51    519.41178    -8170.298    8.8172022 
   65000    2045.4122    22858.161    193056.16    541.20691   -8194.5807    8.7679138 
   66000    2029.7973    22764.293    200076.71    537.07527   -8198.1244    8.8040682 
   67000    1969.0536    22732.846    207576.22    521.00275    -8173.197     8.816247 
   68000    1960.4912    22851.485    192893.28    518.73719   -8193.4326    8.7704754 
   69000    2045.8887    22788.529    198519.68    541.33298   -8195.1841    8.7947047 
   70000    1959.2999    22720.484    203898.17    518.42198   -8186.5644    8.8210438 
   71000    2048.8898    22786.048    198320.95    542.12707   -8198.1071    8.7956626 
   72000    1956.2176    22745.759    201665.92    517.60641   -8195.0891     8.811242 
   73000     2004.243    22760.226    202392.16    530.31372   -8182.6784    8.8056414 
   74000    2004.5635     22783.37    199033.32    530.39851   -8193.2313    8.7966965 
   75000    2077.7555    22785.305    200754.88     549.7648   -8188.1076    8.7959493 
   76000    2061.8267    22750.107     204394.4     545.5501   -8183.9576    8.8095578 
   77000    1980.8766    22880.581    189016.74    524.13106   -8205.7388    8.7593223 
   78000    2040.4992     22799.39    200688.88    539.90694   -8181.3144    8.7905151 
   79000    1957.4671    22721.622    204981.36    517.93703   -8183.4757     8.820602 
   80000    2003.8258    22761.521    199657.33    530.20332   -8196.7861    8.8051402 
   81000     1927.483    22875.911    189840.16    510.00336   -8204.1072    8.7611105 
   82000    2030.7425    22719.706    205831.93    537.32536   -8185.0672     8.821346 
   83000    1951.7888    22756.864    204029.04    516.43455   -8177.2434    8.8069422 
   84000    2048.3255    22815.822    198644.26    541.97774   -8187.0815    8.7841845 
   85000    1987.4504     22751.62    202399.84    525.87047   -8187.1441    8.8089722 
   86000    2074.6495    22843.542    193843.74    548.94296   -8198.3187     8.773525 
   87000    2073.0091    22762.238    204038.14    548.50893   -8179.5705    8.8048629 
   88000    1989.1436    22821.565    196915.19    526.31848   -8187.4332    8.7819738 
   89000    2014.6154    22837.331    195829.28    533.05821   -8183.0274    8.7759111 
   90000    2034.6778    22713.297    210621.26    538.36661   -8167.6767     8.823835 
   91000    2036.6453    22859.844    193375.97     538.8872   -8194.6575    8.7672685 
   92000    1986.7617    22776.441    197807.47    525.68825   -8199.8179    8.7993726 
   93000    2020.7636    22793.525    199364.34    534.68499   -8188.5654    8.7927773 
   94000    1998.1919    22847.804    194414.19    528.71262   -8195.4056    8.7718885 
   95000    1962.6784    22717.119    202240.58    519.31592   -8198.6609    8.8223506 
   96000    2087.1795    22769.604    201375.08    552.25835   -8193.2045    8.8020146 
   97000    2003.5907    22871.575    193362.73    530.14111    -8193.969    8.7627715 
   98000    2007.0175    22748.498    208348.52    531.04782   -8163.0004    8.8101811 
   99000    1988.9646    22729.842    202705.83    526.27113   -8196.5713    8.8174122 
  100000    1956.3689    22882.415    193457.74    517.64644   -8184.2135    8.7586205 
  101000    2061.1881    22762.182    203486.04    545.38114    -8185.713    8.8048847 
  102000    2026.9071    22832.294    194947.51    536.31053    -8196.297     8.777847 
  103000    2027.8754    22850.263    195380.73    536.56674   -8186.7508    8.7709443 
  104000    1993.1988    22758.183    202047.79    527.39148   -8187.5775    8.8064318 
  105000    2064.2095    22775.019    199783.46    546.18057   -8196.7814    8.7999217 
  106000     2018.029    22767.915     200130.7    533.96143    -8190.824    8.8026677 
  107000    1941.0585    22737.317    204763.16    513.59537   -8179.3538    8.8145134 
  108000    1992.9649    22784.414    201372.92    527.32957   -8179.9886    8.7962931 
  109000    2048.6743    22757.473    201747.78    542.07005   -8192.7214    8.8067067 
  110000    2000.6382     22808.16     200621.4     529.3599   -8173.0708    8.7871353 
  111000    1923.4839    22907.666    188279.56    508.94521   -8192.6612    8.7489659 
  112000    2004.8876    22764.472       203438    530.48427   -8179.8852    8.8039989 
  113000    1978.8615    22790.711    199637.91    523.59789   -8186.5719    8.7938628 
  114000    1994.4731    22802.757    200951.37    527.72864   -8177.6353    8.7892172 
  115000    1986.5355    22763.891    197437.99    525.62838    -8206.917    8.8042235 
  116000    1991.6537    22756.438    200476.34    526.98265   -8198.4431     8.807107 
  117000    1971.6903    22697.315    212300.07     521.7004   -8162.1813    8.8300483 
  118000    1986.8821    22901.017    192798.21    525.72009   -8177.1077    8.7515058 
  119000    2007.6167    22824.509    194554.24    531.20638   -8195.5027     8.780841 
  120000    2021.7868    22765.754    203162.47    534.95572   -8183.0463     8.803503 
  121000    2019.0311    22810.812    196220.32    534.22657   -8199.7999    8.7861138 
  122000    2027.3125    22815.782    196200.58    536.41781   -8194.0098    8.7841997 
  123000    1942.4847    22706.425     203953.8    513.97274    -8195.476    8.8265056 
  124000    1974.0909    22665.889     210107.1    522.33559   -8183.1041    8.8422909 
  125000    1962.1934     22853.52    194976.32    519.18758   -8185.1781    8.7696943 
  126000    2000.2359    22841.202    192800.74    529.25344   -8198.8617    8.7744239 
  127000    2086.6054    22771.039    200838.39    552.10644   -8197.8612    8.8014601 
  128000    2011.0431    22822.035    200025.54    532.11298   -8174.0751    8.7817931 
  129000    2008.6115     22832.68    195170.17    531.46961    -8196.278    8.7776988 
  130000    1999.5983     22794.62    195739.69    529.08473   -8205.5192    8.7923547 
  131000    2039.2505     22713.13    208231.16    539.57655   -8174.9003    8.8238998 
  132000    1975.1399    22820.105    197354.27    522.61316   -8183.0726    8.7825358 
  133000    1959.4847    22821.798    193681.16    518.47087   -8202.0692     8.781884 
  134000    1970.2405    22806.143    200036.36    521.31682   -8172.8623    8.7879123 
  135000     1996.558    22757.388    199351.18    528.28029   -8200.8299    8.8067395 
  136000    1946.3338    22892.839     193131.4    514.99119   -8179.8436    8.7546322 
  137000    1994.6769    22742.164    204380.64    527.78257   -8181.8554    8.8126347 
  138000    2005.4353    22735.335    207728.65    530.62919   -8170.3631     8.815282 
  139000    1975.9845        22854     193295.9    522.83664   -8194.9346    8.7695101 
  140000     1977.872    22810.778    197314.58    523.33606   -8190.1316    8.7861269 
  141000    2076.5387    22767.765    202802.44    549.44284   -8182.2453    8.8027255 
  142000    2018.8808    22761.256    199253.96    534.18681   -8201.6042    8.8052427 
  143000    2011.9886    22773.165    198858.87    532.36316    -8196.455    8.8006384 
  144000    1951.4486    22848.953    191350.84    516.34454   -8202.7519    8.7714474 
  145000    2059.8386    22714.905     208473.7    545.02406   -8178.1677    8.8232103 
  146000    1886.0757    22734.763    202516.68    499.04719   -8189.3305    8.8155037 
  147000    1964.4997    22869.986    195979.86     519.7978   -8175.8572    8.7633805 
  148000    2051.2932    22753.253    201841.54    542.76297   -8191.5771    8.8083401 
  149000    2042.8954    22748.466    204987.93    540.54097   -8181.5194    8.8101933 
  150000    2067.2272    22911.336    190507.48    546.97904    -8187.327    8.7475645 
  151000    2027.3621     22780.54    203881.88    536.43091   -8171.2456    8.7977892 
  152000    1940.7764    22765.843     203959.2    513.52073   -8173.7453    8.8034686 
  153000    2038.5593     22846.42    196871.15    539.39365   -8180.2421    8.7724197 
  154000    1985.7278    22744.236    201658.94    525.41467   -8194.6463     8.811832 
  155000    1976.5671    22789.709    201043.29    522.99079    -8175.343    8.7942493 
  156000    1937.9664    22757.036     202471.9    512.77721   -8187.4242    8.8068757 
  157000    2033.3089    22891.651    189881.16    538.00443   -8197.2848    8.7550866 
  158000    2016.3058    22722.282     208891.1    533.50548    -8169.353    8.8203457 
  159000    2002.3467    22813.316    197827.99    529.81195   -8186.1544    8.7851492 
  160000    2016.7818    22815.739    195079.02    533.63142   -8200.8347    8.7842162 
  161000    2007.1083    22817.527    199566.97    531.07186   -8176.4039    8.7835281 
  162000    1996.4162     22714.76    205281.41    528.24276   -8189.6971    8.8232667 
  163000    2060.4531    22842.025     198955.1    545.18666   -8174.2178    8.7741076 
  164000    1942.4718    22870.141    192515.42    513.96934   -8189.5993    8.7633212 
  165000    2038.6967    22748.361    201223.02    539.43001   -8198.8315    8.8102343 
  166000    2012.2621    22777.425    204238.23    532.43552   -8171.0625    8.7989922 
  167000     1979.483     22784.86    201324.58    523.76234   -8186.4893     8.796121 
  168000    2026.1826     22744.12    203514.51    536.11882   -8188.7988    8.8118771 
  169000    1982.1373    22861.396    192042.01    524.46464   -8194.7576    8.7666732 
  170000     1988.321    22835.482    194788.93    526.10082   -8192.7271    8.7766218 
  171000     2022.066    22765.007    205182.96     535.0296     -8170.64     8.803792 
  172000    2014.8283    22782.977    197644.92    533.11453   -8197.2741     8.796848 
  173000    1961.7789    22766.569    198391.26    519.07791    -8202.698     8.803188 
  174000    2063.1798    22772.449    200704.48    545.90814   -8190.9071     8.800915 
  175000    1972.4687     22860.18    193431.56    521.90638   -8186.7706    8.7671395 
  176000    2024.6569    22764.268    203824.12    535.71513   -8178.0888    8.8040776 
  177000    2048.9602    22720.294    208015.79    542.14569   -8179.6494    8.8211176 
  178000    2038.1937    22838.087    194843.62    539.29693   -8197.3965    8.7756205 
  179000    2037.1146    22772.092    200714.97     539.0114   -8192.4827    8.8010529 
  180000    1968.6068    22752.036    200710.25    520.88453   -8196.7224    8.8088109 
  181000    2030.9164    22776.719    200574.94    537.37137   -8190.2219    8.7992649 
  182000    2046.7589    22803.434    198015.61    541.56323   -8189.9763    8.7889562 
  183000    1968.6005    22901.931    189791.92    520.88286   -8193.4242    8.7511566 
  184000    1994.0525    22797.749    199918.47    527.61735   -8183.0586    8.7911482 
  185000    1971.4814    22767.342    201793.88    521.64514   -8184.1062    8.8028892 
  186000    2029.4848    22761.967    199899.24    536.99258   -8199.7355    8.8049679 
  187000     2019.884    22802.303    197622.48    534.45224   -8194.6795    8.7893923 
  188000    1966.2277    22857.399    192343.31    520.25504   -8195.1661     8.768206 
  189000    1990.3102    22702.589    209502.02    526.62715   -8174.9507     8.827997 
  190000    2008.8489      22780.8     199658.5    531.53241   -8192.2617    8.7976886 
  191000    1993.1928     22813.23    195645.31    527.38989   -8198.2285    8.7851826 
  192000    1977.5392    22717.096    207608.68    523.24801   -8174.7478    8.8223593 
  193000    1965.1998    22846.422    191123.06    519.98306   -8207.2972    8.7724191 
  194000    2035.9707    22818.483    195910.81    538.70871   -8199.8505    8.7831598 
  195000     1980.154    22687.115    209250.07    523.93988   -8178.4594    8.8340184 
  196000    2051.3442     22844.11     197472.6    542.77649   -8183.3414    8.7733067 
  197000    1979.3038    22747.236    205820.49    523.71492   -8174.9375      8.81067 
  198000    1986.3299    22784.495    197781.68    525.57398   -8198.0654    8.7962621 
  199000    1995.5817    22859.449    192374.37    528.02197   -8197.1386    8.7674197 
  200000    1980.4135    22726.574    208000.73    524.00852   -8167.6404    8.8186799 
  201000    1967.8615    22716.075    210079.19    520.68733   -8165.4286    8.8227562 
  202000    1984.7638    22846.626    191796.48    525.15961    -8201.894    8.7723408 
  203000    2025.4122    22804.833    199086.16      535.915   -8187.0984     8.788417 
  204000    1978.1979    22775.359    201957.63    523.42229   -8180.4085    8.7997903 
  205000    2000.3609    22808.726    199398.81    529.28653   -8182.2877    8.7869174 
  206000    1961.7781    22840.566    196235.43    519.07768   -8181.5555    8.7746681 
  207000    2000.3276    22754.046    202517.33    529.27772   -8189.8405    8.8080328 
  208000    1967.2275    22705.084    206203.89    520.51958   -8184.7078    8.8270267 
  209000      1965.54    22784.632    196981.72    520.07306   -8199.7862     8.796209 
  210000     1948.721     22810.72    192408.23    515.62284   -8214.1103    8.7861493 
  211000    1998.3851    22777.138    203913.81    528.76374   -8168.4956    8.7991033 
  212000    1983.6431    22762.326    202886.15    524.86307   -8180.3926    8.8048289 
  213000    2002.7612    22876.525    194926.83    529.92164   -8177.6444    8.7608754 
  214000    2038.0676    22763.485    202862.28    539.26355   -8186.8878    8.8043807 
  215000    1938.5134     22744.09    202787.88    512.92194   -8182.1949    8.8118886 
  216000    1979.9701    22845.476    196691.94    523.89122   -8182.2915    8.7727821 
  217000    1953.3374    22682.285    213803.75    516.84432   -8157.4995    8.8358993 
  218000    2007.3124    22834.197    194560.78    531.12585   -8196.2323    8.7771155 
  219000    1970.3491    22738.323    202969.82    521.34554   -8190.7771    8.8141235 
  220000    2006.9975    22793.494    198916.81    531.04255   -8191.8684    8.7927892 
  221000    2004.0616    22806.509    199976.04    530.26571   -8175.8575    8.7877714 
  222000    1913.1745    22784.832     201254.7     506.2174   -8175.8075     8.796132 
  223000    2068.8102    22731.586     204967.1     547.3979   -8186.7432    8.8167359 
  224000    1988.5245    22855.503     193139.3    526.15466   -8197.4215    8.7689335 
  225000    1980.6455    22772.394       201546    524.06993   -8182.5472    8.8009364 
  226000     2051.999    22717.243     202820.7    542.94975   -8200.3022    8.8223023 
  227000    1988.8023    22890.037    193760.27    526.22817   -8179.4106     8.755704 
  228000    1980.8901    22819.946    198448.67    524.13463   -8179.4978    8.7825968 
  229000    1960.1473    22797.592    194423.82     518.6462   -8207.4303    8.7912085 
  230000    1998.0118    22641.553    215842.35    528.66497    -8168.192     8.851795 
  231000    2033.2214    22798.953    198441.49    537.98127    -8193.826    8.7906838 
  232000    1961.0755    22832.954    197189.86    518.89179   -8182.4362    8.7775935 
  233000    2042.2865    22801.922    202716.03    540.37985   -8169.2444    8.7895393 
  234000    1982.6089    22745.251    204610.57    524.58942    -8176.854    8.8114386 
  235000    1910.7438    22745.622    203777.22    505.57425   -8176.2913    8.8112949 
  236000    2016.7431    22798.087    198993.05     533.6212   -8192.0447    8.7910175 
  237000    2005.2549    22732.519    204403.43    530.58146   -8182.6455    8.8163739 
  238000    1948.9744    22831.041    194717.76    515.68989    -8192.094    8.7783287 
  239000    2011.5271    22725.595    206557.87    532.24107   -8179.1495      8.81906 
  240000    1980.6285    22758.552    205110.37    524.06542   -8169.5905     8.806289 
  241000    1993.9754    22836.053     196106.8    527.59696   -8186.4036    8.7764023 
  242000    2002.6684    22809.925    199811.13    529.89709   -8178.4669    8.7864554 
  243000    2022.3206    22751.712    206662.77    535.09697   -8172.6043    8.8089365 
  244000    1991.6822    22847.087    194539.72    526.99019   -8189.2534    8.7721637 
  245000    1971.1663    22815.632    198719.77    521.56178   -8178.6519    8.7842575 
  246000    2036.3477    22760.744    203187.51    538.80846   -8187.3758    8.8054408 
  247000    2001.8425      22755.9    200252.91    529.67854   -8197.8235    8.8073153 
  248000    1969.9372    22906.962    187594.45    521.23654   -8202.7062    8.7492345 
  249000    1998.9332    22729.717    205977.61    528.90876   -8184.7986    8.8174608 
  250000    2031.7008    22795.324    203549.19    537.57893   -8169.4784    8.7920831 
Loop time of 494.54 on 8 procs for 250000 steps with 2048 atoms

Performance: 43.677 ns/day, 0.549 hours/ns, 505.521 timesteps/s
122.4% CPU use with 4 MPI tasks x 2 OpenMP threads

MPI task timing breakdown:
Section |  min time  |  avg time  |  max time  |%varavg| %total
---------------------------------------------------------------
Pair    | 287.11     | 293.19     | 297.85     |  23.2 | 59.29
Neigh   | 3.978      | 3.9998     | 4.0248     |   0.8 |  0.81
Comm    | 20.332     | 25.152     | 31.31      |  80.4 |  5.09
Output  | 0.0060581  | 0.011667   | 0.013541   |   3.0 |  0.00
Modify  | 171.17     | 171.32     | 171.44     |   0.9 | 34.64
Other   |            | 0.8633     |            |       |  0.17

Nlocal:        512.000 ave         520 max         506 min
Histogram: 1 1 0 0 0 1 0 0 0 1
Nghost:        2874.75 ave        2889 max        2867 min
Histogram: 2 0 0 1 0 0 0 0 0 1
Neighs:        41851.5 ave       43024 max       39645 min
Histogram: 1 0 0 0 0 0 1 0 0 2

Total # of neighbors = 167406
Ave neighs/atom = 81.741211
Neighbor list builds = 4347
Dangerous builds = 0


# fix 132 all momentum 100 linear 1 1 1 angular
fix out_file_1 all print 1000 "$(step) $(temp) $(press) ${sys_press} $(vol) $(ke) $(pe) $(density)" file one_phase_${sim}_press_$P_$T_.txt screen no title  "step temp press pressGiga vol ke pe density"
fix out_file_1 all print 1000 "$(step) $(temp) $(press) ${sys_press} $(vol) $(ke) $(pe) $(density)" file one_phase_cooling_press_$P_$T_.txt screen no title  "step temp press pressGiga vol ke pe density"
fix out_file_1 all print 1000 "$(step) $(temp) $(press) ${sys_press} $(vol) $(ke) $(pe) $(density)" file one_phase_cooling_press_200000_$T_.txt screen no title  "step temp press pressGiga vol ke pe density"
fix out_file_1 all print 1000 "$(step) $(temp) $(press) ${sys_press} $(vol) $(ke) $(pe) $(density)" file one_phase_cooling_press_200000_2000_.txt screen no title  "step temp press pressGiga vol ke pe density"

# dump 3 all custom 1000 traj_npt_new.lammpstrj id type x y z
run 50000
Last active /omp style is pair_style eam/alloy/omp
Per MPI rank memory allocation (min/avg/max) = 4.322 | 4.323 | 4.323 Mbytes
Step Temp Volume Press KinEng PotEng Density 
  250000    2031.7008    22795.324    203549.19    537.57893   -8169.4784    8.7920831 
  251000    2039.9775    22825.917     194998.6     539.7689   -8196.0551    8.7802995 
  252000    1989.0884    22833.965    192032.91    526.30388    -8204.901    8.7772049 
  253000    2064.2413    22668.433    209967.11    546.18899   -8187.6533    8.8412985 
  254000    2015.6566    22827.598    195064.82     533.3337   -8195.0097    8.7796531 
  255000    1946.3428    22768.279    200977.46    514.99359   -8188.7367    8.8025268 
  256000    1990.1614    22747.851    205492.07    526.58777   -8176.6053    8.8104318 
  257000    1936.9088    22833.148    193764.27    512.49739   -8196.4296    8.7775188 
  258000    1994.8243     22812.58    191824.91    527.82157   -8218.1134    8.7854326 
  259000    1986.0779    22695.993    206005.77    525.50731   -8193.1521    8.8305626 
  260000    2048.4138    22741.075    201264.34    542.00112   -8203.0359    8.8130569 
  261000    2024.5261    22834.645    196047.42    535.68053   -8192.1879    8.7769436 
  262000    1865.7293    22775.006    199604.21    493.66362   -8186.6987    8.7999268 
  263000    1935.3013    22805.978    202510.48    512.07205   -8165.3513     8.787976 
  264000    1982.6084    22656.418    214284.64    524.58929   -8169.2058    8.8459875 
  265000    1999.7561    22833.903    194469.57     529.1265   -8197.8848    8.7772285 
  266000    2049.9234      22830.3    196300.27    542.40055   -8191.5489    8.7786136 
  267000    1997.0676    22695.094    206017.31    528.41514   -8192.3798    8.8309123 
  268000    2034.2346    22826.549     195014.7    538.24935   -8196.8724    8.7800563 
  269000    1968.2649     22872.39    193494.25    520.79406   -8186.9946    8.7624591 
  270000     1984.318    22642.738    213464.33    525.04164   -8175.0382    8.8513319 
  271000    2008.3038    22774.757    200030.25    531.38819   -8192.5097    8.8000232 
  272000    2059.8804    22789.696    201266.85    545.03512   -8183.2075    8.7942545 
  273000    2003.3033    22838.335     196058.5    530.06507   -8189.5165    8.7755255 
  274000    1988.2127    22878.791    193738.61    526.07217   -8184.6042    8.7600077 
  275000    2071.4699    22721.571    206576.35    548.10164   -8183.8469     8.820622 
  276000    1971.6446    22796.427    194455.62    521.68833   -8205.4545     8.791658 
  277000     2055.046    22852.748    193367.86    543.75595   -8197.7516    8.7699906 
  278000    2044.7331    22750.335    201720.34    541.02721   -8194.7031    8.8094698 
  279000    2027.6121    22861.109    194257.93    536.49708   -8186.0302     8.766783 
  280000    2021.7676    22753.395    200221.04    534.95065   -8200.6121     8.808285 
  281000    2003.5633    22749.399    201309.61    530.13386   -8194.6893    8.8098323 
  282000    1985.1232    22919.606    190049.74    525.25469    -8179.546    8.7444081 
  283000    1945.5774    22701.762    207360.47    514.79106   -8180.5392    8.8283184 
  284000    2005.6459    22807.862    202847.74    530.68491   -8166.7252    8.7872501 
  285000    1974.5511    22764.544    202398.46    522.45737   -8182.0213    8.8039709 
  286000    1982.5263    22738.289     201731.4    524.56757   -8194.0393    8.8141365 
  287000    2024.7036    22767.725    201469.59     535.7275   -8187.3735     8.802741 
  288000    2024.5689    22828.041    195369.83    535.69186   -8193.1343    8.7794825 
  289000    2033.3931    22965.664    184342.07    538.02671   -8194.8453    8.7268711 
  290000    1950.4148    22692.023    206841.21      516.071   -8189.7748    8.8321075 
  291000    2046.2328    22893.006    190118.73    541.42403    -8199.795    8.7545683 
  292000    2014.6039    22848.305    199635.07    533.05515   -8165.1644    8.7716961 
  293000    1987.7459    22696.094    206259.95    525.94864   -8192.2041    8.8305231 
  294000    2057.0787      22811.5    197943.62    544.29379   -8196.3433    8.7858486 
  295000    1996.9862    22807.713    197543.97    528.39359   -8188.8201    8.7873074 
  296000    1938.3116    22712.917     206906.6    512.86857   -8180.8129    8.8239827 
  297000    2057.7806    22817.132    201568.01    544.47953    -8171.832    8.7836799 
  298000    1985.7782    22918.918    185025.08    525.42802   -8207.3979    8.7446703 
  299000    2016.8125    22749.024    199639.86    533.63955   -8202.8671    8.8099775 
  300000    2119.5916    22727.062    203161.69    560.83443   -8203.0892    8.8184906 
Loop time of 101.153 on 8 procs for 50000 steps with 2048 atoms

Performance: 42.707 ns/day, 0.562 hours/ns, 494.299 timesteps/s
121.4% CPU use with 4 MPI tasks x 2 OpenMP threads

MPI task timing breakdown:
Section |  min time  |  avg time  |  max time  |%varavg| %total
---------------------------------------------------------------
Pair    | 58.971     | 59.876     | 60.798     |   8.7 | 59.19
Neigh   | 0.81888    | 0.82335    | 0.82714    |   0.3 |  0.81
Comm    | 3.9977     | 4.9453     | 5.8598     |  30.4 |  4.89
Output  | 0.0012705  | 0.0018659  | 0.0020693  |   0.8 |  0.00
Modify  | 35.287     | 35.328     | 35.356     |   0.5 | 34.93
Other   |            | 0.1785     |            |       |  0.18

Nlocal:        512.000 ave         517 max         510 min
Histogram: 2 1 0 0 0 0 0 0 0 1
Nghost:        2863.25 ave        2871 max        2852 min
Histogram: 1 0 0 0 0 1 0 0 1 1
Neighs:        42001.2 ave       43747 max       40192 min
Histogram: 1 0 0 1 0 0 1 0 0 1

Total # of neighbors = 168005
Ave neighs/atom = 82.033691
Neighbor list builds = 871
Dangerous builds = 0

unfix temp
unfix out_file_1


write_data after_${sim}_press_$P_$T.in
write_data after_cooling_press_$P_$T.in
write_data after_cooling_press_200000_$T.in
write_data after_cooling_press_200000_2000.in
System init for write_data ...
Last active /omp style is pair_style eam/alloy/omp
write_restart after_${sim}_press_$P_$T.lmp
write_restart after_cooling_press_$P_$T.lmp
write_restart after_cooling_press_200000_$T.lmp
write_restart after_cooling_press_200000_2000.lmp
System init for write_restart ...
Last active /omp style is pair_style eam/alloy/omp

next loopVar
jump in.lmp ensemble

print """
Label pachadi solti, hos garam.
"""

Label pachadi solti, hos garam.

variable T equal 2100-${loopVar}*100
variable T equal 2100-2*100
# variable T equal 2850


reset_timestep 0
fix 1 all npt temp $T $T $(dt*100) iso $P $P $(dt*1000)
fix 1 all npt temp 1900 $T $(dt*100) iso $P $P $(dt*1000)
fix 1 all npt temp 1900 1900 $(dt*100) iso $P $P $(dt*1000)
fix 1 all npt temp 1900 1900 0.10000000000000000555 iso $P $P $(dt*1000)
fix 1 all npt temp 1900 1900 0.10000000000000000555 iso 200000 $P $(dt*1000)
fix 1 all npt temp 1900 1900 0.10000000000000000555 iso 200000 200000 $(dt*1000)
fix 1 all npt temp 1900 1900 0.10000000000000000555 iso 200000 200000 1
print """
<--------------------------------------------------------------------->
<------------------ Equilibrating at temperature $T ----------------->
<--------------------------------------------------------------------->
"""

<--------------------------------------------------------------------->
<------------------ Equilibrating at temperature 1900 ----------------->
<--------------------------------------------------------------------->

fix temp all print 1000 "$(step) $(temp) $(press) ${sys_press} $(vol) $(ke) $(pe) $(density)" file temp_${sim}.txt screen no title  "step temp press pressGiga vol ke pe density"
fix temp all print 1000 "$(step) $(temp) $(press) ${sys_press} $(vol) $(ke) $(pe) $(density)" file temp_cooling.txt screen no title  "step temp press pressGiga vol ke pe density"
run 250000
Last active /omp style is pair_style eam/alloy/omp
Per MPI rank memory allocation (min/avg/max) = 4.322 | 4.323 | 4.323 Mbytes
Step Temp Volume Press KinEng PotEng Density 
       0    2119.5916    22727.062    203161.69    560.83443   -8203.0892    8.8184906 
    1000    1914.1044    22690.332     201044.1    506.46343   -8215.9637    8.8327658 
    2000    1824.0438    22773.301    194362.14    482.63381   -8209.1585    8.8005857 
    3000    1930.5792     22653.19    204518.86    510.82259    -8212.489     8.847248 
    4000    1922.0217    22669.527    206598.89    508.55832   -8196.7811    8.8408719 
    5000    1904.4254    22732.023    199541.42    503.90243   -8206.8043    8.8165662 
    6000    1894.6142    22768.714    193451.87    501.30643   -8221.1709    8.8023587 
    7000    1923.6753    22702.795    194496.81    508.99587    -8243.296    8.8279169 
    8000     1969.237    22606.055     203278.9    521.05127   -8238.7268    8.8656948 
    9000    1860.8247    22654.876    197756.23    492.36588   -8238.7313    8.8465893 
   10000    1902.2556    22799.532    189212.26    503.32831   -8226.4489    8.7904604 
   11000    1856.0049    22628.258    204851.26    491.09058   -8214.9828    8.8569958 
   12000    1885.4029    22623.477    204445.53    498.86915    -8224.087    8.8588674 
   13000    1874.1124    22691.079    200147.08    495.88174   -8217.0755    8.8324751 
   14000    1882.0825    22772.252    191081.13     497.9906   -8228.6344     8.800991 
   15000    1962.7203    22721.182    199722.19    519.32699    -8214.865    8.8207727 
   16000    1899.5402    22610.227    206171.73    502.60981   -8220.6003     8.864059 
   17000    1865.3533    22592.074    205895.71    493.56412   -8225.2399    8.8711812 
   18000    1922.7523    22724.386    194990.47    508.75165   -8230.0601    8.8195292 
   19000    1914.1148    22736.657    194769.92     506.4662   -8228.1109    8.8147694 
   20000    1943.6389    22706.457    199929.51    514.27814   -8216.4683    8.8264933 
   21000    1883.5653    22608.767    204030.98    498.38293   -8229.8723    8.8646314 
   22000    1954.2454    22725.554    195259.85    517.08458   -8229.3381    8.8190761 
   23000    1876.9582    22668.368    200547.14    496.63474   -8225.3958    8.8413242 
   24000    1907.8473    22609.663    205627.21    504.80783    -8223.872    8.8642802 
   25000    1978.2796    22765.171    195080.92     523.4439   -8218.7282    8.8037284 
   26000    1936.9774    22829.609    187799.56    512.51554   -8228.1567    8.7788796 
   27000    1934.9988    22715.657    201531.94      511.992   -8204.6244    8.8229182 
   28000    1849.5193    22673.039    202577.42     489.3745   -8209.2036    8.8395027 
   29000    1947.3829    22655.746    202009.39    515.26879   -8223.7265    8.8462496 
   30000    1852.8425    22737.211       195318    490.25381   -8220.5547    8.8145546 
   31000    1912.9044    22770.881    190390.87    506.14593   -8230.4243    8.8015208 
   32000    1965.8753    22659.192    203212.72    520.16179   -8219.9611    8.8449046 
   33000    1890.9038    22623.139    204313.32    500.32468   -8219.0109    8.8589998 
   34000    1913.5505    22652.524    202530.92    506.31688   -8222.1826    8.8475079 
   35000    1922.1236    22735.828    199687.68    508.58529   -8204.9886    8.8150906 
   36000    1882.8241    22656.579    201897.69    498.18683   -8225.0411    8.8459243 
   37000    1900.3534    22781.598    192569.33    502.82499   -8221.8403    8.7973806 
   38000    1901.1786    22754.202    193523.74    503.04333   -8219.8317    8.8079724 
   39000    1875.5783    22673.355    202635.12    496.26962   -8212.5044    8.8393796 
   40000    1951.0418    22609.347    207569.28    516.23692   -8214.8819     8.864404 
   41000    1921.7986    22723.674    196945.43     508.4993   -8222.6819    8.8198057 
   42000    1942.8506    22740.347    193590.21    514.06956   -8230.9722     8.813339 
   43000    1915.6361    22756.044    193531.26    506.86872   -8227.1111    8.8072597 
   44000    1873.5992    22685.127    201377.48    495.74594   -8213.6142    8.8347922 
   45000    1977.9405     22671.12    202739.47    523.35418   -8220.9886    8.8402508 
   46000      1937.56    22727.282    197628.68     512.6697   -8221.9972    8.8184056 
   47000    1900.3391    22802.004    189748.31    502.82121    -8224.209    8.7895075 
   48000    1864.2204    22733.619     196433.7    493.26437   -8220.8951    8.8159471 
   49000    1875.8375     22637.53    207747.07     496.3382    -8199.789    8.8533682 
   50000    1892.8199     22596.24    206387.87    500.83167   -8222.2743    8.8695457 
   51000    1941.8618    22727.511    197469.05    513.80794   -8222.6112    8.8183167 
   52000    1889.1138     22752.49     197724.7    499.85105   -8202.2379    8.8086352 
   53000    1881.7036    22671.141     203390.3    497.89033   -8205.4417    8.8402427 
   54000    1931.0215    22650.553    202420.17    510.93964   -8221.2154    8.8482777 
   55000    1926.1375    22803.982    187105.89    509.64735    -8238.892    8.7887452 
   56000    1927.4351    22702.009    197248.36    509.99067   -8229.6372    8.8282225 
   57000    1971.7223    22688.411    201986.29    521.70889    -8216.068    8.8335138 
   58000    1852.2082    22657.404    203392.91    490.08598   -8210.8453    8.8456025 
   59000    1884.1594    22746.662     196803.2    498.54014   -8211.2656    8.8108921 
   60000    1908.4424     22834.44    189113.68    504.96531   -8218.6986     8.777022 
   61000    1821.0536    22639.096    204978.93    481.84261   -8209.1109    8.8527558 
   62000    1989.2915     22644.49    201000.41    526.35761   -8232.1535    8.8506471 
   63000    1970.6929    22724.641       194204    521.43652   -8238.3185    8.8194304 
   64000    1994.1092    22776.778    194450.79    527.63234   -8223.5446    8.7992422 
   65000    1912.4408    22656.754    201964.05    506.02327   -8223.4415    8.8458561 
   66000    1859.8225    22637.841    206462.54     492.1007   -8204.5746    8.8532463 
   67000     1934.229    22672.705     199690.8    511.78832   -8227.7523    8.8396326 
   68000    1908.9694    22669.133    196538.34    505.10476   -8244.2454    8.8410258 
   69000    1916.6117    22792.964    187023.74    507.12685   -8243.2823    8.7929936 
   70000    1903.6733    22663.857    206299.36    503.70343   -8200.8409    8.8430839 
   71000    1887.3698    22593.776    207999.11    499.38958   -8218.6386    8.8705132 
   72000    1905.7865    22800.715    194921.78    504.26257    -8198.178    8.7900044 
   73000    1914.7502    22744.638    197347.45    506.63432   -8212.5759    8.8116762 
   74000    1881.3525      22730.8    201598.69    497.79742    -8194.218    8.8170404 
   75000    1886.9257    22666.096    199842.33    499.27207   -8225.4988    8.8422102 
   76000    1902.7931    22716.219    202321.71    503.47052   -8197.5599    8.8226999 
   77000     1875.061    22577.295    211530.81    496.13274    -8208.567    8.8769884 
   78000    1850.1452    22725.015    194980.19    489.54012   -8229.8091     8.819285 
   79000    1890.7298    22751.702    194263.25    500.27862   -8222.8769    8.8089405 
   80000    1945.5089    22673.365    201419.64    514.77294    -8222.052    8.8393755 
   81000    1809.2092    22666.103    201185.83    478.70865   -8217.5592    8.8422074 
   82000    1925.2494    22730.953    196265.01    509.41235   -8224.8639    8.8169812 
   83000    1908.8536    22674.993     201436.5    505.07411   -8216.4889    8.8387409 
   84000     1848.009    22709.595    200718.75    488.97489   -8202.9342    8.8252734 
   85000     1889.836    22690.876    199019.88    500.04214   -8223.1013    8.8325539 
   86000    1847.8674    22602.268    208577.26    488.93742   -8208.2705    8.8671802 
   87000    1908.6069    22627.041     207246.6    505.00884   -8209.4244    8.8574723 
   88000    1870.4426    22723.713    194794.17    494.91072   -8226.5452    8.8197906 
   89000    1916.8393    22737.725    190665.56    507.18708   -8247.1676    8.8143553 
   90000    1917.5516    22640.965    204496.47    507.37556   -8211.2531    8.8520247 
   91000    1927.5004    22592.503    207166.59    510.00796   -8221.3987    8.8710128 
   92000    1854.4524    22698.906     196374.5     490.6798   -8233.8209    8.8294294 
   93000    1883.7101    22678.641    199792.89    498.42126   -8224.9665    8.8373192 
   94000    1941.9732    22689.018    200642.51    513.83741   -8217.2883    8.8332774 
   95000    1900.0951     22682.86    198781.41    502.75664   -8226.9073    8.8356752 
   96000    1887.1511    22625.993    205149.63    499.33172   -8218.1309    8.8578823 
   97000    1914.9046    22661.305    204792.74    506.67518    -8207.297    8.8440797 
   98000    1887.4216    22731.721    192968.27    499.40328   -8235.8092    8.8166833 
   99000    1884.6367    22701.122    199618.97    498.66641   -8217.7486    8.8285675 
  100000     1859.911     22603.41    204763.89    492.12412   -8227.0839    8.8667322 
  101000    1936.7941    22686.763    198715.62    512.46704   -8228.9795    8.8341554 
  102000    1904.9191    22682.007    201824.74    504.03305   -8215.4743    8.8360076 
  103000    1889.2758    22689.848    198614.52    499.89391    -8225.103     8.832954 
  104000    1910.5226     22698.66    196881.95    505.51572   -8230.5323     8.829525 
  105000    1936.4028    22686.599    198487.29    512.36351   -8229.4914    8.8342193 
  106000    1940.7496    22672.134     202887.6    513.51364   -8213.0838    8.8398552 
  107000    1871.3389    22642.238    203991.23    495.14787   -8212.5299    8.8515273 
  108000    1911.7151    22705.923    196068.38    505.83124   -8233.7873    8.8267006 
  109000     1811.737    22715.061    198579.94    479.37749    -8208.795    8.8231499 
  110000     1958.823    22609.021    206731.29    518.29578   -8221.1074    8.8645319 
  111000    1912.2379    22597.625    206484.44    505.96959   -8223.6596    8.8690021 
  112000    1875.2138    22702.443    199725.36    496.17315    -8214.062    8.8280537 
  113000    1861.4529    22749.965    192451.18    492.53209   -8234.3311    8.8096129 
  114000     1866.004    22669.494    203166.34    493.73629   -8206.1988    8.8408847 
  115000    1946.3819    22657.288    202270.31    515.00392   -8223.7095    8.8456476 
  116000    1897.3836    22680.168    201760.11    502.03919   -8212.0588    8.8367241 
  117000    1918.3397    22749.361    194593.61     507.5841    -8221.982    8.8098469 
  118000    1884.6973    22700.546    194920.38    498.68245   -8237.5952    8.8287913 
  119000     1837.334    22705.591     197064.9    486.15035   -8221.3108    8.8268297 
  120000    1913.9947    22666.752    205139.62    506.43441   -8205.6519    8.8419542 
  121000    1887.4889     22644.43    203274.03     499.4211   -8217.8696    8.8506704 
  122000    1846.8503    22671.885    201864.95    488.66832   -8208.7138    8.8399525 
  123000    1940.1341    22790.978    195484.52    513.35078   -8205.9442    8.7937599 
  124000    1866.9049    22596.481    211969.41    493.97465   -8196.2047    8.8694512 
  125000    1894.1902    22626.408     210178.2    501.19423   -8194.1016    8.8577201 
  126000    1895.7536    22715.792    193689.21    501.60791   -8238.0021     8.822866 
  127000    1897.7489    22715.895    196407.17    502.13586   -8230.0014    8.8228258 
  128000    1930.2606    22704.075    198961.88    510.73829   -8218.4023    8.8274193 
  129000    1876.3277    22596.434    205092.39    496.46791   -8231.2351    8.8694697 
  130000    1898.4561     22740.16    196605.84    502.32296   -8219.5663    8.8134114 
  131000    1880.1449    22695.876    199993.94    497.47791   -8217.8508    8.8306083 
  132000     1936.399    22550.558    212057.67    512.36249   -8217.5443    8.8875135 
  133000    1936.3698    22691.107    201522.43    512.35476   -8214.5966    8.8324639 
  134000    1872.4503    22696.526     197203.7    495.44196   -8230.6638    8.8303553 
  135000    1911.2185    22718.574    197905.27    505.69985   -8215.2232    8.8217856 
  136000    1949.0502    22642.498    208271.95    515.70995   -8201.7773    8.8514258 
  137000    1901.3202     22724.43    195895.41    503.08079   -8227.8582     8.819512 
  138000    1889.1551    22790.426    193249.75    499.86197   -8217.8256     8.793973 
  139000    1959.0032    22667.608    204301.74    518.34346   -8207.4286    8.8416206 
  140000    1839.1012    22623.039    204606.58    486.61793   -8215.0379     8.859039 
  141000    1878.5383    22755.599    194523.93     497.0528   -8216.9323     8.807432 
  142000    1882.7831    22641.401    201472.46    498.17598   -8233.1411    8.8518544 
  143000    1897.4088    22676.551    202657.69    502.04586   -8210.8815    8.8381337 
  144000     1905.895    22643.282    202190.17    504.29127   -8227.7738    8.8511192 
  145000    1908.1522    22708.115    201766.95    504.88853   -8204.2896    8.8258487 
  146000    1890.8115    22675.833    202239.44    500.30026    -8214.389    8.8384135 
  147000    1895.5734    22643.872    205144.36    501.56022   -8214.9875    8.8508885 
  148000    1929.9854    22793.488    188663.25    510.66549   -8234.7695    8.7927913 
  149000    1904.6509    22717.192    196019.52     503.9621   -8225.8682    8.8223222 
  150000    1903.3678    22683.531    201747.39     503.6226   -8213.8202    8.8354141 
  151000    1884.4639    22733.223    198577.04    498.62071   -8206.2114    8.8161007 
  152000    1861.8401    22685.078    200591.44    492.63455   -8216.2146    8.8348116 
  153000    1898.5356    22666.701    204243.08    502.34401    -8206.897    8.8419742 
  154000     1898.964    22665.077    202908.08    502.45736   -8219.1949    8.8426079 
  155000     1823.044    22664.197    201794.64    482.36927   -8217.1563    8.8429511 
  156000    1872.0855     22675.05    198464.94    495.34544   -8226.0744    8.8387186 
  157000    1928.4392    22578.623    210002.21    510.25638   -8216.8746    8.8764664 
  158000    1890.5764    22603.397    205727.04    500.23803   -8223.0947    8.8667375 
  159000    1909.2681    22731.101    197179.22    505.18378   -8216.7732    8.8169237 
  160000    1818.6435    22645.374    200975.98    481.20491   -8222.7049    8.8503013 
  161000    1901.0251    22675.577    198594.36    503.00271   -8233.4034    8.8385131 
  162000    1924.2907    22701.788    202019.15     509.1587   -8206.6717    8.8283085 
  163000     1871.181    22714.191    197799.35    495.10611   -8219.4828    8.8234876 
  164000    1856.8215    22715.817    197663.06    491.30664    -8218.946    8.8228561 
  165000    1931.9913    22622.201    205246.62    511.19625    -8220.863    8.8593672 
  166000    1809.9947    22623.834    205666.81    478.91649   -8209.9089    8.8587278 
  167000    1867.6393    22709.835    192893.42    494.16898   -8240.9174      8.82518 
  168000    1941.4165    22711.275     195775.7    513.69011   -8233.8086    8.8246206 
  169000    1927.0452    22586.799    208848.71    509.88752   -8215.1071    8.8732533 
  170000     1933.414    22681.163    204218.65    511.57268     -8204.71    8.8363364 
  171000    1865.1027    22694.522    198560.19     493.4978   -8225.4519     8.831135 
  172000    1930.5016    22778.421    193282.25    510.80206   -8220.9587    8.7986074 
  173000    1920.4451    22666.443    201491.11    508.14116    -8225.464    8.8420747 
  174000    1862.4466      22616.5    204640.15    492.79502    -8224.446    8.8616006 
  175000    1938.6799    22689.246    197604.22    512.96601    -8235.877    8.8331883 
  176000    1913.1211    22708.447    194971.97    506.20328   -8239.8317    8.8257196 
  177000    1910.0863    22707.878    198255.37    505.40028   -8226.0278    8.8259409 
  178000     1987.135    22621.507    207125.29    525.78701   -8218.3247    8.8596389 
  179000    1938.8767     22649.74    200783.37    513.01808   -8231.7528    8.8485955 
  180000    1927.2906    22734.764    198870.43    509.95244   -8210.9318    8.8155033 
  181000    1888.8841    22732.718    194649.91    499.79025   -8229.9336    8.8162966 
  182000    1962.4995    22700.108    200868.94    519.26856   -8213.0977    8.8289617 
  183000    1878.2174    22568.098    209679.13     496.9679   -8216.5928     8.880606 
  184000    1919.3561    22697.154    199659.02    507.85301   -8217.0962    8.8301109 
  185000    1819.1559    22736.331     196396.9     481.3405    -8216.401    8.8148957 
  186000    1883.0976    22629.651    204897.38    498.25918   -8220.1733    8.8564506 
  187000    1880.6814    22474.047    216289.15    497.61986   -8229.3624    8.9177702 
  188000    1927.0555    22723.636    194920.57    509.89024    -8231.808    8.8198204 
  189000    1907.2704    22769.584     192965.1     504.6552   -8223.3614    8.8020225 
  190000    1882.7605    22628.466    207087.44       498.17   -8208.9433    8.8569143 
  191000    1851.8437    22621.074    206275.55    489.98954   -8213.4763    8.8598087 
  192000    1819.2048    22723.366    198157.08    481.35343    -8208.999    8.8199252 
  193000    1937.2342    22743.329    196391.41    512.58348   -8217.6761    8.8121834 
  194000     1859.009    22642.784    208089.78    491.88545   -8196.8075    8.8513137 
  195000     1877.428    22715.173    196213.11    496.75904   -8224.3121    8.8231065 
  196000    1921.6855    22729.742    194265.17    508.46936   -8231.7309    8.8174509 
  197000    1936.9313    22607.438    207365.39    512.50333   -8218.0895    8.8651526 
  198000    1938.3767    22621.306    204777.77    512.88579   -8225.0131    8.8597176 
  199000    1864.5663    22740.055    195842.41    493.35588    -8218.645     8.813452 
  200000    1880.9595    22720.075    196906.73    497.69344   -8220.1135    8.8212029 
  201000    1925.2497    22671.694    202863.74    509.41244   -8213.7965     8.840027 
  202000    1890.2908    22750.821    195357.56    500.16247   -8219.4843    8.8092815 
  203000    1896.4362    22679.147    200315.75    501.78852   -8221.8107     8.837122 
  204000    1948.8328    22586.204    211180.46    515.65243    -8204.588    8.8734868 
  205000     1854.964    22759.413    196858.14    490.81516    -8207.387    8.8059558 
  206000    1924.4911    22760.393    192719.48    509.21171   -8226.8731    8.8055767 
  207000    1940.9125    22688.579    201327.57    513.55674   -8214.8479     8.833448 
  208000    1925.5031    22664.167    201224.26    509.47949   -8221.1223    8.8429627 
  209000    1863.5516    22695.955    198045.76    493.08739   -8226.4039    8.8305773 
  210000    1874.8744    22772.638    192962.68    496.08337   -8216.1682    8.8008417 
  211000    1907.1857    22685.371    198772.87    504.63279   -8226.0985    8.8346972 
  212000    1968.4893    22614.706    209013.38    520.85344   -8208.2594    8.8623033 
  213000     1849.605    22632.789    206078.57    489.39719    -8208.258    8.8552227 
  214000    1892.0993    22700.686    199589.66    500.64099   -8216.2948     8.828737 
  215000    1892.4879    22743.995    197584.52    500.74381   -8210.7567    8.8119254 
  216000    1883.8464    22689.268    195629.84     498.4573   -8239.5244      8.83318 
  217000    1916.7818    22692.396     202636.7    507.17188   -8206.9551    8.8319624 
  218000    1879.0412    22612.333    208550.85    497.18588   -8205.0867    8.8632333 
  219000    1817.5091    22729.008    198576.64    480.90475   -8205.0119    8.8177357 
  220000    1917.9825    22685.725    197659.81    507.48956   -8237.8551    8.8345595 
  221000    1902.9388    22656.053    201246.59    503.50907   -8220.3703    8.8461299 
  222000    1826.4494    22590.464    204707.43    483.27033   -8227.7711    8.8718136 
  223000    1868.5708    22798.607    189282.47    494.41546   -8229.6469    8.7908171 
  224000    1938.9748    22674.095     199189.1    513.04404    -8224.262     8.839091 
  225000    1862.7409    22634.996    205019.14    492.87289   -8213.1245    8.8543594 
  226000    1920.4823    22675.894    199248.78    508.15102   -8223.3934    8.8383896 
  227000    1904.1492      22671.8    202109.35    503.82934   -8217.1595    8.8399855 
  228000    1886.7881    22695.304    197608.34    499.23567   -8227.8708    8.8308305 
  229000    1899.6588     22824.11     189229.8    502.64122   -8221.5791    8.7809947 
  230000    1900.5945    22676.993    205441.44    502.88878   -8198.7389    8.8379612 
  231000    1831.1764    22643.498     204313.9    484.52106   -8212.0515    8.8510346 
  232000    1905.1392    22725.716    196007.86    504.09128   -8223.2798    8.8190131 
  233000    1881.1125    22698.534    197976.41    497.73392   -8226.0683     8.829574 
  234000    1895.0642    22646.565    203353.59    501.42549   -8219.4908    8.8498361 
  235000    1890.6476    22645.604    200169.33    500.25688   -8233.4867    8.8502117 
  236000    1878.6748    22705.269    195171.73    497.08893    -8234.543    8.8269549 
  237000    1883.5321    22703.827    198046.52    498.37415   -8224.0676    8.8275158 
  238000    1900.9365    22582.973    211109.19    502.97928   -8210.7595    8.8747566 
  239000    1926.6694    22705.119    196416.23    509.78808   -8233.0574    8.8270134 
  240000    1885.5502     22782.78    195030.37    498.90814   -8209.4725     8.796924 
  241000    1923.8569    22730.894    194241.36    509.04392    -8231.013    8.8170041 
  242000    1883.4526    22692.831    199445.16     498.3531   -8214.7548     8.831793 
  243000    1918.2266    22623.858    205239.97    507.55415   -8220.4101    8.8587182 
  244000    1886.7875    22707.531     200439.6    499.23551   -8211.7926    8.8260755 
  245000     1871.973    22723.628    195480.54    495.31565   -8228.6639    8.8198233 
  246000    1847.4306    22574.102    206620.28    488.82186   -8226.0689    8.8782442 
  247000    1968.0468    22631.627    207472.84    520.73636   -8208.4981    8.8556774 
  248000    1896.9389    22686.397     198113.8    501.92153   -8230.2778    8.8342978 
  249000    1849.6273    22677.189    200254.18    489.40308   -8216.2838    8.8378851 
  250000    1915.3302    22675.645     203898.2     506.7878   -8204.9777    8.8384868 
Loop time of 507.958 on 8 procs for 250000 steps with 2048 atoms

Performance: 42.523 ns/day, 0.564 hours/ns, 492.167 timesteps/s
122.5% CPU use with 4 MPI tasks x 2 OpenMP threads

MPI task timing breakdown:
Section |  min time  |  avg time  |  max time  |%varavg| %total
---------------------------------------------------------------
Pair    | 294.77     | 300.49     | 305.81     |  23.0 | 59.16
Neigh   | 3.9569     | 3.97       | 3.9914     |   0.7 |  0.78
Comm    | 20.063     | 25.5       | 31.296     |  79.9 |  5.02
Output  | 0.0059691  | 0.011693   | 0.013617   |   3.1 |  0.00
Modify  | 176.91     | 177.11     | 177.26     |   1.0 | 34.87
Other   |            | 0.8799     |            |       |  0.17

Nlocal:        512.000 ave         516 max         509 min
Histogram: 2 0 0 0 0 0 0 1 0 1
Nghost:        2866.50 ave        2888 max        2845 min
Histogram: 1 0 0 0 1 1 0 0 0 1
Neighs:        42062.5 ave       42962 max       41117 min
Histogram: 2 0 0 0 0 0 0 0 0 2

Total # of neighbors = 168250
Ave neighs/atom = 82.153320
Neighbor list builds = 4183
Dangerous builds = 0


# fix 132 all momentum 100 linear 1 1 1 angular
fix out_file_1 all print 1000 "$(step) $(temp) $(press) ${sys_press} $(vol) $(ke) $(pe) $(density)" file one_phase_${sim}_press_$P_$T_.txt screen no title  "step temp press pressGiga vol ke pe density"
fix out_file_1 all print 1000 "$(step) $(temp) $(press) ${sys_press} $(vol) $(ke) $(pe) $(density)" file one_phase_cooling_press_$P_$T_.txt screen no title  "step temp press pressGiga vol ke pe density"
fix out_file_1 all print 1000 "$(step) $(temp) $(press) ${sys_press} $(vol) $(ke) $(pe) $(density)" file one_phase_cooling_press_200000_$T_.txt screen no title  "step temp press pressGiga vol ke pe density"
fix out_file_1 all print 1000 "$(step) $(temp) $(press) ${sys_press} $(vol) $(ke) $(pe) $(density)" file one_phase_cooling_press_200000_1900_.txt screen no title  "step temp press pressGiga vol ke pe density"

# dump 3 all custom 1000 traj_npt_new.lammpstrj id type x y z
run 50000
Last active /omp style is pair_style eam/alloy/omp
Per MPI rank memory allocation (min/avg/max) = 4.322 | 4.323 | 4.323 Mbytes
Step Temp Volume Press KinEng PotEng Density 
  250000    1915.3302    22675.645     203898.2     506.7878   -8204.9777    8.8384868 
  251000    1845.9179    22701.187    199972.42    488.42159   -8208.3302    8.8285421 
  252000    1872.2256    22635.628    203177.51     495.3825   -8224.4083    8.8541122 
  253000    1912.2294    22708.337    199732.59    505.96733   -8214.7686    8.8257622 
  254000    1899.8222    22739.775    194898.62    502.68443    -8223.514    8.8135607 
  255000    1838.0232    22681.039    200733.52     486.3327   -8214.2196    8.8363849 
  256000    1875.7505    22668.996    202628.58    496.31517   -8210.1749    8.8410792 
  257000    1899.8671    22644.039    201913.08    502.69631   -8226.2326    8.8508233 
  258000     1935.584    22651.812     204299.2    512.14685   -8218.0505    8.8477859 
  259000    1925.1578    22715.921    196671.85    509.38812   -8225.6813    8.8228156 
  260000    1867.1062    22765.622    188490.61    494.02794   -8241.2402    8.8035544 
  261000    1894.8666    22715.749    198125.67    501.37321   -8215.1593    8.8228827 
  262000    1916.9543    22733.969    203421.03    507.21751   -8185.6857    8.8158115 
  263000    1881.8398    22657.422    203165.83    497.92637   -8212.4334    8.8455955 
  264000    1919.7114    22648.936    204503.52    507.94703   -8215.7782    8.8489097 
  265000    1882.2476    22730.226    195444.83    498.03429   -8224.8344    8.8172633 
  266000    1890.5376     22767.87    194104.74    500.22777   -8214.3976     8.802685 
  267000    1833.6821    22558.039     207095.5    485.18406   -8231.7541    8.8845661 
  268000    1935.3884     22679.33    201183.46    512.09509   -8221.3716    8.8370504 
  269000    1959.9467     22718.93    196078.26    518.59312   -8229.2074    8.8216472 
  270000    1815.5369    22734.178    195843.15    480.38293    -8216.675    8.8157303 
  271000    1890.2866    22673.259    199222.34    500.16135   -8225.9655    8.8394166 
  272000    1901.7552    22635.232    206939.54    503.19591    -8203.433    8.8542668 
  273000    1904.4584    22671.337    199655.32    503.91116   -8227.7073    8.8401662 
  274000    1942.8058     22751.74    194215.98    514.05771   -8227.2482    8.8089258 
  275000    1865.6747    22629.605    203339.01    493.64916   -8227.3279    8.8564685 
  276000    1905.6847    22656.713    205752.15    504.23564     -8205.01     8.845872 
  277000    1912.8692    22701.025     198810.7    506.13662   -8219.2432    8.8286051 
  278000    1809.6808    22693.798    196042.32    478.83343   -8231.6027    8.8314165 
  279000    1962.3568    22681.312    200360.83     519.2308    -8223.963    8.8362782 
  280000    1912.1548    22624.112    207217.24    505.94758   -8209.6507    8.8586189 
  281000    1876.8561    22788.462    190247.96     496.6077   -8225.7692    8.7947308 
  282000    1845.7573    22774.095    194486.65    488.37912    -8213.124    8.8002787 
  283000    1925.3312    22650.119    200964.31    509.43401   -8229.8119    8.8484475 
  284000    1886.6615    22709.492    201103.42    499.20216   -8204.3907    8.8253137 
  285000    1894.5353    22683.675    200063.86    501.28554   -8216.7018     8.835358 
  286000    1943.0351    22715.512    197892.63    514.11838   -8218.0626    8.8229748 
  287000    1878.4238    22687.712    199262.43    497.02251   -8219.5544    8.8337857 
  288000    1933.5698    22771.459    191858.78    511.61389   -8228.1581    8.8012977 
  289000    1860.3356    22663.061    203555.18    492.23645   -8210.7735    8.8433945 
  290000    1934.6448    22705.634    202098.04    511.89833   -8203.2605     8.826813 
  291000     1821.256    22629.648    202318.94    481.89618   -8227.0118    8.8564519 
  292000    1950.3819    22670.243    202262.41    516.06232   -8216.8727    8.8405928 
  293000    1885.1932    22693.767    202404.44    498.81368    -8204.068    8.8314286 
  294000    1837.6826    22756.313    194666.76    486.24258   -8216.9018    8.8071555 
  295000    1913.1508    22672.931    203058.11    506.21112   -8214.2968    8.8395445 
  296000      1918.33    22621.579    209051.28    507.58151   -8204.4321    8.8596106 
  297000    1883.6184     22728.24    199985.16      498.397   -8199.9752    8.8180336 
  298000    1921.7809    22705.835     197687.4    508.49461   -8228.2824     8.826735 
  299000    1905.9097    22697.316    202823.09    504.29516   -8204.1134    8.8300478 
  300000    1889.9628    22621.175    209457.81    500.07569   -8197.7867    8.8597692 
Loop time of 100.342 on 8 procs for 50000 steps with 2048 atoms

Performance: 43.053 ns/day, 0.557 hours/ns, 498.297 timesteps/s
122.0% CPU use with 4 MPI tasks x 2 OpenMP threads

MPI task timing breakdown:
Section |  min time  |  avg time  |  max time  |%varavg| %total
---------------------------------------------------------------
Pair    | 58.441     | 59.446     | 60.3       |   8.6 | 59.24
Neigh   | 0.78015    | 0.78818    | 0.79355    |   0.6 |  0.79
Comm    | 3.9208     | 4.7949     | 5.8151     |  30.9 |  4.78
Output  | 0.0011226  | 0.0018292  | 0.0020698  |   1.0 |  0.00
Modify  | 35.103     | 35.137     | 35.164     |   0.4 | 35.02
Other   |            | 0.174      |            |       |  0.17

Nlocal:        512.000 ave         518 max         506 min
Histogram: 1 0 0 0 1 1 0 0 0 1
Nghost:        2871.50 ave        2885 max        2860 min
Histogram: 2 0 0 0 0 0 0 1 0 1
Neighs:        42090.2 ave       43744 max       40444 min
Histogram: 1 1 0 0 0 0 0 0 1 1

Total # of neighbors = 168361
Ave neighs/atom = 82.207520
Neighbor list builds = 833
Dangerous builds = 0

unfix temp
unfix out_file_1


write_data after_${sim}_press_$P_$T.in
write_data after_cooling_press_$P_$T.in
write_data after_cooling_press_200000_$T.in
write_data after_cooling_press_200000_1900.in
System init for write_data ...
Last active /omp style is pair_style eam/alloy/omp
write_restart after_${sim}_press_$P_$T.lmp
write_restart after_cooling_press_$P_$T.lmp
write_restart after_cooling_press_200000_$T.lmp
write_restart after_cooling_press_200000_1900.lmp
System init for write_restart ...
Last active /omp style is pair_style eam/alloy/omp

next loopVar
jump in.lmp ensemble

print """
Label pachadi solti, hos garam.
"""

Label pachadi solti, hos garam.

variable T equal 2100-${loopVar}*100
variable T equal 2100-3*100
# variable T equal 2850


reset_timestep 0
fix 1 all npt temp $T $T $(dt*100) iso $P $P $(dt*1000)
fix 1 all npt temp 1800 $T $(dt*100) iso $P $P $(dt*1000)
fix 1 all npt temp 1800 1800 $(dt*100) iso $P $P $(dt*1000)
fix 1 all npt temp 1800 1800 0.10000000000000000555 iso $P $P $(dt*1000)
fix 1 all npt temp 1800 1800 0.10000000000000000555 iso 200000 $P $(dt*1000)
fix 1 all npt temp 1800 1800 0.10000000000000000555 iso 200000 200000 $(dt*1000)
fix 1 all npt temp 1800 1800 0.10000000000000000555 iso 200000 200000 1
print """
<--------------------------------------------------------------------->
<------------------ Equilibrating at temperature $T ----------------->
<--------------------------------------------------------------------->
"""

<--------------------------------------------------------------------->
<------------------ Equilibrating at temperature 1800 ----------------->
<--------------------------------------------------------------------->

fix temp all print 1000 "$(step) $(temp) $(press) ${sys_press} $(vol) $(ke) $(pe) $(density)" file temp_${sim}.txt screen no title  "step temp press pressGiga vol ke pe density"
fix temp all print 1000 "$(step) $(temp) $(press) ${sys_press} $(vol) $(ke) $(pe) $(density)" file temp_cooling.txt screen no title  "step temp press pressGiga vol ke pe density"
run 250000
Last active /omp style is pair_style eam/alloy/omp
Per MPI rank memory allocation (min/avg/max) = 4.322 | 4.323 | 4.323 Mbytes
Step Temp Volume Press KinEng PotEng Density 
       0    1889.9628    22621.175    209457.81    500.07569   -8197.7867    8.8597692 
    1000    1810.4167    22569.305    204754.33    479.02816   -8237.6277    8.8801311 
    2000    1816.1725    22582.996    201001.44    480.55111   -8251.7195    8.8747476 
    3000    1797.6921    22609.426    198516.81    475.66126   -8251.1259    8.8643732 
    4000    1801.8479    22535.611    203246.88    476.76088   -8256.7031     8.893408 
    5000    1816.7471    22608.305    197850.45    480.70313   -8255.1689    8.8648125 
    6000    1738.4058    22522.988    204892.34    459.97437   -8249.6138    8.8983924 
    7000    1900.0611    22605.836    198052.95    502.74765   -8258.2259    8.8657809 
    8000     1854.387    22625.202    194257.53    490.66248   -8270.6449    8.8581922 
    9000    1718.3471    22643.301     193686.8    454.66693   -8254.3299    8.8511119 
   10000    1786.7794    22623.871    193107.22    472.77383   -8270.7754    8.8587134 
   11000    1823.0925    22621.778    199744.79    482.38209   -8239.7568     8.859533 
   12000    1842.5806     22506.33    207520.68    487.53856   -8251.1425    8.9049785 
   13000     1803.184    22584.119    201238.12     477.1144   -8248.5095     8.874306 
   14000    1828.2591    22627.498    198001.77    483.74916   -8249.7447    8.8572932 
   15000    1801.7896    22668.098    191277.64    476.74546   -8264.9398    8.8414294 
   16000    1841.9788    22691.088    189929.25    487.37934   -8262.5427    8.8324716 
   17000    1795.0983    22648.911    198215.87    474.97495   -8236.8676    8.8489192 
   18000    1823.1735     22587.43    201895.33    482.40354   -8242.0127    8.8730052 
   19000    1803.5446    22514.585    210395.15     477.2098    -8232.158    8.9017134 
   20000    1803.0252    22576.698    200295.42    477.07239   -8257.0141     8.877223 
   21000    1868.9082    22617.701    197026.91    494.50473   -8257.1904    8.8611299 
   22000    1787.8598    22588.529    198543.59    473.05969   -8261.3629    8.8725737 
   23000    1858.1395    22645.458    193553.78    491.65538   -8265.5741    8.8502685 
   24000    1775.0283    22684.447    190692.04    469.66453   -8256.4945    8.8350573 
   25000    1821.1155    22573.397    199424.71    481.85899   -8263.6004    8.8785213 
   26000    1752.0081    22561.501    205941.89     463.5735   -8232.4177    8.8832028 
   27000    1847.4229    22580.335    201914.33    488.81981   -8244.5355    8.8757933 
   28000    1805.5082    22592.741    199996.32    477.72938    -8249.298    8.8709195 
   29000     1826.039    22591.521    197164.61    483.16173   -8264.1823    8.8713987 
   30000    1824.9108    22576.273    204358.69    482.86321    -8240.364    8.8773903 
   31000    1806.8727    22518.537    208849.02    478.09041   -8238.8175    8.9001514 
   32000    1844.2382    22593.743    200545.91    487.97715   -8249.0153    8.8705261 
   33000    1803.9853    22706.644    187597.42    477.32642   -8265.6626    8.8264204 
   34000    1827.7299    22647.672    191720.31    483.60913   -8268.7653    8.8494035 
   35000    1815.2819    22582.198     200994.6    480.31546   -8252.5973     8.875061 
   36000    1816.4706    22581.634    202541.38    480.62998   -8244.0263    8.8752828 
   37000    1758.2435    22511.287    205566.54    465.22335   -8251.9065    8.9030175 
   38000    1771.0034    22584.968    199591.28    468.59956   -8253.5723    8.8739726 
   39000    1789.5237    22709.607    184496.44    473.49994   -8277.7239    8.8252687 
   40000    1801.5714    22610.803    199171.55    476.68772   -8248.8369    8.8638332 
   41000    1766.5535    22584.694    204550.71    467.42215   -8235.6613    8.8740804 
   42000    1831.1464    22563.652    206637.12    484.51314   -8233.7424    8.8823558 
   43000    1876.3303    22562.288    200841.33    496.46858   -8264.1703    8.8828929 
   44000    1855.5846    22526.699    205289.16    490.97936   -8252.6831    8.8969267 
   45000    1816.0877    22561.132    200642.13    480.52866   -8260.4739     8.883348 
   46000     1816.501    22614.182    194777.76    480.63802   -8270.3361    8.8625088 
   47000    1779.1443    22633.993    196359.83     470.7536    -8251.229    8.8547515 
   48000    1749.1166    22567.138    196448.16    462.80841   -8274.7979    8.8809837 
   49000    1799.9593     22552.58    201331.73    476.26115   -8257.2546    8.8867166 
   50000    1763.0507     22557.24    204104.43    466.49532   -8241.8455    8.8848808 
   51000    1836.7537    22627.825    200527.23     485.9968   -8239.0877    8.8571651 
   52000    1835.0897    22585.123    202800.61    485.55651   -8243.1876    8.8739117 
   53000    1831.9789    22584.687    198264.69    484.73341    -8260.271     8.874083 
   54000    1882.7066    22709.351    190304.33    498.15572   -8257.0364    8.8253683 
   55000    1741.6053    22694.727    191627.33    460.82094   -8245.0918    8.8310554 
   56000    1740.9574    22615.202    197162.87    460.64952   -8253.4989    8.8621092 
   57000    1837.8793     22597.31    200220.81    486.29461   -8248.9928    8.8691259 
   58000    1774.1833    22571.994    200572.06    469.44094   -8255.4018    8.8790731 
   59000    1814.5862    22577.402    200869.78    480.13137   -8252.0969    8.8769462 
   60000    1795.3611    22533.614    206932.63     475.0445   -8241.7313    8.8941965 
   61000    1804.7896    22581.209    200389.26    477.53924   -8253.7052      8.87545 
   62000    1777.5838    22617.639    194479.96    470.34072   -8268.0086     8.861154 
   63000    1742.4451    22558.373    197969.78    461.04315   -8270.9037    8.8844343 
   64000    1821.3205    22659.018    195013.66    481.91324   -8251.5721    8.8449721 
   65000     1749.717    22572.082    197288.59    462.96729   -8267.9135    8.8790385 
   66000    1822.3756    22691.343    192565.48     482.1924     -8250.17    8.8323721 
   67000    1777.0779     22603.83    201006.13    470.20683   -8236.1576    8.8665675 
   68000    1802.1806    22563.496    203882.83    476.84891    -8244.945    8.8824172 
   69000    1825.4272    22538.136    209351.76    482.99984   -8228.4636     8.892412 
   70000    1820.5168    22499.892    209671.41    481.70058   -8243.4363    8.9075264 
   71000    1860.6277    22615.694    194873.35    492.31375   -8264.6922    8.8619164 
   72000    1784.7853    22631.325    196859.48    472.24619   -8248.5222    8.8557957 
   73000    1822.1781    22635.961    193143.03    482.14016   -8268.0684    8.8539817 
   74000    1836.9746    22624.997    200219.79    486.05524   -8239.7485    8.8582725 
   75000    1792.0296    22565.921    201764.17    474.16301   -8253.2191    8.8814629 
   76000    1801.9983     22537.36    204112.74    476.80067   -8249.8547    8.8927178 
   77000    1781.6858    22639.957    193440.08    471.42608   -8262.3118    8.8524192 
   78000    1801.1582    22708.901    190014.29    476.57838   -8253.4572    8.8255432 
   79000     1744.677    22544.746    199856.88     461.6337    -8263.346    8.8898048 
   80000    1817.8898    22550.427    203601.73    481.00548   -8249.9428    8.8875652 
   81000    1797.1683    22604.194    198836.55    475.52268    -8254.052    8.8664248 
   82000    1779.8848    22677.103    187415.05    470.94954     -8276.52    8.8379186 
   83000    1758.0725    22626.255    191949.92     465.1781   -8272.5755    8.8577801 
   84000    1815.0263    22612.159    198817.85    480.24783    -8251.369    8.8633015 
   85000    1793.8797    22560.378    198465.03    474.65253    -8267.984     8.883645 
   86000    1855.0586    22601.478    201730.52    490.84019    -8243.249    8.8674904 
   87000     1779.272    22556.575    206725.83    470.78741   -8230.1818    8.8851427 
   88000    1770.3512    22627.958    196065.76    468.42699   -8249.2597    8.8571133 
   89000     1788.229    22606.817    197313.76    473.15738   -8257.0139    8.8653959 
   90000    1800.1378    22583.844    200728.09    476.30839   -8253.4053    8.8744143 
   91000    1782.9099    22556.592    202230.66    471.74997   -8248.7626    8.8851359 
   92000    1790.4166    22608.807    201255.44    473.73621   -8237.9267    8.8646158 
   93000    1828.2459    22623.241    198473.71    483.74568   -8247.2188    8.8589601 
   94000    1767.9251    22605.259    198268.85    467.78505   -8249.9707    8.8660069 
   95000    1890.7536    22616.906    198986.65    500.28494   -8252.0542    8.8614414 
   96000    1885.0548    22590.024    200840.95    498.77706    -8254.148    8.8719866 
   97000    1781.9402     22560.73    203642.93    471.49339   -8244.1267    8.8835061 
   98000    1800.6807     22627.45    194276.66    476.45204   -8264.7088    8.8573122 
   99000    1754.8848    22646.211    195370.59    464.33466   -8251.2094    8.8499745 
  100000    1798.6038    22504.672    209002.15    475.90249   -8239.7444    8.9056348 
  101000    1805.3338    22474.482    209605.41    477.68323   -8250.1845    8.9175975 
  102000    1859.5532    22667.741    196745.19    492.02944   -8241.5323    8.8415686 
  103000    1759.5566    22624.717    198926.05    465.57079   -8240.6863     8.858382 
  104000    1853.9909    22543.996    204747.62    490.55768   -8250.6154    8.8901003 
  105000    1873.7224    22502.978    208809.06    495.77855   -8245.9644    8.9063049 
  106000     1811.092    22560.809    205863.17    479.20682   -8236.8689    8.8834753 
  107000    1833.4315    22645.482    194934.44    485.11776   -8258.1925    8.8502593 
  108000     1791.288    22578.112    198033.36    473.96677   -8264.9554    8.8766671 
  109000    1809.8215    22652.511    194615.58    478.87066   -8252.6004    8.8475132 
  110000    1796.6266    22561.896    198475.88    475.37934   -8269.7025    8.8830472 
  111000    1800.8633    22553.075    202585.33    476.50035   -8253.6246    8.8865215 
  112000    1835.9966     22567.87    204929.51    485.79648   -8238.6871    8.8806957 
  113000    1799.2417    22535.946    207527.46    476.07128   -8235.5739     8.893276 
  114000    1814.7555    22612.796    198024.03    480.17617   -8249.0395    8.8630519 
  115000    1830.7623    22602.246    198044.63    484.41149   -8262.0617    8.8671888 
  116000    1794.0926    22693.625    190448.37    474.70885   -8258.2946    8.8314842 
  117000    1790.2026      22667.6    194266.43    473.67957   -8246.8354    8.8416236 
  118000    1881.6008    22688.505    190292.58    497.86313   -8265.4207     8.833477 
  119000    1781.8829    22561.082    202307.89    471.47823   -8250.2188    8.8833675 
  120000    1829.0236    22620.591    200008.56    483.95145   -8243.3689     8.859998 
  121000    1788.1572    22614.325    200558.52    473.13838   -8238.9801    8.8624526 
  122000    1806.7963    22667.824    190507.06    478.07021   -8268.6934    8.8415363 
  123000    1796.9033    22700.359    189851.66    475.45256   -8257.6538    8.8288643 
  124000    1813.8136    22580.206    202425.93    479.92694    -8244.963    8.8758441 
  125000    1795.3548    22541.276     204281.8    475.04284   -8248.6679    8.8911733 
  126000    1816.3249     22567.71    203346.67    480.59144   -8246.2315    8.8807587 
  127000    1838.5625    22569.355    203022.88     486.4754   -8248.7133    8.8801113 
  128000    1786.9255    22687.547    191207.47    472.81247   -8254.6148    8.8338501 
  129000    1768.7757    22648.706    192776.13    468.01013   -8262.2392    8.8489994 
  130000    1855.3462    22565.406    201274.77    490.91628   -8258.9906    8.8816654 
  131000    1846.3311    22610.455    201217.15    488.53093   -8238.7992    8.8639697 
  132000    1809.4318    22594.357    195644.89    478.76754   -8269.7974    8.8702851 
  133000    1804.1762    22596.774    194256.32    477.37693   -8278.6688    8.8693362 
  134000    1801.4375    22556.772    200624.33    476.65227   -8257.7573    8.8850651 
  135000    1840.6324    22504.427    207606.75    487.02309   -8254.9493    8.9057317 
[...]
  120000    1501.5392    21770.694     203646.7    397.30053   -8542.4057    9.2058793 
  121000    1509.2406    21799.309    202476.46     399.3383   -8534.2299    9.1937952 
  122000     1551.918    21805.934    198721.68    410.63056   -8553.0817     9.191002 
  123000    1525.5461    21765.809    202003.97    403.65265   -8554.0773    9.2079456 
  124000    1496.2187    21759.073     205085.2    395.89277   -8539.8354     9.210796 
  125000      1487.39    21817.933    198833.68    393.55672   -8542.2572    9.1859475 
  126000    1464.6817    21850.429    192591.39    387.54821   -8558.0223    9.1722863 
  127000    1467.0442    21822.532    198409.16    388.17331   -8541.9278    9.1840118 
  128000     1454.015    21757.375    204743.18    384.72586   -8540.4952    9.2115151 
  129000     1509.082    21799.066    203419.97    399.29634   -8533.0244    9.1938978 
  130000    1511.2797    21783.611    199923.88    399.87782   -8554.7885    9.2004207 
  131000    1500.7806    21845.923    195205.43    397.09983   -8549.5881     9.174178 
  132000    1472.4125    21864.415    191210.44    389.59374    -8558.036     9.166419 
  133000    1522.8836    21869.841    192743.93    402.94817   -8549.3978    9.1641445 
  134000    1491.0015    21800.784    199421.33     394.5123   -8548.1232    9.1931731 
  135000    1532.4208    21755.889    206847.77    405.47167   -8535.4272     9.212144 
  136000     1535.382    21777.464     204155.7     406.2552   -8540.8466    9.2030177 
  137000    1491.5551    21796.757    199512.95    394.65878   -8550.2258    9.1948718 
  138000    1546.2342    21850.949    195184.36    409.12665   -8550.6178    9.1720679 
  139000    1496.2643    21809.911    198461.46    395.90482   -8548.7502    9.1893261 
  140000    1491.8735     21781.72    202677.91    394.74304   -8541.5306    9.2012196 
  141000    1553.6406     21776.83    203853.43    411.08634   -8542.7636    9.2032858 
  142000    1551.1738    21796.199    200880.81    410.43362   -8544.0271    9.1951073 
  143000    1449.4119    21764.313    201060.01    383.50789   -8553.4405    9.2085784 
  144000    1523.2553     21879.06    192224.34    403.04652   -8551.7454    9.1602831 
  145000    1517.5206    21877.553    190860.05    401.52915   -8557.1479    9.1609142 
  146000    1489.4158    21787.562    200538.53    394.09273   -8548.6358    9.1987524 
  147000     1498.558    21791.026    202288.97    396.51172   -8538.9102    9.1972901 
  148000    1494.0593    21742.095    204712.69    395.32139   -8550.1403    9.2179887 
  149000    1517.5589    21770.024    204412.23    401.53929   -8539.5223    9.2061629 
  150000    1506.9322    21783.857    200075.96    398.72751   -8554.2035    9.2003169 
  151000    1509.0575    21880.124    189984.33    399.28986    -8559.913     9.159838 
  152000    1491.2432    21866.743    193367.46    394.57627   -8549.1355    9.1654432 
  153000    1445.9187    21819.633    198271.62    382.58361   -8543.7799    9.1852318 
  154000    1493.5989    21758.824     202520.7    395.19958   -8551.2313    9.2109015 
  155000    1567.3456    21819.278    198370.57    414.71262   -8549.6075    9.1853812 
  156000    1461.3118    21753.477    203779.28    386.65655   -8547.5366    9.2131655 
  157000    1483.2366    21845.302    196592.08    392.45776   -8540.4832    9.1744388 
  158000    1471.1147     21833.62    196035.09    389.25035   -8549.2999    9.1793474 
  159000    1512.3742     21816.47    197713.84    400.16742    -8550.494    9.1865636 
  160000    1520.2145    21773.188    203137.27    402.24194   -8544.9997    9.2048251 
  161000    1472.5195    21742.506    205498.79    389.62205   -8544.4037    9.2178143 
  162000    1490.9332    21778.992    202790.49    394.49424   -8542.8357    9.2023721 
  163000    1460.2298    21778.147    200478.42    386.37025   -8549.5319    9.2027291 
  164000    1518.8907    21812.082    200069.05    401.89167   -8543.8767    9.1884115 
  165000    1479.5743    21776.521    203094.18    391.48872   -8542.2172     9.203416 
  166000     1528.442    21736.173    206658.51    404.41891   -8543.2579    9.2205002 
  167000    1509.7625    21730.943    206517.83    399.47639   -8545.7245    9.2227192 
  168000    1503.7648     21821.53     200467.8    397.88943   -8537.4928    9.1844334 
  169000     1502.559    21847.262    196898.88    397.57038   -8541.4112    9.1736159 
  170000    1472.7934    21799.102    197935.36    389.69454   -8553.3484    9.1938829 
  171000    1517.6484    21815.967     198138.9    401.56297    -8548.596    9.1867753 
  172000    1515.3809    21763.809    202874.73      400.963   -8550.2006    9.2087918 
  173000    1484.8663    21709.315    212491.33    392.88897   -8526.4405    9.2319074 
  174000    1497.6268    21746.421    206969.82    396.26532   -8535.7456    9.2161551 
  175000     1518.867    21771.698    202745.31    401.88539    -8545.896    9.2054552 
  176000    1495.1999     21783.22     202153.7     395.6232    -8544.318    9.2005858 
  177000    1485.0964    21828.714    196339.56    392.94985   -8549.7087    9.1814108 
  178000    1480.6245    21824.993    197153.61    391.76659   -8547.9677    9.1829758 
  179000    1483.1781    21811.986    197626.72    392.44228   -8550.4588     9.188452 
  180000    1525.8652    21853.964    195306.69    403.73708   -8545.4943    9.1708023 
  181000    1482.3714    21793.724    198650.59    392.22883   -8555.4838    9.1961513 
  182000     1534.656    21773.864    204389.91    406.06311   -8539.2485    9.2045391 
  183000    1528.9008    21766.692    202896.91    404.54029   -8549.6133    9.2075723 
  184000    1494.7647    21814.567     195637.2    395.50803   -8560.1075     9.187365 
  185000    1480.1999     21805.92    196554.94    391.65426   -8560.1345     9.191008 
  186000    1504.1726    21757.061    205789.01    397.99733   -8538.6665     9.211648 
  187000    1524.8636    21758.374    205017.61    403.47206    -8543.989    9.2110921 
  188000     1487.214    21775.571    202725.49    393.51016   -8542.7478    9.2038179 
  189000    1430.2988    21779.428    199080.49    378.45064    -8554.504    9.2021879 
  190000    1519.3327    21822.002    197328.12    402.00861   -8550.0009    9.1842347 
  191000    1488.9641    21766.187    202283.61    393.97323   -8548.6879    9.2077858 
  192000    1516.0657     21787.62    202280.31    401.14418   -8541.5523    9.1987277 
  193000    1509.5597    21806.381    200793.64    399.42274   -8539.3656    9.1908138 
  194000    1480.5167    21815.383    198321.77    391.73807   -8545.5823    9.1870212 
  195000    1485.8029    21803.328    197991.02    393.13678    -8554.328    9.1921008 
  196000     1496.256    21784.999    200682.54    395.90262   -8552.0745    9.1998345 
  197000    1490.8994    21754.612    206336.37     394.4853   -8535.6153    9.2126847 
  198000    1565.3272    21736.146    208355.65    414.17856   -8539.0203    9.2205115 
  199000     1496.344    21770.865     202226.3     395.9259   -8548.9082    9.2058072 
  200000    1541.3854    21833.624    196226.37    407.84366   -8553.7352    9.1793461 
  201000    1493.8035    21862.202    193891.68     395.2537   -8548.2305    9.1673468 
  202000    1460.6267    21826.898    195876.07    386.47528   -8551.3197    9.1821744 
  203000    1493.4434    21786.219    202562.87    395.15842   -8540.6817    9.1993192 
  204000    1521.6006    21776.675    200638.25    402.60871   -8554.8837    9.2033512 
  205000    1472.5279    21797.154    200824.53    389.62429   -8540.9861    9.1947044 
  206000    1488.1897    21811.948    198054.22    393.76833   -8548.0571     9.188468 
  207000    1496.6707    21869.772    190651.52    396.01236   -8560.5801    9.1641736 
  208000    1501.8127    21846.496    197482.43    397.37291   -8538.3662    9.1739373 
  209000      1532.49    21773.603    200823.97    405.48997   -8553.9286    9.2046494 
  210000    1509.3952    21766.796    202494.69    399.37922    -8550.656    9.2075283 
  211000    1456.2181    21803.611    201548.17    385.30877   -8536.1358    9.1919812 
  212000    1529.9021    21828.071    196405.08    404.80524   -8553.2737     9.181681 
  213000    1493.6414     21797.61    198218.34    395.21082   -8554.2839     9.194512 
  214000    1503.5965    21851.366    197888.65    397.84489   -8533.5308    9.1718928 
  215000    1490.8533    21903.557    187570.99    394.47311   -8558.9892    9.1500384 
  216000    1488.8438    21862.787    194163.44    393.94139   -8546.0566    9.1671015 
  217000    1504.0313     21767.93    204214.93    397.95994   -8540.5432    9.2070486 
  218000    1541.3536    21758.556    206786.37    407.83525   -8533.0184    9.2110149 
  219000    1522.9953    21792.546    203725.76    402.97772   -8533.5109    9.1966484 
  220000    1499.7734    21823.833     196342.4    396.83331   -8555.3353    9.1834642 
  221000    1482.9326      21836.1    194845.83    392.37732   -8554.0282    9.1783049 
  222000    1507.4119    21819.732     196193.4    398.85444   -8555.1884    9.1851901 
  223000    1483.3647    21816.222    197537.28    392.49166   -8550.8358    9.1866678 
  224000     1444.045    21799.576    199505.15    382.08783   -8543.8742     9.193683 
  225000     1537.993    21772.437    203478.33    406.94606   -8544.4664    9.2051425 
  226000    1476.8848    21695.279    210092.58    390.77711    -8542.322      9.23788 
  227000    1507.2207    21817.389    201569.09    398.80384   -8531.6739    9.1861765 
  228000    1497.1001    21812.577    198089.74    396.12598   -8548.1446    9.1882029 
  229000    1522.1218    21817.275    199094.32     402.7466    -8541.408    9.1862247 
  230000    1521.7725    21764.941       201668    402.65417   -8555.0066    9.2083131 
  231000    1516.9983    21777.032    200557.92    401.39094   -8553.3553    9.2032004 
  232000    1498.9776    21859.719    191631.86    396.62276   -8559.9909    9.1683881 
  233000    1514.9903    21857.796    194079.93    400.85964   -8551.3018    9.1691947 
  234000    1490.5855    21818.633    196253.42    394.40225   -8556.3492    9.1856526 
  235000    1520.6673    21781.933    202648.02    402.36175   -8544.5272    9.2011297 
  236000    1519.0018    21757.587    203937.54    401.92105   -8546.9339    9.2114253 
  237000    1547.8359    21814.772    199545.05    409.55043   -8544.9819    9.1872787 
  238000    1466.3268    21821.117    196838.77    387.98349   -8551.4846    9.1846073 
  239000    1494.1559    21894.279    190331.08    395.34695   -8551.0341    9.1539158 
  240000    1528.1628    21866.651    190107.53    404.34504   -8568.3364    9.1654814 
  241000    1501.1234    21787.954    203518.97    397.19053   -8536.1929    9.1985868 
  242000    1497.5938    21769.473    202854.44     396.2566   -8546.4254    9.2063957 
  243000    1510.7748    21794.224    200239.66    399.74423   -8547.4096    9.1959406 
  244000    1517.8149     21833.62    199371.44    401.60701   -8535.1532    9.1793477 
  245000    1463.7548    21883.543    189314.63    387.30296   -8560.0493    9.1584065 
  246000    1515.1984    21863.374    192134.31     400.9147   -8557.2233    9.1668554 
  247000    1481.3793    21810.129    197321.76    391.96631   -8552.2126    9.1892344 
  248000    1499.5453    21849.329    198255.04    396.77296   -8533.1083    9.1727478 
  249000    1483.4718    21760.536    204483.98    392.51999   -8542.7307    9.2101768 
  250000    1579.9608    21761.772    207082.86    418.05055   -8533.1503    9.2096536 
Loop time of 503.457 on 8 procs for 250000 steps with 2048 atoms

Performance: 42.903 ns/day, 0.559 hours/ns, 496.567 timesteps/s
121.6% CPU use with 4 MPI tasks x 2 OpenMP threads

MPI task timing breakdown:
Section |  min time  |  avg time  |  max time  |%varavg| %total
---------------------------------------------------------------
Pair    | 289.94     | 296.22     | 301.02     |  24.6 | 58.84
Neigh   | 2.8076     | 2.8209     | 2.8298     |   0.5 |  0.56
Comm    | 20.309     | 25.222     | 31.518     |  84.2 |  5.01
Output  | 0.0059169  | 0.011453   | 0.013303   |   3.0 |  0.00
Modify  | 178.16     | 178.39     | 178.52     |   1.1 | 35.43
Other   |            | 0.7996     |            |       |  0.16

Nlocal:        512.000 ave         523 max         508 min
Histogram: 3 0 0 0 0 0 0 0 0 1
Nghost:        2935.75 ave        2949 max        2928 min
Histogram: 1 1 1 0 0 0 0 0 0 1
Neighs:        42941.5 ave       43903 max       41177 min
Histogram: 1 0 0 0 0 0 0 1 1 1

Total # of neighbors = 171766
Ave neighs/atom = 83.870117
Neighbor list builds = 3006
Dangerous builds = 0


# fix 132 all momentum 100 linear 1 1 1 angular
fix out_file_1 all print 1000 "$(step) $(temp) $(press) ${sys_press} $(vol) $(ke) $(pe) $(density)" file one_phase_${sim}_press_$P_$T_.txt screen no title  "step temp press pressGiga vol ke pe density"
fix out_file_1 all print 1000 "$(step) $(temp) $(press) ${sys_press} $(vol) $(ke) $(pe) $(density)" file one_phase_cooling_press_$P_$T_.txt screen no title  "step temp press pressGiga vol ke pe density"
fix out_file_1 all print 1000 "$(step) $(temp) $(press) ${sys_press} $(vol) $(ke) $(pe) $(density)" file one_phase_cooling_press_200000_$T_.txt screen no title  "step temp press pressGiga vol ke pe density"
fix out_file_1 all print 1000 "$(step) $(temp) $(press) ${sys_press} $(vol) $(ke) $(pe) $(density)" file one_phase_cooling_press_200000_1500_.txt screen no title  "step temp press pressGiga vol ke pe density"

# dump 3 all custom 1000 traj_npt_new.lammpstrj id type x y z
run 50000
Last active /omp style is pair_style eam/alloy/omp
Per MPI rank memory allocation (min/avg/max) = 4.323 | 4.323 | 4.323 Mbytes
Step Temp Volume Press KinEng PotEng Density 
  250000    1579.9608    21761.772    207082.86    418.05055   -8533.1503    9.2096536 
  251000    1524.8667     21743.38     204716.8     403.4729   -8549.8574    9.2174441 
  252000    1507.4453    21827.574    198693.35    398.86328   -8540.1525    9.1818902 
  253000    1498.0024    21846.599    191863.56    396.36472   -8563.6098    9.1738942 
  254000    1519.4594    21850.533    194412.37    402.04214   -8552.5752    9.1722423 
  255000    1522.0181    21798.219    200646.46    402.71916   -8545.6826    9.1942553 
  256000    1522.8071    21787.813    201894.69    402.92793   -8545.4633    9.1986461 
  257000    1472.1239    21739.992     206398.5    389.51737   -8542.2509    9.2188805 
  258000    1515.7907    21749.853    205618.54    401.07141   -8542.3835    9.2147008 
  259000    1482.3759    21756.654    201087.79    392.23002   -8558.1156    9.2118204 
  260000    1485.8483    21862.581    194367.41    393.14879   -8544.1966     9.167188 
  261000    1514.9102    21879.986     189769.7    400.83846   -8560.8868    9.1598957 
  262000    1533.9781    21858.343     195625.7    405.88373   -8543.7304    9.1689651 
  263000    1521.7753    21805.624    198190.11    402.65491   -8554.5721    9.1911327 
  264000    1547.5144     21801.27    198920.48    409.46538   -8553.7288    9.1929683 
  265000    1502.5525    21733.237    205629.29    397.56865   -8549.4236    9.2217459 
  266000      1506.98    21676.089    215239.59    398.74016   -8529.0663    9.2460584 
  267000     1488.941    21785.209    202637.38    393.96711   -8539.2077    9.1997459 
  268000     1479.472        21833    197632.84    391.46167    -8542.775    9.1796082 
  269000    1514.2107    21836.739    194169.79    400.65335   -8558.9895    9.1780366 
  270000    1459.2595    21827.383     196876.6    386.11352   -8547.2327    9.1819704 
  271000    1554.7363    21824.089    200342.11    411.37624   -8537.4224    9.1833564 
  272000     1519.468    21753.373       207845    402.04443   -8533.0528    9.2132097 
  273000    1499.3104    21759.285    204464.96     396.7108    -8542.908    9.2107063 
  274000    1497.9023    21787.194    199639.61    396.33824   -8553.0164    9.1989079 
  275000    1463.9125    21796.618    201929.38    387.34468   -8536.2733    9.1949304 
  276000    1478.6811    21781.368    204632.51    391.25239   -8531.9735    9.2013681 
  277000    1479.6391    21794.151    201970.92    391.50587   -8537.7718    9.1959712 
  278000     1483.729     21839.38    193844.71    392.58804   -8556.9351    9.1769264 
  279000    1480.3332    21846.397    194529.94    391.68952   -8550.3746     9.173979 
  280000    1453.2682    21834.491    198115.77    384.52826   -8539.0756    9.1789814 
  281000    1460.6775    21822.462    197369.34    386.48872   -8548.2344     9.184041 
  282000    1494.7348    21872.086    190345.78    395.50012   -8560.5587    9.1632042 
  283000    1510.0555     21918.08    189939.94    399.55391   -8543.2996    9.1439753 
  284000    1458.3852    21776.462    202763.48    385.88217   -8539.3212    9.2034413 
  285000    1515.5311    21803.795    200444.25    401.00273   -8542.4062    9.1919039 
  286000    1510.6571    21827.122    196777.86    399.71309   -8550.6218    9.1820805 
  287000    1525.8762    21776.995    202531.71    403.74001   -8547.1008    9.2032159 
  288000    1526.0097    21710.206    212499.93    403.77533   -8530.3735    9.2315286 
  289000    1474.5157    21752.736    203996.79    390.15024   -8547.9042    9.2134795 
  290000    1492.9742    21791.092    201827.89    395.03428   -8540.8271    9.1972621 
  291000    1489.6116     21792.42    199405.99    394.14454   -8552.6335    9.1967018 
  292000    1538.2548    21846.873    193997.45    407.01532   -8557.1887    9.1737792 
  293000    1504.7928    21838.253    195953.62    398.16143   -8548.5687    9.1774001 
  294000    1512.2836    21756.916    206188.59    400.14346    -8536.707    9.2117092 
  295000    1499.2809    21758.531    203887.17    396.70299   -8548.0248    9.2110258 
  296000    1573.6045    21853.478    196644.84    416.36871   -8542.7316    9.1710064 
  297000    1465.4541    21812.001    196123.57    387.75259   -8554.1686    9.1884456 
  298000    1551.1919    21826.651    195505.11    410.43843   -8559.3072    9.1822784 
  299000    1479.5475    21806.941     198358.4    391.48164    -8550.505    9.1905776 
  300000    1504.3922    21838.913    195436.53    398.05543   -8549.8235    9.1771228 
Loop time of 100.961 on 8 procs for 50000 steps with 2048 atoms

Performance: 42.789 ns/day, 0.561 hours/ns, 495.243 timesteps/s
121.5% CPU use with 4 MPI tasks x 2 OpenMP threads

MPI task timing breakdown:
Section |  min time  |  avg time  |  max time  |%varavg| %total
---------------------------------------------------------------
Pair    | 58.259     | 59.354     | 60.35      |  10.2 | 58.79
Neigh   | 0.56223    | 0.56586    | 0.57059    |   0.5 |  0.56
Comm    | 4.0277     | 5.0518     | 6.1506     |  35.1 |  5.00
Output  | 0.0011844  | 0.0018344  | 0.002053   |   0.9 |  0.00
Modify  | 35.789     | 35.826     | 35.847     |   0.4 | 35.49
Other   |            | 0.1609     |            |       |  0.16

Nlocal:        512.000 ave         518 max         509 min
Histogram: 1 1 1 0 0 0 0 0 0 1
Nghost:        2940.75 ave        2952 max        2934 min
Histogram: 2 0 0 0 1 0 0 0 0 1
Neighs:        42886.2 ave       44711 max       41468 min
Histogram: 1 1 0 0 0 1 0 0 0 1

Total # of neighbors = 171545
Ave neighs/atom = 83.762207
Neighbor list builds = 600
Dangerous builds = 0

unfix temp
unfix out_file_1


write_data after_${sim}_press_$P_$T.in
write_data after_cooling_press_$P_$T.in
write_data after_cooling_press_200000_$T.in
write_data after_cooling_press_200000_1500.in
System init for write_data ...
Last active /omp style is pair_style eam/alloy/omp
write_restart after_${sim}_press_$P_$T.lmp
write_restart after_cooling_press_$P_$T.lmp
write_restart after_cooling_press_200000_$T.lmp
write_restart after_cooling_press_200000_1500.lmp
System init for write_restart ...
Last active /omp style is pair_style eam/alloy/omp

next loopVar
jump in.lmp ensemble
























Total wall time: 1:01:40
