LAMMPS (29 Oct 2020)
OMP_NUM_THREADS environment is not set. Defaulting to 1 thread. (src/comm.cpp:94)
  using 1 OpenMP thread(s) per MPI task
package omp 0
using multi-threaded neighbor list subroutines
package omp 2
set 2 OpenMP thread(s) per MPI task
using multi-threaded neighbor list subroutines
units metal
dimension 3
boundary p p p


lattice fcc 3.5440
Lattice spacing in x,y,z = 3.5440000 3.5440000 3.5440000
region box block 0 8 0 8 0 8 units lattice
create_box 1 box
Created orthogonal box = (0.0000000 0.0000000 0.0000000) to (28.352000 28.352000 28.352000)
  1 by 1 by 2 MPI processor grid
create_atoms 1 box
Created 2048 atoms
  create_atoms CPU = 0.001 seconds


# read_restart after_heating_2300.lmp

variable P equal 0
variable dt equal 0.001
variable loopVar loop 22
variable sys_press equal "press/10000"
# print "step temp vol pe" file heating.txt screen no

pair_style eam/alloy
pair_coeff * * Co_Zhou04.eam.alloy Co
Reading eam/alloy potential file Co_Zhou04.eam.alloy with DATE: 2018-03-30




neighbor 2 bin
neigh_modify every 10 check yes

thermo 1000
thermo_style custom step temp vol press ke pe density

timestep $(dt)
timestep 0.0010000000000000000208

# fix 2 all npt temp 300 300 $(dt*100) iso 0 0 $(dt*1000)
# run 30000
# unfix 2





# dump_modify 1 append yes
# dump 3 all custom 10000 traj_npt_new.lammpstrj id type x y z

velocity all create 300 123123

print """
asdfasdfasdfasdfsadfasddsaffffffffffff
"""

asdfasdfasdfasdfsadfasddsaffffffffffff

label ensemble

print """
Hi HI Hi
"""

Hi HI Hi

variable T equal 200+${loopVar}*100
variable T equal 200+1*100
# velocity all create $T 123123
reset_timestep 0
fix 1 all npt temp $T $T $(dt*100) iso 0 0 $(dt*1000)
fix 1 all npt temp 300 $T $(dt*100) iso 0 0 $(dt*1000)
fix 1 all npt temp 300 300 $(dt*100) iso 0 0 $(dt*1000)
fix 1 all npt temp 300 300 0.10000000000000000555 iso 0 0 $(dt*1000)
fix 1 all npt temp 300 300 0.10000000000000000555 iso 0 0 1
print """
<--------------------------------------------------------------------->
<------------------ Equilibrating at temperature $T ----------------->
<--------------------------------------------------------------------->
"""

<--------------------------------------------------------------------->
<------------------ Equilibrating at temperature 300 ----------------->
<--------------------------------------------------------------------->

run 150000
Last active /omp style is pair_style eam/alloy/omp
Neighbor list info ...
  update every 10 steps, delay 10 steps, check yes
  max neighbors/atom: 2000, page size: 100000
  master list distance cutoff = 7.6035394
  ghost atom cutoff = 7.6035394
  binsize = 3.8017697, bins = 8 8 8
  1 neighbor lists, perpetual/occasional/extra = 1 0 0
  (1) pair eam/alloy/omp, perpetual
      attributes: half, newton on, omp
      pair build: half/bin/atomonly/newton/omp
      stencil: half/bin/3d/newton
      bin: standard
Per MPI rank memory allocation (min/avg/max) = 4.442 | 4.442 | 4.442 Mbytes
Step Temp Volume Press KinEng PotEng Density 
       0          300    22790.356    11400.454    79.378655    -9015.757        8.794 
    1000     307.2542    23137.955    1932.8865    81.298083   -8937.0978    8.6618884 
    2000    290.45981    23155.332    1338.4561    76.854362   -8932.9413    8.6553882 
    3000    289.31778    23164.698    354.04622    76.552187   -8934.2332    8.6518888 
    4000    310.90072    23166.868    34.700308    82.262937   -8936.2426    8.6510783 
    5000    291.62239    23162.022    291.59784    77.161978   -8935.3393    8.6528882 
    6000     300.6001    23176.451   -504.36076     79.53744   -8934.9648    8.6475013 
    7000    293.55817    23181.569    -1054.527    77.674177   -8935.5301     8.645592 
    8000    297.90477    23186.582   -1169.3588    78.824268   -8934.4006    8.6437228 
    9000    298.58127    23183.637   -708.33494    79.003264   -8933.3776    8.6448207 
   10000    285.56779    23178.239   -782.24728    75.559957   -8934.2087    8.6468341 
   11000    305.42719    23195.371   -2173.8556    80.814664   -8936.0793    8.6404476 
   12000    296.26244    23225.486   -4207.3943    78.389712   -8934.8996    8.6292439 
   13000    303.83542    23207.977   -2591.8823    80.393491   -8933.7688    8.6357544 
   14000    300.28618    23193.669    -1826.993    79.454377   -8935.4085    8.6410818 
   15000    299.50508    23192.718    -1634.198    79.247702   -8934.4959     8.641436 
   16000    307.80685    23186.103   -2064.2145    81.444312   -8939.1566    8.6439014 
   17000    298.47302    23201.435   -2776.6525    78.974623    -8936.814    8.6381892 
   18000    292.04406    23212.112   -3024.2208    77.273549   -8933.6889    8.6342158 
   19000    301.49367    23195.256   -2638.3533    79.773873   -8938.2566    8.6404904 
   20000    302.93986    23192.854   -1885.4016    80.156527   -8935.7314    8.6413853 
   21000     292.9399    23199.748   -2488.0875    77.510583   -8935.5573    8.6388174 
   22000    299.90413    23194.586   -1884.7941    79.353288   -8935.2035    8.6407399 
   23000    307.95826    23176.954   -981.91656    81.484375   -8937.4556    8.6473134 
   24000    295.98906    23172.489    7.9601698    78.317378    -8933.597    8.6489797 
   25000     304.0831    23185.423   -1522.5212    80.459025   -8936.5526    8.6441548 
   26000    296.09096    23201.497    -1995.583    78.344339   -8932.9955    8.6381661 
   27000    291.68953    23195.561   -2479.2961    77.179741   -8936.8807    8.6403766 
   28000    298.30944    23201.329   -2112.8797    78.931341   -8933.6002    8.6382286 
   29000    294.56764    23182.112   -1187.8923    77.941277   -8935.8873    8.6453895 
   30000    304.45186    23180.974    -732.5093    80.556597   -8934.3357    8.6458139 
   31000    297.33471    23165.835   -232.74366    78.673432    -8937.053    8.6514641 
   32000    301.37613    23161.926    747.83025    79.742773   -8933.9889    8.6529239 
   33000    300.82178    23135.572    2298.2587    79.596095   -8936.0458    8.6627808 
   34000    304.13338    23122.105    3348.1618    80.472328   -8936.2327     8.667826 
   35000    295.92098    23129.114    2213.7403    78.299364   -8938.4057    8.6651996 
   36000    297.22453    23148.031    1782.8209    78.644279   -8934.3305    8.6581182 
   37000    295.44478     23152.68    1109.7647    78.173365   -8935.5817    8.6563797 
   38000    305.51377    23159.877    1015.0986    80.837574   -8934.0125    8.6536895 
   39000    300.20141    23148.816    1107.0141    79.431946   -8936.8674    8.6578244 
   40000    297.88375    23142.226    2088.5419    78.818704   -8934.5632    8.6602898 
   41000    305.72727    23134.151    2235.5054    80.894065   -8937.1383    8.6633126 
   42000    302.26908    23124.929    3212.2797    79.979043    -8935.585    8.6667677 
   43000    302.89638    23122.694     3398.308    80.145024   -8935.5091    8.6676054 
   44000    298.15679    23143.969    1371.9854     78.89095   -8937.2914    8.6596376 
   45000    305.93511    23166.879    73.786664    80.949059   -8935.9106     8.651074 
   46000     304.9591    23158.305    749.85374    80.690811   -8935.7853    8.6542771 
   47000    299.00538    23149.096    1589.6186    79.115484   -8934.5625    8.6577196 
   48000    304.03021    23156.035    814.85073    80.445032    -8936.064    8.6551255 
   49000    304.45438    23169.152   -201.27006    80.557264   -8936.3696    8.6502252 
   50000    303.08453    23178.961    -547.0839    80.194807   -8934.1121    8.6465647 
   51000    301.59144    23174.669   -230.01386    79.799742   -8934.1642    8.6481663 
   52000    302.51056    23171.733   -180.36098    80.042938   -8935.0241    8.6492619 
   53000    295.77271     23179.42   -955.40893    78.260133   -8935.5933    8.6463935 
   54000    299.14805     23208.15   -2582.3661    79.153234   -8933.3044    8.6356901 
   55000    289.84129    23202.046   -3376.7891    76.690706   -8938.4589    8.6379619 
   56000    308.44608    23195.806   -1993.5854     81.61345   -8935.5021    8.6402857 
   57000    287.02972    23177.284   -745.19568    75.946778   -8934.7931    8.6471903 
   58000    297.98661    23184.829   -931.77353     78.84592   -8933.6461    8.6443764 
   59000    299.22114    23200.263   -2712.8028    79.172573   -8936.6145    8.6386257 
   60000     297.1339     23219.43   -3414.3269    78.620298   -8933.2316    8.6314949 
   61000    294.34785    23185.207   -1157.7377    77.883121   -8934.6293    8.6442355 
   62000    307.15588    23194.657   -1468.1204    81.272069   -8932.8761    8.6407135 
   63000    297.71011    23187.421   -1671.6852    78.772761   -8935.8772      8.64341 
   64000    287.66414    23194.355   -1970.6058    76.114642   -8934.4034     8.640826 
   65000    301.16373    23205.772   -2689.6277    79.686574   -8934.5471    8.6365748 
   66000    292.07318    23175.572   -875.61306    77.281254   -8936.5687    8.6478292 
   67000    299.10222    23181.445   -655.65553    79.141107   -8933.7824    8.6456382 
   68000    299.97206    23180.114     -375.194    79.371262   -8932.8981    8.6461347 
   69000    296.57234    23167.217   -75.400212    78.471712   -8936.0649    8.6509478 
   70000    305.14711    23161.775    790.86736    80.740558   -8934.2923    8.6529803 
   71000    292.87894    23144.024    1977.3922    77.494454   -8934.1924    8.6596171 
   72000    307.00419    23149.707    1215.0921    81.231933    -8936.451    8.6574914 
   73000    306.88379    23159.646    832.13922    81.200074   -8935.0446     8.653776 
   74000    293.68675    23138.747    1888.8139    77.708198   -8936.5714     8.661592 
   75000    303.42094    23132.852    2820.4462    80.283821   -8934.6925    8.6637993 
   76000    305.04902    23129.134    2696.1345    80.714603   -8936.8164     8.665192 
   77000    306.22394    23146.536    1539.9797    81.025482   -8936.5185    8.6586773 
   78000    293.40635    23154.337    899.46411    77.634005   -8935.5671    8.6557603 
   79000    297.88611    23169.084    768.20518     78.81933   -8931.5468    8.6502507 
   80000    292.39706    23153.996    949.26719     77.36695   -8935.3163    8.6558876 
   81000    307.19517     23158.12    929.86458    81.282465   -8935.1339    8.6543463 
   82000    299.50652    23121.117    3193.6504    79.248084   -8937.1664    8.6681966 
   83000    296.25874    23132.219    3034.7011    78.388735   -8933.8015    8.6640365 
   84000    304.31246    23146.583    2103.4625    80.519712   -8933.4562    8.6586596 
   85000    310.05607    23163.807    88.643323    82.039447   -8937.1232    8.6522215 
   86000    286.51246    23163.606   -3.7035668    75.809914   -8935.9151    8.6522965 
   87000    298.20674    23173.978   -217.57312    78.904167   -8934.3659    8.6484239 
   88000    298.87632    23169.986   -783.47215    79.081334    -8938.021    8.6499139 
   89000    293.80015    23179.302   -951.63579    77.738201   -8935.3583    8.6464374 
   90000    302.70444    23220.014   -3344.1737    80.094239   -8933.1771    8.6312775 
   91000    292.72111    23221.034   -3996.5909    77.452694   -8934.6232    8.6308985 
   92000    295.68102    23208.143     -2572.24    78.235872   -8933.4834    8.6356924 
   93000    293.91158     23183.74   -1685.0756    77.767686   -8937.5663    8.6447825 
   94000    298.36416    23192.389    -1702.318     78.94582   -8934.4862    8.6415587 
   95000    292.49761    23168.959   -758.83874    77.393556   -8938.0852    8.6502975 
   96000    311.94868    23170.575   -361.24306    82.540222   -8936.7363    8.6496941 
   97000    296.53566    23152.545    695.57473    78.462007   -8937.6469      8.65643 
   98000      300.164    23157.547    1087.4416    79.422049   -8934.4883    8.6545603 
   99000    293.65844     23150.41    948.30595    77.700707   -8937.0042    8.6572283 
  100000    302.68104    23157.185    881.17492    80.088045    -8935.325    8.6546957 
  101000     290.2998    23132.838    2942.7505    76.812024   -8933.7654    8.6638046 
  102000    298.43454    23133.826    2929.3137     78.96444   -8933.7754    8.6634347 
  103000     291.0635    23134.921    2455.3775    77.014096   -8934.7902    8.6630245 
  104000    300.90453    23143.849    1426.2765    79.617989   -8937.1703    8.6596828 
  105000    305.47439    23156.667    1067.0565    80.827154   -8934.8229    8.6548891 
  106000     303.2986    23150.644    1591.2417    80.251451   -8934.5012    8.6571407 
  107000    303.23769    23147.522    934.28477    80.235334   -8938.3042    8.6583086 
  108000    304.65598      23138.9    2379.2651    80.610606   -8934.5358    8.6615347 
  109000    303.26014    23127.057    2724.1303    80.241273   -8937.1749    8.6659702 
  110000    311.38255    23152.278    1225.4802    82.390427   -8935.6655    8.6565298 
  111000    293.04466     23161.05    100.45302    77.538303   -8936.7256    8.6532513 
  112000    301.62136    23170.871   -101.13116    79.807659   -8934.7861    8.6495838 
  113000    292.36675    23178.611   -824.05221     77.35893   -8934.9905    8.6466953 
  114000    301.28131    23211.176   -2471.8433    79.717683   -8932.2671    8.6345642 
  115000    297.31792    23207.829   -2727.3901    78.668989   -8933.8783    8.6358095 
  116000    294.37755    23178.033   -1031.0666    77.890981    -8936.107    8.6469109 
  117000    310.09421    23185.874   -1230.2724    82.049539   -8934.9199    8.6439865 
  118000    297.34797     23180.75   -1074.9392    78.676939   -8935.4252    8.6458976 
  119000    307.58632    23214.716   -2867.9011    81.385962   -8932.5597    8.6332473 
  120000    297.29763     23182.62   -1090.1685     78.66362   -8934.9996    8.6451999 
  121000    298.24155    23172.597   -419.37933    78.913377    -8935.533    8.6489395 
  122000    299.15398    23165.053    826.42618    79.154801   -8932.7712    8.6517558 
  123000    300.95066    23152.498    1276.5489    79.630196   -8934.8816    8.6564477 
  124000    303.26696    23119.043    3432.9042    80.243077   -8936.6533    8.6689742 
  125000    309.17972    23120.545    3189.0153    81.807567   -8937.4993    8.6684111 
  126000    296.22278    23137.395    2081.5661    78.379219   -8936.4624    8.6620981 
  127000    297.18747    23145.831    1946.7796    78.634473   -8934.0707    8.6589412 
  128000     302.5318    23137.848    2001.0367    80.048557    -8936.805    8.6619286 
  129000    297.45848    23129.001    2991.5426    78.706179   -8935.0447    8.6652418 
  130000    296.17683    23094.146    5664.6627    78.367062   -8934.6163    8.6783199 
  131000    308.01904    23139.577    1912.2324    81.500456   -8936.8009    8.6612814 
  132000    300.97423    23138.903    1865.8535    79.636432   -8936.7477    8.6615335 
  133000    304.09241    23152.188    1555.9574    80.461489   -8933.7015    8.6565637 
  134000    310.81362    23155.088    489.17024     82.23989   -8938.0032    8.6554794 
  135000    306.30051    23163.273    535.86765    81.045743    -8934.741     8.652421 
  136000    294.54865    23170.223   -662.99292    77.936251   -8937.4178    8.6498254 
  137000    295.55238    23179.565   -1179.6461    78.201836   -8936.6028    8.6463393 
  138000    307.91122    23188.168   -1500.8717     81.47193   -8936.0212    8.6431315 
  139000     300.6736    23175.543   -929.47513    79.556888   -8937.0823    8.6478399 
  140000    295.47634    23181.324   -530.74415    78.181716   -8933.0621    8.6456834 
  141000    304.76068    23197.262   -1860.2929     80.63831   -8934.2059    8.6397432 
  142000    295.51079    23206.189   -2933.2204    78.190829    -8935.294    8.6364196 
  143000    295.55989    23201.965   -2122.1134    78.203821    -8933.414    8.6379919 
  144000    299.70214    23180.229   -927.15787    79.299842   -8935.3992    8.6460918 
  145000    308.86699    23177.698   -718.57439    81.724821   -8935.7617    8.6470359 
  146000    289.09619    23167.506    -157.6838    76.493555   -8935.4459    8.6508398 
  147000    298.05326    23178.513   -403.73473    78.863558   -8933.9952    8.6467317 
  148000    305.32154    23176.795   -249.95092    80.786711   -8933.8082    8.6473727 
  149000     301.4247    23162.217    266.64261    79.755624   -8936.4721    8.6528153 
  150000    307.54001    23157.573     1005.372    81.373707   -8934.9002    8.6545504 
Loop time of 688.177 on 4 procs for 150000 steps with 2048 atoms

Performance: 18.832 ns/day, 1.274 hours/ns, 217.967 timesteps/s
134.4% CPU use with 2 MPI tasks x 2 OpenMP threads

MPI task timing breakdown:
Section |  min time  |  avg time  |  max time  |%varavg| %total
---------------------------------------------------------------
Pair    | 491.92     | 497.31     | 502.7      |  24.2 | 72.26
Neigh   | 0          | 0          | 0          |   0.0 |  0.00
Comm    | 28.34      | 34.314     | 40.289     | 102.0 |  4.99
Output  | 0.007429   | 0.0080582  | 0.0086873  |   0.7 |  0.00
Modify  | 155.35     | 155.94     | 156.53     |   4.7 | 22.66
Other   |            | 0.6039     |            |       |  0.09

Nlocal:        1024.00 ave        1024 max        1024 min
Histogram: 2 0 0 0 0 0 0 0 0 0
Nghost:        4289.00 ave        4289 max        4289 min
Histogram: 2 0 0 0 0 0 0 0 0 0
Neighs:        90112.0 ave       93143 max       87081 min
Histogram: 1 0 0 0 0 0 0 0 0 1

Total # of neighbors = 180224
Ave neighs/atom = 88.000000
Neighbor list builds = 0
Dangerous builds = 0

fix temp all print 100 "$(step) $(temp) $(press) ${sys_press} $(vol) $(ke) $(pe) $(density)" file temp_heat.txt screen no title  "step temp press pressGiga vol ke pe density"
# fix 132 all momentum 100 linear 1 1 1 angular
fix out_file_1 all print 1000 "$(step) $(temp) $(press) ${sys_press} $(vol) $(ke) $(pe) $(density)" file one_phase_heating_$T_.txt screen no title  "step temp press pressGiga vol ke pe density"
fix out_file_1 all print 1000 "$(step) $(temp) $(press) ${sys_press} $(vol) $(ke) $(pe) $(density)" file one_phase_heating_300_.txt screen no title  "step temp press pressGiga vol ke pe density"

# dump 3 all custom 1000 traj_npt_new.lammpstrj id type x y z
run 50000
Last active /omp style is pair_style eam/alloy/omp
Per MPI rank memory allocation (min/avg/max) = 4.442 | 4.442 | 4.442 Mbytes
Step Temp Volume Press KinEng PotEng Density 
  150000    307.54001    23157.573     1005.372    81.373707   -8934.9002    8.6545504 
  151000    296.69042    23139.153     2012.845    78.502954   -8936.0102    8.6614401 
  152000    312.55648    23157.751     1435.291    82.701045   -8933.1454    8.6544841 
  153000    295.99745    23152.751     1372.789    78.319598    -8934.168     8.656353 
  154000    297.82182    23148.996     1555.937    78.802318   -8934.9447    8.6577572 
  155000    306.02562    23147.519    1324.3053    80.973008   -8936.8987    8.6583098 
  156000    297.70714     23135.39    3198.6619    78.771974   -8931.8532    8.6628488 
  157000    298.63673     23136.98    2393.2651     79.01794   -8935.2556    8.6622536 
  158000    297.42884    23145.186    1804.5077    78.698338   -8935.1061    8.6591823 
  159000     295.6819    23151.546    1209.1478    78.236106   -8935.2218    8.6568037 
  160000    301.09237    23168.084    310.93548    79.667692   -8933.7979    8.6506242 
  161000     304.2627    23167.317    78.167366    80.506545    -8935.514    8.6509107 
  162000    287.35273    23156.517    633.77478    76.032243   -8935.6337    8.6549451 
  163000    301.64146    23175.052   -186.88508    79.812978   -8934.0585    8.6480232 
  164000    283.50753    23182.774   -999.39592    75.014822   -8933.8694    8.6451425 
  165000    296.85542    23183.185   -1110.2711    78.546614   -8935.0681    8.6449894 
  166000    302.22138    23183.553    -1214.659    79.966423   -8935.8618    8.6448523 
  167000    296.66258    23185.926   -1514.9141     78.49559   -8935.9255    8.6439672 
  168000    301.58944    23206.236   -2653.1074    79.799213   -8934.3546     8.636402 
  169000    300.27951    23230.543   -5013.8302    79.452612    -8937.344    8.6273657 
  170000    306.21654    23208.225    -2779.185    81.023524   -8934.8249    8.6356621 
  171000    290.68399    23169.533   -892.93425     76.91368   -8938.4127    8.6500831 
  172000    290.40914    23167.319    516.16964    76.840955   -8932.6937    8.6509096 
  173000    300.99798    23147.064    994.16992    79.642715   -8938.1764    8.6584797 
  174000    300.74696    23135.611    2522.8625    79.576298    -8935.204     8.662766 
  175000    292.58766    23131.167    2452.1082    77.417384   -8936.3747    8.6644305 
  176000    301.89667    23147.335    1419.5821    79.880507   -8936.0648    8.6583786 
  177000    304.25441    23162.511    620.46648    80.504352   -8934.5929    8.6527055 
  178000    296.53874    23150.663    739.91656    78.462822    -8937.858    8.6571338 
  179000     296.2919    23175.497   -293.70325    78.397509   -8934.0463     8.647857 
  180000    300.16738    23186.204   -1628.6196    79.422942   -8936.6187    8.6438638 
  181000    307.35377    23197.587   -1866.0741    81.324429    -8934.282     8.639622 
  182000    294.92934    23192.653   -1692.8997    78.036981   -8934.8889    8.6414602 
  183000    302.96227    23187.081     -1220.54    80.162457   -8934.8054    8.6435366 
  184000    296.69894    23168.298   -383.51169    78.505211   -8936.9751    8.6505442 
  185000    296.65667    23169.999    175.07311    78.494025   -8933.8037     8.649909 
  186000    295.28096    23164.868    569.28843    78.130019   -8933.5971    8.6518251 
  187000    296.96014    23164.494    908.35417    78.574321    -8932.202     8.651965 
  188000    299.35581    23154.511    1273.0218    79.208206   -8934.2801    8.6556951 
  189000    297.39725    23153.755    1165.3214     78.68998   -8934.6237    8.6559778 
  190000    301.87505    23164.748    48.383198    79.874784   -8936.5833    8.6518701 
  191000     295.7596    23165.807    234.37627    78.256664   -8934.9847    8.6514744 
  192000    303.15796    23168.543   -35.286874    80.214236   -8935.7095    8.6504528 
  193000      301.852    23174.635   -401.61107    79.868685   -8935.2785    8.6481788 
  194000    294.89749    23174.927   -547.42496    78.028554   -8935.3963    8.6480698 
  195000    293.70914    23196.937   -1426.2937    77.714122   -8931.4824    8.6398641 
  196000    298.76637    23211.426    -3324.605    79.052241   -8935.9273    8.6344709 
  197000    296.70306     23189.83   -1266.5937    78.506301   -8933.8536    8.6425121 
  198000    296.06468    23184.652   -1109.9664    78.337386   -8934.3372    8.6444425 
  199000    300.51528    23190.619   -1503.2256    79.514995   -8934.5033    8.6422182 
  200000    298.45731    23191.463    -2132.478    78.970467   -8937.2197    8.6419034 
Loop time of 229.12 on 4 procs for 50000 steps with 2048 atoms

Performance: 18.855 ns/day, 1.273 hours/ns, 218.226 timesteps/s
135.7% CPU use with 2 MPI tasks x 2 OpenMP threads

MPI task timing breakdown:
Section |  min time  |  avg time  |  max time  |%varavg| %total
---------------------------------------------------------------
Pair    | 164.35     | 165.5      | 166.65     |   9.0 | 72.23
Neigh   | 0          | 0          | 0          |   0.0 |  0.00
Comm    | 9.9273     | 11.285     | 12.643     |  40.4 |  4.93
Output  | 0.0021501  | 0.0026543  | 0.0031585  |   1.0 |  0.00
Modify  | 51.925     | 52.133     | 52.341     |   2.9 | 22.75
Other   |            | 0.1989     |            |       |  0.09

Nlocal:        1024.00 ave        1024 max        1024 min
Histogram: 2 0 0 0 0 0 0 0 0 0
Nghost:        4289.00 ave        4289 max        4289 min
Histogram: 2 0 0 0 0 0 0 0 0 0
Neighs:        83991.5 ave       87185 max       80798 min
Histogram: 1 0 0 0 0 0 0 0 0 1

Total # of neighbors = 167983
Ave neighs/atom = 82.022949
Neighbor list builds = 0
Dangerous builds = 0

unfix temp
unfix out_file_1
unfix 1
# # clear
# write_data after_cooling_$T.in
# write_restart after_cooling_$T.lmp
next loopVar
# # thermo_modify flush yes
jump in.lmp ensemble

print """
Hi HI Hi
"""

Hi HI Hi

variable T equal 200+${loopVar}*100
variable T equal 200+2*100
# velocity all create $T 123123
reset_timestep 0
fix 1 all npt temp $T $T $(dt*100) iso 0 0 $(dt*1000)
fix 1 all npt temp 400 $T $(dt*100) iso 0 0 $(dt*1000)
fix 1 all npt temp 400 400 $(dt*100) iso 0 0 $(dt*1000)
fix 1 all npt temp 400 400 0.10000000000000000555 iso 0 0 $(dt*1000)
fix 1 all npt temp 400 400 0.10000000000000000555 iso 0 0 1
print """
<--------------------------------------------------------------------->
<------------------ Equilibrating at temperature $T ----------------->
<--------------------------------------------------------------------->
"""

<--------------------------------------------------------------------->
<------------------ Equilibrating at temperature 400 ----------------->
<--------------------------------------------------------------------->

run 150000
Last active /omp style is pair_style eam/alloy/omp
Per MPI rank memory allocation (min/avg/max) = 4.442 | 4.442 | 4.442 Mbytes
Step Temp Volume Press KinEng PotEng Density 
       0    298.45731    23191.463    -2132.478    78.970467   -8937.2197    8.6419034 
    1000    381.80365    23257.771    77.562281    101.02353   -8908.2765    8.6172653 
    2000    415.46884    23223.448    3189.7518    109.93119   -8907.9052    8.6300014 
    3000    398.57744    23190.745    5376.6523     105.4618   -8907.7795    8.6421713 
    4000    401.22409    23260.304    304.65348     106.1621   -8907.3731    8.6163272 
    5000    399.57852    23304.016   -2050.4462    105.72669   -8903.2354    8.6001653 
    6000    391.69902    23288.284   -1894.0426     103.6418   -8907.0457     8.605975 
    7000    414.85351    23277.214   -450.91459    109.76838   -8905.5545    8.6100676 
    8000    400.55897     23222.84     2833.996    105.98611   -8908.5768    8.6302274 
    9000    403.44391    23201.389    4735.5042    106.74945   -8907.5999    8.6382063 
   10000    387.86126    23241.322    1019.6482    102.62635   -8909.8973    8.6233642 
   11000    394.85194    23278.158   -1085.0284    104.47605   -8907.1816    8.6097186 
   12000    394.17604     23280.79   -1260.0596    104.29721   -8907.2433     8.608745 
   13000    406.84135    23273.035    63.967968     107.6484   -8904.4092    8.6116135 
   14000    407.87426     23182.94    5935.2991     107.9217   -8908.6434    8.6450809 
   15000    393.87438    23222.828    2730.7371     104.2174   -8908.7456    8.6302318 
   16000     395.7094    23261.932    417.13079    104.70293   -8905.9018    8.6157239 
   17000    395.70047    23286.929   -1370.1343    104.70057   -8905.9132    8.6064757 
   18000     400.9476    23289.449   -2249.1948    106.08894    -8909.124    8.6055445 
   19000    408.46162    23274.547   -621.74647    108.07711   -8907.1723    8.6110541 
   20000    405.31782    23218.485    2886.7051    107.24528   -8910.3529    8.6318461 
   21000    407.06648    23220.604     3292.204    107.70797   -8907.9332    8.6310582 
   22000    390.61197    23257.667    421.45796    103.35418   -8907.0835     8.617304 
   23000    390.78005    23273.593    -1223.883    103.39865   -8909.1415    8.6114071 
   24000    394.63051    23275.894   -1549.9738    104.41746   -8909.6982    8.6105561 
   25000    396.51989    23263.899    -243.9164    104.91739   -8908.1697    8.6149957 
   26000    401.94093    23189.906    5411.1989    106.35177   -8908.0859    8.6424836 
   27000    403.38404    23224.988    2619.7145    106.73361   -8908.9843    8.6294291 
   28000    399.48906    23257.194    1062.5213    105.70301   -8905.0401    8.6174792 
   29000    395.96068    23279.364   -971.11464    104.76942   -8906.9616    8.6092724 
   30000    396.57358    23314.161   -3802.7142    104.93159   -8907.1708    8.5964227 
   31000    395.41667    23301.162   -3374.3717    104.62548   -8910.0787    8.6012186 
   32000    404.88074    23251.941    965.46159    107.12963   -8907.9164    8.6194262 
   33000    399.39086    23234.644    1628.2753    105.67703   -8910.2644    8.6258428 
   34000    400.08578    23243.074    2286.0273     105.8609   -8904.7616    8.6227141 
   35000    391.96515    23254.085    363.99496    103.71222   -8909.1083    8.6186314 
   36000    400.49893    23318.537    -4020.042    105.97022   -8906.9072    8.5948098 
   37000    384.18712    23309.485   -4331.2085    101.65419   -8911.1253    8.5981472 
   38000    404.89498    23269.686   -191.33533     107.1334   -8906.9477     8.612853 
   39000    396.83034    23244.687    653.64362    104.99953   -8911.1347    8.6221159 
   40000    412.24366    23244.804    1295.6458    109.07782   -8908.4811    8.6220727 
   41000    402.90293    23271.238   -1303.0196    106.60631   -8910.4224    8.6122787 
   42000    395.54494     23343.32    -5651.522    104.65942   -8905.8526    8.5856847 
   43000    404.95699    23312.375   -4140.5366     107.1498    -8909.788    8.5970815 
   44000    405.40413    23269.487    -408.0459    107.26812   -8907.5891    8.6129267 
   45000    406.09044    23242.326    1750.6856    107.44971   -8906.9578    8.6229918 
   46000    409.22856    23243.632    869.65923    108.28004    -8910.724    8.6225072 
   47000    388.91324    23260.994    512.36247     102.9047   -8906.0787    8.6160713 
   48000    404.77707    23272.715     -453.314     107.1022   -8906.7182    8.6117322 
   49000    401.30894    23265.239   -1370.5718    106.18455   -8913.3139    8.6144994 
   50000    403.61926    23273.237   -882.43271    106.79585   -8908.5301     8.611539 
   51000    415.88897    23269.278    194.60599    110.04236   -8905.4889    8.6130042 
   52000    408.33076    23259.775   -212.82365    108.04249   -8910.6595    8.6165231 
   53000     409.2738    23259.452     1434.137    108.29201   -8903.1655    8.6166428 
   54000    391.02039    23258.221    717.54553    103.46224   -8905.5861    8.6170986 
   55000    397.08135    23287.055   -1951.6768    105.06595   -8908.1549    8.6064289 
   56000     396.6725    23303.098   -2817.7567    104.95776   -8907.2522    8.6005038 
   57000    408.83095     23281.64   -1327.7734    108.17484    -8908.166    8.6084307 
   58000    382.56881    23236.118     2337.633    101.22599   -8905.5449    8.6252955 
   59000    404.32433    23235.713    1964.0715    106.98241   -8908.5185    8.6254461 
   60000    398.59346    23264.719   -60.910363    105.46604   -8907.2969    8.6146919 
   61000    391.91799    23288.683   -2162.3242    103.69974   -8908.4513    8.6058275 
   62000    404.20916    23327.753   -4487.1911    106.95193   -8906.3331    8.5914142 
   63000    394.38996    23265.787   -367.13833    104.35381   -8908.2087    8.6142963 
   64000    402.08893    23246.425    993.67925    106.39093   -8909.0318    8.6214712 
   65000     389.7276    23234.276    1415.2018    103.12017   -8910.1845    8.6259793 
   66000    403.34104    23264.274    227.09088    106.72223   -8906.4966    8.6148565 
   67000    389.61571    23307.054   -2891.7728    103.09057   -8905.4525    8.5990441 
   68000    394.41372    23310.929   -3286.9827     104.3601   -8906.1534    8.5976146 
   69000    405.79656    23276.398   -917.97811    107.37195    -8907.743    8.6103694 
   70000    393.70335    23233.495    2006.9391    104.17214   -8908.2497    8.6262696 
   71000    404.53153    23233.932    2670.7798    107.03723   -8906.0127    8.6261072 
   72000    400.26709    23240.151    1009.9775    105.90888   -8911.0715    8.6237989 
   73000    407.36047    23276.672   -704.62649    107.78575   -8906.2599    8.6102679 
   74000    402.20348     23271.31   -950.08971    106.42124   -8910.1055    8.6122521 
   75000    410.64188    23282.401   -636.29921      108.654   -8904.5496    8.6081493 
   76000    391.05579    23250.106    1030.2353    103.47161   -8907.3491    8.6201063 
   77000    398.14366    23228.795    2306.5147    105.34703   -8909.1162    8.6280149 
   78000    386.63623     23223.42    3196.8213    102.30221   -8905.9937    8.6300117 
   79000    404.98809    23264.477   -170.78169    107.15803   -8908.5633    8.6147814 
   80000    400.14491    23292.185   -2795.7024    105.87655   -8910.4945    8.6045335 
   81000    402.49728    23289.918   -2124.9178    106.49898   -8908.2923    8.6053712 
   82000     394.3702    23271.642    -427.5583    104.34859   -8906.2381    8.6121292 
   83000    399.61237    23258.474    319.57853    105.73564   -8907.5373     8.617005 
   84000    392.19151     23248.31    2178.3623    103.77211   -8902.5466    8.6207723 
   85000    400.50417    23248.702    1118.1411    105.97161   -8907.4029     8.620627 
   86000    403.70015    23271.105   -864.63773    106.81725   -8909.3039     8.612328 
   87000    395.45846    23326.961   -4493.0319    104.63654   -8906.1296    8.5917058 
   88000    400.58103    23299.622   -2381.6018    105.99194   -8906.2953    8.6017869 
   89000    404.06534    23264.886    175.66658    106.91388    -8906.817    8.6146301 
   90000    399.86654    23224.505    2705.6021    105.80289   -8909.1648    8.6296087 
   91000    402.98298    23237.734    2255.6508    106.62749   -8906.2978    8.6246959 
   92000     402.5069    23257.692    469.50639    106.50152   -8907.3144    8.6172946 
   93000    392.66142    23266.778   -622.65405    103.89645   -8909.0853    8.6139295 
   94000    395.43658    23257.531    435.87135    104.63075   -8907.6056    8.6173545 
   95000    391.06045    23257.517    582.98992    103.47284   -8906.5025    8.6173594 
   96000    384.46293    23281.006   -1679.2568    101.72717   -8909.3362     8.608665 
   97000    387.21833    23313.754   -3171.4539    102.45623   -8904.2439     8.596573 
   98000    404.81965    23292.568   -1713.9134    107.11346   -8905.4147    8.6043919 
   99000    397.90033      23252.8    108.55295    105.28264   -8910.5593    8.6191078 
  100000    405.06084    23256.435     1076.335    107.17728   -8905.2618    8.6177605 
  101000    403.76613    23262.363     237.3874    106.83471    -8907.735    8.6155642 
  102000    391.81466    23272.752   -1080.9605     103.6724   -8908.5355    8.6117182 
  103000    400.12855    23280.837   -552.22087    105.87222   -8904.1602    8.6087278 
  104000    391.54582    23253.958    1165.9206    103.60127   -8905.2793    8.6186785 
  105000    402.68831    23254.487    1061.1637    106.54952   -8906.0894    8.6184824 
  106000    399.30538    23261.431    48.286777    105.65441   -8908.1479    8.6159095 
  107000    413.87673    23286.282   -1564.3728    109.50993   -8907.5087    8.6067148 
  108000     392.9068    23296.991    -3010.535    103.96138   -8909.2957    8.6027586 
  109000    402.38139    23261.053    393.13096    106.46831   -8906.6598    8.6160497 
  110000    397.48963    23226.347     2813.635    105.17398   -8907.3309    8.6289241 
  111000    395.89581    23248.794    985.46575    104.75226    -8908.427    8.6205928 
  112000    391.34977    23267.939    -557.1462     103.5494   -8908.2442    8.6134998 
  113000    398.89671    23275.868   -745.52174    105.54628   -8906.6424    8.6105656 
  114000    390.29717    23249.633    714.05161    103.27088    -8908.923    8.6202816 
  115000    400.93411    23243.953    1235.5656    106.08537   -8908.9072    8.6223882 
  116000    390.56229    23229.255    2508.4759    103.34103   -8907.6715    8.6278441 
  117000    402.17774      23254.6    959.16896    106.41443   -8906.4022    8.6184406 
  118000    393.07042    23281.254    -1725.898    104.00467   -8909.2349    8.6085736 
  119000    399.29195    23297.395   -2669.2589    105.65086   -8908.3679    8.6026092 
  120000    392.49597     23299.85   -2071.1741    103.85267   -8904.1683    8.6017029 
  121000    400.72058    23264.596   -563.91867    106.02887    -8909.997    8.6147373 
  122000      405.709    23246.658    1783.7621    107.34878   -8905.3484     8.621385 
  123000    402.25451    23252.324    1306.4499    106.43474   -8905.6735    8.6192842 
  124000    391.93551    23260.591   -158.13233    103.70438    -8908.985    8.6162206 
  125000    393.78298    23281.942    -459.6939    104.19321   -8903.0056     8.608319 
  126000     390.7806    23273.264   -1079.9916    103.39879   -8908.8906     8.611529 
  127000    398.02466    23250.418    1490.4678    105.31554    -8904.822    8.6199907 
  128000    403.88759    23227.142    2132.5786    106.86685   -8910.7954    8.6286289 
  129000    417.56049    23227.893    2530.7653    110.48463   -8909.2759    8.6283498 
  130000      394.228    23267.347   -182.51414    104.31096   -8907.1319    8.6137189 
  131000    407.18839    23308.934   -2853.9079    107.74022   -8905.5917    8.5983506 
  132000    386.05641    23280.987   -979.00238    102.14879   -8905.6056    8.6086721 
  133000     403.1497    23268.469    -625.4749     106.6716   -8908.8158    8.6133034 
  134000    405.15216    23239.006      1575.77    107.20145   -8909.7437    8.6242236 
  135000    403.95441    23210.602    3689.0501    106.88453   -8909.4226    8.6347776 
  136000    395.80934    23242.637    2138.3453    104.72938    -8905.008    8.6228764 
  137000    394.85884    23275.382   -659.19305    104.47788   -8906.4281    8.6107453 
  138000    403.52171    23269.781   -841.78613    106.77004   -8909.3148    8.6128178 
  139000    405.76727    23267.926   -355.80249     107.3642   -8907.6288    8.6135044 
  140000    403.53839    23267.601   -592.96926    106.77445   -8909.4712    8.6136249 
  141000     386.1902    23310.926   -2883.6495     102.1842   -8903.5996    8.5976158 
  142000     390.2863    23303.727   -3305.8754      103.268   -8908.3982    8.6002718 
  143000    393.35755    23255.662    332.58234    104.08064   -8908.3744     8.618047 
  144000    399.89365    23242.986    1094.9175    105.81007   -8909.7007     8.622747 
  145000    401.56775    23249.662    1064.6707    106.25303   -8906.9309    8.6202708 
  146000    386.84422    23257.041    4.5029354    102.35725   -8907.9817    8.6175358 
  147000    414.60439    23283.212   -1949.2906    109.70246   -8910.6029    8.6078495 
  148000    402.42655    23274.222   -1220.9182    106.48026   -8909.7866    8.6111744 
  149000    400.67059    23252.593    1364.8136    106.01564   -8904.8242    8.6191842 
  150000    404.62477    23196.322    4286.7075     107.0619   -8911.1977    8.6400933 
Loop time of 687.564 on 4 procs for 150000 steps with 2048 atoms

Performance: 18.849 ns/day, 1.273 hours/ns, 218.161 timesteps/s
136.5% CPU use with 2 MPI tasks x 2 OpenMP threads

MPI task timing breakdown:
Section |  min time  |  avg time  |  max time  |%varavg| %total
---------------------------------------------------------------
Pair    | 489.4      | 496.76     | 504.13     |  33.0 | 72.25
Neigh   | 0          | 0          | 0          |   0.0 |  0.00
Comm    | 28.995     | 36.902     | 44.809     | 130.2 |  5.37
Output  | 0.0082632  | 0.0088184  | 0.0093737  |   0.6 |  0.00
Modify  | 152.73     | 153.28     | 153.84     |   4.5 | 22.29
Other   |            | 0.6048     |            |       |  0.09

Nlocal:        1024.00 ave        1041 max        1007 min
Histogram: 1 0 0 0 0 0 0 0 0 1
Nghost:        4289.00 ave        4306 max        4272 min
Histogram: 1 0 0 0 0 0 0 0 0 1
Neighs:        83879.0 ave       88665 max       79093 min
Histogram: 1 0 0 0 0 0 0 0 0 1

Total # of neighbors = 167758
Ave neighs/atom = 81.913086
Neighbor list builds = 0
Dangerous builds = 0

fix temp all print 100 "$(step) $(temp) $(press) ${sys_press} $(vol) $(ke) $(pe) $(density)" file temp_heat.txt screen no title  "step temp press pressGiga vol ke pe density"
# fix 132 all momentum 100 linear 1 1 1 angular
fix out_file_1 all print 1000 "$(step) $(temp) $(press) ${sys_press} $(vol) $(ke) $(pe) $(density)" file one_phase_heating_$T_.txt screen no title  "step temp press pressGiga vol ke pe density"
fix out_file_1 all print 1000 "$(step) $(temp) $(press) ${sys_press} $(vol) $(ke) $(pe) $(density)" file one_phase_heating_400_.txt screen no title  "step temp press pressGiga vol ke pe density"

# dump 3 all custom 1000 traj_npt_new.lammpstrj id type x y z
run 50000
Last active /omp style is pair_style eam/alloy/omp
Per MPI rank memory allocation (min/avg/max) = 4.442 | 4.442 | 4.442 Mbytes
Step Temp Volume Press KinEng PotEng Density 
  150000    404.62477    23196.322    4286.7075     107.0619   -8911.1977    8.6400933 
  151000    399.79107    23236.701    1714.9984    105.78292   -8909.4187    8.6250792 
  152000    408.73819    23282.862   -712.39798    108.15029   -8904.9482    8.6079791 
  153000    392.85246    23266.463   -174.67774      103.947    -8906.726     8.614046 
  154000    406.04415    23272.554    151.30534    107.43746    -8903.745    8.6117916 
  155000    404.42105    23261.821   -51.835562      107.008   -8907.9226     8.615765 
  156000    375.31014    23270.703   -430.17742    99.305382   -8905.4644    8.6124765 
  157000    401.24247    23307.654   -3129.1737    106.16696   -8906.7992    8.5988228 
  158000    385.48255    23264.485   -301.76937    101.99695   -8907.7104    8.6147786 
  159000    408.86461    23238.467    1739.4674    108.18374   -8908.8846    8.6244238 
  160000    402.56147    23249.248    1160.4491    106.51596   -8907.5012    8.6204244 
  161000    409.61907    23282.102    -372.8611    108.38337   -8903.5861    8.6082598 
  162000    404.66259    23277.955   -1337.4812    107.07191   -8909.1031    8.6097936 
  163000    401.02711    23273.866   -965.69739    106.10998   -8908.4445    8.6113062 
  164000    402.59651    23256.787    1099.1883    106.52523   -8905.1753    8.6176301 
  165000    397.87907    23215.619    3418.0109    105.27702   -8908.8701    8.6329116 
  166000    391.15839    23226.015    2350.0862    103.49876   -8909.5043    8.6290474 
  167000    406.34413    23266.074   -104.14653    107.51683   -8908.2367    8.6141903 
  168000    399.26401    23260.034   -674.79074    105.64347   -8911.8152    8.6164269 
  169000    401.86232    23252.875    833.91577    106.33097   -8907.5115      8.61908 
  170000    404.85914    23250.702     585.5317    107.12391     -8909.63    8.6198854 
  171000    408.31256    23251.262      1508.25    108.03767   -8905.4967    8.6196777 
  172000    403.76538    23265.284    -2.989695    106.83451   -8906.7048    8.6144825 
  173000    400.63892    23306.216   -3052.5047    106.00726   -8907.1671    8.5993535 
  174000    400.86237    23305.533    -2798.088    106.06639   -8906.1955    8.5996052 
  175000     394.1625    23266.845   -490.35392    104.29363    -8908.729    8.6139047 
  176000    404.01645    23265.639    496.81201    106.90094   -8904.6153    8.6143513 
  177000      397.528     23245.02    1152.5602    105.18413   -8908.6065    8.6219925 
  178000    393.65805    23225.205     2491.651    104.16016    -8909.081    8.6293484 
  179000    395.65819    23246.343    1719.5563    104.68938   -8905.8215    8.6215019 
  180000    392.75729    23281.338    -2081.996    103.92182   -8910.3742    8.6085426 
  181000    407.15227    23295.836   -2749.6385    107.73066   -8909.4747    8.6031848 
  182000     404.9214    23273.938   -663.80011    107.14039   -8907.6244    8.6112795 
  183000    396.52734    23239.344    2145.9849    104.91936   -8905.3154    8.6240984 
  184000    403.71278     23211.46    3745.1101    106.82059   -8908.3564    8.6344585 
  185000    383.91331    23246.387    845.15725    101.58174    -8909.261    8.6214854 
  186000    414.64196    23300.638   -2737.8614     109.7124   -8908.2171    8.6014121 
  187000    395.15304    23280.133   -1829.3029    104.55572   -8910.2714     8.608988 
  188000    406.28776    23275.706   -943.38061    107.50192   -8908.0488    8.6106256 
  189000    404.33949    23234.508    2000.6644    106.98642   -8908.7677    8.6258932 
  190000    406.04271    23209.066    4223.5621    107.43708   -8907.1604    8.6353492 
  191000    396.96984    23243.041    1573.9347    105.03644   -8907.4861    8.6227266 
  192000    409.65627    23291.363   -1087.7258    108.39321    -8904.009    8.6048372 
  193000    394.85527      23279.8   -1409.6421    104.47694   -8907.7762    8.6091112 
  194000     405.0334    23283.789   -1845.3658    107.17002   -8909.4496    8.6076362 
  195000     392.8804    23247.468    550.08022    103.95439   -8910.0804    8.6210844 
  196000    404.12055    23195.402    5398.8169    106.92849   -8906.5836    8.6404362 
  197000    403.68456    23232.838    2123.5422    106.81312   -8908.3081    8.6265132 
  198000    410.04663    23273.525   -1153.1784     108.4965   -8909.6934    8.6114323 
  199000    399.50045     23274.97   -1201.4448    105.70603   -8909.4738    8.6108977 
  200000    396.89243    23290.681   -1658.0905    105.01596   -8905.5888    8.6050891 
Loop time of 218.782 on 4 procs for 50000 steps with 2048 atoms

Performance: 19.746 ns/day, 1.215 hours/ns, 228.538 timesteps/s
140.8% CPU use with 2 MPI tasks x 2 OpenMP threads

MPI task timing breakdown:
Section |  min time  |  avg time  |  max time  |%varavg| %total
---------------------------------------------------------------
Pair    | 157.55     | 158.78     | 160        |   9.7 | 72.57
Neigh   | 0          | 0          | 0          |   0.0 |  0.00
Comm    | 7.5191     | 8.8086     | 10.098     |  43.4 |  4.03
Output  | 0.0019378  | 0.0025251  | 0.0031125  |   1.2 |  0.00
Modify  | 50.952     | 51.014     | 51.075     |   0.9 | 23.32
Other   |            | 0.1803     |            |       |  0.08

Nlocal:        1024.00 ave        1036 max        1012 min
Histogram: 1 0 0 0 0 0 0 0 0 1
Nghost:        4289.00 ave        4301 max        4277 min
Histogram: 1 0 0 0 0 0 0 0 0 1
Neighs:        83398.0 ave       85507 max       81289 min
Histogram: 1 0 0 0 0 0 0 0 0 1

Total # of neighbors = 166796
Ave neighs/atom = 81.443359
Neighbor list builds = 0
Dangerous builds = 0

unfix temp
unfix out_file_1
unfix 1
# # clear
# write_data after_cooling_$T.in
# write_restart after_cooling_$T.lmp
next loopVar
# # thermo_modify flush yes
jump in.lmp ensemble

print """
Hi HI Hi
"""

Hi HI Hi

variable T equal 200+${loopVar}*100
variable T equal 200+3*100
# velocity all create $T 123123
reset_timestep 0
fix 1 all npt temp $T $T $(dt*100) iso 0 0 $(dt*1000)
fix 1 all npt temp 500 $T $(dt*100) iso 0 0 $(dt*1000)
fix 1 all npt temp 500 500 $(dt*100) iso 0 0 $(dt*1000)
fix 1 all npt temp 500 500 0.10000000000000000555 iso 0 0 $(dt*1000)
fix 1 all npt temp 500 500 0.10000000000000000555 iso 0 0 1
print """
<--------------------------------------------------------------------->
<------------------ Equilibrating at temperature $T ----------------->
<--------------------------------------------------------------------->
"""

<--------------------------------------------------------------------->
<------------------ Equilibrating at temperature 500 ----------------->
<--------------------------------------------------------------------->

run 150000
Last active /omp style is pair_style eam/alloy/omp
Per MPI rank memory allocation (min/avg/max) = 4.442 | 4.442 | 4.442 Mbytes
Step Temp Volume Press KinEng PotEng Density 
       0    396.89243    23290.681   -1658.0905    105.01596   -8905.5888    8.6050891 
    1000    491.08837    23322.383    2135.2423    129.93978   -8882.1836    8.5933925 
    2000    508.16757    23356.452    248.23513    134.45886   -8880.4724    8.5808576 
    3000    503.61686    23416.337   -4032.1976    133.25476   -8878.6793     8.558913 
    4000    500.37539    23300.382    2500.8818    132.39709   -8888.6852    8.6015065 
    5000    501.87051    23391.483   -1707.0419    132.79269   -8876.7831    8.5680067 
    6000     485.2086    23333.588     2169.605    128.38402   -8878.3647    8.5892656 
    7000    513.83903    23367.538   -367.34574     135.9595   -8879.4536    8.5767868 
    8000     493.3848    23420.789   -4173.5177    130.54741   -8877.2849     8.557286 
    9000    498.20859     23314.45    3554.7408    131.82376    -8879.269    8.5963164 
   10000    504.20148    23391.856   -1982.9415    133.40945   -8878.0983    8.5678703 
   11000    489.06235    23346.268    120.39381    129.40371   -8883.2404    8.5846005 
   12000     508.2297    23344.716    974.78884     134.4753   -8880.7636    8.5851713 
   13000      495.073    23413.217   -3390.9378     130.9941    -8876.937    8.5600532 
   14000     492.8546    23302.449    3862.8645    130.40712   -8881.5281    8.6007435 
   15000    497.19727    23374.831   -543.65976    131.55617   -8876.6347    8.5741105 
   16000    488.30887     23362.53   -987.61886    129.20434   -8882.8286     8.578625 
   17000    500.16411    23355.473   -64.184686    132.34118   -8881.5552    8.5812172 
   18000    508.30173    23378.116   -580.43768    134.49436   -8876.1682    8.5729056 
   19000    506.42373    23349.575    340.72043    133.99745   -8881.6735    8.5833849 
   20000    490.63302    23339.192    597.14686     129.8193   -8883.4485    8.5872032 
   21000    503.33132    23386.158   -2615.4828    133.17921   -8882.9478    8.5699578 
   22000    501.50931    23332.588    1845.7175    132.69711   -8880.6651    8.5896339 
   23000    494.32547    23375.985   -795.55865     130.7963   -8877.0542    8.5736872 
   24000    498.87917    23389.746   -2701.5187    132.00119   -8881.7004     8.568643 
   25000    496.01066    23334.406    2334.9267     131.2422   -8877.8303    8.5889646 
   26000    500.33926    23367.345   -1104.5005    132.38752   -8882.3221    8.5768575 
   27000    506.42279    23366.901    -821.1216     133.9972   -8880.8836    8.5770202 
   28000    509.61937    23345.189    921.10938      134.843   -8880.4008    8.5849975 
   29000    495.66295    23348.206    106.64816    131.15019   -8882.9981     8.583888 
   30000    499.09098    23408.433   -2773.4019    132.05724    -8875.839    8.5618026 
   31000    486.10597    23279.171    4809.1032    128.62146    -8884.971    8.6093438 
   32000     499.5392    23385.154   -1632.7113    132.17583   -8878.0976    8.5703257 
   33000    489.93175    23352.911   -17.269001    129.63374   -8881.8286    8.5821587 
   34000    498.32276    23345.775     923.4923    131.85397    -8879.515    8.5847821 
   35000    511.39558    23379.713   -793.63097    135.31298   -8877.3343    8.5723203 
   36000    497.67659    23333.491    1812.1053      131.683   -8879.8063    8.5893015 
   37000    506.82216     23401.72    -1987.678    134.10287   -8874.7406    8.5642589 
   38000    484.91968    23336.349    1530.2712    128.30757    -8879.305    8.5882495 
   39000     504.2105    23341.996    1501.2928    133.41184   -8879.4744    8.5861717 
   40000    494.47711    23416.805     -4009.24    130.83643    -8878.501    8.5587419 
   41000    504.96405    23267.048    5371.7487    133.61123   -8886.7988    8.6138297 
   42000     499.9731    23378.426   -1363.7228    132.29064   -8879.5815    8.5727921 
   43000    501.75832    23352.559   -370.79566      132.763   -8884.0794    8.5822881 
   44000    497.96855    23341.876    1902.6865    131.76025    -8876.825    8.5862158 
   45000    499.85616    23408.325   -3120.9875     132.2597   -8877.0076    8.5618422 
   46000    493.85367    23279.501    5615.8811    130.67147   -8880.7895    8.6092218 
   47000    503.74696    23396.879   -986.17825    133.28919    -8871.721    8.5660307 
   48000    502.49613    23349.958    94.335306    132.95822   -8882.9586    8.5832441 
   49000    490.27503     23361.66    672.62676    129.72457   -8874.8415    8.5789446 
   50000    488.55589     23344.27    304.84076     129.2697   -8882.8649    8.5853352 
   51000    501.57863    23361.444   -465.67066    132.71546    -8881.131    8.5790238 
   52000    518.77221     23363.44   -685.21983     137.2648   -8882.7767     8.578291 
   53000    487.12678    23341.646   -82.642415    128.89156   -8885.4716    8.5863003 
   54000    513.62669     23340.54    1214.5743    135.90332   -8881.5689    8.5867073 
   55000    490.90325    23380.098   -1491.8794     129.8908   -8878.8025    8.5721791 
   56000    516.40066    23376.876   -999.46641     136.6373   -8879.3363    8.5733606 
   57000    488.15699    23329.544    2043.0064    129.16415   -8880.1234    8.5907547 
   58000    502.75765    23374.003   -846.02913    133.02742   -8878.3832    8.5744143 
   59000    497.05449    23345.091    1101.4532    131.51839   -8878.9025    8.5850334 
   60000    491.92331    23347.954    301.07139     130.1607   -8881.7889    8.5839805 
   61000    507.08602    23370.166   -509.37305    134.17269   -8878.6349    8.5758221 
   62000    488.71382    23326.254    2657.9377    129.31149   -8878.1659    8.5919663 
   63000    497.60769    23404.212    -3317.508    131.66476   -8878.9524    8.5633468 
   64000    495.52487    23315.487    2797.4526    131.11366   -8881.5907     8.595934 
   65000    504.50677    23375.015   -585.28184    133.49023   -8876.8067     8.574043 
   66000    500.76178    23359.947   -33.022169    132.49932   -8879.5459    8.5795736 
   67000     509.9083    23372.939   -16.613951    134.91945   -8875.2562    8.5748047 
   68000    499.27181    23379.539   -1536.0655    132.10508   -8880.0456     8.572384 
   69000    516.05895    23334.678    2816.0209    136.54689   -8876.1204    8.5888646 
   70000    493.97035    23397.235   -2632.1184    130.70234   -8878.6857    8.5659005 
   71000    498.13668    23376.857   -562.89362    131.80473   -8875.6874    8.5733676 
   72000    497.56363     23327.06    1918.6492    131.65311   -8881.7858    8.5916695 
   73000    501.66904    23392.088   -2201.0618    132.73938   -8879.4855    8.5677852 
   74000     509.9605    23314.612    2599.9692    134.93326   -8883.7331    8.5962566 
   75000    496.08172    23406.193   -3418.6418      131.261   -8878.4373    8.5626222 
   76000    509.78545    23380.219   -1276.8793    134.88695   -8879.0187    8.5721348 
   77000    495.40916    23326.904    2599.0179    131.08304   -8878.6203    8.5917268 
   78000    500.31652    23388.197   -2761.7199    132.38151   -8882.9423    8.5692107 
   79000    511.25527    23315.549    3142.3208    135.27585   -8881.0495    8.5959111 
   80000    491.11546    23365.854   -1311.7875    129.94695   -8882.6292    8.5774049 
   81000    508.48379    23378.951   -1509.5098    134.54253   -8880.6086    8.5725995 
   82000    484.91065    23333.908    1412.7077    128.30518   -8881.2038     8.589148 
   83000    504.75935    23363.658   -627.59936    133.55706   -8881.7395     8.578211 
   84000    497.32574     23373.17   -957.61564    131.59016   -8879.2459    8.5747199 
   85000    507.47999    23341.864    2324.0608    134.27693    -8875.523    8.5862205 
   86000    509.35024    23383.425   -2193.8888    134.77179   -8882.5568    8.5709593 
   87000    503.37751    23390.142   -2002.2977    133.19143   -8878.9903    8.5684981 
   88000    495.23527    23306.393    3456.9319    131.03703   -8882.0565    8.5992879 
   89000    507.33346    23389.403   -2171.9683    134.23816   -8879.7606    8.5687687 
   90000    498.03531    23354.093   -543.16679    131.77791   -8883.9252    8.5817244 
   91000    507.29359    23346.917    698.36775    134.22761   -8881.3531    8.5843621 
   92000    493.79873    23367.819    -270.9266    130.65693   -8877.3709    8.5766834 
   93000    487.57436    23360.538   -494.86496    129.00999   -8880.9886    8.5793567 
   94000    503.65797     23327.96    2955.5792    133.26564    -8877.029     8.591338 
   95000    487.18817    23400.741   -3241.7127    128.90781   -8879.3856    8.5646169 
   96000    509.79238    23333.073    2180.2178    134.88878   -8879.1229    8.5894554 
   97000    474.66427    23346.643    1167.6401    125.59404    -8877.169    8.5844625 
   98000    505.49619    23397.335   -2070.4938    133.75202   -8876.4738    8.5658639 
   99000    502.01259    23323.119     1984.354    132.83028   -8883.2017    8.5931211 
  100000    494.00346    23376.041   -143.83772     130.7111   -8873.9699    8.5736668 
  101000    493.66313     23362.45    36.516642    130.62105   -8878.5403    8.5786545 
  102000    507.08723    23348.311   -98.150893    134.17301    -8884.621    8.5838493 
  103000    489.66302     23351.83    156.03226    129.56264   -8881.4966    8.5825559 
  104000    518.77322    23364.852   -567.96449    137.26507   -8881.3575    8.5777725 
  105000    508.93022    23368.935   -444.55863    134.66066   -8879.6315    8.5762739 
  106000    507.86599    23344.258    499.10709    134.37906   -8883.0064    8.5853398 
  107000    486.17432    23367.396   -412.27225    128.63955   -8878.1667    8.5768386 
  108000    502.31556    23364.849    -67.98421    132.91044   -8878.2475    8.5777736 
  109000    487.45741    23314.608    3351.5867    128.97904   -8878.5161    8.5962582 
  110000    493.61084    23404.444   -3090.6736    130.60722   -8878.0934    8.5632622 
  111000     504.2812    23344.189    1632.3864    133.43055   -8877.6429    8.5853653 
  112000    505.79479    23367.531   -1016.5196    133.83103   -8881.7572    8.5767891 
  113000     497.0424    23359.361     -493.673    131.51519   -8882.0272     8.579789 
  114000    504.68878    23341.856    893.91756    133.53839   -8882.1155    8.5862231 
  115000    507.48118    23424.072   -4649.3586    134.27724   -8879.7354    8.5560864 
  116000    511.00938    23323.122     3178.729    135.21079   -8877.9038    8.5931202 
  117000    492.86691    23376.497   -1071.1789    130.41037   -8877.7906    8.5734994 
  118000    511.46834    23362.419   -361.27405    135.33223   -8880.5676     8.578666 
  119000    497.08216    23338.184      1214.79    131.52571   -8880.3329    8.5875741 
  120000    529.01558    23384.356   -1859.0931    139.97515   -8881.2145     8.570618 
  121000    502.83134     23355.38    158.64156    133.04692   -8880.2889    8.5812515 
  122000    487.69633    23344.517    250.35388    129.04226   -8883.2438    8.5852446 
  123000    490.05025    23374.579   -1173.0993     129.6651   -8879.6274    8.5742029 
  124000    502.49428     23309.38    3824.2223    132.95773    -8879.395    8.5981862 
  125000    476.61693    23380.138   -1804.3191     126.1107   -8879.8144    8.5721643 
  126000    489.87284    23330.377    2401.4767    129.61816   -8877.9224     8.590448 
  127000    483.33851    23360.636    101.79185     127.8892   -8877.6909    8.5793206 
  128000     495.1934    23364.328   -61.620748    131.02595   -8878.1733    8.5779648 
  129000    513.17317    23357.845   -1032.2896    135.78332   -8885.2664    8.5803459 
  130000    505.27179    23386.346   -1606.3808    133.69265   -8878.0398    8.5698889 
  131000    484.26356    23305.015    3907.8331    128.13397   -8879.6202    8.5997967 
  132000    502.71757    23395.431   -2840.7677    133.01682   -8880.3886    8.5665608 
  133000    497.88002    23367.872     -841.487    131.73682   -8880.3448    8.5766642 
  134000    499.11696    23337.041    1783.3181    132.06411   -8878.6492    8.5879948 
  135000    502.84163    23379.336   -2396.0037    133.04964   -8884.0644    8.5724584 
  136000    517.80586     23364.38   -218.67473    137.00911   -8880.3916    8.5779457 
  137000    509.73677    23356.156    699.70536    134.87406   -8878.4744    8.5809662 
  138000    493.00655    23396.591   -3108.6437    130.44732   -8880.6222    8.5661364 
  139000    516.60077    23312.793    2684.7544    136.69025    -8884.398    8.5969272 
  140000    505.45759    23375.496     -1241.42    133.74181   -8881.0355    8.5738666 
  141000    494.86545    23361.915   -298.78815    130.93918   -8880.0711    8.5788509 
  142000    496.79973     23346.19    1169.5451    131.45098   -8878.6042    8.5846294 
  143000    496.89316    23365.861   -1268.4856     131.4757   -8882.9548     8.577402 
  144000    497.18492    23363.433    -323.8035     131.5529   -8879.9743    8.5782934 
  145000    507.27448    23333.215    2518.1501    134.22255   -8877.0594    8.5894031 
  146000    491.01183    23422.361   -3585.2582    129.91953   -8874.3154    8.5567116 
  147000    512.27833    23338.362    2153.4992    135.54655   -8877.4849    8.5875088 
  148000    497.47477    23367.119   -506.88451    131.62959   -8879.3511    8.5769404 
  149000    491.93232    23365.104   -552.56995    130.16309   -8879.8659      8.57768 
  150000     507.1798    23346.232    396.32294     134.1975   -8882.9521    8.5846137 
Loop time of 658.441 on 4 procs for 150000 steps with 2048 atoms

Performance: 19.683 ns/day, 1.219 hours/ns, 227.811 timesteps/s
141.3% CPU use with 2 MPI tasks x 2 OpenMP threads

MPI task timing breakdown:
Section |  min time  |  avg time  |  max time  |%varavg| %total
---------------------------------------------------------------
Pair    | 472.18     | 476.92     | 481.65     |  21.7 | 72.43
Neigh   | 0          | 0          | 0          |   0.0 |  0.00
Comm    | 23.212     | 28.171     | 33.131     |  93.4 |  4.28
Output  | 0.007268   | 0.0076744  | 0.0080807  |   0.5 |  0.00
Modify  | 152.57     | 152.8      | 153.03     |   1.9 | 23.21
Other   |            | 0.5442     |            |       |  0.08

Nlocal:        1024.00 ave        1027 max        1021 min
Histogram: 1 0 0 0 0 0 0 0 0 1
Nghost:        4289.00 ave        4292 max        4286 min
Histogram: 1 0 0 0 0 0 0 0 0 1
Neighs:        82664.0 ave       85564 max       79764 min
Histogram: 1 0 0 0 0 0 0 0 0 1

Total # of neighbors = 165328
Ave neighs/atom = 80.726562
Neighbor list builds = 0
Dangerous builds = 0

fix temp all print 100 "$(step) $(temp) $(press) ${sys_press} $(vol) $(ke) $(pe) $(density)" file temp_heat.txt screen no title  "step temp press pressGiga vol ke pe density"
# fix 132 all momentum 100 linear 1 1 1 angular
fix out_file_1 all print 1000 "$(step) $(temp) $(press) ${sys_press} $(vol) $(ke) $(pe) $(density)" file one_phase_heating_$T_.txt screen no title  "step temp press pressGiga vol ke pe density"
fix out_file_1 all print 1000 "$(step) $(temp) $(press) ${sys_press} $(vol) $(ke) $(pe) $(density)" file one_phase_heating_500_.txt screen no title  "step temp press pressGiga vol ke pe density"

# dump 3 all custom 1000 traj_npt_new.lammpstrj id type x y z
run 50000
Last active /omp style is pair_style eam/alloy/omp
Per MPI rank memory allocation (min/avg/max) = 4.442 | 4.442 | 4.442 Mbytes
Step Temp Volume Press KinEng PotEng Density 
  150000     507.1798    23346.232    396.32294     134.1975   -8882.9521    8.5846137 
  151000    503.72414    23372.335   -864.67013    133.28315   -8879.3185    8.5750263 
  152000    483.00897     23347.29    663.02144    127.80201   -8879.6741    8.5842249 
  153000    506.92488    23340.303    1389.7959    134.13005   -8879.9389    8.5867947 
  154000    498.99415    23394.408   -2684.5943    132.03162   -8879.1076    8.5669357 
  155000    499.45548    23324.764    1314.5052    132.15368   -8885.3226     8.592515 
  156000    496.76156    23355.392    1301.1218    131.44088   -8874.5432    8.5812468 
  157000    499.33023    23374.582   -1856.7964    132.12054   -8882.8969    8.5742019 
  158000    491.59856    23340.989    1899.4888    130.07477   -8876.7708    8.5865423 
  159000    492.44388     23373.18   -1206.6569    130.29844   -8879.6185    8.5747161 
  160000    504.74002    23343.381    902.75827    133.55195   -8880.9755    8.5856622 
  161000    495.94442     23360.87    294.60065    131.22467   -8878.1102    8.5792346 
  162000    511.49181    23402.914   -2226.6757    135.33844   -8875.5743    8.5638217 
  163000    498.31498    23318.664    2974.4058    131.85191   -8879.6437     8.594763 
  164000    495.81247    23398.012   -1677.1983    131.18976   -8873.9054     8.565616 
  165000    487.43002    23338.679    1303.4706     128.9718   -8880.3875    8.5873919 
  166000    511.27691    23356.493   -202.65975    135.28158   -8882.1253    8.5808426 
  167000    510.50162    23358.392    471.73994    135.07644    -8879.125    8.5801447 
  168000    487.26435    23354.058    529.90753    128.92796   -8878.6094    8.5817373 
  169000    499.21803    23342.844    1306.4723    132.09085   -8878.9849    8.5858597 
  170000    493.27982    23377.715   -2297.7245    130.51963   -8883.9985    8.5730528 
  171000    498.56932    23335.616    2224.5263    131.91921   -8877.7189    8.5885193 
  172000    493.22872    23359.725   -780.48633    130.50611   -8883.0753    8.5796551 
  173000    506.16268    23386.573   -2086.2574    133.92838   -8880.6524    8.5698056 
  174000    490.76007    23317.238    2352.5263    129.85291   -8883.5905    8.5952884 
  175000    483.55476    23369.753   -360.50055    127.94642   -8876.5856    8.5759735 
  176000      485.601    23337.807    504.55316    128.48785   -8884.0155    8.5877129 
  177000    517.39724    23337.774    1415.7754    136.90099   -8881.6543    8.5877252 
  178000    483.05267    23421.757   -5478.1062    127.81357   -8883.4361    8.5569323 
  179000    503.76422    23320.045    3409.9325    133.29375   -8877.9308     8.594254 
  180000    497.60089    23366.323   -639.39395    131.66296   -8880.0582    8.5772326 
  181000    489.90693     23377.11   -1496.6719    129.62718   -8880.4217    8.5732747 
  182000    499.46989    23314.908    2830.1979    132.15749   -8881.7829    8.5961473 
  183000     502.5875    23409.048   -3498.3741     132.9824   -8878.7352    8.5615779 
  184000    500.36417    23328.015    2116.3694    132.39412   -8880.7254    8.5913176 
  185000    502.03735    23344.748    1334.2687    132.83683    -8879.133    8.5851596 
  186000    490.17534    23370.571   -1463.6434     129.6982   -8881.2767    8.5756735 
  187000    524.08126    23348.989     1398.237    138.66955   -8877.7935    8.5836002 
  188000    501.74681    23381.657   -1966.3135    132.75996   -8880.8641    8.5716076 
  189000    497.04226    23366.621   -87.740796    131.51515   -8876.9364     8.577123 
  190000    504.84201    23314.485    3534.2897    133.57893   -8879.3801    8.5963033 
  191000    499.09886    23404.139   -2826.1634    132.05932   -8878.0384    8.5633736 
  192000    489.67172     23322.72    3256.1919    129.56494   -8876.2451    8.5932681 
  193000     510.3611     23363.56   -256.16426    135.03926   -8880.2139    8.5782468 
  194000    507.05964    23379.499   -1711.3083    134.16571    -8881.154    8.5723988 
  195000    509.41757    23344.609    634.98917     134.7896   -8882.3547    8.5852108 
  196000    501.72703    23376.044   -38.314167    132.75472   -8873.5843    8.5736658 
  197000    487.97241    23360.123   -57.482206    129.11531   -8878.8266    8.5795091 
  198000    496.32072    23335.771    299.63264    131.32424   -8886.4943     8.588462 
  199000    504.62538    23369.744    -244.9886    133.52161   -8877.6786     8.575977 
  200000    493.00192    23356.886    875.09711     130.4461   -8876.2489    8.5806981 
Loop time of 221.339 on 4 procs for 50000 steps with 2048 atoms

Performance: 19.518 ns/day, 1.230 hours/ns, 225.898 timesteps/s
140.5% CPU use with 2 MPI tasks x 2 OpenMP threads

MPI task timing breakdown:
Section |  min time  |  avg time  |  max time  |%varavg| %total
---------------------------------------------------------------
Pair    | 156.42     | 159.44     | 162.45     |  23.9 | 72.03
Neigh   | 0          | 0          | 0          |   0.0 |  0.00
Comm    | 7.3821     | 10.498     | 13.613     |  96.2 |  4.74
Output  | 0.0021774  | 0.002632   | 0.0030866  |   0.9 |  0.00
Modify  | 51.119     | 51.221     | 51.323     |   1.4 | 23.14
Other   |            | 0.1814     |            |       |  0.08

Nlocal:        1024.00 ave        1041 max        1007 min
Histogram: 1 0 0 0 0 0 0 0 0 1
Nghost:        4289.00 ave        4306 max        4272 min
Histogram: 1 0 0 0 0 0 0 0 0 1
Neighs:        82197.0 ave       86846 max       77548 min
Histogram: 1 0 0 0 0 0 0 0 0 1

Total # of neighbors = 164394
Ave neighs/atom = 80.270508
Neighbor list builds = 0
Dangerous builds = 0

unfix temp
unfix out_file_1
unfix 1
# # clear
# write_data after_cooling_$T.in
# write_restart after_cooling_$T.lmp
next loopVar
# # thermo_modify flush yes
jump in.lmp ensemble

print """
Hi HI Hi
"""

Hi HI Hi

variable T equal 200+${loopVar}*100
variable T equal 200+4*100
# velocity all create $T 123123
reset_timestep 0
fix 1 all npt temp $T $T $(dt*100) iso 0 0 $(dt*1000)
fix 1 all npt temp 600 $T $(dt*100) iso 0 0 $(dt*1000)
fix 1 all npt temp 600 600 $(dt*100) iso 0 0 $(dt*1000)
fix 1 all npt temp 600 600 0.10000000000000000555 iso 0 0 $(dt*1000)
fix 1 all npt temp 600 600 0.10000000000000000555 iso 0 0 1
print """
<--------------------------------------------------------------------->
<------------------ Equilibrating at temperature $T ----------------->
<--------------------------------------------------------------------->
"""

<--------------------------------------------------------------------->
<------------------ Equilibrating at temperature 600 ----------------->
<--------------------------------------------------------------------->

run 150000
Last active /omp style is pair_style eam/alloy/omp
Per MPI rank memory allocation (min/avg/max) = 4.442 | 4.442 | 4.442 Mbytes
Step Temp Volume Press KinEng PotEng Density 
       0    493.00192    23356.886    875.09711     130.4461   -8876.2489    8.5806981 
    1000    587.99595    23442.851    896.58459    155.58109   -8850.8553    8.5492327 
    2000    623.19308    23451.838   -696.50982     164.8941   -8858.1939    8.5459564 
    3000    602.34543    23479.814   -2383.2764     159.3779   -8854.8022    8.5357739 
    4000    586.85102    23478.212   -1793.3137    155.27815   -8851.6105    8.5363564 
    5000    601.68074    23422.445     2724.028    159.20203   -8850.9046     8.556681 
    6000    613.10504    23378.628    4305.7477    162.22485   -8859.4156     8.572718 
    7000    595.45475    23464.496   -139.68364    157.55466   -8848.7156    8.5413462 
    8000    582.26573    23451.034   -293.43902     154.0649   -8853.5857    8.5462493 
    9000    599.23074     23441.47    2006.8019    158.55377   -8846.9972    8.5497364 
   10000    593.98527    23429.331    1942.9094    157.16584   -8850.6793    8.5541661 
   11000    592.36598    23502.803   -2282.4413    156.73738    -8845.385     8.527425 
   12000    598.09681    23497.921   -2837.2084    158.25373   -8850.4432    8.5291966 
   13000    623.95229    23432.086    1480.9021    165.09498   -8853.1063    8.5531604 
   14000    591.82347    23400.595    3588.3253    156.59384   -8853.5194    8.5646705 
   15000    605.47268     23462.32   -221.71683    160.20536   -8850.4057    8.5421383 
   16000    593.39081    23471.065   -1323.9178    157.00855   -8852.1866    8.5389558 
   17000    611.88589    23481.323   -118.92031    161.90226    -8842.977    8.5352256 
   18000    600.53942     23440.21    1246.6115    158.90004   -8850.7997     8.550196 
   19000    601.66869    23446.381    661.21249    159.19884   -8850.6817    8.5479454 
   20000    615.27901    23498.794   -2706.9086    162.80007   -8850.4755    8.5288796 
   21000    597.76377    23492.125   -3013.3154    158.16561   -8852.8326    8.5313007 
   22000    604.41009    23436.717    1787.4212     159.9242   -8850.1689    8.5514701 
   23000    597.23953     23405.95    3006.1025     158.0269   -8854.6953     8.562711 
   24000    598.90776    23457.732   -440.49881    158.46831   -8852.4493    8.5438091 
   25000    589.04353    23470.656   -1055.9734    155.85828   -8850.5212    8.5391047 
   26000    596.90609    23449.836    76.491574    157.93868   -8853.6506    8.5466861 
   27000    625.02734    23420.709    2920.7246    165.37943   -8851.2343    8.5573151 
   28000    601.43177    23400.652    3055.0097    159.13615   -8857.0652    8.5646498 
   29000    596.96113    23488.813   -1674.0645    157.95324   -8847.7966    8.5325039 
   30000    595.71809     23484.47   -1431.5982    157.62434   -8848.3999    8.5340818 
   31000    607.17234    23468.957     -643.195    160.65508   -8850.2465    8.5397228 
   32000    600.25952    23434.817    1268.3384    158.82598   -8853.2345    8.5521636 
   33000    609.62368    23464.026   -134.25715    161.30369     -8849.07    8.5415173 
   34000    605.03331    23463.016   -706.22971     160.0891   -8852.3299    8.5418851 
   35000    593.12751    23467.931   -886.11888    156.93888   -8850.8811    8.5400961 
   36000    601.35118     23429.27    1315.9787    159.11483   -8854.9871    8.5541881 
   37000    619.12866    23419.747    3792.5336    163.81867   -8846.9473    8.5576667 
   38000    598.51773    23444.615    812.94029    158.36511   -8851.9688    8.5485892 
   39000    613.13099    23508.115   -3511.7855    162.23171   -8850.5471    8.5254978 
   40000    592.06699    23465.899   -837.08669    156.65827   -8850.9927    8.5408356 
   41000    618.52874    23468.453   -511.01026    163.65993     -8849.93    8.5399063 
   42000     589.1968    23465.505   -551.56576    155.89883   -8850.0384    8.5409789 
   43000    600.81691    23490.743   -2216.3977    158.97346   -8849.6506    8.5318029 
   44000    585.79038      23401.4    3196.8838    154.99751   -8854.2536    8.5643757 
   45000    616.91677    23407.049     3570.059    163.23341   -8852.4398    8.5623091 
   46000    599.24897     23443.93   -47.273726    158.55859   -8855.7686    8.5488392 
   47000    590.94122    23479.606   -2018.7204     156.3604   -8851.9838    8.5358496 
   48000     593.1706    23448.526    605.37121    156.95028   -8850.1945    8.5471634 
   49000     589.3956    23448.206    1743.7708    155.95143    -8844.927    8.5472801 
   50000    599.37239    23454.091     1018.186    158.59125   -8846.9849    8.5451357 
   51000    575.12463    23436.456    1068.2633     152.1754   -8851.2816    8.5515655 
   52000    590.39113    23482.512   -1772.6536    156.21485   -8849.7058    8.5347932 
   53000    584.19413    23466.089   -1345.5711    154.57515   -8852.8265    8.5407666 
   54000    602.15444    23421.369    2533.9389    159.32737   -8852.5733    8.5570739 
   55000    607.70967    23416.231    2633.9505    160.79726   -8854.0606    8.5589514 
   56000    601.71458    23481.384   -2283.4305    159.21098   -8853.8043    8.5352032 
   57000    617.93029    23518.666   -4704.2705    163.50158   -8853.2076    8.5216731 
   58000    614.81412    23449.578   -799.98587    162.67706   -8858.2417    8.5467801 
   59000     588.7096     23421.16    1204.5741    155.76992   -8856.9654    8.5571504 
   60000    605.90399    23443.031    1103.1723    160.31948   -8850.8909     8.549167 
   61000    595.72701    23499.909   -3095.2455     157.6267    -8850.157    8.5284751 
   62000    599.06215    23523.731   -4536.3343    158.50916   -8849.6643    8.5198384 
   63000    590.54155    23430.007    563.07973    156.25465   -8856.8567     8.553919 
   64000    607.80587    23430.814    1873.8315    160.82271   -8850.8397    8.5536247 
   65000    610.80255    23440.321    804.27961    161.61562   -8853.6533    8.5501554 
   66000    593.58888    23491.966   -2257.5302    157.06096    -8849.929    8.5313585 
   67000    599.61776      23524.2   -5471.3019    158.65617   -8854.0572    8.5196685 
   68000    612.81772    23466.624    1053.2192    162.14882   -8844.0899    8.5405719 
   69000    596.62232     23433.33    1194.4235    157.86359   -8853.7877     8.552706 
   70000    611.55095    23465.102    3.9922038    161.81364   -8849.3563    8.5411257 
   71000    596.76627    23462.253   -1344.0472    157.90168   -8855.4857    8.5421627 
   72000    590.76252    23481.353   -1796.5599    156.31311    -8850.224    8.5352146 
   73000    612.94068    23438.392    1106.2622    162.18136   -8853.4265    8.5508592 
   74000    582.43075      23382.3    4689.3566    154.10856   -8853.9368    8.5713716 
   75000    607.74883    23446.422    492.52012    160.80762   -8852.6904    8.5479304 
   76000    585.07449    23477.608   -1820.9593    154.80809   -8852.0378     8.536576 
   77000    613.47945    23471.112   -1515.0911    162.32391   -8853.7656    8.5389388 
   78000    594.72008    23431.272    746.40722    157.36027   -8855.6216    8.5534573 
   79000    605.05447    23436.012    2021.0615     160.0947   -8849.0933    8.5517275 
   80000    607.50938    23472.132   -1767.2706    160.74426   -8854.6769    8.5385677 
   81000     598.5616    23526.493   -5322.8703    158.37671   -8852.0418    8.5188382 
   82000    602.89427    23469.453   -952.32768    159.52312   -8851.4286    8.5395421 
   83000    611.08193    23425.364    1679.9647    161.68954   -8855.0063    8.5556147 
   84000    601.08636    23434.796    1600.7666    159.04476   -8851.3886    8.5521712 
   85000    593.86937    23447.783   -349.42604    157.13517   -8855.1791    8.5474343 
   86000    601.97532    23469.518   -481.61898    159.27997   -8849.1107    8.5395186 
   87000    590.93896    23461.553   -400.54869     156.3598   -8851.5744    8.5424178 
   88000    610.10959    23486.731   -1517.7573    161.43226   -8849.1025      8.53326 
   89000    592.30369    23400.703    3702.3624     156.7209   -8853.0106    8.5646309 
   90000    605.33037    23394.234    3612.2335     160.1677   -8856.4095    8.5669993 
   91000    599.41739    23458.295   -305.62343    158.60315   -8851.1923     8.543604 
   92000    589.99293    23461.625   -1412.7446    156.10948   -8855.2368    8.5423915 
   93000     598.6716      23465.4    262.74695    158.40582   -8847.1147    8.5410172 
   94000    611.99555    23454.749    123.46183    161.93128   -8852.2429    8.5448957 
   95000     594.9191    23458.255    232.45116    157.41293   -8849.5394    8.5436188 
   96000    588.40153    23446.551    216.82771    155.68841   -8853.2163    8.5478836 
   97000    629.94604    23461.692   -746.64057     166.6809    -8854.242    8.5423672 
   98000    588.38448    23443.107    281.68082     155.6839   -8853.9766    8.5491394 
   99000    599.79057     23469.64   -548.50886     158.7019   -8849.0277    8.5394742 
  100000    592.23695    23463.972   -1076.7117    156.70324   -8853.3448    8.5415372 
  101000    609.78871     23429.35    1797.2749    161.34736   -8852.8332     8.554159 
  102000     591.7191    23423.336    2160.8465    156.56622   -8851.4132    8.5563554 
  103000    588.27656    23489.506   -2823.4625    155.65534   -8852.4447    8.5322522 
  104000    611.33503    23513.903   -3878.6541    161.75651   -8850.1659    8.5233996 
  105000    602.74386    23447.847    397.38454    159.48332   -8851.8276     8.547411 
  106000    603.58335    23436.243    1274.7236    159.70545   -8852.7029    8.5516432 
  107000    608.02866    23474.946   -247.64171    160.88166   -8846.9573    8.5375442 
  108000    604.74226    23475.838   -1466.2804    160.01209   -8852.5005    8.5372197 
  109000    594.18284    23494.707    -1949.522    157.21811   -8846.9816    8.5303634 
  110000    596.49286    23417.359    2618.2427    157.82934   -8851.9087    8.5585394 
  111000    607.54038    23420.715    3500.5864    160.75246   -8846.5417     8.557313 
  112000    591.33101    23454.407    350.46853    156.46353   -8849.5182    8.5450204 
  113000    590.92281    23472.313   -2361.4257    156.35553   -8856.1997     8.538502 
  114000    598.69339    23469.385   -386.52087    158.41159   -8848.2267    8.5395669 
  115000    616.73837    23377.112    6484.5861    163.18621   -8849.2714    8.5732739 
  116000    590.91611    23418.706    2498.7961    156.35375   -8851.1177     8.558047 
  117000    599.87228     23479.79     -1166.24    158.72352   -8848.9867    8.5357826 
  118000    609.69822    23481.172   -686.81017    161.32342   -8846.8002    8.5352805 
  119000    585.51569     23411.58     3607.297    154.92483   -8848.2624    8.5606517 
  120000    621.24474     23398.57     4433.218    164.37857    -8851.544    8.5654117 
  121000    597.57615    23485.052   -2157.0779    158.11597   -8851.8302    8.5338701 
[...]
   16000    2391.2407    26982.258   -393.22894    632.71158    -7884.288    7.4277841 
   17000    2387.7212    26956.476   -1009.9342    631.78032   -7896.7284    7.4348883 
   18000    2361.7779    27086.526   -2422.3523    624.91584   -7860.4231    7.3991912 
   19000    2337.0747    27014.243   -1424.9495    618.37949    -7875.555    7.4189895 
   20000    2411.5947    26900.429    3374.5635    638.09715   -7882.4982    7.4503788 
   21000    2355.0531    26853.775    6287.8852    623.13648   -7883.4034    7.4633227 
   22000    2414.5361    26949.494   -425.11194    638.87542   -7894.4167    7.4368144 
   23000    2397.6172    26988.244    2405.0909    634.39876   -7868.0603    7.4261365 
   24000    2394.5462    27055.359   -2285.1011     633.5862   -7877.6701     7.407715 
   25000    2429.0671    26811.152    3784.2688    642.72026   -7905.2766    7.4751874 
   26000     2387.887    26918.681    1968.7832    631.82421   -7883.8882    7.4453272 
   27000    2374.4218    26974.915   -858.14644    628.26136    -7889.777    7.4298062 
   28000    2462.0818    26902.656    3654.2448     651.4558   -7879.3133    7.4497621 
   29000    2456.5756    26889.256    946.91727    649.99888   -7900.1755    7.4534746 
   30000    2326.5783    27038.815   -2263.7004    615.60218    -7877.174    7.4122475 
   31000    2424.7391    26942.012   -3136.8205    641.57511   -7909.2575    7.4388797 
   32000    2368.7266    26863.684   -2314.2715    626.75445   -7920.6262    7.4605698 
   33000     2423.485    27046.772    -6236.595    641.24325      -7888.8    7.4100667 
   34000     2441.889    26913.154    3244.8662    646.11287   -7883.3927    7.4468562 
   35000    2457.9816    27045.048   -1123.3116    650.37092   -7873.3697     7.410539 
   36000    2429.6179     26916.03   -666.84438    642.86601   -7902.0543    7.4460605 
   37000    2367.4297    27181.954   -8259.2295    626.41129   -7865.5002    7.3732148 
   38000    2380.6964    27012.933   -2319.4785     629.9216   -7885.1831    7.4193493 
   39000    2308.6421    26871.964    2729.3915    610.85636   -7895.2261    7.4582709 
   40000    2497.6782    26864.108    6793.1676    660.87444   -7888.9729    7.4604518 
   41000    2400.1893    26925.121    2197.9937    635.07934    -7889.429    7.4435463 
   42000    2427.6847    27025.931   -3716.0982    642.35449   -7889.1064    7.4157811 
   43000    2443.5323     26812.98    643.11209    646.54769    -7918.434    7.4746777 
   44000     2412.326    26871.597   -1374.8441    638.29065   -7910.6751    7.4583726 
   45000    2424.8941    27049.464   -7520.7659    641.61612   -7899.7005    7.4093294 
   46000    2321.3569    26878.404    3528.9434    614.22063   -7893.9964    7.4564839 
   47000    2387.7082    26900.305      5221.19    631.77688   -7879.7024    7.4504132 
   48000     2455.497    26859.604   -59.673193     649.7135   -7912.8735    7.4617029 
   49000    2416.1224    27013.468   -3847.3386    639.29515   -7891.3774    7.4192023 
   50000    2391.7829    26883.529    5710.8787    632.85504   -7879.3853    7.4550623 
   51000    2401.7914    26832.108    9386.2601    635.50324   -7873.4443    7.4693494 
   52000    2390.0176    26866.699    3238.1399    632.38794    -7903.854    7.4597326 
   53000    2351.3741     27070.78    -4545.297    622.16305   -7878.6936     7.403495 
   54000     2339.402    27077.434   -6179.5132    618.99529   -7884.5224    7.4016757 
   55000     2447.582    26854.975    3439.5539    647.61923   -7900.4499     7.462989 
   56000    2454.8779     26947.04    2561.7803    649.54968   -7885.6022    7.4374917 
   57000    2358.4566    27082.959   -8964.2452    624.03704   -7885.6823    7.4001657 
   58000     2360.385    26993.897    -3081.977    624.54729   -7891.6499    7.4245813 
   59000    2353.4497    26917.643    11.024365    622.71225   -7896.8677    7.4456142 
   60000    2375.5722    26890.439    515.85989    628.56576   -7899.1263    7.4531466 
   61000    2307.7686    26896.087    3558.4145    610.62523   -7890.5451    7.4515815 
   62000    2388.7372    26947.717      3000.82    632.04915   -7872.0208    7.4373048 
   63000    2470.3574    26978.082    127.41364     653.6455   -7890.0391    7.4289339 
   64000    2376.9162    26822.297    3599.5053    628.92136   -7899.0403    7.4720814 
   65000    2428.1195    26910.306    3740.9481    642.46954   -7882.9146    7.4476442 
   66000    2358.8811    26980.692    -1469.022    624.14938    -7890.276    7.4282151 
   67000    2404.4603    26887.626    -532.7733    636.20942   -7913.6949    7.4539266 
   68000    2435.5635    27012.367   -672.96084    644.43919   -7880.3004    7.4195047 
   69000    2454.9462    26914.543   -1965.0926    649.56776   -7904.9548     7.446472 
   70000    2402.8049    26997.285     1234.358    635.77139   -7870.1424    7.4236496 
   71000     2391.349    26928.282   -1088.9249    632.74022   -7901.2843    7.4426725 
   72000    2257.1514    27031.187   -6463.3668    597.23215   -7889.7583    7.4143391 
   73000     2457.429    26992.112   -4864.0163     650.2247   -7903.5485    7.4250725 
   74000    2396.1031    26784.624    9241.8594    633.99815   -7887.1665    7.4825909 
   75000    2473.3767    26854.951    3997.0527    654.44438   -7895.9629    7.4629957 
   76000    2377.8044     26989.44   -2386.2963    629.15639   -7896.8388    7.4258075 
   77000    2428.3383    27043.439   -5863.9472    642.52744   -7892.8219      7.41098 
   78000     2422.899    27037.339   -4133.6517    641.08822    -7892.015     7.412652 
   79000    2365.7783    26867.985    1167.5083    625.97432   -7905.6679    7.4593753 
   80000    2392.9055     27091.18    -3668.173    633.15206   -7870.7543    7.3979201 
   81000    2475.5369    26956.024    2487.5905    655.01596   -7884.2252     7.435013 
   82000    2402.6121    27140.835   -7340.2814    635.72038   -7877.9145    7.3843853 
   83000    2447.8701    27042.225   -5414.3336    647.69545   -7896.7307    7.4113127 
   84000    2368.2764    26844.426   -328.54476    626.63532   -7917.9655    7.4659219 
   85000    2434.1742    26966.129   -925.22839    644.07159   -7888.0215    7.4322268 
   86000    2400.4062    27005.329    560.43103    635.13672   -7871.0374    7.4214383 
   87000    2409.9397    27070.862    -674.3644    637.65923   -7860.0541    7.4034727 
   88000    2410.3853    26924.336    1788.8264    637.77713   -7896.8135    7.4437634 
   89000    2369.8034    26838.439    3566.3218    627.03937   -7903.3272    7.4675874 
   90000    2446.2768    26884.449    9305.0113    647.27387   -7869.5618    7.4548073 
   91000    2406.9152    26931.202    845.45374    636.85896   -7896.0733    7.4418656 
   92000     2376.533    26899.731   -1175.1865    628.81999   -7904.3928    7.4505722 
   93000    2375.2508    26994.463   -4451.8267    628.48072   -7892.8901    7.4244258 
   94000    2465.8661    26765.507    9663.5452    652.45711   -7898.7437    7.4879355 
   95000    2362.5735    26916.681    3363.4745    625.12637   -7883.6181    7.4458804 
   96000    2393.3891    26951.986   -3521.7296    633.28002   -7902.4568    7.4361267 
   97000    2443.3125    27102.654   -7534.0821    646.48952   -7890.6549    7.3947883 
   98000     2391.022    27044.674   -4133.1849    632.65369   -7879.5878    7.4106417 
   99000    2361.4424    27027.408   -248.45846    624.82708   -7876.3627    7.4153759 
  100000    2354.7222    26825.477    1344.1913    623.04893   -7915.9274    7.4711955 
  101000    2389.8792    27053.832   -434.36133    632.35133   -7867.2984    7.4081331 
  102000    2394.2216    27113.807   -2569.9072     633.5003     -7869.02    7.3917463 
  103000    2536.2931    26847.563    10011.688    671.09179   -7872.3145    7.4650495 
  104000    2433.1857      26845.5    8509.0579    643.81002   -7883.2157    7.4656232 
  105000    2373.1272    26879.048    6172.9911    627.91882   -7878.2134    7.4563053 
  106000    2408.8749    26845.949    3373.1136     637.3775   -7895.9309    7.4654983 
  107000    2391.4425    26977.007    317.92812    632.76495   -7877.9243    7.4292299 
  108000    2425.3323    26801.566    5222.1672    641.73205   -7905.7528    7.4778612 
  109000     2409.449    26904.394      1846.52     637.5294   -7893.4549    7.4492809 
  110000    2423.7002    26847.747    5067.1591     641.3002   -7899.3112    7.4649982 
  111000    2361.0079    26926.548    -2991.871    624.71211   -7909.6302    7.4431517 
  112000    2387.3614    27009.453   -2992.3888    631.68513   -7888.8975    7.4203052 
  113000    2298.0997    27014.023   -6870.2112    608.06688   -7894.8207    7.4190498 
  114000    2432.3327    27219.583   -9920.8778    643.58432   -7868.5382    7.3630218 
  115000    2409.9369    26939.743    2413.9994     637.6585   -7885.7585    7.4395062 
  116000    2351.3619    26777.827    8166.4149    622.15981   -7890.5426    7.4844903 
  117000    2419.5746    27001.228   -3351.9481    640.20858   -7890.7413    7.4225657 
  118000    2381.6054    26978.621   -4647.2258    630.16212   -7901.9428    7.4287853 
  119000    2420.5603     26915.91   -104.55971    640.46941   -7903.6221    7.4460937 
  120000    2380.5557    27142.429   -2100.6107    629.88436   -7855.3868    7.3839517 
  121000    2478.5197     27075.68   -5977.1162    655.80521    -7889.254    7.4021554 
  122000    2395.3301    26966.447    222.67081    633.79362   -7881.6737    7.4321392 
  123000    2353.5509    26817.631    2444.2152    622.73901   -7907.3903    7.4733814 
  124000     2421.751    26892.134    794.59443    640.78445   -7894.7977    7.4526769 
  125000    2380.2655     26960.28    -536.6041    629.80757   -7882.7837    7.4338392 
  126000    2404.7261    26920.725    4051.2574    636.27975   -7875.9117     7.444762 
  127000    2395.4431    26857.392    3495.9402    633.82351   -7891.8988    7.4623174 
  128000     2420.561    26909.836    334.75694     640.4696   -7899.0778    7.4477742 
  129000    2443.8232    27202.572   -8601.3817    646.62468   -7868.6509    7.3676264 
  130000    2412.7382    27219.865   -9328.9119    638.39972    -7867.351    7.3629457 
  131000    2368.2648    26746.768    4828.2751    626.63224   -7912.9068    7.4931816 
  132000     2452.859    27091.974   -8897.5699    649.01549   -7893.8256    7.3977032 
  133000    2452.7432    27118.337   -4661.0808    648.98485   -7878.5489    7.3905116 
  134000     2379.502    26902.383   -1776.6588    629.60555   -7909.3403    7.4498378 
  135000    2363.5756    27026.637   -810.51752    625.39152   -7873.2904    7.4155873 
  136000    2407.2524    26982.676    -1710.473     636.9482   -7890.9281    7.4276691 
  137000    2441.5293    26799.816    4226.7711    646.01771   -7911.6764    7.4783494 
  138000    2360.2031    26825.778    9116.3698    624.49915   -7875.8074    7.4711118 
  139000    2458.6755    26986.892   -567.25844    650.55451   -7889.1851    7.4265087 
  140000    2344.7179    26934.823    3103.2475    620.40185   -7881.0691    7.4408653 
  141000     2385.027    26917.492   -2738.2357    631.06745    -7902.316     7.445656 
  142000    2351.6077    26924.492    948.32525    622.22485   -7888.4738    7.4437202 
  143000    2334.5036    26991.332    984.67277    617.69918   -7875.1526     7.425287 
  144000    2452.2937    27044.914   -4192.2132    648.86593   -7893.8974    7.4105757 
  145000    2329.6314    27076.476   -5445.0421    616.41003   -7887.2191    7.4019377 
  146000    2403.7066    26980.244   -28.795859    636.00999   -7886.5053    7.4283386 
  147000    2452.5666    26986.659   -1220.5679    648.93812   -7889.6852    7.4265729 
  148000    2360.9787    27011.326   -2994.2439    624.70438   -7883.9692    7.4197908 
  149000    2526.5442    27112.703   -3689.7627    668.51226   -7869.0423    7.3920474 
  150000    2389.6073    26979.297   -1070.4124    632.27938   -7889.7549    7.4285992 
Loop time of 616.912 on 4 procs for 150000 steps with 2048 atoms

Performance: 21.008 ns/day, 1.142 hours/ns, 243.146 timesteps/s
136.8% CPU use with 2 MPI tasks x 2 OpenMP threads

MPI task timing breakdown:
Section |  min time  |  avg time  |  max time  |%varavg| %total
---------------------------------------------------------------
Pair    | 431.03     | 434.61     | 438.2      |  17.2 | 70.45
Neigh   | 8.1592     | 8.1775     | 8.1958     |   0.6 |  1.33
Comm    | 17.695     | 21.414     | 25.133     |  80.4 |  3.47
Output  | 0.0068831  | 0.0075031  | 0.0081231  |   0.7 |  0.00
Modify  | 151.8      | 151.92     | 152.04     |   1.0 | 24.63
Other   |            | 0.7827     |            |       |  0.13

Nlocal:        1024.00 ave        1027 max        1021 min
Histogram: 1 0 0 0 0 0 0 0 0 1
Nghost:        3676.50 ave        3686 max        3667 min
Histogram: 1 0 0 0 0 0 0 0 0 1
Neighs:        71414.0 ave       73331 max       69497 min
Histogram: 1 0 0 0 0 0 0 0 0 1

Total # of neighbors = 142828
Ave neighs/atom = 69.740234
Neighbor list builds = 3108
Dangerous builds = 0

fix temp all print 100 "$(step) $(temp) $(press) ${sys_press} $(vol) $(ke) $(pe) $(density)" file temp_heat.txt screen no title  "step temp press pressGiga vol ke pe density"
# fix 132 all momentum 100 linear 1 1 1 angular
fix out_file_1 all print 1000 "$(step) $(temp) $(press) ${sys_press} $(vol) $(ke) $(pe) $(density)" file one_phase_heating_$T_.txt screen no title  "step temp press pressGiga vol ke pe density"
fix out_file_1 all print 1000 "$(step) $(temp) $(press) ${sys_press} $(vol) $(ke) $(pe) $(density)" file one_phase_heating_2400_.txt screen no title  "step temp press pressGiga vol ke pe density"

# dump 3 all custom 1000 traj_npt_new.lammpstrj id type x y z
run 50000
Last active /omp style is pair_style eam/alloy/omp
Per MPI rank memory allocation (min/avg/max) = 4.442 | 4.442 | 4.442 Mbytes
Step Temp Volume Press KinEng PotEng Density 
  150000    2389.6073    26979.297   -1070.4124    632.27938   -7889.7549    7.4285992 
  151000    2472.6809    27054.893   -7876.5009    654.26028    -7905.133    7.4078425 
  152000    2400.8104    26979.259     1459.464    635.24368   -7878.2132    7.4286097 
  153000    2408.8334    26913.302    2805.0102    637.36651   -7880.8569    7.4468153 
  154000    2396.2491    26736.756     8968.951    634.03678   -7903.9029    7.4959875 
  155000    2365.1932    27069.264   -4708.1605    625.81952    -7881.008    7.4039097 
  156000    2381.7067    26960.955   -1181.8658    630.18892   -7895.1294     7.433653 
  157000    2373.8106    27062.171   -5362.0336    628.09963   -7888.3988    7.4058503 
  158000    2439.5378    27073.011   -3750.0056    645.49077   -7882.2118    7.4028849 
  159000    2362.3545    26926.942   -1782.1882    625.06842   -7896.6548    7.4430429 
  160000    2450.8912    26786.108    7847.0571    648.49483   -7901.1505    7.4821765 
  161000    2457.6732    26850.552    3302.5373    650.28932    -7902.365    7.4642184 
  162000    2393.7893    26967.808   -582.80936    633.38592   -7894.6783    7.4317641 
  163000    2376.2396    27025.108   -5319.8845    628.74236   -7892.3606    7.4160069 
  164000    2418.4666    27128.557   -5728.2609    639.91543   -7876.3405    7.3877274 
  165000    2446.5018    26977.436   -60.655577     647.3334   -7880.1684    7.4291116 
  166000     2361.836    26988.934   -3177.8984    624.93121   -7894.1996    7.4259467 
  167000    2469.0781    27033.587   -3903.1289      653.307   -7894.6869    7.4136808 
  168000    2410.1249    27110.094   -2783.6647    637.70823   -7867.3196    7.3927589 
  169000    2365.9437    26811.138    6703.4324     626.0181   -7891.8051    7.4751912 
  170000    2443.5481    26964.607    3830.8958    646.55188   -7870.1689    7.4326464 
  171000    2336.5997    27088.208   -2237.0269    618.25379   -7863.0515    7.3987318 
  172000    2276.9669    27110.858   -3125.4516    602.47525   -7860.0148    7.3925506 
  173000    2328.2062    26927.217    2542.8354    616.03291   -7890.5033    7.4429669 
  174000    2503.1934    26920.311    6522.7588    662.33375   -7874.3373    7.4448765 
  175000    2390.6282    26902.019     4087.382     632.5495   -7885.7553    7.4499385 
  176000    2366.7643    27122.551    -5545.478    626.23522   -7867.8812    7.3893635 
  177000    2344.6097    26888.477   -361.30904     620.3732   -7908.0898    7.4536907 
  178000    2379.9575    26815.332    6342.0009    629.72608   -7898.3884    7.4740222 
  179000    2440.5556    26850.348     5703.948    645.76008   -7889.4511    7.4642753 
  180000    2371.4426    27025.062    90.401355    627.47309   -7878.8392    7.4160195 
  181000    2394.6526    27066.101   -2279.2904    633.61435   -7875.6425    7.4047751 
  182000    2435.3895    27005.394   -2051.6282    644.39314   -7884.6893    7.4214207 
  183000    2475.6586    26843.361     2610.171    655.04817   -7905.7244    7.4662181 
  184000    2441.4348    26822.104    7423.3135    645.99271   -7885.6092    7.4721352 
  185000    2435.4282    26915.925    1881.6084    644.40339   -7900.2809    7.4460895 
  186000    2313.2847    26946.419   -2660.8558    612.08476   -7902.1449    7.4376632 
  187000     2420.153    27086.749   -4905.2222    640.36163   -7881.6065    7.3991304 
  188000    2419.5539    26932.272    -43.63217    640.20312   -7903.2318    7.4415699 
  189000     2381.765    26960.418   -8335.7458    630.20433   -7917.7224    7.4338012 
  190000     2449.967     26952.63    6225.3611    648.25029   -7861.9896    7.4359492 
  191000    2324.1421    26927.776     3802.785    614.95759    -7870.973    7.4428124 
  192000    2361.2319    27110.261    -1830.048    624.77137    -7859.837    7.3927132 
  193000     2392.463    26867.824    1709.8956    633.03499   -7895.1121      7.45942 
  194000    2346.1161    26859.126   -870.99196    620.77181   -7914.5688    7.4618359 
  195000    2420.3619    27001.585   -2468.5381     640.4169   -7889.8194    7.4224676 
  196000     2465.964    27054.142   -1584.0496    652.48302   -7872.1408    7.4080481 
  197000    2392.8508    26882.444   -913.61664    633.13761    -7911.939    7.4553634 
  198000    2395.9929    26939.113   -1149.4952    633.96898   -7895.1536    7.4396802 
  199000     2432.649    27061.315   -691.43388    643.66803   -7872.8633    7.4060844 
  200000    2411.8725    27000.254    187.09855    638.17065   -7879.8167    7.4228334 
Loop time of 204.906 on 4 procs for 50000 steps with 2048 atoms

Performance: 21.083 ns/day, 1.138 hours/ns, 244.014 timesteps/s
136.7% CPU use with 2 MPI tasks x 2 OpenMP threads

MPI task timing breakdown:
Section |  min time  |  avg time  |  max time  |%varavg| %total
---------------------------------------------------------------
Pair    | 143.26     | 144.21     | 145.16     |   7.9 | 70.38
Neigh   | 2.7142     | 2.7227     | 2.7313     |   0.5 |  1.33
Comm    | 5.9238     | 6.9035     | 7.8831     |  37.3 |  3.37
Output  | 0.0018281  | 0.0023636  | 0.002899   |   1.1 |  0.00
Modify  | 50.788     | 50.811     | 50.834     |   0.3 | 24.80
Other   |            | 0.2599     |            |       |  0.13

Nlocal:        1024.00 ave        1033 max        1015 min
Histogram: 1 0 0 0 0 0 0 0 0 1
Nghost:        3667.00 ave        3673 max        3661 min
Histogram: 1 0 0 0 0 0 0 0 0 1
Neighs:        71297.5 ave       73794 max       68801 min
Histogram: 1 0 0 0 0 0 0 0 0 1

Total # of neighbors = 142595
Ave neighs/atom = 69.626465
Neighbor list builds = 1035
Dangerous builds = 0

unfix temp
unfix out_file_1
unfix 1
# # clear
# write_data after_cooling_$T.in
# write_restart after_cooling_$T.lmp
next loopVar
# # thermo_modify flush yes
jump in.lmp ensemble
# jump ensemble


write_data after_heating_$T_.in
write_data after_heating_2400_.in
System init for write_data ...
Last active /omp style is pair_style eam/alloy/omp
write_restart after_heating_$T.lmp
write_restart after_heating_2400.lmp
System init for write_restart ...
Last active /omp style is pair_style eam/alloy/omp






















Total wall time: 5:21:25
