LAMMPS data file via write_data, version 29 Oct 2020, timestep = 200000

2048 atoms
1 atom types

-0.8240470402965663 29.17604704029997 xlo xhi
-0.8240470402965663 29.17604704029997 ylo yhi
-0.8240470402965663 29.17604704029997 zlo zhi

Masses

1 58.933

Atoms # atomic

82 1 1.1014754484538811 26.53790306664063 0.900282141591928 -1 -1 0
318 1 -0.23274645470971644 1.9048025349286726 3.2039633908982648 1 0 0
309 1 2.673393041700177 1.6118121180911262 1.6280715641515942 3 0 1
1245 1 2.92887932276971 4.259291891171482 5.19300349977514 2 1 2
601 1 2.056916174707325 -0.6030148674698865 3.044872739382014 0 1 -1
1979 1 20.456408695659633 5.575957147638451 -0.3554004743243627 1 -1 1
133 1 4.695589683141764 0.10632838951502366 2.03498541800998 -1 3 -2
1859 1 4.952297542626311 2.7021347165752547 1.5818050130981764 -2 0 0
2004 1 3.5491777658373724 5.318473272523966 1.7626201903580099 2 2 1
1976 1 6.266101707827618 1.3770367121217002 3.837431700518545 0 1 2
1168 1 8.260486007194427 0.08510008997595275 4.337301343492159 -1 0 0
1707 1 19.3878577590065 4.2142330854905845 0.7965382790214 0 0 1
887 1 6.947502548546544 3.5025069626804877 6.079795760211444 0 0 -1
1406 1 10.847236375403718 -0.32966480685777155 6.820401861943849 2 0 3
1100 1 9.185557778649391 -0.33438312570209505 1.1451536960371076 1 0 0
37 1 11.460087749637726 29.00593508497727 2.5741381246736816 0 -2 -1
1496 1 10.351108172875097 2.267829285947365 1.762623052022073 0 1 1
1060 1 11.027046876251644 26.331126371497728 1.6189474674181659 -1 -3 0
833 1 7.781974801663894 1.5238429276768786 2.0313198863214903 -1 0 0
14 1 12.427491121527105 -0.28418446092763416 4.720221989291839 0 0 -1
1028 1 12.782701599946023 2.807528813855578 0.37899840220334635 -1 0 2
266 1 13.821963662202421 28.735006365984688 1.6029486113371934 -2 1 -1
1766 1 13.091337762647338 1.1243195972828435 2.035165252325165 -1 0 0
1743 1 20.53195352583805 2.456098581121412 2.457357656595599 -1 1 0
1169 1 15.528333119658257 2.237285473182011 2.046980422548585 -1 1 1
1824 1 16.949317988754864 1.815937294107603 3.7392291087298144 0 1 0
1661 1 17.21356620001468 -0.1574459095156866 1.1435891248975387 -1 -2 2
1237 1 21.112387952598908 3.4661379211782126 5.274414334470965 -1 0 -2
1117 1 27.575616827712953 5.408177702660366 -0.07196893160084039 0 -1 1
925 1 16.05623146680119 3.100517721916494 -0.16238297623593057 0 -2 0
1523 1 23.412059221746244 3.9591517957846367 0.38126679529130447 0 1 0
1502 1 24.431960674146428 4.864865892848266 3.163909263444871 0 -2 1
1965 1 20.92067693701458 -0.5849358595757584 2.416097757057925 -1 -1 0
1220 1 26.62902314526754 0.826467659646454 4.584693482409664 -2 2 1
1871 1 25.073032357333954 2.8994172087043637 1.6537363497750932 -1 0 0
675 1 21.612424118371695 11.965764564920235 -0.6188820880396029 -1 1 0
759 1 24.580878937491317 1.7010813354368244 3.8928780538406853 1 -1 1
497 1 23.923204190228287 -0.7474572777824917 2.4149325086269395 0 2 0
540 1 22.772793966461094 3.0339734119273913 3.3132190653016442 -1 0 1
1419 1 14.262400356247646 20.327523765335297 -0.6366796752319986 0 -1 2
13 1 28.258931624557803 -0.3686325788416803 2.809753111945471 -3 -1 1
788 1 1.792702988181484 1.7108961737110215 4.1287372670974305 0 0 1
1422 1 28.87667435112038 4.221905072306941 3.044275530200829 -2 1 0
770 1 25.505922708507796 0.5316664194311429 1.7678229314940133 -3 -2 0
1319 1 28.579724694679605 2.2498592976950835 4.879970215705382 -1 0 -1
1048 1 1.536682317872816 6.168743439337052 0.7409802907189709 1 1 -1
81 1 4.322021530309419 5.670603937020959 3.879718034833955 -1 -1 0
911 1 2.6812306587417374 3.4423392699035187 0.2772372249775452 2 1 -1
1538 1 4.769205599710735 7.223718724648087 1.7222117937355002 0 0 -1
1513 1 2.0122937570787305 7.1937259966977845 3.6387407744449822 0 0 2
331 1 1.5711399639500159 4.184387165619639 1.8702162576611099 0 0 0
252 1 -0.5116703034425653 4.066968432533387 0.2157264526049798 1 1 0
18 1 26.72147847850758 27.10967591842676 11.811430939125668 0 -1 1
1464 1 5.449538910064429 4.7008502174866225 0.3760471024871117 1 2 1
817 1 6.3496228400439305 5.882879442254115 2.5716077557624657 -1 0 -1
733 1 27.580872980331126 2.1900228211121284 2.15406553773451 0 -2 0
399 1 5.982814916097103 2.334596239137897 -0.7067160282584847 1 1 0
259 1 4.144668062128097 8.019383603105759 3.963797498643908 -1 0 0
1803 1 9.44946055389277 4.919294462928367 1.44328341283817 0 0 2
1203 1 7.47268166833323 3.9064082902148884 1.5673805214231442 0 1 2
1938 1 8.33181751041038 3.1725416822756896 -0.6268365786212515 1 1 1
1525 1 7.732306331367607 6.537365625943112 0.7511533279963922 2 0 1
1457 1 10.666374276084161 3.904609746960311 3.4310792501029574 0 0 1
1788 1 8.976939736944514 8.06220740774078 2.135204634243639 0 1 2
1619 1 11.680828112169495 5.584137456649936 1.359330135487805 -2 0 1
1096 1 11.310347434326559 23.79340509878186 13.05225780826492 -1 -2 -1
843 1 8.516790581525683 3.434765044782875 4.202215358096413 -1 0 1
1311 1 12.780970364282355 6.01660847219974 3.4473091015722748 0 0 1
1219 1 13.524135530981535 3.7128358533540675 2.7177030001577394 -1 0 0
1046 1 15.110014060998301 5.732757244310883 2.7021897340082925 0 -1 -1
200 1 15.631919449143712 6.097970118802517 0.22332936100175127 -1 -1 -1
349 1 14.92274449847942 15.276984356846782 13.912484090688853 1 2 0
831 1 24.46989802560626 1.374069552488888 -0.22167351479472452 -1 0 0
437 1 17.088270814975626 4.504873025456344 1.2304193646369512 0 2 0
661 1 13.911941422976652 4.6853370569179456 0.7391867587916205 1 0 1
882 1 17.788121436359113 5.7835137902807014 -0.7525030025437729 1 0 1
385 1 17.89416485625814 6.658026949213215 2.770377356858045 -1 0 -1
160 1 18.768770237567214 3.1680980577198836 4.4559106852447 0 1 1
840 1 19.668030605418306 5.386110180797077 3.87740998855453 -1 1 1
1909 1 22.532572039697932 7.9897466090900835 0.6914647305474244 0 0 0
764 1 26.488431003249712 3.504282738469554 4.128986030679483 0 1 1
78 1 28.798033698995233 27.49039867600451 13.019008520167436 -1 -1 0
296 1 21.33584218906899 4.521631321193149 1.8395082854836957 0 0 1
676 1 24.698910714034017 7.07814654718891 4.907501726286599 -1 1 0
1081 1 22.893096934336853 6.47086424485091 2.319670606533202 1 0 1
948 1 26.58564898846672 5.940756015636398 4.113696071001983 0 -1 1
2042 1 9.545049751274354 15.293402279033415 0.5250493085989985 1 2 2
1847 1 18.475357964523663 20.25125295933806 0.9873957549595154 0 1 1
42 1 28.19071322368891 7.403458655372306 3.072787561628306 1 -1 0
1012 1 25.08462202400671 5.614289391942405 0.4859470315041676 0 1 -1
1191 1 -0.30177585302721943 6.162035967994424 1.9362152489258055 0 1 1
696 1 0.8597941211145919 4.792600366234249 3.9800005237673526 1 0 0
1266 1 26.691151117211703 4.748049458812768 2.1649434003853845 -2 2 -1
1097 1 -0.7609618709157395 7.877880335794016 0.3737276624817558 0 -1 0
224 1 -0.1840305377331969 10.235110166312092 4.573716182968185 1 0 -1
1687 1 0.24068525983130185 8.482197641957367 2.885070357601739 -1 1 0
1182 1 2.4310555523448074 9.100652766076324 2.1614741055285154 -1 1 1
282 1 3.30871262841426 10.583613577183476 4.033483169639251 0 0 0
801 1 1.1628162062918665 9.242028240469397 0.2209002411163774 1 1 0
1751 1 3.4965466549967195 22.40176056712825 11.933623039918137 1 1 1
714 1 6.45758927417758 6.8448678339797455 4.776710380131771 0 0 0
854 1 7.611429746886534 9.214192105970712 0.773187778276071 0 1 0
1408 1 5.863580758000626 9.794975685868138 4.303590294467829 1 1 3
1001 1 7.7436837736573345 10.975785355341278 2.425911392688058 0 2 2
191 1 5.211082057136474 9.496891325648978 1.5977494413334465 -1 0 0
1724 1 28.45767614947148 1.2932593377790944 13.442427183153347 -1 3 0
928 1 6.603919319355406 8.246919754456748 2.7951839627479482 1 2 1
1591 1 10.144756010572861 10.226216530222166 0.9460817238812598 2 -2 0
451 1 10.411260716878195 10.676464668173704 3.760472590066551 0 2 -1
923 1 10.599720307023983 7.927315962182538 0.16016666639031918 1 0 -2
1314 1 12.505934572758768 10.4316270265551 2.454147768958924 -2 1 0
994 1 17.34079477734911 13.515456203857191 14.167151722746164 -1 -1 -1
514 1 11.49771736817933 12.1354127894893 1.003511652713168 -1 0 -1
1288 1 11.721642873051342 12.685887616028708 3.4415387379226017 0 0 0
1449 1 13.703911181420269 6.999966540549441 1.7241517994783493 0 3 -1
946 1 16.824232622205095 10.199398439779145 3.5432911034495964 0 -1 0
335 1 15.117136755571881 10.169094723400365 0.6017767361709543 0 -1 -1
589 1 14.090182529450802 8.847778023804285 2.82700975309177 0 0 0
106 1 16.556118080945936 8.350474256822844 1.5822097574606495 0 0 0
1341 1 18.74743283934064 9.096047050937507 2.296087454773591 2 0 2
1242 1 18.152672672132773 10.784872580452516 0.826208931754314 0 0 -1
1946 1 18.85867443349144 7.137411594870663 0.6894784828186731 0 1 1
1510 1 24.09675547964302 7.096592080411364 13.159556120077761 -1 1 0
11 1 20.514930768965506 6.662635645308053 2.118208126111699 0 1 0
1372 1 20.74595953979955 11.57527036304917 1.3462793591611644 0 0 0
1448 1 12.20347307280678 9.552524173311014 0.16400674518303537 1 1 1
276 1 24.739849562882704 7.038533459945667 2.348511489386124 1 0 1
333 1 23.994664632718983 9.257275981809835 2.1835909152893818 0 1 2
120 1 22.525037885846366 12.64465923463974 3.0469927355843716 -1 0 0
257 1 20.526494869903264 11.284190311112752 3.8641948737770253 -2 -1 0
1949 1 26.08781047801965 1.4933257970271603 12.33043442611991 0 1 0
51 1 27.746268087451742 9.481358589724618 1.5073688276712747 1 -1 0
1151 1 27.45857791771184 11.794695080243175 0.8760662476757823 0 -1 0
1861 1 25.19401341043477 8.687547554544958 0.37352544622924566 -1 1 1
1365 1 0.3620031570602096 10.987854885813155 2.4442377492159895 3 0 -1
779 1 25.349720026746386 11.05564995941842 0.03297971761948426 -2 -1 0
1110 1 20.666247238042555 21.447515770760415 -0.1805735486959552 0 -1 -1
1069 1 26.81340123079523 7.052783829512241 1.1691964329844289 1 0 2
1733 1 27.41248051813924 7.662276570812512 12.681006181953697 -1 1 1
515 1 27.250300526619878 26.75967699243887 8.10960507907303 -1 -1 0
830 1 1.1652984114974962 13.189206275812731 1.599278425132351 0 -1 0
981 1 3.5809658801304165 0.9320822552058745 -0.2797142148244396 0 0 0
586 1 3.807927437859095 12.744207804765024 3.4279557485790164 1 -1 -1
2034 1 2.320010578012733 15.618298689090693 0.6512152902759969 -2 0 0
1838 1 3.9773522994998327 13.926432529668308 1.3695280697049133 0 0 2
1715 1 16.522637906076547 19.571065007254735 -0.2893435388672305 0 0 1
1433 1 27.11694850010007 25.332949070608358 9.83684554187987 -2 0 1
1084 1 5.941463667668432 15.08105372661685 3.1928035393895042 2 -1 -1
1396 1 5.512476539496273 11.962221213143529 1.6730057171343322 0 0 0
1884 1 6.06473825130112 13.172603897802778 -0.5655856272214008 0 1 2
1528 1 27.782996036408342 14.780929721840474 -0.7457199847805526 -1 1 1
490 1 7.252368164615692 14.91695366841747 0.49179691365247713 1 0 -1
592 1 5.626458159933946 17.324647407703957 2.9661181625640523 0 0 0
624 1 5.641788527271923 12.265434597468643 4.537922635708704 -1 -1 1
1163 1 8.05301258906881 17.359983799176174 3.7337995279537823 0 2 0
2031 1 3.33308016173354 12.424227668789525 -0.1983525291213808 0 0 2
979 1 7.425346237235733 13.102052885852553 3.3568372001591333 1 -1 1
768 1 25.642345238599894 9.226258132158405 13.134496881160427 -1 1 -1
1293 1 10.979988839936548 14.583920263380918 2.345529693773614 0 -2 1
1702 1 9.322298926829939 12.628526831633593 2.0324610585625136 -1 0 0
2038 1 8.229530658204556 15.174063644203327 2.3087225796640047 0 2 0
1955 1 9.920974364059692 16.311357244309086 3.9086179168770974 -1 1 0
1604 1 16.26448390215408 16.329835509629643 12.223305704097676 -1 -2 -1
54 1 10.988906895836779 17.03034945128529 1.5602514270075072 1 0 0
386 1 13.83235177225064 12.00345172998328 1.1851875701617218 0 -1 0
1541 1 8.599252521823004 23.607126026371173 -0.45856759076936227 0 0 0
1717 1 13.931437850769028 14.193746282091968 1.6556848541433737 0 1 -1
1934 1 22.949395993311388 1.4475012502200304 1.6726690108848707 -1 -1 -1
1271 1 22.66855223871539 23.770524020951232 12.843098177044274 0 -1 1
1672 1 17.404999620739783 13.508278515944124 1.2927337626428308 -2 1 2
1085 1 16.15153213963641 16.881940273896166 0.9987708300903884 0 0 0
1044 1 18.32465292394603 11.756114525390734 3.0044215231516884 -1 1 2
566 1 15.903560227888082 11.662082998805452 2.166879386539839 0 0 1
1783 1 19.888940852840484 13.895726146151869 0.28746101059329465 0 -1 1
885 1 22.752575584933982 26.096100304259817 13.204680661576985 -1 -2 0
977 1 13.512261843510341 16.46693691314621 1.351962024536486 2 0 -1
1825 1 23.117198825984044 9.942078982014657 -0.7074714345329719 -1 -1 1
1779 1 23.584866127673088 15.875508368771513 0.09504087668087413 0 0 1
1745 1 22.998067013315453 11.179375127657496 1.051294304270827 0 2 1
1556 1 21.113420108636454 13.555365976318289 4.89113085709344 0 0 1
521 1 18.86301616693179 12.434741751500155 5.135279256178637 -1 -1 -1
1320 1 22.33895997699882 14.068743021238065 0.7456294985767717 -2 0 1
604 1 26.71840165713576 3.2066079762157846 -0.09691930124670134 1 1 1
311 1 29.091992173711336 13.174893654787875 0.31046884395277696 0 0 1
1357 1 24.980026859844255 12.872280032860534 1.7589100743363129 -1 -1 -1
899 1 0.36516887333284065 15.651608604032546 1.4891437852295017 0 0 0
545 1 27.957789948248777 14.02122430626918 4.612817477315403 -1 0 -1
446 1 25.794470797091105 16.07760000927219 -0.672838259011743 1 -1 2
1176 1 27.410574325865063 16.30026041910059 0.9198020943267047 0 2 -1
1362 1 23.658640766640247 12.832233716377244 5.242740034015865 0 0 0
486 1 25.492623081926688 5.37916217556738 14.02599412395563 0 0 0
799 1 -0.7646173719212683 16.682127272708016 3.1944692623027953 0 -1 1
1836 1 11.626695769146092 18.348363627748057 13.944516963761908 0 1 2
550 1 -0.5433386909074363 17.777282610425335 0.5961215050035151 0 -1 0
537 1 20.06650275947113 16.10478855830247 1.0080633748437047 -2 -1 0
1658 1 3.40202346143119 15.522920776967485 2.6548758426278347 0 0 1
1416 1 1.4766194770797263 17.46759038600254 2.583166210207556 0 0 2
805 1 2.041517415720104 18.085569080822108 -0.10985357544021734 0 0 0
409 1 28.119910245605478 20.487250985450416 0.695574098295273 0 -1 0
131 1 4.024821658066913 17.35764688064977 1.1782359065613086 0 2 0
1833 1 6.235611998986473 16.65156159629103 -0.13845374636694074 -2 0 1
127 1 5.65230365718476 20.40161708215796 2.3199161856453796 0 0 0
796 1 21.253138261891866 2.635977343773816 0.03296239985617011 1 -2 0
1683 1 20.897030581352183 9.355638152235748 1.229356423288348 -2 0 3
223 1 2.1826212513742793 20.277778364747384 3.015801601681719 2 -1 -1
506 1 8.856504760386168 17.49450772115918 1.3170158181700677 1 0 1
1299 1 23.21901361623554 21.822982709652162 0.03721743317045023 -1 -1 1
1534 1 21.77569524113636 17.590891002229437 -0.1066839864188559 -1 0 0
1771 1 5.502355491372092 18.99752876674096 0.1722253370316258 -1 1 0
1716 1 10.119854084938508 18.646792244531138 3.2740603422842414 0 0 -1
692 1 9.690754479484866 20.208157093976016 1.1579475686823224 1 2 -1
1781 1 9.411230744416123 17.79872512514368 5.92060282900743 -1 0 1
686 1 11.109899547307391 20.687491430957586 3.0817194757086703 0 0 -1
814 1 2.2811284045851825 20.86544833337315 13.57723215887388 1 -1 1
40 1 11.918076293294641 19.26918380758546 1.0519238709405938 -1 1 -1
163 1 14.109843936640845 15.588794376408554 -0.7874552456178742 0 -1 2
1768 1 0.42973602509515985 2.0432545111362117 1.4078309446235013 1 1 2
290 1 13.931570683974105 19.995414304808836 3.657983646412169 0 -2 -1
234 1 27.513480673908184 25.075717280654576 13.554838364265098 -3 1 1
435 1 14.525957595760127 18.895503744836986 1.6493517178849095 0 -1 0
1071 1 12.408703940217997 18.146577261276107 3.2452040236240167 -2 0 1
1606 1 26.423085374244888 29.033234904129237 13.583269371953133 0 -3 0
1132 1 6.957441734670148 20.007573751182623 14.110946442607371 0 0 0
565 1 18.03706638693452 16.371475600317975 2.2857744928115786 0 -1 1
1880 1 19.345666464594593 16.481747913617053 4.930466764083781 2 -1 -1
153 1 16.914097482753885 18.962969991883966 2.221971119954337 2 -1 0
1678 1 20.088456590398952 13.712751167776156 2.6300416633431425 0 -2 2
400 1 21.001717342979777 17.40052967674566 4.032251917732704 -1 0 1
1171 1 15.872446571183268 14.912621311955585 2.894118925829244 1 -1 1
732 1 24.5909016058454 15.399611173460627 2.572994577754569 -1 -1 -1
1820 1 22.210581761513026 14.942742460580185 3.3752205193231726 1 0 4
60 1 22.612078600993165 18.981029129895298 3.2581741823382906 0 -1 0
1645 1 20.449179178817914 16.006326467533327 13.984371068917493 -1 -1 0
1642 1 22.265999067782882 16.454993141656484 1.8399225708707 -1 1 2
1982 1 21.249921531923487 20.48157859466502 1.8450457040818606 1 0 -1
699 1 27.01155861086421 16.156287819841307 3.076530149868824 -1 -1 0
1370 1 -0.7346034737862273 19.424747576552704 2.8136297270852832 0 0 2
524 1 26.89033495608398 18.257704354238538 -0.6063485167077021 0 -1 1
984 1 25.0479832424711 17.55047339000598 1.4419723024013353 -1 1 0
600 1 23.513486809370793 16.793847539990207 4.4302421424435074 0 0 0
1039 1 -0.3982320676600757 8.994623428230348 12.933696335832076 1 -2 0
156 1 14.121046548431337 10.727552204841329 13.58666378453203 2 1 0
811 1 0.4985013940001133 20.034693942474956 0.577266862139199 1 -2 1
1323 1 -0.10036728232837866 23.105317069523338 -0.1219861751796103 0 -1 -1
346 1 2.0651123917602794 23.154380559548358 3.6621074290508755 0 0 1
2025 1 2.193885093715316 22.04559173074772 0.9496671558269869 -1 0 1
368 1 0.19022478307743973 21.903568285027344 2.309398546429356 1 1 0
828 1 28.68502185279848 21.416575883562942 4.901184268948954 -1 -1 0
541 1 28.02622006827171 22.37377476051349 -0.5227836274175062 -1 -2 0
1230 1 2.877947213866823 24.83877613868921 -0.19149683058403044 1 2 0
871 1 20.85884333942966 27.56739665342102 -0.8148870594599836 0 -2 1
1579 1 4.247880758371329 23.414885228547288 0.9680315310484133 -1 0 0
355 1 4.130060903671012 24.31422828690604 13.397257437877412 -2 -1 -2
1601 1 10.082751312102934 24.383209160503814 2.1394497156869505 1 2 1
1415 1 3.3777272301280625 19.635497377198558 0.9962410278722555 0 0 0
474 1 27.929669244628986 10.258912671462381 13.660455732463005 0 0 1
397 1 17.44077505918158 8.338471183674107 -0.6839481993034398 -1 0 -1
1083 1 12.714993761232673 22.583655314147975 3.191327646490884 -1 -2 0
1476 1 8.435036552033711 19.775567744638405 4.142181929034001 -2 -1 0
1120 1 6.391643485594405 21.987812537576783 0.03174724069264079 -1 0 1
2006 1 9.264486259480796 26.155362455949877 4.565422104426282 0 1 0
1997 1 7.470049582221698 19.358518132395744 1.7527873639624572 -1 -1 1
1223 1 10.657607439945693 22.28571766992404 1.297567532163988 -1 -1 1
414 1 -0.7902979001858874 25.322881176032617 11.61949631145613 1 0 0
1830 1 19.81258871290534 22.67908270031039 13.039503425464824 -1 -1 0
995 1 17.05703546832884 22.774468600535876 0.9693586565646493 0 -1 -1
1481 1 13.527917701800266 24.88061331236843 -0.7056378934094018 -1 2 0
548 1 13.035155556735846 22.082752665686492 0.1700662651241125 -1 -2 0
985 1 16.635619903880333 24.552219313580203 2.36562197347992 1 -1 1
1453 1 15.194674292616536 21.11825094374665 1.4993198020664966 1 0 2
1150 1 14.721094352766533 23.50997750321781 1.3230356739558196 1 0 0
1831 1 6.153787466718051 10.655646579584682 -0.4182903273669116 1 -1 1
894 1 14.242907742544588 17.442823060444347 13.069708591399742 -1 1 0
232 1 20.054838042816822 18.214782195473777 2.018655791022083 -2 -1 0
440 1 17.094878406922255 17.603291242291736 4.131336006942411 1 2 0
401 1 2.233728938259937 9.566928753920012 12.2841720561176 1 -1 1
798 1 17.41658697991329 21.256485254982756 3.099491029953541 1 -2 -1
943 1 19.6301975030041 21.84967017571429 2.629290171922342 0 0 0
1624 1 20.45127395042504 22.97297573612748 4.604851264922033 0 -2 0
1325 1 27.27655651232292 25.094620430483904 0.17896180497353265 -1 0 0
306 1 18.83868851926484 19.310903138021317 3.500807205683503 1 -1 0
837 1 21.453274743085384 23.043354226691154 1.3895918459130843 -2 -1 -1
83 1 23.349497236867617 18.779068725095083 0.981899502429608 1 -1 1
1609 1 20.434681738781837 25.731019877344405 0.8381511613913035 0 -2 -1
1446 1 23.75663512493961 25.412350466567172 5.541246967188197 0 0 0
1917 1 25.605559020265858 17.94430996886674 3.9019902570079488 -1 0 0
2044 1 22.647234395991134 21.599124882703556 3.2787651602037897 1 0 1
1461 1 25.80768791978897 25.304184620000665 1.7784908354773519 1 2 1
212 1 24.817233208001515 22.734916301195135 2.645705913959921 -2 -1 1
1680 1 25.766141095020682 19.775572856441332 0.5753378032428824 -2 0 1
1156 1 27.30103758382342 18.595612867177756 2.2385335530122554 -1 -1 0
138 1 26.93931756816038 20.88869704443854 3.041603636979175 -1 -2 1
1381 1 25.770925718429517 26.019443980505933 3.9752140652617207 0 0 0
508 1 26.35181598565149 22.11136136503696 5.135767618553644 2 3 0
1275 1 0.07827201621473201 -0.5234881743197426 1.1082057841973658 2 2 1
1332 1 0.9311606021397187 25.822001231510356 3.2418777574155673 1 -2 2
157 1 29.10627665620706 25.011554061080805 1.4031467416912382 0 -1 -1
195 1 1.5332318994165193 23.97936333787376 1.6464004193232742 -1 2 -1
615 1 3.451022997436338 24.761249952608992 2.623811051464456 0 -1 -1
2007 1 5.064498684471679 26.13516297897059 1.8064566471080852 1 1 2
1507 1 2.7732830480971393 26.957104050683956 3.404260969883783 0 1 0
465 1 17.426595793101786 21.331226551466116 12.911895327969205 1 -1 -1
569 1 9.235649154644927 19.519209965996854 13.05343285262617 1 0 -1
1364 1 5.779649403433088 28.19482942788579 0.926856737508728 0 -2 0
139 1 6.568680334108628 25.131832486517126 0.31525492543645384 1 1 0
507 1 7.5289121539459085 26.121037201825487 2.535076051155387 0 1 0
441 1 10.366174861218047 -0.18618400057224682 12.98711887946158 1 1 1
1978 1 4.875075290743464 26.153989868215167 4.233490658363608 0 1 2
284 1 7.371375966714385 28.9594885871868 2.4676458011441422 1 0 1
1399 1 6.7631125484015735 27.49027326321606 4.472431379538384 0 -1 0
1780 1 12.610032700677815 27.193939753866996 3.597182244882455 0 0 1
731 1 12.76516786295883 24.444313292976243 1.7208837465867894 -1 0 1
1088 1 2.765461862124936 11.251197475396316 1.8752041249517708 1 0 -1
1463 1 8.465310684857172 27.16317422037342 0.6840673552142935 0 0 0
97 1 10.876277704933825 26.23579693446148 -0.7140618328853747 -1 1 0
719 1 9.302243860661598 28.09934570109642 3.2788124600614443 0 -1 0
21 1 11.126512294930743 24.383214575403848 3.94029387164505 0 0 0
1283 1 18.25131193006832 1.996645823053512 1.0162150846961706 1 -1 0
1671 1 19.2738895160816 23.533727723735375 0.8312954628183744 0 -2 0
539 1 13.458863881160498 26.660239116241414 0.98762687764236 1 -1 0
607 1 13.928746302726683 24.9446576630466 3.528271224877612 1 0 1
2039 1 17.416027527114526 28.652917313049098 3.286355838886892 0 -2 0
736 1 16.716908467005958 27.48057342167639 1.2906521594433316 0 0 1
338 1 15.289062552804687 27.48975416600986 3.1197719816155978 0 1 1
1491 1 29.08400479619136 10.864893620585173 -0.21644287511777593 -2 2 2
620 1 11.7573646781027 28.389361964157857 0.21923123814029477 -1 -1 3
268 1 6.5922972556999575 0.1377896311572504 0.29182270830735346 0 0 1
835 1 19.874596102388136 0.473081142941874 -0.41967268446551825 0 1 1
167 1 18.21863644802135 25.85667446110232 0.3509858697012558 -1 0 1
1940 1 19.02780409655425 28.370206319177722 1.5697813560247043 -1 0 3
745 1 24.285132710317782 29.16927338368295 -0.18283314170769804 0 -2 2
1610 1 18.076902873453527 23.403854399090402 3.6181844578708144 1 0 1
908 1 19.528945784808585 26.278549579946983 2.7437654555489877 -1 -1 4
826 1 18.972352751308744 0.730775014774893 3.3404358970246992 0 -1 -1
205 1 16.490278645151953 25.65230402125463 4.04405519816267 -2 -1 1
1676 1 22.211911637799325 27.17119748666282 2.4660981107575966 0 -1 0
176 1 21.158423886866643 24.49393842258284 3.190176034287914 -1 -1 -1
1503 1 23.614744388785176 24.762499917895603 2.8579237393071732 0 -2 0
79 1 24.438795397549782 27.051862451162265 2.6240207751765015 0 -1 1
700 1 22.201739236233486 -0.48336121839759005 0.4214903582170648 1 1 2
976 1 23.070205646131203 27.157529267866924 0.4598392548905912 0 0 2
1709 1 5.769296406006229 8.2127451443546 -0.26100331849523606 -1 0 1
189 1 25.95515442636332 27.512584136933235 0.578610368865476 0 -1 -1
371 1 28.43015152596148 26.91721130357726 2.8256514402857476 0 -2 0
144 1 26.38426589247083 28.303581346195056 2.7367860621594797 -1 -1 0
1297 1 27.305873107254616 -0.329918681177449 0.333177360667986 1 0 1
24 1 0.29720360703824644 28.117412699798223 3.2606410333847373 1 0 -1
267 1 28.024121643487995 23.267755954287143 1.918569738562205 -1 -2 1
1284 1 28.80322164031225 27.555496716549943 0.4031169996361772 -2 1 0
1585 1 25.907239879217144 27.94045526556991 5.271930239258803 -1 -1 1
1207 1 2.6363717728467457 1.4222160507202943 6.6287951665547284 0 0 -2
957 1 1.3522819600547646 -0.09252475469088872 7.978122652557428 1 1 0
165 1 3.865498010884439 1.1905543596004406 3.717920378061086 -1 2 0
1521 1 3.878935574905557 -0.44392004243548366 6.939545243189761 2 1 1
691 1 0.2953347945214879 -0.49750719162553364 5.323543506003215 0 1 -1
723 1 4.168905022416523 28.71700548774097 4.00873920234616 -1 2 -2
2040 1 3.607387263062325 27.919894714564045 8.653563349286399 1 1 2
1804 1 4.354017718046458 2.714502696399886 5.763249366885176 1 -1 0
1002 1 3.9820739560203045 2.6357597544238427 8.163519609172518 1 0 -2
2041 1 5.340449153408363 -0.6422409462736742 8.873059222161249 0 2 1
1010 1 5.369606199354906 3.5691675453927045 3.904174874519156 -1 2 -2
136 1 5.233449525910772 4.966463153751245 9.74142593695754 0 -1 0
1693 1 5.802477353338247 1.8361481186801858 9.208937912017022 1 1 2
1674 1 11.022057822031513 27.643676029196577 5.094822199903619 0 0 0
776 1 7.776454850073488 2.713680322487782 8.185149148007609 -1 1 1
1407 1 3.1793535857805804 4.401984146850339 7.445020185745829 2 0 1
2036 1 6.137356819246 0.621278797419968 6.297493888767277 1 1 0
237 1 4.418140184934238 2.670745392288568 11.291684085500782 -1 0 2
575 1 10.24967375278167 1.2000986331559655 3.9575540467075525 1 -1 1
459 1 11.422110924788507 2.626507154384061 5.560375325168766 -1 -1 0
1750 1 10.086336312387356 3.285161567070019 7.246604828562575 1 2 0
905 1 12.832178934881117 28.951625402397973 6.987880771782689 1 0 1
1229 1 11.716999238158856 2.170398047683868 8.130629103160592 1 2 0
853 1 14.457954793939662 0.6783857825599076 6.160539716674015 0 1 -1
715 1 13.65806182007936 3.538730906027407 8.832580678605547 -1 2 -1
1991 1 13.52385105729862 2.920687000618819 6.767742099994167 -1 1 0
873 1 16.030585466842606 27.32611968117128 9.464723520774982 1 0 -1
1079 1 15.059902459519344 -0.29446699325302794 4.23839788867582 -1 0 -1
1637 1 16.08771896351749 2.654973511412072 5.6145741143423615 1 0 1
154 1 13.070693908619752 1.8596739081817981 4.450286628236911 1 1 1
997 1 16.744021084514454 0.05915168130822368 7.835595270331664 -1 1 -2
1931 1 13.791339488249507 0.6196054745659496 8.9043678202722 2 1 0
966 1 18.382195123129243 1.3736697084419913 6.7040179802004065 1 1 0
1719 1 20.392281526332642 0.5594001899230241 5.443317434876427 -1 0 0
627 1 17.874519019115333 3.8025055447843377 7.348313087444319 -1 1 0
1239 1 15.914620365405177 0.8718742454375075 10.181858311547353 0 0 -1
1988 1 18.006851482326695 1.9081138730632974 9.120177796698062 -2 0 0
945 1 17.635154177658833 27.636504768209623 7.666746876121049 -3 1 -1
1264 1 20.178799964581145 0.9076228353707148 8.082540964404027 0 0 3
1462 1 22.201853944638874 -0.6485376624612726 6.120280772936911 -1 0 -1
408 1 22.21598203632049 0.9004994252734073 3.913814837875007 0 0 1
2048 1 24.61249340885849 0.39122600354499615 5.638301081550912 -2 3 2
618 1 22.279224567244658 1.5913689124143144 7.0218393738419005 0 1 1
424 1 23.818330175526995 1.738736413986509 9.287021477687706 -2 1 -1
23 1 28.618240808430468 -0.4364592964355812 8.548803014565863 -1 -1 -1
579 1 24.078305435583356 3.329417735951597 11.20559576215155 0 0 1
568 1 26.8368115353632 0.7438447217749335 8.89049790832843 -1 -1 0
1469 1 28.082181186250626 1.4348626284932369 6.933623801890118 1 2 1
1964 1 25.88361682905877 2.2160670719851607 6.423748925479601 -1 1 -1
1543 1 27.144126962264327 3.2291605718889604 8.658797949733 0 -3 1
721 1 29.07165753881808 28.439568190336328 6.681201073654055 0 0 0
1807 1 1.7957723915776738 9.006560277469053 5.197565609376946 -1 -2 2
547 1 -0.43976348892089334 7.801087604354585 5.332344982290827 1 -1 1
519 1 0.25515515407399136 3.160848371289722 6.148961738092703 0 0 1
585 1 1.1073877859091368 7.655775676308355 7.5288361993732735 -1 0 1
1159 1 1.2983406446211774 5.703476648248478 6.185528324114578 -1 -1 0
1402 1 2.293743440857939 6.123712225221132 8.638705537744844 1 1 -1
1895 1 2.909015600568644 7.19586091284166 5.934852066502641 0 0 1
1127 1 8.832908080093981 4.7345374384756935 8.18922268880776 -2 0 -2
679 1 7.71942147020307 7.106725169057767 8.402077904037041 0 0 2
1356 1 4.705829708762417 5.160980614815096 6.160512187594438 1 0 0
512 1 2.710206017916175 4.4595241540114765 10.159092978201022 1 2 1
190 1 5.175690213836882 6.506465364023953 8.00880597705708 1 0 1
982 1 12.636467578945798 4.807757809877307 5.868281141335997 -1 0 -1
1772 1 10.44807014026513 5.373202490889697 6.295823056485493 1 2 0
1970 1 8.114450726414908 5.366419744999984 5.850173549626362 0 0 0
2018 1 8.432134898363344 6.11156854762459 3.49471733614231 1 0 1
1222 1 11.317978146986837 4.6582943936586085 8.678723697522917 0 3 0
251 1 11.300236408194856 8.443171221510152 2.8493012830860858 1 2 0
1094 1 12.176360840048151 8.69276458341092 9.441683626886135 0 0 1
310 1 10.032274402873611 6.802621184590762 9.236254028858358 0 2 0
1879 1 14.41243919819901 8.965298929146403 5.150595318955438 -1 -1 1
3 1 12.493435031256038 6.2781413308147895 9.499722485901433 -1 1 0
1828 1 14.630893049279749 6.572112947550475 5.220416204210814 0 0 0
1009 1 17.11106329758637 4.47813400976926 3.5188472582930466 -1 0 0
1713 1 15.829187079721542 2.1827205789770967 7.922684467686462 0 1 3
670 1 12.263743465374478 7.081048202343674 5.750274056806986 1 0 -1
1118 1 15.455789609982073 8.99457319675764 7.745584414065188 0 2 1
376 1 18.76293810842585 7.618758632605665 4.802752477570149 1 0 0
216 1 16.751460841442608 5.785791996001854 5.337363022319276 0 0 0