LAMMPS data file. CGCMM style. atom_style full generated by VMD/TopoTools v1.7 on Tue Jan 05 12:21:09 +0545 2021
 500 atoms
 0 bonds
 0 angles
 0 dihedrals
 0 impropers
 1 atom types
 0 bond types
 0 angle types
 0 dihedral types
 0 improper types
 -0.055979 27.444021  xlo xhi
 0.063189 59.563189  ylo yhi
 -0.004546 14.210354  zlo zhi

 Pair Coeffs

1 0.4475 3.79

 Masses

 1  44.01 #co2

 Atoms # full

1 1 1 0.000000 7.031432 9.421648 8.776958 # N 1
2 2 1 0.000000 4.103284 54.287609 2.151130 # N 2
3 3 1 0.000000 11.516998 8.314680 6.970818 # N 3
4 4 1 0.000000 12.068024 3.146636 6.330621 # N 4
5 5 1 0.000000 4.307329 48.226196 2.834604 # N 5
6 6 1 0.000000 9.376122 58.182922 6.168258 # N 6
7 7 1 0.000000 16.423460 9.431800 5.553484 # N 7
8 8 1 0.000000 5.627970 6.346542 2.103159 # N 8
9 9 1 0.000000 8.028910 53.674904 4.724625 # N 9
10 10 1 0.000000 18.225075 4.647410 8.434811 # N 10
11 11 1 0.000000 8.216681 50.269466 4.157296 # N 11
12 12 1 0.000000 10.079330 1.338444 4.025847 # N 12
13 13 1 0.000000 16.431063 11.374985 2.237020 # N 13
14 14 1 0.000000 10.157793 4.955629 1.640180 # N 14
15 15 1 0.000000 6.314650 4.702484 5.033297 # N 15
16 16 1 0.000000 18.053232 7.922119 0.403903 # N 16
17 17 1 0.000000 10.807953 52.969456 13.181349 # N 17
18 18 1 0.000000 10.871053 8.110660 3.856763 # N 18
19 19 1 0.000000 12.570596 6.658661 0.332106 # N 19
20 20 1 0.000000 12.971706 0.247960 8.377018 # N 20
21 21 1 0.000000 8.952571 13.288404 12.541208 # N 21
22 22 1 0.000000 12.170877 9.818326 10.112418 # N 22
23 23 1 0.000000 2.996727 10.049320 0.003735 # N 23
24 24 1 0.000000 14.828590 5.223416 2.770035 # N 24
25 25 1 0.000000 7.014343 53.781216 14.015075 # N 25
26 26 1 0.000000 4.489257 2.703249 11.428035 # N 26
27 27 1 0.000000 17.133085 58.403362 11.693589 # N 27
28 28 1 0.000000 21.813198 2.417229 7.132219 # N 28
29 29 1 0.000000 19.368950 7.106355 3.334122 # N 29
30 30 1 0.000000 4.626081 2.069551 6.208678 # N 30
31 31 1 0.000000 20.064857 58.917057 0.994037 # N 31
32 32 1 0.000000 11.727095 1.564756 11.547021 # N 32
33 33 1 0.000000 4.335663 7.540090 9.512907 # N 33
34 34 1 0.000000 9.542642 50.164970 7.676648 # N 34
35 35 1 0.000000 9.031532 8.645187 13.952489 # N 35
36 36 1 0.000000 18.020271 14.392478 13.890915 # N 36
37 37 1 0.000000 11.672371 1.607649 0.835706 # N 37
38 38 1 0.000000 13.563677 58.466930 5.129111 # N 38
39 39 1 0.000000 11.891612 48.709202 1.812383 # N 39
40 40 1 0.000000 6.430562 49.016544 12.889950 # N 40
41 41 1 0.000000 0.057514 4.180341 6.796868 # N 41
42 42 1 0.000000 21.497972 7.682225 14.022756 # N 42
43 43 1 0.000000 5.253370 57.636623 5.367852 # N 43
44 44 1 0.000000 5.476051 8.737350 5.187908 # N 44
45 45 1 0.000000 10.878984 13.362861 5.168196 # N 45
46 46 1 0.000000 4.223105 50.832966 0.463132 # N 46
47 47 1 0.000000 13.149518 50.492683 13.394407 # N 47
48 48 1 0.000000 5.389219 49.214787 9.473642 # N 48
49 49 1 0.000000 26.470535 1.045037 9.369303 # N 49
50 50 1 0.000000 26.555887 3.790902 11.046507 # N 50
51 51 1 0.000000 16.836145 2.913339 11.485444 # N 51
52 52 1 0.000000 15.142101 8.221561 11.260639 # N 52
53 53 1 0.000000 8.322109 46.933006 8.674757 # N 53
54 54 1 0.000000 24.402035 9.792091 0.147767 # N 54
55 55 1 0.000000 11.894107 17.591850 8.561356 # N 55
56 56 1 0.000000 8.999172 41.937798 11.261938 # N 56
57 57 1 0.000000 22.425978 4.808212 11.550282 # N 57
58 58 1 0.000000 5.074224 43.655910 2.667573 # N 58
59 59 1 0.000000 11.980217 57.650013 10.693190 # N 59
60 60 1 0.000000 13.401920 54.791668 9.694272 # N 60
61 61 1 0.000000 3.243565 43.609791 5.979863 # N 61
62 62 1 0.000000 13.937582 50.638458 6.337124 # N 62
63 63 1 0.000000 10.007658 5.025447 8.334678 # N 63
64 64 1 0.000000 0.561796 49.036812 12.422329 # N 64
65 65 1 0.000000 0.889588 54.253502 3.881803 # N 65
66 66 1 0.000000 25.160650 53.754036 7.189502 # N 66
67 67 1 0.000000 4.989429 57.702591 0.974290 # N 67
68 68 1 0.000000 15.077886 1.886965 2.875968 # N 68
69 69 1 0.000000 5.234679 11.238459 2.889703 # N 69
70 70 1 0.000000 22.742136 8.860209 10.982869 # N 70
71 71 1 0.000000 11.974580 46.452888 6.562306 # N 71
72 72 1 0.000000 2.469086 4.795244 2.820386 # N 72
73 73 1 0.000000 1.267440 11.998970 5.320859 # N 73
74 74 1 0.000000 20.607212 2.638798 3.099813 # N 74
75 75 1 0.000000 19.321890 58.835098 6.001440 # N 75
76 76 1 0.000000 2.066578 54.158379 11.369048 # N 76
77 77 1 0.000000 0.131994 55.400654 0.601527 # N 77
78 78 1 0.000000 15.631007 5.733441 13.217623 # N 78
79 79 1 0.000000 14.555217 12.897285 10.670642 # N 79
80 80 1 0.000000 22.079060 56.881470 3.849844 # N 80
81 81 1 0.000000 2.425247 6.742840 13.850642 # N 81
82 82 1 0.000000 25.781851 9.980230 3.455414 # N 82
83 83 1 0.000000 23.650194 43.374325 5.301743 # N 83
84 84 1 0.000000 24.615093 12.894583 5.479093 # N 84
85 85 1 0.000000 20.408157 47.754166 0.702570 # N 85
86 86 1 0.000000 6.041742 44.265789 8.072506 # N 86
87 87 1 0.000000 21.323801 15.518054 8.919519 # N 87
88 88 1 0.000000 3.661705 47.648804 6.335342 # N 88
89 89 1 0.000000 0.041480 7.440857 5.817946 # N 89
90 90 1 0.000000 15.364616 2.993764 6.246385 # N 90
91 91 1 0.000000 9.884754 50.266090 11.513505 # N 91
92 92 1 0.000000 17.634964 11.913401 10.769102 # N 92
93 93 1 0.000000 27.029600 58.347092 5.964544 # N 93
94 94 1 0.000000 16.627615 47.022861 2.820039 # N 94
95 95 1 0.000000 0.155025 10.796704 8.442370 # N 95
96 96 1 0.000000 24.475517 43.362942 9.677065 # N 96
97 97 1 0.000000 25.941378 47.372498 2.852803 # N 97
98 98 1 0.000000 22.824013 52.738811 4.313866 # N 98
99 99 1 0.000000 14.566542 50.070602 9.382414 # N 99
100 100 1 0.000000 15.100566 13.043970 6.811580 # N 100
101 101 1 0.000000 8.709723 3.393581 13.428229 # N 101
102 102 1 0.000000 1.542893 0.248328 12.471007 # N 102
103 103 1 0.000000 21.330700 12.330059 12.057727 # N 103
104 104 1 0.000000 19.841131 12.646225 1.744841 # N 104
105 105 1 0.000000 10.076623 12.188249 8.572300 # N 105
106 106 1 0.000000 8.449976 15.790391 4.598105 # N 106
107 107 1 0.000000 16.810631 5.771653 5.048104 # N 107
108 108 1 0.000000 21.529818 9.023110 6.064425 # N 108
109 109 1 0.000000 1.630436 0.750040 2.194391 # N 109
110 110 1 0.000000 23.283995 1.021632 11.805373 # N 110
111 111 1 0.000000 11.290887 16.792557 2.879406 # N 111
112 112 1 0.000000 6.844402 5.158971 8.703610 # N 112
113 113 1 0.000000 4.423158 12.216460 10.238753 # N 113
114 114 1 0.000000 20.412100 10.494697 9.027739 # N 114
115 115 1 0.000000 24.910061 5.537525 1.863984 # N 115
116 116 1 0.000000 19.002110 51.950569 9.434789 # N 116
117 117 1 0.000000 13.355161 45.269810 2.212496 # N 117
118 118 1 0.000000 1.274904 46.140450 3.606198 # N 118
119 119 1 0.000000 21.057022 12.811417 5.360800 # N 119
120 120 1 0.000000 17.061298 53.636925 4.259863 # N 120
121 121 1 0.000000 15.807495 42.342648 5.031849 # N 121
122 122 1 0.000000 23.973337 46.391552 11.586804 # N 122
123 123 1 0.000000 7.203874 39.179466 8.415974 # N 123
124 124 1 0.000000 23.852558 2.384437 3.400431 # N 124
125 125 1 0.000000 20.921242 21.851227 9.995381 # N 125
126 126 1 0.000000 11.204240 42.220078 5.147867 # N 126
127 127 1 0.000000 1.200095 45.580456 8.342452 # N 127
128 128 1 0.000000 7.140963 14.963221 1.421071 # N 128
129 129 1 0.000000 7.291168 19.305788 4.720281 # N 129
130 130 1 0.000000 11.585574 43.234318 13.942293 # N 130
131 131 1 0.000000 19.047722 56.240822 8.830184 # N 131
132 132 1 0.000000 26.705925 43.854794 5.823398 # N 132
133 133 1 0.000000 0.785461 14.305243 9.680012 # N 133
134 134 1 0.000000 4.396726 43.068001 12.897171 # N 134
135 135 1 0.000000 25.062965 13.927906 10.249092 # N 135
136 136 1 0.000000 23.204191 6.121160 4.580858 # N 136
137 137 1 0.000000 25.827896 48.746506 8.500408 # N 137
138 138 1 0.000000 6.985590 55.796707 10.565627 # N 138
139 139 1 0.000000 24.844774 6.897423 12.698974 # N 139
140 140 1 0.000000 11.826659 4.921066 11.531047 # N 140
141 141 1 0.000000 19.912029 0.519944 9.545151 # N 141
142 142 1 0.000000 6.187869 55.323971 7.333693 # N 142
143 143 1 0.000000 23.177872 46.233395 7.490398 # N 143
144 144 1 0.000000 3.523745 50.720047 7.087524 # N 144
145 145 1 0.000000 0.731866 36.526325 9.409116 # N 145
146 146 1 0.000000 18.070934 12.403132 5.107399 # N 146
147 147 1 0.000000 9.715843 20.359921 1.078804 # N 147
148 148 1 0.000000 3.935240 38.004940 7.711016 # N 148
149 149 1 0.000000 4.272561 57.211494 11.577401 # N 149
150 150 1 0.000000 26.381273 56.464809 10.613423 # N 150
151 151 1 0.000000 1.131398 46.231865 0.230649 # N 151
152 152 1 0.000000 7.080514 22.358608 6.185915 # N 152
153 153 1 0.000000 0.138428 50.801144 3.626550 # N 153
154 154 1 0.000000 20.437864 54.385578 11.951022 # N 154
155 155 1 0.000000 6.812101 0.660361 11.309453 # N 155
156 156 1 0.000000 8.804640 57.613686 1.355632 # N 156
157 157 1 0.000000 22.216442 49.002247 3.771942 # N 157
158 158 1 0.000000 21.848820 40.623886 12.870456 # N 158
159 159 1 0.000000 2.583864 41.295425 2.065539 # N 159
160 160 1 0.000000 20.911312 43.162140 2.327228 # N 160
161 161 1 0.000000 6.665649 13.452202 6.152255 # N 161
162 162 1 0.000000 23.777378 50.924896 0.768679 # N 162
163 163 1 0.000000 26.779980 19.818043 10.021239 # N 163
164 164 1 0.000000 1.095420 18.206284 12.799302 # N 164
165 165 1 0.000000 3.446744 18.593533 9.320374 # N 165
166 166 1 0.000000 25.075741 25.117336 6.175299 # N 166
167 167 1 0.000000 16.854973 15.378615 4.757787 # N 167
168 168 1 0.000000 17.323910 21.256355 11.388142 # N 168
169 169 1 0.000000 20.557840 27.164257 0.415726 # N 169
170 170 1 0.000000 19.551207 47.450180 5.000525 # N 170
171 171 1 0.000000 3.115780 20.329544 2.961493 # N 171
172 172 1 0.000000 11.901750 19.992634 5.930831 # N 172
173 173 1 0.000000 16.096903 56.318367 6.161998 # N 173
174 174 1 0.000000 18.163666 39.218239 1.424447 # N 174
175 175 1 0.000000 10.284179 53.984444 2.368336 # N 175
176 176 1 0.000000 17.458288 50.724094 6.679720 # N 176
177 177 1 0.000000 24.747456 2.335932 0.191387 # N 177
178 178 1 0.000000 19.294941 25.341385 7.180484 # N 178
179 179 1 0.000000 0.860438 7.642559 9.720796 # N 179
180 180 1 0.000000 16.461647 18.256151 13.420663 # N 180
181 181 1 0.000000 4.942095 25.210051 3.487805 # N 181
182 182 1 0.000000 6.499313 19.268480 13.766082 # N 182
183 183 1 0.000000 6.245082 15.203453 12.297850 # N 183
184 184 1 0.000000 12.220575 23.352804 3.048065 # N 184
185 185 1 0.000000 13.416264 20.435726 11.833465 # N 185
186 186 1 0.000000 14.169728 36.019241 4.921073 # N 186
187 187 1 0.000000 17.482454 20.915115 6.471366 # N 187
188 188 1 0.000000 22.395153 6.617353 8.125502 # N 188
189 189 1 0.000000 9.331937 17.674574 7.055528 # N 189
190 190 1 0.000000 16.199846 15.859344 9.435262 # N 190
191 191 1 0.000000 15.047726 19.336363 8.703032 # N 191
192 192 1 0.000000 21.198734 52.927303 7.315664 # N 192
193 193 1 0.000000 18.657272 17.184519 6.948528 # N 193
194 194 1 0.000000 10.364900 39.222771 3.417933 # N 194
195 195 1 0.000000 22.890739 54.497601 9.799067 # N 195
196 196 1 0.000000 21.147614 20.283382 13.233600 # N 196
197 197 1 0.000000 8.372019 36.171539 13.190493 # N 197
198 198 1 0.000000 13.883946 53.071548 1.056714 # N 198
199 199 1 0.000000 23.252750 56.936501 1.023179 # N 199
200 200 1 0.000000 9.609692 21.251127 10.622724 # N 200
201 201 1 0.000000 23.992540 58.185513 9.047170 # N 201
202 202 1 0.000000 20.211533 41.847591 10.286754 # N 202
203 203 1 0.000000 15.544447 24.869995 7.001452 # N 203
204 204 1 0.000000 10.486897 53.934982 6.538252 # N 204
205 205 1 0.000000 15.317004 41.260990 0.117757 # N 205
206 206 1 0.000000 13.481079 38.990612 3.573854 # N 206
207 207 1 0.000000 19.799488 3.288028 14.100000 # N 207
208 208 1 0.000000 8.272159 44.545834 5.610727 # N 208
209 209 1 0.000000 26.133894 13.131298 1.845036 # N 209
210 210 1 0.000000 7.405626 14.542141 9.465109 # N 210
211 211 1 0.000000 1.923468 56.687019 8.965994 # N 211
212 212 1 0.000000 19.710255 30.579662 6.740387 # N 212
213 213 1 0.000000 23.902750 15.844342 4.692310 # N 213
214 214 1 0.000000 7.674614 1.558003 6.146682 # N 214
215 215 1 0.000000 2.017177 14.183971 12.569110 # N 215
216 216 1 0.000000 19.231209 6.673007 10.682186 # N 216
217 217 1 0.000000 26.118917 56.519325 3.314242 # N 217
218 218 1 0.000000 13.832364 47.416222 13.175660 # N 218
219 219 1 0.000000 17.821177 44.446335 13.796865 # N 219
220 220 1 0.000000 7.973097 42.871750 0.243594 # N 220
221 221 1 0.000000 17.272310 45.473858 7.718094 # N 221
222 222 1 0.000000 20.926868 18.247753 2.747767 # N 222
223 223 1 0.000000 27.147484 17.342270 6.739741 # N 223
224 224 1 0.000000 16.272087 50.866211 13.856216 # N 224
225 225 1 0.000000 4.034505 52.208469 4.646860 # N 225
226 226 1 0.000000 14.528357 50.136959 3.270556 # N 226
227 227 1 0.000000 26.082312 42.976452 1.519481 # N 227
228 228 1 0.000000 16.331688 27.049229 10.109465 # N 228
229 229 1 0.000000 14.572713 21.042887 0.789792 # N 229
230 230 1 0.000000 13.539661 55.726555 2.432403 # N 230
231 231 1 0.000000 14.572248 42.031834 10.396476 # N 231
232 232 1 0.000000 24.587259 29.378946 7.454948 # N 232
233 233 1 0.000000 10.612030 40.188229 0.819390 # N 233
234 234 1 0.000000 5.582169 52.782810 10.647388 # N 234
235 235 1 0.000000 20.552410 48.073349 8.824609 # N 235
236 236 1 0.000000 21.936983 27.444075 10.018589 # N 236
237 237 1 0.000000 11.136676 38.962254 6.638409 # N 237
238 238 1 0.000000 23.962069 17.223379 10.403865 # N 238
239 239 1 0.000000 18.156982 24.394440 12.621994 # N 239
240 240 1 0.000000 26.755680 21.786964 1.984198 # N 240
241 241 1 0.000000 17.456034 48.709827 10.827570 # N 241
242 242 1 0.000000 24.333002 19.152172 6.205238 # N 242
243 243 1 0.000000 7.677436 41.413380 3.871136 # N 243
244 244 1 0.000000 20.729269 18.918303 8.761063 # N 244
245 245 1 0.000000 14.789603 40.421455 7.543402 # N 245
246 246 1 0.000000 26.974907 26.546188 2.926369 # N 246
247 247 1 0.000000 15.287594 39.378132 11.407335 # N 247
248 248 1 0.000000 20.861340 15.955778 13.173903 # N 248
249 249 1 0.000000 24.841789 28.693407 1.292044 # N 249
250 250 1 0.000000 9.073346 23.887972 4.100150 # N 250
251 251 1 0.000000 11.317930 34.193413 2.629125 # N 251
252 252 1 0.000000 0.861187 31.921152 10.879086 # N 252
253 253 1 0.000000 21.451605 37.227051 2.243277 # N 253
254 254 1 0.000000 17.657797 37.343140 8.245221 # N 254
255 255 1 0.000000 1.956614 35.517960 4.688815 # N 255
256 256 1 0.000000 12.694111 37.942226 9.591181 # N 256
257 257 1 0.000000 13.154950 37.495739 13.955139 # N 257
258 258 1 0.000000 3.539929 6.368494 6.800565 # N 258
259 259 1 0.000000 25.286831 30.827234 12.432958 # N 259
260 260 1 0.000000 23.289280 24.460665 11.150009 # N 260
261 261 1 0.000000 6.324290 35.558323 9.120044 # N 261
262 262 1 0.000000 19.698048 37.665234 13.397510 # N 262
263 263 1 0.000000 26.309782 26.244389 10.347742 # N 263
264 264 1 0.000000 12.948361 45.016251 10.074087 # N 264
265 265 1 0.000000 24.580778 25.361155 14.102939 # N 265
266 266 1 0.000000 12.937819 34.718609 11.556684 # N 266
267 267 1 0.000000 5.549818 39.882084 0.137752 # N 267
268 268 1 0.000000 15.541460 35.911125 2.074306 # N 268
269 269 1 0.000000 2.594266 17.658987 5.997747 # N 269
270 270 1 0.000000 8.561694 17.537853 11.815057 # N 270
271 271 1 0.000000 10.520996 35.384960 7.068521 # N 271
272 272 1 0.000000 12.613249 30.171091 6.702847 # N 272
273 273 1 0.000000 26.680124 35.350639 13.091368 # N 273
274 274 1 0.000000 27.087023 12.017088 12.616063 # N 274
275 275 1 0.000000 3.246105 34.731964 11.456700 # N 275
276 276 1 0.000000 0.589065 52.784275 8.083779 # N 276
277 277 1 0.000000 5.458016 37.056782 4.000909 # N 277
278 278 1 0.000000 7.149827 45.606770 12.782868 # N 278
279 279 1 0.000000 5.716823 0.576076 2.963719 # N 279
280 280 1 0.000000 11.103355 12.706188 1.920578 # N 280
281 281 1 0.000000 25.530001 18.220619 1.238675 # N 281
282 282 1 0.000000 22.005377 29.467627 4.505731 # N 282
283 283 1 0.000000 1.862822 13.160091 1.937505 # N 283
284 284 1 0.000000 14.596921 15.388895 12.376601 # N 284
285 285 1 0.000000 21.602276 22.323000 2.716424 # N 285
286 286 1 0.000000 3.124138 25.060144 14.189773 # N 286
287 287 1 0.000000 11.971777 26.902670 8.693817 # N 287
288 288 1 0.000000 10.027602 27.988340 12.138619 # N 288
289 289 1 0.000000 25.184958 38.997002 12.659614 # N 289
290 290 1 0.000000 26.829470 21.572756 6.736319 # N 290
291 291 1 0.000000 2.926656 38.151947 0.972067 # N 291
292 292 1 0.000000 27.041029 5.021665 0.245951 # N 292
293 293 1 0.000000 8.522288 33.674931 10.631213 # N 293
294 294 1 0.000000 17.542152 28.957762 2.021010 # N 294
295 295 1 0.000000 16.355150 59.112812 3.862620 # N 295
296 296 1 0.000000 16.976688 42.403732 12.081446 # N 296
297 297 1 0.000000 6.960234 6.899550 11.474382 # N 297
298 298 1 0.000000 24.640604 32.397011 1.972829 # N 298
299 299 1 0.000000 9.354658 5.724041 5.513296 # N 299
300 300 1 0.000000 27.346563 28.059481 13.387300 # N 300
301 301 1 0.000000 13.390327 5.519143 8.846230 # N 301
302 302 1 0.000000 7.158703 22.037373 2.064746 # N 302
303 303 1 0.000000 5.575630 22.458628 11.762062 # N 303
304 304 1 0.000000 16.641548 24.227903 4.479530 # N 304
305 305 1 0.000000 15.401093 55.973721 13.038993 # N 305
306 306 1 0.000000 0.257876 29.923901 5.225334 # N 306
307 307 1 0.000000 26.130074 42.602345 12.820634 # N 307
308 308 1 0.000000 10.313041 36.377331 10.186931 # N 308
309 309 1 0.000000 10.893037 41.575222 8.573240 # N 309
310 310 1 0.000000 17.256844 31.872339 10.878035 # N 310
311 311 1 0.000000 16.223824 34.535530 11.490419 # N 311
312 312 1 0.000000 5.010091 27.276686 11.848527 # N 312
313 313 1 0.000000 2.618311 24.838438 5.338374 # N 313
314 314 1 0.000000 6.900500 24.302153 9.181953 # N 314
315 315 1 0.000000 5.656510 16.713175 7.166767 # N 315
316 316 1 0.000000 14.385575 59.490692 0.558383 # N 316
317 317 1 0.000000 2.733577 23.732567 11.255075 # N 317
318 318 1 0.000000 24.762688 34.469139 9.690331 # N 318
319 319 1 0.000000 9.648547 29.788511 8.923195 # N 319
320 320 1 0.000000 9.112174 24.088997 13.209529 # N 320
321 321 1 0.000000 23.709229 33.142963 13.651363 # N 321
322 322 1 0.000000 25.647566 41.089211 6.671081 # N 322
323 323 1 0.000000 0.815215 32.619450 0.898586 # N 323
324 324 1 0.000000 24.320612 9.027009 8.573209 # N 324
325 325 1 0.000000 8.986704 10.769846 5.640471 # N 325
326 326 1 0.000000 14.049552 33.720459 8.085057 # N 326
327 327 1 0.000000 5.670949 33.620140 5.209340 # N 327
328 328 1 0.000000 9.372779 48.483936 0.999120 # N 328
329 329 1 0.000000 8.855040 15.759810 13.730020 # N 329
330 330 1 0.000000 19.397383 30.789543 1.841051 # N 330
331 331 1 0.000000 27.246702 23.552643 11.745266 # N 331
332 332 1 0.000000 8.565969 46.585155 3.660382 # N 332
333 333 1 0.000000 5.067596 41.437008 9.073668 # N 333
334 334 1 0.000000 12.972694 52.417603 10.686507 # N 334
335 335 1 0.000000 6.987100 56.398109 3.385402 # N 335
336 336 1 0.000000 21.362867 34.020470 1.935797 # N 336
337 337 1 0.000000 0.491568 8.475841 1.660377 # N 337
338 338 1 0.000000 15.602977 26.861567 3.815318 # N 338
339 339 1 0.000000 12.885976 28.691748 0.941717 # N 339
340 340 1 0.000000 19.162811 9.420274 4.444829 # N 340
341 341 1 0.000000 18.030287 56.512894 1.317885 # N 341
342 342 1 0.000000 17.034859 9.323546 8.603948 # N 342
343 343 1 0.000000 15.448784 18.077707 6.055314 # N 343
344 344 1 0.000000 20.724007 40.520107 4.722053 # N 344
345 345 1 0.000000 24.294731 27.508722 4.244045 # N 345
346 346 1 0.000000 13.124600 16.542837 0.687755 # N 346
347 347 1 0.000000 1.074472 26.004765 7.787902 # N 347
348 348 1 0.000000 16.134512 24.435709 0.621677 # N 348
349 349 1 0.000000 2.224642 28.345623 8.382480 # N 349
350 350 1 0.000000 22.519800 21.541279 6.940451 # N 350
351 351 1 0.000000 16.952194 18.180382 2.337815 # N 351
352 352 1 0.000000 0.325425 44.922123 12.175351 # N 352
353 353 1 0.000000 1.701743 29.102419 1.355709 # N 353
354 354 1 0.000000 4.824340 41.258568 5.111890 # N 354
355 355 1 0.000000 25.006592 36.172211 2.214794 # N 355
356 356 1 0.000000 11.559055 26.842949 4.661819 # N 356
357 357 1 0.000000 13.169733 29.111588 12.266045 # N 357
358 358 1 0.000000 10.511477 56.316078 13.660558 # N 358
359 359 1 0.000000 20.035496 24.492535 0.806729 # N 359
360 360 1 0.000000 8.839793 29.461996 2.039754 # N 360
361 361 1 0.000000 7.929179 52.253170 12.157011 # N 361
362 362 1 0.000000 23.410614 41.061783 8.137934 # N 362
363 363 1 0.000000 1.756118 40.623371 12.004892 # N 363
364 364 1 0.000000 14.032951 32.344391 2.417910 # N 364
365 365 1 0.000000 6.435822 29.582396 8.429868 # N 365
366 366 1 0.000000 14.025862 13.180573 3.244679 # N 366
367 367 1 0.000000 3.249856 31.238420 4.743415 # N 367
368 368 1 0.000000 18.286613 47.824043 13.310120 # N 368
369 369 1 0.000000 1.857214 33.441128 6.902022 # N 369
370 370 1 0.000000 0.250590 2.943179 3.940724 # N 370
371 371 1 0.000000 22.030975 37.059868 7.588178 # N 371
372 372 1 0.000000 17.784637 22.343430 2.582673 # N 372
373 373 1 0.000000 4.660578 29.262650 2.554899 # N 373
374 374 1 0.000000 23.514633 39.406372 0.660078 # N 374
375 375 1 0.000000 22.205481 24.131187 13.596393 # N 375
376 376 1 0.000000 18.857372 40.711849 7.563581 # N 376
377 377 1 0.000000 18.015003 28.148897 13.010389 # N 377
378 378 1 0.000000 24.919825 49.395775 5.778368 # N 378
379 379 1 0.000000 25.100084 15.420076 7.609127 # N 379
380 380 1 0.000000 7.177135 27.147455 3.721879 # N 380
381 381 1 0.000000 3.152362 14.417504 7.546414 # N 381
382 382 1 0.000000 19.210436 29.431921 9.292990 # N 382
383 383 1 0.000000 9.261086 30.753033 12.892639 # N 383
384 384 1 0.000000 22.592552 37.394855 13.228351 # N 384
385 385 1 0.000000 17.805943 33.569950 4.545498 # N 385
386 386 1 0.000000 6.030802 17.994797 2.434535 # N 386
387 387 1 0.000000 21.671589 48.684811 11.710794 # N 387
388 388 1 0.000000 13.810128 44.532978 5.640222 # N 388
389 389 1 0.000000 26.922997 0.135684 0.905963 # N 389
390 390 1 0.000000 24.575594 3.169430 7.380919 # N 390
391 391 1 0.000000 7.500196 25.810392 11.178956 # N 391
392 392 1 0.000000 0.411400 39.246037 13.970077 # N 392
393 393 1 0.000000 8.498807 30.583830 6.281210 # N 393
394 394 1 0.000000 15.510523 30.906855 0.099371 # N 394
395 395 1 0.000000 10.318511 44.399029 2.907725 # N 395
396 396 1 0.000000 4.255177 3.672080 0.387226 # N 396
397 397 1 0.000000 19.205139 36.254295 10.383132 # N 397
398 398 1 0.000000 9.495520 36.894981 1.903623 # N 398
399 399 1 0.000000 9.902907 56.465656 9.210113 # N 399
400 400 1 0.000000 16.070421 0.586408 7.857996 # N 400
401 401 1 0.000000 11.346790 24.295532 5.522573 # N 401
402 402 1 0.000000 7.242328 26.762381 0.863306 # N 402
403 403 1 0.000000 23.163889 48.116768 14.047579 # N 403
404 404 1 0.000000 2.831684 22.052404 6.521669 # N 404
405 405 1 0.000000 2.444393 9.020000 3.459856 # N 405
406 406 1 0.000000 20.455236 49.685635 6.357001 # N 406
407 407 1 0.000000 26.927708 15.426717 4.920197 # N 407
408 408 1 0.000000 25.322893 57.483166 13.118505 # N 408
409 409 1 0.000000 26.232265 31.288692 3.662375 # N 409
410 410 1 0.000000 12.755385 22.239223 8.388474 # N 410
411 411 1 0.000000 2.320573 41.251537 8.379589 # N 411
412 412 1 0.000000 3.886623 34.781460 2.530774 # N 412
413 413 1 0.000000 23.063900 53.006638 12.499584 # N 413
414 414 1 0.000000 2.218250 47.933754 8.855399 # N 414
415 415 1 0.000000 11.651934 51.762302 2.914986 # N 415
416 416 1 0.000000 24.949913 8.639586 5.777806 # N 416
417 417 1 0.000000 13.659093 11.358727 13.754827 # N 417
418 418 1 0.000000 13.601538 34.448658 0.270801 # N 418
419 419 1 0.000000 27.112179 40.547855 3.164300 # N 419
420 420 1 0.000000 12.621926 23.585154 11.497535 # N 420
421 421 1 0.000000 12.402525 40.861931 11.109616 # N 421
422 422 1 0.000000 18.105013 39.710045 10.917985 # N 422
423 423 1 0.000000 7.656618 36.301720 6.275705 # N 423
424 424 1 0.000000 14.116855 6.671938 5.549914 # N 424
425 425 1 0.000000 1.298565 56.291172 6.367585 # N 425
426 426 1 0.000000 0.718999 36.832481 2.097719 # N 426
427 427 1 0.000000 6.692743 9.116423 2.239659 # N 427
428 428 1 0.000000 3.979596 32.638420 13.727732 # N 428
429 429 1 0.000000 26.219769 52.293350 14.103492 # N 429
430 430 1 0.000000 20.644693 33.579086 8.560685 # N 430
431 431 1 0.000000 2.300214 23.180775 1.883444 # N 431
432 432 1 0.000000 11.742796 17.523275 12.301298 # N 432
433 433 1 0.000000 16.011917 56.429798 8.950308 # N 433
434 434 1 0.000000 1.293169 50.950043 0.488793 # N 434
435 435 1 0.000000 20.390871 32.179344 11.485378 # N 435
436 436 1 0.000000 2.937893 20.250221 14.166254 # N 436
437 437 1 0.000000 13.610546 25.331758 14.202074 # N 437
438 438 1 0.000000 19.481936 52.007500 2.410679 # N 438
439 439 1 0.000000 15.246428 8.446497 2.795398 # N 439
440 440 1 0.000000 24.508831 34.965382 6.016344 # N 440
441 441 1 0.000000 21.078014 43.374905 6.831618 # N 441
442 442 1 0.000000 24.020607 21.025814 13.383598 # N 442
443 443 1 0.000000 0.348397 49.864655 6.383494 # N 443
444 444 1 0.000000 12.456314 15.484618 5.628992 # N 444
445 445 1 0.000000 10.274405 18.823734 4.111417 # N 445
446 446 1 0.000000 25.612057 4.978423 4.322688 # N 446
447 447 1 0.000000 7.367189 32.350559 2.108642 # N 447
448 448 1 0.000000 24.471518 21.927116 5.130579 # N 448
449 449 1 0.000000 26.691509 36.554214 5.699074 # N 449
450 450 1 0.000000 3.887080 45.676559 0.078793 # N 450
451 451 1 0.000000 26.616896 23.781363 3.990517 # N 451
452 452 1 0.000000 6.258280 19.894905 10.584130 # N 452
453 453 1 0.000000 22.090410 17.186449 6.443953 # N 453
454 454 1 0.000000 3.727282 38.630283 11.319460 # N 454
455 455 1 0.000000 6.124132 32.741348 11.988427 # N 455
456 456 1 0.000000 22.355724 51.012012 9.496986 # N 456
457 457 1 0.000000 8.126308 44.733185 10.562580 # N 457
458 458 1 0.000000 12.140500 10.686341 3.543157 # N 458
459 459 1 0.000000 22.180170 44.372002 11.435361 # N 459
460 460 1 0.000000 18.301203 49.445511 1.546171 # N 460
461 461 1 0.000000 20.031864 45.616577 3.007706 # N 461
462 462 1 0.000000 17.072056 39.095879 4.641521 # N 462
463 463 1 0.000000 2.050972 59.369270 7.618803 # N 463
464 464 1 0.000000 1.309677 38.857258 5.682540 # N 464
465 465 1 0.000000 24.682072 16.255962 13.066901 # N 465
466 466 1 0.000000 17.477896 34.340164 7.677861 # N 466
467 467 1 0.000000 22.643490 29.881563 13.752069 # N 467
468 468 1 0.000000 17.735435 52.723171 12.482981 # N 468
469 469 1 0.000000 24.153893 26.730835 7.942411 # N 469
470 470 1 0.000000 12.623798 11.587068 5.943084 # N 470
471 471 1 0.000000 18.568201 28.445910 5.136360 # N 471
472 472 1 0.000000 25.539127 22.107124 10.314527 # N 472
473 473 1 0.000000 4.255576 25.178938 8.241015 # N 473
474 474 1 0.000000 23.844038 45.285614 1.888229 # N 474
475 475 1 0.000000 26.243473 32.926022 6.321565 # N 475
476 476 1 0.000000 4.408303 53.513515 7.910209 # N 476
477 477 1 0.000000 18.030024 22.801617 9.037704 # N 477
478 478 1 0.000000 3.229556 45.313580 9.981834 # N 478
479 479 1 0.000000 20.212391 6.548898 5.847535 # N 479
480 480 1 0.000000 22.279831 7.031309 2.180669 # N 480
481 481 1 0.000000 0.621783 48.585930 1.688370 # N 481
482 482 1 0.000000 11.970551 29.979666 3.398289 # N 482
483 483 1 0.000000 9.611952 24.292561 9.676562 # N 483
484 484 1 0.000000 1.463477 22.780333 8.779790 # N 484
485 485 1 0.000000 22.328650 43.108913 0.086875 # N 485
486 486 1 0.000000 10.584756 33.465336 13.457818 # N 486
487 487 1 0.000000 7.698915 27.383450 7.257313 # N 487
488 488 1 0.000000 4.988216 11.005370 7.301015 # N 488
489 489 1 0.000000 8.360841 41.884235 6.921394 # N 489
490 490 1 0.000000 17.849541 34.917549 13.865816 # N 490
491 491 1 0.000000 17.113714 10.971018 13.289372 # N 491
492 492 1 0.000000 14.311415 47.232353 5.194436 # N 492
493 493 1 0.000000 22.665667 11.905822 7.978315 # N 493
494 494 1 0.000000 4.055612 32.533970 10.371837 # N 494
495 495 1 0.000000 14.097267 29.010321 4.581634 # N 495
496 496 1 0.000000 20.966749 51.097919 13.561023 # N 496
497 497 1 0.000000 26.757133 18.887693 3.429288 # N 497
498 498 1 0.000000 7.756841 9.933431 11.451794 # N 498
499 499 1 0.000000 11.834210 26.039797 12.322387 # N 499
500 500 1 0.000000 1.597610 3.862497 12.379937 # N 500

