LAMMPS data file via write_data, version 29 Oct 2020, timestep = 3000000

6697 atoms
5 atom types
4668 bonds
2 bond types
5872 angles
3 angle types
8600 dihedrals
3 dihedral types

-1e-06 27.500002 xlo xhi
100.0 173.499998 ylo yhi
-13.0 106.279701 zlo zhi

Masses

1 15.035
2 14.027
3 12.011
4 44.01
5 12.011

Pair Coeffs # lj/cut/omp

1 0.175 3.905
2 0.118 3.905
3 0 0
4 0.4475 3.79
5 0 0

Bond Coeffs # harmonic/omp

1 260 1.526
2 0 1.4

Angle Coeffs # harmonic/omp

1 63 112
2 63 112
3 0 120

Dihedral Coeffs # opls/omp

1 1.411 -0.271 3.145 0
2 1.411 -0.271 3.145 0
3 0 0 0 0

Atoms # full

4 2006 5 0.0 1.4e-05 102.0 -5.900037 0 0 0
3 2006 5 0.0 1.4e-05 102.0 -7.320034 0 0 0
2 2006 5 0.0 1.4e-05 102.0 -10.160028 0 0 0
1 2006 5 0.0 1.4e-05 102.0 -11.580025 0 0 0
7 2006 5 0.0 1.229767 102.0 -8.030033 0 0 0
12 2006 5 0.0 2.4595210000000005 102.0 -5.900037 0 0 0
8 2006 5 0.0 1.229767 102.0 -5.190038999999999 0 0 0
11 2006 5 0.0 2.4595210000000005 102.0 -7.320034 0 0 0
15 2006 5 0.0 3.6892740000000006 102.0 -8.030033 0 0 0
20 2006 5 0.0 4.919028 102.0 -5.900037 0 0 0
16 2006 5 0.0 3.6892740000000006 102.0 -5.190038999999999 0 0 0
19 2006 5 0.0 4.919028 102.0 -7.320034 0 0 0
23 2006 5 0.0 6.148781 102.0 -8.030033 0 0 0
28 2006 5 0.0 7.378535 102.0 -5.900037 0 0 0
24 2006 5 0.0 6.148781 102.0 -5.190038999999999 0 0 0
27 2006 5 0.0 7.378535 102.0 -7.320034 0 0 0
31 2006 5 0.0 8.608288 102.0 -8.030033 0 0 0
32 2006 5 0.0 8.608288 102.0 -5.190038999999999 0 0 0
5 2006 5 0.0 1.229767 102.0 -12.290024 0 0 0
10 2006 5 0.0 2.4595210000000005 102.0 -10.160028 0 0 0
6 2006 5 0.0 1.229767 102.0 -9.45003 0 0 0
9 2006 5 0.0 2.4595210000000005 102.0 -11.580025 0 0 0
13 2006 5 0.0 3.6892740000000006 102.0 -12.290024 0 0 0
18 2006 5 0.0 4.919028 102.0 -10.160028 0 0 0
14 2006 5 0.0 3.6892740000000006 102.0 -9.45003 0 0 0
17 2006 5 0.0 4.919028 102.0 -11.580025 0 0 0
21 2006 5 0.0 6.148781 102.0 -12.290024 0 0 0
26 2006 5 0.0 7.378535 102.0 -10.160028 0 0 0
22 2006 5 0.0 6.148781 102.0 -9.45003 0 0 0
25 2006 5 0.0 7.378535 102.0 -11.580025 0 0 0
29 2006 5 0.0 8.608288 102.0 -12.290024 0 0 0
30 2006 5 0.0 8.608288 102.0 -9.45003 0 0 0
193 2006 5 0.0 1.229767 102.0 -3.770041000000001 0 0 0
208 2006 5 0.0 3.6892740000000006 102.0 -3.770041000000001 0 0 0
224 2006 5 0.0 6.148781 102.0 -3.770041000000001 0 0 0
239 2006 5 0.0 8.608288 102.0 -3.770041000000001 0 0 0
36 2006 5 0.0 9.838041 102.0 -5.900037 0 0 0
35 2006 5 0.0 9.838041 102.0 -7.320034 0 0 0
39 2006 5 0.0 11.067794 102.0 -8.030033 0 0 0
44 2006 5 0.0 12.297547 102.0 -5.900037 0 0 0
40 2006 5 0.0 11.067794 102.0 -5.190038999999999 0 0 0
43 2006 5 0.0 12.297547 102.0 -7.320034 0 0 0
47 2006 5 0.0 13.527300000000002 102.0 -8.030033 0 0 0
52 2006 5 0.0 14.757053000000003 102.0 -5.900037 0 0 0
48 2006 5 0.0 13.527300000000002 102.0 -5.190038999999999 0 0 0
51 2006 5 0.0 14.757053000000003 102.0 -7.320034 0 0 0
55 2006 5 0.0 15.986807 102.0 -8.030033 0 0 0
60 2006 5 0.0 17.21656 102.0 -5.900037 0 0 0
56 2006 5 0.0 15.986807 102.0 -5.190038999999999 0 0 0
59 2006 5 0.0 17.21656 102.0 -7.320034 0 0 0
34 2006 5 0.0 9.838041 102.0 -10.160028 0 0 0
33 2006 5 0.0 9.838041 102.0 -11.580025 0 0 0
37 2006 5 0.0 11.067794 102.0 -12.290024 0 0 0
42 2006 5 0.0 12.297547 102.0 -10.160028 0 0 0
38 2006 5 0.0 11.067794 102.0 -9.45003 0 0 0
41 2006 5 0.0 12.297547 102.0 -11.580025 0 0 0
45 2006 5 0.0 13.527300000000002 102.0 -12.290024 0 0 0
50 2006 5 0.0 14.757053000000003 102.0 -10.160028 0 0 0
46 2006 5 0.0 13.527300000000002 102.0 -9.45003 0 0 0
49 2006 5 0.0 14.757053000000003 102.0 -11.580025 0 0 0
53 2006 5 0.0 15.986807 102.0 -12.290024 0 0 0
58 2006 5 0.0 17.21656 102.0 -10.160028 0 0 0
54 2006 5 0.0 15.986807 102.0 -9.45003 0 0 0
57 2006 5 0.0 17.21656 102.0 -11.580025 0 0 0
254 2006 5 0.0 11.067794 102.0 -3.770041000000001 0 0 0
269 2006 5 0.0 13.527300000000002 102.0 -3.770041000000001 0 0 0
284 2006 5 0.0 15.986807 102.0 -3.770041000000001 0 0 0
63 2006 5 0.0 18.446314 102.0 -8.030033 0 0 0
68 2006 5 0.0 19.676065 102.0 -5.900037 0 0 0
64 2006 5 0.0 18.446314 102.0 -5.190038999999999 0 0 0
67 2006 5 0.0 19.676065 102.0 -7.320034 0 0 0
71 2006 5 0.0 20.905819 102.0 -8.030033 0 0 0
76 2006 5 0.0 22.135572 102.0 -5.900037 0 0 0
72 2006 5 0.0 20.905819 102.0 -5.190038999999999 0 0 0
75 2006 5 0.0 22.135572 102.0 -7.320034 0 0 0
79 2006 5 0.0 23.365326 102.0 -8.030033 0 0 0
84 2006 5 0.0 24.595079 102.0 -5.900037 0 0 0
80 2006 5 0.0 23.365326 102.0 -5.190038999999999 0 0 0
83 2006 5 0.0 24.595079 102.0 -7.320034 0 0 0
87 2006 5 0.0 25.824833 102.0 -8.030033 0 0 0
92 2006 5 0.0 27.054586 102.0 -5.900037 0 0 0
88 2006 5 0.0 25.824833 102.0 -5.190038999999999 0 0 0
91 2006 5 0.0 27.054586 102.0 -7.320034 0 0 0
61 2006 5 0.0 18.446314 102.0 -12.290024 0 0 0
66 2006 5 0.0 19.676065 102.0 -10.160028 0 0 0
62 2006 5 0.0 18.446314 102.0 -9.45003 0 0 0
65 2006 5 0.0 19.676065 102.0 -11.580025 0 0 0
69 2006 5 0.0 20.905819 102.0 -12.290024 0 0 0
74 2006 5 0.0 22.135572 102.0 -10.160028 0 0 0
70 2006 5 0.0 20.905819 102.0 -9.45003 0 0 0
73 2006 5 0.0 22.135572 102.0 -11.580025 0 0 0
77 2006 5 0.0 23.365326 102.0 -12.290024 0 0 0
82 2006 5 0.0 24.595079 102.0 -10.160028 0 0 0
78 2006 5 0.0 23.365326 102.0 -9.45003 0 0 0
81 2006 5 0.0 24.595079 102.0 -11.580025 0 0 0
85 2006 5 0.0 25.824833 102.0 -12.290024 0 0 0
90 2006 5 0.0 27.054586 102.0 -10.160028 0 0 0
86 2006 5 0.0 25.824833 102.0 -9.45003 0 0 0
89 2006 5 0.0 27.054586 102.0 -11.580025 0 0 0
299 2006 5 0.0 18.446314 102.0 -3.770041000000001 0 0 0
314 2006 5 0.0 20.905819 102.0 -3.770041000000001 0 0 0
329 2006 5 0.0 23.365326 102.0 -3.770041000000001 0 0 0
344 2006 5 0.0 25.824833 102.0 -3.770041000000001 0 0 0
189 501 3 0.0 0.8666700000000002 104.419998 0.952942000000002 0 0 0
197 501 3 0.0 2.096423 103.709999 0.952942000000002 0 0 0
204 501 3 0.0 3.3261770000000004 104.419998 0.952942000000002 0 0 0
213 501 3 0.0 4.55593 103.709999 0.952942000000002 0 0 0
220 501 3 0.0 5.785683000000001 104.419998 0.952942000000002 0 0 0
228 501 3 0.0 7.0154380000000005 103.709999 0.952942000000002 0 0 0
235 501 3 0.0 8.24519 104.419998 0.952942000000002 0 0 0
198 501 3 0.0 2.096423 106.549995 0.952942000000002 0 0 0
190 501 3 0.0 0.8666700000000002 105.839996 0.952942000000002 0 0 0
214 501 3 0.0 4.55593 106.549995 0.952942000000002 0 0 0
205 501 3 0.0 3.3261770000000004 105.839996 0.952942000000002 0 0 0
229 501 3 0.0 7.0154380000000005 106.549995 0.952942000000002 0 0 0
221 501 3 0.0 5.785683000000001 105.839996 0.952942000000002 0 0 0
236 501 3 0.0 8.24519 105.839996 0.952942000000002 0 0 0
191 501 3 0.0 0.8666700000000002 108.679985 0.952942000000002 0 0 0
199 501 3 0.0 2.096423 107.969986 0.952942000000002 0 0 0
206 501 3 0.0 3.3261770000000004 108.679985 0.952942000000002 0 0 0
215 501 3 0.0 4.55593 107.969986 0.952942000000002 0 0 0
222 501 3 0.0 5.785683000000001 108.679985 0.952942000000002 0 0 0
230 501 3 0.0 7.0154380000000005 107.969986 0.952942000000002 0 0 0
237 501 3 0.0 8.24519 108.679985 0.952942000000002 0 0 0
188 2006 5 0.0 1.4e-05 102.0 2.6199460000000006 0 0 0
187 2006 5 0.0 1.4e-05 102.0 1.1999469999999999 0 0 0
186 2006 5 0.0 1.4e-05 102.0 -1.640046 0 0 0
185 2006 5 0.0 1.4e-05 102.0 -3.0600430000000003 0 0 0
195 2006 5 0.0 1.229767 102.0 0.4899489999999993 0 0 0
203 2006 5 0.0 2.4595210000000005 102.0 2.6199460000000006 0 0 0
196 2006 5 0.0 1.229767 102.0 3.329943 0 0 0
202 2006 5 0.0 2.4595210000000005 102.0 1.1999469999999999 0 0 0
210 2006 5 0.0 3.6892740000000006 102.0 0.4899489999999993 0 0 0
219 2006 5 0.0 4.919028 102.0 2.6199460000000006 0 0 0
211 2006 5 0.0 3.6892740000000006 102.0 3.329943 0 0 0
218 2006 5 0.0 4.919028 102.0 1.1999469999999999 0 0 0
226 2006 5 0.0 6.148781 102.0 0.4899489999999993 0 0 0
234 2006 5 0.0 7.378535 102.0 2.6199460000000006 0 0 0
227 2006 5 0.0 6.148781 102.0 3.329943 0 0 0
233 2006 5 0.0 7.378535 102.0 1.1999469999999999 0 0 0
241 2006 5 0.0 8.608288 102.0 0.4899489999999993 0 0 0
242 2006 5 0.0 8.608288 102.0 3.329943 0 0 0
201 2006 5 0.0 2.4595210000000005 102.0 -1.640046 0 0 0
194 2006 5 0.0 1.229767 102.0 -0.9300479999999993 0 0 0
200 2006 5 0.0 2.4595210000000005 102.0 -3.0600430000000003 0 0 0
217 2006 5 0.0 4.919028 102.0 -1.640046 0 0 0
209 2006 5 0.0 3.6892740000000006 102.0 -0.9300479999999993 0 0 0
216 2006 5 0.0 4.919028 102.0 -3.0600430000000003 0 0 0
232 2006 5 0.0 7.378535 102.0 -1.640046 0 0 0
225 2006 5 0.0 6.148781 102.0 -0.9300479999999993 0 0 0
231 2006 5 0.0 7.378535 102.0 -3.0600430000000003 0 0 0
240 2006 5 0.0 8.608288 102.0 -0.9300479999999993 0 0 0
991 2006 5 0.0 1.229767 102.0 4.749939000000001 0 0 0
1005 2006 5 0.0 3.6892740000000006 102.0 4.749939000000001 0 0 0
1016 2006 5 0.0 6.148781 102.0 4.749939000000001 0 0 0
1026 2006 5 0.0 8.608288 102.0 4.749939000000001 0 0 0
983 2006 5 0.0 1.4e-05 102.0 5.459938000000001 0 0 0
997 2006 5 0.0 2.4595210000000005 102.0 5.459938000000001 0 0 0
1012 2006 5 0.0 4.919028 102.0 5.459938000000001 0 0 0
1020 2006 5 0.0 7.378535 102.0 5.459938000000001 0 0 0
4848 475 2 0.0 6.39854723978887 107.7811137363782 5.519693788841563 -3 0 0
3849 1541 4 0.0 15.186392125892576 107.69897166158187 14.512960894847085 13 0 1
5305 491 1 0.0 3.7316566017183 104.87623632638987 4.869354288420755 -1 0 0
5303 491 2 0.0 2.809163704098266 106.0035175064937 4.436427017386251 -1 0 0
5304 491 2 0.0 1.4604617881541577 106.23524611439052 5.099561064704819 -1 0 0
4591 374 2 0.0 20.36673717154198 108.7680824540282 4.655574113926434 -5 0 0
1104 2006 5 0.0 24.595079 102.0 11.139925000000002 0 0 0
1609 2006 5 0.0 24.595079 102.0 13.979918999999999 0 0 0
4480 475 2 0.0 7.605673735568492 107.3998114374597 4.670340275851862 -3 0 0
4847 475 1 0.0 8.359591845612854 106.17394027849576 5.294057936637639 -3 0 0
243 501 3 0.0 9.474943 103.709999 0.952942000000002 0 0 0
250 501 3 0.0 10.704697 104.419998 0.952942000000002 0 0 0
258 501 3 0.0 11.93445 103.709999 0.952942000000002 0 0 0
265 501 3 0.0 13.164204 104.419998 0.952942000000002 0 0 0
273 501 3 0.0 14.393957 103.709999 0.952942000000002 0 0 0
280 501 3 0.0 15.623709 104.419998 0.952942000000002 0 0 0
288 501 3 0.0 16.853464 103.709999 0.952942000000002 0 0 0
295 501 3 0.0 18.083216 104.419998 0.952942000000002 0 0 0
244 501 3 0.0 9.474943 106.549995 0.952942000000002 0 0 0
259 501 3 0.0 11.93445 106.549995 0.952942000000002 0 0 0
251 501 3 0.0 10.704697 105.839996 0.952942000000002 0 0 0
274 501 3 0.0 14.393957 106.549995 0.952942000000002 0 0 0
266 501 3 0.0 13.164204 105.839996 0.952942000000002 0 0 0
289 501 3 0.0 16.853464 106.549995 0.952942000000002 0 0 0
281 501 3 0.0 15.623709 105.839996 0.952942000000002 0 0 0
296 501 3 0.0 18.083216 105.839996 0.952942000000002 0 0 0
245 501 3 0.0 9.474943 107.969986 0.952942000000002 0 0 0
252 501 3 0.0 10.704697 108.679985 0.952942000000002 0 0 0
260 501 3 0.0 11.93445 107.969986 0.952942000000002 0 0 0
267 501 3 0.0 13.164204 108.679985 0.952942000000002 0 0 0
275 501 3 0.0 14.393957 107.969986 0.952942000000002 0 0 0
282 501 3 0.0 15.623709 108.679985 0.952942000000002 0 0 0
290 501 3 0.0 16.853464 107.969986 0.952942000000002 0 0 0
297 501 3 0.0 18.083216 108.679985 0.952942000000002 0 0 0
249 2006 5 0.0 9.838041 102.0 2.6199460000000006 0 0 0
248 2006 5 0.0 9.838041 102.0 1.1999469999999999 0 0 0
256 2006 5 0.0 11.067794 102.0 0.4899489999999993 0 0 0
264 2006 5 0.0 12.297547 102.0 2.6199460000000006 0 0 0
257 2006 5 0.0 11.067794 102.0 3.329943 0 0 0
263 2006 5 0.0 12.297547 102.0 1.1999469999999999 0 0 0
271 2006 5 0.0 13.527300000000002 102.0 0.4899489999999993 0 0 0
279 2006 5 0.0 14.757053000000003 102.0 2.6199460000000006 0 0 0
272 2006 5 0.0 13.527300000000002 102.0 3.329943 0 0 0
278 2006 5 0.0 14.757053000000003 102.0 1.1999469999999999 0 0 0
286 2006 5 0.0 15.986807 102.0 0.4899489999999993 0 0 0
294 2006 5 0.0 17.21656 102.0 2.6199460000000006 0 0 0
287 2006 5 0.0 15.986807 102.0 3.329943 0 0 0
293 2006 5 0.0 17.21656 102.0 1.1999469999999999 0 0 0
247 2006 5 0.0 9.838041 102.0 -1.640046 0 0 0
246 2006 5 0.0 9.838041 102.0 -3.0600430000000003 0 0 0
262 2006 5 0.0 12.297547 102.0 -1.640046 0 0 0
255 2006 5 0.0 11.067794 102.0 -0.9300479999999993 0 0 0
261 2006 5 0.0 12.297547 102.0 -3.0600430000000003 0 0 0
277 2006 5 0.0 14.757053000000003 102.0 -1.640046 0 0 0
270 2006 5 0.0 13.527300000000002 102.0 -0.9300479999999993 0 0 0
276 2006 5 0.0 14.757053000000003 102.0 -3.0600430000000003 0 0 0
292 2006 5 0.0 17.21656 102.0 -1.640046 0 0 0
285 2006 5 0.0 15.986807 102.0 -0.9300479999999993 0 0 0
291 2006 5 0.0 17.21656 102.0 -3.0600430000000003 0 0 0
1040 2006 5 0.0 11.067794 102.0 4.749939000000001 0 0 0
1053 2006 5 0.0 13.527300000000002 102.0 4.749939000000001 0 0 0
1062 2006 5 0.0 15.986807 102.0 4.749939000000001 0 0 0
1034 2006 5 0.0 9.838041 102.0 5.459938000000001 0 0 0
1045 2006 5 0.0 12.297547 102.0 5.459938000000001 0 0 0
1057 2006 5 0.0 14.757053000000003 102.0 5.459938000000001 0 0 0
1067 2006 5 0.0 17.21656 102.0 5.459938000000001 0 0 0
2315 199 1 0.0 15.97885508960695 108.05062218329664 4.273730115872456 3 0 0
2317 199 2 0.0 15.561172140866843 106.63854927555597 4.821360871994902 3 0 0
4598 374 1 0.0 20.03265134172038 104.46610419048136 5.819582276263153 -5 0 0
1081 2006 5 0.0 19.676065 102.0 5.459938000000001 0 0 0
1101 2006 5 0.0 24.595079 102.0 5.459938000000001 0 0 0
303 501 3 0.0 19.312969 103.709999 0.952942000000002 0 0 0
310 501 3 0.0 20.542723 104.419998 0.952942000000002 0 0 0
318 501 3 0.0 21.772476 103.709999 0.952942000000002 0 0 0
325 501 3 0.0 23.00223 104.419998 0.952942000000002 0 0 0
333 501 3 0.0 24.231983 103.709999 0.952942000000002 0 0 0
340 501 3 0.0 25.461737000000003 104.419998 0.952942000000002 0 0 0
348 501 3 0.0 26.69149 103.709999 0.952942000000002 0 0 0
304 501 3 0.0 19.312969 106.549995 0.952942000000002 0 0 0
319 501 3 0.0 21.772476 106.549995 0.952942000000002 0 0 0
311 501 3 0.0 20.542723 105.839996 0.952942000000002 0 0 0
334 501 3 0.0 24.231983 106.549995 0.952942000000002 0 0 0
326 501 3 0.0 23.00223 105.839996 0.952942000000002 0 0 0
349 501 3 0.0 26.69149 106.549995 0.952942000000002 0 0 0
341 501 3 0.0 25.461737000000003 105.839996 0.952942000000002 0 0 0
305 501 3 0.0 19.312969 107.969986 0.952942000000002 0 0 0
312 501 3 0.0 20.542723 108.679985 0.952942000000002 0 0 0
320 501 3 0.0 21.772476 107.969986 0.952942000000002 0 0 0
327 501 3 0.0 23.00223 108.679985 0.952942000000002 0 0 0
335 501 3 0.0 24.231983 107.969986 0.952942000000002 0 0 0
342 501 3 0.0 25.461737000000003 108.679985 0.952942000000002 0 0 0
350 501 3 0.0 26.69149 107.969986 0.952942000000002 0 0 0
301 2006 5 0.0 18.446314 102.0 0.4899489999999993 0 0 0
309 2006 5 0.0 19.676065 102.0 2.6199460000000006 0 0 0
302 2006 5 0.0 18.446314 102.0 3.329943 0 0 0
308 2006 5 0.0 19.676065 102.0 1.1999469999999999 0 0 0
316 2006 5 0.0 20.905819 102.0 0.4899489999999993 0 0 0
324 2006 5 0.0 22.135572 102.0 2.6199460000000006 0 0 0
317 2006 5 0.0 20.905819 102.0 3.329943 0 0 0
323 2006 5 0.0 22.135572 102.0 1.1999469999999999 0 0 0
331 2006 5 0.0 23.365326 102.0 0.4899489999999993 0 0 0
339 2006 5 0.0 24.595079 102.0 2.6199460000000006 0 0 0
332 2006 5 0.0 23.365326 102.0 3.329943 0 0 0
338 2006 5 0.0 24.595079 102.0 1.1999469999999999 0 0 0
346 2006 5 0.0 25.824833 102.0 0.4899489999999993 0 0 0
354 2006 5 0.0 27.054586 102.0 2.6199460000000006 0 0 0
347 2006 5 0.0 25.824833 102.0 3.329943 0 0 0
353 2006 5 0.0 27.054586 102.0 1.1999469999999999 0 0 0
307 2006 5 0.0 19.676065 102.0 -1.640046 0 0 0
300 2006 5 0.0 18.446314 102.0 -0.9300479999999993 0 0 0
306 2006 5 0.0 19.676065 102.0 -3.0600430000000003 0 0 0
322 2006 5 0.0 22.135572 102.0 -1.640046 0 0 0
315 2006 5 0.0 20.905819 102.0 -0.9300479999999993 0 0 0
321 2006 5 0.0 22.135572 102.0 -3.0600430000000003 0 0 0
337 2006 5 0.0 24.595079 102.0 -1.640046 0 0 0
330 2006 5 0.0 23.365326 102.0 -0.9300479999999993 0 0 0
336 2006 5 0.0 24.595079 102.0 -3.0600430000000003 0 0 0
352 2006 5 0.0 27.054586 102.0 -1.640046 0 0 0
345 2006 5 0.0 25.824833 102.0 -0.9300479999999993 0 0 0
351 2006 5 0.0 27.054586 102.0 -3.0600430000000003 0 0 0
1096 2006 5 0.0 23.365326 102.0 4.749939000000001 0 0 0
1086 2006 5 0.0 20.905819 102.0 4.749939000000001 0 0 0
1073 2006 5 0.0 18.446314 102.0 4.749939000000001 0 0 0
1106 2006 5 0.0 25.824833 102.0 4.749939000000001 0 0 0
1110 2006 5 0.0 27.054586 102.0 5.459938000000001 0 0 0
1091 2006 5 0.0 22.135572 102.0 5.459938000000001 0 0 0
5311 491 2 0.0 27.33515102770144 107.88434795550965 6.021342653812063 -2 0 0
5310 491 2 0.0 0.8698355783199422 107.60207765774433 4.953207782149594 -1 0 0
5316 491 2 0.0 26.039525665341017 107.06617262885648 5.720320676786852 -2 0 0
1393 485 2 0.0 0.7974114191984869 107.39824341009616 14.571230463391291 2 0 0
986 2006 5 0.0 1.4e-05 102.0 11.139925000000002 0 0 0
985 2006 5 0.0 1.4e-05 102.0 9.719929 0 0 0
984 2006 5 0.0 1.4e-05 102.0 6.879933999999999 0 0 0
1525 2006 5 0.0 1.229767 102.0 13.269919999999999 0 0 0
1534 2006 5 0.0 3.6892740000000006 102.0 13.269919999999999 0 0 0
1542 2006 5 0.0 6.148781 102.0 13.269919999999999 0 0 0
1550 2006 5 0.0 8.608288 102.0 13.269919999999999 0 0 0
993 2006 5 0.0 1.229767 102.0 9.00993 0 0 0
1000 2006 5 0.0 2.4595210000000005 102.0 11.139925000000002 0 0 0
994 2006 5 0.0 1.229767 102.0 11.849924000000001 0 0 0
999 2006 5 0.0 2.4595210000000005 102.0 9.719929 0 0 0
1007 2006 5 0.0 3.6892740000000006 102.0 9.00993 0 0 0
1015 2006 5 0.0 4.919028 102.0 11.139925000000002 0 0 0
1008 2006 5 0.0 3.6892740000000006 102.0 11.849924000000001 0 0 0
1014 2006 5 0.0 4.919028 102.0 9.719929 0 0 0
1018 2006 5 0.0 6.148781 102.0 9.00993 0 0 0
1023 2006 5 0.0 7.378535 102.0 11.139925000000002 0 0 0
1019 2006 5 0.0 6.148781 102.0 11.849924000000001 0 0 0
1022 2006 5 0.0 7.378535 102.0 9.719929 0 0 0
1028 2006 5 0.0 8.608288 102.0 9.00993 0 0 0
1029 2006 5 0.0 8.608288 102.0 11.849924000000001 0 0 0
998 2006 5 0.0 2.4595210000000005 102.0 6.879933999999999 0 0 0
992 2006 5 0.0 1.229767 102.0 7.5899329999999985 0 0 0
1013 2006 5 0.0 4.919028 102.0 6.879933999999999 0 0 0
1006 2006 5 0.0 3.6892740000000006 102.0 7.5899329999999985 0 0 0
1021 2006 5 0.0 7.378535 102.0 6.879933999999999 0 0 0
1017 2006 5 0.0 6.148781 102.0 7.5899329999999985 0 0 0
1027 2006 5 0.0 8.608288 102.0 7.5899329999999985 0 0 0
1520 2006 5 0.0 1.4e-05 102.0 13.979918999999999 0 0 0
1529 2006 5 0.0 2.4595210000000005 102.0 13.979918999999999 0 0 0
1538 2006 5 0.0 4.919028 102.0 13.979918999999999 0 0 0
1546 2006 5 0.0 7.378535 102.0 13.979918999999999 0 0 0
3381 1622 4 0.0 5.293886092076045 106.87791627817955 11.259687017528535 5 0 -1
1398 485 1 0.0 0.16566703133070249 106.11525119518619 14.053425723360272 2 0 0
1389 485 2 0.0 2.2456568578618588 107.39994479912279 14.11576430988495 2 0 0
1387 485 2 0.0 3.133651024884022 108.46684315483776 14.66727482230308 2 0 0
4036 1810 4 0.0 9.100039106182269 106.54093144230933 11.153286840578156 -5 0 -1
1286 42 2 0.0 1.6650815114255033 107.12797299610594 9.018687783966257 5 0 0
1287 42 2 0.0 1.3373465308829886 105.94956280563515 9.900434861979427 4 0 0
1283 42 2 0.0 1.6326268220340825 108.36943604494374 9.778626545852266 5 0 0
2314 199 2 0.0 14.1465365227072 106.7337610063508 5.444216368261798 3 0 0
2324 199 2 0.0 13.26600568807588 108.4717249533141 9.14804744316735 3 0 0
1559 2006 5 0.0 11.067794 102.0 13.269919999999999 0 0 0
1063 2006 5 0.0 15.986807 102.0 7.5899329999999985 0 0 0
1569 2006 5 0.0 13.527300000000002 102.0 13.269919999999999 0 0 0
1068 2006 5 0.0 17.21656 102.0 6.879933999999999 0 0 0
1579 2006 5 0.0 15.986807 102.0 13.269919999999999 0 0 0
1054 2006 5 0.0 13.527300000000002 102.0 7.5899329999999985 0 0 0
1037 2006 5 0.0 9.838041 102.0 11.139925000000002 0 0 0
1036 2006 5 0.0 9.838041 102.0 9.719929 0 0 0
1042 2006 5 0.0 11.067794 102.0 9.00993 0 0 0
1048 2006 5 0.0 12.297547 102.0 11.139925000000002 0 0 0
1043 2006 5 0.0 11.067794 102.0 11.849924000000001 0 0 0
1047 2006 5 0.0 12.297547 102.0 9.719929 0 0 0
1055 2006 5 0.0 13.527300000000002 102.0 9.00993 0 0 0
1060 2006 5 0.0 14.757053000000003 102.0 11.139925000000002 0 0 0
1056 2006 5 0.0 13.527300000000002 102.0 11.849924000000001 0 0 0
1059 2006 5 0.0 14.757053000000003 102.0 9.719929 0 0 0
1064 2006 5 0.0 15.986807 102.0 9.00993 0 0 0
1070 2006 5 0.0 17.21656 102.0 11.139925000000002 0 0 0
1065 2006 5 0.0 15.986807 102.0 11.849924000000001 0 0 0
1069 2006 5 0.0 17.21656 102.0 9.719929 0 0 0
1035 2006 5 0.0 9.838041 102.0 6.879933999999999 0 0 0
1046 2006 5 0.0 12.297547 102.0 6.879933999999999 0 0 0
1041 2006 5 0.0 11.067794 102.0 7.5899329999999985 0 0 0
1058 2006 5 0.0 14.757053000000003 102.0 6.879933999999999 0 0 0
1554 2006 5 0.0 9.838041 102.0 13.979918999999999 0 0 0
1564 2006 5 0.0 12.297547 102.0 13.979918999999999 0 0 0
1574 2006 5 0.0 14.757053000000003 102.0 13.979918999999999 0 0 0
1584 2006 5 0.0 17.21656 102.0 13.979918999999999 0 0 0
2319 199 2 0.0 13.017124429031416 106.64463011560693 7.602303223079469 3 0 0
1074 2006 5 0.0 18.446314 102.0 7.5899329999999985 0 0 0
2322 199 2 0.0 13.13257849159927 106.96184915370425 9.042127352163655 3 0 0
2316 199 2 0.0 14.291946282312722 107.03087532118492 6.836076257422214 3 0 0
3296 1956 4 0.0 19.029084654605466 106.11090426606872 10.61984416684554 10 0 -1
4597 374 2 0.0 20.15452742524393 105.05833350736408 4.4896050751137 -6 0 0
4593 374 2 0.0 20.804650666807692 106.3976118349404 4.4389402559223265 -6 0 0
4592 374 2 0.0 19.880545043784338 107.3956455456057 5.05580173544192 -6 0 0
1084 2006 5 0.0 19.676065 102.0 11.139925000000002 0 0 0
1111 2006 5 0.0 27.054586 102.0 6.879933999999999 0 0 0
5327 491 1 0.0 25.114006535185645 106.9918134819244 7.9965811138616445 -2 0 0
5321 491 2 0.0 24.850767293172783 107.53483169243054 6.566105942624093 -2 0 0
1113 2006 5 0.0 27.054586 102.0 11.139925000000002 0 0 0
1359 42 1 0.0 0.8941803708662862 104.62305459231342 9.247993681955606 4 0 0
1108 2006 5 0.0 25.824833 102.0 9.00993 0 0 0
1076 2006 5 0.0 18.446314 102.0 11.849924000000001 0 0 0
1094 2006 5 0.0 22.135572 102.0 11.139925000000002 0 0 0
1092 2006 5 0.0 22.135572 102.0 6.879933999999999 0 0 0
1112 2006 5 0.0 27.054586 102.0 9.719929 0 0 0
1601 2006 5 0.0 22.135572 102.0 13.979918999999999 0 0 0
1088 2006 5 0.0 20.905819 102.0 9.00993 0 0 0
1109 2006 5 0.0 25.824833 102.0 11.849924000000001 0 0 0
1083 2006 5 0.0 19.676065 102.0 9.719929 0 0 0
1613 2006 5 0.0 25.824833 102.0 13.269919999999999 0 0 0
1098 2006 5 0.0 23.365326 102.0 9.00993 0 0 0
1082 2006 5 0.0 19.676065 102.0 6.879933999999999 0 0 0
3822 1644 4 0.0 22.158801946376126 105.98228599944918 14.510559199140133 -1 0 -2
1099 2006 5 0.0 23.365326 102.0 11.849924000000001 0 0 0
1103 2006 5 0.0 24.595079 102.0 9.719929 0 0 0
1617 2006 5 0.0 27.054586 102.0 13.979918999999999 0 0 0
1597 2006 5 0.0 20.905819 102.0 13.269919999999999 0 0 0
1102 2006 5 0.0 24.595079 102.0 6.879933999999999 0 0 0
1087 2006 5 0.0 20.905819 102.0 7.5899329999999985 0 0 0
1589 2006 5 0.0 18.446314 102.0 13.269919999999999 0 0 0
1605 2006 5 0.0 23.365326 102.0 13.269919999999999 0 0 0
1107 2006 5 0.0 25.824833 102.0 7.5899329999999985 0 0 0
1593 2006 5 0.0 19.676065 102.0 13.979918999999999 0 0 0
1093 2006 5 0.0 22.135572 102.0 9.719929 0 0 0
1097 2006 5 0.0 23.365326 102.0 7.5899329999999985 0 0 0
1075 2006 5 0.0 18.446314 102.0 9.00993 0 0 0
1089 2006 5 0.0 20.905819 102.0 11.849924000000001 0 0 0
3204 1520 4 0.0 21.25773136694523 108.67937214835383 8.952977922007443 -2 0 0
1523 2006 5 0.0 1.4e-05 102.0 19.659908 0 0 0
1522 2006 5 0.0 1.4e-05 102.0 18.23991 0 0 0
1954 2006 5 0.0 1.229767 102.0 21.789901999999998 0 0 0
1962 2006 5 0.0 3.6892740000000006 102.0 21.789901999999998 0 0 0
1973 2006 5 0.0 6.148781 102.0 21.789901999999998 0 0 0
1982 2006 5 0.0 8.608288 102.0 21.789901999999998 0 0 0
1527 2006 5 0.0 1.229767 102.0 17.529911 0 0 0
1532 2006 5 0.0 2.4595210000000005 102.0 19.659908 0 0 0
1528 2006 5 0.0 1.229767 102.0 20.369904 0 0 0
1531 2006 5 0.0 2.4595210000000005 102.0 18.23991 0 0 0
1536 2006 5 0.0 3.6892740000000006 102.0 17.529911 0 0 0
1541 2006 5 0.0 4.919028 102.0 19.659908 0 0 0
1537 2006 5 0.0 3.6892740000000006 102.0 20.369904 0 0 0
1540 2006 5 0.0 4.919028 102.0 18.23991 0 0 0
1544 2006 5 0.0 6.148781 102.0 17.529911 0 0 0
1549 2006 5 0.0 7.378535 102.0 19.659908 0 0 0
1545 2006 5 0.0 6.148781 102.0 20.369904 0 0 0
1548 2006 5 0.0 7.378535 102.0 18.23991 0 0 0
1552 2006 5 0.0 8.608288 102.0 17.529911 0 0 0
1553 2006 5 0.0 8.608288 102.0 20.369904 0 0 0
1950 2006 5 0.0 1.4e-05 102.0 22.499901 0 0 0
1958 2006 5 0.0 2.4595210000000005 102.0 22.499901 0 0 0
1968 2006 5 0.0 4.919028 102.0 22.499901 0 0 0
1978 2006 5 0.0 7.378535 102.0 22.499901 0 0 0
1551 2006 5 0.0 8.608288 102.0 16.109915 0 0 0
1543 2006 5 0.0 6.148781 102.0 16.109915 0 0 0
1535 2006 5 0.0 3.6892740000000006 102.0 16.109915 0 0 0
1526 2006 5 0.0 1.229767 102.0 16.109915 0 0 0
1521 2006 5 0.0 1.4e-05 102.0 15.399916000000001 0 0 0
1530 2006 5 0.0 2.4595210000000005 102.0 15.399916000000001 0 0 0
1539 2006 5 0.0 4.919028 102.0 15.399916000000001 0 0 0
1547 2006 5 0.0 7.378535 102.0 15.399916000000001 0 0 0
3892 1630 4 0.0 6.883201432304322 108.47526265250956 20.153257381345238 -3 0 0
1384 485 2 0.0 3.1397078379607435 108.6127607380337 16.14991420886731 2 0 0
1996 2006 5 0.0 11.067794 102.0 21.789901999999998 0 0 0
2004 2006 5 0.0 13.527300000000002 102.0 21.789901999999998 0 0 0
2013 2006 5 0.0 15.986807 102.0 21.789901999999998 0 0 0
1557 2006 5 0.0 9.838041 102.0 19.659908 0 0 0
1556 2006 5 0.0 9.838041 102.0 18.23991 0 0 0
1561 2006 5 0.0 11.067794 102.0 17.529911 0 0 0
1567 2006 5 0.0 12.297547 102.0 19.659908 0 0 0
1562 2006 5 0.0 11.067794 102.0 20.369904 0 0 0
1566 2006 5 0.0 12.297547 102.0 18.23991 0 0 0
1571 2006 5 0.0 13.527300000000002 102.0 17.529911 0 0 0
1577 2006 5 0.0 14.757053000000003 102.0 19.659908 0 0 0
1572 2006 5 0.0 13.527300000000002 102.0 20.369904 0 0 0
1576 2006 5 0.0 14.757053000000003 102.0 18.23991 0 0 0
1581 2006 5 0.0 15.986807 102.0 17.529911 0 0 0
1587 2006 5 0.0 17.21656 102.0 19.659908 0 0 0
1582 2006 5 0.0 15.986807 102.0 20.369904 0 0 0
1586 2006 5 0.0 17.21656 102.0 18.23991 0 0 0
1988 2006 5 0.0 9.838041 102.0 22.499901 0 0 0
2000 2006 5 0.0 12.297547 102.0 22.499901 0 0 0
2008 2006 5 0.0 14.757053000000003 102.0 22.499901 0 0 0
2017 2006 5 0.0 17.21656 102.0 22.499901 0 0 0
1580 2006 5 0.0 15.986807 102.0 16.109915 0 0 0
1570 2006 5 0.0 13.527300000000002 102.0 16.109915 0 0 0
1560 2006 5 0.0 11.067794 102.0 16.109915 0 0 0
1555 2006 5 0.0 9.838041 102.0 15.399916000000001 0 0 0
1565 2006 5 0.0 12.297547 102.0 15.399916000000001 0 0 0
1575 2006 5 0.0 14.757053000000003 102.0 15.399916000000001 0 0 0
1585 2006 5 0.0 17.21656 102.0 15.399916000000001 0 0 0
970 1038 4 0.0 8.331150697144272 106.1256506199837 23.503759108923187 2 0 -2
3999 1769 4 0.0 10.102151263788409 105.38864112674659 19.11221923375945 2 0 0
3757 255 1 0.0 23.471495518924563 108.42409896283907 42.267939471831916 -13 0 0
3802 1568 4 0.0 14.264443097872544 105.08188726506397 20.548645403496067 -1 0 -1
3314 2000 4 0.0 18.97719539662236 106.8814465630258 16.517213509177456 -2 0 1
2021 2006 5 0.0 18.446314 102.0 21.789901999999998 0 0 0
2030 2006 5 0.0 20.905819 102.0 21.789901999999998 0 0 0
2039 2006 5 0.0 23.365326 102.0 21.789901999999998 0 0 0
2047 2006 5 0.0 25.824833 102.0 21.789901999999998 0 0 0
1591 2006 5 0.0 18.446314 102.0 17.529911 0 0 0
1596 2006 5 0.0 19.676065 102.0 19.659908 0 0 0
1592 2006 5 0.0 18.446314 102.0 20.369904 0 0 0
1595 2006 5 0.0 19.676065 102.0 18.23991 0 0 0
1599 2006 5 0.0 20.905819 102.0 17.529911 0 0 0
1604 2006 5 0.0 22.135572 102.0 19.659908 0 0 0
1600 2006 5 0.0 20.905819 102.0 20.369904 0 0 0
1603 2006 5 0.0 22.135572 102.0 18.23991 0 0 0
1607 2006 5 0.0 23.365326 102.0 17.529911 0 0 0
1612 2006 5 0.0 24.595079 102.0 19.659908 0 0 0
1608 2006 5 0.0 23.365326 102.0 20.369904 0 0 0
1611 2006 5 0.0 24.595079 102.0 18.23991 0 0 0
1615 2006 5 0.0 25.824833 102.0 17.529911 0 0 0
1620 2006 5 0.0 27.054586 102.0 19.659908 0 0 0
1616 2006 5 0.0 25.824833 102.0 20.369904 0 0 0
1619 2006 5 0.0 27.054586 102.0 18.23991 0 0 0
2025 2006 5 0.0 19.676065 102.0 22.499901 0 0 0
2035 2006 5 0.0 22.135572 102.0 22.499901 0 0 0
2043 2006 5 0.0 24.595079 102.0 22.499901 0 0 0
2052 2006 5 0.0 27.054586 102.0 22.499901 0 0 0
1614 2006 5 0.0 25.824833 102.0 16.109915 0 0 0
1606 2006 5 0.0 23.365326 102.0 16.109915 0 0 0
1598 2006 5 0.0 20.905819 102.0 16.109915 0 0 0
1590 2006 5 0.0 18.446314 102.0 16.109915 0 0 0
1618 2006 5 0.0 27.054586 102.0 15.399916000000001 0 0 0
1610 2006 5 0.0 24.595079 102.0 15.399916000000001 0 0 0
1594 2006 5 0.0 19.676065 102.0 15.399916000000001 0 0 0
1602 2006 5 0.0 22.135572 102.0 15.399916000000001 0 0 0
3966 1801 4 0.0 23.051005303624315 104.27043483633574 23.791424093282437 -15 0 1
4046 1700 4 0.0 17.792360500439028 106.63652065601694 20.296363735356163 -4 0 -1
2887 2006 5 0.0 25.824833 102.0 43.089855 0 0 0
4320 255 2 0.0 26.619466277041628 107.55988982426513 37.5607158284284 -12 0 0
1951 2006 5 0.0 1.4e-05 102.0 23.919899 0 0 0
1959 2006 5 0.0 2.4595210000000005 102.0 23.919899 0 0 0
1955 2006 5 0.0 1.229767 102.0 24.629894 0 0 0
1969 2006 5 0.0 4.919028 102.0 23.919899 0 0 0
1963 2006 5 0.0 3.6892740000000006 102.0 24.629894 0 0 0
1979 2006 5 0.0 7.378535 102.0 23.919899 0 0 0
1974 2006 5 0.0 6.148781 102.0 24.629894 0 0 0
1983 2006 5 0.0 8.608288 102.0 24.629894 0 0 0
1953 2006 5 0.0 1.4e-05 102.0 28.17989 0 0 0
1952 2006 5 0.0 1.4e-05 102.0 26.759892 0 0 0
1956 2006 5 0.0 1.229767 102.0 26.049892 0 0 0
1961 2006 5 0.0 2.4595210000000005 102.0 28.17989 0 0 0
1957 2006 5 0.0 1.229767 102.0 28.889885 0 0 0
1960 2006 5 0.0 2.4595210000000005 102.0 26.759892 0 0 0
1964 2006 5 0.0 3.6892740000000006 102.0 26.049892 0 0 0
1971 2006 5 0.0 4.919028 102.0 28.17989 0 0 0
1965 2006 5 0.0 3.6892740000000006 102.0 28.889885 0 0 0
1970 2006 5 0.0 4.919028 102.0 26.759892 0 0 0
1975 2006 5 0.0 6.148781 102.0 26.049892 0 0 0
1981 2006 5 0.0 7.378535 102.0 28.17989 0 0 0
1976 2006 5 0.0 6.148781 102.0 28.889885 0 0 0