LAMMPS data file via write_data, version 29 Oct 2020, timestep = 250000

2744 atoms
1 atom types

0.2860693431425858 24.52193065685747 xlo xhi
0.2860693431425858 24.52193065685747 ylo yhi
4.484735533559327 55.18116141917203 zlo zhi

Masses

1 58.933

Atoms # atomic

545 1 3.8108594583833395 24.02244185732986 5.240106026902795 1 -1 0
102 1 3.3467577814711573 3.1331171832040554 7.043343820492767 0 0 0
927 1 1.1342579979563743 2.4114850439656967 7.071826297320761 0 1 0
616 1 3.358840795852869 0.8899089438881236 7.182570409141698 0 -1 1
1761 1 2.3057480340750405 1.7429031312893726 4.965660657802898 3 2 0
1393 1 5.48545291314291 1.9954113877286384 6.323358900315778 0 0 1
440 1 7.943269033429919 2.7567229595578113 7.158603645748833 1 1 0
793 1 8.011708004294782 1.0480675942625144 5.837076468149999 1 0 0
78 1 6.166072056815234 3.5592059603692325 7.968682538240758 1 0 0
23 1 6.98472832272265 0.9202843926564924 8.019564541244623 1 0 0
1380 1 5.045705271899822 3.9481222571502035 5.6926534208897825 -3 2 -1
1468 1 23.68689619052865 7.84063802017141 4.879723412734161 -1 3 3
693 1 10.593631306585467 2.106908775334828 6.588673121939996 0 1 0
960 1 11.863400045656508 3.0019794382112077 4.7429079739415485 1 2 0
1332 1 12.306474778734705 1.3029702008422033 7.772980266619282 0 0 0
850 1 10.08256063921815 4.230893442544918 8.594435153183124 0 0 0
599 1 9.806249858803673 24.21408343457151 7.428230340580869 0 -1 0
2113 1 24.27534758502977 20.20408106113126 5.137493197080921 -2 -2 -1
1277 1 13.988010162631348 2.164296485886412 6.29424088073128 -1 0 0
2689 1 12.447947267690406 0.6311773435523846 4.919979343176582 0 1 2
3 1 15.493480954831462 0.6720230132190086 5.13591438937331 -1 0 0
1532 1 12.66208863236508 5.085049583450431 5.510991602194514 2 0 0
364 1 16.34015937969657 2.6653695502382027 6.288838047050308 0 0 0
1197 1 14.514741796523316 0.7257978244280479 7.801323738376528 -1 1 0
2725 1 20.63402054622595 1.9772598786282403 5.552818236897216 -1 4 1
1087 1 18.97666187675943 3.2667567413818857 6.5110222414791 0 1 0
1912 1 17.800842288763075 1.3750481878646739 8.171616129678924 -1 -1 -1
1188 1 17.785591888388026 3.620503121014763 8.328396466977072 0 0 0
2132 1 15.641931682253938 22.298840547258706 5.059931938182465 0 -1 -1
79 1 16.86392245459594 24.19659403474093 6.861512884629496 0 -1 0
17 1 19.980331364526762 4.715249779658973 5.4602752147204034 0 0 -1
2311 1 0.31682761096113055 0.5236925265931673 5.234029882114938 3 3 0
956 1 20.17758210832822 1.4475477375730366 7.609587940098142 -2 1 0
601 1 22.680247572326444 2.3401307541782006 7.3993043566288765 -1 0 0
1179 1 24.51715185007295 0.9092890667198675 7.775132086949094 -1 0 0
915 1 23.582224816966928 2.729121863137281 5.282745009277503 0 1 0
1549 1 3.949568086792777 7.350815289329099 6.588262332051641 0 -1 -1
777 1 23.660453861443827 18.031679116927464 4.660652211890351 0 0 0
2114 1 1.6199171485361783 5.570072589077511 6.580582912556247 -2 0 -2
1884 1 1.8638224195983562 7.622557211149161 5.980429742695833 -2 -1 0
938 1 2.2545759841524435 9.836514468157933 7.102059079273221 0 1 0
1755 1 3.8690451589057973 5.212089487394643 7.697647748265325 -2 2 1
1777 1 7.421152367298389 4.335047088409869 5.562123265013797 1 1 2
965 1 6.059051559432633 5.71484105122336 7.170463130117897 0 0 0
801 1 7.937572626353083 5.051712980665664 8.021943504711986 -1 0 0
160 1 8.109676554708992 6.593551298066233 5.775726553235629 -1 1 0
904 1 9.208433660298807 22.41357830640826 5.415924074932606 0 0 0
173 1 3.221071874689922 5.047299458726011 5.1191213077086655 1 0 0
1765 1 10.039968120155175 4.436210851185305 6.106468741478713 -1 -2 1
1742 1 6.150971040773175 24.219736385717738 4.533542783936529 -1 1 1
884 1 11.008241834758671 6.094890114191485 7.409840588069555 -1 1 0
830 1 9.108299485589537 7.379846268990708 8.182881099065465 -1 1 0
2482 1 10.040199646635575 7.554170124415641 5.709808247389058 2 2 0
1904 1 15.550263504254149 4.7708665296371375 7.504662087054903 -1 0 2
84 1 12.382832861619892 7.633210033654194 6.04377660785725 0 0 0
761 1 13.367970164528915 5.900579092342843 7.4562973455042805 -1 1 0
737 1 15.53629811787452 6.5838663795127355 6.7864779223696345 0 1 0
2402 1 14.545208876978712 6.047700388609591 9.435767371521305 -2 -1 0
1166 1 13.697503162180755 8.044083045270412 8.04913712192675 1 1 0
838 1 12.459408686393015 3.580306559923498 7.026952077427618 -1 1 0
2179 1 15.096564117402728 4.45928530490139 5.3116807708363085 0 0 2
1905 1 17.325160106468974 4.99404051386378 6.106260082768844 0 1 1
1091 1 17.42175244517066 5.7445729580424025 8.190278018019004 0 1 0
1018 1 18.97711437061064 8.050201037726833 8.314463757947365 0 1 0
978 1 19.29217151916314 6.175844696084762 6.862190396648331 0 1 0
799 1 22.035114261279574 20.16464883800493 4.651394698821146 -1 0 0
1165 1 22.982806185579353 10.908547806256195 5.850415927030399 0 0 0
861 1 23.806727842789126 4.800841140717384 5.986847472861648 -1 1 0
1005 1 24.236062872263314 6.578564802433746 7.345133348830414 -1 1 0
239 1 21.78081043613204 3.869667086158131 5.848962779135162 -1 0 0
714 1 20.457357708609873 3.8722737776019334 7.804116690939861 -2 0 0
794 1 23.055664554058964 4.803038981428972 8.326591328190386 0 0 0
370 1 21.279726536907425 5.914450359450199 8.513271711682307 0 0 0
738 1 22.237206041631172 6.754623139224265 6.237352744301694 -2 1 -1
1788 1 2.255368369167723 11.14673116906887 9.034367931242045 2 0 1
1403 1 3.5489421762859314 9.18863420267169 4.98876737432509 1 1 0
732 1 2.3591455838226403 12.093966423799579 7.167417357451907 0 0 0
715 1 4.331250863289265 10.452632133594419 7.373605077331447 1 0 0
2341 1 4.632944721461862 11.20820371609972 5.060505459203085 -1 0 -1
2368 1 5.883703213689487 8.250056049706107 5.799712954259741 1 2 0
352 1 15.012703424597131 8.410520119262248 5.871187910443996 -1 0 0
267 1 5.421096530114524 8.831923350270193 8.194668882952945 0 0 0
2606 1 6.168803220160836 12.529216342177628 6.432333778197873 0 1 2
1559 1 7.007478748959031 11.015888237219388 7.8964157770708026 -2 0 1
2314 1 7.447557811764055 8.689485533041854 7.1784187703339235 -1 0 -1
1707 1 7.026835320367867 10.721881874856148 5.454781642478188 0 0 0
1876 1 8.695834865526528 12.399535851846148 6.347549143054174 2 -1 1
1086 1 9.190195351022485 10.013675755788764 6.186510253219825 0 1 0
561 1 11.07026296421944 8.500934896407186 7.674366394051038 0 0 0
1147 1 10.70195693175002 11.75129334425244 7.942184682315212 1 0 0
2130 1 13.108764518891073 10.638084003725297 7.8610333576960745 0 3 -1
2607 1 12.814559633976977 12.244646972714504 6.188848426192196 1 0 1
433 1 10.595943027924307 11.659539290459502 5.094895396825736 0 -1 0
770 1 16.582971186484308 9.826917935294105 5.398853083222804 1 1 0
29 1 11.780798206638666 10.264071854152801 6.089824449100124 -1 0 0
841 1 14.511284542226031 10.619442187239565 5.928001773745299 0 0 0
953 1 0.49974188534116226 12.335534436189159 4.613396213981435 0 0 0
2096 1 14.689191823525507 12.102335233077548 7.658090188982548 0 -1 0
2139 1 16.73977831696403 11.55113132265552 6.923868893783241 -1 0 0
1605 1 15.276406056165785 9.857800937283356 7.996494716198529 1 0 1
2174 1 17.380405114276467 7.510411385310126 6.157963855346941 -1 0 0
1758 1 18.65495763896687 10.478283505164228 5.142433087233924 1 -2 0
2329 1 17.41051578768747 9.536785145184018 7.461794321424155 0 2 3
2469 1 19.48816587939661 10.505065688658318 7.490373908701645 -1 2 3
2286 1 19.644668274817846 8.332282230354933 6.062815254765821 -2 0 0
829 1 23.350443259482137 8.719944897981685 7.094406692008972 -1 1 0
1375 1 6.30170985543709 20.003965858110003 5.700586719858096 2 -2 1
1016 1 21.687794943705217 9.269495278991476 5.762421312120868 -2 0 0
1156 1 21.177235136439396 9.262100067858896 7.876043714237385 -1 0 0
217 1 21.118795198291096 11.604751326307088 7.040383441995237 0 0 0
445 1 24.281367146295178 10.854266575678334 7.909836435617464 0 0 0
1242 1 22.232794826930977 10.866904862449168 8.812505128204336 0 0 0
1021 1 20.41260774204789 12.154063671345023 4.897624498639168 0 1 0
1447 1 24.12420398559776 12.78322891911865 6.8679703657482385 -1 -2 2
1415 1 2.3306100658002227 13.604472825331623 5.412070887839595 2 0 0
2133 1 4.77398311648319 13.831824470291371 5.128649566724631 1 1 0
225 1 23.937334254157534 15.035861283638237 7.838880107279622 -1 -1 0
542 1 1.528814240972774 13.594198291541819 8.933353575256012 0 0 0
1977 1 20.000701979163033 21.529002258154144 5.169011045605218 1 -2 2
86 1 17.909759805441883 1.05010165689351 4.828061249216656 -1 1 0
1174 1 4.290601052220148 14.84065869664318 6.908731283248846 1 0 0
2463 1 6.930849973693777 14.871336960472188 5.209945396889282 0 1 1
1895 1 9.029101599770987 14.93865268701915 5.405261391880803 0 0 2
1874 1 22.550916437361323 22.71668137715336 15.770205099605175 -2 -1 2
1592 1 7.592787901753373 14.197509467890233 7.346951124865992 0 -1 1
1078 1 4.280844757460281 12.71021724549695 7.555108038597684 1 0 0
2293 1 9.85642977446673 14.486047248499299 7.634134203780564 0 1 0
1954 1 11.239022391870796 13.602532065296494 6.13059317855255 -2 0 1
716 1 13.311820214531265 14.434304630303483 7.04317991396144 1 0 0
1222 1 13.47046780302083 15.53184917719082 5.305234185016417 0 0 0
578 1 5.2744213071907255 9.572159381942605 16.983137787911943 0 0 0
1774 1 9.202480088459897 16.470718071125297 7.0663927807743185 0 0 -1
1062 1 11.32188984117853 15.25785400224352 4.581471494561315 1 0 0
2365 1 0.7044701899379897 9.61605261969617 5.309498180413024 0 2 2
855 1 14.879181163623418 13.261281744863078 5.563074207402837 -1 1 0
1046 1 1.1541983004311827 7.916755850721529 16.999989317136517 1 1 0
1581 1 18.61932227226494 12.745336898458385 6.078090591712227 0 1 0
2637 1 18.430752634277106 12.505236358777896 8.48067267206783 1 3 1
2442 1 18.557288403896237 15.219016014594375 7.670878072507297 0 0 2
340 1 19.876759293794436 16.929900373795736 5.864050609618914 0 0 0
2445 1 16.359847905103447 13.917516546240552 7.017281271631456 0 0 2
292 1 20.3969796689599 13.440200556918278 7.731491610767072 0 0 0
472 1 22.15566299255129 13.86150863920629 5.65397507904934 -1 0 0
848 1 19.810963801192017 14.621443054180977 5.669603648026139 0 0 0
1606 1 22.270988052666446 13.042068518944431 8.420294184856765 -1 -1 1
572 1 21.30460362317645 15.284750481113349 7.561038140439106 0 0 0
1645 1 20.80561397588357 17.582138409825937 7.753216012344074 -1 0 0
859 1 1.7320905956818755 18.170091224878156 4.674602604197946 0 0 0
2028 1 3.0873614503395257 17.55425559760394 6.395961318121074 1 1 1
1815 1 1.9449824072153212 19.526943781381224 6.944974419959971 2 -1 1
2554 1 1.9839810654665897 15.121700923012618 7.134731654255281 1 1 4
2513 1 3.6548689106298378 19.41172193259063 8.473731405797139 0 -1 2
964 1 0.8307093853657866 17.158802587532943 6.514907700564001 0 0 0
959 1 23.613137878799883 21.705366658906513 13.428414294630846 -1 0 0
1399 1 7.732816561176267 16.950104768645332 5.296048974255463 2 -1 2
1503 1 7.689148059145779 18.596826650206 6.557501001649237 0 -1 1
209 1 5.7354645419790495 18.93911123204074 8.705854970694164 0 -1 0
1708 1 4.604693664777426 16.962902653611398 8.845349895314765 0 -1 1
1616 1 6.338712753486156 16.320064734495553 7.267137994424371 0 -2 0
1104 1 20.52066971015159 23.7897042038243 4.587509486314675 -1 0 0
676 1 9.940512009924708 18.38764081392702 6.117773373979618 0 -1 1
149 1 11.810626928047428 17.006317546591323 5.844461084365978 0 -1 0
1970 1 8.423578027779692 18.136640408029905 8.803114151420086 -1 -2 1
205 1 9.800624357639446 19.816638251278032 8.082161750199809 1 -1 0
1764 1 10.892507591123499 17.82602549682411 8.146656648986625 0 0 0
147 1 10.101556927013986 18.785879808554835 10.58908728422891 0 -1 0
22 1 12.346368822994544 19.081288765541682 7.056695768430027 0 -1 -1
2640 1 15.752104783556046 15.840647447952168 5.833649153046929 1 0 1
610 1 14.08810689950412 17.694281137595418 6.0736541449269525 0 0 0
2416 1 15.941265001286334 18.12109701532713 5.017756570057859 -1 0 1
1009 1 15.201275620834597 20.142850499250876 6.086024064056142 -1 0 0
1064 1 13.306925441440551 17.3052908260857 8.073973551601712 0 0 0
268 1 14.19864042849171 19.702905668289556 8.080270868638431 0 0 0
32 1 17.730572848312054 14.75378298240098 5.374728568893687 0 0 0
2598 1 17.535518054708362 20.680807972288072 5.4210391692403235 -2 1 2
2112 1 17.652216130608693 17.237114866130835 6.727980179325714 -1 0 0
2159 1 19.086037928069654 19.19881357101902 6.178730654619049 -1 1 1
952 1 6.591153924333247 0.42895516199820943 17.022996758143645 0 1 0
362 1 19.196666638811998 19.58263228337255 8.74411848746707 -1 0 0
1591 1 17.244864896265497 19.71492389839934 7.346842377507921 1 -1 1
1516 1 21.09844225968241 19.782934504134836 6.619525232974707 0 0 2
784 1 24.227951325147124 14.87140113556235 5.612909774069112 0 0 0
1019 1 23.033628288461657 18.92540491786263 6.6385644152718735 -1 0 0
2653 1 22.887717921381864 16.626583107722343 6.311343925283639 -1 -1 1
39 1 21.946920066820645 19.089847640126354 8.678311885868126 -1 -1 0
2597 1 23.36719866082389 17.201010013051885 8.350019371581528 0 -2 3
1033 1 1.7331990773283836 23.58990099625824 6.948807841512139 1 0 0
1118 1 5.107968564298359 18.234193224798354 6.5615532958420015 1 0 0
2508 1 0.8093870044726357 22.340180352448932 9.049337113576211 -2 -2 0
1949 1 3.9430614907962878 19.866841500557335 5.511316347703649 0 -1 0
1600 1 2.533418133646536 21.610063529892162 5.487347999086708 -1 -1 -1
204 1 5.173381852520215 23.59993888386292 7.6619318479772485 0 -1 0
1544 1 7.496707948658952 20.239741015610708 7.996608991333224 1 -1 1
350 1 5.304148034404813 22.201939274072654 5.563502446279176 1 -1 0
1421 1 7.200939061786793 23.20396554814463 6.39574866229047 2 -2 -1
949 1 4.901362510072745 20.818482548818174 7.501834396072303 1 0 0
1867 1 7.048571063651173 22.564793310178352 8.675170128681543 2 0 1
2072 1 8.579854676813994 20.568857826738622 5.840088906918063 2 1 1
2036 1 11.16230983973441 20.880114101265967 5.647810113591908 0 1 1
2054 1 5.575750608215128 6.087708036423246 5.053357491900491 1 0 2
2307 1 9.44671769314502 22.218311562489077 7.7951899905190984 -3 2 0
1794 1 12.855948651816213 23.668536491521753 8.698747553045301 -1 -1 0
812 1 11.97255296851738 21.04843958089686 7.765110446268132 0 0 0
1919 1 11.689790624669076 23.300307647648275 6.593875938839602 -1 -1 2
854 1 22.618005744517276 20.39650641461973 15.685612769209083 1 0 0
2647 1 14.09597022501198 23.58526882880573 6.011753810416904 -1 0 3
758 1 10.242006326658055 10.238563980978457 16.936220951256075 0 0 0
2189 1 0.37555398638856374 13.931371362565624 16.717789785994434 3 0 0
324 1 15.072711056404415 22.223202302945083 8.14329773750463 -1 0 0
466 1 13.336223469480911 21.378392296559234 6.11434733184145 0 0 0
1733 1 16.732792032790414 23.73388420791898 8.896221970733212 0 -1 2
870 1 8.162479188454377 22.66975402164113 16.874919517088063 0 0 0
805 1 16.801310846404423 22.002152626079578 6.981882389680976 0 1 0
1274 1 19.728085243523932 21.786442764745043 7.191014890680503 0 0 0
1859 1 17.864059343236473 23.010386404068875 5.1001885647365786 -1 -1 3
189 1 19.578976342017892 23.851950325828785 6.541210659693348 0 0 0
832 1 18.708021864089527 23.54356513568356 8.298887042101011 -1 0 0
163 1 21.99751874763755 21.278474821456754 8.53190855039332 -1 0 0
156 1 22.008830043827395 22.227741985516698 6.176525193539567 -2 0 0
2672 1 23.69108124623397 23.20828027875868 7.679077097912266 0 -1 1
76 1 22.147843189003577 24.49716703202023 6.326950274462856 -1 0 0
2413 1 24.180827673619707 20.967362691699762 7.478410150975303 -2 0 0
756 1 21.35431067751596 23.504836330229196 8.27877500379399 -1 0 0
142 1 24.403051931587353 22.426358439976948 5.2121527165085855 0 1 0
1729 1 23.70430182386486 20.16232216560001 10.03364966729972 1 0 -1
1281 1 1.9570759330088112 2.284513336258086 9.37373036166936 1 0 0
236 1 3.071856705479785 3.2428717519337926 11.357431478899336 1 0 0
501 1 3.7798427474827623 1.2553988622837173 10.403665344299025 -1 0 0
2183 1 0.9468013527162056 4.0946259203435735 10.869218904961292 1 1 -1
2003 1 4.052406052633069 3.633609199651606 9.365606984823309 1 -1 4
1450 1 1.323215385890742 4.416022183520648 8.416293468987817 2 1 0
783 1 5.1262213762221585 1.6864405404303329 8.596262732618342 -1 0 0
2417 1 8.028986736479343 3.3051144245089166 11.841248024973865 0 0 1
200 1 9.002475978930704 1.0988666633698756 11.531952749906328 0 0 0
1035 1 6.695123576306689 1.0893892402341923 10.366680412309318 1 0 0
1244 1 5.921403070008161 3.2275460111442706 11.034709037386273 1 1 0
2148 1 7.7565620158396875 3.2005915516973467 9.50080559407257 1 1 0
479 1 10.868162055983213 3.026541773877421 13.079633760328088 0 1 0
979 1 9.375052844831584 1.6770267698718095 8.672543647549055 0 1 0
1219 1 11.08572818035589 0.434462319945069 9.81779828803208 -1 2 0
1105 1 13.107744369831577 2.3536619112728996 13.49693718969701 -1 0 0
1185 1 9.988930600320645 2.8522759947671936 10.836735353262398 1 1 1
670 1 11.936776662601437 1.163475621090894 11.86378036137603 0 0 0
73 1 11.79181975032469 2.650462918585837 9.471439422490603 0 1 0
332 1 15.803641387345925 2.4785063145305437 10.611919543432226 0 0 0
899 1 13.832359591035024 3.648015109387749 8.618892134582998 -2 1 0
555 1 15.849833567670258 2.2149767270236738 8.4986661828082 0 0 0
37 1 13.614929371080262 1.4671332567562072 10.041960043223442 1 0 0
874 1 14.162119730539612 24.51438612643198 15.026035456838398 0 0 0
1135 1 20.613955951073297 23.92842540055783 10.326641415353247 -1 0 0
954 1 17.86284133436937 3.1486517126879425 10.585244817520522 -1 1 0
1268 1 16.198470881778 4.47689989886074 9.678707274618485 0 1 0
1113 1 18.61681719004064 0.8789258804029283 10.111141020383917 0 0 0
355 1 19.759333448365197 3.95086926790782 11.326978103098758 0 0 0
926 1 17.201251290467617 1.8867073436679793 12.27508240040514 0 0 0
852 1 20.087112459487646 2.401792090098398 9.766302838611985 0 1 0
708 1 22.672025616400617 1.070004024773501 9.500713304140035 -1 1 0
1652 1 19.679735289641457 1.759804972743746 12.392890196772298 -2 1 3
259 1 21.48346380961503 2.008260976060272 11.607360196584247 -1 0 0
1564 1 24.140835622056738 2.872648885084448 9.263623062263338 2 1 1
499 1 2.0926988994562308 6.702681240606692 8.470292796224982 0 -1 0
2169 1 2.7947490866840163 5.307897269222173 9.984249055621433 1 -1 0
394 1 1.8613109176718634 7.276611249529049 11.127325610854399 0 0 0
2634 1 4.1237019507623724 7.327906924027212 11.481711327007638 3 0 1
1909 1 4.36876470376008 6.944935565428634 9.154802704798264 -1 2 0
2089 1 6.931167181026971 6.989801056921986 8.892480743151847 2 0 1
1563 1 5.560103946710963 5.0604070761167765 9.572874689327307 0 1 1
1748 1 4.7329421039381545 4.9307250510049085 11.46160705673678 0 0 1
1411 1 6.08177732358243 6.938490406184842 10.87548289165915 -1 0 2
913 1 4.956200214471881 9.383711630883765 10.502602446384264 1 0 0
834 1 10.100684319807835 6.108191217591496 9.805796262227528 0 0 0
288 1 8.315619311034247 5.08360005861888 10.624989941795999 1 0 0
807 1 8.478413975138691 7.770535744706536 10.639460749400488 0 1 0
901 1 10.99550633245679 4.5597684499033955 11.100343368060942 0 0 0
171 1 11.250885721055718 6.884914365777016 11.958395502370097 0 1 0
2548 1 12.02582103851921 5.143840478012972 13.43326776016756 1 0 0
1099 1 12.011065939780986 7.3561231967726135 9.309734975480264 0 1 0
1131 1 13.502112885426683 3.6387148532645135 11.422050849025304 1 0 1
2007 1 12.44900612074213 5.169211667658507 9.695171763042277 -2 1 1
414 1 15.653572127038771 7.307586636315625 10.993729222889598 1 0 0
1206 1 13.225287822368628 6.794983839319441 11.663868256252389 0 1 0
527 1 17.49333051481695 4.358110176283324 12.36966107340374 0 0 0
1971 1 16.61183858952905 8.731208512248186 12.57638875879774 0 -1 1
1409 1 19.356114857953717 5.089702316493644 9.35648614434626 -1 1 2
1529 1 16.1329956130154 7.805407710361608 8.760751618836444 -1 0 1
535 1 17.729795478095184 5.906264545135313 10.73392599896849 0 0 0
1249 1 19.41647268536063 5.716013068690662 12.45597110537153 -1 0 0
997 1 18.935116871888162 8.072705287913749 12.137781523480507 0 1 0
694 1 20.10358962482635 7.2200204563222945 10.066421730125352 0 1 0
122 1 21.928381340770596 5.636503356174501 11.421479688673065 0 0 0
164 1 21.814895856008164 3.6282131255778443 10.060245731063507 0 1 0
1805 1 0.32699421126063233 8.489037038977584 8.771241716814274 2 0 1
802 1 23.19100749371476 3.8984308293775407 11.92323777314387 -1 0 0
1887 1 24.023894963331692 5.954820309124218 9.982133842837072 -1 -2 2
1451 1 21.545084077140082 7.977469034413568 11.66806550904091 0 -1 1
872 1 23.037157017472563 8.295887506286691 13.580371124706982 0 1 0
856 1 23.85238300256715 7.842091643230336 11.32082957235994 -1 1 0
2387 1 2.9318817578767655 8.741793101847197 9.095186280032191 1 0 0
1718 1 23.691124658946556 12.093543302479876 9.749399263877248 -2 -2 2
72 1 3.7468295250805776 13.270600268401267 9.820205256009352 1 1 0
1696 1 0.9230112457244862 10.74887698932628 10.640248929199444 -1 1 0
2299 1 0.8340616474568384 9.327485260030517 12.509459646509702 0 1 0
420 1 2.927525792779396 10.163373244254476 11.401351763338518 0 -1 0
1528 1 2.2034040496871503 12.315478960887686 11.139176642780104 0 1 1
1272 1 4.798111067489705 12.010101452507822 11.604639959251802 1 1 0
1377 1 8.494396321932149 6.97415976545756 12.743209368436744 1 1 0
447 1 7.062320364807382 8.911377905193069 12.097786191721106 1 0 0
16 1 4.915862964314782 11.254971332573259 9.462883316903932 0 -1 0
1478 1 7.290376719730027 9.217453695491086 9.669331695519823 1 -2 1
931 1 6.914903342433131 11.354133847657293 10.617720177253023 0 1 0
1337 1 9.030003097745947 9.944118925156454 8.30364528638 0 1 0
2140 1 8.93948500911374 12.244887440137855 8.855168687563452 1 0 -1
906 1 8.904253168467598 10.27209025764203 10.824697854222832 0 0 0
130 1 10.56649495191482 8.957794770910205 10.212563798769398 0 0 0
630 1 9.999764520897013 8.77730505264509 12.229792876920081 1 0 0
1028 1 11.985535571084279 10.888785257744086 9.928907560172549 1 0 0
1633 1 8.381759980820043 12.662064773309014 11.571030482944327 0 0 -1
222 1 12.402217534365672 12.757371947265643 8.731301229972264 0 -1 0
469 1 14.57531243014959 11.723159324560699 10.008433030009733 0 1 0
1724 1 12.227078484242346 9.221315522449853 11.721375940717927 0 -1 2
1201 1 13.117201672224834 11.478671855035786 11.762284606507608 0 0 0
67 1 13.751876328197413 9.317643088134583 9.802607908962525 0 0 0
1452 1 15.173717345999588 10.961917398273414 12.216928872016261 0 1 0
1437 1 18.77455273107342 10.448374498302483 9.689437769390182 1 -2 1
893 1 16.130181081934676 10.076245288517464 10.178405460301061 0 0 0
294 1 17.81822785739513 8.329035005210295 10.141008516647265 -1 1 0
193 1 18.157503987334096 10.066735466231467 12.202605686138469 0 0 0
429 1 20.5452743732099 9.320828272019023 10.251775228021067 -1 -1 0
170 1 17.5954514903163 9.903180200637024 14.538476411936154 -1 0 0
1965 1 20.592149584172432 12.173345413290392 9.38147249829338 1 1 3
1663 1 20.215213290695655 11.376623764983725 11.347549053007018 4 -1 -1
560 1 22.46806774649294 7.574483559269856 8.983764410151526 -1 0 0
132 1 22.4714032779847 10.072705155862637 11.06984292257027 0 1 0
92 1 23.888403282128046 11.820987328882685 12.069582028247952 -1 0 0
461 1 1.3432982392236161 12.928553627415903 13.045740741626323 0 0 0
2449 1 2.94563627481531 15.486503623293855 9.664646913951543 0 2 2
234 1 2.265656260633193 16.198350297436335 11.608583531813217 0 -1 0
995 1 3.442470087896585 14.28435313614309 12.124578930333225 0 0 0
446 1 0.806352026268688 14.058961634002168 10.857253622817172 2 0 0
251 1 1.525707876758621 15.143220084367453 13.753625042166925 2 0 0
2313 1 5.245110867212947 14.61739384379302 9.03916557344322 0 0 0
2690 1 6.422770820188998 12.943677583545297 9.07221686976553 -4 1 2
1070 1 5.84492809017099 13.934240854995238 11.320237804524726 0 0 0
221 1 7.479368265692752 15.43501930894218 11.581504565319733 1 0 0
1372 1 4.891864449021575 16.033321453417514 11.201235704946923 0 0 0
49 1 8.285028095911215 14.15010625836141 9.657467871841781 0 -1 -1
2212 1 7.173770160042404 15.945993790514903 9.449084130839566 0 0 -1
984 1 10.047996897972952 16.957226916441492 12.184472382544339 1 0 0
1810 1 10.331493530840145 12.649563683068912 10.629959372160577 -2 -3 1
2053 1 11.84860048588483 13.010573697529484 12.911927037068992 -3 -2 2
1088 1 10.729487881923781 14.928254969305502 9.764917727635119 0 0 0
1024 1 9.262590741575101 16.55100626475226 9.933034271520802 1 0 0
987 1 9.832474453175246 14.558620191174608 11.908452520509009 1 0 0
1830 1 16.432706315416407 11.985579425787943 9.042407234973462 -1 -1 0
565 1 11.695274747087334 15.761688765444289 7.651949071208512 0 0 0
285 1 13.3960210964709 13.55107375320213 10.84326483721388 -1 0 0
1278 1 13.526572616369368 17.248169464908848 11.136760232043743 0 0 0
2600 1 12.92157073304476 15.582365362626556 9.519390175682709 1 2 2
2698 1 14.891389441664142 15.77647916043156 7.624406882857865 -1 0 2
112 1 14.997701935109916 14.136987316544174 9.300561604114552 0 -1 0
1647 1 15.217680516383675 15.891785178957083 10.85023685409704 1 1 1
105 1 16.977797708885547 11.877133077175914 11.630096613228563 0 0 0
818 1 18.902386915046442 13.35440457811971 11.062055087375402 -1 1 0
819 1 17.168239882292173 14.396396254340363 9.89625441115319 0 -1 0
203 1 19.54988868163182 15.3722352473342 11.529110897311217 0 0 0
2073 1 17.299640009108316 14.141798098838303 12.931244341259829 -1 -1 0
24 1 21.895785911904767 13.217172650024896 10.984254660257063 0 0 0
614 1 20.43618374213128 14.806009785589065 9.525303491803873 0 0 0
1250 1 21.775150603497355 15.783166174904881 12.084955955304526 -1 1 0
2662 1 23.110454190176814 14.05928283626694 12.69946553919796 0 -2 1
746 1 22.621693978291063 15.245889992166637 9.858304474151108 0 0 0
343 1 0.6248873321004085 18.950482650082062 8.567370517998707 1 0 0
1682 1 0.6259202278429492 16.405702484231174 9.778314038823888 2 -2 0
1234 1 2.2331074251143104 17.155057308494854 8.370929627306031 0 0 0
2652 1 2.798714855713306 19.363522214415145 12.316047049913783 1 0 0
2196 1 3.632970921412796 17.892632946535915 10.651992478854227 -1 -1 -1
752 1 1.4045447311020078 18.0524191433097 11.15911607563493 1 1 0
1374 1 6.3427415284026365 17.67086928396123 10.460714149965952 -2 1 1
963 1 4.716518898904753 19.748040235278236 10.722409820218864 0 0 0
878 1 5.08900660150251 18.555631264852508 12.550707871018462 1 1 0
698 1 8.023647620459311 19.389659139260225 10.377229051513238 0 0 0
1212 1 8.86699577265685 21.517251582485006 9.989740136738703 0 1 0
2318 1 6.566638497449625 20.31700053457015 11.45423689209495 1 -2 0
557 1 7.715748854447532 18.099884822515023 12.254165035415685 0 -1 0
1704 1 9.384285156917665 20.537242347292967 14.542575926241048 0 1 1
158 1 9.743415840219011 19.089339378684212 12.899262572527531 0 0 0
606 1 11.83275084878452 18.65891597359873 12.0351529589362 0 0 0
1406 1 11.42309569468485 17.012276016537147 10.202413634412846 -1 -1 0
139 1 12.626770104056563 18.92435875868848 9.710838495160207 0 0 0
458 1 14.849054041443717 17.53380195599006 9.446609421699451 0 0 0
191 1 15.817400956917876 18.16211780860625 7.321661597312698 -1 1 0
96 1 15.88321529169117 20.01813834061145 12.808634762703102 0 0 0
1997 1 16.420036987583636 18.045957532217262 11.216518178553105 -1 -1 1
1270 1 14.241129396577378 18.523584770358376 13.106693728834689 0 0 0
1746 1 16.20937206125739 18.113774316185474 14.372770671467933 -2 -2 0
789 1 16.765606110376496 15.951453286198834 8.518796453990355 0 0 0
831 1 17.553392807026157 16.274993847049274 10.794283639657788 -1 0 0
2109 1 17.350330945173674 18.47020637040507 9.076496733016155 -1 2 1
2103 1 18.779298137861606 17.08491752894249 8.88949260334589 1 -1 1
166 1 19.056376619746995 18.249930938796233 11.096747870789066 0 0 0
1097 1 20.478894547659227 19.76620199105792 10.654237346184862 -1 0 0
887 1 18.037732860926987 17.263507959281572 12.78259725432863 0 0 0
258 1 24.364309163511397 16.04718848781583 12.093574684084505 -1 -1 0
1116 1 20.950913978351615 17.123536591547268 10.145639040147108 0 1 0
2074 1 22.476219045132744 20.31801053582088 12.138221056964433 -1 0 2
1310 1 0.49772462572166226 20.018867797174533 12.075204584780572 1 0 0
1900 1 23.33070489436414 18.02220245547579 10.555752602545326 -2 -1 2
1068 1 21.60760644209456 18.25754859871437 12.03743353606454 -1 0 0
1588 1 2.9567592588399525 21.75724533133959 7.764942543974691 -2 1 1
1455 1 2.8042622482400295 23.85528701929301 8.898305188489246 3 1 0
311 1 1.8382748293942275 19.98577640781087 9.934280340463367 1 0 0
1872 1 3.334430887864405 21.584680952026908 10.105139891252676 0 -1 -1
2152 1 2.384764686553679 21.728963633997985 12.107763510578327 -1 0 0
2193 1 0.7831928818505471 23.599966151094584 12.616797945017236 0 1 0
1918 1 0.45555057600565607 24.20560572033727 10.073186294343806 1 -1 0
2562 1 24.299788461695357 22.176077668943382 11.024021571856927 1 -1 0
169 1 5.002223764318408 23.475475583262728 9.928215483699107 0 -1 0
1414 1 8.860699497601145 24.001230009053376 9.410003660019896 -1 -2 1
224 1 5.675287541703811 21.31599105388694 9.655553819397548 1 0 0
635 1 5.704484547119092 24.08567417075334 12.357775026621368 0 -1 0
50 1 7.8976690555960305 23.622391689100088 13.057199920522287 0 -1 -1
2173 1 4.674595331490574 21.998640107389008 11.82469374393463 -2 0 -1
151 1 7.144122220937544 22.73970641491581 11.101091204829565 1 -1 0
1284 1 10.984185584238922 22.481137094525824 9.114140499710045 1 0 0
323 1 12.291082120764857 22.74412854381471 11.02455741116886 1 0 0
184 1 9.89832227021085 23.035592043643433 11.474620708471729 0 0 0
2580 1 10.998044016449057 20.90312905504784 12.135539168595349 1 1 0
282 1 8.562198491699373 21.01142664052711 12.361368756038958 0 -1 0
174 1 11.446002796246411 20.596529625559164 10.047112672638523 0 -1 0
5 1 13.429521239331315 21.359154276875692 9.509149511708799 0 -1 0
936 1 13.365743086820991 20.59677064264337 12.356677795197323 1 0 0
1632 1 15.916091498944958 20.3958680653978 9.274961253569574 1 1 0
705 1 14.5208496406903 23.32454867657142 10.450859499624528 -1 0 0
121 1 16.156023314955824 24.34601123721367 11.476634239784747 0 0 0
804 1 16.016020564167924 21.562828371649093 11.072694774461208 0 0 0