LAMMPS data file via write_data, version 29 Oct 2020, timestep = 300000

2048 atoms
1 atom types

0.3658463253763635 27.986153674628962 xlo xhi
0.3658463253763635 27.986153674628962 ylo yhi
0.3658463253763635 27.986153674628962 zlo zhi

Masses

1 58.933

Atoms # atomic

153 1 3.0871953991708585 2.9673139257483165 3.4050962166533374 0 2 -4
203 1 3.0271625073225468 2.571568194984763 1.0551822853700177 -1 2 0
919 1 2.8098164362485747 0.7111451295811778 4.205424735965829 2 0 0
768 1 3.1190793373708687 27.9780911984747 1.7435057071859494 -1 0 1
1154 1 1.2546420883674672 1.9010188536971144 2.4586417577958892 0 4 0
382 1 1.0383969264089616 4.184340394477655 1.7150121691737905 1 1 0
816 1 4.880599194112074 1.5718950817398754 2.4575463344637374 0 -1 -1
1790 1 5.155083624269447 3.704646265683723 1.8083706273631621 1 1 -2
1617 1 5.196114911889965 3.9466294420292067 4.221279738342446 -1 -2 1
374 1 1.2901486185239706 4.2745322487196775 4.032306347792584 -3 2 1
1927 1 9.66954385340917 16.807266342893616 0.9609478787152096 -1 -3 2
472 1 4.938904044284987 1.5901586759812472 4.714856147869295 1 -2 0
1092 1 6.959355533334199 2.5664531900179033 3.008760376620932 4 1 -1
542 1 9.078533997642396 1.3900789840055436 2.3451387544096107 -1 1 0
1047 1 9.056263135659096 3.584203065657052 3.8221634953147237 -1 0 1
288 1 8.79273892554785 3.401676900359403 1.4156527994184538 1 1 1
483 1 8.953722360783463 1.1860687417179054 4.564141778712004 2 -2 -1
2043 1 6.86498859530963 0.3666768243351136 3.9521683848160083 1 1 0
504 1 6.697694821203519 2.461972086769025 0.6879017033694421 3 1 4
204 1 6.784906283424753 0.4352982392418263 1.6887408985643775 1 -1 0
521 1 11.24130341285269 2.6097643398127497 3.167311330784174 -4 0 2
304 1 12.79886293494438 1.0970683539860175 1.7379999726445952 3 1 1
2025 1 12.771187542839707 3.4063943604987936 1.1701167048518963 -1 1 -1
44 1 12.930502559288355 1.4229840900154882 4.2526033121463 1 1 -2
470 1 13.344810642190415 3.6149092041750976 3.439212220817683 1 2 0
1069 1 3.1487087491134798 4.974202520479403 2.3840993936933255 -1 0 2
1945 1 3.489451615817915 7.245046710191548 1.6575700551359986 2 2 1
772 1 1.3083001716090932 6.526665481889746 3.371483009208155 2 -2 -1
999 1 3.3424361915098744 7.478601166251525 3.979289205450614 0 3 1
260 1 1.1945311411838226 6.347901260483883 1.0399493122518617 -1 0 -1
174 1 5.091776945620831 6.062791185658512 3.2176892440883087 3 2 3
947 1 13.258569125348671 14.50355542407318 3.734323363962236 -2 -1 1
1895 1 5.302164750087112 5.836660326963599 1.0510507484198865 2 -1 2
210 1 7.312886614354443 4.882230823533779 2.5143097159158536 -2 -2 0
1489 1 7.140996000155406 7.141631841962615 1.5933222546487829 -1 -1 -1
856 1 7.359823155970512 6.839209831264941 3.8611552265576425 4 -1 3
618 1 9.292425185079958 5.742663216995725 2.890805634333386 0 1 2
1058 1 7.4144794910959515 4.846086462064059 4.722349208875908 -1 3 -2
779 1 9.25272924921509 7.903358940193086 2.2149181956982105 0 -1 2
1916 1 9.489627671491368 7.582266125201975 4.608702900278099 -2 2 3
1152 1 14.009461492876703 16.48316554984098 5.09061998433058 -1 3 0
1432 1 10.877908090268273 4.476804502652344 1.9040546949844765 0 2 2
1258 1 11.017561254106369 4.743612041203237 4.240103863891047 0 -1 1
1630 1 11.25839431715148 6.655309770578101 3.397596574334822 1 1 -1
361 1 11.145961347849173 6.980394366440031 1.1543933529263783 0 0 0
78 1 13.077805285526036 5.676316225677182 2.5489927953455456 2 2 -1
554 1 13.187393556663041 7.903956608180551 1.7185648276851218 0 -1 1
24 1 13.439465948845285 7.869840126392351 4.074356131132647 -1 3 0
546 1 1.507438990916593 8.49673708815684 2.313941558478545 1 2 0
622 1 3.5383973517613327 9.591119688437026 3.0393556318346224 -1 0 -1
1059 1 1.6696047336665671 10.706098503607208 3.96658096146651 0 1 1
263 1 3.7043454499265986 11.80814240955938 2.6363131199469745 3 0 1
676 1 1.7748532675604252 10.786135668529239 1.6627954196731063 0 -2 1
1659 1 3.2294514164531085 9.355752578900857 0.5623188106172321 1 1 2
1692 1 3.6830446254840767 11.826656722191757 4.839467953290072 0 0 0
1755 1 5.201481495396344 8.12898824356232 2.4961283871693376 3 1 3
1336 1 5.457783449586454 8.05265078948771 4.746407108078649 -3 0 1
184 1 5.404589247136607 10.155204504238263 1.5557711991054166 1 1 0
1766 1 5.483382873490497 10.49353405244088 3.9507644434778504 -1 1 2
565 1 7.5163167849854355 11.201455367401785 2.2315553452020334 1 1 1
328 1 7.621977822616233 11.205034811945627 4.3589414744965485 2 -2 1
172 1 7.356190327773708 9.069891397037493 2.9506294060571987 -1 0 -1
598 1 9.525408212052914 10.33372755523602 1.2740049226313734 2 2 0
182 1 7.204384999757196 9.18604355822197 0.5596361215331126 1 1 1
499 1 9.469248465177692 9.801517854152037 3.623983638811931 1 -1 0
1012 1 13.300157975910581 10.056710392461769 1.0375513219079906 1 1 1
619 1 11.332898253247278 9.012742150990684 2.4263125121626192 -2 -1 1
1086 1 11.113321284349503 11.107381585419084 4.251934879195346 3 1 -2
1591 1 11.547809879751158 11.230414323097568 1.5135885415489596 0 1 1
437 1 13.082493202988411 10.063695774755944 3.464333937321593 0 1 0
1965 1 13.489940063375899 12.148690445676388 2.3834834848908004 -1 2 1
1000 1 11.284013371861796 8.75238583760194 4.96447208558921 -2 1 1
588 1 1.6326271415120375 13.121951150205026 0.9916895619885737 0 -2 3
629 1 3.9627111821929573 13.885583334401366 1.4117556552604646 -1 0 1
1714 1 4.057070778554898 13.836376884455616 3.8216618034350995 -1 -1 2
2011 1 1.9532712500098472 12.984238940812968 3.3968831807029076 3 0 -1
832 1 2.0824229075350535 14.935486761766017 2.3117920807658905 0 0 0
364 1 2.3460852384287745 15.048795983912152 4.791294625783148 -1 1 2
1277 1 4.085833192988765 15.788084359900768 0.38040133728559156 1 0 1
1915 1 10.279186781649155 23.281623627044993 0.9944012801592272 2 0 0
1526 1 5.696395484288373 12.632092448433784 3.065535460325458 1 3 1
1777 1 5.809008221587335 14.999473911191963 4.229586636799542 2 0 2
1984 1 7.536955338547548 13.512544012913647 3.580229377823813 0 2 1
160 1 5.956280957286462 14.717722227826831 2.042426711461492 2 2 -1
84 1 7.762238318737866 13.419724459328059 1.1483739538152566 0 -2 0
873 1 7.668347120614238 15.640257704210683 2.9281402404164782 -2 0 0
1046 1 13.549014696925148 12.200883230074774 4.658683828134298 -1 0 1
640 1 9.564618499607889 12.082736980082071 2.8625987786270444 0 0 -1
1285 1 9.312305178876738 14.578775059633287 1.8955155023275583 0 -1 2
507 1 0.41656398106124826 25.301726623978144 1.7990797642265364 -2 -3 0
1445 1 9.48620987597403 14.330591471345832 4.028165408540691 2 1 -3
1171 1 11.546068199771087 13.004502348523724 3.1653210928292315 1 0 -1
1063 1 11.658241226296811 15.458957683690619 2.4096419940237146 1 -1 -2
425 1 13.759412475588721 14.407713965057011 1.4779027620112994 -2 1 -1
937 1 11.63248776758509 13.557306965557778 0.9783418455145929 -2 0 1
244 1 11.271287588143037 15.486943756149278 4.807569940368738 -3 2 1
810 1 4.157689075932587 15.984219598680115 2.8529127602487256 0 -3 2
56 1 2.336245788722384 17.347328181211715 1.6556382276599477 -3 -3 -3
1205 1 2.28130008832184 19.697264170993673 3.0588308315234976 -1 -1 0
660 1 4.0444703273895755 18.309145211950703 2.2344587429384912 2 1 1
1498 1 2.3862664248709233 17.290548747342818 3.9840934107217123 2 0 1
449 1 4.222369563008547 18.64725062052123 4.580752229066155 -1 -3 1
1814 1 13.237344347494481 26.728298995783774 12.147431020831622 -2 -1 1
785 1 5.723528456730639 16.80107576563808 1.4146434337724128 -2 -1 0
176 1 5.900192576425416 17.29515808865456 3.609744931832738 -1 -1 1
923 1 7.954332045992954 18.076187263753457 4.12231463635684 -2 -2 1
1318 1 7.953327569622182 18.059333198818493 2.0510662920510034 1 -1 2
762 1 6.193443279978239 19.597756074842287 2.885287806677334 3 2 2
212 1 6.254193334664202 19.458038212401014 5.23548774876689 1 -2 -1
1870 1 8.070317618064642 20.08393208842734 0.6195698923365602 3 -2 0
1382 1 13.889819928879453 12.39147346120934 11.71441747888711 0 0 -1
1366 1 9.639526274447219 16.521636060285267 3.213931213727024 1 2 2
1107 1 10.22791438398278 18.68802318275846 2.30668763452434 -1 2 3
2024 1 11.785611059805229 17.416459974031824 1.314340532666909 1 2 2
669 1 11.856713732206703 17.45168528360512 3.5056258059338896 -1 -1 2
806 1 9.969076635032692 19.24477278384443 4.533966486439368 1 3 2
1104 1 13.912426687974099 20.95590417026966 1.375137976745264 0 1 0
1192 1 13.78204686657229 18.503708768472396 2.10079134737832 -2 1 2
591 1 12.40174193686136 20.186372208571647 5.626658237863199 0 0 1
1768 1 4.253361251532922 20.7025854643798 3.5418960338744103 -1 -2 1
1563 1 4.062464846132659 20.50752124639047 1.193577187473101 -1 3 0
1100 1 2.6096929928434216 21.863973496592653 2.328271200504094 0 2 -1
586 1 4.565493802456603 22.770774747588252 2.952419015949802 -3 0 0
628 1 2.2090789840036855 21.928463845337568 4.585985427449273 3 1 2
1929 1 2.4740518439651344 23.92498336661641 3.740134541676014 0 0 0
718 1 2.415145376905773 24.020129543306464 1.2376055409042186 2 0 0
562 1 0.5756876424904185 18.514381642834984 9.236317200193467 -2 -1 3
1386 1 1.2664735720999025 25.622834531598986 13.716883090387608 0 0 4
715 1 13.036645807734864 26.468013179803506 9.71015992954192 0 -1 -1
1543 1 8.259650775832672 20.233238422834575 3.3481089064674188 1 1 -1
1796 1 6.35084941285177 21.59089045724005 4.107301324378498 0 -2 1
1008 1 6.419146487587517 21.43108470502341 1.7446325773208942 -1 -4 1
1634 1 8.326297699133129 22.531211819866797 2.341634357115516 1 3 -1
1126 1 6.316876615507268 23.695392812921593 0.9794540621191421 1 -2 -3
1164 1 6.591445673599417 23.740909252616138 3.5241358266168517 1 1 2
668 1 8.54953244388124 22.575375991108224 4.711103608941642 -1 0 2
560 1 7.6058071476187825 15.701760045824479 0.5158830441035457 0 0 0
28 1 12.075105009502764 19.89332767459258 2.9999518512023817 4 1 -2
197 1 10.221683897497396 20.99275623013699 1.4749408823569028 -1 -2 -2
168 1 12.163183323870413 22.103685502276925 2.424397639031574 -1 -3 2
1902 1 10.250282384584674 21.578458733675824 3.7403956331001944 0 -2 0
302 1 10.354189187280367 23.83267775501807 3.186848843224438 2 -1 -1
473 1 12.302875325897238 22.10412027334243 4.672025804949374 1 -2 1
1169 1 12.616454967708941 24.704145060403402 13.041929657169522 -1 -2 -2
61 1 2.2338288437942495 19.430651759429495 0.6962418907736189 1 -1 0
325 1 2.4980061391726722 26.04876959886788 2.7752311515012216 2 0 -3
1709 1 4.556954751019307 24.86813011856492 1.9450124370421065 1 -3 1
1943 1 0.6428063821843207 27.782259514192965 3.6066702182697923 4 -2 2
1011 1 4.887112619091206 27.005838591764583 0.9690572797022873 2 2 3
440 1 4.7623916858504 26.870796930975047 3.291591704726459 -1 -4 -1
30 1 4.687200349558514 24.857900101673938 4.151872983385585 1 1 2
1707 1 0.955829641566316 27.433313901955174 1.2966973337454921 -1 -2 -1
480 1 3.04776030645915 26.252552143305024 4.8968832586250395 3 0 -1
2012 1 0.516743139974035 21.37963765176446 1.3469290188729395 2 0 0
478 1 0.749380655906879 25.548505565127158 4.19132493039731 1 -3 1
1995 1 14.025385772566112 16.521745449382042 0.7478957109700932 -1 1 3
1223 1 8.70644626220559 26.886516151572017 0.7862922536653254 1 -3 3
1016 1 8.559768777904448 24.778814222141875 1.6059548387262932 0 -2 1
1779 1 8.41684999418386 24.785366845120148 4.028843573437651 -1 0 -1
453 1 8.850839288390908 26.797673854479736 3.241042901685325 0 -4 -3
1443 1 6.723052048255856 25.703460793917216 2.652887893443005 0 1 0
1102 1 6.7451342739241 25.806284283334097 5.1334375256451175 1 0 -1
150 1 10.771988365699997 27.726122686601197 1.3670003719689017 2 0 0
616 1 11.208332754118167 27.813614312831923 3.763909392704154 -1 0 1
1084 1 12.433624545942054 24.176762214936343 3.8280813232536204 -1 -1 -1
178 1 12.600969145765287 24.300611411320094 1.277967976201062 0 -2 0
337 1 12.919721561014912 26.427196753506255 2.580064647331038 1 -1 3
787 1 10.687472489362243 25.748273046547922 2.117478656847055 0 -1 1
227 1 10.666071060473548 25.811382258614564 4.493096375447624 -2 1 0
1519 1 1.3255129342859566 2.172029908024215 4.890633314518206 1 0 -1
926 1 1.7275227316178803 1.821673604417573 7.3032456223399675 5 0 -2
1845 1 3.673019458218936 3.142734069077018 7.987166018883694 -1 2 3
1744 1 3.578756288432331 3.1564546466264924 5.650318837569149 1 -1 0
1585 1 3.33587232293017 1.0080963885423246 9.177917555128742 4 -2 4
831 1 3.2827712556169453 0.5266785750676298 6.667337960876791 0 1 1
2 1 1.7500656133519046 4.3068888610893215 8.751336624878117 3 0 0
680 1 5.25294813737511 1.5472961908127016 7.16371811613912 1 -2 -2
917 1 7.055489697115469 2.642341941346029 7.99650205784411 -1 2 -1
1114 1 7.194807603840384 2.473558633008885 5.3763276537986995 -2 2 -1
1083 1 9.260617562827099 1.3213968390574722 6.979897408824526 1 0 -1
792 1 9.21167462709561 3.4548571775931713 6.143706367895016 2 0 1
270 1 5.442560289442797 4.179834905267204 8.872148642252982 0 0 3
1499 1 9.311166249871288 3.670148099539504 8.575712498757541 3 -1 0
942 1 5.644552972345255 3.870722928434562 6.505065823620916 2 -1 3
1846 1 7.205541251764243 0.44687962056082803 8.86133488976854 1 3 -1
1685 1 9.372577780355954 1.6242945671306608 9.432634917655056 1 -1 5
1577 1 7.003865035708441 0.4610081381760009 6.4170128481561175 -1 0 1
1041 1 10.969165610146542 2.296251635198928 5.241583792095672 -1 -1 1
469 1 11.155593622503742 2.591982533137748 7.548786044820066 2 1 3
1892 1 13.37763917904407 3.214442971273656 7.97792210893655 -1 -1 -3
2034 1 12.836488167514311 1.175131882722678 6.902647406781119 0 0 1
8 1 13.11398680918598 1.1076130743882815 9.148947005752381 0 0 -1
1389 1 13.189707495881487 3.364831123701143 5.806293057584298 2 2 1
1923 1 3.0396144209515534 5.337123078968647 4.724834859136016 0 -1 0
667 1 1.5235862548962784 4.163891218121829 6.378664141140755 2 -2 1
632 1 1.5333764749240735 6.515625161982297 5.943772516088549 1 2 0
165 1 3.867082192211306 7.534248465340176 6.2942512325329165 3 -2 0
1529 1 3.474593844113112 5.354084653698529 7.250180844473594 -1 0 1
1599 1 1.4230602086686432 6.560575904178598 8.250277865778122 2 0 -1
620 1 3.707659335114999 7.315669704482635 8.599875580314738 -1 0 -2
477 1 5.32698783474132 5.85714841064727 5.492632443112158 0 -4 -2
1326 1 5.6141978709271125 6.068076310752748 7.918254446771658 0 -2 -2
800 1 7.609611324987728 4.780883393303828 7.256552791650118 -3 -1 -1
1068 1 7.245492485040794 6.888736105731946 6.407976974744554 -1 3 -1
1932 1 7.735599621009373 7.1315259928912385 8.514656443004235 0 2 -3
653 1 7.468538396669965 5.008133214299009 9.652769415242414 1 -1 -1
134 1 9.544819962747876 5.7760123298622705 7.614275551004615 0 -1 -1
1437 1 9.383798347835665 5.728039875133689 5.57226665921344 1 1 -2
1289 1 13.204325103355508 5.517929159398835 4.875681844125946 0 1 2
595 1 11.322550640287735 4.553842035643318 6.596035950016506 0 0 0
1586 1 11.395100630496662 4.602196857142047 9.052652368245056 1 1 0
1033 1 11.690071826377306 6.547632037539276 5.89422473732262 0 2 -1
1010 1 13.394545000005735 5.566765553970385 7.3510638003808895 -1 -2 0
2047 1 11.47802734513441 6.611181475544686 8.201776947598088 2 1 0
1094 1 13.77137061297892 7.515379034599509 6.376387698869433 0 2 -1
688 1 13.760040566041928 7.72664936086303 8.722318304845565 -1 0 1
1056 1 9.768787498017078 7.989059294643874 9.334666729448339 -1 1 -2
1339 1 1.4654924901050455 8.389201353418521 4.756149162133896 2 1 0
1663 1 2.055805075216226 8.661243745085244 7.065739044627245 2 0 3
579 1 3.6530364279310654 9.494909876773512 5.35839386220921 3 -2 1
1743 1 3.9201075797645526 9.819766124135011 7.946143838090458 2 0 2
144 1 2.1992682988373553 11.178388168010244 9.116993464558416 2 0 -2
124 1 1.734730170612679 10.73335350635398 6.591096651783221 1 1 3
1023 1 3.697048962514437 11.988632400062682 7.064219380600336 2 1 4
112 1 4.036348054343854 12.271219515079354 9.44123647712487 3 1 3
738 1 5.65892639162698 8.43695819903229 7.374775339060228 1 -1 0
192 1 5.920000716385963 8.15960430379824 9.537539606980435 -1 -2 1
726 1 7.444250333807406 9.15738339131129 5.436872915140079 -1 0 -3
314 1 7.565457533092308 9.41454107703813 7.954402813043663 0 -1 -2
303 1 5.375434323238801 10.513235642014532 6.226382462863325 1 -1 3
1672 1 5.874249187888912 10.592923597471453 8.765847992826824 -3 0 0
71 1 8.24551651537967 11.415038416309363 8.998369711168683 0 1 1
682 1 7.6552445466916845 11.58013589458622 6.658664620428305 -1 0 1
1771 1 9.405687976358433 10.103648995446168 5.883614575346856 0 1 2
1197 1 9.2740175729757 8.011467783826426 6.898151479460649 -1 1 0
92 1 9.894073836353819 9.878491091705703 8.147141410900252 0 -1 0
534 1 13.44476639479143 9.807294809740004 7.992414932246258 -2 -2 3
1341 1 13.4266689862356 9.80840365780114 5.796463742517064 4 0 -3
1533 1 11.649301919915166 8.554778333658971 7.081494041232104 0 1 -1
1225 1 11.793318103783664 11.270110164411 8.975047503735885 1 2 -2
1838 1 11.678070129972447 10.915476606965457 6.718522608112234 -2 -1 1
1909 1 13.629476956156267 12.177180673470202 7.179144864345771 2 -2 1
1467 1 11.730817278635262 8.98229023394508 9.72231209231823 2 -3 -2
246 1 1.8429334002771316 13.172308656520325 5.852169952286378 0 -2 1
485 1 1.8095789645313967 12.965016716393086 8.164826818700261 2 4 -1
935 1 4.014557104171825 13.990725275987025 6.062736595834511 -1 1 0
7 1 4.29495989454712 14.210245562060159 8.335772638628628 1 3 -1
1866 1 2.1589880313115595 15.356919638056837 7.150015011801707 0 1 1
1772 1 4.345026108743991 16.144119342993488 5.018460105573739 -2 -3 -1
438 1 2.490330476939905 15.20767045444152 9.611449182741062 1 2 -2
41 1 8.012100593060248 15.773038156925237 5.253867189517411 -1 0 1
1721 1 5.928293998419935 12.585388345138423 5.339235565117869 0 1 0
484 1 5.908377978137866 12.669172102144483 7.676415071815098 3 -1 0
847 1 8.006648770403041 13.659626881798436 6.054970263556631 -1 1 0
600 1 8.156616463313332 13.754056551206757 8.692628174916987 -2 0 1
677 1 6.127850766157622 14.829002531919082 6.3248785366566125 0 2 -2
1244 1 6.380406524019746 14.928048135559097 9.068206294044558 0 -1 2
1826 1 8.26592650554253 15.709500941922178 7.432718527698118 0 0 1
929 1 9.39452886497391 12.355384767813105 5.0052736093394445 0 2 -1
240 1 13.813362483898514 14.22050364041805 6.0518596137339715 -3 0 -1
612 1 9.642072959513007 12.347045583073156 7.273358577306509 -1 -4 1
21 1 9.968950993848846 14.479196939672763 6.6437912372737955 2 1 -2
1217 1 11.577536311726579 13.112751218049953 5.53643606973177 0 3 1
1029 1 10.188625498211067 14.902269393301495 8.971510568667114 -1 -3 1
298 1 11.881132594358164 13.35181526058422 8.105379910549038 -2 0 -1
51 1 12.028951148340447 15.38791143137129 7.08670098074643 0 1 0
1856 1 9.489561187143247 1.6222249582235158 14.033814234078434 1 2 0
1230 1 9.128271643409219 6.052135632857062 0.6275796148802966 1 4 -2
81 1 12.209980443677459 15.63075989267373 9.283075556198037 4 0 -2
1221 1 10.091935930927706 12.564439587283474 9.538532998351767 -1 0 2
310 1 13.890519072396069 12.589114378763343 9.508304147813009 2 1 -2
2040 1 13.009414442562553 24.37278304379515 10.683815775363023 -1 1 1
1801 1 4.267415662844295 16.273164418662635 7.366043640638629 -1 1 -1
1001 1 2.2316121165736726 19.551830139106723 5.644224692533717 -1 1 -1
1450 1 2.3413931114175153 17.36609421752756 6.290226576858688 3 1 2
739 1 4.199368052553153 18.45905771223423 6.692624872649667 0 -2 -2
389 1 2.311759898005185 17.39574568044958 8.768199584822792 -2 0 2
1194 1 4.4645133138397295 18.414701290164373 9.00576041729682 1 1 0
1303 1 2.2994324123042 19.397558187188558 7.875149544059061 2 0 3
65 1 6.141140013602143 17.20062487862735 5.9292839637073635 -3 -1 2
62 1 6.234923295169828 16.888916872212086 8.160667281686171 0 -4 -1
988 1 8.29912528853611 17.93893120350416 6.4484306007995045 -1 -3 0
1476 1 8.306226807679147 18.08061330556462 8.767944990702595 -1 1 2
1565 1 6.256868559530899 19.037838933229395 7.680218405301956 0 0 3
66 1 6.627321771962998 19.52524081397182 9.647574345385522 0 1 -1
233 1 9.915428948036194 16.860373822412406 5.454580796921456 -1 1 -1
35 1 10.571326058379519 19.044446503008533 6.868155859997516 0 -3 0
1293 1 10.202785623437551 16.925043633427602 7.796973218968352 1 1 2
836 1 12.151466684401141 17.638223515633054 5.851507016070813 -4 0 4
370 1 12.374178061285933 17.598248028158658 8.104711048446903 1 1 0
1501 1 10.352841031013623 18.913822891586534 9.217494121476674 -1 0 -1
1359 1 12.625742119537044 19.74314265262524 7.795587533286369 0 -1 1
1720 1 11.483444799877876 27.82248648203334 12.944927243276114 -2 -2 0
249 1 0.5038093066740867 23.349103663310785 5.124909944666373 1 1 0
711 1 4.333617187854474 22.76126861223182 5.160331536441152 1 1 1
154 1 0.5936290894771702 23.16484810060406 7.532879453887111 2 0 1
1656 1 4.374558405522458 20.68930881172921 5.866415703432115 2 2 1
1579 1 2.726539006774142 22.01664912739641 7.1098631246021915 -1 -4 2
1598 1 2.7648871512009148 21.689847209992205 9.19417979076817 2 -1 0
409 1 4.677641189593081 23.028048010684103 7.63619430064715 0 -1 1
756 1 4.5895045451076175 20.635809581140432 8.361888623276926 1 -2 0
774 1 5.097282058739246 25.108040054826105 11.111354066735114 -2 -2 -1
1176 1 2.595641935687678 24.087008015308225 6.0064090794228475 2 -1 -3
1372 1 2.545217874411443 23.993146219829644 8.526503731730127 2 -2 0
467 1 8.252444182297221 20.408996825037097 5.646417669515926 1 -1 0
407 1 8.59982385381569 20.390154051610995 7.810250920993882 -1 -1 2
1985 1 6.367476387941484 21.368061129289977 6.651748754403421 1 0 1
1971 1 6.887297003480385 21.646322251528822 8.791403578119672 0 -1 2
53 1 8.45241048874006 22.424227776218565 7.120214413623793 0 0 0
230 1 6.629724759372376 23.469460726007167 5.943290016309411 2 -3 1
793 1 6.863200199869248 23.75594382140844 8.278617056382835 1 -1 2
1928 1 8.901241416463384 22.333245693267877 9.3268781359581 -2 0 0
505 1 10.421206519121885 23.645335873915172 5.4141430976859475 -2 0 -2
1479 1 12.45215971427958 22.121065852543246 7.051625535177764 -1 -1 1
695 1 10.29222441862484 21.39937965974531 6.192067707205896 -2 -2 -2
148 1 10.886458792290869 20.95722943277154 8.469637416734054 1 -1 -1
1574 1 10.550518050760276 23.36973891771347 7.602211215276951 -3 2 4
1070 1 12.76685298784634 22.5358043936051 9.391637241975102 0 2 0
1397 1 0.7666402450630178 25.153673986553006 6.471045776173262 4 1 0
1589 1 0.7148838753180866 24.922696544954206 8.977585960966845 -1 -1 1
353 1 2.8490210515671897 26.1057771444061 7.539649152334644 -1 1 1
332 1 1.1997438498475892 27.343234386187564 8.495990210638572 2 2 1
1190 1 1.3001289275535388 27.260072317013936 5.926012606067164 -2 1 -3
687 1 4.962389411031292 27.18172065798383 5.687727359666507 -2 0 1
1155 1 4.836498420640223 24.838673913241966 6.411352239348579 0 2 1
1657 1 5.208119068369973 27.09064774471171 8.142545206900422 2 3 0
633 1 3.0026171267523543 26.306606262334963 9.921827770186312 0 0 3
1608 1 4.942510859854689 24.968334084060547 8.904098986345048 -3 1 0
1403 1 8.725153018636153 26.659387167112257 5.6510690489221895 1 1 2
218 1 6.868559077713186 25.94510789810782 7.3691304680615675 0 1 -1
1393 1 8.529374067053203 24.599856413937722 6.597384764881385 2 2 4
1317 1 8.715129541237062 24.663658729663098 9.014424529270494 4 -1 -1
177 1 9.021007841016273 26.688655298632494 8.018159313569939 1 -2 -3
1302 1 6.95275353148149 26.074273799401507 9.666021465896641 0 0 -2
1448 1 11.039359806691186 27.815129627446574 8.33881525928792 -1 -2 1
434 1 12.733290512584608 26.546508144202896 5.192470194127123 3 0 -2
992 1 10.888177193160441 27.48833648434141 6.184222151512208 -1 -3 -1
102 1 12.575028704995358 24.218888245251513 5.866930128495263 1 -3 -1
1161 1 10.773957595802004 25.679373296582757 9.414563639271458 0 0 0
789 1 12.754834843347723 24.515942564438472 8.435117823362116 -1 1 -2
495 1 13.16669955494065 26.529310208919508 7.283645107418811 -1 4 1
1327 1 10.85656088895783 25.58353354232595 7.088676980389897 1 3 1
1654 1 1.3407989574100467 2.2223456994369224 9.602324275016988 4 1 1
1958 1 3.402502980099957 1.111013449838354 13.670661503504611 -1 1 0
1665 1 1.3526882015680406 2.2051705737883913 11.929393157414985 0 0 1
1682 1 3.1671516898094683 3.3389364279525227 12.604795021655884 3 4 -2
334 1 3.2021453200653074 3.096789902498031 10.38890464872116 -1 0 1
698 1 3.1893504524548777 0.8343538123234973 11.333966300787347 -2 2 0
14 1 5.419907223387483 2.2261896829454737 9.638503266944333 -1 -2 0
767 1 7.168663579856809 0.9273397543891099 11.087336516815242 0 0 0
780 1 4.935666785084743 2.1486979314627095 11.824991119619497 -2 1 0
2000 1 7.536408908567823 2.8750175324931417 9.985864020806524 1 0 -1
1337 1 7.469512307193093 2.7982955637748264 12.442207243101537 0 1 2
673 1 5.271161576099739 4.223757632921886 11.180609846737074 -4 -3 5
1241 1 7.240159276666287 0.8770921273896173 13.70748539828868 0 2 0
1536 1 9.509596739628885 1.259732563376455 11.663236004413076 0 0 -2
1602 1 5.571126385548893 4.311422060918304 13.309506879218192 3 2 -2
1619 1 9.475301185285678 3.7770021736548625 11.004722328307597 0 1 2
1090 1 0.5304755785326934 22.98720622395587 2.9462087624731508 -1 0 3
271 1 11.129631643105506 27.876858134471984 10.566841698948698 -2 -1 0
1817 1 9.509863414324654 3.671587404108133 13.440220884978835 -2 3 2
316 1 11.42258907710667 2.666347289863865 10.022472138429348 3 -1 -2
1974 1 13.477911106069678 3.261309903766698 10.294511076730101 0 0 1
1935 1 11.523365871079417 2.5674961816836968 12.49210475301812 3 0 0
1852 1 13.233559049721261 1.3045325239810643 11.3788877095513 1 1 -1
1877 1 13.577428289161315 3.4820673303261183 12.476045047585123 2 -1 2
574 1 13.432118998841933 1.4968907642275286 13.69244140602103 -1 0 -2
557 1 3.6114344386444164 5.29925076132392 9.75924562784828 2 0 3
783 1 1.4496450950636537 4.410782485322641 11.028790225818115 0 0 0
194 1 1.590009356902615 4.670864678631868 13.539744075787358 -1 0 0
1520 1 3.2175725111793585 5.660457008704909 11.99718532506706 0 1 2
1523 1 1.4289200146046874 6.728408049789298 12.924543718651947 0 2 -2
1406 1 1.6703551245147812 6.589674747980205 10.542747340794111 2 1 -2
1438 1 3.711069348221872 7.697202710871552 11.095154031908402 -2 0 -2
1509 1 3.62401392127951 7.541537135136671 13.513797401400758 -1 2 1
2036 1 14.137990461189172 20.60605097986623 3.604477749412754 0 2 3
1325 1 5.669645428173263 6.319347290075735 10.413930285066739 -1 -3 -3
1270 1 5.522026373583641 6.434271661468812 12.670035345969309 0 -1 -1
1517 1 7.570324060802017 7.3178242550235 13.388974119545887 1 5 0
1738 1 7.383772377235164 5.031136305652352 11.84203131224928 1 2 0
1750 1 7.833817918572829 7.205652588224457 10.827577452153614 -1 1 -1
918 1 9.553974611017912 5.901046729906962 9.913375492399737 -2 3 -1
1761 1 9.519097805962849 5.8770462476739 12.254680206685544 1 -1 2
265 1 0.5936353708016936 21.064684523921525 6.1823601680329014 -1 -3 -1
1628 1 13.966688163282054 8.205083960667672 11.221033695160239 -3 1 1
1472 1 11.727604901538662 4.790262974889957 13.626145930890846 0 1 0
1238 1 13.395267224047025 5.536365961245115 9.88079098509882 0 0 4
1364 1 11.446287174500752 4.735861631952833 11.541160487111567 1 2 1
1375 1 11.765516028227621 6.977495428249314 10.699291830741851 0 -2 -2
1535 1 11.413013729013416 7.236101110830527 13.053726937475822 0 1 -2
795 1 13.37047232173984 5.86462000821314 12.094132301227049 2 0 0
1415 1 9.861750343187635 8.030859053090264 11.6152738416411 0 -2 2
161 1 2.8895892306682547 15.441478985381348 13.86205058069562 -4 -1 1
422 1 11.100735792917323 25.960260503446328 11.585629585650628 -2 1 0
318 1 1.9360404184821465 8.9118948071232 9.510893900656486 2 -1 -1
1809 1 3.94301989362418 9.863858428835423 10.346579052981802 2 3 1
1163 1 2.0699229780839827 8.868670878031221 11.812251343504874 0 1 -2
1250 1 2.273214095674347 10.99872661461466 13.612349512355456 -1 1 -1
784 1 1.9456414497084749 11.242564861692795 11.277056211928452 -2 -2 -1
83 1 4.131906462010857 9.853751925757411 12.512928504833523 2 1 -3
1711 1 4.161659137919391 11.968585280766652 11.944882984328935 -1 -2 0
98 1 13.932107341803615 18.88497201148656 9.422574023162136 -2 -2 0
299 1 8.92823316359577 27.181224501244344 10.25855612039654 3 -2 -1
1357 1 8.299491103089974 11.703103538399404 13.867725721275942 1 -1 -1
1949 1 5.982045553447903 8.418283401017831 11.662953534514662 0 0 0
1232 1 7.771757948294192 9.371847362522642 10.19858751492068 0 2 -4
1054 1 6.107255951332905 10.693804366916089 11.153620056923337 6 0 -1
1857 1 8.067405803351377 9.425075066099192 12.41788139439144 1 -1 -2
207 1 6.25147562381936 10.66449695630637 13.39432677060806 1 -2 0
1573 1 8.16655754373231 11.57495086310985 11.657971961102222 0 1 0
363 1 4.960011170920047 25.307684327890005 13.8191367850285 1 0 -2
447 1 9.687423375724904 8.65425247590114 13.835376888536288 2 -1 -2
549 1 13.916738204975454 10.220327149388917 10.131996574385639 -1 -3 0
1181 1 9.949436440606112 10.242941788527233 10.536446945089414 2 0 1
1683 1 10.1278093166512 10.792073522477073 12.921042623420552 3 2 -1
433 1 11.850618884352958 11.572473874394296 11.200679411462227 0 -3 0
195 1 11.801679771310528 9.303920483650089 12.08106526770543 -2 1 1
1224 1 12.132969764828344 11.722485503385409 13.643238336362893 1 2 1
837 1 8.931048697237038 25.035862369209948 13.29549050230965 0 -1 -1
902 1 0.49623581722018395 21.14330504439243 8.369681540423272 4 -2 0
1782 1 13.856556396739123 7.932226957577255 13.49229778932221 -3 2 -1
777 1 5.515156351704717 27.363787302079114 12.951614128677807 -2 -5 0
2004 1 4.199784221145189 22.67424953656317 0.5464978359282379 1 -2 1
1560 1 1.9809250139842136 13.201433882076993 10.36133246612652 2 2 1
703 1 2.4834644310243394 13.16678302864755 12.70005814691511 0 1 2
905 1 4.547206350538443 13.990007026417617 11.059281077396957 -3 1 2
2026 1 4.473117685153855 14.12370317493962 13.192388007579845 0 1 -2
486 1 2.4127333491982883 15.061366909891738 11.65695979830897 3 -1 2
297 1 8.335773935244298 16.147879966378152 9.968765081533597 -1 -1 -2
1436 1 6.470844052837738 15.31582325602704 14.15790699680342 0 -2 -5
116 1 6.380218413356345 12.887578630311948 9.917276192507558 2 -2 1
1660 1 6.397125985464913 12.994552001551721 12.428257312882272 1 2 0
381 1 8.405240297372726 13.916879282807773 13.27377849618175 0 1 0