LAMMPS data file via write_data, version 29 Oct 2020, timestep = 300000

2048 atoms
1 atom types

0.22011685542066495 28.131883144582297 xlo xhi
0.22011685542066495 28.131883144582297 ylo yhi
0.22011685542066495 28.131883144582297 zlo zhi

Masses

1 58.933

Atoms # atomic

1872 1 4.076916924102954 1.2364876402078233 3.6056956145778516 1 2 1
1257 1 3.2472304193823422 3.3959556251754863 2.3307046023659614 0 -1 -4
411 1 4.398836463976584 3.093684900312218 4.588741502162617 2 -1 -2
510 1 1.898873595112298 2.3726914158768166 4.055131191744635 0 -1 -1
1923 1 4.182072959648751 27.253848687974333 5.32019392011857 0 -2 0
241 1 3.005619061863174 4.668122942379683 4.175830234832884 3 -1 0
1886 1 4.504294801284188 1.5632308653601925 1.4883892174692044 1 1 3
1114 1 6.48677125320747 3.080318090427568 3.4516646840807987 -2 2 -1
916 1 7.910260515894941 1.3833269971715079 3.0143964013064872 -4 4 0
623 1 6.025078940468554 0.6063188045226788 4.420719383433015 0 -1 2
187 1 8.296530283735263 0.8967873531262115 4.955457078108873 1 -1 2
1505 1 11.957309711692194 9.62604975599453 0.6724302216316327 -3 0 0
1513 1 0.7206088330015537 6.691301551913526 2.018325789781404 1 0 1
21 1 5.56234538100025 3.872774835772675 1.133142191467333 2 1 -2
768 1 13.547899188751831 8.196040988456343 10.985236729175384 -1 1 1
1843 1 9.480353170376597 2.577805777744329 3.8552864340896287 -2 1 -1
47 1 10.1957227574288 1.013303642120135 1.8021960211258876 1 0 2
1087 1 10.138354949558595 3.4218878606724528 1.6217382472960165 0 2 0
242 1 12.70939489851912 0.7347210115865919 1.8175895140929177 0 -1 -4
195 1 11.615486481155903 2.66779370574109 2.779391806412504 -2 1 1
1324 1 12.249036093373824 2.4455826765372284 0.3214478897521013 0 0 0
1160 1 0.32137539289508094 21.228507519024888 7.347972894951523 0 1 -1
957 1 12.410953082609998 2.7587432465583768 4.821678959295356 -1 -1 1
1549 1 0.387339753595508 20.793338858024434 13.666820859562755 -2 1 1
1162 1 1.235950874427619 4.562793459835921 2.6766297778986723 2 1 2
41 1 4.9797347685256454 5.251367063658397 2.713059650618095 -1 0 1
1537 1 2.857814834529197 6.804995516029444 3.427843146986437 2 0 1
1344 1 3.078103256282339 5.868153956262614 1.4463590471649768 2 1 0
489 1 0.6215211162846677 18.009978515458677 4.484250793085179 3 0 1
1543 1 7.227748193121884 5.1350580500564025 1.471610865361012 1 1 -1
144 1 5.073790232231204 6.839638889529022 4.28662962248459 2 0 -2
1448 1 8.297227942492944 4.798869238831264 3.724803655160828 -1 -1 1
106 1 7.90481531866776 8.62832136596876 3.8294265491311177 -1 -1 1
1071 1 6.759183595726384 7.1224056829781714 2.6156738427751973 0 0 -1
665 1 9.446843914425928 5.567220475853054 1.2050962009297923 5 -1 0
197 1 8.57294607597446 7.468007178246924 1.1866043027201865 -1 -1 -2
1864 1 7.606620011563817 6.630798967801618 5.043343944599307 -2 3 0
521 1 10.549615514910382 4.24951599640279 4.336331276364187 -4 0 2
1596 1 11.744924529906898 5.233707289855512 2.207513873278881 1 5 1
782 1 9.463482086685975 6.469080179607055 3.1882872582397317 2 -3 2
2034 1 12.203398314275852 7.028313739966602 4.546130539655393 0 0 1
20 1 11.470750250255684 7.644445348808975 2.424807090580192 -1 0 2
78 1 13.707336038683087 3.696711930064001 2.764238191048901 2 2 -1
1526 1 14.094672863575248 6.4086969904720865 2.6898914921768124 1 3 1
1910 1 11.763766292999629 11.90854763361609 0.2922783329018009 -1 1 1
697 1 13.75441750428422 5.247641446221677 0.6435835386458466 -2 0 2
245 1 12.835286693098205 20.680870633696628 12.607355684753568 0 -3 2
238 1 1.995213261225457 10.10912529836411 4.930514266943786 -2 2 0
34 1 4.4955040544572915 7.581426479302991 2.062778548935925 3 -3 2
1094 1 2.3504869896998266 8.450978614525013 1.8540088100214636 0 2 -1
1271 1 1.383249935325669 10.623021923051972 2.7635843319021904 -2 -3 2
1932 1 3.534219905252903 8.971245691339641 3.734388075861334 0 2 -3
584 1 0.751458260074117 11.090510057318895 0.5215770915648952 1 1 -2
929 1 2.8042636506003036 10.453326093654615 0.8224434401975425 1 2 -1
1106 1 5.258968673842682 9.684930559029965 0.6399996724823842 -2 -3 0
1595 1 4.03872804999 11.121494399179861 2.4281505974283095 0 3 -1
609 1 6.0557639965942105 8.641732737307112 4.962967295694339 1 0 1
591 1 5.742915648395864 9.509401074062955 3.056372864849142 0 0 1
980 1 9.403009563058179 11.806152003226602 1.9732528908906624 1 2 2
893 1 9.431339348211644 10.622842364327443 3.8033867896490983 3 3 0
1964 1 7.676826157799553 9.69053704491381 1.5214610467827079 2 -1 0
658 1 6.257713079571708 11.86717921326123 1.9931193452744262 1 -3 1
461 1 7.0736493171774155 10.703794728846312 4.213760580968252 -3 -1 2
1829 1 3.6188208694401673 27.68378582336252 0.5739915717328676 0 -1 4
632 1 13.391484671104314 8.812863122176772 2.9930934512135665 1 2 0
918 1 10.18862086026524 8.42821194997957 4.618389888371837 -2 3 -1
274 1 11.333465655778408 10.64785446332186 2.897639821117612 0 -2 1
308 1 9.787380173416544 9.079040092243302 2.1966500731487004 1 0 -1
12 1 13.444616810274933 10.759669577191557 1.8035454004087945 -1 2 1
1877 1 14.071377612834379 20.703122091793077 2.641724576453819 2 -2 2
955 1 12.35145572931117 9.540518139933067 4.58965898496365 1 -1 2
673 1 11.899397158448583 11.494793596307753 5.114068891391367 -4 -4 5
217 1 13.695194278372634 16.848747856462317 7.135997680027147 -1 4 2
1156 1 2.657147317621479 12.787212088100784 1.0970817340761685 0 4 0
121 1 14.058970655145 11.861187942925254 8.01359776468674 3 1 -2
18 1 1.2790401680408319 15.16100700845547 1.4349632867802888 1 0 3
1576 1 2.9980446133444367 14.384281783639082 2.692087860841898 -3 1 1
1152 1 4.615885427543624 15.64395148698078 3.860943194728078 -1 3 0
1703 1 1.0387715654886782 14.452839250765699 3.9081697583642545 -2 -1 3
1782 1 14.043207976116621 5.546748234471898 10.516321101205266 -3 2 -1
1063 1 3.907773483926491 15.4930386736481 0.6746844267470118 1 -1 -2
1845 1 2.0573963040460397 16.089805891361802 4.918237289336651 -1 1 3
1463 1 8.02330361463642 12.764221873340455 3.68956226352197 0 0 1
389 1 5.067334443126089 13.81353973206892 1.900466759207708 -2 0 2
1476 1 7.672467975314025 13.627414712363345 1.5137536477882818 -1 1 2
1035 1 9.21120382254822 15.182489176504625 3.929427845562491 1 2 0
364 1 6.577499897550274 14.615908762595897 3.541682976683862 -1 1 2
33 1 9.254563084024468 15.649537077913585 1.7510745557701934 -2 0 1
230 1 4.903370105086637 12.862278488877543 4.081180602934714 2 -3 1
1326 1 7.887192182242969 3.008282047934767 1.1032990379099905 0 -2 -2
1534 1 10.178669382023173 13.11576330298159 3.735730322957369 -1 1 0
977 1 12.24642468622934 12.872102104393413 2.1650370825314798 1 1 2
1372 1 9.67333592578616 26.712146892537767 0.495499224294508 2 -2 0
1820 1 12.425423045435933 14.115787615572263 4.5323356369052 0 -1 3
74 1 10.27323663026217 13.640441482739785 1.3351725318191316 -1 0 -1
937 1 11.51006705662686 14.880359199700928 2.7975198383628896 -2 0 1
1364 1 13.111791852688782 15.365927271526463 0.478664422032351 1 2 1
1681 1 0.24654585337506288 0.9112821146120013 11.802220957778744 0 -1 -1
1933 1 4.273790024623169 19.241394536982426 2.545604880421558 1 -1 3
442 1 2.571146557221787 16.737878586158992 2.5788327212961293 -1 -1 4
266 1 2.1385118481019116 19.537419455630065 3.302752156431863 -3 -1 -1
822 1 2.5639228520656268 20.07604741735169 0.943335973734699 3 -1 2
422 1 3.588610743088238 17.829985459601872 0.7152676283398114 -2 1 0
25 1 13.75445093255721 16.010470566367534 13.563227422425292 1 0 -1
739 1 0.4452277169763996 11.254969724178965 6.649605170169749 0 -2 -2
1714 1 6.625903677235847 15.538420826401012 0.9351909513156093 -1 -1 2
89 1 5.829948655381913 17.740388068874225 3.9662432913866623 0 0 1
1836 1 6.536997786377119 18.502362841655867 1.6588569742089123 0 0 2
816 1 7.456989289212835 16.56336312924831 2.895317776701327 0 -1 -1
491 1 8.087953497480768 18.584144521953014 3.5088278695804704 0 -1 2
640 1 5.0177316569856645 16.70444973918586 1.9697775046116306 0 0 -1
278 1 9.547089229679967 18.47075351124529 1.5575794989378484 1 -1 2
877 1 0.447788413189663 24.119186562124355 6.547203935966838 2 -2 -1
196 1 10.235078800194023 17.124509512510514 3.3418057397492804 -2 -3 0
1251 1 12.68696002355513 16.793100543666235 2.764552754625274 -1 2 1
28 1 11.810384017371877 18.947461045945595 2.1567012976429005 4 1 -2
784 1 11.270620260726998 16.619655331982415 0.8152829919119364 -2 -2 -1
1865 1 13.226270024224155 17.784403790638002 0.7001122052208906 -2 -2 1
1825 1 10.322823379602092 20.492515064266634 3.271771238215341 0 -1 0
1711 1 12.133021360314984 18.129879001219713 4.2826460221023135 -1 -2 0
1674 1 3.309845831833041 21.730332678398483 2.2931232437723708 -2 1 0
1384 1 2.0030757992693213 21.597932938594646 4.246999862085984 1 1 0
1198 1 2.078122755984674 23.521432022499127 2.480295392630538 -2 2 -3
1567 1 3.761327449365864 23.166828596081878 4.046798216143397 1 1 -2
200 1 5.769878143655211 22.15848302204069 4.673764591902858 1 -3 1
186 1 1.6339031472159824 23.760923457766758 4.563847958631561 2 1 0
1307 1 5.468753885952767 23.642493375935246 2.6753937083059034 1 -4 1
1592 1 0.2955837874079421 24.333801519101463 1.369781482105868 2 -1 3
1457 1 0.7991251619947207 21.222212982424033 2.2811743155257336 0 -1 0
424 1 1.236700213245618 18.252602254003683 1.9315699058553628 0 0 1
832 1 8.204848310965453 20.7740192993424 2.07740174336253 0 0 0
545 1 6.285218917724885 20.28549907243302 3.495261061617938 0 -1 1
595 1 5.629788495037519 21.408678225879306 1.886921389381714 0 -1 0
1409 1 6.348665570026185 23.710335991308604 0.6157909618768557 -1 2 2
886 1 7.615201380053939 22.898211739457217 2.93511566693458 5 0 5
1002 1 8.533552342456431 20.811329742125153 4.749218581625124 -1 -2 1
134 1 9.65846065547306 22.52989357463325 2.220472322031872 0 -1 0
1759 1 13.902651350915892 15.770489246939112 5.090595232999562 -1 0 -1
1657 1 0.3004459090980234 0.2837516848134961 3.3199506445421108 2 4 0
376 1 12.525188067916748 20.3804634870865 4.475365618354002 -1 -2 -3
279 1 13.565036456400337 7.83508960186962 0.8295278441191416 3 1 2
947 1 14.01470163155606 22.573479401218385 1.6709401164741937 -2 -1 1
353 1 10.636589412677075 20.911103516813775 0.924469384443852 -1 1 1
519 1 12.148375178414272 21.73498892859591 2.2516914697023527 0 -1 0
1638 1 12.079896845087939 12.850161413196275 13.570669677172289 0 -1 0
23 1 13.247040000558009 22.489527925201592 4.3168244257252315 3 -2 1
1089 1 3.5404333054501307 27.036327446279515 2.983938760061405 1 2 2
1419 1 4.733098142212881 19.753956382269614 0.3305426598928327 -1 1 -4
62 1 1.2623648767613738 26.86889973906669 1.362728897114482 0 -4 -1
1086 1 2.9462336326412153 25.583681771404216 1.5200144451157322 3 0 -2
979 1 1.146339051161823 25.824396154856714 3.175446931604523 5 -1 1
542 1 2.1260915642148737 27.914055575771023 4.458019437361692 -1 0 0
1471 1 4.677645100384719 25.47226498512814 4.02176758856217 1 -1 0
150 1 8.813249325566268 24.500609215739324 0.6883900707450403 2 0 0
1771 1 5.390296507016132 25.92280784418287 1.6295764908174901 0 0 2
1579 1 9.935607340110355 27.83261684329191 3.8378829300598043 -1 -4 2
1468 1 10.056285485940162 24.719602831642142 14.06619637642901 -1 0 1
1780 1 7.584733826687122 25.12145296540273 2.5308556558696544 0 1 1
800 1 6.7025348341682776 24.559410691604796 4.473540472602212 -3 -2 -1
1779 1 8.33185700711347 27.06659357449864 2.300766279200359 -1 0 -1
1590 1 8.76518900586046 26.14230071298686 4.609142976967278 0 0 3
341 1 0.3798056306938733 18.698582078647256 12.587060945345975 1 2 0
1736 1 5.92683246245556 27.97673234872599 1.9198933728064584 -1 1 -1
435 1 6.5920471124738516 26.759532739474658 4.07438075697889 2 1 -3
1091 1 1.3079341372969988 5.903694583394511 4.597156996835883 -2 -1 -1
680 1 12.123700496582524 0.3627284581756356 3.9285008362979905 1 -2 -2
498 1 13.327806857946277 24.269107900705713 3.239274735757265 0 0 0
733 1 11.461498895651793 24.03977818722781 1.890760903073705 -3 -1 -1
858 1 9.715616142001872 25.14136394395431 2.9578707279966276 0 -1 0
351 1 11.269626879354892 26.695426922380875 2.235925355511609 1 0 -1
1123 1 11.813421954737237 25.665437840938452 4.0698992377004215 -1 0 -2
999 1 13.095121775058802 24.693705974188553 0.4907053964188769 0 2 1
1784 1 13.639406606063261 26.729703991213178 2.4420696722683566 0 1 0
902 1 1.57426025318503 1.4085910550743905 7.600075755274821 4 -1 0
1475 1 3.7551299522329775 0.7397194207639415 8.168233828678039 1 1 0
1913 1 2.319655608146253 3.1974818043189983 6.114811558497232 0 2 2
440 1 3.3912843471467213 1.2956046698422379 5.983389540656535 -1 -3 -1
1256 1 4.847073684521022 2.51301358326581 7.650551412201018 -2 -2 3
1293 1 2.9661128704176165 3.481836464694177 8.526467032982673 1 1 2
622 1 4.32758755385171 4.348202784915612 6.485556403487656 -1 0 -1
1665 1 5.577974030704194 0.5764547572767282 6.750861614706123 0 0 1
270 1 8.433077273373854 3.734141418215468 5.843949615910516 0 0 3
772 1 6.353051095933207 2.701516164149544 5.650978003857519 2 -2 -1
302 1 7.58376291566823 1.6629507928241636 7.118673933980604 2 0 -1
368 1 6.621775253103761 2.209726098294756 9.125959972393904 2 -1 1
770 1 9.887552190474178 27.580915306763572 6.169559732500246 -1 1 -1
887 1 7.9694600470687185 0.34525427037741707 8.983160303539648 -1 2 0
108 1 5.737563025923972 27.611235976585156 8.858291381410067 0 0 -1
173 1 8.570075141707598 3.4670575408157225 8.217451009660467 -1 -2 2
1769 1 6.5408471973553794 4.124272355664677 7.753918998548096 -1 0 2
1655 1 9.691553036949212 1.5317798220854109 8.318035251730462 -1 1 0
815 1 12.746054265990331 4.251051073924143 6.83444294677553 0 0 4
1049 1 10.655115869267544 1.532675774456172 5.570032781162543 1 1 -2
1359 1 10.614532885733443 3.604394567657041 6.805082994541835 0 -1 1
1495 1 11.99800779314698 2.0864189691762354 7.583020301159941 -1 -1 1
1564 1 13.548307198839971 4.861623825400833 4.899274122764117 -1 -2 0
1618 1 11.28273140528007 27.798103270403374 8.38572864085629 -1 0 -1
650 1 13.787701029462049 22.324272128068024 13.6869862276263 1 -2 1
1536 1 2.0686447121929668 5.280877166166084 7.256484920625328 0 0 -2
483 1 3.3470068824025976 6.256315355136528 5.720413104067684 2 -2 -1
504 1 4.060979106191635 5.8817857961181685 8.263174377119146 3 1 4
1190 1 1.6290739128208656 8.007878437325164 5.5746430598615415 -2 2 -3
1128 1 2.676320775270548 7.8204524800540876 8.116899914845678 0 1 1
771 1 2.0237507713533294 5.4459449388387124 9.434409519675407 1 -1 0
1954 1 2.9920285340483055 27.05858967578874 13.83869545098269 -3 -1 2
439 1 6.088530647790554 4.933837318567379 5.138758369206365 0 2 0
1250 1 5.323425604563457 8.25479159971296 8.302073743076344 -1 1 -1
2006 1 5.377239706830945 6.566912845203971 6.61537463117951 0 2 3
639 1 6.990719191884846 8.037497498224745 6.845628301506221 1 3 -2
366 1 8.100577999980278 5.88857504706942 7.113162303364383 -5 -1 3
1383 1 6.211018616951855 6.163845974837088 8.817827468781223 2 0 -2
55 1 8.433087869255445 7.244073668000615 8.846831097502688 2 -2 -1
310 1 9.663561234550851 6.1159170282081 5.386898476907122 2 1 -2
763 1 12.672654855295743 5.871890396979436 8.76476514159977 1 4 3
1538 1 12.86499035005633 8.39227204002777 8.806586727426962 -3 -3 0
2022 1 11.207616493848152 6.157237730091746 6.792180431031278 -2 0 -3
1432 1 10.410917681596647 5.128991021683356 8.79361253582412 0 2 2
1640 1 11.91594002682466 8.350820357538334 6.638740864722431 0 2 0
989 1 10.87684816755702 7.395656708759085 8.630126288243261 0 0 1
1744 1 13.687911043681042 6.571086278701506 6.664520757542042 1 -1 0
876 1 0.916420746968165 4.668657902447885 11.377627694729018 0 0 1
210 1 2.5668868277181303 12.158475830647129 3.7385449705665064 -2 -2 0
633 1 2.2102524879166774 0.9322706659885325 1.8780368195761195 0 1 3
1589 1 1.492415345776652 9.964294363166648 9.139975610072772 -1 0 1
328 1 3.794605384505554 8.724326517385567 5.932094684832743 2 -2 1
1884 1 2.9424573905644955 9.807388449778173 7.508853686858618 0 0 2
1959 1 2.5232478135541734 11.580140560755156 6.262059545437437 1 -1 -1
801 1 4.537996837247095 10.834060435709258 5.23929748645114 -2 1 2
716 1 4.601317645133297 12.41107570150735 6.704248290346811 1 -2 0
1201 1 0.6360226438880476 8.99809045869404 7.323633662574269 2 1 -1
1285 1 7.48000186815982 9.439280823919145 8.437117727362018 0 -1 2
1358 1 5.158149606882612 10.478993757808025 8.710029809421465 1 -1 1
1993 1 6.067205849117858 10.423941821771335 6.639208086210068 -1 5 1
1561 1 8.914058612495175 12.070479395447316 5.774341977270312 -1 0 0
1004 1 7.249481692418745 12.02750093359313 8.141562995892077 0 1 -3
1452 1 8.266347566080933 9.655918647121267 5.648264986027842 1 1 5
2002 1 9.273772042676937 11.220325180457536 7.717368678542977 2 0 -1
1318 1 9.637981879668597 8.430750410776314 7.018043838263934 1 0 2
1673 1 12.694637520101926 10.422274177533842 7.091737673001335 -2 3 0
1721 1 10.841743593649282 9.881441032418895 8.336723261626776 0 1 0
516 1 10.440373646917608 10.258621710676746 5.989857688938738 -1 0 -1
821 1 11.671743803130957 12.328938061945063 7.621577492778873 -1 0 2
842 1 11.265683208138592 11.410939070133296 10.000589020186707 -2 0 -1
42 1 0.733390508449082 12.376313361940221 8.61118744667776 0 -3 -1
264 1 3.270407662615023 13.546753062758983 7.731188592758144 2 0 1
766 1 3.2407557280892023 14.346432771342943 5.038351887433261 6 0 2
1607 1 2.2034235069386705 15.43126864172253 7.46440625088566 0 -1 0
469 1 4.147870264476957 16.41097568128683 6.279089457184591 2 1 3
323 1 1.094434359864577 13.514103816335771 6.441369033828087 0 -1 0
951 1 7.991886002533508 14.292020718440774 5.561677879229205 1 -2 3
1915 1 6.659520028147423 12.396884607340764 5.671626789368964 2 0 0
478 1 6.638210146136487 16.235872183886123 5.701976490748955 0 -2 1
1922 1 5.365167589314348 14.245787144275283 5.972240852100734 2 1 2
1615 1 7.040192816322226 14.357447179631771 7.7080202876604975 -3 -2 2
920 1 4.974141757958486 15.418899885512918 8.33817780171442 -1 0 1
1263 1 8.932714869007182 15.324184339649735 8.78583443319208 0 0 -2
532 1 9.122098893654126 13.603298712402568 7.5710223325076695 1 -1 0
958 1 10.68786242869493 13.754392271348763 5.779068568149224 -1 -1 2
1080 1 11.412213538066666 16.04422426244782 4.617198640071274 1 1 1
975 1 12.663898499905178 15.899814151777573 9.287292932201186 -1 1 0
1418 1 13.320652324217471 14.089618684824824 8.562353708624048 -2 2 3
917 1 10.998047993390198 14.389462686066885 8.60211541769677 -1 2 -1
380 1 12.48225902925047 15.091797692181437 6.746390267606483 1 1 -1
1055 1 9.817060737764942 15.700186644444752 6.515833394747145 -1 -1 -1
863 1 13.37139438260059 13.110385127935084 6.2261376676186515 0 0 0
71 1 4.046149385875525 20.72218850089802 4.15735776860292 0 1 1
1695 1 1.2895758245228837 17.49165248526222 6.637402513836271 2 0 1
438 1 3.0865105919536666 18.372506346191713 7.352691640874614 1 2 -2
1809 1 2.920173660276857 16.246556240203432 9.411904052272307 2 3 1
544 1 2.7341743366763125 18.871506382040806 9.347934462971807 4 -1 0
1188 1 3.6071767915944926 17.972418596571103 4.586570474416012 0 0 -3
273 1 0.5053145363885672 19.11007323357517 7.914869199900866 -3 2 0
4 1 8.654161043319505 16.913926308089884 5.209157068796786 -1 2 -1
1600 1 7.546930754338615 16.522678079448 7.888544230535742 1 1 0
646 1 5.572946594100604 17.536130881278396 7.438060274475697 -1 0 1
961 1 4.910644169061489 19.313551690994068 5.80257721577524 -2 1 1
1176 1 7.318862839079321 18.730899575559825 5.628216501586303 2 -1 -3
1195 1 4.805995778326579 19.840155448833315 8.126220880280222 -1 1 -1
188 1 7.26255781676911 18.9005956258746 8.166967031692504 2 -2 2
1919 1 9.040647458001999 20.014138694621295 6.852218043834914 2 0 2
407 1 9.884165910579059 19.047382044295112 4.947669768501335 -1 -1 2
586 1 9.36057869111553 17.8822737451435 7.277652325822525 -3 0 0
565 1 11.514615133432786 17.841147054020517 6.360938081768195 1 1 1
1574 1 10.580823208638247 19.408401190281076 8.77117131211113 -3 2 4
1164 1 12.483312535822272 19.52014240425931 6.654153530379899 1 1 2
306 1 13.133297383685807 18.41193104509194 8.777809855216324 -2 -1 -3
616 1 9.33983891663326 16.654250081341942 14.066882605356533 0 0 1
1037 1 13.919783630253116 11.96043973983394 3.8528507195427966 2 0 -2
1559 1 4.0258175170460095 21.298211160742362 6.179651304840996 -2 1 2
1611 1 1.6935380612232704 19.607179411596142 6.024421059922429 3 2 -1
1947 1 2.539141940736406 20.775557766532557 8.122750811058648 2 0 1
77 1 2.008715850068813 22.41470758946054 6.62477900517949 2 1 2
13 1 3.3189951686595447 23.13518080734321 8.5827223576099 1 -1 0
1965 1 0.9916276234264184 23.00412753467247 8.737500679707445 -1 1 1
226 1 4.17005539417357 23.872705254628386 6.217213210760909 0 -1 -1
577 1 12.793914922517349 24.316869370463216 10.912664024506523 0 1 0
1519 1 0.6470222702983538 20.87646305005986 9.60862122938649 1 0 -1
944 1 8.903717681842643 23.76901053804911 4.6998460816462915 2 -1 -1
132 1 7.587755540781197 21.32139301007031 8.385873967676748 -1 1 2
1546 1 5.461261189061087 22.047496361030326 7.8939302815923895 0 -4 0
1902 1 6.577505353658528 20.787537182945393 6.201330107925893 0 -2 0
564 1 7.66709116397408 23.566927214412694 8.611981184898072 -2 -1 1
1758 1 6.456873146575477 23.285749084419194 6.568637155864724 -1 -1 1
703 1 8.96418487421543 22.371616503675767 6.648524358324402 0 1 2
1151 1 13.321903525709962 26.18999008872205 11.909892273880754 3 1 1
275 1 10.954065303293076 21.09486628802801 5.912232423951407 2 -3 -1
848 1 12.70900588505922 20.937387944600395 8.616777803424236 2 2 1
756 1 10.327562900125427 21.643758253338873 8.197659187710816 1 -2 0
1608 1 13.131870206006353 21.48586188216251 6.283264800132177 -3 1 0
1036 1 13.452711604895573 23.14938347079506 8.017485033139417 2 -2 1
1424 1 11.114340909381626 22.994694373096515 4.234314114675489 -1 3 4
1279 1 11.683226561030144 22.978455555180936 6.811029805042131 2 -1 0
218 1 2.7394702003062847 25.550634323966868 5.331375573591767 0 1 -1
329 1 13.83409082500115 25.424830437150177 9.165888492091836 0 -1 0
1154 1 0.5800813010691424 26.04768309539066 5.243677697870744 0 3 0
1311 1 4.134167174384952 26.363846782918344 7.6794679601356455 -3 -3 0
780 1 2.120121233224756 24.83585251299266 7.8437953259716595 -2 0 0
1723 1 2.260345094264954 27.40672007296937 6.556384244287745 0 -3 3
495 1 1.8829596169259852 24.918099914814647 10.233004704008469 -1 4 1
1380 1 5.663480704063718 25.74427829478099 6.197753719471098 0 3 -1
1503 1 0.8015230586881369 12.703606356951433 2.257523444024389 0 1 -1
1812 1 9.727365896856094 24.14127230541149 7.820278987296665 1 0 0
1298 1 8.108802649108405 24.83807589657789 6.411884162418523 3 -1 0
507 1 6.9578577301415825 25.93556801387107 8.325917884504381 -2 -3 0
326 1 7.288890526518439 27.310454139883504 6.432627616802208 -1 3 1
1685 1 9.094323005062327 26.346798332706435 7.755105513813668 1 -2 5
1623 1 5.154963237808092 24.486564435356982 8.563092889641558 3 -1 1
1753 1 13.963246903997934 26.477874059619175 4.745630015789229 1 0 0
1352 1 10.939735329102305 10.262879529423703 14.116062635854513 2 -2 1
1238 1 12.80813162878225 24.357771830749655 5.728162208898808 0 -1 4
1999 1 10.330311006914787 24.93833036479603 5.675187531274303 -2 1 0
1225 1 11.93140917821194 26.929713872353112 5.947755829988572 0 1 -2
820 1 11.938390732531694 25.324301337684552 7.808408874379286 -1 -1 2
648 1 11.244090718900445 25.552529526354327 9.781796418220011 0 0 2
1716 1 9.99626443565075 18.81588396853649 13.505331853224858 0 0 -2
365 1 1.8346225934682594 2.650283451023076 11.87206693348807 -2 2 -2
927 1 1.8215830888216644 1.0549916121196141 13.684365927551466 -2 -2 0
357 1 4.231157860751498 2.322563442891449 10.3107599341053 -2 2 -2
1028 1 2.0495900103911913 1.4082027687648242 9.864461008956871 3 2 0
392 1 3.8644768329810155 1.151964382276128 12.609336953358607 1 1 0
889 1 0.7009106783301131 27.618110790639243 9.938388805679532 -1 2 2
1243 1 5.875673452315344 1.1582352719450548 13.83016165005148 -3 0 -1
894 1 4.744503939907593 3.6448334672541858 12.607041109351673 0 2 -3
1398 1 6.597339545338425 3.4765989888749402 11.378294179108652 -2 0 -1
1764 1 7.988040711940807 1.8462456064841648 13.360277016232118 2 1 2
789 1 9.504964238890091 3.9507162580425566 11.630553093271406 -1 2 -2
1750 1 7.3474817782862045 4.035909902166386 13.576583344834232 -1 1 -1
1197 1 6.25844100783783 1.0282654143405545 11.288079025148154 -1 1 0
1019 1 8.675523278802393 2.381005417789836 10.394243775146915 2 3 0
163 1 9.97123220269225 0.9498502732401932 11.627176038967981 -1 -1 0
874 1 10.625426761872143 3.1799431699293352 9.819887252170153 -1 0 0
1998 1 10.02106032747555 2.5821808474313817 13.35118356399519 1 0 1
750 1 11.702766554158655 1.3472484413181218 9.962478094262442 -2 1 1
1115 1 11.880556813557629 2.516515385525674 11.983790443324313 2 0 2
265 1 11.83810310520343 28.02249714449986 12.676583632194587 -1 -3 -1
960 1 13.7692799179799 1.7477411893253825 13.06028788601833 1 2 1
1804 1 12.977673475813237 3.3460394880283166 9.528313391375383 1 0 2
432 1 0.8269729493612644 3.6698721093207833 8.06711439229253 3 0 -3
471 1 0.6835806858439042 16.665272385017744 8.7399998202495 2 -2 1
433 1 0.34600335991427633 6.638763403285819 13.367430472929868 0 -3 0
1846 1 5.34155099321701 4.375804891918063 9.430165288612422 1 3 -1
1571 1 6.986594149623199 24.010151226130702 10.743524463654303 1 -1 1
95 1 3.577416207741934 4.648454126632496 10.65951010945255 1 0 2
120 1 2.4902548970605256 4.8153416906825965 13.088193707305383 2 0 -1
159 1 2.405672234486671 6.5301928061012555 11.652584348234429 -1 0 0
884 1 4.018581163380438 7.242953383018171 10.06573749714643 0 0 0
282 1 4.390219663275194 6.987558053133492 12.719820378308324 2 -1 1
553 1 2.5282783016831747 7.801978778243515 13.871972890860205 2 0 1
657 1 2.7083337704215444 10.169877040194779 13.888722335629074 3 1 0
1517 1 8.043031761177168 4.958776614002345 9.64352761331303 1 5 0
1892 1 7.191655855418898 7.473817459043956 10.447233403792241 -1 -1 -3
1509 1 5.609969761979913 5.636902564010465 11.244026958858539 -1 2 1
1415 1 6.0785885518329765 6.026349367909462 13.729088983203287 0 -2 2
502 1 7.959568646305647 5.852047991237256 12.115503244464486 1 -2 -1
1264 1 9.666761437553086 6.385264080270305 10.601592932096565 -2 1 1
1181 1 6.7284141001578 8.01187829516454 12.950145378556067 2 0 1
503 1 8.042028254669486 0.7248886280813088 0.6409350690739419 1 1 0
1434 1 13.489239143415052 27.541446086114988 7.684497127707737 -1 1 -1
1102 1 13.038711902280145 6.1707064291954135 12.29747410267294 1 1 -1
300 1 11.74771442094803 4.728500075260784 10.998832444942405 2 -1 -1
113 1 11.704520117294495 4.579159504440669 13.362551430605974 2 2 0
398 1 9.116782987264132 8.153093535359424 12.141542835173368 0 -1 -1
151 1 13.74439564143506 3.8592677132547717 12.209705559535175 -3 1 -1
485 1 13.472478618188548 13.282804688897595 0.6168507574342434 2 4 0
1481 1 8.445037342049389 25.45873090255514 12.249202158525422 0 0 0
1273 1 0.25348262695441703 10.765798949454641 12.650180328990917 4 0 0
179 1 7.12626130214895 26.532960991863945 10.403658829178433 -1 1 1
1962 1 1.6645276966066347 7.924611995449967 9.945441300624923 -3 -1 3
1672 1 3.4665191563730566 9.33178118279366 9.89796358594091 -3 0 0
603 1 1.5219392847576079 8.45448777519518 12.081292774956765 1 2 0
942 1 2.177908843520236 10.527443759141315 11.326420967324326 2 -1 3
1840 1 3.93727996599058 11.634012326052403 12.95346665198677 3 1 -4
1949 1 4.30554276703216 11.194121804689244 10.82350159554474 0 0 0
2015 1 3.808450909191951 9.00572543911824 12.091726638421347 3 1 0
992 1 0.38985567491650774 13.598974992328454 12.161366014389602 -1 -2 -1
249 1 6.431163977310665 11.426063718915719 10.414197596613409 1 1 0
320 1 5.730681613528271 9.014739983596181 10.468003608151335 1 2 2
1193 1 5.949176769547064 10.441715220351478 12.445233173560975 -1 0 2
213 1 8.138336438307416 11.420131055934675 13.243129633366518 -2 -2 -1
1286 1 8.896556563419288 11.090213280568529 10.042520783764738 -1 1 2
334 1 7.885029810856783 9.81376465029762 11.43830105735867 -1 0 1
1983 1 8.669772609904577 9.192105121399845 14.05572118912619 2 1 0
1138 1 9.97641123311936 10.293138777226542 11.945845159183605 1 1 1
1431 1 0.3151784665524886 6.487937998284702 8.285933847080639 0 2 0
35 1 13.395254626114271 10.374369198904159 9.591750259988803 0 -3 0
148 1 9.444364848230638 8.82804948419199 9.809421374478884 1 -1 -1
827 1 11.850624598867096 6.9717390427477905 10.751768107980375 2 -1 3
1521 1 13.150475530602229 9.258521057221108 13.057729753885903 -1 0 0
1221 1 12.400358872338945 11.242178322335773 11.991122502884602 -1 0 2
160 1 11.232830476498487 8.40139081604385 12.473403999774424 2 2 -1
1641 1 13.963221226703663 14.815972588692237 2.5725776792264 -2 0 -1
1506 1 11.496330458952373 9.301581402650303 10.544606660134002 -2 1 0
1799 1 10.611652912064232 26.271445209496697 12.064119304600421 1 -6 -4
499 1 2.9898991556094514 11.578640461990316 9.033836896126994 1 -1 0
831 1 1.3293534978438462 14.349759702356375 9.59746012063652 0 0 1
1970 1 4.0134033921325685 23.480075387979632 0.8556116980423526 4 3 -1
897 1 1.7880011709921821 12.388357967237157 13.472448079929647 -1 2 -2
682 1 9.684132803066754 27.233416533417305 10.159413571636762 -1 -1 1
1131 1 3.880056934560054 14.218854927821098 9.995106370534446 0 3 -3
1667 1 2.46738625120576 12.726067089445378 11.107244861463535 -2 -2 3
812 1 2.291170154230674 14.740571275523605 11.942554851296054 2 -2 3
580 1 3.9919522487169363 14.438324137399956 13.03645850603387 2 -1 0
1777 1 9.579233396389379 13.331896464751502 9.849708921831427 2 0 2
1104 1 5.623572636925383 13.517904323838673 11.265865817705688 0 1 0
1235 1 5.155744610001226 12.78311790896342 8.89416407096334 3 1 1
1501 1 7.291476572276968 13.6633946365444 9.889236291371585 -1 0 -1
1440 1 6.47767351577139 14.781998682807224 13.162484486035279 2 0 0
1270 1 6.395504468506023 15.595750191345383 10.034742047767413 0 -2 -1
219 1 7.751543080149871 13.308761095181428 11.969860097317389 -1 -4 -3
851 1 9.193948335509022 14.66334513929057 12.937840901125 3 -1 0
1909 1 8.214705299036972 15.430128471089331 10.991702601512067 2 -2 1
2019 1 0.9856528839246581 3.0478260953237473 14.1212061192695 2 1 2
705 1 11.99600854911982 13.840142284226296 10.725343795872487 -1 0 2