LAMMPS data file via write_data, version 29 Oct 2020, timestep = 300000

2048 atoms
1 atom types

0.3528655555947964 27.999134444408163 xlo xhi
0.3528655555947964 27.999134444408163 ylo yhi
0.3528655555947964 27.999134444408163 zlo zhi

Masses

1 58.933

Atoms # atomic

1190 1 3.4586272468764307 1.4572510249658264 1.9921092410571541 -2 2 -3
1602 1 2.6817119698919205 1.9739136869158345 4.36919789079647 3 2 -2
323 1 4.3791116370375684 3.6249537554855196 3.1806614029503404 0 0 0
210 1 2.716309470128171 3.6192024038662827 1.613023688355911 -2 -2 0
1212 1 1.0619116465514087 2.0993130870779275 2.747126840137368 2 5 1
79 1 0.38922197115156826 6.346115901497865 6.38620868995997 0 2 0
16 1 1.9540750578151709 3.9421069365444557 3.998876674052321 -1 -1 -1
87 1 4.813119441005633 3.079403305642379 0.6510494911630198 1 0 0
1870 1 5.258985551954027 1.690483197481546 3.1421464587517267 3 -1 0
1432 1 7.007394132220962 3.2892773327273814 2.523038447133703 0 2 2
831 1 7.921348490762676 1.0516479180364313 2.1585012013143867 0 1 1
1489 1 8.738499868173651 2.923492089999746 3.7728440592299886 -1 -1 -1
942 1 6.410300896795294 3.2915463072019473 4.83196613340231 2 -1 3
260 1 7.412037627805367 1.2296666212391458 4.393962633591391 -1 0 -1
650 1 6.009902598130892 1.1481949453884082 0.6658775475486507 1 -1 2
762 1 9.278421644958303 2.700366890083383 1.5118816853456165 3 3 2
1843 1 9.90374908364778 0.8985941039542139 3.6629492377967146 -2 1 -1
2027 1 11.35309874713489 2.5576701712489402 2.684498789164635 -3 2 2
782 1 13.052501799608839 2.4805751460834067 4.096426232881814 2 -3 2
619 1 14.053193370527085 2.275590709062046 1.9378169874764792 -2 -1 1
99 1 12.57712614040723 0.5309288297004546 2.846781283491447 1 0 0
382 1 9.920076763565572 0.5322282517085744 1.3556883218826128 1 1 0
18 1 13.033597838724708 4.153355777737392 1.6930531776120343 0 0 3
1827 1 13.808696946787396 15.936611966814022 1.8623214449794145 -1 0 -1
518 1 3.9434930527148886 5.8639574618917925 1.2404335610265806 0 0 0
1771 1 1.6432584518302822 5.632805204945693 1.9002535188822987 0 1 2
1069 1 3.3137951921867685 6.0755348512743 3.453079723902812 -1 0 2
9 1 1.0338628311417017 6.34823266528284 3.8724172176406415 -1 -3 3
1651 1 2.3693861672916583 8.060787903334031 2.9799054625571415 -1 0 3
781 1 2.8531935900569754 7.598856323620895 0.8037607223473726 2 -1 -1
57 1 4.617104459305092 7.790418749623401 5.107609586560585 -3 4 0
629 1 4.780652564782377 7.436085673085659 2.705595260106567 -1 0 1
1981 1 8.324266947300902 4.9294587246601385 1.4292825302676593 -2 3 3
288 1 5.3170839394191765 5.464824745958355 4.470106343814335 1 1 1
453 1 7.811856216659943 4.908197437927146 4.051660357374576 0 -3 -3
1921 1 5.939777880373546 5.400672132633328 2.2795145021933267 0 -1 2
1698 1 6.771689891474796 7.183100808046467 3.8164224711778423 0 -1 -2
182 1 7.4747870868072885 7.0551162435457195 1.464347127909939 1 1 1
1058 1 9.435403622028748 6.803909993039061 2.814825018936441 -1 3 -2
1916 1 9.614989382706689 5.079950452068365 5.17747844815999 -2 2 3
1114 1 12.287630047482143 4.653147489154099 4.118203686283774 -2 2 -1
612 1 10.11498970000703 4.579653343202618 3.1837970171331356 -1 -4 1
1142 1 11.16697397569575 6.744917942358606 4.184609373326219 -3 0 -1
361 1 11.854213568794757 6.071203029708094 2.0949032147408477 0 0 0
92 1 14.143590699826532 9.852074844860406 2.5397363290089583 0 -1 0
383 1 13.323063063232484 7.690103267880544 1.2491933929157266 0 0 1
1230 1 10.997004633129263 4.272563713705797 0.7162818110707518 1 4 -2
75 1 11.360096122142098 25.833683552142737 14.172121784566569 3 -2 0
174 1 12.55003724826557 8.186300139789573 3.4646338232779694 3 2 3
1733 1 4.345930596664538 9.659867548493978 2.2114168067831343 1 0 2
124 1 1.4561536200338958 10.194051350293948 3.183485484551549 1 1 3
1777 1 3.0489991882589327 11.89013621918098 2.318063520061749 2 0 2
250 1 2.0262703244742934 9.64983343170511 0.9067128608776023 0 -2 1
1831 1 0.751955822838021 11.686496304404562 1.2288127524748238 2 3 2
622 1 5.152813263980824 11.554777103550437 3.906164256740581 -1 0 -1
2029 1 3.4187966895181106 9.730469950107027 4.728367510881146 -2 -2 2
1758 1 12.92460637455083 27.529892947023487 13.718104710242363 -1 -1 1
484 1 5.4928927894056425 11.412351319801047 1.2960630752474622 3 -1 0
598 1 6.2128608446725355 9.110871085322966 1.2913041008161277 2 2 0
212 1 7.995594532609871 8.874451477115864 2.619231830387518 1 -2 -1
1056 1 5.865682460045411 9.33320388174105 3.9029554763426804 -1 1 -2
387 1 7.176473047484817 10.82449473398723 2.614324342032295 -2 -2 -1
738 1 9.13532556453189 10.755809958187038 4.175033854039145 1 -1 0
46 1 0.8411021508657783 21.60507608976298 1.907497222411634 2 -1 1
667 1 0.5635248834365951 2.4257360478611525 5.049812251892433 2 -2 1
1188 1 10.90040044483193 8.32166402068787 1.915271255789829 -1 0 -3
433 1 10.169408601199946 8.8643885071626 3.9834713820779695 0 -3 0
1380 1 9.830528024565805 10.493645507851603 2.0036906197437974 0 3 -1
303 1 11.57188125796874 10.57771354974593 3.408563570321469 1 -1 3
21 1 12.437348841778626 9.847015114034424 1.2494903443173753 2 1 -2
1668 1 11.49091992113738 12.139590497399425 1.3169554807141832 0 1 0
1673 1 13.374558942324922 11.942014699535235 2.927026453377845 -2 3 0
12 1 2.4518491546961814 11.942706257144469 4.862746809913655 -1 2 1
344 1 0.5721529882087981 15.956385637755156 2.5065737972689854 1 0 0
455 1 4.013728518991945 13.655721313379361 3.7381370464023798 -3 4 3
1987 1 1.6647080220235224 13.755603127678087 2.92705908813028 0 1 0
41 1 3.2561976522039084 15.161045041777427 1.7506262308653981 -1 0 1
1866 1 4.4650544111318995 13.37138097072848 1.6593743371099217 0 1 1
2031 1 1.2841092633974522 13.83624781100935 5.070702792582561 0 -1 3
1450 1 2.9073453164579015 15.652824170891815 4.184804712170282 3 1 2
660 1 4.040736037102047 19.23977407654543 1.327913360645024 2 1 1
1059 1 5.503804301804836 15.128244789287024 2.8635863771549572 0 1 1
43 1 6.7200766974169 13.299330621097104 3.044694883345234 0 1 0
785 1 8.964956030878808 12.616325443391824 2.3392046688986388 -2 -1 0
449 1 8.179472988099006 15.023110436905895 1.9933595592095712 -1 -3 1
1576 1 8.632754502515287 13.23877942278486 4.4918155709022685 -4 1 1
243 1 7.488467054179618 15.314118831590962 4.096165635711718 0 2 1
832 1 6.3211993715751795 15.015394968875835 0.5139346041324141 0 0 0
1933 1 7.023736104939367 12.6556280608682 0.640614291395406 1 -1 3
1878 1 10.27687529401319 14.805603392545155 3.54208324561213 0 -2 2
62 1 11.071189094581243 12.708459206220377 3.6015772834240063 0 -4 -1
534 1 12.466931366633858 14.362534323514323 2.6441987946633816 -2 -2 3
281 1 10.366805311311392 14.019848563708884 1.280594018788403 2 2 2
507 1 0.38580618092603913 27.762017083609738 1.1717694627499897 -2 -3 0
293 1 12.71240495898127 12.57935129140204 5.232550658164593 -1 -1 2
988 1 12.032066999676541 14.590978142578203 4.799503767368042 -1 -3 0
1396 1 13.996350223519858 12.95842499361251 9.014116096822585 -1 0 -1
546 1 1.8608779292487267 17.894630386828982 3.8893434064703483 1 2 0
924 1 2.30183659246047 17.409772580564862 1.519771173499945 3 1 1
1762 1 4.252281347863168 17.226478834799597 3.2219795131322035 0 4 1
628 1 1.4280600282269327 19.53836700433755 1.7093004675876409 3 1 2
1001 1 3.493510026851928 19.499936506872377 3.5856174037184116 -1 1 -1
850 1 5.544116776567431 19.353423167108463 4.8637803897045755 0 -3 0
278 1 6.872532069162887 17.060691624892634 2.1829076695835576 1 -1 3
879 1 9.068220536283528 16.876765852801185 3.3079599849232286 -3 0 -2
177 1 8.663787762109916 18.643017328245588 1.3325656012417397 1 -2 -3
639 1 7.892649276093064 18.819597451927432 3.7379110468334686 1 3 -2
112 1 6.094132689402463 19.232328190010122 2.6484145850359475 3 1 3
485 1 6.479201491412678 17.113801383361317 4.477312691670313 2 4 -1
166 1 9.721184171301557 16.617269203663728 1.3398367575353252 3 1 0
1623 1 5.066800174064906 16.90518985501699 0.8605835306620365 3 -1 2
911 1 13.40017653839105 16.315002132456144 4.134674780360256 0 -4 1
28 1 11.555326114238284 16.527660546620933 2.7063004379460702 4 1 -2
168 1 10.770414032754562 18.665864161960886 2.537636362838452 -1 -3 2
1927 1 13.098357254664498 18.235329835601586 1.8916991805898926 -1 -3 2
217 1 12.424837917013926 18.296757827751694 4.1956194287463635 -1 4 2
53 1 12.07967183911957 20.28665685778554 2.0964647425719614 0 0 0
836 1 11.075653651208855 16.654637752163577 4.95937791288478 -4 0 4
1716 1 13.951609612261857 16.98856935090383 10.300594436686858 0 0 -2
106 1 0.9816479852876893 20.17861691386376 4.005291486066072 -1 -1 1
708 1 2.6338271450814212 21.522482696288805 3.100774071645476 3 1 1
1367 1 3.9230547307253287 23.367523890590927 2.230154765190564 1 -2 4
718 1 3.1017617873804006 21.402374314160877 0.514077608665582 2 0 0
768 1 1.9791789199340075 23.456427348304516 1.130677571238873 -1 0 1
1675 1 4.385315196622532 21.225060677132156 4.617602457969457 0 -1 1
1589 1 3.3629717338099128 23.368596251654093 4.829272909581317 -1 -1 1
2046 1 1.5276416166676365 23.596033294480822 3.5869627000535766 4 2 3
1929 1 5.035558990914682 21.09849052543274 2.339520638928886 0 0 0
148 1 7.382954735468172 20.72316056567376 1.5235732229934849 1 -1 -1
1205 1 6.517841943344543 23.014192629008054 1.4188767337691814 -1 -1 0
1560 1 6.8825466151973576 21.055790790538044 3.8547064312822905 2 2 1
203 1 8.366109085061657 22.686781890200578 2.985370155890182 -1 1 0
756 1 6.04987295014913 23.142766019995218 3.7509258275925013 1 -2 0
1634 1 9.613642797155931 20.816312506074144 2.5163620314473496 1 3 -1
402 1 7.678693144009545 23.167890920116733 5.193029373013125 0 1 1
438 1 0.9401162647749853 17.543460136075954 13.1418824600785 1 2 -2
49 1 13.524954741425658 25.763171798255865 0.44517492814738335 -3 0 2
1091 1 13.968591735760294 20.104896121620925 3.6841610869155583 -3 -2 -1
1084 1 11.097398485483431 22.29859923109331 2.217802600194026 -1 -1 -1
1801 1 10.707905824451595 22.615712605444447 4.455584163712841 -1 1 -1
979 1 11.515875083706149 20.48734846550402 4.4751319298299075 5 -1 1
1403 1 13.103080598694861 22.286522530893414 3.2923097993996344 1 1 2
505 1 13.554336374907706 22.010532856304042 1.0497929911768402 -2 0 -2
374 1 1.9281201261699585 27.58936714614819 2.805961691005512 -3 1 1
504 1 3.96989180913377 27.348131567275974 4.228983488156865 3 0 4
1090 1 0.9228737493256012 25.374836965805482 1.4459169062057529 -1 0 3
1977 1 2.789882630418759 25.544090668144207 2.55143488438349 0 -3 2
204 1 4.415574292315156 26.9258341523219 1.7820749425396745 1 -2 0
1872 1 2.6241064433459638 25.583817790672217 4.854007040818017 1 1 1
597 1 4.7607174798879885 25.201463696678616 3.941459815060481 -2 -2 2
394 1 13.584346479025527 7.674689677411692 13.591708643760072 -1 1 -3
657 1 8.103642656081945 24.405767781777044 0.7521304503401741 3 0 1
1083 1 7.369264222288899 24.817638717990008 2.975342589426273 1 -1 -1
30 1 5.461322229701561 25.061947203625202 1.7730568679732506 1 1 2
65 1 6.2927206510600175 26.88213331188745 3.1520655549033583 -3 -1 2
957 1 8.464794835139648 26.834401837556296 4.501069997749168 -1 -2 1
586 1 8.859513238330207 26.456627909690273 2.3486953256181415 -3 0 0
934 1 7.0835868135980595 26.66828963165886 1.044097598700286 0 -3 -1
1443 1 9.238043674330898 24.403331066590606 4.145915270917777 0 1 0
813 1 14.094802174291273 3.1980230416874122 10.40070493083234 0 0 0
1395 1 12.454987680064235 24.00129089867477 1.2534501554410413 2 0 2
1104 1 11.889286499709883 24.235544449481306 3.6501534394359134 0 1 0
542 1 10.110856495878819 24.343701226877048 2.1589477616360098 -1 0 0
1074 1 11.331417090792641 26.27009742663724 0.9775639015131385 0 0 5
304 1 11.003316060240001 26.312786908252583 3.8502356911713025 3 0 1
1016 1 13.345827577325307 25.8747843185679 2.7638050450982483 0 -2 1
6 1 11.907169704348503 16.086750319707612 0.36634156496895165 4 -3 0
218 1 0.7443259476257529 0.547254705994729 7.187468726899578 0 2 -1
1567 1 4.348332762695252 2.2175656520285782 7.669379259331968 1 2 -2
1750 1 1.5291913904404941 2.5923320764382054 8.604800225473538 -1 1 -1
917 1 2.4548469318499966 2.0597290235834897 6.5498128570065814 -1 2 -1
1529 1 4.87718558369932 1.6965584355197247 5.564639350261205 -1 0 1
999 1 3.8383583358572113 4.011231569182792 5.423522970091374 0 3 1
697 1 3.0303500461851667 0.6583522946869267 8.412509876228341 -2 0 2
835 1 14.11511013599444 7.323098824535549 11.394849719656266 0 1 -1
1029 1 0.466035812364332 16.23333891418169 4.9050402867835325 0 -3 1
187 1 6.660790405899989 1.7692449610954446 6.553436018270123 1 -1 2
1945 1 8.340528410533267 3.73712369593892 6.266569896211062 2 2 1
1665 1 8.549546851765834 1.6874305979445585 8.002856383768027 0 0 1
508 1 7.714884183078164 4.047325078220235 8.532925685888783 -2 -1 0
1092 1 6.283260834143775 2.0186066753328724 8.8532261097031 4 1 -1
2003 1 9.14596217177026 1.6242525710479034 5.689914683310358 1 4 3
134 1 5.861202594754118 4.087695443537978 6.773252340937567 0 -1 -1
1796 1 7.319826169697534 27.578694481820428 9.076298098140361 0 -2 1
961 1 11.834900804349022 0.7881119061646416 4.952187222111833 -2 2 1
1102 1 10.686406172881531 2.978602982991583 4.88890084205452 1 1 -1
1741 1 13.66677334976556 0.8104723852683076 6.6727226033744635 -2 -1 1
2025 1 10.940195277013474 1.201159192098749 6.785040379854647 -1 1 -1
1782 1 10.268077289422667 3.288783105880172 7.473466841235446 -3 2 -1
2043 1 12.272269803150957 3.3772522000576206 8.734803184604862 1 1 0
1846 1 12.746331324017147 2.933729641191579 6.516289243939882 1 3 -1
492 1 13.074752062972502 1.2862488474583815 8.691290495556649 -3 2 -2
235 1 3.197553858075587 4.349434485681801 7.4278986479310385 -1 0 -1
1311 1 1.3071789973153356 4.175955164114001 6.348147237468296 -3 -2 0
1047 1 2.720156435272171 6.271356479113068 5.547277973242933 -1 0 1
1323 1 2.0431824043361377 6.79768496022178 7.708722552952307 1 -1 0
1867 1 3.9964340327458707 6.726455648566509 8.97208579785217 3 1 1
777 1 4.727567948309196 6.072995731915049 6.657641451293195 -2 -4 0
2 1 0.7596730986167514 5.042687555016858 8.680137529735426 3 0 0
726 1 5.359214835479288 4.333492825139913 9.211573673942672 -1 0 -3
1010 1 8.711739973011728 7.252271767783501 5.171732324516032 -1 -2 0
346 1 6.649285955261744 6.27262984285417 8.054440189022108 1 0 0
972 1 7.407625624459239 5.787017210337052 5.8621433156969 -1 -1 1
1949 1 8.45090161374139 7.524802358482982 7.573990862829221 0 0 0
1143 1 6.462720191303031 7.8900036390977455 6.209250352309151 3 0 2
1689 1 9.383480739069293 5.314541180964792 7.5056079002816505 0 -3 0
1204 1 13.979466624376817 11.576402204135753 0.5594498146403521 -1 1 2
1630 1 11.695344510336048 4.951560632767345 6.540676195966862 1 1 -1
792 1 11.3005600272177 5.592191155150213 8.874634081252898 2 0 1
1086 1 10.802598791080946 6.968438419236661 6.412147336497273 3 1 -2
499 1 10.227863196648638 7.650813496297182 9.19121705744 1 -1 0
316 1 12.655408196096671 7.158692372893491 7.839781482951294 3 -1 -2
1042 1 13.086887464072532 6.8781870156111875 5.566908774981945 1 1 -1
1581 1 13.729475897028824 4.990306858581498 7.757602934841239 -2 2 -1
1707 1 3.615138614222872 8.39661269843352 6.989258670253033 -1 -1 -1
184 1 1.505341204186513 8.315493261983173 5.449214878582517 1 1 0
1331 1 1.2112546016424792 8.788013427769705 7.692883074033224 3 2 0
1740 1 2.5039610340861995 10.677848183153026 6.769503311783265 0 1 -1
328 1 0.5995643119991265 10.509481981033865 5.5537592868417605 2 -2 1
1243 1 3.3209902212154465 8.923097759560735 9.165453014023475 -3 0 -1
1924 1 2.1545355413541807 11.266174914244077 9.014537188815149 -1 -1 1
1754 1 4.404913021983211 11.765131728017748 6.140941641439447 2 4 2
937 1 7.917442848688793 9.34335228882397 4.867673244029748 -2 0 1
560 1 5.518048161789955 8.189633765172783 8.252448566651374 0 0 0
1526 1 5.029026845051943 10.356769346172966 8.242530568074367 1 3 1
1826 1 7.039096273369197 11.721505029058855 5.114066776831089 0 0 1
1743 1 5.395301878081483 9.86619620863301 6.042388709588444 2 0 2
1571 1 7.178915511024522 9.62409483243452 7.406316228017892 1 -1 1
1040 1 8.764274561737555 11.189793618104854 6.498026038898604 2 0 0
297 1 9.253677442910059 9.550205072613835 8.791167411389525 -1 -1 -2
1501 1 7.209370987202702 9.957274939931851 9.932205195638833 -1 0 -1
1984 1 9.662114549549102 9.112274447256244 6.347072196187183 0 2 1
368 1 13.722600453497316 10.6122566510686 4.672636094705813 2 -1 1
1046 1 12.128028042084047 8.996366738626595 5.505697067200419 -1 0 1
213 1 11.429229888015085 8.831524482652581 7.956962290412192 -2 -2 -1
34 1 10.965681993645418 10.98131882032861 5.609889371609258 3 -3 1
1928 1 10.746121175078704 11.254446914886362 7.813947347861793 -2 0 0
201 1 12.836973906959093 10.695713462806742 6.872796900996955 -2 -1 0
571 1 13.456285984247653 9.018713062118536 9.23000469794973 0 2 1
1261 1 12.571587937228282 11.291771156754479 9.467127153649644 -2 3 1
252 1 9.211004904226934 22.260920816022274 0.7639452041129213 2 0 -6
478 1 4.038363210829542 12.270058237870993 8.362213568255262 1 -3 1
905 1 0.9259194680842169 14.567372047830549 7.628649292178784 -3 1 2
856 1 1.7740139335898495 12.799903994216598 7.067814049932435 4 -1 3
520 1 3.4325572114805585 14.074534125467396 6.239921551416709 3 -1 -1
101 1 2.9893999233612982 14.383873178214134 8.612497854805378 -3 -2 1
774 1 4.810404809165046 15.62482560623884 5.173199003490593 -2 -2 -1
600 1 8.159254086839113 11.619425968385725 8.572824301438292 -2 0 1
1965 1 6.4451650343318585 11.893606382743293 7.246205310389123 -1 2 1
640 1 5.900239734316431 13.751796387842171 5.192610190336327 0 0 -1
623 1 5.0203220568165 13.907057691544669 7.585681814708853 0 -1 2
818 1 7.870409065882178 13.53672311254162 6.688355148741352 1 -3 0
1618 1 6.843385100420081 15.701718825678658 6.554540891544295 -1 1 -1
1481 1 7.093867040869506 14.112562553019742 8.866730811337824 0 0 0
1187 1 8.563897587049848 15.526945306402435 8.005546983302686 0 -1 -2
806 1 9.502797260744956 15.16960350194467 5.439918025569424 1 3 2
68 1 0.9393557017741032 9.346493084677874 9.826266662782071 -3 1 2
1194 1 9.6727624803599 13.482984016727253 8.178122566355261 1 1 0
152 1 13.934781392976715 14.430556636891616 6.380197669899383 -1 0 -2
379 1 10.499417128937525 12.98524032422465 6.1982805706081505 3 1 2
583 1 12.27731025257252 12.934168275793423 7.5166252039819685 -2 -2 0
240 1 11.3569290521127 14.951637442410153 7.279120878114796 -3 0 -1
1434 1 13.22358530375131 15.1339336092589 8.626675243584291 -1 1 -1
1015 1 11.701917221146385 13.425682176040729 9.663205535293697 0 0 -1
1100 1 3.001537163874184 19.76551146926405 5.678476216348588 0 2 -1
1672 1 4.36930012912506 16.23853070548138 7.531285607671571 -3 0 0
1277 1 2.1072577921427618 16.220629581392977 6.694297982298036 1 0 1
609 1 1.9236622395439693 16.401480438875634 8.951075228938349 1 0 0
1318 1 3.832704322262535 17.690632087030917 5.358160203158329 1 -1 2
1054 1 0.6194732072111263 18.63773729236998 8.371736009278878 6 0 -1
1721 1 3.144958162427747 18.127931636708684 7.63379582352551 0 1 0
1686 1 1.1052256396661027 18.30003329714078 6.041126253854957 0 1 -1
325 1 4.839835423116612 19.667102503789685 7.195447570786246 2 0 -3
126 1 5.2898303276932594 18.222540644490515 9.155441528187843 2 -1 -1
846 1 6.462460734416289 16.201030867749644 8.616285015057127 -1 1 0
1902 1 5.9754151346930175 17.758473942764983 6.738660763074117 0 -2 0
136 1 8.091724105603454 17.794290359497474 8.055615413552893 0 -1 -1
1152 1 8.53300319545096 17.242771936769152 5.743312032942763 -1 3 0
1548 1 7.639527851627759 19.27743832147814 5.959267224314836 1 -3 1
1359 1 9.561092287179934 19.381081357004497 7.322659955898077 0 -1 1
406 1 9.866731740964607 18.717364906926026 4.704506100431312 3 -2 1
1507 1 6.936425653986087 19.825548197640508 8.28592327546949 1 1 2
1925 1 8.763282443607807 19.584430657381237 9.443978301134386 -2 -1 1
227 1 13.695933365886326 18.690315724744117 7.773339679453997 -2 1 0
199 1 10.251896090543019 17.106712515552363 7.144231181369954 0 -1 2
407 1 12.079174331814198 17.196328450014903 8.524070769608135 -1 -1 2
1479 1 12.862906295509571 16.55485248387267 6.464678564939578 -1 -1 1
1097 1 11.656017088373394 18.78329618114945 6.485146372852125 0 1 4
35 1 11.383018878569134 19.31901290181932 8.90970728728759 0 -3 0
541 1 9.898956702008299 17.690627080147056 9.603793872019935 2 -2 -1
699 1 3.9653459679399545 20.602020810131307 9.148881899970506 -2 -1 -1
1530 1 2.013261002558809 20.225088993831122 7.769286321984639 -1 0 0
315 1 1.8336243044037106 21.796682612639607 5.2671531247658985 1 -1 -2
674 1 1.1100984131853466 22.438784781201228 7.734720722657278 1 -3 2
1498 1 3.6744606675450475 21.821315642725438 6.916244021409301 2 0 1
1926 1 3.1376765519794607 22.67865134378551 9.145035925032051 1 0 1
409 1 5.308280209453287 23.467903752412056 6.012351497725433 0 -1 1
1662 1 9.166940003752451 21.07732586176286 4.852241563141569 0 0 -1
233 1 6.212029087200605 21.39798762565608 5.9939682001110475 -1 1 -1
36 1 5.591367928085753 22.097005724294778 8.272631383797457 0 1 0
1798 1 8.251027729092439 21.533260101700243 7.453880166921538 0 2 1
1685 1 7.175653487523161 23.523963527293503 7.348024070217952 1 -2 5
1577 1 9.214868563315692 23.282096531048797 8.719023994623926 -1 -1 1
178 1 9.608267067391074 22.94869661613949 6.417252244617226 0 -2 0
434 1 13.336102994356892 20.13155582349214 6.084921088686074 3 0 -2
167 1 10.399612702133563 21.293318150980724 8.946860406708867 0 -2 3
855 1 10.811300549914863 21.115082306257293 6.634352749247435 0 0 2
2034 1 11.855082505224305 23.137137534215743 7.488467383996664 0 -1 1
1861 1 12.729150244004035 22.315805010065468 5.647392633572056 -2 -1 -1
1391 1 12.72080745636897 20.970311868333635 8.415594379486736 0 4 2
1880 1 13.655297642342706 23.084930435936794 9.368328281120643 1 -1 2
1599 1 1.351083447955085 27.84901434459762 4.91305166752336 2 -1 -1
466 1 0.8286998700771575 24.075189938310526 5.6058958088937185 1 0 2
1303 1 4.883743472810895 24.102963268068592 8.263161764084082 2 0 3
800 1 3.2767678050314313 27.717757313626432 6.38856708382612 -3 -2 -1
1329 1 2.837725294048353 24.321828755718762 7.1432666900168105 1 -1 -2
1955 1 1.8720504786305001 26.160461172994587 7.212052092699458 0 -1 1
780 1 3.6960360328478816 26.194106893267428 8.56762497198239 -2 0 0
1011 1 4.4272935518156 25.65498330039664 6.245264739724264 2 2 3
1473 1 1.3067016883649434 26.933979468835282 9.287200290069787 2 0 0
1943 1 2.3034742252446936 24.676268396758218 9.404029120268069 4 -2 2
472 1 5.402226284699805 27.7255332244073 7.585711288165676 1 -3 0
1164 1 6.792526557527094 25.332103048783914 5.149100010413512 1 1 2
787 1 5.852510102894358 27.284620538647996 5.423063673427428 0 -1 1
1845 1 6.293756949758664 25.786044307695533 7.400522872572078 -1 1 3
1146 1 7.979063939720831 27.621571074047274 6.819534276817398 2 2 -2
1155 1 8.794788414365494 25.117400254184343 6.482525671035067 0 2 1
14 1 8.205617927591696 25.469126218518387 8.840899936055322 -1 -3 0
353 1 6.809918983452088 23.893167532016545 9.579014130734883 -1 1 1
1263 1 14.026945462528344 21.269668237281667 11.983994660153458 -1 0 -2
595 1 9.881188775751273 27.118231032683862 8.184753673767155 0 -1 0
1656 1 12.84581599131694 26.19421806305411 5.186672901192752 2 2 1
23 1 13.460047600362923 24.649850338661476 6.972242524344085 3 -2 1
1448 1 10.63660820028762 24.946140093119674 7.926542708815701 -1 -2 1
1657 1 10.050039225996654 26.740899162083497 5.879723597759869 2 3 0
1485 1 11.261140138869463 24.605343533463174 5.796471098661755 0 2 0
2010 1 11.958302528324117 26.68331629328933 7.1951834485109805 -1 0 -1
337 1 13.8060255507276 23.965965184986707 4.754547907219283 1 -1 3
977 1 4.825125758321414 0.6101214923094168 9.926231326807535 1 1 1
698 1 3.675350713357384 2.4834691176830472 9.757502955933722 -2 2 0
1326 1 3.3871499299154424 3.267723318554854 11.961169691201151 0 -2 -2
1586 1 1.4117507239332678 3.1404970770241056 10.846770433008846 1 1 0
365 1 1.5859765798824472 1.5554935358768736 12.838700354972275 -2 2 -2
1985 1 2.1851849856226186 0.8840399874123452 10.729253112387937 1 1 1
946 1 4.305309347771409 1.1344379715670025 12.192124654089366 2 -1 -1
1947 1 3.1698503132207536 21.036561261914002 13.669082288895295 2 0 1
1509 1 5.047784720080159 3.1026565393352024 13.411315195593092 -1 2 1
1245 1 6.202129592714575 0.6760316498120671 13.518809690286927 2 2 -2
1388 1 8.168185695985294 2.0294259099725576 10.219188903091215 -2 2 -1
1547 1 5.716997886471445 2.7959028847487732 11.180660800258213 2 1 -1
996 1 7.411081673632441 2.4178390596302277 12.711552688647165 -3 -1 -1
1682 1 8.847065945803628 0.414492332679088 12.60415650144793 3 4 -2
1325 1 6.76956242749435 27.918988173482425 11.189658526847932 -1 -4 -3
1892 1 13.435434532049063 27.063251778984647 11.020511093021689 -1 -2 -3
483 1 9.928239579794333 3.626464453362372 9.804121617294689 2 -2 -1
682 1 10.52124202352955 1.4261210064173375 8.985749501695551 -1 0 1
673 1 10.183684090285146 1.9485277862000234 11.343409586096838 -4 -3 5
1337 1 12.271411736165584 1.9632222509340254 12.923175751560432 0 1 2
824 1 12.319106167621712 1.604907585000825 10.737840053245943 0 -2 -2
1874 1 13.719719568126408 3.643640784129063 12.512434494394853 1 2 1
723 1 11.761130138370671 3.736667911751685 11.02563408962982 0 0 -4
1288 1 2.90357404226624 4.868931703735252 9.613017696172536 0 0 4
1285 1 1.440899620689382 7.220496910886707 9.917103466181985 0 -1 2
1523 1 2.0313846763995906 5.339487350074652 11.975577233285081 0 2 -2
271 1 1.0052243147445632 7.313854477532811 12.273811993731032 -2 0 0
579 1 3.8387408697056804 6.844087913591036 11.442531987638477 3 -2 1
1313 1 4.072053905928562 5.090425820014313 13.332790893418922 -1 0 0
926 1 5.047472742441098 5.073933497593386 11.319183709523017 5 0 -2
140 1 3.149799703334418 7.300827404931572 13.475456064268808 -2 -1 -2
153 1 9.16314790361864 4.039021360551645 11.955879417848882 0 2 -4
918 1 7.274639416129678 4.3398118033930135 10.620909344287679 -2 3 -1
1573 1 8.579973289377799 5.941698176235618 9.597682683515185 0 1 0
1683 1 6.706055088204611 4.562638155589094 13.038569085963053 3 2 -1
1225 1 6.310497623944325 6.554819193666315 10.154397193175075 1 2 -2
1708 1 5.9527805802645775 6.894718508245141 12.711905502687511 -1 1 2
469 1 7.941705437158005 6.071506084022879 11.667119914796832 2 1 3
1197 1 9.460461051906485 7.8200801667706665 11.459895831101036 -1 1 0
935 1 0.9487967651186902 13.195913608255204 11.770497850328542 -1 1 0
620 1 10.91048775743412 4.19678749236558 13.429162186524819 -1 0 -2
477 1 11.688911587066052 27.340966167374656 9.483317139665822 0 -5 -2
827 1 10.00286946474162 6.358833698791725 13.474268218613995 2 -1 3
1327 1 10.519930548793523 5.742376498751022 11.132109366031557 1 4 1
1055 1 12.319151583726642 7.310409635151512 10.229787175291108 -1 -1 -1
1211 1 12.72477241131713 5.677703914791983 12.440671067767775 1 0 0
992 1 13.30305275121911 5.4989599200817825 10.238927455249318 -1 -2 -1
13 1 2.493836312075968 13.562342191567136 0.40185288308460637 1 -1 0
556 1 1.148731637987319 11.633687260259105 13.988158405661752 2 1 -1
7 1 2.6994851284145613 8.93276687448945 11.383903353153055 1 3 -1
557 1 3.629827189151846 11.216114689108485 12.85554876143204 2 0 3
779 1 4.239103154862066 10.96709653612324 10.546492587395404 0 -1 2
730 1 1.8051860693345296 11.106996925330682 11.570204882143166 3 -1 -2
1382 1 4.7134721546390805 8.915021123841305 12.728950749561115 0 0 -1
1904 1 2.3277653863723193 9.535016575576524 13.61058640576855 2 1 -3
1365 1 7.7914144521444335 8.093552974707883 9.817936705837257 1 -1 0
1932 1 5.1336611149509155 8.719224436277969 10.498498445739893 0 2 -3
643 1 9.121196719662064 8.433304680016027 13.762797599506781 -1 2 0
1202 1 7.246863520576437 8.439547751716587 11.957514772394921 1 0 -2
1023 1 6.103111473914055 10.670351402695061 11.952753866705624 2 1 4
1436 1 8.905230337984435 10.281238770886377 11.589138665710022 0 -2 -5
1415 1 7.987581277946033 10.453952970132418 13.380762084341114 0 -2 2
265 1 0.618408214026201 3.5278894654637263 12.575785894716136 -1 -2 -1
109 1 11.685490295822508 7.8762080417252385 12.351442216374114 1 2 0
1244 1 11.104677167855792 9.568885002665624 10.549459366830765 0 -1 2
1558 1 10.653294984456563 9.859231436419444 13.05154627793948 -1 -1 -3
1467 1 13.080310612792372 9.65059950004658 11.33009270596381 2 -3 -2
161 1 10.033063084055113 11.88366215823548 10.225626839088317 -4 -1 1
1368 1 11.831772971832846 11.402257105599855 11.946312919838123 2 -1 -1
282 1 9.856756494864522 6.378120932003744 0.6172280578900928 2 -1 2
1804 1 14.006794718513241 8.719664303278627 7.111031743304688 1 0 2
783 1 0.9336069595272509 13.077260635876911 9.266008896184594 0 0 0
1440 1 4.866397495885092 14.755850411867105 9.756244391114265 2 0 0
1060 1 3.193761700580084 13.008984185898633 10.378516953615058 3 1 2
920 1 2.9797891429961343 13.53317560640256 12.742224179948764 -1 0 1
731 1 1.533941000993184 15.362011701573804 13.144663778172204 0 -1 1
2026 1 2.1634312399035744 14.93332848398093 10.875854106841473 0 1 -2
381 1 4.548058260097734 15.047587546206824 11.993251623917006 0 1 0
1068 1 5.087090007298363 12.77178544129566 11.963521366469553 -1 3 -1
2047 1 9.55062500591298 25.896503729057184 12.417238980758066 2 0 0
994 1 9.690906095706906 11.934674124449588 12.86804629980907 2 -2 1
1805 1 7.790678090868954 12.185196602686132 11.318814480060956 1 -1 1
873 1 5.956655604868765 12.394112432771609 9.88392175108534 -2 0 0
1494 1 6.881559031198503 12.494804584303804 13.465836828549556 0 0 -1
2020 1 6.658198564445708 14.411395945264971 11.265262300971925 -1 -1 0
1304 1 8.70112399090303 13.969564844823287 12.621273909327494 1 -1 -1
963 1 6.144379782344166 14.440865043638906 14.099595680428406 2 0 2
170 1 9.092316771706757 13.916899679054064 10.29183716705244 2 3 -4
171 1 10.581127366449607 15.579377817553556 9.3941320663871 -1 0 1
907 1 13.99275375776499 11.582274040486926 12.875502320534801 -3 0 2
412 1 13.359116131352822 13.21365962992652 11.29282586384463 2 3 1
1594 1 10.99819306527017 13.732630209801755 11.755758990858583 1 1 0
566 1 12.809583445986314 13.404157565109191 13.44659196575158 0 2 0
668 1 12.652888359857155 15.32119577840623 10.697976336170282 -1 0 2