LAMMPS data file via write_data, version 29 Oct 2020, timestep = 300000

2048 atoms
1 atom types

0.335499791626269 28.016500208376055 xlo xhi
0.335499791626269 28.016500208376055 ylo yhi
0.335499791626269 28.016500208376055 zlo zhi

Masses

1 58.933

Atoms # atomic

1529 1 2.9781161213877727 1.7884219502755876 4.080386305907027 -1 0 1
16 1 1.8240134942359785 3.9242112166428686 3.8653145308092114 -1 -1 -1
1190 1 3.3209054194604835 1.559714395210978 1.717300185690803 -2 2 -3
1212 1 0.5893025241957184 2.0231172116223175 2.655904859059257 2 5 1
210 1 2.4692532359534693 3.5847220594364706 1.8683402744972681 -2 -2 0
999 1 4.209703899455013 3.7625652675210137 3.399489669413023 0 3 1
917 1 3.6888724341972994 4.055651761381004 5.560020314643958 -1 2 -1
260 1 5.293282391319344 1.5683777885391428 3.0642203397793977 -1 0 -1
1432 1 7.002570788391897 3.191263804733996 2.353071816256663 0 2 2
831 1 8.247206302684631 0.8053728325126635 2.3208423053042684 0 1 1
288 1 6.332919154464985 3.9447575670180015 4.5215556907424626 1 1 1
942 1 7.038805104252708 1.5740540116271533 4.554231295375868 2 -1 3
650 1 6.19267499112936 1.284110549784815 1.1365308566311523 1 -1 2
87 1 4.971300712939668 3.4263455657366135 1.1660692947054774 1 0 0
1230 1 10.621022194048578 4.863160135813065 0.9736602948904536 1 4 -2
762 1 9.366723917946336 2.7750319129453596 1.662654207052973 3 3 2
1489 1 8.564361983871446 3.319665467907994 3.859171684233235 -1 -1 -1
2027 1 11.296421858382427 3.1363266436809 2.844826147483318 -3 2 2
382 1 10.689298246463673 0.8067138923913804 1.4215951352105736 1 1 0
1843 1 9.920782726483997 1.2263314092824151 3.7932008853052706 -2 1 -1
1999 1 22.579721080914545 2.870399538137187 1.1036241967478388 -2 2 0
612 1 10.127968870962558 4.918595435341343 3.2361505153203165 -1 -4 1
961 1 11.73965956579207 0.9144683606230669 5.429628196425947 -2 2 1
782 1 12.974774983365066 2.6668887467157654 4.548240612900778 2 -3 2
18 1 12.810000554436172 4.6736925895378665 2.145032161599769 0 0 3
1258 1 14.71415102978346 4.442076941149512 3.660246857112095 0 -1 1
619 1 13.674359960213314 2.3075701524130756 1.9300380247377382 -2 -1 1
1076 1 15.086984692632727 4.214879584542226 1.1371521909378364 1 0 0
2002 1 15.631505119064224 2.38906122696265 3.498404254496347 2 1 -1
3 1 16.131593379304896 2.115232903242178 1.403268263331925 -4 1 -2
904 1 11.461082423709291 2.7998702331591447 0.5690018391071572 0 0 -1
751 1 25.12702270147539 6.295690113551706 13.96258720345963 1 1 0
1256 1 17.162559792651855 4.057126619524306 2.5847951623115435 -2 -2 3
535 1 19.02225275034911 3.6350031293572553 3.8323947378741403 1 0 -2
1967 1 18.28068599420121 1.8403697129189118 2.365732976669219 -1 -2 1
264 1 19.814238138514327 3.7017168478605673 1.742115233755767 1 0 1
1838 1 16.610744006766108 4.401318410188761 4.926544229791618 -2 -1 1
717 1 17.483314550161403 2.2121876579636073 4.719895951125348 -1 2 1
249 1 20.387417697433676 1.8517368033966106 4.047805355470137 0 2 0
329 1 21.854830789784664 3.431614046341285 3.271964190373395 0 0 0
169 1 20.632891959937954 1.3920611555916036 1.4945260959417646 1 -1 -4
1697 1 22.502406928535187 0.9088083645917634 2.984179515310332 -1 -2 -1
463 1 23.563915968558373 3.6574668659644334 4.327797721438573 -2 0 -3
367 1 24.569012320531446 2.7524032177407802 2.3162323098029898 3 0 -1
594 1 23.287130675651877 5.160067180580566 2.6467838885238253 0 -1 1
1151 1 22.412709230552924 1.616459529695995 5.088656995292261 3 2 1
1247 1 24.606518745836013 0.8447074602955587 4.1424836207271145 1 0 0
1134 1 22.6340449947003 0.7015957518243898 0.619722306983467 2 2 -1
1415 1 7.87362236071746 10.919398469230858 13.65024657499618 0 -2 2
710 1 27.8591784670585 4.43961119849759 2.6531925237780363 -1 -1 1
1206 1 25.479190562575948 4.667880957984215 1.108422068109205 -2 -1 -1
1701 1 26.199000778830566 2.7322740314736857 3.769242403203686 1 0 2
995 1 26.514356673590875 2.3844380746071203 1.1320744035270107 -2 0 4
648 1 25.381702725794824 4.884825217364183 3.3743423207118797 0 1 2
2016 1 24.72136718883052 0.6506357773602651 1.9576521598140448 -1 0 -1
667 1 0.7256524855254154 2.3995700263093704 4.9334713997387105 2 -2 1
1829 1 27.00748546753744 4.704368845828487 4.940069463265126 -1 0 4
935 1 26.213359706341436 13.400271670509076 10.175610249516728 -2 1 0
9 1 0.9063863120134771 6.074185944879518 4.474029791859639 -1 -3 3
1771 1 1.4394654099439688 6.02371350340609 2.063308643244949 0 1 2
1651 1 2.70604997768172 8.083122453489024 3.1649495572256043 -1 0 3
1069 1 3.438858847555881 5.775488377090665 3.688223467119151 -1 0 2
781 1 3.1864875265496413 7.889770238788136 0.9307617107998661 2 -1 -1
1093 1 25.179074661885412 10.143622497156736 0.43368032917506966 0 -2 0
1519 1 0.8128964775283241 8.09713851576165 2.0064627037248166 1 0 -1
453 1 7.681887365853395 5.591343465431516 4.1112230062309045 0 -3 -3
1921 1 6.007868684878168 5.341164852664188 2.688503584231539 0 -1 2
629 1 4.865210206084097 7.327679654503239 2.5242085707567186 -1 0 1
1698 1 6.785198822125369 7.699631074609499 3.7328032488211575 0 -1 -2
182 1 7.245705455525859 6.86941170214571 1.5051091963426082 1 1 1
57 1 5.372837253712118 5.823609407618476 5.061252402445887 -3 4 0
598 1 6.454153309972885 9.209994249096564 1.502543413880543 2 2 0
1981 1 8.308848609787484 4.908619955552615 1.8662363458418827 -2 3 3
212 1 8.096326844757051 9.098179381039044 3.122754739239134 1 -2 -1
1114 1 12.064627986154864 4.855291253374259 4.482313451022715 -2 2 -1
1058 1 9.119621142857955 7.051779337017626 3.1043786447602866 -1 3 -2
1188 1 10.585669466433714 8.634277985654887 2.112712792649785 -1 0 -3
433 1 10.008813015249501 9.296989821050303 4.271206712459889 0 -3 0
1142 1 10.754175493673996 6.945465515234299 4.66388132813706 -3 0 -1
361 1 11.6322986684118 6.708585312494887 2.5252170745730496 0 0 0
282 1 9.792249836838804 6.880412693823203 0.9860564032453641 2 -1 2
1617 1 8.690347291090255 8.791167138038796 0.7292944677504116 -1 -2 1
1000 1 13.810753381827862 6.44309895578395 3.4662788848682897 -2 1 1
174 1 12.347791153456768 8.533370890052728 3.6497363943162258 3 2 3
603 1 15.10863197662341 8.119869853748943 2.378525891984519 1 2 0
383 1 13.17429039740353 8.060124031854121 1.2991568432353546 0 0 1
624 1 14.050354538892941 6.1244817155166045 1.371004689342059 -2 0 0
91 1 16.01409249572167 5.969732024595567 2.610440271058926 -2 0 -1
170 1 9.181712261221373 13.84612541494025 10.604356483532278 2 3 -4
642 1 18.58566614835931 5.644809903759028 1.4714307485674003 0 1 -3
1389 1 18.113623651538298 5.775500838255926 3.745192264960458 2 2 1
748 1 16.87184364136507 7.806028942688035 3.937671513634692 1 -2 5
1430 1 17.49960564521091 7.717583943382044 1.414001448303146 -3 -3 1
1552 1 19.35484642563152 7.394610650544094 3.075267906627654 0 3 1
1726 1 19.073833523061097 9.3338396167399 0.6052379498694328 2 -1 -1
1012 1 19.90208512486535 7.241227940046533 0.9071095461485098 1 1 1
1117 1 12.593351085023583 10.254088025727151 14.068759787128345 -1 3 -2
830 1 21.406442797610026 5.130407012863193 0.9635123984042455 0 1 2
1564 1 22.124676980105082 5.296719375647099 4.6424868068185114 -1 -2 0
857 1 20.79855275510395 5.334661391989869 3.11821858547463 1 1 3
294 1 21.951324816486192 7.0036233113285515 2.4516604499678634 0 2 4
1572 1 20.770703187318507 9.108565723351624 2.218340884836336 2 4 -1
1696 1 22.870545948104535 9.158483776832298 3.6075937915051384 -2 2 -1
1510 1 21.476021725156276 7.64216446121668 4.476720460861744 -1 2 -1
796 1 23.4784917478778 8.837387918751238 1.271553652667607 -1 -1 0
880 1 20.07235989719027 9.542161074818674 4.472334730510188 1 -2 0
1512 1 24.00352749856696 7.13638869896989 3.636987542399571 -1 2 4
1904 1 2.414816400510325 9.538948640663916 13.605801346193177 2 1 -3
580 1 27.91048211765392 8.355570786498296 4.1969469510507755 1 -1 0
654 1 26.687121902148903 6.626577220859197 2.6506083834774117 0 1 3
1755 1 24.70491545289469 6.8318282293061525 1.397945667715428 2 1 3
1255 1 25.670418943481597 8.571050553408528 2.7699307991895394 1 4 0
1733 1 4.3188597606715335 9.633157631152798 2.443621947046441 1 0 2
1599 1 1.446639516233282 0.35654229878811705 4.6872643298927805 2 0 -1
250 1 2.395953656641555 9.855812902764258 0.9107950525867776 0 -2 1
124 1 1.1881844071745675 10.11315608790684 3.107188800598477 1 1 3
1777 1 3.176901663234907 11.775873330318559 2.416021567448003 2 0 2
1831 1 1.160766589462531 11.81715210823461 0.7957549253458276 2 3 2
455 1 3.7059720523196282 13.49865849686773 3.9928632921366534 -3 4 3
1920 1 27.807451355113702 12.028277853256379 2.712938990602932 -2 0 0
1056 1 5.9136406195081 9.63827146080027 3.915429965573831 -1 1 -2
1866 1 4.576467034634697 13.561291357076351 1.441081776286723 0 1 1
484 1 5.766120148905318 11.350409179998888 1.6419300710010498 3 -1 0
43 1 6.307001539756849 13.640465709064571 3.093120826557133 0 1 0
387 1 7.612451012646816 11.475089907678635 3.145638099772658 -2 -2 -1
622 1 5.031735998511334 11.822871386442019 3.818385252620094 -1 0 -1
1933 1 6.558955373851005 13.531029232184652 0.885942497777748 1 -1 3
1505 1 7.847035459787853 11.315548277541794 0.879417358808339 -3 0 0
977 1 5.280607417444843 0.586819310784513 7.3073726842751965 1 1 1
1576 1 8.081376147455867 13.376251445417576 4.426020225183632 -4 1 1
1380 1 9.775841621502707 10.861965286355655 2.0322219968692545 0 3 -1
1668 1 11.392013382013532 12.463045797548581 1.264200232927975 0 1 0
785 1 8.674464739732851 12.881225826215468 1.9612258182679936 -2 -1 0
62 1 10.64064138352547 12.773651657110317 3.3064309335069617 0 -4 -1
738 1 9.33092227986885 11.565155485141071 4.513619527117504 1 -1 0
303 1 11.412929432778823 10.862196829678718 3.662848638699873 1 -1 3
21 1 11.9048691929268 10.299379940134102 1.2496711596066485 2 1 -2
2038 1 18.26010460464933 11.032802307711417 13.18714188028183 1 -1 1
92 1 14.085847747377073 10.256979208455546 2.898410464512321 0 -1 0
1673 1 13.154898342478813 12.452247943442343 2.893074658290733 -2 3 0
1098 1 15.139408315787593 12.469793828894302 4.163360392992592 2 0 -1
1221 1 15.409699121124962 11.913608513443942 2.0863845027772667 -1 0 2
172 1 16.138499399367742 9.991283609873365 3.6145597460303547 -1 0 -1
1392 1 27.99749433203383 13.596375122812338 13.834232134008605 -3 0 2
518 1 4.173760041594372 5.632507273216474 1.3554290918724345 0 0 0
947 1 14.282746334671922 14.066990607652896 1.976293932444988 -2 -1 1
24 1 16.66619354076002 9.899169229026338 1.43130819826411 -1 3 0
1110 1 18.31890337538848 9.56187217554406 2.797537036970283 0 1 -1
791 1 18.141626624991208 11.42625559503004 0.9434421774163397 1 -3 1
1414 1 18.953402139031212 13.177604997834035 2.1766271300480646 2 -2 -1
1891 1 17.31660194596276 11.762788647356341 3.134772761770209 -2 -2 2
196 1 17.00483863587602 13.45083029870087 1.020803504849515 -2 -3 0
1550 1 19.592996386235843 11.753469458686407 4.479186172511687 0 2 -1
1455 1 18.48597460985346 13.75683084354209 4.4813080429084104 0 -2 1
99 1 12.434831081058151 0.9525076804187934 3.1438062885203544 1 0 0
1799 1 24.003949734433707 8.407241043038615 13.793046112422015 1 -5 -4
1135 1 19.860742120197582 11.167659425055703 2.3357163300460395 1 0 0
554 1 22.29438071856956 10.780908601249964 1.6555456390882586 0 -1 1
262 1 20.945367058410614 13.659180991710224 3.5688669479500335 -1 -2 -1
1429 1 21.769184037264193 11.260209078165351 3.9168087610588627 -1 -3 -2
1808 1 21.2865713458607 12.90816886722911 1.153623364472022 -2 1 2
1914 1 23.382837140355157 12.707457053166722 2.516443734490433 -1 -1 -3
898 1 26.47360229018335 10.334303943825407 4.103854371770429 0 2 1
632 1 25.458110481345628 12.298466391389306 2.0277127965859414 0 2 0
20 1 24.37958644502484 10.56254320452909 2.614564939775358 -2 0 2
42 1 25.19736542018906 12.773042933429801 4.120009581810351 -1 -3 -1
357 1 27.07026419941711 10.197146778214899 1.6383929180371875 -3 1 -1
1438 1 25.514156502987042 10.132094668346078 13.184092608081652 -3 0 -2
732 1 14.494725001686428 0.47241631690341734 4.3937773973257865 0 0 1
1602 1 2.2766163195846425 2.4252848020951867 6.599492254762356 3 2 -2
1750 1 3.2079756125090286 4.602930332010272 7.645413135967642 -1 1 -1
1311 1 1.1657557582558085 4.417334188130727 6.032207905906432 -3 -2 0
2 1 1.6792020268278995 2.9634645272503835 8.482093419178412 3 0 0
218 1 0.9615307120096916 0.5261785830511974 6.949363326613866 0 2 -1
697 1 2.8691712816247446 0.7905452936491977 8.421240807199496 -2 0 2
1567 1 4.32506665020914 2.6447779839596746 7.713964730523118 1 2 -2
1323 1 0.5542181824204687 4.852400553772629 8.40929887752347 1 -1 0
323 1 4.959552387059507 1.982217655192971 5.483387346408564 0 0 0
187 1 7.199516550563626 1.8063443655762732 6.891131005370188 1 -1 2
1665 1 7.8818828372785825 4.078917101764022 8.507344516306553 0 0 1
134 1 5.85903416783191 4.140984566300489 6.799190637226753 0 -1 -1
1092 1 6.440169435155461 2.4002735694871067 9.017634051927486 4 1 -1
726 1 5.124808567648341 4.495992439657287 9.074950243605716 -1 0 -3
698 1 4.769178556052772 0.8104736148620681 9.850441873254695 -2 2 0
1601 1 27.901763723406308 9.773708269212825 12.281565133224792 -2 0 -2
1945 1 8.16738685952658 3.6809279401102613 6.273776845554007 2 2 1
1388 1 8.520917567872779 1.947182330941867 8.489302140467158 -2 2 -1
1102 1 10.38721188767007 3.1065199305259887 5.45820230169055 1 1 -1
2003 1 8.973035436372498 1.0788516718445031 6.013864032844548 1 4 3
2025 1 10.753705375590155 1.5456505786093755 7.406885609277213 -1 1 -1
1782 1 9.997174370914264 3.5972798038195197 7.46961985528405 -3 2 -1
2043 1 12.051275805580516 3.3560948861302173 8.786018090682727 1 1 0
1987 1 1.8357630614027465 13.613392091292726 2.506897934495188 0 1 0
1019 1 15.354951642626778 0.9389515576134315 7.82354283463163 2 3 0
1741 1 13.77618653475773 1.285344836252277 6.51817844890057 -2 -1 1
641 1 15.213383905789717 2.580745495548816 5.586426889291891 -1 2 -1
1846 1 12.524198530370946 3.084217491848528 6.642500383892494 1 3 -1
1033 1 13.860087789118607 4.829931845701269 5.821050566624314 0 2 -1
1238 1 14.386586099183315 3.050803211635604 8.047142456308869 0 0 4
492 1 13.085377088690235 1.4360889562926822 8.702176306264889 -3 2 -2
753 1 15.805406542899757 4.5501746340660825 7.156751182282957 0 1 0
989 1 15.193686293440269 4.8054175632670795 9.396240568214907 0 0 1
1723 1 25.838485908035203 13.99542100047959 12.567864294629778 -1 -3 3
1301 1 17.427566836355993 0.7132873619084876 9.616408233470251 1 5 -2
932 1 18.45018801615224 3.9818355417185036 6.137269004669212 -1 -1 3
790 1 18.116011904349428 4.30405384635578 8.524075137070426 2 -2 1
5 1 19.06551905000212 2.336947521981505 8.629976190838494 1 -1 1
1246 1 17.035294552409262 2.604157812428514 7.194247908884137 0 0 2
1631 1 16.704795518543126 2.8082637693869485 9.561923149171836 0 -2 2
1578 1 19.66302908887453 1.7687382787121526 6.56329389003235 2 0 0
1291 1 21.191753706545356 3.6208288988379227 5.735187365106781 -1 -1 2
1592 1 20.340680192113666 4.1806467774475795 7.885324380114993 2 0 3
941 1 21.4636390000878 2.0902004345385565 7.591399254942329 0 0 3
1160 1 22.449099070987884 4.117921230874513 9.003001089527094 -1 1 -1
833 1 23.1902200881164 3.373518773633687 6.630859833220746 -1 -1 2
1645 1 23.213143612760863 1.7220455156502172 8.678969999069096 -1 1 1
613 1 24.26642179037402 1.0626839070516438 6.805417483812101 -2 1 -2
1401 1 0.3600947722956782 1.2833467002163546 9.419137773385872 1 -2 0
1431 1 25.452429457664998 2.792257324325985 5.720534741515925 -1 2 0
528 1 24.80945568639148 3.3681699176255653 8.024735386333775 0 3 0
332 1 27.496039572560516 2.523510911922063 6.973397070065667 1 3 1
1907 1 26.205443355787967 1.2677835560021147 7.982376067502718 -2 0 2
503 1 26.59545026728412 0.8459028392369219 5.622068626216333 0 1 0
983 1 26.737521648028356 3.214052741652803 9.515716356341217 -1 0 -1
1707 1 4.508650684628663 7.798755602667295 4.83392510373773 -1 -1 -1
1047 1 3.047907015150751 6.065736596838433 5.855587263232244 -1 0 1
1754 1 1.0842271929831127 8.874749158564414 8.046711833474411 2 4 2
1331 1 2.36593990261896 6.6471977457955616 7.813559983195818 3 2 0
184 1 1.8775241643196487 8.50509789173494 5.761859406436448 1 1 0
1526 1 3.6891674567633506 8.345023881945783 6.9367922560395385 1 3 1
1867 1 4.412225450483819 6.711372126059529 9.57450927246167 3 1 1
937 1 7.692129382714625 9.605716039273139 5.263824730749776 -2 0 1
777 1 4.875306145906699 6.180762148842236 7.341287025458776 -2 -4 0
346 1 6.770694809993265 6.083302160197622 8.7273441824628 1 0 0
972 1 7.313112859832107 5.790468548885509 6.470829225687137 -1 -1 1
1143 1 6.330516494949668 7.976428667515701 6.166128729330397 3 0 2
1365 1 5.903456541402007 8.259520319976351 8.388649570499279 1 -1 0
1010 1 8.56108906283148 7.498148894936041 5.380938876213643 -1 -2 0
1916 1 9.454720866752094 5.205032489220188 5.55231581394489 -2 2 3
1949 1 8.186103007378993 7.686346019498004 7.4713582159923835 0 0 0
1630 1 11.670262280061744 5.284796659707346 6.8852030975069995 1 1 -1
792 1 11.437609573078715 5.657647912803383 9.040884279911763 2 0 1
1689 1 9.262113216391633 5.907430917741308 7.802856530132202 0 -3 0
1086 1 10.693391675142589 7.393029534760512 6.746763911896671 3 1 -2
499 1 10.04153007834042 7.933521019483497 8.762276718141585 1 -1 0
213 1 11.341297460691809 9.60484549989152 8.054616619345037 -2 -2 -1
1046 1 11.673671719195587 9.290387085571622 5.891342658793402 -1 0 1
1984 1 9.664774462559828 9.608587889793512 6.606305044523177 0 2 1
918 1 8.8346051250436 6.160577498642403 10.165579687980546 -2 3 -1
1909 1 15.614762292538872 6.3703951243458 5.15299482193735 2 -2 1
1289 1 14.59492250669118 8.474909152710389 4.54302421716284 0 1 2
1581 1 13.550248075001818 5.100529148551793 8.07830606188599 -2 2 -1
316 1 12.571448944286535 7.443826995575766 8.15539352853007 3 -1 -2
1042 1 12.782301015451752 7.169963402673396 5.563516735203411 1 1 -1
1804 1 13.789942596313095 8.888711531689125 6.882040609364266 1 0 2
760 1 14.762613024944004 6.920759716205176 7.007600879388385 -2 -1 -2
1991 1 15.701051174216994 8.86801301956106 8.456951602539666 1 -2 -3
1025 1 18.923431336403958 7.663509292146387 5.462766997084297 -2 -4 1
310 1 18.337797035462653 8.172118789679661 7.560762781614679 2 1 -2
1269 1 16.838247725599643 6.303839676111425 8.414305289368539 -1 2 -1
1616 1 16.527623962099614 8.414588166737035 6.221372562942247 0 0 2
81 1 17.657412886340342 6.116057831417026 6.199070270338791 4 0 -2
358 1 19.180525504085228 6.25137200521189 7.841521551124773 1 2 0
701 1 20.016612424575623 5.704996898561791 5.4690520669128455 0 -1 1
2039 1 21.8306579580479 5.333889369322795 6.958829797132733 2 1 2
772 1 23.56162810419751 7.248387149005243 5.761769115974021 1 -2 -1
1704 1 21.017109823074602 7.682671095703265 6.670341334997371 -2 0 -2
1066 1 21.137925455110924 6.407590764540809 9.114106089990385 0 3 -3
334 1 22.881464274420154 7.3993888460376365 7.866646501042002 -2 0 1
1103 1 20.14350585109834 8.447855446481746 8.75348722435618 0 3 -1
1270 1 24.089218786792127 5.473059172531727 7.857364892378451 -1 -1 -1
1948 1 25.017379157073986 8.961676129747522 5.049120476859897 -1 -2 -2
2014 1 26.45038951294178 4.714681436139693 7.012457160322634 1 0 4
1773 1 24.606567709310468 5.260856407403749 5.665894434969029 -1 -1 -2
1260 1 26.088405557867063 6.8657776573542355 4.783543009095486 0 2 2
79 1 0.38489826182910314 6.6503797514744125 6.528936695439419 0 2 0
1709 1 25.69918310224063 6.860997622016495 7.090880476776329 0 -2 1
563 1 27.517988190814926 7.0813187819177745 8.407731144258294 0 -1 1
1339 1 27.067109679874985 8.809393971614758 6.346288592772153 1 1 0
703 1 26.534877856559245 9.143433824183603 8.606020470877864 -1 1 2
318 1 24.534890466887923 9.212388416977952 7.157725999034723 1 -1 -1
1418 1 25.64989248360022 5.474836030772205 9.494273122548504 -2 2 3
2029 1 3.1735012154562883 10.145813259734663 4.523549177999803 -2 -2 2
12 1 1.53752719704453 12.334841627066659 4.394770724005428 -1 2 1
328 1 0.6230213262399877 10.667097546436203 5.477427614612025 2 -2 1
1740 1 2.694330688155152 10.267677860049213 6.954306541507037 0 1 -1
856 1 1.7931305749931161 12.414344316890332 6.654395320495763 4 -1 3
1060 1 3.7890642954415936 12.139631943524266 8.43020853808243 3 1 2
1924 1 2.364622670244472 10.587927839801907 9.236661227573675 -1 -1 1
1743 1 4.314773155994686 12.197678987778403 6.110690929767172 2 0 2
560 1 7.271716306393264 9.639248961698888 7.5344940640525735 0 0 0
1826 1 6.68119807284591 11.624845546839687 5.33343431014027 0 0 1
1571 1 4.995259335147091 10.012907993038684 6.041078484497071 1 -1 1
640 1 5.741026436074871 13.756435232131697 5.167101733174263 0 0 -1
1965 1 4.488220146680583 10.059768459611515 8.420107725677262 -1 2 1
623 1 6.249947122915012 11.873288392462262 7.803684294503098 0 -1 2
818 1 7.855935414208285 13.519033941556868 6.751633384058007 1 -3 0
462 1 15.568728414847332 3.4707304740933593 14.135981281728858 -1 1 0
600 1 8.090921301253267 11.856143795792393 9.1514023678469 -2 0 1
1040 1 8.51519496967336 11.378545699234374 6.6418846989575675 2 0 0
297 1 9.213692166392011 9.91224398335859 8.999907849262003 -1 -1 -2
34 1 11.410976687101035 11.54211359823778 5.778085746603448 3 -3 1
1928 1 10.375241818375558 11.678076671281467 7.750986926956051 -2 0 0
379 1 10.03496786342926 13.42726006833383 6.133579458283349 3 1 2
1194 1 9.673860213878019 13.482334188791766 8.572972396862557 1 1 0
583 1 12.088894371920105 13.342871602187003 7.4667710013879915 -2 -2 0
368 1 13.407266762379887 10.542891976363409 4.99765079856707 2 -1 1
293 1 12.546601304015889 12.883974345449431 5.019130517670309 -1 -1 2
1396 1 13.85440235050476 13.102254984670648 8.748341196031076 -1 0 -1
298 1 14.473515427284203 12.649501153215592 6.275259397337093 -2 0 -1
201 1 12.86300732799202 10.987643079581218 7.15767792432854 -2 -1 0
401 1 14.964259808466357 11.182965689811352 8.356392090351298 2 -1 0
929 1 15.382669250578026 10.528868051502657 6.112366656025495 0 2 -1
314 1 27.11136865875695 11.43476003262348 10.170816741688581 -1 -1 -2
51 1 17.123281302511344 12.1486863820106 5.317077634059564 0 1 0
1825 1 18.114263404630243 10.127988045532115 5.270451928400708 0 -1 0
1268 1 16.473070593093606 12.683250803649685 7.457783511217118 1 -1 3
1075 1 17.369777211997782 10.300426428181463 7.376982174156753 0 0 1
1369 1 18.97773779481243 11.92181206133915 6.900215843658499 0 1 2
1088 1 19.056539821433663 10.417370888643818 8.734230061990859 -2 -3 -2
950 1 18.29524501976355 12.622347352032476 9.090286956176081 3 3 -1
513 1 21.21439979881563 10.449191677716664 9.972930071285877 1 3 1
808 1 22.983972775571367 13.112656213243978 4.832716311562744 0 2 1
1722 1 22.530365922346242 9.245350648040091 5.4498932053364015 -1 0 2
549 1 20.16620580688497 9.865333592147316 6.582014102084471 -1 -3 0
228 1 22.12978352715931 9.601141202734444 7.9282704016314405 -2 -3 2
1344 1 22.37428520511387 13.52602849004139 7.030289543628287 1 1 0
1899 1 21.444533795748193 11.564286114545629 6.061278424681965 1 0 -2
1250 1 20.33282682123557 13.409843620510577 5.8587418083807785 -2 1 -1
1233 1 20.952211494490925 12.046476780622436 8.203325335761086 -3 1 -1
1061 1 23.5911765448712 11.406548837388117 7.243729972023493 1 3 -2
194 1 23.96640694439616 9.63361124228546 9.154099042832781 -2 0 0
1037 1 23.97449157679891 13.28403204715852 8.491245110795752 2 0 -2
2037 1 24.37356020955403 12.003549547154613 13.044025606116147 0 -1 0
144 1 0.3601037439561665 10.933641247209083 7.729341495040728 2 0 -2
246 1 23.79678801535578 11.134670862945269 4.920410803026272 -1 -2 1
1809 1 27.162148262911366 12.766918458317692 5.712002213467886 1 3 1
1972 1 26.024364252629052 10.840195284080282 6.309973839081816 1 -1 2
364 1 24.874020004936092 13.070287216473796 6.383490915830935 -2 1 2
1361 1 27.168967927824916 13.014874384962441 8.051551255448418 -1 1 0
1129 1 25.354977067699586 11.435606752481988 8.52425028820699 0 1 2
1326 1 3.3117480856252395 2.9132638488997578 9.855600555235592 0 -2 -2
1586 1 1.1641484330299021 3.4996940495075153 10.926318953550933 1 1 0
1503 1 2.9623586852645225 3.1965812356061813 12.319971448256831 0 1 -1
365 1 1.4618909204278754 1.841744700630708 13.029704240128964 -2 2 -2
1985 1 2.2004199467288723 1.3000483532806433 10.799432281691075 1 1 1
265 1 0.46392719508680946 3.8758885691956637 13.09879345679866 -1 -2 -1
235 1 2.63637957530619 4.955400834705782 9.714767978314352 -1 0 -1
946 1 4.200886669748492 1.297789415424526 12.345006826766985 2 -1 -1
1265 1 22.460602340082243 12.291414594085527 11.642106685195602 0 1 -3
680 1 6.765365174304304 0.4302930386220478 11.624809462691523 1 -2 -2
1481 1 7.30532664376866 13.928291546324589 8.939637735301105 0 0 0
1509 1 4.952320015689627 3.1222359159036417 13.905696092283824 -1 2 1
1547 1 5.4608300050736 2.622738659613936 11.299321064893475 2 1 -1
996 1 7.405725042090873 2.7928167902857455 12.749119317240773 -3 -1 -1
508 1 6.946406987569228 4.213012293524017 10.620701920403027 -2 -1 0
1683 1 6.745593184421872 4.9249718683748975 12.682891336572911 3 2 -1
1245 1 6.163817379187252 1.2509401886691187 13.571880834671374 2 2 -2
1325 1 8.20073221369556 2.1971882553722013 10.754046390829814 -1 -3 -3
926 1 4.765626086764777 4.732022386631332 11.238405102533523 5 0 -2
1810 1 8.42149849702299 5.125279729735795 14.01554616220683 2 1 0
682 1 10.6729646140442 1.8379057095296478 9.701351595621295 -1 0 1
483 1 9.886079391791842 4.131005006886138 9.715642577829689 2 -2 -1
153 1 9.002443746804222 4.61057492713572 11.864524656164342 0 2 -4
673 1 10.074764553759227 2.471351248196495 12.069473321227706 -4 -3 5
620 1 11.302787087135517 4.467320861876778 13.507809202474322 -1 0 -2
723 1 11.493694955907017 3.997144008041512 11.39397450681086 0 0 -4
1337 1 12.198991578739001 2.0514107791855554 13.131216776341706 0 1 2
690 1 16.93905977482152 10.756057507780541 9.648397262773637 0 -2 4
1204 1 13.667826869532698 11.82494955321128 0.6421613580462338 -1 1 2
813 1 14.044301137907185 3.4882719529186232 10.41685949927924 0 0 0
824 1 12.63742692958245 1.9062260097480836 11.000667538368372 0 -2 -2
1719 1 14.9985501572752 1.2459861635509073 9.924517593401248 0 -1 2
1874 1 13.54922560940369 3.822219278175096 13.019750276374989 1 2 1
1688 1 14.639691803431353 1.7548445309667846 12.329805166586679 -2 0 -1
1638 1 16.14403934256054 3.4340078204861166 11.722271881086314 0 0 0
1406 1 25.86752066395619 9.707402778679398 10.708664703460087 1 1 -2
1319 1 20.04172117878484 14.071513944049396 8.202962175271338 -1 2 -1
1859 1 19.040812120020913 0.9813076692949171 12.680872681758228 1 6 2
1262 1 18.29622388581145 2.941471965197848 10.902569994583997 0 0 1
974 1 17.85846988376183 3.1849893011607837 13.384607919123134 -3 2 0
1468 1 16.72056901274978 1.2602514675528198 11.551216121232704 -1 1 1
2009 1 19.484822100911092 0.8249360417294637 10.478131209047113 0 4 1
1976 1 17.22485534056147 5.086227071518036 10.763386029013756 3 2 1
1533 1 20.04837305511744 4.436806756119783 10.180830598388837 0 1 -1
570 1 19.367223524048 4.712440107489009 12.194627178178871 0 -1 0
1287 1 21.386281950430476 0.6311106093049484 12.018820079298271 0 1 0
1568 1 20.476880425773288 2.8257103149819662 12.168694921114952 0 -1 1
1879 1 21.228222775559065 2.5781443497751004 9.967064852324297 1 3 0
468 1 22.327755072630843 4.341959759843384 11.24729452488104 1 -3 -1
335 1 22.191900120317754 2.589097791756937 13.562132612536558 0 -2 -5
1310 1 22.9572761460955 2.2691062809058584 11.352498560827707 0 2 1
759 1 21.44445905734198 4.811762416113089 13.437913461428383 -3 -1 -3
894 1 24.07156081436466 4.203507154237263 12.602134078023884 0 2 -3
1240 1 23.449334950206467 0.6462045710618314 13.454542659548505 2 3 -1
1594 1 11.040220096431723 13.963585821640793 12.02334360347361 1 1 0
142 1 26.751039535476426 11.833047931384115 12.412214016340773 -1 -1 0
1177 1 14.594059358355327 0.40466456118707894 2.034375543795644 1 4 -2
1402 1 16.17375357900079 14.025209329590144 3.4629035756510764 2 -2 1
119 1 24.218037453495125 4.0932112856651095 10.162079449229234 -2 3 -2
1241 1 27.306503972490688 1.9605852392860763 11.654624820275078 -1 2 0
675 1 26.11333443425798 3.9268224955172992 11.433540965680885 -2 -2 -1
1352 1 25.25822717257299 2.3620397422391157 12.85906678633054 1 -2 1
397 1 25.122898188168424 1.6875386386589823 10.259484542309313 1 4 1
1285 1 3.1485023730827084 8.51628110839165 9.39443465495667 0 -1 2
140 1 3.1199394440426316 7.162068593517452 13.966694243469455 -2 -1 -2
1523 1 1.9532032559185757 5.346542392817334 12.268710082742325 0 2 -2
1288 1 1.608731251343752 6.917793799946085 10.25150535289165 0 0 4
271 1 1.2075819003557493 7.619436913958116 12.305779650401048 -2 0 0
1243 1 2.454233320016518 9.254274388976151 11.408807504832563 -3 0 -1
579 1 3.611629262057157 6.8944130739190115 11.694677027148773 3 -2 1
68 1 0.4476440567639949 9.217337515802406 10.212752201990813 -3 1 2
592 1 27.802964512819496 5.500849773069844 10.610979654617353 1 -1 2
1573 1 7.953487747835065 8.330612839744884 9.829690588765267 0 1 0
643 1 9.013454539860243 8.619528940328632 13.352676017668427 -1 2 0
1313 1 3.975810275073747 5.12185373960549 13.298680213424754 -1 0 0
1382 1 4.682515346621998 9.011012075875643 12.787035165059862 0 0 -1
1225 1 6.309942529284618 6.479093805844987 10.922337545320277 1 2 -2
1708 1 5.498464161813483 6.912125498068214 12.878397186647147 -1 1 2
1932 1 4.963036625690291 8.632478923414778 10.806093505862368 0 2 -3
1202 1 7.164635236762036 8.703551230488907 11.956423512960935 1 0 -2
469 1 8.085028664133283 6.670306930407923 12.405140649972536 2 1 3
788 1 23.003582495470233 11.780023810186016 9.436330472677518 0 -1 0
1197 1 9.711465481416232 8.09170071980576 11.03759166060516 -1 1 0
1327 1 10.658296715000247 5.977048574834791 11.485752039529213 1 4 1
109 1 11.538290059725519 8.06656118612676 12.580353439659765 1 2 0
1244 1 11.15111552996625 9.69348090792594 10.44714483235861 0 -1 2
827 1 10.156989915027529 6.375217104242047 13.629327755605503 2 -1 3
688 1 14.512668760210833 7.308389670635059 9.576937853939217 -1 0 1
571 1 13.406797502936021 9.283226688472705 9.264830415500432 0 2 1
646 1 21.01859959720569 10.69074301321676 12.359989136250253 -2 0 1
1055 1 11.84558432749993 7.859207133874908 10.32367740294269 -1 -1 -1