LAMMPS data file via write_data, version 29 Oct 2020, timestep = 300000

2048 atoms
1 atom types

0.19583715944195745 28.156162840560974 xlo xhi
0.19583715944195745 28.156162840560974 ylo yhi
0.19583715944195745 28.156162840560974 zlo zhi

Masses

1 58.933

Atoms # atomic

523 1 2.350541907987073 3.113567935183671 3.6798113619524755 -2 0 -1
524 1 2.609711560063937 1.4464383597994874 1.7447315958080596 0 -1 -2
1464 1 4.769506572468659 0.6054153344226918 1.1598380550989726 0 2 0
1019 1 14.1304658390096 11.108098656760808 6.911661429312586 2 3 0
176 1 1.5596116506382864 28.15341825742475 3.8493378956369493 -1 -2 1
1913 1 3.8737832911333148 1.3898080053291941 4.436235391836834 0 2 2
114 1 4.521119350187656 2.4997759966106514 2.433901284418859 -1 0 1
146 1 7.864748483527561 3.7392256381006206 1.0400289965348544 0 -1 1
1209 1 6.445847323327161 2.0113641584334494 4.143312265064614 0 0 -1
935 1 6.121432500040219 4.046595787836644 2.6529295490688116 -1 1 1
1481 1 8.310077412526717 2.301999399140416 5.483495672068862 0 1 0
78 1 13.386414122647064 2.358002870325776 5.814970531602996 2 2 -1
47 1 8.084395320057961 3.488818251810123 3.4117283534837646 1 0 2
135 1 6.9678929159467655 4.513720886441967 5.482222188638205 -1 -1 5
779 1 4.844824295261888 3.4745993213575095 4.5266662166185005 0 -1 2
538 1 6.965779755037603 27.855517173334214 1.2296583180611378 -2 -1 1
1755 1 13.46003722948474 9.073541373362364 5.309713451409603 2 1 3
171 1 9.865571118069948 27.703408320060177 4.618294521978116 -1 0 2
24 1 9.739047345300449 1.916239952323657 3.8781666801733508 -1 3 0
274 1 11.720239949090036 1.5559508335679793 2.4666272773465163 0 -2 1
1017 1 12.371120590756762 4.016368444406114 1.9460316162088713 0 -2 -1
1780 1 10.399840858899493 3.152511752799593 1.4786273276025226 0 2 1
48 1 10.165250522395894 4.538204141762349 3.162950159349161 -2 1 -2
272 1 13.984157795401435 1.026269555814406 2.536201262763037 0 0 -3
563 1 13.90451260175658 3.0359814324736036 3.4575570361935304 0 -1 1
1164 1 8.47328042146578 1.6874123501853144 1.4630526173109901 1 1 2
724 1 2.1022622926798737 3.5349001192393086 1.4570218704344537 3 -2 0
354 1 0.8838620857880353 4.9014095714867825 3.829369118257675 1 0 -1
522 1 3.401670999937102 7.601867256337318 4.298833145796871 -1 0 0
1214 1 5.299035727419086 7.870856624380147 3.3603560525032776 2 1 0
1237 1 3.0249007517688598 5.14435227521109 4.79252180387385 3 3 2
691 1 2.303309244552509 6.4381167278804945 2.8883182275920003 0 -1 -4
341 1 8.151013258203786 5.4179802627850195 13.380350893160488 1 2 0
1965 1 0.8069241699342277 11.804440462644827 10.110710248609863 -1 1 1
5 1 2.8274936295701947 20.393100599682427 0.4690905768993365 2 -2 1
1945 1 3.8322839218067566 4.703110645176905 2.5278231081391564 2 2 0
1599 1 7.036239857641621 6.1423391833443715 2.4447163113063954 2 0 0
1975 1 5.379049467920137 5.967126764720565 4.3914197370904 3 0 1
598 1 7.503780674386093 7.623475421327616 4.489651316316555 2 2 0
1324 1 8.541855403030045 5.677626297668315 4.170046455750801 0 0 0
1070 1 5.027383452085818 6.575164525909085 1.376190566874065 0 2 0
679 1 13.66321336512977 6.073531540824296 1.6377193879049938 2 -2 1
791 1 11.817544561493872 3.376763137065479 4.263806426950779 1 -3 1
1435 1 11.407141895911439 6.239589970887701 2.5656634753933227 -2 0 2
886 1 12.08378261035371 8.082379992196666 3.9460693631644927 5 1 5
596 1 12.980717467158915 5.846799102222828 3.736876902658274 1 1 1
227 1 11.594520380928152 8.200797407822035 1.0911242183506076 -2 1 0
525 1 10.058425918939847 4.956186976658791 0.3494931860693592 -1 1 3
13 1 9.607429701340946 7.824801573213427 3.599519868109952 1 0 0
1444 1 2.235180238573897 10.12457634011589 1.0143125261528876 3 -2 1
2042 1 3.589620735735708 8.402755705313869 2.023184901704411 1 -1 3
1132 1 1.188811347305124 11.3991300612306 3.2816449178344285 0 1 -2
165 1 3.815174330965463 10.68545438656849 3.0948562884229784 3 -2 0
1837 1 1.8608786134466577 9.194236459664193 3.5029247046866376 4 0 1
656 1 0.6383586294013883 4.26257542672333 10.186629077457459 -1 -1 -2
483 1 0.870618242255909 5.382416282573672 1.2854623171600148 2 -2 -1
1162 1 10.326469492063625 24.950076204212195 14.045950486398647 1 0 2
1706 1 1.5119917948148913 7.7123963585568935 0.7853230863082066 -1 2 3
1961 1 9.303052326566345 6.756942861193711 1.67904886799163 1 3 0
1512 1 7.105409222858198 8.075425366982277 1.3032914055490477 0 2 4
1925 1 6.322694235161894 9.700850120589264 2.5958169106846167 -2 -1 1
1586 1 8.600350240580271 9.316285890885478 2.282728123293544 1 2 1
1640 1 8.39824626082399 11.895583934953478 5.49421350509007 0 2 0
190 1 8.223105987679853 9.741481543185339 4.350597127059935 4 -2 1
2044 1 7.321491902338297 11.139151158134602 0.6228104431889093 1 0 1
870 1 4.795808400381098 9.632963007602033 0.3807632044717606 2 -4 -2
429 1 13.797329464005196 17.01869005008742 4.554510868279746 1 -2 2
1284 1 10.63585625022843 9.702538510469775 2.647844701690692 1 0 2
1358 1 13.009934575114901 9.268583318597608 2.239299919104866 1 -1 1
2034 1 12.498059811681257 10.455718494765556 3.96139252620535 0 0 1
1231 1 9.790103825218859 11.042798005228597 1.0641234861115425 1 -1 1
1970 1 5.20642304335896 11.532981045456095 1.3766804812228977 4 3 -1
1204 1 2.763836404471962 12.549740632360718 1.6757013936103826 0 1 2
869 1 4.540089718060791 14.142030130961313 0.6429044244247843 2 0 1
407 1 4.991711677296752 13.311548158812666 2.95142613645252 0 -1 2
665 1 2.315323661244796 16.501649952078207 0.6799114048325172 5 -2 0
91 1 0.9408091047937117 13.727360079988198 2.804178304828779 -1 0 -1
462 1 3.2081869477501423 12.644516325037706 4.109811938069568 0 1 1
1055 1 3.327496982298104 14.85281409131175 2.4338119445027133 0 -1 -1
1964 1 4.962550259811154 16.168583609626758 1.6275246153679848 2 -2 0
1665 1 7.001486301377764 12.173116094451423 2.8179888434363485 0 0 1
1918 1 6.5484232591853475 12.975398803199928 4.762408717100608 -3 -2 3
1619 1 6.818635818343875 14.636122688953481 1.7504329165180315 0 1 2
490 1 8.371103568224388 13.918113171608558 3.842023039674676 -4 2 3
53 1 8.407644663033953 13.05733861972901 1.593515888378786 -1 0 0
1811 1 5.87805894389433 15.31887103150362 3.6281071278742885 0 1 4
943 1 14.029003718693762 3.0415362722934494 12.687984102315548 -1 -1 -1
86 1 12.378290935622275 12.879654477429906 4.140221536396922 2 -2 -1
813 1 9.251667845872342 11.473766367375054 3.2423224229781 1 -1 0
323 1 11.275963186307408 15.659961241280929 2.0444675916142976 0 -1 0
33 1 12.313154809686454 15.026685546318925 3.8599902910866244 -2 0 1
1612 1 10.564812996836276 13.59855992479032 2.855815530651129 -2 -1 1
1889 1 12.59606239396934 13.58215288924958 1.5873869170813437 -1 4 0
1899 1 11.767871082002207 11.701764827364224 1.8367494952360033 1 0 -2
731 1 10.213420170985636 14.506834475290553 4.8096903902402985 0 -1 1
1188 1 13.065775920267683 4.599677366224309 14.056792977171524 0 0 -3
1268 1 1.4136262977460872 18.75084079295113 1.9759811590427456 1 -1 4
502 1 3.634746559901614 18.05155836499514 1.2912612023089896 1 -2 -1
147 1 3.0933316408073037 17.59341863906065 3.3431770355263595 0 -2 0
536 1 1.2002166875743256 19.42750968152676 4.157857507785573 0 -3 3
1078 1 1.2386901629141305 16.15795341890388 2.508158286000358 -2 1 1
210 1 4.955773553052834 20.04187255407169 1.1649170655832402 -1 -2 0
653 1 6.857572858953228 19.945564874252213 4.662889282867583 1 -2 -1
1161 1 9.01684632662771 15.520514427954472 1.6628780426210907 0 0 0
402 1 7.214924098260765 16.796400287609664 1.44152372919952 0 1 1
505 1 5.33224066298883 18.379428880462545 2.7561708754113745 -1 0 -2
181 1 7.4714578573531 18.564785242811965 2.762617278194035 2 0 3
617 1 8.206469994497224 18.459646811155892 0.45411938685403247 1 0 1
816 1 0.4396386238529586 9.720911238586368 13.56400915235789 0 -1 -1
782 1 9.81673019555674 17.831020574900492 2.3578932689885796 2 -3 2
1638 1 12.590928106816571 17.736238591310308 2.9506147941961802 0 -1 0
207 1 11.041210191184781 19.26113998110271 4.0414596027523295 1 -2 0
1929 1 13.789594626231107 19.25469623872171 1.4403783326096968 0 0 0
1532 1 11.07906836753395 20.04852532291633 1.7060619871505456 1 0 0
1024 1 13.170860180231106 20.556162499138377 3.6917612917500713 -2 -1 -1
790 1 10.690637283343543 16.441389915651158 3.960743294905968 3 -2 2
396 1 0.35375251898229365 16.788944996945375 11.934332557121085 1 -3 -1
1101 1 1.6989799676799948 13.972262615663869 0.6755020671818346 0 -1 -3
1917 1 11.624177671327368 17.97945356076947 0.9990541802470178 -2 -1 0
23 1 13.820549872267566 24.410405892261956 11.841012213924866 3 -2 1
216 1 1.0816021116338048 21.55751143310635 1.9707497907346014 0 0 -1
42 1 3.1041778090213166 20.0561645757086 3.0710754885688143 0 -3 -1
652 1 5.034894318306547 20.985819406794768 3.640901397573647 -1 -1 1
903 1 0.8903964885826706 21.839596602328502 4.320444770247287 0 1 1
12 1 2.9337982699787952 23.32080649676568 4.201038530100447 -1 2 1
1995 1 3.5653441921758975 22.007255246072 2.1432689912763454 -1 1 3
1651 1 1.7098698351732309 23.642869717675993 2.466222828554326 -1 -1 3
1199 1 14.014150083318732 11.573265977175545 2.2300027327110286 -1 0 0
920 1 9.962919311847521 25.76489131229279 11.993524917390735 -1 0 1
1042 1 13.883377907461805 20.16598563063079 7.448666862115423 1 1 -1
1795 1 8.845658201958413 19.95466295376829 1.8158541191672264 -1 0 2
1513 1 6.889457654139191 20.726416187497943 2.416793619985028 1 -1 1
1399 1 6.07163183745425 22.592357844637007 1.6751642614531872 -1 -1 -1
1692 1 8.323395714521766 22.225765419734973 1.6347595830368435 0 -1 0
1631 1 11.585853015984625 0.8061567454714986 13.713799176820826 0 -2 2
893 1 9.24911342324555 24.288626270068125 1.76689665860748 3 2 0
741 1 9.163352369363343 20.599984475510816 3.895665197099101 -2 -2 0
891 1 5.156267830827975 23.39949616452348 3.408717125936615 0 0 1
497 1 7.141703497491683 21.98982535376481 4.483345800891511 2 -1 2
327 1 9.445005825677512 23.10569896969962 3.405843736468972 0 -3 0
50 1 0.4897991783425294 13.075721049907305 5.197410266509995 2 2 -1
1229 1 10.439102748905013 22.052665809059068 1.3154853709506535 0 0 1
1698 1 11.159215345071948 21.755519961186735 3.8481266696082916 0 -2 -2
819 1 12.573538471583698 21.774307604761447 1.193841930218323 -1 -2 -2
1641 1 13.341816491355603 22.818170047106374 3.8644865891220688 -2 0 -1
572 1 11.716478296092587 23.846770641740708 0.7463572755366059 -1 -1 4
910 1 13.54847696968344 22.078339776751733 11.92471219682323 1 -3 1
855 1 1.7402614652954569 25.446078907253696 0.8999431851051853 1 -1 2
683 1 1.0205265294604282 23.98647852794046 4.593365044153158 3 2 1
949 1 6.2456095223166175 2.256593584677471 1.2106347535731516 2 -1 0
106 1 0.6425982070371938 27.251296998248414 1.9577374169072421 -1 -2 1
1450 1 1.8981103887658317 25.758710185728916 3.612654718427167 3 1 2
836 1 3.8208797882067747 25.12236222047322 1.8315585490546746 -4 0 3
57 1 3.106489976911214 27.468168887452652 2.5393092226436096 -3 3 0
273 1 4.654560348780588 25.77020858249141 3.801774567823527 -3 2 0
1590 1 7.334686806403484 24.537601743773678 0.7505580583448324 0 0 3
1418 1 7.360583363515324 24.359194145996284 3.0246283036801396 -2 2 3
548 1 8.079332627510707 0.23822804216685317 3.372621268516658 -1 4 -2
588 1 5.56642060390688 28.07918926020433 3.3428108059420714 0 -2 3
1220 1 6.192464074314573 26.05888423938811 1.9091631022100184 -1 2 0
1194 1 8.500913543483383 26.314857537646713 1.652744382647199 1 1 0
424 1 12.00131026674202 0.9799542300328068 4.396520191974643 -1 1 1
1947 1 6.061259106375243 28.033517773553996 12.846531606802413 2 0 1
1667 1 11.602884448783753 24.169077884677996 3.25510268917129 -2 -2 3
1148 1 9.451796204847152 25.563084826492357 3.6853676364498984 1 2 1
387 1 12.081551297654856 26.928927432823293 3.20995718022021 -2 -3 -1
917 1 10.096479665470833 27.964804454837946 2.3013788335951992 -1 2 -1
318 1 13.69284808097119 25.147932589705125 4.4540789481041365 1 -2 0
867 1 13.561972294913607 24.915745708288583 2.107570207378951 -1 1 2
313 1 11.017074581966224 25.799671424552418 1.531141873796745 2 -3 0
500 1 14.125727153778982 6.533489550855934 13.507905595590785 -1 0 -2
914 1 2.6286558280009906 2.0525448361032845 8.320280101328212 0 -2 0
302 1 1.8538029910225389 1.2430995640895064 6.194750801831171 2 0 -1
1423 1 4.247469963064806 1.3166633662818477 6.886950140549096 3 2 -1
1443 1 4.450986747373399 3.3990312792044826 8.525164498473417 0 1 0
594 1 3.225212741990038 3.105532028674387 5.8949553744258445 1 -1 1
555 1 1.2969060238987802 0.2328622602852093 8.434886969399074 -2 -2 -1
1679 1 3.519780074816296 28.05748962026956 9.096912134761679 3 2 1
934 1 7.220651079103493 1.6168641224991072 7.840673913848217 1 -2 -1
743 1 5.907300605714699 2.582132289476436 6.348530652660485 -1 2 1
1759 1 5.27467672915178 1.5031781125743506 8.932655448680741 -1 1 -1
1484 1 6.878600184680636 2.998220004489901 9.636585570168583 0 2 2
246 1 7.994028131444528 3.6105866475436414 7.170594219626428 1 -2 1
1753 1 5.431404935760598 27.554948088388635 5.495207987650383 1 0 0
1796 1 9.293178160256598 1.3447815515865489 7.381806381049373 0 0 1
1470 1 12.86893382879958 0.9010043204525247 7.598582726480519 -1 0 1
1873 1 11.391212231571737 1.976065470477716 9.084984162254347 1 -1 0
1413 1 9.062821296559589 2.2217841133287717 9.752118117602588 2 3 1
847 1 10.427598541239705 3.7581683347939183 7.90526272018837 -1 1 0
1785 1 11.066533613123045 2.2581642779459687 6.316884792598656 0 2 2
1776 1 6.961707740235892 20.394202245775627 0.3004343035851305 3 4 -1
76 1 11.069872273950098 27.80488257372187 6.613547791210654 -2 -2 0
1604 1 0.8244964233888137 3.9766933107696176 5.949312145115147 -1 -3 1
1216 1 4.310904875768112 7.466114473026454 6.224042566579227 0 0 -3
123 1 2.3726061100594666 4.420310886684884 7.6765912203869355 1 0 0
853 1 1.8567399706931325 6.435983592048649 6.3111975431805325 -2 -2 0
1331 1 2.050848182693478 6.108327752714987 9.123759140051376 2 2 0
245 1 4.13686392098694 5.911814661678884 8.395099616270432 0 -2 2
539 1 5.002722951944414 9.192895889529987 7.418955714545944 2 0 1
345 1 6.377472029498612 6.633960848369343 6.359786485160522 3 -2 -2
329 1 6.325309435533972 4.846242542671293 8.021675716282285 0 0 0
95 1 5.683206311230713 9.115792570954305 5.482171336271898 1 0 2
661 1 4.717369650056455 4.837984493024552 6.729818069103532 -2 -1 1
1840 1 6.223822216439113 7.660055902793366 8.369758028827366 3 1 -4
1355 1 9.306995328955422 7.412320352703758 5.990021744505947 0 1 5
904 1 8.39515104654912 5.787228405558116 6.933853857477021 -1 0 -2
1398 1 8.471005803898725 8.098687695165928 8.232919532762356 -2 0 -1
51 1 12.390159199594208 4.491615170198768 6.17527023252576 0 1 0
2032 1 10.686346526337049 5.990300519898875 4.952293457070034 1 0 3
1891 1 12.862591755491758 3.13386482081806 8.095623339666876 -2 -2 2
1924 1 9.51335726610768 4.276804484517041 5.8723715394201985 -2 0 1
1428 1 11.258853965262373 6.095299792048576 7.232973671752016 -2 3 2
1135 1 13.307595460303407 6.89858334708237 5.94243992788249 1 0 1
478 1 10.585110818375384 8.462934252386203 8.525383449624718 0 -2 1
343 1 9.932019122818128 6.068334432910602 9.03279890445398 -2 0 -1
368 1 12.525433184882608 7.066931959317888 8.746818505529887 2 -1 1
1695 1 3.714893729912418 9.834261971321821 5.020222996892552 2 0 1
680 1 1.9323546258243356 8.741712251856294 6.1587319484156495 1 -2 -2
1771 1 2.8508687241605903 7.754497867230286 8.13535229802568 0 1 2
1479 1 5.735773612844918 10.923945136324022 4.2601913381586005 0 -1 1
1571 1 2.8217740690905995 10.744225305234494 6.990881856814457 1 -1 1
350 1 1.3607936441958866 10.771925227122656 5.527114480529083 -1 2 -1
1550 1 1.0491976190459233 10.127106594141386 8.434005272150854 1 2 -1
624 1 4.430022780545015 12.050613701262979 6.048235445048331 -2 -1 0
1251 1 2.972675399949823 12.407801641983445 8.879138392774568 -1 2 1
1900 1 5.124329413431827 13.469529322761177 9.710361502646593 -1 2 0
1660 1 7.920192483509231 9.21089526288481 6.652509150015852 1 2 1
1847 1 6.506223918480595 11.065559703084048 6.3852108474093665 0 -1 0
1498 1 8.466577459662336 11.96188440470127 7.746783834193768 2 0 1
423 1 7.033762696084902 9.913865830487174 8.670156740649764 -1 1 1
1036 1 4.9052011812183425 11.464904190801457 8.284575444383668 2 -2 1
1850 1 9.899759789571803 11.475121422791787 9.476275101772659 -2 0 1
1763 1 4.4265077850629515 8.055107400669694 9.513551069529013 1 4 1
434 1 14.007946594621345 1.12078238849998 11.302824523199696 3 1 -2
687 1 11.61317504628904 8.42242001372306 6.231250882475741 -2 1 1
1928 1 9.787171397444062 10.246581241193509 7.074726532875479 -2 1 0
1082 1 10.111442778956032 9.813416676720614 4.877399871415601 0 2 1
1258 1 10.434293206659905 12.271465296412465 5.141403062164855 0 -2 1
922 1 12.10549668501197 11.06237037955337 6.053681248232475 2 -1 -3
1741 1 14.091922393115762 14.416414461941454 4.897245758196823 -1 -1 1
1754 1 11.569455786544976 10.68822825119716 8.441882021083137 1 4 1
1193 1 12.427957816978804 0.2847922742010696 9.930778780738557 -1 0 2
1460 1 12.907580099425196 9.155981605562141 7.65307683247019 -1 -2 0
1449 1 4.1810578226317485 16.428275185013003 4.9274827923586 3 0 0
700 1 0.8781130971435132 15.089434897009035 6.383663371116584 3 0 0
1064 1 4.462118388310563 14.357289876374704 5.528422392885542 1 3 0
1861 1 2.2768344051621385 14.662453531082143 4.4295540676896605 -1 -1 -1
825 1 2.4864067110175236 13.419009706989156 6.630349516223792 -1 -2 1
1617 1 2.5730353142583664 14.618410423630658 8.696493039609289 -1 -2 1
1354 1 2.8950135661440664 15.609690447852362 6.689172504621208 0 -1 -1
1739 1 3.521359735834937 17.151849434096015 8.760177580956361 0 1 2
1177 1 10.560196686068402 12.551269633269051 7.620837414219882 2 4 -2
1563 1 4.996068660393114 14.727197027808636 7.6878531072634475 0 3 -1
1227 1 6.515112657561803 13.247112039696063 7.199751036450919 0 1 -1
153 1 7.018847417818536 12.264657480348493 9.233941936460628 0 1 -3
1128 1 9.636015016373193 16.488816673858576 5.795150637755946 0 1 1
197 1 8.71984060066683 14.037966213303305 6.428158423166404 -1 -1 -2
328 1 6.527129545559311 15.397486058533165 5.841390930899546 2 -2 1
630 1 7.628507516651675 15.689052057837136 7.727590271794169 0 -1 1
1541 1 10.370664328271676 4.555137952736264 13.416154019688431 3 2 -1
1576 1 10.461230215121553 15.010892731326539 7.833728081056099 -3 1 1
1855 1 2.9931142440242544 5.656122814986655 0.611552554769232 0 -2 1
266 1 12.259318674721284 13.281845930250544 6.267454140142091 -3 -1 -1
1801 1 12.116571774835503 15.457206290235723 6.120002227955079 -1 1 0
1183 1 12.7845363475719 12.850775465082336 8.434658727151067 0 2 0
1068 1 13.09822351922251 15.231427396187119 8.076345368619384 -1 3 -1
1703 1 1.7790325201790447 16.895745149784645 5.199581249508974 -2 -1 3
1233 1 2.749146215400131 18.09014149057507 6.835485837552881 -2 1 -1
290 1 4.52129551356791 18.77900010373285 5.075223814396845 -1 1 1
1905 1 1.4333712772361689 19.943829949486865 6.273980180956746 1 1 1
83 1 4.8337654910001895 18.92624856734429 9.262846307002256 2 0 -3
799 1 3.578116857767541 20.073682972482583 7.336114454257241 0 -1 2
213 1 1.753470950478002 19.13098936652861 8.70462061261035 -2 -2 -1
356 1 13.833874775839123 23.587061267943817 0.2968443962834148 2 -2 3
334 1 7.956666514720531 16.379109753757696 3.6938212903683554 -1 0 1
1521 1 5.5993769178116555 16.722192757486066 9.138881103867986 0 0 0
702 1 4.97917178698009 17.109318747640042 6.8104286320172855 0 1 1
1580 1 6.2062751770300535 17.476166029625627 4.599575004367126 0 1 2
1836 1 9.091352688453012 18.359927234887326 4.610697753394277 0 0 2
285 1 7.966907113425253 19.89545715460491 6.341435028799571 -2 0 2
1589 1 5.900920779754332 19.05342755744379 7.270455067502636 -1 0 1
254 1 7.496268570462911 17.609546397066335 6.56285271814876 -1 0 1
1480 1 8.683805660959015 21.001398395829867 8.337643054322736 1 1 2
1071 1 9.55232203376364 18.46287760685902 7.077418772433708 0 0 -1
1441 1 7.553310245795705 18.94644745000839 8.990639281568713 -1 -2 1
885 1 11.346083700143696 17.063307103571642 7.566838320703831 -1 2 0
1287 1 11.768827333830554 18.01180388228489 5.708818323478591 0 0 0
339 1 0.4106259436462321 2.5618946666585214 7.952825233184522 1 -2 -2
899 1 11.880358997434172 19.26693159974095 8.155247571283493 1 1 4
1146 1 13.63401909495199 17.875838323876863 7.6018667703061675 1 2 -2
481 1 9.813145753857118 19.017440509146418 9.350944034463371 1 0 2
1674 1 6.460189974946235 23.98951054281839 5.215072947980591 -2 1 0
159 1 3.216646851785903 20.957698542311906 5.046085435981039 -1 -1 0
224 1 4.399654007704753 23.25000401213549 6.280664628184111 1 3 1
1038 1 2.0087469116126657 21.432069858158968 8.15691914624386 3 -2 -3
2020 1 3.6441326428483323 23.04156396529952 8.30383618133108 -1 -1 0
1579 1 1.4172385059593093 23.419213002572842 8.882896054280813 -1 -4 2
729 1 3.988790210538509 25.3802440586665 8.457005371990329 1 -1 -3
1797 1 1.9593724745175716 22.846087404686617 6.350436238439537 1 1 3
361 1 5.622825458599776 21.21502661716361 6.032214700982833 0 -1 0
1289 1 8.799210977089807 21.779675539127663 5.745397229361225 0 1 2
1073 1 7.204162292106942 22.614695812357017 6.9335940415765425 4 -1 -1
1505 1 9.167208282444012 22.974752955237893 7.528507931570774 -3 0 0
609 1 5.688511941914857 21.400886053758708 8.32926263995982 1 -1 1
1076 1 6.034574622425325 24.031041882947218 8.18443831855231 1 -2 0
823 1 7.751373204720043 22.49436277047064 9.677319020772542 2 -1 0
758 1 13.594106952030323 28.00891689526136 13.165548109521058 2 0 -2
428 1 10.330453903433988 20.206971622550345 5.9046904868213845 -3 2 1
1226 1 10.676487417785893 22.868685449314405 5.848113062308698 1 0 -2
469 1 12.783604013250407 23.622643851068712 5.993131754437385 2 1 3
433 1 13.253067635245419 22.490213104365207 8.261283695465305 0 -3 0
859 1 10.916765358153318 21.526790579028386 7.776466125976907 0 0 2
1980 1 12.375857287485838 21.25260846737971 5.868017652100367 0 -2 0
1963 1 11.526260780971823 23.959503464523312 8.46138788962414 2 2 4
1228 1 13.965417584571828 5.4989799634092655 7.661055074258128 3 6 -2
1004 1 5.824516854576699 4.662507300851383 0.6357683716855865 0 1 -3
707 1 2.4092105931673466 24.920885253406855 6.329838363647973 1 -2 -3
580 1 1.0842261779958835 26.748527532498994 5.619472640406942 2 -2 1
1182 1 3.3442374887777957 27.17450903841729 4.981852456574371 -1 -1 -2
565 1 1.3332767070921236 25.786728722088434 8.228437411312116 1 1 1
1474 1 4.5513325898991095 25.55272324011173 6.151182830800241 3 0 0
735 1 2.9415971424435834 27.124284006952987 7.309621635514909 1 0 2
579 1 5.310233509409805 27.354659444678962 7.633162572113629 2 -3 1
1327 1 7.411657801795194 27.749402747853146 9.143911871911348 1 3 1
99 1 8.970377911099655 26.960631193735832 7.726210085829606 1 -1 0
817 1 8.80805303345353 24.01203573621885 5.5245371420437275 0 -2 0
543 1 8.246454917920715 24.64447902680557 8.430595297086185 -3 -1 0
1357 1 7.132675974340968 26.133849610444248 4.476663639709721 0 -1 -1
1833 1 8.912307446214369 26.216246697649694 5.735411832832022 -2 1 0
1104 1 6.8105483031052785 25.819806891319548 6.754875677048551 0 1 0
714 1 6.42958240703575 25.797326625110816 9.643327586644325 -1 2 1
1208 1 9.29218566570115 25.844675240808503 9.825203033568249 0 0 -2
495 1 7.747711174594358 28.101265545334385 5.835705539924531 -1 4 1
452 1 11.150115397780656 25.57561933040355 5.012767153873803 1 -1 3
1728 1 13.7296974294866 24.969092367527825 8.946682020789654 -1 -2 2
1842 1 10.353829382652057 25.16894619821173 7.186028375023046 -1 2 1
81 1 12.989999202899693 27.240385637159285 5.7034894150359685 4 -1 -2
179 1 11.453936832534493 26.755943746089667 8.636523419287967 -1 1 1
950 1 12.439979090044703 25.60437886086225 7.027597003538796 3 2 -1
510 1 0.9099764288868684 3.9882793751850154 12.420372931151846 0 -1 -1
968 1 0.3993220154646352 2.6464460083158463 0.7507788832072654 -2 0 2
1282 1 0.20865201007226303 7.593885230177172 2.542896291490788 -1 1 -1
192 1 3.91124473202322 27.91357996407779 12.007029110962439 -1 -2 0
875 1 3.070749697833397 3.652843175414633 12.310214148176184 1 1 -1
504 1 1.3474426722878592 1.896114509165621 10.321948749731876 3 1 4
166 1 3.7339249213365404 1.8454823383876224 10.943283089961227 3 1 0
1225 1 2.76971466697833 4.057523776390614 10.136089178766053 0 2 -2
472 1 10.571286983477025 13.978937795744347 0.27358512863014073 0 -2 0
1304 1 4.698535646162167 2.5579301253779314 13.562476475376712 1 -1 -1
629 1 5.747825990308359 2.273980296799925 11.735230697394693 -1 0 1
369 1 7.260296939601426 2.9182394757463106 13.72177217281332 0 4 0
2019 1 7.954616003282855 0.4630979122751944 13.489658373061307 2 1 2
1688 1 7.828409817633056 1.540714415105312 11.568162224242572 -2 0 -1
848 1 7.7381385902318875 4.003528204405395 11.507980916741055 2 2 1
2048 1 0.674089852694449 12.207089965033914 7.683610099103121 -1 2 0
988 1 4.079538006820012 3.072645065965839 0.3265175232526727 -1 -2 0
1881 1 8.46285328957872 4.873945624669187 9.235752166701108 -1 2 0
573 1 9.692912786970421 2.9518359055345478 12.093747946142802 1 -1 0
18 1 10.390691817509937 3.897364114167954 10.266450043754807 1 0 3
68 1 11.7979737915832 3.015693014627371 13.202630244902457 -2 1 2
647 1 11.9950347379551 5.0763047528002465 11.73644057573378 3 1 3
1099 1 12.887240605951629 2.996374745364094 10.827930457145888 -2 -1 -1
1704 1 5.502908144071224 27.833272196703888 10.539363539733861 -1 -1 -2
1439 1 0.419863618965846 23.759848603180046 0.3407006496218574 -1 0 -3
64 1 10.874776853552621 9.920708007141853 13.728623110114558 0 -1 -1
1448 1 3.995262377121138 5.959596253127707 10.834658163923763 -1 -1 1
44 1 3.667867134123651 6.007629250725886 13.062612793726263 1 0 -2
981 1 1.770189345510012 6.070276342051208 11.521265372112998 -5 0 1
1419 1 1.571553506220555 8.279151434309336 9.9128900125491 -1 1 -4
1841 1 1.8538077006969227 7.458604359275324 13.403966265561731 3 0 3
222 1 0.6375472836054118 7.527152810200146 7.733396376885128 3 -2 0
1372 1 5.004408334422856 4.030118969153668 10.615123942518649 2 -1 0
915 1 0.30858272569062273 21.182657778676436 12.726024917766468 -2 1 -1
856 1 8.548485392994008 7.444783959646698 10.23416931112547 3 -1 3
41 1 5.271751084993824 4.87198279324514 12.584388313563679 -1 0 1
1927 1 5.335823443574171 7.430043945008424 12.027411450406095 -2 -2 2
1954 1 6.442088279084602 6.1112594711609285 10.115510163693125 -3 0 2
1600 1 7.56953147064749 7.185875548140641 12.200376885087284 1 1 0
1114 1 12.981884687624374 1.9835334311282866 0.5788777820795752 -2 2 -1
610 1 9.741308218193426 5.6569932956022555 11.580494422650242 2 -2 5
1736 1 12.37003858454411 5.049428516255611 9.162124720378337 -1 2 -1
570 1 10.935815800736306 7.172982491219041 10.873148667686674 0 0 0
1499 1 13.50112580388361 6.547247522264589 11.420287216729514 3 -1 0
1009 1 9.61421874648425 7.452632473719246 12.947911519307523 1 3 1
1 1 11.772066671019 6.538725651843389 13.27836919577614 0 1 -3
440 1 12.702406429700922 24.267710580576573 14.060015946856335 -2 -4 -1
1858 1 1.8671351701021954 1.3859728348449996 12.527526635323024 1 3 1
249 1 1.712636214471362 10.10385197903767 11.059908971100358 1 1 0
927 1 2.820328784913498 10.327940512111761 13.108369288105752 -2 -2 0
1348 1 3.008229972348159 8.006766029700096 11.494916725747624 1 2 5
876 1 3.598966212566608 11.889405909615125 11.218074605915048 0 0 1
1255 1 3.212929237023 10.169348349160554 9.306561075622684 2 4 0
945 1 5.201163318726618 11.504748604994422 12.873679579085273 0 -2 0
1185 1 6.301994167570157 8.790399720016508 10.643697362950231 0 1 2
14 1 4.239501156631151 9.78738417525011 11.092649973900272 -1 -2 0
1770 1 7.676923925894005 11.426288450806819 13.47425986599773 1 3 1
1034 1 6.268904857170075 9.489277502381215 12.759695265392438 -1 3 -4
1179 1 5.796525527376586 11.194429216356612 10.459492362205047 -2 0 -1
206 1 7.895876838111099 10.937487387301216 11.116110118933221 -2 0 0
1321 1 8.872433643965051 9.213005505935083 12.173264212592896 -2 1 0
242 1 13.790671028384297 10.591229936723792 11.392603421582828 0 -1 -4
1672 1 9.863405454298986 28.05192685147661 11.84772636156828 -3 -1 0
1885 1 12.813513067303496 8.398558069988564 12.51743136962052 -2 1 1
591 1 12.52436248202481 11.439612917027686 12.93471757130297 0 0 1
520 1 10.768140164123464 13.617578733984878 9.957286687876174 3 -1 0
282 1 12.171720061092604 12.065281688950751 10.667521734235843 2 -1 1
1636 1 12.830084423464415 8.64218789462014 10.123081560661342 0 3 -4
804 1 8.901358405815145 9.66723853050136 9.653201163420556 0 -1 1
1906 1 10.983589293652507 9.661232531013322 10.974775658348218 -1 0 1
73 1 9.941074294303046 11.492542478622259 12.377139966297799 1 -2 -1
1468 1 7.900153249602156 27.012629125938208 10.986528683094868 -1 0 1
1126 1 0.40697057013847904 14.12128861077876 12.951826797848337 1 -2 -3
1473 1 0.8366154772246994 16.769812866967108 7.750131578421252 2 0 -1
1819 1 1.7449100626291516 12.025778680643423 12.411540827300787 3 2 0
2037 1 7.254998369417789 24.567234704699345 11.136792133783665 1 -1 0
1790 1 3.266880707332377 14.202598392558388 10.682705494959798 1 0 -3
1494 1 2.5161477631457907 13.970699262711856 12.721968898468836 0 0 -2
1774 1 11.370603921720527 19.887112321947644 13.834513719802569 0 -2 -2
347 1 11.226628999309693 1.752329484831199 11.322975100847806 2 0 0
324 1 9.137062667737288 13.761005042156148 12.740505256507472 -1 1 -1
1378 1 4.442176593416818 15.95879536879547 13.001613347105776 0 0 3
1996 1 5.215376259115594 15.506420086624445 10.736143991379654 0 2 0
338 1 6.931924282431639 12.71905301440166 11.745972614912922 0 1 2
1215 1 8.663561458249186 14.119954393447703 8.669808275799163 0 0 -1
46 1 8.772034521910994 13.061732035136005 10.788750801700425 1 -1 0
269 1 7.089614388095613 14.67188217973744 10.03700202901314 2 -3 2
1989 1 9.356633146830639 15.507522060079884 10.432849583171672 -1 -1 2
1737 1 4.857025055689371 13.797541550697026 12.505647966765904 -1 0 -1
1315 1 6.720268006470567 15.13195383095063 12.440355225661747 0 -2 -2
672 1 8.96025713500811 16.84209177949817 8.944522740437048 -2 -2 0
276 1 11.661333859903554 25.44225595382681 10.198266743711558 1 0 -1
834 1 11.560524618563054 16.093688870900323 9.824777623251284 -1 1 3