LAMMPS data file via write_data, version 29 Oct 2020, timestep = 300000

2048 atoms
1 atom types

0.20111411550677438 28.15088588449753 xlo xhi
0.20111411550677438 28.15088588449753 ylo yhi
0.20111411550677438 28.15088588449753 zlo zhi

Masses

1 58.933

Atoms # atomic

106 1 3.2793796571689366 1.8348972972956934 2.7452168851288734 -1 -1 1
939 1 1.163725330803865 3.028446383630405 2.5405183888143825 -2 3 -2
2030 1 4.472980250363515 4.006023410613457 3.1457122710051952 -2 1 1
853 1 2.5579886467457094 3.241725054940794 4.366962032092125 -2 -2 0
1984 1 3.91353280868137 5.225615009349026 5.2250170451170925 0 2 1
722 1 1.139858340114277 28.147504298027044 2.6308450522901308 3 -1 -1
1301 1 1.085109063091919 1.5343309623381864 0.5827978283900022 1 5 -1
1059 1 5.097277214480264 2.1540282349819435 4.359748023216446 0 2 1
1279 1 7.5984786449532535 4.165410310819179 1.6128394833984845 2 0 0
1800 1 6.984545120484205 1.1243280517343508 3.5526609486263996 -1 0 2
657 1 6.924958301575026 26.051128168883707 3.942784077998351 3 0 0
708 1 6.994552048470553 3.497469677026499 3.485018856795076 3 2 0
703 1 5.721137785796173 2.4084496698405777 1.8317730361782427 0 1 2
395 1 9.400737064244963 27.70398551628974 3.4390958020979436 3 0 -1
1365 1 8.895584231205108 3.8346439109357555 5.077777148855338 1 -1 1
1371 1 8.048443002157615 1.825409481557077 1.6002138003541484 1 0 0
1129 1 9.090348638661268 2.146543871229288 3.7073949355184137 0 1 2
553 1 9.89373622026987 3.150930736681927 1.8514770462536219 2 1 1
460 1 12.179806559592524 2.9016197181325483 2.4315073901483264 2 0 0
47 1 13.319252160858133 0.8323747780932022 1.6507722653286006 1 0 2
803 1 10.862774111273952 0.8093266145246195 2.199193919871739 -1 1 0
1109 1 0.9275876382173033 21.835913448390052 0.6861796928298125 0 0 1
59 1 12.530411045387359 1.165261755955854 3.9713073957533735 -1 -1 0
1910 1 13.099459165294192 3.560854637505166 4.487624523223757 -1 1 1
1045 1 2.9614717600468627 5.182734806983827 1.7527800334738524 -2 0 -1
831 1 4.003651848729368 6.587053579280783 3.561034002530406 0 0 1
1808 1 4.125006479798825 8.151916395645245 5.576942484547505 -1 1 2
1024 1 1.6913870366547352 7.180061937851984 2.5069195823948514 -1 0 -1
1720 1 1.7033107019960834 5.2729576387303885 3.683924700959151 -2 -1 1
295 1 0.534061514507016 5.183884004983557 1.847112062403027 1 -1 1
659 1 13.817155083849709 20.100076046849836 12.493959695176567 0 1 2
1204 1 3.8093401118624914 7.348223352127838 1.572801161068432 1 1 2
1289 1 13.908538875641336 24.11821134921373 13.803518825047243 0 1 2
487 1 12.781113826992382 5.937619662200348 1.4459721545785156 1 2 2
1554 1 0.5561111073083085 15.779417537959748 0.6481720302008651 1 2 -2
1155 1 5.770821091224114 5.40892409852436 1.7584852251087923 0 3 1
1588 1 8.325040903008377 5.45760323980724 3.2778689059892994 -1 -1 -1
806 1 8.391411351863644 6.590331117035799 1.2570952817918977 0 3 2
1375 1 6.071563997032029 7.458844788379333 2.8439392811438218 1 -1 -2
1179 1 1.1049715835808442 9.948995218890582 11.06541255220021 -1 0 -1
14 1 0.3478236241529884 27.23843006231676 10.067802567708275 -1 -2 0
1189 1 5.960257695490792 6.062309683215911 4.398043711734143 0 -1 0
1302 1 10.278225118555754 5.468803039947633 2.0471502110408504 0 1 -2
1585 1 6.2111411730183725 7.607615920701891 0.4738122815822902 3 -2 3
1182 1 12.431701251314774 5.8520021505691915 3.6098247096313405 -2 0 -2
669 1 9.948984517549631 7.387974168658345 3.0934142977975303 -2 0 2
345 1 11.20130596807925 8.12400032146888 1.3237577344878748 3 -2 -1
1272 1 12.03624202063161 8.333971321932822 4.303019620702473 1 1 -1
1158 1 0.5421870045971623 1.3784948956432843 4.6251543129089745 -2 1 1
455 1 10.754143955290036 4.200648690226403 3.852943885791391 -3 4 3
1969 1 3.5147982477861253 8.793363690516372 3.4582724074188027 0 0 0
1852 1 3.8907241362606793 9.910546897427466 1.7426556074462818 1 1 -1
1363 1 0.4498781434604511 8.336092070212224 3.9686416678839467 -1 1 -3
491 1 2.057286591496428 9.142579361164792 0.6901977699835057 1 -1 2
183 1 1.7555336924777742 10.027949535721584 2.927475340828324 3 -1 -4
1176 1 8.1911225653056 25.376293351974347 10.78379665403786 2 -1 -3
655 1 6.245976096696578 25.84224462200708 11.62845614511528 1 -1 -1
1713 1 0.8484474143933922 24.64570195660768 13.239286612195821 -1 0 0
129 1 5.909076534727878 9.591868738222521 1.9082987449754538 1 -3 4
902 1 5.48044881333236 11.020420170554251 3.567066987811354 3 -1 0
742 1 6.003204874804088 9.080360793040114 4.07904747716232 -1 0 -2
680 1 0.7024749997203698 22.707087848309563 6.026083179710939 1 -2 -2
259 1 8.187437706965026 8.911283517142289 2.2502005328592234 1 0 1
140 1 7.9928591281338 10.836819526705524 3.696853068161753 -2 0 -1
905 1 7.1190872997868935 11.981464906690174 1.87092626759682 -3 1 2
790 1 13.881054931693345 16.17538588541144 5.286981650154 3 -2 2
1776 1 13.447559469461915 11.446678434923708 2.518269889769736 3 4 -1
364 1 10.495627070451286 9.429754292448758 2.972492038577286 -2 1 2
85 1 9.0409753604198 11.086178980867196 1.612650478628378 1 -3 1
1209 1 11.6727860861749 10.64330202192091 1.1176427568732277 0 0 -1
1418 1 10.565016646743937 12.13972587917241 2.995434563575172 -2 2 3
1198 1 12.064218891357754 10.643494937156246 4.0693463997354336 -2 2 -3
1929 1 9.953104722733038 10.333164748514923 4.989830116748865 0 1 0
835 1 0.9721986238078381 12.63212600858426 2.7930187414664984 1 1 0
153 1 12.916118841945222 9.131584965172083 2.4618062580959807 0 2 -3
1260 1 10.682637316238122 12.56385953649953 0.2588781199389403 0 2 2
273 1 10.603497170086051 26.201826223880126 13.752846364413319 -3 2 0
1327 1 2.7282222625640697 16.061967882566947 1.8044039564896035 1 3 1
360 1 3.1268055307677556 11.96263121987091 3.1011910539514966 0 2 0
1854 1 2.706589893259684 14.285318435776894 3.587432006168452 1 2 1
1150 1 14.042643837351203 13.542216763614004 8.45126801533025 2 2 -1
1847 1 1.026807472260075 15.041997682476856 2.5470985979221905 0 -1 0
1828 1 4.88901500384712 14.479207803424405 2.8920595059487737 0 -2 0
1935 1 4.729353004185784 11.755525210684727 1.4953555601960318 4 0 0
63 1 9.133882217190457 13.591514734204285 2.2682285766201247 1 -1 -3
329 1 5.27073793390779 15.654756969002959 0.8092200439064344 0 0 0
1850 1 6.998257682955934 14.530424655428035 1.5074359179852648 -2 0 1
524 1 6.701148554372599 13.434721228701155 3.712934491357326 0 -1 -1
1074 1 8.382587133522616 15.183881594790387 3.9866688871357265 0 1 4
1324 1 8.883609794465947 16.03517930632823 2.0297920556538287 0 0 0
1298 1 13.851295661022538 15.268157785767938 2.1284621468431335 3 0 1
901 1 11.372335884749267 14.301975434764797 1.5909168837249854 2 1 3
1456 1 10.520720477348332 14.742843428708445 3.8306134034043677 -1 -2 -1
490 1 9.098395658369315 13.036328200997735 4.58245830719423 -4 2 3
1007 1 12.868471715569381 13.251559502949148 3.5768439893681987 -1 0 -1
231 1 13.729308314079114 8.002082108592802 0.5302572591654815 -3 2 0
1359 1 5.186294615226245 23.68682848082353 0.6409627998710674 1 -2 2
1244 1 13.345938647603685 26.136134961811514 9.313965994728632 0 -1 1
1091 1 1.0460970899560356 17.50902077352285 2.292962530305094 -2 -1 -1
661 1 3.183092863379751 13.542975530372328 1.5415696172057907 -2 -1 1
1595 1 1.9294990579567746 16.646889698370728 4.143746468422335 0 3 -1
1853 1 4.176466925059016 16.33521799192517 3.7676307862761074 0 -2 3
170 1 1.226703774758643 19.335423642627255 3.544093387964386 2 2 -3
313 1 3.180580264705495 18.15372946801559 2.782753279468378 2 -2 0
1029 1 2.052814467753379 19.504700593151625 0.48705739680155113 0 -3 1
65 1 4.403271670190627 19.578236199850885 1.1005073778604662 -2 0 2
31 1 10.44206335398442 20.517039047255615 0.5027014854000715 0 1 -2
312 1 6.563366757620809 16.094842515032035 2.8964844733590907 3 0 -1
376 1 4.944146192713428 19.65988186533167 3.3063434775308416 0 -2 -3
1188 1 5.365691338119792 17.68151747786137 2.28074060377461 0 -1 -2
347 1 8.08565866228718 17.85142520501728 3.1981401609338853 2 0 0
962 1 6.537117985822446 19.279666475520557 0.7941805990475544 -1 -1 3
1230 1 8.493616567492813 18.88618380040338 5.1295253255564575 1 3 -1
1655 1 6.226417581395828 18.359244877525448 4.476151551806198 0 0 -1
1794 1 7.75747387661646 27.682202194940785 11.00895931217134 -1 -1 2
206 1 9.628444002049871 19.62269280238273 3.10354483387712 -2 0 0
1060 1 11.160651880243636 16.56209416977304 2.0402738586599445 2 1 2
1682 1 11.485982542816767 18.612460319521702 1.4336521620236813 2 3 -1
174 1 12.374162329037002 16.245948562381365 3.5906276175495626 3 1 2
746 1 9.921124410439907 17.25771029650185 4.269755795382659 0 -2 3
1277 1 11.86739228578187 18.30785301955939 3.354925224055342 1 1 0
1131 1 13.405640475967617 17.070544683633578 1.0928333305670677 0 3 -3
554 1 14.148989831555362 18.93998385408195 2.5428460322034443 0 0 1
1891 1 14.10997212977772 9.733553458034475 5.132449643199599 -2 -2 2
290 1 13.725513746489328 7.882236156930936 10.848646030998832 -1 2 1
1576 1 3.0141381539544305 20.32471951299216 2.659474360107354 -2 1 1
1546 1 3.5804377944651744 22.138019764296082 1.290355035552386 -1 -4 0
968 1 2.2259546221983033 22.966805931530267 2.647176419928146 -2 -1 2
1561 1 4.24297768832864 21.77893170273331 3.6512720758399797 0 0 0
1317 1 5.268823097403807 23.53929665997604 2.997034003169372 4 -1 -1
336 1 0.4624655875770641 24.073607584869308 4.220029563174978 -1 -2 0
1288 1 7.075273461198145 14.337966973049456 13.658122822487474 0 0 4
765 1 1.4851643305084121 24.318529950910765 1.3618996330307807 1 -2 3
441 1 7.363629503815108 19.986495335483845 3.1768828267983302 -1 -1 0
1124 1 8.318954656000546 20.700148565279683 1.249683190756629 0 2 0
943 1 5.752062521951079 21.421005407290302 1.9144119135320403 -1 -1 -1
495 1 6.993494415881421 22.118502831910526 3.5040348963946655 -1 4 1
2000 1 7.289401440302015 22.68005272493256 1.2237128674074176 0 -2 0
1966 1 8.594110265921724 23.839502501223123 2.718882090362937 0 2 3
1944 1 9.859754363515592 23.628115962331464 4.6868228599323105 0 -2 4
278 1 5.436936241233963 24.85630532817291 9.56762639401185 1 -1 1
880 1 9.768518467424583 21.72170610403674 2.3321060896264045 1 -3 0
1325 1 12.29868077603809 20.58435109720888 2.8256199135248425 -1 -4 -2
126 1 14.038663286131781 20.41766589360283 4.958134253420425 1 -1 -1
1531 1 11.781653135538264 22.285871505063675 4.1115523143286765 0 -4 1
910 1 12.339284979102356 22.833513719059823 2.166726556994547 1 -3 1
736 1 9.07412449184828 21.120860872347556 4.455446770034951 0 -1 1
1187 1 13.131645123167502 20.170409825004775 0.6162873072882978 0 0 -1
1569 1 13.977054572865736 23.179814090685717 4.658645437235405 -3 1 0
1888 1 1.2539281767447286 26.859020409831444 4.898520904300265 1 3 0
804 1 2.917082539095737 0.6081859852901853 4.724615959125888 0 -1 1
856 1 2.263529320594971 26.99263007466108 0.7417850337036154 3 -2 3
556 1 3.505629659562781 25.067646619000428 1.4531290021321641 2 0 -1
876 1 3.0780160818746904 27.260285413654152 2.874493814915234 0 -1 1
274 1 2.4092216881931083 25.28785218598545 3.3295425956183307 0 -2 1
1565 1 4.878376536750584 25.826550041930787 3.092553061497027 1 -1 3
1497 1 0.3880999646278054 25.874011951001734 2.348679840608526 1 -2 0
1928 1 4.877185952397241 26.386078220209335 0.38344396705650513 -2 0 0
1428 1 5.075115859137083 0.39893513831056915 2.658970023409666 -1 3 2
1416 1 0.7478517742822125 1.3650437823527102 8.665615372078445 -2 0 -1
819 1 7.019683233603237 24.999224175625763 1.685301386333729 -1 -1 -2
1933 1 6.899512515836513 24.075847479356725 4.405081581998745 1 -1 3
419 1 9.175626114418815 25.890506231881062 4.84040594632595 1 -3 1
783 1 7.391325288058872 27.42765771969303 2.1873576050848493 0 -2 1
1257 1 9.391871605475304 25.93026455556261 1.7102432781451467 0 -1 -4
1954 1 5.072105669198006 27.462874719121857 4.62105068330958 -3 -1 2
384 1 9.12262105608768 18.584814137963505 0.8678969172068494 1 0 0
1653 1 11.894037669048982 26.864129012125723 3.247904042357874 1 2 -2
1684 1 10.93315843014845 24.68283349355572 2.9987952635862043 2 -3 1
592 1 5.314316211931206 28.10541996065949 11.383792492000913 1 -1 3
20 1 8.442870292043994 24.762782086393017 13.939999895756964 -1 0 2
712 1 13.106883297051475 25.1816082373061 4.16555854272546 -1 -2 -2
816 1 10.766875508875177 24.21708672285233 0.8908440343589978 -1 -1 -1
416 1 11.515198652885255 25.924023974881976 5.775444696300301 2 -1 0
1930 1 12.922262397193162 24.746644910608055 1.5088003948245572 -2 1 -1
1015 1 4.003791922535653 2.996215623326793 6.02414047124194 1 1 -1
1943 1 2.1467900161354234 4.3521425036237 6.428863941434321 3 -1 2
154 1 3.4763906781875464 2.124884070192163 8.256267288773122 2 1 1
946 1 12.980430345369745 1.1293987270014547 13.920722909004855 1 -1 -2
381 1 1.9231889339298798 2.1185535612724085 6.397367673301412 1 2 0
413 1 2.5729857389736996 28.124545595829403 9.698822515018536 -2 0 -2
80 1 4.104101757466188 4.241035296023883 7.9567434191733 -1 0 -2
86 1 5.0049885659786595 0.8743307392903532 9.01293636393091 3 -1 -1
797 1 7.256142264165784 2.386534908608599 5.693820922114563 -1 -2 0
636 1 6.851181663197983 0.8382218209082518 7.5028440315320575 3 0 -1
716 1 9.141121009953375 1.5283234195447801 6.587458467980937 1 -1 1
349 1 8.901890817204754 2.4652807233702214 8.760689570204892 1 3 1
1660 1 8.636900973683188 4.275678875428478 7.193766665271794 1 2 1
1358 1 7.903024287031432 27.915186835085727 5.353421527649027 1 -2 1
801 1 6.061330820382312 3.0599843537310325 7.9171571448828875 -2 1 1
1795 1 8.285311688624297 12.743214706387183 0.2710366172844165 -1 0 2
807 1 13.103317834279533 3.44913481712217 6.9704442612678825 -4 -3 1
1754 1 12.546845279424748 1.2233716598019433 6.110685133322922 1 4 1
958 1 10.90006245822538 2.954644885860936 7.1130410906911266 -1 -1 1
355 1 12.958261812118232 2.015721091142737 8.731497154886389 2 2 2
1364 1 10.87024141112043 2.3219302526952115 5.050750629634896 1 2 1
1064 1 10.951361063461572 0.8829818849564415 8.386226507803896 1 3 0
1411 1 9.978685576593827 4.636383164637728 8.912217519653252 0 -1 -2
1077 1 0.6278663322484195 5.835251716035049 6.127959151471448 2 0 1
2035 1 5.273738879229734 12.648315155148001 13.651968381345162 2 -2 0
62 1 2.219695848556515 7.205836836901542 4.885008460837584 0 -3 0
1316 1 1.741949165700069 3.6732655870909015 8.640637559122402 1 0 -1
2011 1 2.7347335762973026 6.2829570569497015 7.3343520821601755 3 0 -1
1991 1 5.241932525320763 2.953999309496222 9.891672454672076 1 -2 -3
638 1 4.023601430456395 8.048337112282937 7.731694402857374 1 0 2
95 1 5.105773611814391 7.852542570899953 9.587851022039825 1 0 1
246 1 1.3425008196010084 8.00914949694061 7.174374907909886 1 -2 1
309 1 6.106730805609157 4.398489405824011 5.872823450407014 0 1 0
1048 1 5.0336794824868285 6.131613161670769 7.070598354433995 -2 2 2
1071 1 6.549991615931713 8.811165330536626 7.667256178296263 1 0 -1
1047 1 6.350857605427896 7.74241649889927 5.8837049641206605 -1 0 2
1753 1 5.631924349863804 5.244056557863365 9.049856809969924 1 1 0
1330 1 7.561294097974115 6.027410715307276 7.802325661186255 2 1 -1
1201 1 7.922126605066804 5.964841987493341 5.305973419099082 2 0 -1
944 1 8.571523145593178 8.006395658241217 7.083140520838278 2 0 -1
204 1 8.287170764582061 7.974781343577675 4.428575888418075 2 -1 0
1989 1 11.489190400831832 4.635004970525236 5.829410240810096 -1 -1 2
93 1 13.838238848757832 5.522034357137585 5.525616322040388 -2 1 2
1166 1 10.32225305631815 6.243895877089243 4.929637922921011 1 0 0
314 1 6.155814302136757 6.864431654682072 13.235373611261602 0 -1 -2
1669 1 12.937960134267172 3.6889993645670955 10.329689133659919 -3 0 1
1009 1 10.443257972371386 6.308485278998191 7.60445852940406 1 3 1
1859 1 12.019488557165719 4.76330170618707 8.785239775972105 1 5 2
763 1 1.3018792515875504 9.549972686453144 5.627667468934058 1 3 2
1941 1 3.605547943299014 10.280794588705088 5.040064885620104 1 1 3
786 1 4.982596077008152 10.007470595881676 8.548320397489118 -1 -1 1
595 1 2.8760879965372546 8.719868938476944 9.415725270524952 0 0 0
1534 1 2.878155869379123 9.811299291288162 7.283963876687709 0 1 0
1117 1 4.254015619262559 11.720076360862922 7.278864630101033 -1 3 -1
1659 1 4.764579406354525 12.775649945673097 4.839568781571993 1 1 1
964 1 5.757652234685238 10.003905795871677 6.036163410179775 -2 -1 3
1809 1 8.738107368980291 9.763001319382127 8.304353338436457 2 3 1
253 1 7.905589865444633 9.78810715781888 5.877805469454888 1 -1 0
1644 1 6.974181480076426 11.28438186811786 7.974494337932844 0 3 1
1762 1 5.462232254067304 12.173089709067504 9.45209823466961 0 4 1
270 1 6.9298056769666125 11.978688531442982 5.696091026272802 -1 0 3
117 1 7.140058391619822 8.86838706890388 9.850561840863966 0 1 -2
189 1 7.407143230013571 11.218604528952646 10.621866804241606 2 -1 1
1925 1 13.270782009065998 11.227028590765835 6.4837432385861264 -2 -1 1
1267 1 11.973930144384608 9.252409098550118 6.310087859011074 -1 -1 2
1339 1 10.22860493430863 8.158282322689946 6.031425424607092 1 2 -1
1354 1 11.148471262243861 10.619429362234621 9.588000701817432 0 -1 -1
599 1 12.062647766354464 6.892194945806369 6.169092110091227 0 -1 2
162 1 10.718720907124165 10.750051288913358 7.348011535210493 0 0 -1
152 1 10.715919803607438 8.593165688767476 8.190108678427489 -1 0 -2
2038 1 13.033342865921588 9.422257105445553 8.397100847737685 1 -1 1
1690 1 1.870301202809684 11.913348392071846 4.863489876987175 -1 -3 -1
1945 1 3.8472424440658832 14.887050804717788 5.601139509004535 2 1 0
1849 1 2.9859840814773504 13.120246571856475 6.315252767007799 2 1 0
1579 1 2.399245853150118 14.872775072471619 7.669134112158386 -1 -4 2
1233 1 9.220296613264699 27.941661892686028 0.9191861146388384 -2 0 -1
884 1 4.437478301786708 14.292981878410519 8.645019900173434 0 -1 0
870 1 2.4747940165942284 12.845431715972058 9.133158430291363 2 -4 -2
1263 1 1.234863832806351 14.755111936366493 5.272343396784895 0 0 -2
1012 1 7.014984315268085 13.555456244333431 8.736353124569977 1 1 0
1806 1 5.62072851817363 13.447667755163634 7.021981196072963 2 1 1
1905 1 7.655111261317762 14.223690946117344 6.025872700008797 1 1 1
1709 1 5.85188926881938 15.243292006272359 4.9804243980086085 0 -2 1
1156 1 6.380121593474249 15.776226610743963 7.827939160352858 0 4 0
1384 1 8.799182983037364 11.914552788863412 6.844013109852529 1 1 0
499 1 8.893798729699158 14.992387549840004 8.809148839011138 1 -2 -1
1443 1 8.313768133333753 16.640431726330917 7.707206553595264 0 1 0
1995 1 6.65050666369595 14.823952482631677 10.46123027224257 -1 1 3
1004 1 8.879491477534314 12.294942326771764 8.838535831394566 0 0 -3
992 1 10.043972938038198 13.615272264792939 7.124761528348005 -1 -2 0
146 1 9.61404170794021 15.70361889233592 5.992113344989441 0 -1 0
1297 1 11.156978460242838 12.58437215077268 5.398361660227361 -1 0 -1
1255 1 11.997874256998921 12.98467333863423 7.760594289526662 2 4 0
284 1 11.915930459895486 14.938017584258565 5.5134798944736145 1 0 -2
1305 1 10.755089368919938 15.781469022316173 8.15644410585731 2 3 -1
1362 1 13.30190028116519 15.612679925343189 7.650955714820851 3 0 1
1745 1 13.879962721908813 12.345537249240326 10.823040415490178 -2 -1 0
754 1 3.89123819011728 16.34390808785939 8.619575588377835 1 -1 0
840 1 2.6550429192369296 16.667033670201647 6.370491284855993 0 -2 4
1502 1 3.58812371474376 18.222135435090756 4.990218615095977 -1 -1 1
580 1 4.070562520918052 18.319752167426223 7.500069254623775 2 -1 1
774 1 0.6811719322231286 17.726800337234792 5.611577936818567 -2 -2 -1
1274 1 1.6893857252193794 16.2071388052386 9.20425924845236 2 2 0
2031 1 1.2481981850596464 18.051723356692428 7.934054883119288 0 -1 2
1290 1 7.73900678102403 16.988890461762573 10.324822425861445 3 1 -2
2006 1 3.810600562079294 18.109601501822333 9.691318511308722 0 2 3
1706 1 5.225674630120452 16.769686369006557 6.305731358728289 -2 2 3
625 1 6.4776072505594655 18.989870721660033 7.021223902956167 2 -2 2
1887 1 7.922482679747415 18.733224231078232 8.697499503199937 1 -1 -1
984 1 7.527810784071577 16.81670877448944 5.378750518090924 0 0 2
696 1 4.6915532844528895 20.125266519678412 8.556039691271097 0 -1 -1
909 1 5.769949671014282 17.664648553280017 8.687393950609366 1 -1 3
1610 1 5.98567716459227 19.53011631894227 10.241016341597028 0 1 0
1751 1 12.83097397867489 19.340108103988292 6.85769318771765 0 0 2
662 1 11.912382027749631 17.362095277553927 5.8680175381114745 1 0 -3
1320 1 9.865262302430658 18.03575268272148 6.593946218744902 -1 2 1
1422 1 14.055032542571949 17.56133672096434 6.945997539648477 2 4 -1
123 1 11.780635094840916 17.588336159019214 8.21768930271286 1 0 0
76 1 10.749632644972117 20.035042501822716 7.46608904067463 -2 -2 0
877 1 13.371173086498139 19.182176574326455 9.424475910680274 1 -2 -1
1262 1 2.845082476474062 23.48374828355118 5.285463675346048 1 -1 1
1526 1 2.1547327509137695 21.117490211103778 4.654183434829714 2 3 1
532 1 2.917743181054609 21.719262202634297 6.624184758445069 2 -1 0
1153 1 2.10453907626862 19.592380133272854 6.4399420228216995 0 -1 0
397 1 1.556378598235749 3.8614019771183288 0.39257284190348374 2 3 2
1913 1 1.9290811786074815 23.234116581889154 7.953594031474716 1 1 2
1698 1 2.257585696227887 20.138566473761202 8.44010432110047 0 -2 -2
1283 1 4.364337959576874 22.384960769385188 8.265163370691345 -2 0 -1
1766 1 5.121343447694572 22.795156738946993 5.67458667636996 -1 1 2
1016 1 7.113154231718315 16.913036144182485 0.33672046542677736 1 -2 1
2044 1 6.651029187819648 20.49464732039924 5.069917243120847 1 0 1
222 1 4.485262303786084 20.402085165419578 5.9442493810661405 3 -2 0
963 1 6.189301048271069 21.58249557761063 7.246323813056122 2 0 2
171 1 8.375806799548013 22.588114746140477 8.024200243835267 -1 0 1
509 1 6.203542664598438 24.115649507480477 7.253975803643986 2 1 0
715 1 7.735625389688333 22.428711973219812 5.633086726767031 -1 -1 0
639 1 8.417936797822138 20.364291051174348 6.955476280713244 2 3 -1
1125 1 2.061892422168036 24.131979028701736 11.542783973620699 0 1 -1
799 1 11.03023019029489 19.993008798328226 5.118208169047974 0 -1 2
1199 1 10.019086871231664 22.13388691375166 6.425783015360005 -1 0 0
942 1 12.53626843930076 21.675760812324043 6.283192830659317 2 -2 3
850 1 11.089490655542482 22.93021742670836 8.32091381923952 1 -4 1
49 1 12.498198624930481 21.183748931472856 8.752413869101462 -3 0 1
282 1 13.670620231250968 23.09268773612694 7.517506698103179 2 -2 1
19 1 0.6467615274548311 27.59255973876465 6.989749949846995 -1 -3 1
1822 1 3.23833421809097 26.279327431615854 5.877647557012198 -1 -2 2
1100 1 3.1127026033100367 0.316787471384256 7.303593351815702 0 2 -1
894 1 1.4677433082728804 25.04490748888704 6.636861449378586 0 2 -2
165 1 2.5304454983145055 26.19412666894368 8.270892569855576 3 -3 0
515 1 3.77143604150206 24.30273898430257 7.258987383078818 -1 1 1
1540 1 0.9231223832091079 24.948277128234892 8.912977098725383 0 2 -1
1495 1 5.022323777781128 24.941109141940615 5.438305066927067 -1 -2 1
563 1 5.06721894851948 1.1079506597821425 6.2670555965006205 0 -1 1
606 1 5.035657139399737 26.33050077018131 7.626587690951324 -1 -1 1
1598 1 7.508649311448554 25.683509641341395 6.291528746729991 1 -1 0
682 1 6.756410494467507 26.788178868492473 9.272643712499628 -1 -1 1
1062 1 9.4580900551382 26.63078537475851 6.982077417937445 0 -2 -1
1711 1 9.313110872256317 24.253683818285296 7.028031555662032 -1 -2 0
1881 1 8.155160296431434 24.99291979664141 8.587132009056303 -1 1 0
1413 1 10.792476849565833 26.567614069593944 8.896722370826303 2 2 1
1132 1 10.60291597935841 27.96941666594074 5.351245929591534 -1 0 -2
110 1 11.85240411704098 23.80034687919415 5.873275901540751 1 0 1
1226 1 11.733509039575468 24.951989535420132 7.668485814825581 1 0 -2
407 1 13.501323752280648 27.17450641321315 5.153998562271569 0 -1 2
40 1 12.436089867609914 27.164233107616234 7.299045214893923 1 1 -2
388 1 7.365542253972524 8.665416820170858 14.081304255675931 1 3 -1
836 1 13.990247357059667 25.390517190704877 6.43059340907644 -4 -1 3
1395 1 1.2521335573393768 2.464020948491383 10.521312858765905 2 1 1
552 1 3.4066712957260474 2.039622318372699 11.016212639861255 -1 -2 -2
1964 1 2.921837465022528 4.24156304026899 10.626037584995322 2 -2 0
979 1 2.924460006565134 3.1656144510852684 12.817461558124336 5 0 1
2039 1 0.6673660500265796 10.054199691641935 8.749614755098161 3 1 3
342 1 13.289134376453367 15.870351047148986 11.593803754599394 0 -1 -1
8 1 8.663592823266583 27.973581211464257 8.957464162675713 0 -1 -1
769 1 5.846157591308191 2.5164803579323705 11.974312345210656 -3 -2 3
348 1 7.336983737990869 1.0003953083637236 12.798222329929509 0 2 0
541 1 9.023341397340925 2.816331574928019 11.31598737073187 2 -1 0
752 1 6.944534318852608 21.917354873987676 14.15279561613456 0 0 -1
1057 1 7.037759875940139 1.6163245424517023 10.05213301735989 0 3 0
1270 1 7.707778576885912 4.272240892685958 9.447447051347591 0 -1 -1
1326 1 7.58830396837845 3.6400667807222247 13.217762219370195 0 -2 -3
1265 1 4.633459553931635 1.9075794862341326 13.423092534131053 0 1 -3
160 1 9.889377972275767 0.9185097023664576 10.411367159131196 3 2 -1
473 1 11.061044189382118 2.69985092901557 9.690151383963197 1 -2 1
408 1 13.366077811090395 1.4223766381184837 11.339571359895487 2 0 -1
2021 1 12.246845353510846 0.2631942249713646 10.09048675865239 2 1 1
932 1 11.21657290181861 2.047911824573357 12.022195453127619 0 -1 3
1331 1 12.799972108886474 3.528419605488641 13.125022313447692 1 2 0
1218 1 7.989959280726174 26.912537435449984 13.246596174736684 1 -1 0
1414 1 3.2984621747789653 13.014309016000526 12.754379877775838 2 -1 -2
614 1 11.01407194117728 4.231710091115386 11.361639001626553 1 1 -1
937 1 6.1326165992994985 24.274699434906253 13.470118837682255 0 0 0
303 1 3.144774525895194 6.274277221923508 9.209974242811272 1 0 2
733 1 0.6589007327786762 3.5842680475488136 12.371619884346886 -3 0 -2
1420 1 0.393413598651284 5.607113507410971 13.556854439695751 2 2 -2
1503 1 2.636968694990637 5.208695310117122 12.821969384758253 0 1 -1
778 1 3.281987522450512 7.802056260142542 13.068690341834033 0 1 -1
1623 1 1.392647918570764 11.385613499259259 7.14441568713052 4 -1 1
1138 1 4.33872933321823 6.073408528849628 11.18592212341238 1 1 1
1593 1 4.94416330757435 4.417452383175392 13.046918179712488 0 2 0
934 1 7.042244430968701 6.662906855617193 10.240986215236816 1 -2 -1
1747 1 8.75459336112182 5.492012224381595 11.361550182831742 2 0 -1
252 1 6.630788114064321 4.792200280295648 11.380803880478869 2 0 -5
1884 1 9.440861956662447 7.6114971641384175 12.253925194532583 0 0 2
1830 1 5.209042500849983 8.169236478574916 11.716230023784988 3 1 -2
867 1 9.834019969207944 3.4855506074554135 13.319557468096974 -1 2 1
1575 1 8.151816260892929 5.997828448927614 13.543862850267846 0 3 0
1612 1 12.701974706171832 7.000586164070396 8.921352755022527 -2 0 1
781 1 12.620485828148 5.654104306485829 11.363888158977186 1 -1 -1
1229 1 1.4088524192671459 13.606395177038417 0.36114422929091083 0 0 1
56 1 9.16318842982287 7.471155370806251 9.202708694844002 -2 -3 -4
645 1 10.701701930387907 6.397437051172924 10.39987245465491 -1 -1 -1
1128 1 10.354525669633638 5.799964024144004 13.070033002929447 0 1 1
346 1 12.447659423966064 5.836492658640695 13.645713380821405 1 0 -1
144 1 0.9653064431965275 8.453148995103893 12.711316863486548 2 -1 -2
81 1 3.7449254154626046 10.811492652368614 13.482960977625075 4 -1 -2
1552 1 0.7270717314787117 7.73478106464375 9.499639355649299 2 3 1
1349 1 1.2867918052002956 11.110114925323332 13.019269315986998 0 0 1
1899 1 2.352107785991679 7.1032965684888385 11.263196941832451 1 0 -2
1394 1 3.3728165305143443 9.486560503153948 11.56935288640624 1 1 -1
6 1 3.091504407660448 10.825072267266766 9.340688229121104 4 -3 0
626 1 11.864554174644118 27.80041960602172 12.325392225792761 -3 -1 -3
458 1 6.476018421220605 12.895862687665447 11.79405251303944 0 1 1
1760 1 9.650744681004376 0.29452550602780597 12.84575989070834 0 1 0
1432 1 5.442367546424816 10.059311765989372 10.48372458252935 1 2 2
1924 1 6.086796716176076 10.378745333543373 12.555026169709496 -2 0 1
1915 1 7.431759770111401 8.291956655285396 11.830942324974465 1 0 1
1979 1 8.32810928804522 10.191787209804346 12.584962600153332 0 -2 -2
602 1 4.002027519666067 17.667338686338184 0.2810471992355158 1 -1 1
1823 1 3.752703899822258 3.209263594773462 1.0666758777959273 1 1 3
1524 1 13.020181565883021 9.9884666494474 11.469130426978593 2 -2 0
1496 1 11.886918455846368 7.857074395135821 12.796660159963212 0 1 -3
1536 1 11.56907712793972 8.582128122021095 10.36321509353249 0 0 -2
18 1 10.806741693241154 10.431656092627444 12.446988637523932 1 0 3
2032 1 13.996529322965422 7.633583156579952 6.625868687975865 1 0 3
1373 1 9.114137267390394 9.217698081425779 10.513516101432412 -2 1 0
1102 1 13.06719997552531 11.6059987739988 13.19959746672978 1 1 -1
1310 1 0.8382159884792091 5.66701701451484 11.232058817575707 1 2 1
2023 1 14.154795876411663 22.250860636882194 9.656520818541082 1 2 -1
1779 1 3.743258627534678 13.550257968205463 10.575417108602391 -1 0 -1
1008 1 1.2827299686251183 16.519718748633508 11.667622706115344 -1 -3 0
1873 1 4.450499723709469 11.59066031667405 11.338549904624726 2 -2 0
1959 1 13.685554202553295 24.567915593551945 11.657968617617708 0 -1 -1
442 1 2.1482612595146318 14.58400786815378 11.836863535906906 -1 -1 4
789 1 0.7100747521348559 13.41481694167011 12.746825716982377 -1 1 -2
1482 1 4.971682987747188 14.72104535844194 12.786268690787958 1 1 1
1942 1 3.542774436823284 15.857267913146577 10.629124816474096 2 0 -2
1900 1 2.0111361037230315 11.863213932510238 11.058108034515634 -1 2 0
1148 1 7.760286059098119 12.133445390237998 13.368692651600577 1 2 1
1874 1 8.77604749167511 13.306112250225592 10.817451011792377 2 1 0
1342 1 9.703395398591587 11.36719596298761 10.874164366964564 -1 2 -3
121 1 6.820699449094806 16.175284429996896 12.743845751602295 3 1 -2
4 1 9.747211248332524 16.05375722510513 11.331394299868748 -2 2 -1
221 1 8.912874567996353 14.845187683715782 12.813567050044064 1 1 -1
2013 1 5.413219279801338 17.04863847560427 11.124686478066815 -1 -3 3
1022 1 9.920926153538563 26.66292047909623 11.278212737921187 -2 1 1
375 1 12.781979480991616 14.232603589113504 9.998508513246186 0 0 0