LAMMPS (29 Oct 2020)
OMP_NUM_THREADS environment is not set. Defaulting to 1 thread. (src/comm.cpp:94)
  using 1 OpenMP thread(s) per MPI task
package omp 0
using multi-threaded neighbor list subroutines
package omp 2
set 2 OpenMP thread(s) per MPI task
using multi-threaded neighbor list subroutines
# units metal  #<----->
# dimension 3
# boundary p p p

# lattice fcc 3.5440
# region box block 0 8 0 8 0 8 units lattice
# create_box 1 box
# create_atoms 1 box

read_restart after_heating_press_300000_3600.lmp  #<----->
Reading restart file ...
  restart file = 29 Oct 2020, LAMMPS = 29 Oct 2020
  restoring atom style atomic from restart
  orthogonal box = (-0.053005081 -0.053005081 -0.053005081) to (28.405005 28.405005 28.405005)
  2 by 1 by 2 MPI processor grid
  pair style eam/alloy/omp stores no restart info
  2048 atoms
  read_restart CPU = 0.006 seconds
# read_restart after_cooling_press_200000_1800.lmp

variable P equal 300000
variable dt equal 0.001
variable loopVar loop 6
variable sys_press equal "press/10000"

# variable sim string "heating"  #<----->
variable sim string "cooling"



pair_style eam/alloy
pair_coeff * * Co_Zhou04.eam.alloy Co
Reading eam/alloy potential file Co_Zhou04.eam.alloy with DATE: 2018-03-30




neighbor 2 bin
neigh_modify every 10 check yes

thermo 1000
thermo_style custom step temp vol press ke pe density

timestep $(dt)
timestep 0.0010000000000000000208



# velocity all create 3100 123123

print """
yo aagadi
"""

yo aagadi

label ensemble

print """
Label pachadi solti, hos garam.
"""

Label pachadi solti, hos garam.

variable T equal 2300-${loopVar}*100  #<----->
variable T equal 2300-1*100  
# variable T equal 3250


reset_timestep 0
fix 1 all npt temp $T $T $(dt*100) iso $P $P $(dt*1000)
fix 1 all npt temp 2200 $T $(dt*100) iso $P $P $(dt*1000)
fix 1 all npt temp 2200 2200 $(dt*100) iso $P $P $(dt*1000)
fix 1 all npt temp 2200 2200 0.10000000000000000555 iso $P $P $(dt*1000)
fix 1 all npt temp 2200 2200 0.10000000000000000555 iso 300000 $P $(dt*1000)
fix 1 all npt temp 2200 2200 0.10000000000000000555 iso 300000 300000 $(dt*1000)
fix 1 all npt temp 2200 2200 0.10000000000000000555 iso 300000 300000 1
Resetting global fix info from restart file:
  fix style: npt/omp, fix ID: 1
print """
<--------------------------------------------------------------------->
<------------------ Equilibrating at temperature $T ----------------->
<--------------------------------------------------------------------->
"""

<--------------------------------------------------------------------->
<------------------ Equilibrating at temperature 2200 ----------------->
<--------------------------------------------------------------------->

fix temp all print 1000 "$(step) $(temp) $(press) ${sys_press} $(vol) $(ke) $(pe) $(density)" file temp_${sim}.txt screen no title  "step temp press pressGiga vol ke pe density"
fix temp all print 1000 "$(step) $(temp) $(press) ${sys_press} $(vol) $(ke) $(pe) $(density)" file temp_cooling.txt screen no title  "step temp press pressGiga vol ke pe density"
run 250000
All restart file global fix info was re-assigned
Last active /omp style is pair_style eam/alloy/omp
Neighbor list info ...
  update every 10 steps, delay 10 steps, check yes
  max neighbors/atom: 2000, page size: 100000
  master list distance cutoff = 7.6035394
  ghost atom cutoff = 7.6035394
  binsize = 3.8017697, bins = 8 8 8
  1 neighbor lists, perpetual/occasional/extra = 1 0 0
  (1) pair eam/alloy/omp, perpetual
      attributes: half, newton on, omp
      pair build: half/bin/atomonly/newton/omp
      stencil: half/bin/3d/newton
      bin: standard
Per MPI rank memory allocation (min/avg/max) = 4.324 | 4.325 | 4.325 Mbytes
Step Temp Volume Press KinEng PotEng Density 
       0      3576.89    23046.957    285274.65    946.42905   -7756.5619    8.6960889 
    1000    2235.3812    21924.232     305719.7    591.47183   -8034.8222    9.1414097 
    2000    2197.9596    21911.799    298038.16    581.57026   -8076.3651    9.1465965 
    3000    2222.5232    21948.883    295167.98    588.06967   -8077.3061    9.1311427 
    4000    2183.8134    21875.039    303270.02    577.82723   -8066.8946    9.1619669 
    5000    2178.0512    21842.046    308542.76    576.30257   -8051.0413    9.1758066 
    6000    2184.6865    21938.605    295339.95    578.05826   -8082.4339    9.1354207 
    7000    2112.7804    21864.845    295655.63    559.03222   -8104.8368    9.1662387 
    8000    2242.3658    21859.227    305228.47    593.31995   -8065.2064    9.1685942 
    9000    2212.5074    21838.313    308114.29    585.41954   -8061.5735     9.177375 
   10000    2183.4624    21949.522    292058.54    577.73437   -8087.4498    9.1308772 
   11000    2103.1068    21858.984    301527.17    556.47263   -8077.8857    9.1686964 
   12000    2215.2841    21874.567    298907.53    586.15425   -8086.6236    9.1621647 
   13000     2163.975    21858.529    306362.51    572.57809   -8059.6768     9.168887 
   14000    2219.2445    21834.507    306345.28    587.20214   -8071.2538    9.1789748 
   15000    2226.1057    21930.417     293131.1    589.01758   -8097.0687    9.1388317 
   16000    2155.4106    21868.001    301527.61    570.31198   -8075.3696    9.1649158 
   17000    2168.5302    21866.756    304459.15    573.78336   -8063.5225    9.1654375 
   18000    2183.3392    21846.729    304686.49    577.70176   -8069.7577    9.1738396 
   19000    2156.8581    21915.939    296053.93    570.69499   -8088.2953    9.1448687 
   20000    2201.9268    21897.102    296764.85    582.61995   -8088.5494    9.1527358 
   21000    2235.3395    21798.597    312300.51    591.46081   -8055.0202    9.1940956 
   22000    2196.4558    21923.046    298604.79    581.17235   -8070.1909    9.1419043 
   23000    2220.8335    21970.443    289107.57    587.62258   -8092.2059    9.1221823 
   24000    2192.9838     21887.88    301991.97    580.25369   -8063.9013    9.1565918 
   25000    2205.7228    21850.589    306263.01    583.62436   -8063.6646    9.1722191 
   26000    2207.7245     21973.45    288949.76    584.15401   -8098.4781    9.1209341 
   27000    2135.1392    21898.498    301232.62    564.94825   -8058.6314     9.152152 
   28000    2299.1231    21880.541    302095.61    608.33766   -8076.5195    9.1596631 
   29000    2243.5856    21855.897    301675.51    593.64269   -8086.1012    9.1699911 
   30000    2205.4903    21911.645    298572.44    583.56283   -8074.0106    9.1466609 
   31000    2114.1949    21876.936    298592.68    559.40649   -8085.2779    9.1611727 
   32000    2147.7174    21856.002    305455.23    568.27639    -8061.767    9.1699475 
   33000    2202.3585    21823.073    307775.98    582.73419   -8068.4826    9.1837839 
   34000    2113.2583    21977.368    287509.81    559.15866   -8093.3074    9.1193078 
   35000    2215.2125    21899.932    302477.72     586.1353    -8064.505    9.1515529 
   36000    2254.1742    21874.469    301599.51    596.44439   -8078.3372    9.1622059 
   37000    2172.7243    21920.305    296968.21    574.89311    -8074.907    9.1430472 
   38000    2196.7991    21886.487    300599.98     581.2632   -8074.9624     9.157175 
   39000    2175.4538    21826.672    312581.19    575.61532   -8044.0604    9.1822694 
   40000    2211.9846    21945.171    292370.12    585.28122   -8093.2005    9.1326875 
   41000    2219.1969    21924.644    294292.61    587.18956   -8092.1329     9.141238 
   42000    2217.6158    21765.333    313761.09    586.77121   -8062.5183    9.2081472 
   43000    2174.4628    21853.866    300400.37    575.35312   -8084.5774    9.1708437 
   44000    2212.2715    21982.859    289724.04    585.35712   -8085.6429      9.11703 
   45000    2181.8017    21809.427    304829.27    577.29495   -8086.0781    9.1895301 
   46000    2265.1058    21915.257    299387.31    599.33683   -8071.4233    9.1451536 
   47000    2224.3298     21879.61    298662.13    588.54768   -8088.3547    9.1600529 
   48000    2218.0382    21779.435    316972.86    586.88295   -8040.9753    9.2021849 
   49000    2229.1727    21919.706    300426.94     589.8291   -8063.9214    9.1432974 
   50000    2253.3634    21928.882    293101.12    596.22984   -8095.0738    9.1394713 
   51000    2285.5033    21904.064    300784.44    604.73394   -8070.1362    9.1498267 
   52000    2207.1565    21788.182    311032.18    584.00371   -8069.6551    9.1984905 
   53000    2179.7052    21892.986    300353.19    576.74021   -8072.3871    9.1544566 
   54000     2169.643    21936.999    291493.28    574.07781   -8094.1065    9.1360897 
   55000    2210.8144    21860.687    307043.86    584.97159   -8055.8921     9.167982 
   56000    2175.6956    21856.808    302812.82    575.67929    -8078.189    9.1696091 
   57000    2232.7766    21920.639    298514.17    590.78267   -8071.7031    9.1429079 
   58000    2211.5839    21935.202    292631.34    585.17518   -8094.9107    9.1368378 
   59000    2209.4435    21936.653    298356.88    584.60885   -8065.4763    9.1362338 
   60000    2195.2351    21825.538    312908.45    580.84936   -8042.5664    9.1827468 
   61000    2211.7649    21869.448     296549.1    585.22309   -8100.4636    9.1643091 
   62000     2171.722    21942.048    291674.74    574.62791   -8093.4641    9.1339874 
   63000     2173.526    21872.039    302791.91    575.10524   -8069.2146    9.1632236 
   64000     2181.364    21833.845    303145.35    577.17912   -8079.6227    9.1792529 
   65000    2232.4058    21915.708     296096.4    590.68456   -8087.6215     9.144965 
   66000     2187.742    21971.611    291150.49    578.86673   -8082.8073    9.1216976 
   67000    2172.8953    21862.711    304538.44    574.93836   -8063.0502    9.1671331 
   68000    2240.4759    21863.058    301728.73    592.81989   -8080.6364     9.166988 
   69000    2181.8374    21945.882    298399.24    577.30441   -8058.5518    9.1323914 
   70000      2160.52    21875.761    298722.89    571.66391   -8089.1344    9.1616646 
   71000    2203.2668    21861.192    300331.46    582.97453   -8088.0094    9.1677703 
   72000    2218.4929    21834.729    307581.42    587.00327   -8059.6558    9.1788813 
   73000     2172.772    21951.428    291631.16    574.90574   -8088.5801    9.1300844 
   74000     2183.122    21966.167    290411.79    577.64431   -8090.1668    9.1239581 
   75000    2199.7411    21860.555    304625.08    582.04164   -8065.9587    9.1680374 
   76000     2187.287    21876.871    302104.83    578.74634   -8069.2202    9.1611997 
   77000    2163.5901    21899.647    295427.63    572.47623   -8094.9437    9.1516719 
   78000    2198.4167    21920.213    294288.71    581.69121   -8090.1728    9.1430857 
   79000      2240.42    21808.138    310830.86    592.80508   -8062.1809    9.1900733 
   80000    2223.1837    21861.921    304119.37    588.24444   -8073.0996    9.1674646 
   81000     2182.431    21931.505    293056.37    577.46145   -8093.3869    9.1383781 
   82000    2182.9907    21866.166    303364.23    577.60955    -8069.637    9.1656848 
   83000    2207.9097     21869.46    301236.97    584.20302   -8080.3786    9.1643042 
   84000    2161.7932    21922.797    297145.72    572.00078   -8075.2791    9.1420079 
   85000    2234.4129    21805.038     308335.7    591.21564   -8072.5131    9.1913797 
   86000    2193.0812    21843.909    300768.85    580.27945   -8091.0961    9.1750238 
   87000    2166.6499    21915.236    293684.88    573.28586   -8092.1999    9.1451622 
   88000    2273.5328     21861.89    305399.77    601.56659   -8065.6575    9.1674776 
   89000    2220.9168    21851.431    301450.36    587.64464   -8088.5998    9.1718656 
   90000     2104.526    21848.685    301022.11    556.84813   -8081.4636    9.1730184 
   91000    2199.2918    21912.316    296065.15    581.92276    -8083.693    9.1463808 
   92000    2200.6743    21802.735    312293.49    582.28856   -8053.5306    9.1923508 
   93000    2290.7962    21874.404    304534.74    606.13441    -8069.838    9.1622331 
   94000    2185.8555    21893.256    298424.72    578.36756   -8080.4532    9.1543437 
   95000    2219.6245    21938.606    297499.47    587.30268   -8068.9226    9.1354201 
   96000    2218.6856    21897.162    298205.73    587.05425   -8084.7085    9.1527105 
   97000    2200.8981    21902.407    292785.74    582.34778   -8102.5426    9.1505189 
   98000      2251.32    21884.244    302077.41    595.68919   -8072.1929    9.1581135 
   99000    2176.9741    21844.224    308316.42    576.01758    -8055.822    9.1748914 
  100000    2099.9314    21962.561    293718.71    555.63242   -8068.0137    9.1254561 
  101000    2186.7229    21847.296    300127.98    578.59708    -8088.793    9.1736014 
  102000    2251.8466    21826.057    304107.19    595.82851   -8089.9122    9.1825282 
  103000    2180.0913    21848.012     299008.7    576.84238   -8099.8178    9.1733008 
  104000    2167.8899    21977.982    290796.99    573.61396   -8084.6398    9.1190532 
  105000    2127.2983    21809.794    303802.04     562.8736   -8085.9159    9.1893753 
  106000    2234.4376    21942.685    296403.01    591.22217    -8071.413     9.133722 
  107000    2175.5403    21832.852    306091.26    575.63821   -8072.6457    9.1796704 
  108000    2218.6202    21901.289     297311.4    587.03695   -8082.2607    9.1509859 
  109000    2148.9235    21937.385    294869.68    568.59552   -8079.9268    9.1359286 
  110000    2251.5277    21871.143       302542    595.74413   -8071.3762    9.1635993 
  111000    2211.3686    21920.256    299481.09    585.11821    -8060.641    9.1430678 
  112000    2234.5191    22014.176    286558.36    591.24373   -8092.8749    9.1040605 
  113000    2284.8195    21867.867     304439.5    604.55298   -8068.4604     9.164972 
  114000    2198.7455    21871.798    302591.45     581.7782   -8071.3573    9.1633246 
  115000    2144.7962    21889.378    298862.85    567.50346   -8080.0652    9.1559653 
  116000    2162.4966    21894.225    302227.12    572.18691   -8058.0209    9.1539385 
  117000    2215.8627    21946.771    295413.17    586.30732   -8076.5059    9.1320215 
  118000    2196.8303    21887.902    297654.43    581.27144   -8090.7555    9.1565828 
  119000     2190.049    21831.461    306856.08    579.47713   -8070.7715    9.1802554 
  120000    2231.5963    22002.822    286826.83    590.47037   -8093.9612    9.1087583 
  121000    2215.3893    21870.577    302670.87    586.18208   -8069.2799    9.1638361 
  122000    2270.4384    21830.648    308534.73    600.74781   -8064.0903    9.1805972 
  123000    2157.3355    21900.729    298788.36    570.82131   -8074.4143    9.1512199 
  124000    2239.9878     21958.96    298706.49    592.69074   -8056.4662    9.1269526 
  125000    2265.8037    21910.653    299731.55    599.52149   -8075.2655     9.147075 
  126000    2220.0104    21974.433    289142.41    587.40481   -8096.2071    9.1205259 
  127000    2211.8917    21943.704     297348.4    585.25664   -8064.3313    9.1332977 
  128000     2243.329     21834.52    305917.94     593.5748   -8072.5953    9.1789693 
  129000     2194.673    21921.338    296265.82    580.70063   -8074.0832    9.1426163 
  130000    2179.1562    21929.126    296544.78    576.59497   -8073.6749    9.1393695 
  131000    2187.9234    21762.837    309997.48    578.91472   -8085.3031    9.2092031 
  132000    2213.5382    21900.449     298707.5    585.69229   -8082.3521    9.1513367 
  133000    2202.2256    21911.885    294659.42    582.69902    -8091.864    9.1465609 
  134000    2236.8612    21887.048    301739.49    591.86345   -8069.9259    9.1569401 
  135000     2251.876    21876.147    300252.94    595.83628   -8087.4708    9.1615028 
  136000    2180.1827    22014.938    288080.85    576.86656   -8075.7788     9.103745 
  137000    2149.7161    21857.702    302558.69    568.80525    -8073.806    9.1692339 
  138000    2185.4577    21841.916    305740.77    578.26231    -8067.456    9.1758611 
  139000    2155.2171    21848.769    304956.89    570.26078   -8065.2612     9.172983 
  140000    2120.1307    21906.614    296646.63    560.97708   -8077.0545    9.1487615 
  141000     2284.794    21900.826     297150.3    604.54624   -8091.0327    9.1511792 
  142000    2160.5148    21740.165    315918.72    571.66253   -8059.4942    9.2188069 
  143000     2136.291    21934.031    291474.41    565.25303   -8094.2901    9.1373257 
  144000    2146.2584    21935.022    296612.01    567.89036   -8067.3619     9.136913 
  145000     2221.951    21874.544    304081.15    587.91827   -8063.1258    9.1621743 
  146000    2231.9868    21866.961     303302.7    590.57369   -8070.6766    9.1653517 
  147000    2181.6371    21951.478    291959.85     577.2514   -8090.4982    9.1300635 
  148000    2210.4157    21864.944     301372.6     584.8661   -8082.8408    9.1661971 
  149000    2248.5405    21884.884    302576.44    594.95372   -8068.9918    9.1578456 
  150000    2122.5352    21882.055    296579.86    561.61329    -8093.102    9.1590296 
  151000     2222.344    21879.413    303432.69    588.02225   -8059.9184    9.1601354 
  152000    2227.0817    21834.159    309252.15    589.27583   -8056.2558    9.1791211 
  153000    2169.0407    21931.823     290930.3    573.91843   -8100.2872    9.1382456 
  154000    2152.9122    21882.637    300651.19    569.65092   -8071.5383     9.158786 
  155000    2249.6177    21858.521    303246.31    595.23876    -8074.599    9.1688907 
  156000    2200.5316     21880.23    300991.37    582.25078   -8076.3201    9.1597934 
  157000    2137.5732    21956.958    292043.66    565.59228   -8079.7022    9.1277849 
  158000    2247.3429    21892.495    301234.44    594.63687   -8070.3373    9.1546618 
  159000    2212.2502    21784.531    311115.08    585.35148    -8068.248    9.2000322 
  160000      2221.25    21936.696    294352.66    587.73278   -8085.9691    9.1362159 
  161000    2142.7584    21880.831    300932.73    566.96426   -8071.1217    9.1595419 
  162000    2230.7034    21917.584    303360.14    590.23412    -8051.522    9.1441822 
  163000    2254.2772      21909.7    298934.02    596.47163   -8073.0238    9.1474729 
  164000    2254.5925    21977.281    285532.31    596.55507   -8113.1557     9.119344 
  165000    2185.4438    21803.877    308843.65    578.25862   -8069.4045    9.1918691 
  166000    2260.9865    21846.284     305535.6     598.2469   -8074.0532    9.1740266 
  167000    2161.4967    21936.423    295598.55    571.92234   -8071.8556    9.1363293 
  168000    2225.1304    21898.355    300324.93    588.75952   -8072.6971    9.1522117 
  169000    2222.6093    21982.102    292265.34    588.09246   -8072.1139    9.1173439 
  170000    2177.2972    21912.272    293740.34    576.10309   -8098.7957    9.1463991 
  171000     2164.605    21773.845    310081.29    572.74477   -8075.6634    9.2045473 
  172000    2284.5093    21929.262    294027.07    604.47092   -8097.5939    9.1393128 
  173000    2142.8809    21920.173    294125.39    566.99667   -8086.3048    9.1431023 
  174000    2229.0385    21876.153    302825.66    589.79359   -8066.1034    9.1615004 
  175000    2151.2372    21834.409    304118.58    569.20771   -8075.2549     9.179016 
  176000    2262.6561    21871.094    297311.86    598.68865   -8100.0035    9.1636198 
  177000    2209.1896    21927.002    297097.26    584.54167   -8069.5945    9.1402547 
  178000    2153.2345    21935.611    294794.15    569.73619   -8076.9028    9.1366677 
  179000    2254.7168    21874.955     298945.4    596.58795   -8092.6223    9.1620024 
  180000    2264.8502    21840.681    307053.98    599.26921   -8066.9551    9.1763797 
  181000     2155.683    21979.652    294055.93    570.38407   -8062.8647    9.1183602 
  182000    2233.9009    21956.853    294469.45    591.08016    -8072.734    9.1278283 
  183000    2144.9542    21849.167    304980.79    567.54528   -8065.6312    9.1728161 
  184000    2229.2116    21900.008    296532.03     589.8394   -8089.2788     9.151521 
  185000     2235.532    21925.026    297842.01    591.51174   -8074.8279    9.1410786 
  186000    2198.3933    21759.357    316759.47    581.68501   -8050.2471    9.2106759 
  187000     2217.696     21946.58    296708.64    586.79242    -8069.861    9.1321009 
  188000    2132.2675    21891.889    297965.39    564.18841   -8083.8955     9.154915 
  189000      2235.91     21926.76    297659.21    591.61176   -8075.8275    9.1403556 
  190000    2228.0758    21809.252    311229.59    589.53888    -8057.753    9.1896037 
  191000    2226.7383    21999.198    290706.26    589.18496   -8075.0436    9.1102588 
  192000    2207.9528    21941.768    294363.24    584.21442   -8083.2428    9.1341037 
  193000    2221.5198     21854.32    303715.72    587.80419   -8074.0642    9.1706529 
  194000    2273.6087    21874.672    303962.69    601.58667   -8067.7189    9.1621208 
  195000    2158.3458    21953.832    294012.73    571.08863   -8077.0054    9.1290844 
  196000    2178.0156    21924.977    292277.83    576.29317   -8097.1715    9.1410989 
  197000    2230.6495    21901.226    301286.08    590.21985   -8066.2043    9.1510124 
  198000    2216.3189    21912.298    298324.81    586.42806    -8076.887    9.1463884 
  199000    2220.8145    21900.285    298158.73    587.61756   -8083.3155    9.1514054 
  200000    2223.4918      21896.4    299253.73    588.32597    -8076.242    9.1530291 
  201000    2213.5981    21791.236    311267.69    585.70812   -8065.3694    9.1972012 
  202000    2234.4606    21919.876    293291.28    591.22825    -8099.185    9.1432263 
  203000    2150.4387    21866.028    303160.07    568.99643   -8067.1387    9.1657426 
  204000     2256.674    21810.099    312481.94    597.10583   -8054.2251    9.1892468 
  205000     2161.769    21983.337    283607.37    571.99438   -8110.1105     9.116832 
  206000    2168.1181    21895.795    297880.48    573.67434   -8083.1412    9.1532818 
  207000    2222.4166    21808.575    307404.37    588.04148   -8073.7394    9.1898891 
  208000    2233.2357    21919.771    298442.59    590.90416   -8070.4481    9.1432702 
  209000    2198.1866    21900.809    295293.18    581.63033   -8089.9451    9.1511863 
  210000    2245.3072    21929.419    298661.04    594.09822   -8067.5991    9.1392473 
  211000    2245.9726    21836.788    309656.44    594.27428   -8052.7672    9.1780158 
  212000    2195.0341     21891.29    299272.86    580.79618   -8078.4539    9.1551657 
  213000    2200.9198    21915.113    294816.64    582.35351   -8089.2619    9.1452133 
  214000    2182.9787    21880.603    303274.78    577.60637   -8060.7612    9.1596373 
  215000    2117.4543    21905.817    296365.33    560.26892   -8077.9488    9.1490945 
  216000    2221.7866    21919.538    297759.66    587.87478   -8076.2811    9.1433673 
  217000    2187.0744    21776.551    312727.17    578.69009   -8060.7675    9.2034034 
  218000    2153.6835    21941.553    290427.07      569.855   -8093.6711    9.1341931 
  219000    2209.7397    21958.836     295514.9    584.68721    -8067.619    9.1270042 
  220000    2152.9196    21800.114    304540.54    569.65288    -8094.349    9.1934558 
  221000    2224.5085    21939.627    296802.44    588.59497   -8067.9364    9.1349953 
  222000    2157.6227    21828.122     305118.7    570.89728   -8072.3793    9.1816597 
  223000    2248.9624    21914.122    297510.85    595.06537   -8076.4078    9.1456272 
  224000    2193.4637    21993.461    290327.21    580.38067   -8081.8918    9.1126354 
  225000    2244.1311    21854.217    307429.42    593.78703    -8059.162    9.1706965 
  226000    2229.0368    21857.018    299699.38    589.79314   -8095.9556    9.1695211 
  227000    2157.1802    21897.457    296672.82    570.78021   -8084.7619    9.1525872 
  228000    2166.7161    21919.176    298591.41    573.30337   -8065.3306    9.1435182 
  229000    2161.8019    21827.326    300860.16    572.00309   -8096.3198    9.1819943 
  230000    2229.9407    21843.856    304603.19     590.0323   -8074.8649     9.175046 
  231000    2260.4521     21842.47    304841.58     598.1055    -8078.541    9.1756282 
  232000     2190.361    21966.289    288508.68     579.5597   -8098.6518    9.1239075 
  233000    2222.7316    21936.984     295930.4    588.12482   -8078.5022    9.1360956 
  234000    2112.7052    21799.005    306881.07    559.01233   -8072.9862    9.1939235 
  235000    2136.7125     21946.03    295597.08    565.36455   -8069.6348    9.1323298 
  236000    2184.7172     21901.42    299864.35    578.06637   -8069.2782    9.1509312 
  237000    2281.0153    21804.193    313985.36    603.54642   -8051.5502    9.1917359 
  238000    2244.8486    21931.548    291484.53    593.97689   -8102.5815    9.1383603 
  239000    2185.1941    21903.845    298784.67    578.19256   -8071.7706     9.149918 
  240000    2217.0656    21849.522     309088.5    586.62562    -8055.927    9.1726669 
  241000    2242.5549    21903.836    301574.89    593.36997    -8064.935    9.1499217 
  242000     2207.829    21962.649    295481.14    584.18166   -8065.9252    9.1254197 
  243000    2254.1327    21933.422    294355.22    596.43342   -8089.1297    9.1375797 
  244000    2202.1121    21782.827    313105.46    582.66899   -8054.8817     9.200752 
  245000    2270.4733    21986.878    293410.21    600.75706   -8075.3391    9.1153636 
  246000    2144.5719    21878.549    300125.68    567.44412   -8073.3388     9.160497 
  247000    2227.0459    21824.276     308020.9    589.26635   -8064.0445    9.1832775 
  248000     2158.886    21898.754    300258.34    571.23157   -8065.8164    9.1520453 
  249000    2223.2067    21911.692    297007.62    588.25052    -8084.342    9.1466412 
  250000    2199.9053    21858.082    306432.78    582.08509    -8060.289    9.1690748 
Loop time of 503.787 on 8 procs for 250000 steps with 2048 atoms

Performance: 42.875 ns/day, 0.560 hours/ns, 496.241 timesteps/s
122.5% CPU use with 4 MPI tasks x 2 OpenMP threads

MPI task timing breakdown:
Section |  min time  |  avg time  |  max time  |%varavg| %total
---------------------------------------------------------------
Pair    | 296.88     | 300.98     | 304.54     |  18.7 | 59.74
Neigh   | 4.1029     | 4.124      | 4.1506     |   0.8 |  0.82
Comm    | 21.073     | 24.703     | 28.988     |  68.3 |  4.90
Output  | 0.0059728  | 0.011759   | 0.013691   |   3.1 |  0.00
Modify  | 172.91     | 173.09     | 173.36     |   1.4 | 34.36
Other   |            | 0.8787     |            |       |  0.17

Nlocal:        512.000 ave         520 max         506 min
Histogram: 2 0 0 0 0 0 0 1 0 1
Nghost:        2930.50 ave        2939 max        2921 min
Histogram: 1 0 0 0 0 1 1 0 0 1
Neighs:        43558.2 ave       44900 max       42077 min
Histogram: 1 0 0 0 1 0 1 0 0 1

Total # of neighbors = 174233
Ave neighs/atom = 85.074707
Neighbor list builds = 4481
Dangerous builds = 0


# fix 132 all momentum 100 linear 1 1 1 angular
fix out_file_1 all print 1000 "$(step) $(temp) $(press) ${sys_press} $(vol) $(ke) $(pe) $(density)" file one_phase_${sim}_press_$P_$T_.txt screen no title  "step temp press pressGiga vol ke pe density"
fix out_file_1 all print 1000 "$(step) $(temp) $(press) ${sys_press} $(vol) $(ke) $(pe) $(density)" file one_phase_cooling_press_$P_$T_.txt screen no title  "step temp press pressGiga vol ke pe density"
fix out_file_1 all print 1000 "$(step) $(temp) $(press) ${sys_press} $(vol) $(ke) $(pe) $(density)" file one_phase_cooling_press_300000_$T_.txt screen no title  "step temp press pressGiga vol ke pe density"
fix out_file_1 all print 1000 "$(step) $(temp) $(press) ${sys_press} $(vol) $(ke) $(pe) $(density)" file one_phase_cooling_press_300000_2200_.txt screen no title  "step temp press pressGiga vol ke pe density"

# dump 3 all custom 1000 traj_npt_new.lammpstrj id type x y z
run 50000
Last active /omp style is pair_style eam/alloy/omp
Per MPI rank memory allocation (min/avg/max) = 4.325 | 4.326 | 4.326 Mbytes
Step Temp Volume Press KinEng PotEng Density 
  250000    2199.9053    21858.082    306432.78    582.08509    -8060.289    9.1690748 
  251000    2235.4304    21792.542    310325.95    591.48486   -8067.1103    9.1966504 
  252000    2228.8251    21970.222     290419.7    589.73714   -8089.0747    9.1222741 
  253000     2236.103    21930.519    293658.02    591.66282   -8090.3104     9.138789 
  254000    2269.6225    21883.125    301171.14    600.53193   -8079.6929    9.1585815 
  255000    2246.7382    21928.934    297862.12    594.47684   -8075.9072    9.1394497 
  256000    2179.8931    21958.889     291736.1    576.78995   -8086.0651    9.1269819 
  257000    2201.0997    21881.062    303684.17    582.40112   -8064.8689     9.159445 
  258000    2229.6484    21857.333    301602.55    589.95497   -8082.6984    9.1693889 
  259000    2258.7262    21889.519    302484.22    597.64883   -8067.1957    9.1559064 
  260000    2096.5287    21906.415     297489.6    554.73209   -8074.5409    9.1488447 
  261000    2161.9304    21878.402    301948.71     572.0371    -8069.906    9.1605587 
  262000    2183.3703    21790.429    314328.83       577.71   -8051.2505    9.1975419 
  263000    2192.0845    21909.714    294940.59    580.01573   -8090.2039    9.1474669 
  264000    2183.4795    21972.059     292041.5    577.73888   -8075.6689    9.1215113 
  265000    2309.9321    21863.036    303986.31    611.19769    -8075.108    9.1669969 
  266000    2273.2857    21869.023    298391.19    601.50121    -8092.597    9.1644874 
  267000    2202.9184     22012.77    289522.38    582.88232   -8072.8088    9.1046417 
  268000    2225.2904    21855.689    302805.67    588.80186   -8075.8026    9.1700785 
  269000    2204.6142    21790.291    310794.07    583.33103   -8068.0371    9.1976002 
  270000     2177.969     21966.31    292259.42    576.28085   -8080.3698    9.1238986 
  271000    2223.6932    21902.913    296327.68    588.37925   -8089.0239    9.1503073 
  272000    2182.2538    21824.295    305707.93    577.41458   -8075.8132    9.1832697 
  273000    2256.2524    21950.071     297179.1    596.99428   -8066.4006    9.1306487 
  274000    2189.4291     21917.96    295805.94    579.31312   -8078.2042    9.1440257 
  275000    2145.6611    21883.618    300127.13    567.73231   -8071.7158    9.1583751 
  276000    2224.1691    21880.541    304852.99    588.50517   -8058.1917    9.1596631 
  277000    2155.4342    21910.622    296978.28    570.31822    -8077.598    9.1470878 
  278000    2185.6774    21810.555    307309.47    578.32044   -8070.1381    9.1890548 
  279000    2250.8628    21934.156     295077.7    595.56821   -8082.5119    9.1372738 
  280000    2168.6861    21924.323    292549.09    573.82461   -8095.7814    9.1413716 
  281000    2173.1579    21815.054    307169.56    575.00784   -8072.5358    9.1871596 
  282000    2165.6027    21841.805    306236.24    573.00877   -8062.9663    9.1759077 
  283000    2120.9775    22018.896    284891.08    561.20113   -8090.0057    9.1021087 
  284000    2234.4033    21855.356    304079.21    591.21309   -8074.9976    9.1702182 
  285000    2288.0526    21892.935    302340.01    605.40846    -8068.367    9.1544776 
  286000    2199.7098    21954.463    295270.29    582.03334   -8066.9012    9.1288223 
  287000    2153.0819    21853.659    303305.58    569.69582   -8073.6023    9.1709306 
  288000    2218.9606    21966.723    292552.34    587.12701    -8080.489    9.1237271 
  289000    2161.4465    21842.518    304221.25    571.90906   -8075.1219    9.1756083 
  290000    2239.0642    21929.487    294688.14    592.44634   -8082.0848    9.1392192 
  291000     2157.071    21918.922    300952.79    570.75131   -8056.9172    9.1436242 
  292000    2292.8393    21829.389    305240.79      606.675   -8082.5927    9.1811269 
  293000    2166.6226    21897.298    300020.45    573.27863   -8070.9413    9.1526536 
  294000    2201.7966    21929.462    289361.77    582.58551   -8112.5241    9.1392296 
  295000    2252.6372    21852.956    303293.88     596.0377   -8077.6122    9.1712254 
  296000    2187.4801    21839.437    303653.53    578.79743   -8076.0096    9.1769028 
  297000     2154.797    21850.928     298685.6    570.14962   -8094.6289    9.1720766 
  298000    2173.5013    21965.585     289606.7    575.09871   -8090.2164    9.1241997 
  299000    2203.1784    21830.707    308095.48    582.95113   -8062.2273    9.1805722 
  300000     2165.318    21834.075    302681.73    572.93344    -8083.505    9.1791563 
Loop time of 105.595 on 8 procs for 50000 steps with 2048 atoms

Performance: 40.911 ns/day, 0.587 hours/ns, 473.509 timesteps/s
123.1% CPU use with 4 MPI tasks x 2 OpenMP threads

MPI task timing breakdown:
Section |  min time  |  avg time  |  max time  |%varavg| %total
---------------------------------------------------------------
Pair    | 62.227     | 63.041     | 63.735     |   8.3 | 59.70
Neigh   | 0.8595     | 0.86374    | 0.86803    |   0.4 |  0.82
Comm    | 4.6153     | 5.3185     | 6.1723     |  30.0 |  5.04
Output  | 0.0012156  | 0.0019117  | 0.0021462  |   0.9 |  0.00
Modify  | 36.145     | 36.184     | 36.252     |   0.7 | 34.27
Other   |            | 0.1859     |            |       |  0.18

Nlocal:        512.000 ave         517 max         504 min
Histogram: 1 0 0 0 0 0 1 0 1 1
Nghost:        2941.25 ave        2952 max        2935 min
Histogram: 1 1 1 0 0 0 0 0 0 1
Neighs:        43515.5 ave       44836 max       41909 min
Histogram: 1 0 1 0 0 0 0 0 0 2

Total # of neighbors = 174062
Ave neighs/atom = 84.991211
Neighbor list builds = 894
Dangerous builds = 0

unfix temp
unfix out_file_1


write_data after_${sim}_press_$P_$T.in
write_data after_cooling_press_$P_$T.in
write_data after_cooling_press_300000_$T.in
write_data after_cooling_press_300000_2200.in
System init for write_data ...
Last active /omp style is pair_style eam/alloy/omp
write_restart after_${sim}_press_$P_$T.lmp
write_restart after_cooling_press_$P_$T.lmp
write_restart after_cooling_press_300000_$T.lmp
write_restart after_cooling_press_300000_2200.lmp
System init for write_restart ...
Last active /omp style is pair_style eam/alloy/omp

next loopVar  #<----->
jump in.lmp ensemble

print """
Label pachadi solti, hos garam.
"""

Label pachadi solti, hos garam.

variable T equal 2300-${loopVar}*100  #<----->
variable T equal 2300-2*100  
# variable T equal 3250


reset_timestep 0
fix 1 all npt temp $T $T $(dt*100) iso $P $P $(dt*1000)
fix 1 all npt temp 2100 $T $(dt*100) iso $P $P $(dt*1000)
fix 1 all npt temp 2100 2100 $(dt*100) iso $P $P $(dt*1000)
fix 1 all npt temp 2100 2100 0.10000000000000000555 iso $P $P $(dt*1000)
fix 1 all npt temp 2100 2100 0.10000000000000000555 iso 300000 $P $(dt*1000)
fix 1 all npt temp 2100 2100 0.10000000000000000555 iso 300000 300000 $(dt*1000)
fix 1 all npt temp 2100 2100 0.10000000000000000555 iso 300000 300000 1
print """
<--------------------------------------------------------------------->
<------------------ Equilibrating at temperature $T ----------------->
<--------------------------------------------------------------------->
"""

<--------------------------------------------------------------------->
<------------------ Equilibrating at temperature 2100 ----------------->
<--------------------------------------------------------------------->

fix temp all print 1000 "$(step) $(temp) $(press) ${sys_press} $(vol) $(ke) $(pe) $(density)" file temp_${sim}.txt screen no title  "step temp press pressGiga vol ke pe density"
fix temp all print 1000 "$(step) $(temp) $(press) ${sys_press} $(vol) $(ke) $(pe) $(density)" file temp_cooling.txt screen no title  "step temp press pressGiga vol ke pe density"
run 250000
Last active /omp style is pair_style eam/alloy/omp
Per MPI rank memory allocation (min/avg/max) = 4.325 | 4.326 | 4.326 Mbytes
Step Temp Volume Press KinEng PotEng Density 
       0     2165.318    21834.075    302681.73    572.93344    -8083.505    9.1791563 
    1000    2052.5296    21798.109    304453.11    543.09014   -8088.3793    9.1943017 
    2000    2123.1016    21846.081     302675.8    561.76318   -8079.4891    9.1741114 
    3000    2149.4037    21948.095    287729.17    568.72257   -8110.9718    9.1314706 
    4000    2053.6063    21757.791    303979.11    543.37501   -8104.6772    9.2113388 
    5000    2080.7705    21751.036    308349.04    550.56255   -8087.6469    9.2141996 
    6000    2071.4723    21730.598     305256.9    548.10229   -8110.2072    9.2228656 
    7000    2002.1937    21884.308     290082.2    529.77149   -8113.4026    9.1580866 
    8000    2107.5045    21822.769    299741.86    557.63625   -8105.3751     9.183912 
    9000    2031.7234    21745.888    305698.15    537.58489   -8100.5456    9.2163807 
   10000    2150.4912    21797.921    300410.53    569.01034   -8110.1437    9.1943807 
   11000    2099.6125    21832.395    298621.34    555.54804   -8096.7425    9.1798627 
   12000    2158.3186     21809.23    295913.66    571.08144   -8128.6957    9.1896132 
   13000    2133.8486    21828.162    299005.49    564.60676   -8099.5165     9.181643 
   14000    2093.4385    21803.589    299933.83    553.91445   -8106.1998    9.1919906 
   15000    2117.2954    21866.214    296441.16    560.22688   -8096.8828    9.1656647 
   16000    2076.1374    21762.088    306709.88    549.33664   -8089.5779    9.2095199 
   17000    2114.9224    21862.755     297885.5    559.59899   -8093.3911    9.1671147 
   18000    2080.0023     21793.15    299445.07    550.35928   -8113.7631    9.1963935 
   19000    2130.1133     21734.52    311502.34    563.61844   -8081.8858    9.2212014 
   20000    2025.5451    21765.391     305347.9    535.95015   -8093.4486    9.2081225 
   21000    2113.5507    21845.606    295155.03    559.23603   -8114.6084     9.174311 
   22000    2050.0652    21820.995    301181.55    542.43807   -8095.1916    9.1846586 
   23000    2133.2236    21857.828    297350.17    564.44139   -8100.4345    9.1691811 
   24000    2097.1319    21804.687    301607.59    554.89171   -8102.0201    9.1915279 
   25000    2108.1598    21904.428    289770.08    557.80962   -8117.3035    9.1496743 
   26000    2086.7523    21792.656    297819.21     552.1453   -8121.4029    9.1966022 
   27000    2129.0752    21736.322    309944.57    563.34375   -8090.6123    9.2204369 
   28000    2065.8386    21889.566    293214.58    546.61162   -8101.5787    9.1558868 
   29000    2112.7434    21908.272     290634.2    559.02244   -8107.4974    9.1480689 
   30000    2126.8307    21822.836    301532.23    562.74988    -8093.723    9.1838836 
   31000    2109.9987    21755.409    305089.38    558.29619   -8106.5515    9.2123474 
   32000    2119.5508    21807.292    298074.41    560.82364   -8113.9224      9.19043 
   33000    2071.6741    21891.626    294148.58    548.15568   -8098.3454    9.1550253 
   34000    2055.4009    21754.317       307769    543.84987   -8095.3524      9.21281 
   35000    2049.5448    21749.248    310468.76    542.30037   -8075.4466    9.2149572 
   36000    2056.9358    21787.849    298024.46      544.256    -8120.354     9.198631 
   37000    2138.3565    21879.352    290631.48    565.79955   -8124.2273    9.1601608 
   38000    2039.4652    21782.459    304200.58    539.63335   -8093.7067    9.2009072 
   39000    2070.0509    21774.291    307403.95    547.72619   -8079.3513    9.2043588 
   40000     2055.101    21801.076    300256.15    543.77052   -8107.9961      9.19305 
   41000    2123.2888    21905.515    292759.52    561.81271   -8095.7943    9.1492204 
   42000    2161.6124     21796.59    299694.66    571.95294   -8116.9404    9.1949424 
   43000    2051.0304    21742.529    305352.99    542.69344   -8104.1562    9.2178045 
   44000    2037.1642    21827.193    302685.93     539.0245    -8081.758    9.1820505 
   45000    2055.6575    21841.854    298087.17    543.91775   -8099.4548    9.1758869 
   46000    2062.3997    21837.171    297544.85    545.70171   -8101.3041    9.1778549 
   47000    2083.8949     21766.39    306084.26    551.38925   -8090.4019    9.2076997 
   48000    2115.5955    21827.336    303081.11    559.77708   -8082.7741    9.1819901 
   49000    2036.5247    21856.898    295171.95    538.85531   -8101.7914    9.1695716 
   50000    2027.3373    21847.666    293253.59    536.42435   -8117.1496    9.1734462 
   51000    2092.1424    21766.174    308474.97    553.57149   -8082.7909    9.2077914 
   52000    2118.2286    21802.973    304131.26    560.47379   -8090.9591    9.1922502 
   53000    2097.5503    21798.997    299969.73     555.0024   -8112.5791    9.1939271 
   54000    2141.2253    21847.132    296727.08    566.55861   -8105.9026    9.1736701 
   55000    2015.8336    21834.801    296927.96    533.38054   -8103.6047    9.1788511 
   56000    2118.5522    21727.173    307998.62    560.55941   -8104.4724    9.2243194 
   57000    2090.5921    21738.295    304903.16     553.1613   -8112.9632    9.2195999 
   58000     2065.178    21742.714    304170.48    546.43683   -8117.1678    9.2177263 
   59000     2131.324    21923.472    287952.75    563.93876   -8118.4452    9.1417266 
   60000    2042.0657    21769.788    299469.83    540.32144   -8125.1886    9.2062626 
   61000     2074.048     21713.59    311676.33    548.78381   -8091.0415    9.2300898 
   62000    2126.7464     21856.05    298735.45    562.72757   -8090.1233    9.1699273 
   63000    2033.6551    21822.878    296205.39    538.09603   -8111.9176    9.1838659 
   64000    2071.8641    21824.001    298410.32    548.20595   -8101.3595    9.1833934 
   65000    2122.9416    21679.067    313327.96    561.72082   -8097.8525    9.2447882 
   66000    2152.5694    21878.002    297477.47    569.56021   -8090.4348    9.1607261 
   67000     2061.374    21898.686    293892.66    545.43031   -8094.3958    9.1520735 
   68000    2113.2241    21811.928    299133.05    559.14962   -8108.7364    9.1884765 
   69000    2101.7723     21856.85    299836.97    556.11952   -8084.2899    9.1695917 
   70000    2187.6781    21775.991    302545.71    578.84983    -8113.148    9.2036402 
   71000    2100.6425    21755.973    305849.22    555.82059   -8100.3682    9.2121086 
   72000    2057.9819    21847.944    293354.27    544.53279     -8122.41    9.1733296 
   73000    2141.0524    21870.851       295489    566.51287   -8105.2264    9.1637216 
   74000    2160.2627    21819.952     303715.7    571.59581   -8085.1303    9.1850975 
   75000    2079.9204    21738.511     309082.5    550.33761   -8093.0468    9.2195085 
   76000    2169.5036    21898.733    292994.36    574.04094   -8105.9761    9.1520539 
   77000    2136.5718    21818.873    301037.06    565.32731   -8100.9804    9.1855517 
   78000    2131.7042    21795.096    302761.12    564.03939   -8101.5421    9.1955724 
   79000    2091.5103    21822.639    297861.44    553.40424   -8109.0275    9.1839665 
   80000    2062.8686    21820.183    297565.29    545.82578   -8111.8058    9.1850004 
   81000    2152.3437    21876.702    292815.25    569.50049   -8114.9317    9.1612704 
   82000    2060.2293    21750.576    308203.84    545.12745   -8089.5747    9.2143943 
   83000     2065.669    21730.165    305304.03    546.56676   -8112.8377    9.2230494 
   84000    2094.6963    21826.016    299529.76    554.24724   -8098.8537    9.1825455 
   85000    2204.2747    21862.433    296767.02    583.24121    -8108.791    9.1672499 
   86000    2078.7892     21821.78    300384.37    550.03831   -8095.8571    9.1843279 
   87000    2079.6218    21863.781    289604.25    550.25861     -8132.56    9.1666849 
   88000    2058.7574    21744.998    302154.91    544.73799   -8118.2715    9.2167581 
   89000    2107.5564    21742.952       305274    557.64998   -8105.1083    9.2176254 
   90000    2055.8378    21774.282    307185.94    543.96546   -8079.9116    9.2043627 
   91000     2096.675    21824.508    295242.01     554.7708   -8122.5918    9.1831799 
   92000    2073.0707    21922.758    283556.28    548.52522   -8132.9337    9.1420243 
   93000    2071.6643     21786.16    300999.05    548.15308    -8109.031    9.1993444 
   94000    2093.0344    21751.743     305883.6    553.80752   -8096.9537       9.2139 
   95000    2074.4463    21803.636    298337.69     548.8892   -8112.3026    9.1919709 
   96000    2069.5863    21861.277    294690.91    547.60326   -8110.3792    9.1677345 
   97000    2099.3001    21783.565    301969.79    555.46538   -8105.4136    9.2004403 
   98000    2058.8432    21696.183    313025.47    544.76069   -8084.7286     9.237495 
   99000    2113.7363    21790.836    303661.55    559.28515   -8092.7028    9.1973703 
  100000    2069.6378    21855.249    293137.16    547.61688    -8116.753    9.1702634 
  101000    2151.2825    21807.187     300462.6     569.2197   -8107.2224    9.1904739 
  102000    2076.2201    21738.459    305674.16    549.35854   -8106.9315    9.2195305 
  103000    2112.5589    21830.306    300191.85    558.97362   -8097.4263     9.180741 
  104000    2062.1169    21848.649    293385.76    545.62688   -8116.9361    9.1730333 
  105000    2082.5788    21839.922    298567.05    551.04101   -8098.2686    9.1766987 
  106000    2086.5897    21755.487    307693.17    552.10228   -8091.5918    9.2123144 
  107000    2057.6198     21815.86    303314.04    544.43699   -8085.5123    9.1868203 
  108000    2147.0593    21910.017    289077.55    568.10227   -8116.0706    9.1473406 
  109000    2052.5798    21777.736    298678.29    543.10343   -8123.9082    9.2029028 
  110000    2127.5773    21840.043    299187.88    562.94742   -8094.9964    9.1766481 
  111000    2121.7269     21758.73    308272.89    561.39944   -8089.2901    9.2109416 
  112000    2111.6899    21831.762    295826.52    558.74367   -8115.4833    9.1801288 
  113000    2070.2483     21909.66    289290.68    547.77842   -8113.2661    9.1474896 
  114000    2092.3255    21770.947    302757.33    553.61996    -8112.166    9.2057725 
  115000    2106.4544    21809.578    304708.19    557.35838   -8081.3493    9.1894667 
  116000    2100.5452    21842.458    298685.92    555.79483   -8096.5929    9.1756335 
  117000    2092.3389    21825.399    298216.38     553.6235   -8106.6925    9.1828052 
  118000    2134.7283    21852.369    293790.95    564.83954   -8120.1119    9.1714719 
  119000     2108.247    21853.072    294927.54    557.83269    -8112.262    9.1711768 
  120000    2075.2438    21811.834    295383.62     549.1002     -8125.16    9.1885159 
  121000    2112.1836    21763.066    306234.18     558.8743   -8095.0365    9.2091061 
  122000    2065.0559    21736.459    307438.54    546.40453   -8098.5356    9.2203789 
  123000    2127.0359    21868.489    290086.53    562.80417   -8126.5963    9.1647114 
  124000     2086.252    21919.754    288472.63    552.01292   -8112.5057    9.1432771 
  125000    2098.2561    21813.386    301950.79    555.18916    -8090.757    9.1878623 
  126000    2114.6104    21808.676    301237.31    559.51642   -8102.6213    9.1898466 
  127000    2120.1723    21807.282    297307.91    560.98808   -8122.0627    9.1904339 
  128000    2142.3049    21819.795     301449.5    566.84428   -8098.0372    9.1851634 
  129000    2066.4777    21742.545    307809.49    546.78074   -8094.3276     9.217798 
  130000    2150.3593     21768.81    306715.56    568.97542   -8092.5647    9.2066761 
  131000    2062.2168    21770.334    305044.95    545.65333   -8098.0963    9.2060319 
  132000    2070.5507    21960.871    286666.59    547.85843   -8103.4829    9.1261585 
  133000    2095.8385    21897.565    291996.58    554.54947   -8105.8314     9.152542 
  134000    2154.6022    21779.144    299957.22    570.09807   -8121.9128    9.2023079 
  135000    2088.9421    21735.928    307520.11    552.72471   -8100.9892     9.220604 
  136000    2119.1115     21850.93    298463.18    560.70739   -8096.8572    9.1720756 
  137000    2075.7607    21737.181    305546.49    549.23696   -8109.3959    9.2200725 
  138000    2086.1476    21754.829     309149.1    551.98529   -8082.7523    9.2125929 
  139000    2062.2814    21818.928    296507.15     545.6704   -8111.5224    9.1855287 
  140000    2058.8871    21891.621    291845.88     544.7723   -8102.9852    9.1550273 
  141000    2089.1117    21798.778       296003    552.76959   -8125.8851    9.1940192 
  142000    2100.6499    21800.489    299066.71    555.82256   -8116.1953    9.1932977 
  143000    2134.7124    21800.826    300261.35    564.83533   -8110.3064    9.1931558 
  144000    2092.8985    21751.255    304455.63    553.77156   -8110.0096    9.2141069 
  145000    2077.1413    21872.534    294914.56    549.60228   -8103.1512    9.1630165 
  146000    2048.3795    21880.589    293828.45    541.99203   -8104.5681    9.1596432 
  147000    2119.5095    21792.839    304139.73    560.81272   -8090.8524    9.1965248 
  148000    2108.0586    21788.778    302385.76    557.78285   -8098.2601     9.198239 
  149000    2063.2821    21764.732    304014.56    545.93518   -8103.6762    9.2084014 
  150000    2174.7255    21850.311    295920.77    575.42261   -8108.4373    9.1723357 
  151000    2090.5487    21879.355    289648.62    553.14981    -8126.926    9.1601598 
  152000    2078.8238    21837.677    297554.31    550.04745   -8102.8613    9.1776423 
  153000    2035.0735    21731.954     305770.6    538.47133   -8109.6154    9.2222902 
  154000    2183.9267    21814.989    302806.57    577.85721   -8093.6027     9.187187 
  155000    2087.3309    21781.942     302540.6    552.29839   -8103.8887    9.2011258 
  156000    2077.9196    21841.591     294071.2    549.80821   -8119.2445    9.1759976 
  157000    2075.9457    21851.357    293583.31    549.28592   -8118.4941    9.1718968 
  158000    2165.9008    21716.888    307067.89    573.08764   -8113.7967     9.228688 
  159000    2096.2475    21779.449    305313.09     554.6577   -8092.7315     9.202179 
  160000    2106.4012    21803.518    295954.19    557.34431   -8127.4797    9.1920208 
  161000    2145.2816    21875.432    290527.67    567.63191   -8128.3791    9.1618024 
  162000    2093.5387    21861.535     298805.3    553.94095   -8087.2046    9.1676264 
  163000    2098.3756    21750.158    308333.88    555.22077   -8090.5834    9.2145713 
  164000     2054.053    21831.059    296763.76    543.49321   -8107.9686    9.1804246 
  165000     2131.924    21912.785    291680.95    564.09754   -8107.1577     9.146185 
  166000    2046.6167    21794.563    298370.49    541.52562   -8119.5319    9.1957974 
  167000    2110.3519    21834.468    297392.59    558.38966   -8108.4077    9.1789911 
  168000    2027.2698    21798.709    295291.08     536.4065   -8127.7352    9.1940483 
  169000     2071.931     21891.48     294252.6    548.22366   -8098.2391    9.1550862 
  170000    2124.7054    21776.141    305535.17    562.18753   -8097.1529    9.2035767 
  171000    2083.5291    21742.003    309404.47    551.29247   -8086.9693    9.2180276 
  172000    2130.5649    21842.829    296663.86    563.73792   -8103.2996    9.1754776 
  173000    2073.7837    21843.526    298449.15    548.71386    -8093.144    9.1751849 
  174000    2120.0541    21775.229    301245.97     560.9568   -8112.1766    9.2039621 
  175000     2122.849    21820.966    303923.81    561.69633   -8082.6233    9.1846705 
  176000    2118.3595     21833.24    297001.99    560.50842   -8112.1129    9.1795074 
  177000    2096.0319    21841.143    294807.59    554.60064   -8115.3392    9.1761858 
  178000    2088.0057    21806.101    302446.14    552.47695   -8092.7481    9.1909318 
  179000    2045.9844    21705.621    310365.87     541.3583   -8095.3182    9.2334787 
  180000    2106.5507    21811.522    297631.52    557.38388   -8118.2481    9.1886475 
  181000    2093.8401    21891.107    286826.33    554.02069   -8133.4393    9.1552422 
  182000    2192.8755    21820.686    298058.01    580.22502    -8113.821    9.1847886 
  183000    2105.6844    21853.816    296764.91    557.15464   -8105.3654    9.1708644 
  184000    2061.4918    21784.253    303002.73    545.46149   -8099.5546    9.2001498 
  185000    2137.8188    21754.834     305060.3    565.65727   -8109.7584    9.2125908 
  186000    2104.7857    21906.707    288755.42    556.91686   -8119.2549    9.1487225 
  187000     2031.886    21901.905    290872.94    537.62792   -8107.8699    9.1507284 
  188000    2086.4955    21804.555    301480.58    552.07736   -8100.4685    9.1915835 
  189000     2073.541    21753.462     305432.1    548.64965   -8099.6423    9.2131721 
  190000    2135.9976    21857.263    297064.34    565.17539   -8098.1681    9.1694182 
  191000     2091.636      21877.2    296037.79     553.4375   -8092.3907     9.161062 
  192000    2098.4981    21736.663    304668.48    555.25319   -8114.6811    9.2202923 
  193000     2119.381    21750.986    308383.31    560.77871   -8087.6334    9.2142207 
  194000    2103.3416    21774.523    302176.52    556.53475   -8107.1979    9.2042606 
  195000    2096.8343    21852.543    293887.81    554.81295   -8116.0653    9.1713986 
  196000    2058.0627    21847.445    296804.26    544.55416   -8095.9707    9.1735389 
  197000    2068.6927    21768.325    302679.25    547.36683    -8107.301    9.2068813 
  198000    2189.2619    21767.516    302270.75    579.26889   -8116.9666    9.2072234 
  199000    2080.5926    21741.968    309214.93    550.51548   -8087.3852    9.2180426 
  200000    2101.5426     21910.37    288301.68    556.05875   -8115.5776    9.1471933 
  201000    2058.2302    21834.508    296529.05    544.59849   -8108.3973    9.1789742 
  202000    2141.1708    21763.766    307262.06     566.5442   -8095.6582    9.2088099 
  203000    2196.8262    21831.559    300236.06    581.27036   -8099.3706    9.1802139 
  204000    2147.4171    21894.766    294514.55    568.19695   -8096.9874    9.1537121 
  205000    2123.0982    21853.473    298566.14    561.76228   -8095.9701    9.1710084 
  206000    2043.5186    21747.162    307322.37    540.70586   -8094.7648    9.2158408 
  207000    2176.0942    21849.089    298571.11    575.78477   -8099.8406    9.1728485 
  208000    2092.8011    21765.369    303284.65    553.74579   -8107.2186     9.208132 
  209000    2169.3161     21722.56    306748.99    573.99132   -8116.5548    9.2262783 
  210000    2064.1228    21786.397    301170.91    546.15765   -8109.0687    9.1992441 
  211000    2117.7586    21826.621    298350.79    560.34942   -8108.7445    9.1822911 
  212000    2051.2742    21885.808    292111.54    542.75797   -8108.4723    9.1574588 
  213000    2078.5295    21820.166    299007.27    549.96959   -8105.6816    9.1850073 
  214000    2080.0509    21735.773    307847.25    550.37213   -8098.8247      9.22067 
  215000     2140.224    21754.911    305785.22    566.29367   -8103.6453    9.2125584 
  216000    2054.8854    21865.511    297758.99    543.71345   -8087.0108    9.1659592 
  217000    2041.7248    21821.798    296394.41    540.23122   -8115.3094    9.1843205 
  218000    2077.1814    21830.468    299399.23    549.61289   -8096.7044    9.1806731 
  219000     2115.707    21758.571    304825.11    559.80658   -8104.0309    9.2110085 
  220000    2117.0274    21787.081    303990.95    560.15597    -8096.304    9.1989554 
  221000    2079.1257    21855.822    294226.98    550.12733   -8112.7976    9.1700227 
  222000    2130.0001    21824.974    298892.32    563.58849   -8105.2962    9.1829842 
  223000    2137.6785    21809.861    301282.88    565.62016   -8101.7831    9.1893472 
  224000    2020.8832     21805.19    300271.23    534.71665   -8096.4631    9.1913157 
  225000    2134.1428    21844.397    296972.01    564.68461   -8101.1806    9.1748188 
  226000    2118.0187    21839.853    297342.62    560.41824   -8101.9388    9.1767279 
  227000    2081.4629    21822.448    301340.58    550.74575   -8092.0945    9.1840471 
  228000    2131.4456    21865.245    298983.39    563.97096   -8090.2104     9.166071 
  229000    2163.7883    21793.473    299725.71    572.52869   -8117.9156    9.1962572 
  230000    2097.0003    21782.222    302070.65    554.85689   -8105.5223    9.2010076 
  231000    2095.2471    21893.128    288605.88    554.39298   -8123.2955    9.1543971 
  232000    2084.2566     21857.51    290294.41    551.48494   -8126.0974    9.1693145 
  233000    2142.6742     21797.27    305420.92    566.94199   -8091.5995    9.1946554 
  234000    2085.5919    21714.551    311106.97    551.83826   -8093.3121    9.2296812 
  235000    2121.4734    21845.385    296066.31    561.33235   -8110.5415    9.1744041 
  236000    2040.6996    21798.171    294988.63    539.95997   -8125.1224    9.1942755 
  237000     2110.481     21763.28    304412.83    558.42381   -8102.8643    9.2090158 
  238000    2155.6862    21709.878    315531.64    570.38491   -8081.0515    9.2316681 
  239000    2091.1401    21761.098    304088.28    553.30628   -8106.0846     9.209939 
  240000    2072.1494    21840.102    294778.29    548.28145   -8115.4476    9.1766233 
  241000    2122.0763    21830.819    296615.78    561.49186   -8114.8547    9.1805254 
  242000     2118.422    21752.347    307241.99    560.52496    -8095.433    9.2136442 
  243000     2150.423    21757.564    303994.34    568.99228   -8112.3262     9.211435 
  244000    2139.8678     21926.02     287133.6    566.19943   -8122.1761    9.1406642 
  245000    2047.0415    21802.934    297730.09      541.638    -8117.062     9.192267 
  246000    2073.9311    21791.159    303619.73    548.75286    -8092.352     9.197234 
  247000    2041.8028    21757.398    308434.31    540.25187   -8079.9027    9.2115054 
  248000     2093.533    21781.906    305625.17    553.93946   -8090.8133    9.2011411 
  249000    2115.8373    21834.239    295875.81    559.84107    -8118.924    9.1790874 
  250000    2074.5851     21908.38    290175.58    548.92592   -8111.1105     9.148024 
Loop time of 528.598 on 8 procs for 250000 steps with 2048 atoms

Performance: 40.863 ns/day, 0.587 hours/ns, 472.949 timesteps/s
121.8% CPU use with 4 MPI tasks x 2 OpenMP threads

MPI task timing breakdown:
Section |  min time  |  avg time  |  max time  |%varavg| %total
---------------------------------------------------------------
Pair    | 312.27     | 316.14     | 319.93     |  17.9 | 59.81
Neigh   | 4.1453     | 4.1803     | 4.2135     |   1.3 |  0.79
Comm    | 23.555     | 27.394     | 31.385     |  63.0 |  5.18
Output  | 0.006053   | 0.011666   | 0.013549   |   3.0 |  0.00
Modify  | 179.8      | 179.96     | 180.22     |   1.2 | 34.04
Other   |            | 0.9227     |            |       |  0.17

Nlocal:        512.000 ave         521 max         505 min
Histogram: 1 0 0 2 0 0 0 0 0 1
Nghost:        2916.75 ave        2928 max        2909 min
Histogram: 1 0 0 2 0 0 0 0 0 1
Neighs:        43389.0 ave       44402 max       42210 min
Histogram: 1 0 1 0 0 0 0 0 1 1

Total # of neighbors = 173556
Ave neighs/atom = 84.744141
Neighbor list builds = 4337
Dangerous builds = 0


# fix 132 all momentum 100 linear 1 1 1 angular
fix out_file_1 all print 1000 "$(step) $(temp) $(press) ${sys_press} $(vol) $(ke) $(pe) $(density)" file one_phase_${sim}_press_$P_$T_.txt screen no title  "step temp press pressGiga vol ke pe density"
fix out_file_1 all print 1000 "$(step) $(temp) $(press) ${sys_press} $(vol) $(ke) $(pe) $(density)" file one_phase_cooling_press_$P_$T_.txt screen no title  "step temp press pressGiga vol ke pe density"
fix out_file_1 all print 1000 "$(step) $(temp) $(press) ${sys_press} $(vol) $(ke) $(pe) $(density)" file one_phase_cooling_press_300000_$T_.txt screen no title  "step temp press pressGiga vol ke pe density"
fix out_file_1 all print 1000 "$(step) $(temp) $(press) ${sys_press} $(vol) $(ke) $(pe) $(density)" file one_phase_cooling_press_300000_2100_.txt screen no title  "step temp press pressGiga vol ke pe density"

# dump 3 all custom 1000 traj_npt_new.lammpstrj id type x y z
run 50000
Last active /omp style is pair_style eam/alloy/omp
Per MPI rank memory allocation (min/avg/max) = 4.325 | 4.326 | 4.326 Mbytes
Step Temp Volume Press KinEng PotEng Density 
  250000    2074.5851     21908.38    290175.58    548.92592   -8111.1105     9.148024 
  251000    2114.1361    21760.876    304102.23    559.39095   -8106.4828    9.2100329 
  252000    2099.5369    21775.983    303587.62    555.52806   -8095.8249    9.2036435 
  253000    2184.5224    21866.368    293032.17    578.01483     -8118.24    9.1656002 
  254000    2116.3685    21816.063    300883.34    559.98162   -8100.6085    9.1867348 
  255000     2090.009    21843.202     295918.8      553.007   -8108.8467    9.1753209 
  256000    2087.6179    21841.528    297645.13    552.37434   -8101.2217    9.1760241 
  257000    2087.7454     21818.79    300615.16    552.40808   -8096.8488    9.1855867 
  258000    2099.1696    21758.131    306531.93    555.43086   -8094.6595    9.2111951 
  259000    2091.8661    21734.256    305809.37    553.49839   -8111.6078    9.2213133 
  260000    2114.7453    21820.828    293258.09    559.55212   -8135.4616    9.1847286 
  261000    2090.7963    21853.678    295819.68    553.21532   -8105.7675    9.1709224 
  262000    2151.9017    21823.103     297893.2    569.38354   -8112.6166    9.1837713 
  263000    2047.5234    21726.388    306169.09    541.76551   -8105.5896    9.2246526 
  264000     2136.504    21951.191    286836.75    565.30939   -8111.0784    9.1301827 
  265000    2084.3857    21842.855    294164.82    551.51911     -8117.25    9.1754665 
  266000    2146.5658     21830.36    300307.18    567.97167   -8097.7121    9.1807182 
  267000    2082.9957    21820.258    301856.61    551.15133   -8091.3919    9.1849688 
  268000    2089.9889     21831.11    300834.64     553.0017   -8089.7765     9.180403 
  269000     2125.388    21845.504    294360.01    562.36815   -8118.3082    9.1743539 
  270000    2093.6297    21764.643    307720.06    553.96502   -8087.0357    9.2084389 
  271000    2129.0537    21828.902    300561.79    563.33805   -8097.0865    9.1813317 
  272000    2147.9167    21878.934     292024.2    568.32912   -8120.4218    9.1603361 
  273000    2030.7665    21839.856    295063.54    537.33171   -8110.9571    9.1767264 
  274000    2152.0274    21790.115    303770.34    569.41681   -8097.9171    9.1976745 
  275000    2111.5116    21759.967    308339.35    558.69651   -8089.5878    9.2104177 
  276000    2102.6427    21808.888    300095.83    556.34984   -8105.3463    9.1897574 
  277000    2067.5904    21821.657    296806.52    547.07515   -8113.8275    9.1843799 
  278000    2066.8774    21899.927    290390.79    546.88648   -8110.8516    9.1515551 
  279000    2149.9296    21824.874    300268.23    568.86173   -8098.8308     9.183026 
  280000    2133.2096    21740.431    310945.99    564.43769   -8082.0426    9.2186943 
  281000    2044.3233    21792.489    301905.12    540.91879   -8100.6141    9.1966727 
  282000    2087.6458    21861.235    297271.21    552.38172   -8095.1872    9.1677521 
  283000     2073.135    21871.613    291662.79    548.54223   -8116.7338    9.1634023 
  284000    2086.0497    21822.294    301862.83    551.95939   -8092.1953    9.1841118 
  285000    2084.5964    21751.382    306822.82    551.57487   -8096.9357    9.2140529 
  286000     2067.299    21822.738       304899    546.99804   -8075.7117     9.183925 
  287000    2069.0139     21874.25    296301.23     547.4518   -8092.8361    9.1622975 
  288000    2100.5499    21801.071    299226.03    555.79608   -8113.1286    9.1930522 
  289000    2101.2821    21757.432    308492.81    555.98982   -8085.8057     9.211491 
  290000    2124.2702    21806.645    302813.83    562.07237   -8092.1674    9.1907026 
  291000    2059.1113    21871.024    291523.78    544.83161   -8119.4973     9.163649 
  292000    2079.9564    21851.027    296208.97    550.34715   -8101.7576    9.1720351 
  293000    2105.1173    21769.376    303855.31    557.00461   -8107.4895    9.2064368 
  294000    2083.8946    21723.922    305009.95    551.38916   -8116.6444       9.2257 
  295000    2106.2837    21875.601    296972.06    557.31322   -8092.1704    9.1617317 
  296000    2073.9679    21816.798    300091.48    548.76262   -8102.3426    9.1864255 
  297000    2108.3071    21824.562    300801.65    557.84861   -8093.2014    9.1831573 
  298000    2078.7421    21724.441    310121.98    550.02585   -8091.2698    9.2254797 
  299000    2103.7393    21795.266    303432.44       556.64   -8095.1412    9.1955008 
  300000    2129.8301    21858.818    294663.52     563.5435    -8110.685    9.1687659 
Loop time of 105.117 on 8 procs for 50000 steps with 2048 atoms

Performance: 41.097 ns/day, 0.584 hours/ns, 475.661 timesteps/s
122.1% CPU use with 4 MPI tasks x 2 OpenMP threads

MPI task timing breakdown:
Section |  min time  |  avg time  |  max time  |%varavg| %total
---------------------------------------------------------------
Pair    | 62.349     | 62.896     | 63.527     |   6.9 | 59.83
Neigh   | 0.82579    | 0.82997    | 0.83458    |   0.4 |  0.79
Comm    | 4.3734     | 5.0042     | 5.5777     |  25.4 |  4.76
Output  | 0.0011642  | 0.0018278  | 0.0020522  |   0.9 |  0.00
Modify  | 36.172     | 36.202     | 36.255     |   0.5 | 34.44
Other   |            | 0.1829     |            |       |  0.17

Nlocal:        512.000 ave         516 max         506 min
Histogram: 1 0 0 0 0 0 1 0 1 1
Nghost:        2918.00 ave        2924 max        2912 min
Histogram: 1 1 0 0 0 0 0 0 1 1
Neighs:        43464.8 ave       44879 max       41871 min
Histogram: 1 1 0 0 0 0 0 0 0 2

Total # of neighbors = 173859
Ave neighs/atom = 84.892090
Neighbor list builds = 863
Dangerous builds = 0

unfix temp
unfix out_file_1


write_data after_${sim}_press_$P_$T.in
write_data after_cooling_press_$P_$T.in
write_data after_cooling_press_300000_$T.in
write_data after_cooling_press_300000_2100.in
System init for write_data ...
Last active /omp style is pair_style eam/alloy/omp
write_restart after_${sim}_press_$P_$T.lmp
write_restart after_cooling_press_$P_$T.lmp
write_restart after_cooling_press_300000_$T.lmp
write_restart after_cooling_press_300000_2100.lmp
System init for write_restart ...
Last active /omp style is pair_style eam/alloy/omp

next loopVar  #<----->
jump in.lmp ensemble

print """
Label pachadi solti, hos garam.
"""

Label pachadi solti, hos garam.

variable T equal 2300-${loopVar}*100  #<----->
variable T equal 2300-3*100  
# variable T equal 3250


reset_timestep 0
fix 1 all npt temp $T $T $(dt*100) iso $P $P $(dt*1000)
fix 1 all npt temp 2000 $T $(dt*100) iso $P $P $(dt*1000)
fix 1 all npt temp 2000 2000 $(dt*100) iso $P $P $(dt*1000)
fix 1 all npt temp 2000 2000 0.10000000000000000555 iso $P $P $(dt*1000)
fix 1 all npt temp 2000 2000 0.10000000000000000555 iso 300000 $P $(dt*1000)
fix 1 all npt temp 2000 2000 0.10000000000000000555 iso 300000 300000 $(dt*1000)
fix 1 all npt temp 2000 2000 0.10000000000000000555 iso 300000 300000 1
print """
<--------------------------------------------------------------------->
<------------------ Equilibrating at temperature $T ----------------->
<--------------------------------------------------------------------->
"""

<--------------------------------------------------------------------->
<------------------ Equilibrating at temperature 2000 ----------------->
<--------------------------------------------------------------------->

fix temp all print 1000 "$(step) $(temp) $(press) ${sys_press} $(vol) $(ke) $(pe) $(density)" file temp_${sim}.txt screen no title  "step temp press pressGiga vol ke pe density"
fix temp all print 1000 "$(step) $(temp) $(press) ${sys_press} $(vol) $(ke) $(pe) $(density)" file temp_cooling.txt screen no title  "step temp press pressGiga vol ke pe density"
run 250000
Last active /omp style is pair_style eam/alloy/omp
Per MPI rank memory allocation (min/avg/max) = 4.325 | 4.326 | 4.326 Mbytes
Step Temp Volume Press KinEng PotEng Density 
       0    2129.8301    21858.818    294663.52     563.5435    -8110.685    9.1687659 
    1000    1975.6295    21710.088    300615.05    522.74272   -8137.5761    9.2315789 
    2000    2067.4065    21708.654    306118.43     547.0265   -8121.0825    9.2321887 
    3000    1997.7938    21670.534    307745.09    528.60728    -8124.823    9.2484285 
    4000    2092.0026    21801.133    293363.65    553.53452   -8140.0424    9.1930263 
    5000    1991.8921    21776.194    295594.41    527.04572   -8132.5535    9.2035543 
    6000    2058.2168    21811.207     293332.3    544.59493   -8139.5214    9.1887801 
    7000    1966.3665    21724.863    302798.24    520.29177   -8121.0885    9.2253005 
    8000    2052.5087    21646.522    309221.97    543.08459   -8129.5589    9.2586875 
    9000    1970.2413    21668.713     305295.8    521.31701   -8131.2341    9.2492058 
   10000     2049.188    21749.941    299958.54    542.20595   -8126.3408    9.2146635 
   11000    2034.6356    21691.129    302717.42    538.35546   -8142.6716    9.2396476 
   12000    2075.5675    21729.559    304019.46    549.18584   -8118.7092    9.2233065 
   13000    2005.2985    21743.168    299598.07      530.593   -8133.1421    9.2175336 
   14000    1950.7827    21795.123    293404.34    516.16836   -8136.7203    9.1955611 
   15000    1957.0495    21778.218    291738.89    517.82652   -8150.5175    9.2026989 
   16000    1986.2274    21709.282    301234.54    525.54686    -8135.916    9.2319214 
   17000     1971.881    21640.862    308792.11    521.75088   -8127.9986     9.261109 
   18000    2034.8295    21640.806    310265.84    538.40676   -8121.8564    9.2611334 
   19000    2034.2507    21746.255    298296.58     538.2536   -8135.2406    9.2162252 
   20000     1976.041    21774.839    294230.31     522.8516   -8139.7765    9.2041272 
   21000    1954.1469    21738.752    296372.18     517.0585   -8142.2945    9.2194061 
   22000    1997.9801    21695.101    301997.79    528.65658   -8141.9525    9.2379561 
   23000    2041.9921    21699.519    306075.68    540.30196   -8118.5847    9.2360752 
   24000    1994.1931    21638.974    312984.25    527.65455   -8111.5541    9.2619172 
   25000    1983.1588    21671.252     306225.9    524.73492   -8130.5588     9.248122 
   26000    1955.8054    21733.567    297895.28    517.49733   -8142.9461    9.2216056 
   27000    2011.8794    21809.922    293612.37    532.33426   -8128.4761    9.1893215 
   28000    2021.6379    21723.404    297021.08    534.91633   -8151.1306    9.2259198 
   29000    2091.4173    21687.123    305208.56    553.37964   -8134.1244    9.2413541 
   30000    2011.7217    21658.232    308979.61    532.29255   -8126.7144    9.2536817 
   31000    2038.6157    21678.045     306309.5    539.40857   -8129.5768    9.2452243 
   32000    2044.7696    21779.624    293701.13    541.03688   -8143.0473    9.2021048 
   33000    1944.8886    21695.735    301430.79    514.60881   -8136.8485    9.2376861 
   34000    2039.2668     21731.94    299395.51    539.58085   -8138.7892    9.2222962 
   35000    1970.3074    21733.418    300983.39    521.33451   -8122.1196    9.2216691 
   36000     1997.763    21760.155    293614.66    528.59915   -8150.0282    9.2103382 
   37000    2009.2756     21787.94    295285.31    531.64531   -8133.8826    9.1985927 
   38000    1980.9386    21659.425    306440.36    524.14746   -8130.7538    9.2531721 
   39000    2043.8565    21684.953    306342.54    540.79527   -8126.6682     9.242279 
   40000     2008.949    21719.336    298676.93    531.55889    -8142.856     9.227648 
   41000    1973.3664    21778.982    293428.87    522.14391   -8143.5792    9.2023761 
   42000    2000.6435    21792.875     294376.9     529.3613    -8134.435    9.1965096 
   43000    1988.4894    21763.958       296117    526.14538   -8135.4245    9.2087287 
   44000    1986.1582    21781.469    298094.97    525.52855   -8121.5096    9.2013257 
   45000    1931.5282    21756.036    299800.73    511.07371    -8117.807    9.2120818 
   46000     2007.398    21653.961    311221.59    531.14852   -8115.8749     9.255507 
   47000    2038.7892    21697.129    307241.47    539.45448   -8115.1482    9.2370925 
   48000    2041.9237    21736.781    300109.11    540.28386   -8135.3676    9.2202421 
   49000    1957.5524    21749.439    295519.05    517.95959   -8148.5361     9.214876 
   50000    1918.0479    21745.674    294941.12    507.50688   -8146.4851    9.2164715 
   51000     1939.772    21816.941    294153.99    513.25497   -8121.1553    9.1863651 
   52000    1959.4413    21710.433    304226.11    518.45938   -8124.0676     9.231432 
   53000    1993.6138    21659.245    303772.46    527.50128   -8143.4725    9.2532488 
   54000    1991.4167    21736.021    298105.27    526.91993   -8137.8031    9.2205644 
   55000    2043.6433    21701.471    297865.36    540.73886   -8160.8821    9.2352442 
   56000    1996.2453    21714.492    299789.62    528.19755   -8141.6212    9.2297063 
   57000      1997.33    21642.212    308160.79    528.48457   -8135.9161    9.2605314 
   58000    2053.6301    21668.387     309744.3    543.38133   -8115.2538    9.2493449 
   59000    1974.9228    21701.312    303589.93    522.55572   -8126.0063     9.235312 
   60000    2004.2909    21742.047    301339.44     530.3264   -8120.8245    9.2180092 
   61000    1956.4824    21725.285    300097.75    517.67647   -8137.3998    9.2251213 
   62000    2039.8408    21729.836    302485.91    539.73273   -8122.0476     9.223189 
   63000    1996.1523    21713.649    302258.37    528.17295   -8130.6357    9.2300646 
   64000    1975.1409    21754.763    292780.43    522.61342   -8157.1474    9.2126209 
   65000    2019.5716    21763.229    293173.23    534.36958   -8152.0286    9.2090372 
   66000    1956.5766     21707.57    303495.79    517.70141   -8123.2927    9.2326495 
   67000    2022.2502    21695.351    304945.96    535.07834   -8125.7735    9.2378493 
   68000    1997.1636    21804.231    294172.38    528.44055   -8126.8026    9.1917199 
   69000    1978.5528    21781.541    291993.39    523.51621   -8146.6591    9.2012951 
   70000    2015.4269    21748.562    302104.74    533.27293   -8116.4724    9.2152476 
   71000     1990.285    21713.484       304472    526.62049   -8122.1789     9.230135 
   72000    2032.9328    21730.228    303150.29    537.90489   -8122.6103    9.2230227 
   73000    2038.7708    21750.491    296304.12    539.44961   -8148.5884    9.2144306 
   74000     2042.015    21842.288     291065.2    540.30801   -8131.0441    9.1757046 
   75000    1988.0939    21742.671    298416.75    526.04072    -8135.188    9.2177446 
   76000    2031.2628    21631.606    312607.94    537.46302   -8120.3087    9.2650719 
   77000    1974.9617    21674.735    309856.33    522.56601   -8110.3517     9.246636 
   78000    1961.8742    21699.374    303764.66    519.10311   -8126.7319    9.2361369 
   79000    2039.0255    21769.782    299449.09      539.517   -8125.4806    9.2062651 
   80000    1955.7049    21755.304     296206.1    517.47075   -8138.9974    9.2123917 
   81000    1949.2888    21747.172    291015.43    515.77308   -8165.2704    9.2158366 
   82000    1995.9509    21858.013     282779.2    528.11966   -8160.2774    9.1691037 
   83000    2022.1752    21724.497    301370.78    535.05849   -8129.4729    9.2254559 
   84000    2068.6667    21804.109    297278.01    547.35995   -8119.4705    9.1917715 
   85000    1942.0931    21770.227    298931.85    513.86913   -8117.9449    9.2060769 
   86000    2000.9935    21797.964    295351.62    529.45391   -8130.8641    9.1943628 
   87000    1965.8082    21747.634    304530.83    520.14404   -8103.1844    9.2156409 
   88000    1989.0226    21653.136    307797.43    526.28647   -8128.8848    9.2558597 
   89000    2030.6078    21713.557    301663.76    537.28972   -8136.0163    9.2301041 
   90000    1951.8682    21732.102    297254.71    516.45558   -8143.8482    9.2222275 
   91000    2008.5154     21875.08       283368    531.44418   -8155.0454    9.1619498 
   92000    1921.2783    21761.661    299937.95    508.36162   -8118.2677    9.2097008 
   93000    1957.3331    21714.707    303272.64    517.90156   -8121.3537    9.2296149 
   94000    2020.1673    21732.822    303017.92    534.52721   -8121.2118     9.221922 
   95000    2044.8543    21748.979    302066.06    541.05928   -8115.8546     9.215071 
   96000    1999.6915    21797.806    290000.59     529.1094   -8153.4085    9.1944291 
   97000    2007.3751    21818.355    286297.37    531.14245   -8165.2981    9.1857697 
   98000    2022.7415    21693.047    301550.56    535.20834   -8140.6195    9.2388307 
   99000    2066.4156    21723.606    303084.04    546.76432   -8123.6404    9.2258343 
  100000    2002.5188    21701.746    304357.02    529.85749   -8124.9771    9.2351274 
  101000    1976.2895    21710.493    300615.86    522.91734   -8138.3069    9.2314065 
  102000     1973.583    21815.709    289999.44    522.20122   -8143.1149     9.186884 
  103000    1990.2436    21766.483    294103.59    526.60953   -8147.4269    9.2076605 
  104000    2018.3775    21775.126    298563.03    534.05364   -8122.4797     9.204006 
  105000    1945.1756    21684.957    302322.07    514.68475   -8142.6752    9.2422772 
  106000    2017.6403    21745.435    299879.69    533.85858   -8129.7892    9.2165729 
  107000    2000.4457    21706.944    306404.79    529.30895   -8111.1058     9.232916 
  108000    1959.2851    21782.461    294729.07    518.41805   -8134.8108    9.2009064 
  109000    1946.0162    21803.623    292137.12    514.90716   -8137.2871    9.1919765 
  110000    2007.8754    21694.404    303486.58    531.27484   -8133.6528    9.2382525 
  111000    2013.6725    21692.265    301816.39    532.80871   -8139.7441    9.2391638 
  112000    1977.0565    21786.667    298285.52    523.12029   -8116.2006    9.1991301 
  113000    1986.3568    21744.034    300019.54    525.58111   -8129.4383    9.2171668 
  114000     2035.281    21729.925    302360.69    538.52624   -8122.9798    9.2231512 
  115000    1956.3083    21688.533    301823.36    517.63042   -8134.8329    9.2407535 
  116000    1985.0178     21785.65     293837.3    525.22682   -8140.9123    9.1995597 
  117000    1966.7901    21761.312    294410.59    520.40384   -8142.0031    9.2098486 
  118000    2002.7413    21712.303     304505.1    529.91637   -8121.8676     9.230637 
  119000    2037.3079    21679.981    307983.41    539.06253   -8122.2588    9.2443985 
  120000    2033.8314    21696.944    303295.04    538.14268   -8134.4834    9.2371711 
  121000    1966.9575    21699.354    304052.31    520.44814   -8126.9411    9.2361453 
  122000    1988.7339     21730.09    305762.46    526.21007   -8108.2192    9.2230814 
  123000      1998.88    21632.559    309167.25    528.89468   -8131.0984    9.2646636 
  124000    2081.8725    21727.823    305804.38    550.85414   -8114.4628    9.2240435 
  125000    1923.2846    21773.901    299155.07    508.89247   -8114.2235    9.2045236 
  126000    2004.1485    21790.379    288982.79    530.28872   -8161.5464    9.1975631 
  127000    1966.7562    21787.628    291256.43    520.39487   -8148.2682    9.1987246 
  128000    1979.4076    21731.667     299571.5    523.74237   -8129.5237    9.2224121 
  129000    2010.2468    21738.213    299181.17    531.90228   -8140.3249    9.2196348 
  130000    2046.4289    21561.839    317519.11     541.4759   -8127.5899    9.2950507 
  131000    2005.3784    21656.252    309665.51    530.61414   -8122.2488    9.2545277 
  132000    1991.7888    21767.043    298927.09     527.0184   -8123.1288    9.2074237 
  133000    1978.4154    21759.357    297738.44    523.47985   -8130.3489    9.2106761 
  134000    1952.8739    21688.475    303725.61    516.72169   -8134.1634    9.2407782 
[...]
  120000    1706.6387    21066.631    302070.44    451.56895   -8416.0413    9.5135473 
  121000    1712.7221    21064.289    297723.88    453.17859   -8439.5167    9.5146048 
  122000    1713.8116    21090.776    298788.73    453.46686    -8421.517    9.5026558 
  123000     1698.235    21047.405     301880.3    449.34536   -8426.4069    9.5222373 
  124000    1743.2901    21017.479    307182.21    461.26674   -8417.6155    9.5357957 
  125000    1688.2725    21009.567    309840.18    446.70932    -8404.834    9.5393869 
  126000    1702.4186     21026.19     308204.5    450.45234   -8405.8771    9.5318452 
  127000     1705.461    21061.786    302014.88    451.25733   -8419.4206    9.5157355 
  128000    1707.9228    21099.605    297525.26    451.90873   -8421.0217    9.4986795 
  129000    1711.8828    21072.964    299157.26    452.95651   -8425.6788     9.510688 
  130000    1698.3839    21069.048    301807.99    449.38478   -8416.1694    9.5124557 
  131000    1714.8429     21000.93    308377.81    453.73974   -8419.4354    9.5433101 
  132000    1708.7277    21022.894    307127.35     452.1217   -8413.8531    9.5333396 
  133000    1642.3985    21084.458    297169.77    434.57128   -8426.2909    9.5055035 
  134000     1715.763    21104.279    295165.93     453.9832   -8430.3244    9.4965757 
  135000    1688.5485    21065.248    299006.59    446.78237   -8431.1533    9.5141718 
  136000    1699.7683    21025.223    305429.33    449.75108   -8421.3919    9.5322837 
  137000    1709.0959    21052.313    303218.74     452.2191   -8417.2233    9.5200172 
  138000    1687.4852    21029.338    303418.05    446.50102   -8426.0322    9.5304184 
  139000    1719.6418    21052.609    303173.33    455.00951   -8417.1136    9.5198836 
  140000    1701.6486    21062.623    299855.95    450.24859   -8428.3291    9.5153574 
  141000    1676.9543    21155.716    291651.54     443.7146    -8419.295    9.4734862 
  142000    1677.9206    21090.828    294941.85    443.97026    -8436.919    9.5026323 
  143000    1661.2026    21074.464    298886.42    439.54675   -8422.6931     9.510011 
  144000    1697.6388    21077.106    302466.05    449.18763   -8409.5868    9.5088191 
  145000    1708.8812    21040.385    304500.47     452.1623   -8418.3992    9.5254145 
  146000    1725.2242    21020.774    308501.57    456.48659   -8408.3077    9.5343009 
  147000    1669.7189    20969.576       314744    441.80014   -8401.7256    9.5575794 
  148000     1711.817    21086.152    296946.58    452.93911   -8430.6332    9.5047398 
  149000    1688.1325    21102.523     294577.2    446.67229   -8436.4174    9.4973663 
  150000    1693.3951     21122.38    295814.19    448.06476   -8418.0976    9.4884378 
  151000    1697.7934    21047.618    303008.02    449.22851   -8417.6501    9.5221412 
  152000    1753.6295    20972.078    315361.54    464.00251   -8403.9739     9.556439 
  153000    1759.0197    21024.429    308373.11    465.42872   -8408.9172    9.5326434 
  154000      1660.37    21074.625    301015.08    439.32645   -8412.3113    9.5099386 
  155000    1737.6488    21078.509    297925.37    459.77409   -8432.9595    9.5081863 
  156000     1707.396    21087.855    297869.46    451.76933   -8427.8607    9.5039722 
  157000    1714.3996    21089.542    297893.26    453.62246   -8425.7526    9.5032119 
  158000    1730.8361    21054.107    301654.16    457.97146   -8425.1601    9.5192063 
  159000    1715.6494    21026.046    306888.03    453.95313   -8413.5344    9.5319104 
  160000    1653.2295    20947.929    316927.21    437.43712   -8402.5445     9.567456 
  161000    1664.7497    21025.754    307645.16     440.4853   -8407.0695    9.5320429 
  162000    1706.5946    21044.805    300110.53    451.55728   -8435.3032    9.5234139 
  163000    1683.2458    21089.821    298242.22    445.37929   -8419.3304    9.5030861 
  164000    1741.7507    21098.493    297318.95    460.85943   -8425.3462    9.4991803 
  165000    1686.1254    21025.457    306220.16    446.14122   -8415.3179    9.5321772 
  166000    1711.6146    20939.636    317770.65    452.88554   -8404.8789    9.5712451 
  167000    1684.8956    21003.288    306204.67    445.81582   -8426.1693    9.5422385 
  168000    1692.3838    21045.669    303360.19    447.79718   -8420.0855    9.5230228 
  169000    1726.4262    21096.599     297845.1    456.80462   -8423.1816    9.5000332 
  170000    1692.2151    21070.595    297364.08    447.75252   -8435.9035    9.5117573 
  171000    1707.9478     21077.41    299208.06    451.91534   -8422.4338    9.5086817 
  172000    1718.1581    21038.839    302116.65    454.61692   -8429.7668    9.5261143 
  173000    1683.2483     21078.86    300780.45    445.37995   -8412.0267    9.5080278 
  174000    1676.5126    21115.076     293693.1    443.59771   -8431.6746      9.49172 
  175000    1686.0847    21132.214    292105.87    446.13045   -8431.1958     9.484022 
  176000    1645.1723    21114.175    294589.85    435.30522   -8422.6974    9.4921247 
  177000     1685.705     21052.17    297474.73    446.02999   -8443.6406     9.520082 
  178000    1736.2261    21054.062    302568.88    459.39764   -8420.8149    9.5192266 
  179000    1675.8816    20990.954    304204.29    443.43077   -8439.5718    9.5478456 
  180000    1746.1671    21026.052    305965.62    462.02798    -8420.801    9.5319076 
  181000    1729.4239    21061.038    299660.07    457.59781   -8431.3873    9.5160737 
  182000    1712.1566     21101.28    297392.31    453.02896   -8419.6408    9.4979257 
  183000    1673.6024    21086.095     298646.3     442.8277    -8420.024    9.5047653 
  184000    1698.7968    21045.215    302211.44    449.49402   -8427.5065    9.5232284 
  185000    1694.9811    21005.221    309095.28    448.48441   -8413.0546    9.5413604 
  186000    1716.0316    21015.351     310870.3    454.05427   -8401.0674    9.5367612 
  187000    1698.8542     21069.16    298311.29     449.5092   -8432.7506    9.5124053 
  188000    1643.6747    21063.709    299112.91    434.90895   -8430.4077    9.5148666 
  189000    1734.3092    21078.439    297676.28    458.89044   -8433.1967    9.5082175 
  190000     1708.551    21062.228     300076.7    452.07494   -8427.9163    9.5155361 
  191000    1696.2839    21066.308    301921.83    448.82911   -8416.1765    9.5136931 
  192000    1653.4257    21045.167    302369.17    437.48902   -8420.8983      9.52325 
  193000    1713.5385     21030.38    303646.55    453.39461   -8425.8963    9.5299459 
  194000    1711.5599    21092.196    298289.76    452.87107   -8424.4972     9.502016 
  195000     1697.235    21138.218    289341.85    449.08076   -8442.2727    9.4813283 
  196000    1651.9891    21084.131    294435.59    437.10891   -8441.1231    9.5056509 
  197000    1710.9086    21094.469    297086.89    452.69875   -8425.1219    9.5009923 
  198000    1673.1778    21044.979    302190.58    442.71534   -8423.9385     9.523335 
  199000    1646.2881    21059.647    303496.93    435.60045   -8409.3934    9.5167019 
  200000    1748.4855    21106.543    297558.18    462.64143   -8417.4851     9.495557 
  201000    1680.3403    21081.524    295814.85     444.6105   -8439.5371    9.5068265 
  202000    1707.3796    21126.797    292438.94    451.76498   -8432.5295     9.486454 
  203000    1649.7965    21066.091    299846.65    436.52876   -8424.9227    9.5137911 
  204000    1730.9644    21032.216    305976.65    458.00543   -8415.7156     9.529114 
  205000    1662.3309    20991.829    312089.25    439.84531   -8401.3279    9.5474474 
  206000    1737.2064    21053.553    302368.13    459.65703   -8421.1407    9.5194566 
  207000    1663.9959    21054.306    299026.78    440.28586    -8433.672    9.5191161 
  208000    1689.5744    21124.479    294688.06     447.0538   -8424.6397    9.4874949 
  209000    1686.4422    21143.847    288736.38    446.22504   -8439.9597    9.4788044 
  210000     1693.962     21098.61    295215.99    448.21475   -8433.6332    9.4991274 
  211000    1689.0778    21061.012    305550.28    446.92243   -8400.9176    9.5160855 
  212000    1683.0696    21029.073    304854.02    445.33266   -8420.3454    9.5305384 
  213000    1699.5593    21042.765    302444.96    449.69577   -8425.3034    9.5243372 
  214000    1708.8647    21079.474    298235.32    452.15794   -8428.3365    9.5077508 
  215000    1702.9501    21143.352    291184.86    450.59298   -8432.4038    9.4790261 
  216000     1706.245    21119.023    294150.38    451.46479   -8425.6876     9.489946 
  217000    1677.5616    21071.257     299009.4    443.87527   -8425.3555    9.5114586 
  218000    1714.4282      21050.6     306584.4    453.63002   -8403.4317    9.5207921 
  219000    1693.9974    21013.276    305008.47    448.22411   -8425.0563    9.5377032 
  220000     1664.062    21087.094    299071.58    440.30334   -8417.2842    9.5043152 
  221000    1654.6413     21138.98    290490.24    437.81068   -8431.2701    9.4809868 
  222000    1677.2464    21117.991    293084.53    443.79187   -8432.3517    9.4904096 
  223000    1714.3184     21080.35     299123.6    453.60095   -8423.7508    9.5073559 
  224000    1707.9753    21054.632    301016.31    451.92261   -8428.5001    9.5189689 
  225000    1747.5627    21080.814    297332.48    462.39725   -8435.2614    9.5071464 
  226000    1616.0569     21074.39    299056.97    427.60141   -8422.7252    9.5100445 
  227000    1707.8107    21103.827    296464.59    451.87906   -8423.3173    9.4967793 
  228000    1717.7063     20997.94    308558.05    454.49738   -8421.1665    9.5446691 
  229000    1731.1803    21040.617    305212.25    458.06253   -8416.0707    9.5253096 
  230000    1680.2584    21028.288    303239.86    444.58885   -8428.2974    9.5308942 
  231000    1693.4219    21085.313    300311.77    448.07185   -8413.3777    9.5051181 
  232000    1673.8889    21034.281    302486.05    442.90349   -8429.0707    9.5281787 
  233000    1716.2309    20988.537    310469.66      454.107   -8414.8972    9.5489449 
  234000     1714.628    21012.825     308259.6    453.68289   -8412.5988    9.5379076 
  235000    1687.0669    21049.993    305553.54    446.39035   -8405.8942    9.5210665 
  236000    1673.7969     21067.54    298285.77    442.87917   -8430.2941    9.5131367 
  237000    1695.8598    21087.657    299243.52     448.7169   -8419.4595    9.5040612 
  238000    1701.7284    21048.447    302102.44    450.26971   -8425.4388    9.5217657 
  239000    1730.0931     21014.91    306169.75    457.77489   -8425.7585    9.5369616 
  240000    1721.5642     21043.27    304166.79    455.51817   -8418.3547    9.5241084 
  241000    1665.7254    21143.607    292136.55    440.74346   -8420.8131    9.4789118 
  242000    1723.5511    21080.492    297403.33    456.04389   -8432.7102    9.5072918 
  243000    1696.5904    21079.612    298899.26     448.9102   -8425.0065    9.5076885 
  244000    1720.4883    21073.154    298635.42    455.23349   -8431.0633    9.5106021 
  245000    1691.5274    21003.262    307531.74    447.57056   -8420.3639    9.5422505 
  246000    1738.6204    21013.094    310191.83    460.03117   -8406.1193    9.5377858 
  247000    1724.2185    21057.067     298211.9    456.22049   -8441.4074    9.5178683 
  248000     1723.028    21082.244    297650.01    455.90548   -8431.3263    9.5065015 
  249000    1749.0382    21070.765    301780.12    462.78768   -8419.6441    9.5116808 
  250000     1699.647     21029.05    305778.19    449.71896   -8415.6828    9.5305486 
Loop time of 508.509 on 8 procs for 250000 steps with 2048 atoms

Performance: 42.477 ns/day, 0.565 hours/ns, 491.634 timesteps/s
121.7% CPU use with 4 MPI tasks x 2 OpenMP threads

MPI task timing breakdown:
Section |  min time  |  avg time  |  max time  |%varavg| %total
---------------------------------------------------------------
Pair    | 296.42     | 300.22     | 303.76     |  17.7 | 59.04
Neigh   | 3.0653     | 3.092      | 3.1441     |   1.8 |  0.61
Comm    | 20.428     | 23.996     | 27.945     |  64.9 |  4.72
Output  | 0.0059152  | 0.011437   | 0.013285   |   3.0 |  0.00
Modify  | 180.21     | 180.37     | 180.64     |   1.3 | 35.47
Other   |            | 0.8285     |            |       |  0.16

Nlocal:        512.000 ave         521 max         507 min
Histogram: 2 0 0 0 1 0 0 0 0 1
Nghost:        2983.50 ave        3003 max        2960 min
Histogram: 1 0 0 1 0 0 0 0 1 1
Neighs:        43870.8 ave       45647 max       42407 min
Histogram: 1 1 0 0 0 0 1 0 0 1

Total # of neighbors = 175483
Ave neighs/atom = 85.685059
Neighbor list builds = 3247
Dangerous builds = 0


# fix 132 all momentum 100 linear 1 1 1 angular
fix out_file_1 all print 1000 "$(step) $(temp) $(press) ${sys_press} $(vol) $(ke) $(pe) $(density)" file one_phase_${sim}_press_$P_$T_.txt screen no title  "step temp press pressGiga vol ke pe density"
fix out_file_1 all print 1000 "$(step) $(temp) $(press) ${sys_press} $(vol) $(ke) $(pe) $(density)" file one_phase_cooling_press_$P_$T_.txt screen no title  "step temp press pressGiga vol ke pe density"
fix out_file_1 all print 1000 "$(step) $(temp) $(press) ${sys_press} $(vol) $(ke) $(pe) $(density)" file one_phase_cooling_press_300000_$T_.txt screen no title  "step temp press pressGiga vol ke pe density"
fix out_file_1 all print 1000 "$(step) $(temp) $(press) ${sys_press} $(vol) $(ke) $(pe) $(density)" file one_phase_cooling_press_300000_1700_.txt screen no title  "step temp press pressGiga vol ke pe density"

# dump 3 all custom 1000 traj_npt_new.lammpstrj id type x y z
run 50000
Last active /omp style is pair_style eam/alloy/omp
Per MPI rank memory allocation (min/avg/max) = 4.325 | 4.326 | 4.326 Mbytes
Step Temp Volume Press KinEng PotEng Density 
  250000     1699.647     21029.05    305778.19    449.71896   -8415.6828    9.5305486 
  251000    1711.1643    21025.921    306988.18    452.76641    -8412.401     9.531967 
  252000     1710.335    21025.314    304615.25    452.54697   -8424.1084    9.5322421 
  253000    1695.1513     21057.57     302227.1    448.52945   -8418.4544    9.5176406 
  254000    1715.0413    21105.685    296858.13    453.79223   -8422.6637    9.4959434 
  255000    1684.5747    21120.911    293496.19    445.73091   -8427.9814    9.4890976 
  256000    1686.5719     21103.65    294961.56    446.25937   -8432.4497    9.4968587 
  257000    1751.6359    21039.021    305257.88    463.47502   -8417.5342    9.5260321 
  258000    1733.7888    21010.078    308381.84    458.75274   -8415.8984    9.5391547 
  259000    1685.3171     21024.89    304636.37    445.92734   -8420.9388    9.5324344 
  260000    1785.5802    21108.362    294862.29     472.4565   -8435.2132    9.4947388 
  261000    1624.8534    21076.099    292448.48    429.92891   -8451.4595    9.5092732 
  262000    1697.1368    21137.729    290252.02    449.05479   -8438.0384    9.4815479 
  263000    1736.1747    21111.407    296356.55    459.38404   -8423.4997    9.4933696 
  264000    1625.6964    21071.625    302413.04    430.15197   -8406.2573    9.5112926 
  265000    1699.6044    21080.054    298519.25    449.70771    -8427.171    9.5074892 
  266000    1743.6804    21086.065    298654.26    461.37003   -8424.1042    9.5047789 
  267000    1605.9577    21106.944    291899.13    424.92921   -8441.8581     9.495377 
  268000    1717.8928    21152.898    290377.98    454.54674   -8430.6242    9.4747486 
  269000    1702.0572    21071.532    300805.67     450.3567   -8419.2526    9.5113343 
  270000    1707.3624    21007.661    307095.94    451.76045   -8421.7855    9.5402524 
  271000    1689.1318    21032.792     302323.4     446.9367   -8431.2347    9.5288533 
  272000    1726.0973    21091.611    298444.72    456.71761    -8422.228    9.5022795 
  273000    1693.4522    21059.721    301220.52    448.07986   -8422.5629    9.5166684 
  274000    1699.8273     21098.62    296705.84    449.76668   -8423.9894    9.4991232 
  275000    1658.3896    21110.012    297171.92    438.80245   -8413.4268    9.4939969 
  276000    1725.5809    21123.297    294779.97    456.58096   -8421.6838     9.488026 
  277000    1659.9395    21062.444    300418.77    439.21255   -8421.3437    9.5154381 
  278000    1737.5981    21065.343    302531.14    459.76066   -8416.7331    9.5141287 
  279000    1678.2973     21030.41    305615.83    444.06993   -8414.9308    9.5299325 
  280000    1713.8661    21045.135    304954.71    453.48127   -8413.0634    9.5232644 
  281000    1651.9771    21045.868    304480.67    437.10573    -8412.265    9.5229329 
  282000    1734.7087    21131.251    292954.84    458.99614   -8431.1832    9.4844544 
  283000    1717.3355    21140.813    289522.66    454.39926   -8437.3663    9.4801646 
  284000    1677.2629    21072.634    299777.57    443.79625   -8420.5611     9.510837 
  285000    1741.3755    21042.997    305046.29    460.76016   -8416.3826    9.5242319 
  286000    1708.7214    21033.934    304119.25    452.12002   -8423.2611    9.5283359 
  287000    1732.7658    21071.113    301306.13    458.48207   -8420.1604    9.5115234 
  288000    1682.6672    21081.141    300199.59    445.22619   -8418.4661    9.5069991 
  289000    1701.0945    21096.984    299472.13    450.10197   -8412.1486    9.4998595 
  290000    1681.9912    21035.712    304778.58    445.04734   -8418.0182    9.5275303 
  291000    1714.6757    21052.258    307022.03    453.69549   -8399.7649    9.5200425 
  292000    1674.5585    21029.236    305472.37    443.08067   -8417.3743    9.5304645 
  293000    1674.2357    21078.009    297976.99    442.99525    -8428.547    9.5084116 
  294000    1688.0551    21115.113     295174.4    446.65181   -8423.2965    9.4917033 
  295000    1673.7174    21087.353     294439.6    442.85812   -8439.6224    9.5041982 
  296000    1693.8044    21059.958    301130.52    448.17306   -8423.4131    9.5165617 
  297000    1722.8345    20950.542    313602.89    455.85428   -8420.4329    9.5662628 
  298000    1725.8094    20977.354    312059.85    456.64144   -8414.5995    9.5540356 
  299000    1758.0867     21061.73    301039.87    465.18186   -8427.6881    9.5157607 
  300000    1696.9997    21071.018    296971.23     449.0185    -8438.108    9.5115663 
Loop time of 101.201 on 8 procs for 50000 steps with 2048 atoms

Performance: 42.687 ns/day, 0.562 hours/ns, 494.065 timesteps/s
120.6% CPU use with 4 MPI tasks x 2 OpenMP threads

MPI task timing breakdown:
Section |  min time  |  avg time  |  max time  |%varavg| %total
---------------------------------------------------------------
Pair    | 59.008     | 59.819     | 60.491     |   8.7 | 59.11
Neigh   | 0.60499    | 0.60933    | 0.61984    |   0.8 |  0.60
Comm    | 4.0943     | 4.7948     | 5.6313     |  31.7 |  4.74
Output  | 0.001164   | 0.0018572  | 0.0020907  |   0.9 |  0.00
Modify  | 35.784     | 35.812     | 35.861     |   0.5 | 35.39
Other   |            | 0.164      |            |       |  0.16

Nlocal:        512.000 ave         514 max         510 min
Histogram: 1 0 0 0 0 2 0 0 0 1
Nghost:        2997.50 ave        3004 max        2988 min
Histogram: 1 0 0 1 0 0 0 0 0 2
Neighs:        43967.2 ave       45188 max       42896 min
Histogram: 2 0 0 0 0 0 0 0 1 1

Total # of neighbors = 175869
Ave neighs/atom = 85.873535
Neighbor list builds = 648
Dangerous builds = 0

unfix temp
unfix out_file_1


write_data after_${sim}_press_$P_$T.in
write_data after_cooling_press_$P_$T.in
write_data after_cooling_press_300000_$T.in
write_data after_cooling_press_300000_1700.in
System init for write_data ...
Last active /omp style is pair_style eam/alloy/omp
write_restart after_${sim}_press_$P_$T.lmp
write_restart after_cooling_press_$P_$T.lmp
write_restart after_cooling_press_300000_$T.lmp
write_restart after_cooling_press_300000_1700.lmp
System init for write_restart ...
Last active /omp style is pair_style eam/alloy/omp

next loopVar  #<----->
jump in.lmp ensemble
























Total wall time: 1:02:00
