LAMMPS data file via write_data, version 29 Oct 2020, timestep = 250000

2744 atoms
1 atom types

-0.03635453439688696 24.844354534399088 xlo xhi
-0.03635453439688696 24.844354534399088 ylo yhi
3.810291246235515 55.85560570649948 zlo zhi

Masses

1 58.933

Atoms # atomic

8 1 3.114704873795603 1.9239441415670573 6.192556325190132 0 0 0
128 1 1.455504744360316 3.172500112105479 6.012885148427681 0 0 0
732 1 1.7225163559155214 1.526877548265556 3.9807781826350155 0 1 0
31 1 1.5339325224271123 1.479375631933759 7.817452983026974 0 0 0
129 1 3.7229599157869977 3.202657218789761 8.078390317137579 0 0 0
2508 1 3.195911915589271 3.46860328089751 4.229162342901854 -1 0 0
9 1 6.624120367200061 1.6549304715250186 5.9795264825139345 0 0 0
131 1 5.256973851382943 3.6292702601545854 6.162539235618524 0 0 0
16 1 6.94187502633065 3.1256886576860494 8.004636073996643 0 0 0
132 1 6.728496369189368 3.3675449810275797 4.1670864226996684 0 0 0
133 1 5.1892295032395825 1.5726619416905019 8.027418950122321 0 0 0
197 1 24.539301516546182 -0.009417054081801268 15.615293145196345 -1 0 0
111 1 8.44954933330267 1.5534988005666466 4.419285955737537 0 0 0
2386 1 8.413707088529225 3.658451034240656 6.193291847276422 1 0 0
43 1 10.403782266246493 1.5143228235051167 6.1235584936138405 0 0 0
42 1 12.308929815836816 3.3223755139599636 6.176409992858969 0 0 0
45 1 13.831575124218753 3.3582906199506706 3.899557807297995 0 0 0
1553 1 10.1097911528561 3.459807810282654 4.242283356129203 1 -1 -1
108 1 8.728785328740079 1.7137113815255105 8.000826162032299 0 0 0
143 1 12.112762027131552 1.373124259725563 7.8926201732343015 0 0 0
139 1 10.54147236961968 3.5615235840343797 7.722010827699181 0 0 0
14 1 13.855140728524301 1.3481222254885064 6.126486462517528 0 0 0
2598 1 15.71682052117421 3.0128300608019485 5.993503907991447 -2 1 2
115 1 15.771760055099419 1.3123111929166558 7.6247415790874715 0 0 0
116 1 14.188394360361574 2.721690092442821 8.212036524806527 0 0 0
1414 1 21.074670825267276 24.380368158983856 4.163207797232188 -1 -3 1
20 1 15.49368626116124 1.4958596316940767 3.9840399164813545 0 0 0
19 1 13.873023131890104 24.551509281353482 7.987698853607597 0 -1 0
47 1 17.661512373172535 1.1074028621077838 6.387620327389458 0 0 0
18 1 19.105584783938333 3.125888268062009 6.366757156300199 0 0 0
1464 1 3.6620782298472374 10.803165026155161 4.174032828533526 1 -2 0
147 1 17.49886070941536 3.028121510098903 8.1591830562473 0 0 0
2093 1 17.484639058805342 3.065792260796022 4.19801830416731 0 0 -2
120 1 19.46595521225771 1.2221472184993476 7.7604191437878995 0 0 0
56 1 24.676666386903072 3.200866451265503 4.400586044379063 0 0 0
28 1 21.443007371618634 1.5171426708880877 6.152765705615462 0 0 0
27 1 24.61575452704851 1.4308134350407136 5.658360902347463 0 0 0
152 1 23.11466311309338 3.3127928259986303 6.526890904184869 0 0 0
127 1 22.997598814090665 1.6173619346702781 7.919368053457942 -1 0 0
55 1 22.841268961037756 1.5021942800327452 4.24890857112069 0 0 0
84 1 24.631938996675807 10.76699864471744 4.232791717942528 0 0 0
1595 1 3.438041035111061 6.949010144601729 4.3689583804034005 0 0 0
123 1 21.662955230965466 24.695146532288817 7.657244063939334 0 -1 0
2120 1 24.807563641423627 3.498719640823405 7.983857796276242 -3 -1 -1
4 1 21.016748686320824 3.164915083179117 8.001504469509063 -1 0 0
36 1 1.5519244548231426 7.282499032781331 6.10180884411623 0 0 0
134 1 3.4610928614837597 5.268033427718812 6.1664577210527955 0 0 0
7 1 4.784343449714792 1.7968836610454069 4.3257257297435325 0 0 0
159 1 3.425879373529733 6.81314009117335 8.025613747386416 0 0 0
2164 1 1.4910072982692668 5.155315762543527 4.4064694661441495 0 0 0
38 1 6.692195476029236 7.222111858496083 4.164110524076529 0 0 0
2190 1 7.067334953303681 5.5161070764453335 6.0636865737684715 0 0 0
2287 1 4.987759635443853 6.957810097210225 6.15030028483826 1 1 2
163 1 6.739922692042668 6.957162414097479 7.996352159816389 0 0 0
135 1 5.172490434923427 5.018393039553483 8.056585016868196 0 0 0
1876 1 5.071198544042848 5.40661845519869 4.220314142770856 2 -1 1
67 1 8.302430492228117 7.45597698535 5.956856350093972 0 0 0
44 1 10.229881353905395 5.626291439830274 5.790767659069945 0 0 0
136 1 8.701900302521672 5.573956341261032 7.949544024701574 0 0 0
167 1 10.738769097556405 6.802304341713466 8.177494437034078 0 0 0
140 1 12.934236698910242 4.983866180874964 7.900075508253366 0 0 0
760 1 1.37999901885782 22.582413607192343 3.902253358698964 0 0 0
39 1 12.00442997870871 4.708688212445983 4.432266521414505 0 0 0
71 1 12.46302066508734 6.912091377717555 6.0494390019426225 0 0 0
1591 1 8.6838121395348 5.319336421593888 3.9891992980760187 1 0 1
48 1 15.369612498362432 6.811219379060599 5.6893897564480245 0 0 0
2635 1 13.913402649385166 4.8826944296565005 6.0194857783243 2 1 -1
144 1 15.38925521440048 4.389014653362128 7.901440428104877 0 0 0
171 1 14.369776077810684 6.503294459277466 7.917866590196371 0 0 0
51 1 21.477821811534334 3.333622892832001 4.664431985300222 0 0 0
1666 1 15.678738537613318 4.893339750597596 4.27290346805088 -1 2 0
52 1 17.424012069184826 4.90467825208531 6.07224862040342 0 0 0
79 1 18.91857241934381 6.76558023380788 6.181744397295109 0 0 0
2435 1 19.135062244227235 4.900254526995989 4.41120726888582 0 1 1
2113 1 17.423316629821173 6.623390440428382 4.426222008725295 -2 -1 -1
175 1 16.99220778522197 6.57914197684184 7.660377847566511 0 0 0
733 1 3.1711178045265167 17.37404796226928 4.251257253172881 0 0 0
29 1 24.597494477916975 5.30546477290371 5.643421587621236 -1 0 0
130 1 21.024010664909767 4.92101125318491 6.259163385371638 -1 0 0
83 1 22.72490532178125 6.8614988269340405 6.00483396415421 0 0 0
1782 1 20.675304698407878 6.841260213181797 4.6352488036459505 0 0 1
179 1 20.78180700739074 6.94872599258673 7.876227532074279 0 0 0
2612 1 24.350210986096663 6.964213575917038 4.238241859564332 0 1 1
151 1 22.81724377980163 5.419274167592468 8.049728283515982 0 0 0
744 1 8.29909488257683 19.477067830266776 4.472908872503764 0 0 0
64 1 3.488459965135359 8.793592909787797 6.4131284100764905 0 0 0
1834 1 1.9501452107580441 10.622861544431172 5.677894756596273 1 1 0
156 1 1.495472776667622 9.237231788106362 7.834975783015857 0 0 0
86 1 3.387407196622425 12.39809255148095 6.044293064896179 0 0 0
59 1 1.7960684881415794 8.841502143067897 4.1602539167174895 0 0 0
185 1 3.328457089823396 10.769907017489425 7.711740976091208 0 0 0
68 1 6.464680887421218 8.948753134354511 6.345850446650013 0 0 0
88 1 5.226772264779068 10.808726142509471 6.249861141253896 0 0 0
2617 1 5.265594296445896 15.836508881262931 4.193985037098026 2 2 2
187 1 6.949563768823526 10.365886932445113 8.164395293793556 0 0 0
787 1 4.983607135749766 12.465328739466834 7.791355261411592 0 0 0
63 1 5.056627602658565 8.630944904891708 8.17332230094495 0 0 0
2607 1 7.023059312821597 10.41158978649142 4.554471637348667 1 0 1
1380 1 5.390382532119038 12.35188693266983 4.04884977784547 -3 2 -1
164 1 8.695614525349752 8.53656713561058 8.05648997212569 0 0 0
90 1 8.741987384556804 10.366517322816742 6.149064710585019 0 0 0
72 1 10.430186204104583 8.221968919960384 5.907521893113344 0 0 0
69 1 8.478204940135024 8.767604863384271 4.102268792682047 0 0 0
93 1 12.244049908549206 10.03051566118107 6.354441871389264 0 0 0
168 1 12.277324856495849 8.36847403869593 8.032948017796453 0 0 0
1615 1 12.245484658224145 8.491133052774341 4.337587016859621 -1 -1 1
189 1 10.386374731888964 10.086204233395645 7.813155350451981 0 0 0
789 1 8.841733925830209 12.208432880534923 8.285529226144728 0 0 0
66 1 10.302191240185547 10.212951869212823 3.9464757040426925 0 0 0
1469 1 8.876965863903974 11.982599125532534 4.510518991582729 2 0 0
791 1 12.233372003608435 12.144088726775538 7.994122387772934 0 0 0
76 1 14.06205437814207 8.470293181207952 5.829269593619253 0 0 0
94 1 15.604829425706438 10.455777992253472 6.18938068810848 0 0 0
696 1 13.739501605170322 12.112212539543917 6.130762740037335 0 0 0
1997 1 13.771831981367267 10.433390254332197 4.341184831842055 -1 0 1
172 1 15.8999592414388 8.44336403266151 7.924480526242288 0 0 0
2347 1 15.494692773115437 8.817113143341587 3.8319800964354127 0 -1 0
2704 1 15.253803212153274 12.289809367333486 4.256299590388467 -1 0 2
1640 1 19.11650747081351 8.738660494972704 4.000048295283245 -1 0 -2
75 1 17.236673696793652 8.558833748228519 5.812519173249619 0 0 0
96 1 19.07264068617537 10.554562585550032 5.97262760593323 0 0 0
78 1 17.24686075311763 10.445576594445088 4.0666387504112125 0 0 0
176 1 18.556058523979374 8.393252847713391 7.94804082814025 0 0 0
698 1 17.04365369366117 12.416526438053229 5.798220488281687 0 0 0
80 1 19.196270257400677 12.044006393990424 3.8771195798235936 0 0 0
795 1 19.417205344677058 12.001649440631855 8.036307962882915 0 0 0
60 1 24.5959303547504 8.885232357402623 5.64311907671256 -1 0 0
195 1 20.43675081426582 8.642383023633661 6.320731304361334 0 0 0
98 1 22.706826446355088 11.054654174117536 5.986288510358531 0 0 0
183 1 24.489786228640007 10.620641684519136 7.767850313657948 -1 0 0
700 1 20.998076432536216 10.319692231756761 7.988417905376707 0 0 0
2013 1 20.9238538117594 10.645666912372143 4.397863475153667 1 0 3
797 1 22.595096352825507 12.748935022309453 8.034471046176957 0 0 0
699 1 24.62370184976095 12.374909957993438 6.056624826931806 0 0 0
1516 1 22.468044519937322 8.759440995543216 4.325980655765765 0 1 2
1523 1 22.802509139544554 22.805080843300146 4.018006271289327 0 -3 -1
785 1 1.5922047416159806 12.357267840807351 7.73282466851078 0 0 0
705 1 3.38707827911458 14.148425166156777 4.0425932581941275 0 0 0
2118 1 1.9652489878807482 14.32164531128367 6.089724047097621 0 -1 -2
708 1 3.6755770341488256 16.18319655118399 6.180974913781057 0 0 0
2189 1 1.3625902832627554 15.821234918215593 4.478077532735497 2 0 0
803 1 3.155134196294402 14.599482235456168 8.0062181830937 0 0 0
827 1 1.5816501911136354 16.44209164255556 7.919656458638505 0 0 0
692 1 7.026982159081428 12.23004451109421 6.35384473096549 0 0 0
707 1 5.255821318262559 13.970790967089448 5.875157318918426 0 0 0
712 1 6.998080923303127 15.38776666347389 6.107086885689398 0 0 0
804 1 5.524701184079592 15.914171313000631 8.023322945431977 0 0 0
706 1 7.033638579311058 13.939756558741678 4.303420975211497 0 0 0
807 1 6.975978734638941 13.963182318280484 8.060083759655026 0 0 0
776 1 15.836148065811397 22.464391639409968 4.237383534405423 0 0 0
2719 1 12.159885709519488 12.015497324336964 4.428870744498219 -2 1 -1
92 1 10.487443534242722 12.066284200149115 6.194417916031613 0 0 0
710 1 8.385172151422408 15.765634327351028 4.104590384958051 0 0 0
741 1 12.145701348549272 16.208860679393297 4.109085848411644 0 0 0
694 1 10.57905501084635 13.753848477126764 4.297692807109647 0 0 0
711 1 8.773175297464283 14.134873156683668 6.263825387111623 0 0 0
716 1 10.479088258392483 15.743636038346715 5.718182861897972 0 0 0
812 1 11.862265882403895 16.41576658600136 7.765658998098468 0 0 0
808 1 8.450203392182738 15.889291436300413 8.037114067717265 0 0 0
811 1 10.663204951298125 14.285552690518935 8.264635831602824 0 0 0
715 1 12.028500080748406 13.710840238250618 6.106083997446056 0 0 0
2692 1 15.516742489041688 15.70349483947921 4.076471174915724 -2 -2 1
719 1 15.389426551567961 14.06896923366305 5.767781800504587 0 0 0
747 1 13.708734512065567 15.858340344598977 5.950664033664413 0 0 0
956 1 24.568083855549382 22.93240977435815 13.821871074667628 -1 0 0
816 1 15.317726387278759 15.731514516083049 7.703273051429379 0 0 0
1990 1 17.328718780992553 13.89390700148444 4.100362379182822 0 0 2
723 1 19.12219122050896 14.023181033332964 6.15507047561586 0 0 0
724 1 17.02641647083187 15.632960502143298 5.963182276619837 0 0 0
819 1 17.285328798761306 14.480353903856365 7.9588115381374 0 0 0
2707 1 18.9452641763405 15.830760036788488 4.645658311498253 1 0 2
820 1 19.453076159779826 16.099531696940502 8.288636542876121 0 0 0
1973 1 20.891095541356947 14.089737380593242 4.3819804697862335 1 -2 2
1432 1 22.63473782044794 12.680281462706539 4.453276922522266 -2 0 -1
97 1 20.916112409771294 12.652905373437653 6.1394938205428256 0 0 0
755 1 22.890280480648343 15.70644962550652 4.429796716497007 0 0 0
728 1 20.971332049656766 15.554320104286386 6.398424824316526 0 0 0
690 1 24.616139775578297 15.915746176722145 6.23931367140509 -1 0 0
727 1 22.791237791185907 14.175652270092668 6.078647448672044 0 0 0
688 1 24.593278588319592 14.111739705771933 4.327593623225578 -1 0 0
823 1 20.69447257575517 13.80560571495 7.952937077661793 0 0 0
824 1 23.16359530057857 15.852783098711521 8.143732862988614 0 0 0
720 1 13.489161072391896 14.24003564398467 4.352295810908597 0 0 0
703 1 1.4732827759246028 17.748042953197555 5.737700361864229 0 0 0
831 1 3.287686171939892 19.121674582189257 5.919455995306624 0 0 0
1678 1 8.142234547110956 23.439982219049597 4.115659063534684 1 1 1
800 1 3.631112360778685 17.515145075171276 8.158201633175455 0 0 0
740 1 5.023157724965794 19.475853557561962 4.420260234781243 0 0 0
295 1 21.384649824154188 24.424332879963316 15.314262201276444 -1 -1 0
735 1 5.350502351862213 17.64604455069317 6.028790062614517 0 0 0
835 1 6.734257998327627 19.470706124221493 6.053224755223725 0 0 0
832 1 6.870449636355223 17.786392208735663 7.91680886757292 0 0 0
863 1 5.269567534707022 19.327605888795382 7.840901204022005 0 0 0
223 1 23.33873854870172 24.636117749307488 13.508045126704777 0 -1 0
1437 1 10.37298370419558 17.880504011599946 3.9247804054282356 1 -3 1
739 1 8.509856128390632 17.482016576695678 5.861289356649897 0 0 0
771 1 10.3566825411929 19.134079388487613 6.2385134794454356 0 0 0
839 1 10.131744279392171 17.784800745046333 8.024139154866042 0 0 0
743 1 12.096583112274761 17.807890661790452 5.772871811374083 0 0 0
836 1 8.451722712199464 19.502930308167024 7.685711658388783 0 0 0
2702 1 11.963852052647647 19.566925177470857 4.464457124978893 0 0 1
867 1 10.488654756227564 21.017069349125308 7.834581426213224 0 0 0
742 1 14.081750389545189 18.11686853320257 4.225897398961294 0 0 0
769 1 14.242623784404193 19.43574256570143 6.443871115389825 0 0 0
1983 1 15.46754883379151 17.43224863427198 6.285262805057016 1 -2 1
843 1 13.778945704212141 17.64574384220414 8.077596313680473 0 0 0
1840 1 15.958650950799711 19.723913938520347 4.26904953852983 0 0 0
844 1 15.788326599912253 19.504829698103578 8.032663717973413 0 0 0
2463 1 19.062130094446914 18.749535105540588 4.298693646954068 -1 0 1
751 1 19.16155828215723 17.64190629243256 6.489179951471357 0 0 0
752 1 17.319407657346012 19.126217560921006 6.3666455520597225 0 0 0
779 1 16.89789893263596 17.639334672227093 4.191698854235067 0 0 0
848 1 19.320886302602467 19.595539566510546 7.855450976931088 0 0 0
847 1 17.202676313594175 17.5917093709433 7.937901580700856 0 0 0
753 1 20.71932628690685 17.325869755600934 4.622374003970437 0 0 0
2280 1 24.402162304937804 17.29517443573846 4.056066370842046 -1 -1 0
749 1 21.017460497896337 19.38916137021529 6.0325967799011 0 0 0
731 1 24.30684182239287 18.894964696411563 5.994422523905271 -1 0 0
852 1 22.56373538748808 17.245057407247614 6.254173199801549 0 0 0
828 1 24.33283496968027 17.59292220700474 8.366861014741644 -1 0 0
2029 1 22.98939950460452 19.164079353896838 4.071509944073791 0 2 2
851 1 21.290239412926866 17.553107693507677 8.328117683351053 0 0 0
5 1 1.430217421117081 24.688158178448553 5.58836853598026 0 -1 0
736 1 1.258378938791692 20.68068075609503 5.7834239847375475 0 0 0
765 1 2.8347871271000256 22.51969914084971 5.91871175603767 0 0 0
2416 1 12.08083136415114 1.4383960460883785 4.4079343297570395 0 1 1
880 1 1.234032310110951 22.820007448997835 7.678517395966187 1 0 0
763 1 3.2171547560785307 20.905232001665837 7.747952360627515 0 0 0
764 1 3.1747652018367045 21.03521882654627 3.8748539677926517 0 0 0
859 1 3.0497213006675246 24.68406666532313 7.813623410020171 0 0 0
1554 1 22.609058836291155 5.470889205441131 4.253028550062267 0 0 0
768 1 3.160812912916638 24.490798831299905 4.167291307840684 0 0 0
104 1 6.724936696659458 0.19904770199545396 4.287235842169566 0 0 0
2740 1 6.626494243321942 21.37014752709762 4.432205580185645 2 -1 2
762 1 4.92062520376833 0.13300892594999425 6.224825101812383 0 1 0
2283 1 4.8103211666256955 21.25281691684207 5.899442404125655 -2 -1 0
766 1 6.431353379592021 23.067807255395415 6.597366305788079 0 0 0
2236 1 5.105688562021394 23.099148587221883 3.898441103655317 1 1 1
107 1 7.0397404625613005 24.750665603067176 8.179891564720073 0 -1 0
2530 1 6.776437743858973 21.271964793403406 8.148587632061188 1 1 1
860 1 4.4765771512718375 22.98120189957409 7.916544470603446 0 0 0
112 1 10.554617918908985 24.56508848402838 7.845040056164197 0 -1 0
15 1 12.22883770559902 24.73274969505912 6.18534234642096 0 -1 0
11 1 8.349920972904378 -0.002126629240585487 6.213483268876903 0 0 0
1524 1 8.3775452236587 21.55022883985321 5.970265830769514 1 -2 0
748 1 12.061859114331767 21.153593684919016 6.364020649956416 0 0 0
767 1 10.077752871816607 23.088162082293756 5.992310421575452 0 0 0
868 1 12.36317461068313 22.879332266525125 8.052745454685736 0 0 0
864 1 8.622043112997158 22.911905854365003 7.868978247860044 0 0 0
2154 1 10.177427173531663 21.073683418103577 4.599084104371039 1 -1 -2
1758 1 10.464313513214202 24.61646406684138 4.4170288948329315 1 -3 0
2289 1 12.104255721633757 22.672656137894066 4.116723104850447 1 0 -2
119 1 15.393552870555796 24.63139790596383 5.951202361338638 0 -1 0
772 1 13.391376793689584 24.400575875389045 4.200936461916219 0 0 0
1830 1 13.790895592515657 21.238147474272438 4.426609295822894 -1 -1 0
928 1 0.23935747209114783 21.221167998199427 15.664998915687736 0 0 0
775 1 15.81684845500472 21.231226650142226 6.110063016657155 0 0 0
773 1 13.874919476289373 22.744069698380677 6.0507284393644305 0 0 0
872 1 15.751775385264851 22.80187738375198 7.81854750339745 0 0 0
871 1 13.860222945274689 21.228861419988682 8.214453079530212 0 0 0
2128 1 17.60662186920002 24.74607375396466 3.995137883629955 1 0 0
876 1 17.426985520179514 24.397161872842837 7.955873792120169 0 0 0
756 1 19.532378822871735 20.822986722178726 5.88182185352696 0 0 0
24 1 19.652460242237765 24.595270111202872 5.9815760792025 0 -1 0
746 1 17.87471848998115 20.915226290837147 4.2335808674982385 0 0 0
774 1 19.26599194193416 22.94170564064531 4.153905003991498 0 0 0
780 1 17.532504430585767 23.35324899585624 5.642548516578825 0 0 0
879 1 19.617671636973725 23.301150488646122 7.704577488101944 0 0 0
737 1 6.720252834521298 17.58973793116664 4.005069988732084 0 0 0
784 1 22.799400145411667 21.075341676515635 5.545626171686948 0 0 0
1756 1 19.619069648538172 1.632031045383926 4.201084059690264 -1 1 0
687 1 4.890676509406284 8.924766058544241 4.4914910389248845 0 0 0
1880 1 23.05541581073033 24.624363641796506 5.9785985382618385 0 -1 1
782 1 24.63990709867447 22.897699667405973 5.494747566810402 0 0 0
2191 1 21.177824468924427 22.811314380783493 5.745202242509952 -1 0 1
783 1 23.175118954662757 22.703098742235426 7.742483902556309 0 0 0
881 1 21.373455602812122 21.291345815958785 7.550470948379056 0 0 0
3 1 24.68603312554042 0.2556107721424715 7.836901676521027 -1 0 0
106 1 3.289493359121485 1.366416828037519 9.906185648278237 0 0 0
101 1 1.8891848724961031 1.8715989965980309 11.436013595410301 0 0 0
198 1 1.7797972095900692 3.4375928683693004 9.629178675655133 0 0 0
232 1 3.228130103642577 3.7841692294319547 11.936010107935157 0 0 0
201 1 3.276423082941699 24.744710456115563 11.700269495708802 0 -1 0
229 1 5.135410610089623 3.5432956111025447 9.93697502236925 0 0 0
110 1 7.098091038827974 1.778477902777504 9.924953247109336 0 0 0
202 1 5.11339483732952 1.3896174731612485 11.435888712248257 0 0 0
233 1 6.835493387063812 3.4453228927058235 11.639914115523894 0 0 0
105 1 5.251399147116567 24.349503974889693 9.833431264721812 0 -1 0
205 1 6.827444435655015 24.68432292125113 11.848310343757628 0 -1 0
206 1 9.020704709304695 1.802773864183554 11.778193986429908 0 0 0
137 1 8.447528907303258 3.6673296461697604 9.710217269349682 0 0 0
114 1 10.384775477820478 1.550184841734911 9.7855345871976 0 0 0
237 1 10.386836132039694 3.6507368508404165 11.269250416238975 0 0 0
141 1 12.05437876140253 3.4294995350187705 9.537622612596365 0 0 0
210 1 11.857782876908667 1.8901727896123783 11.639888105487584 0 0 0
118 1 14.139405425378106 1.4646625246822682 10.14763903622286 0 0 0
214 1 15.791549722365804 0.9102719290038467 11.691303422651407 0 0 0
241 1 13.998423688386579 3.1889746047176173 11.720982258916575 0 0 0
145 1 15.75093789621542 3.3972728606789953 10.178466565685387 0 0 0
117 1 15.478750781457927 24.605496014426194 9.815780343722519 0 -1 0
122 1 17.522463715471368 1.4435818041614956 9.932735944067169 0 0 0
149 1 19.327613008276224 3.078720354797968 10.089171661642759 0 0 0
218 1 19.529143187287993 1.4991618966178677 11.844884421509052 0 0 0
245 1 17.013504948479053 2.70550306260128 11.70645052767755 0 0 0
217 1 17.82447317455953 24.74092049536312 11.673160767419017 0 -1 0
249 1 21.25291900691243 3.4880926176427094 11.39727300269351 0 0 0
126 1 21.57584897340236 1.2223077635719144 9.578212942107415 0 0 0
225 1 24.687464060440007 3.4967045649305892 11.451654876385312 -1 0 0
100 1 24.79621903467573 1.5111857542386946 9.754554987216627 -1 0 0
153 1 22.92036823761854 3.2750466463428345 9.652294999958979 0 0 0
222 1 23.33327447684693 1.3178280678128274 11.615413529340568 0 0 0
221 1 21.34775502024221 24.48989095667482 11.662613428141263 0 -1 0
226 1 1.6600037877975449 5.39570325039373 7.625596497298168 0 0 0
157 1 1.5228237348137421 6.990637570105972 9.45323688799817 0 0 0
257 1 3.4292369484382714 5.184797225489783 9.85780882601188 0 0 0
162 1 3.4578796117577277 7.064615568295092 11.647348884565513 0 0 0
227 1 1.3690445878892161 5.261582745496734 11.479296216354562 0 0 0
138 1 7.006796381221271 5.28495570985058 9.79462158109866 0 0 0
161 1 5.204317576592909 6.944450942725047 9.739519845578982 0 0 0
230 1 5.062016605002957 5.321062326234045 11.731881336883252 0 0 0
261 1 6.77332645882233 6.9555360849463685 11.817939648957632 0 0 0
165 1 8.896679762408837 6.851556560201536 10.070198736643544 0 0 0
234 1 8.442546586335494 5.257881378211607 11.868937562366744 0 0 0
142 1 10.418505359081376 4.978773460418604 9.834485729128023 0 0 0
265 1 10.13376319326352 7.053263715175189 11.909078396897709 0 0 0
169 1 12.375006076611077 7.083352658146916 9.900329284634486 0 0 0
238 1 12.00591024766694 5.208159021869672 11.45849134002886 0 0 0
146 1 13.987330906676513 5.156988821983723 10.14311367908805 0 0 0
173 1 15.73397177819597 6.957913572032162 9.94939380897753 0 0 0
242 1 15.777408293959859 5.091339497941157 11.847686402012112 0 0 0
269 1 13.807905100588407 6.735801561200461 11.697127537873182 0 0 0
148 1 18.935823057886836 4.837918935914454 8.361916149280294 0 0 0
150 1 17.005171991504426 5.056750464638917 9.510811432330499 0 0 0
246 1 19.236336313812338 4.754143020223718 11.804615869175539 0 0 0
177 1 19.036536185004884 6.557660963641806 9.867626108537635 0 0 0
273 1 17.40754034168821 6.763623596419278 11.613557054382653 0 0 0
155 1 24.665836345937095 7.097303231944501 7.750347268239016 -1 0 0
253 1 24.680680078743713 7.225987269788268 11.848052301282737 -1 0 0
32 1 24.73936513692697 5.421182565957722 9.346675044669121 -1 0 0
154 1 21.051194799475674 5.060509353966996 9.669410948695917 0 0 0
277 1 20.850908425899505 6.757802901682731 11.038513853204979 0 0 0
181 1 23.064854516599105 7.258783520494375 9.7085534290957 0 0 0
250 1 22.831611386501805 5.049977193894824 11.41916992010269 0 0 0
254 1 1.4534967525156381 8.653734764335944 11.60388889406915 0 0 0
160 1 3.3512724427107634 8.96468879472779 9.790367766501921 0 0 0
184 1 1.6730822679445352 10.510553139298642 9.614709871674082 0 0 0
283 1 3.109388996950235 10.315741554488286 11.660698929312488 0 0 0
258 1 4.961330416445953 8.536851415511926 11.542645687892737 0 0 0
166 1 7.0447154309909985 8.569774363016315 9.836995658371098 0 0 0
186 1 4.535220008778524 10.665645401113222 9.894005745916097 0 0 0
285 1 6.458510204110071 10.503711341983319 11.553609673129012 0 0 0
790 1 7.083990213049432 12.088986052118587 9.728755961904081 0 0 0
188 1 9.14377079886338 10.609827646659955 9.787358706004422 0 0 0
262 1 8.204331640028784 8.991419529156436 11.734738455386815 0 0 0
170 1 10.283929632994948 8.625163964123974 10.113172833121858 0 0 0
287 1 10.436048569521745 10.521699165245378 11.790395717142381 0 0 0
190 1 12.124489225804721 10.558179976491829 9.93960606497134 0 0 0
266 1 12.56446613866935 8.630385350675972 11.457390807614479 0 0 0
792 1 10.80720274514456 12.5082402886469 9.819179145523506 0 0 0
889 1 12.384498229625123 12.340498303288546 11.749856838032802 0 0 0
191 1 13.941292417486531 10.179734387814035 8.517494779322675 0 0 0
174 1 14.217838170239691 8.486308334344638 9.905148972591327 0 0 0
270 1 15.50148117412788 8.597366045025574 11.75396423992207 0 0 0
192 1 15.830191768785491 10.106287638425535 9.742685638645309 0 0 0
289 1 13.860038578055619 10.382468457325388 11.578805862820552 0 0 0
794 1 14.191266782226663 12.172045773683916 9.796124640451755 0 0 0
193 1 17.347898908779328 10.536032503024 7.971218431339132 0 0 0
274 1 18.94915020385936 8.62398074569797 11.672206583413448 0 0 0
178 1 17.3550685205402 8.448211443098144 10.017084866939431 0 0 0
194 1 18.714569148594556 10.398619083709677 9.829085152681387 0 0 0
291 1 17.1921036833874 10.542776189007363 11.633864876831968 0 0 0
180 1 22.708581621399468 9.144019814942022 7.325939724220545 0 0 0
281 1 24.617098611105696 10.237584945306496 11.321087846542074 -1 0 0
158 1 0.08098591600397746 8.592940640936545 9.732182215459883 0 0 0
293 1 20.78294178287448 10.254761484426881 11.369031006962214 0 0 0
278 1 22.420723848854458 8.66665087776678 11.711722943843887 0 0 0
182 1 20.736956321004754 8.72752044187557 9.76054620924004 0 0 0
196 1 22.9280515887613 10.109633875345088 9.495575961500727 0 0 0
895 1 22.824348977358724 12.142642932778024 11.62450614437461 0 0 0
798 1 21.243727286288532 12.205521469382031 9.80041229555946 0 0 0
786 1 24.69448094066251 12.212349878942854 9.785435819988741 -1 0 0
883 1 1.663401330897333 12.215321381638498 11.404507317551676 0 0 0
788 1 3.4255472264949027 12.889658921525013 9.723077100761042 0 0 0
801 1 1.6242838481675383 14.122086907628612 9.682206855682436 0 0 0
806 1 3.067034454980441 15.971041533343397 9.850431372199822 0 0 0
901 1 3.5822984359936845 14.272884369035598 11.506050651128504 0 0 0
898 1 1.6394509094222929 15.746050311657415 11.848392904272487 0 0 0
885 1 4.774069571125007 12.238071338447845 11.68377117346241 0 0 0
805 1 5.454442668631369 13.614866506571827 9.870141420075477 0 0 0
810 1 6.7763972596999364 15.729736793410959 9.745786227464073 0 0 0
905 1 6.861618322821168 14.235542041823843 11.451992978990944 0 0 0
902 1 5.026358035678101 15.976522433207874 11.696230648332204 0 0 0
887 1 8.501745885115223 12.648297923394647 11.584452565172224 0 0 0
809 1 8.728645015716028 14.157700285797755 9.730535445242898 0 0 0
906 1 9.008161880023957 15.728628362041158 11.640602364206433 0 0 0
814 1 10.247340534054226 16.058185104338655 9.68180699849919 0 0 0
909 1 10.69810227229533 14.459578201317317 11.563938231856852 0 0 0
910 1 12.468779542861373 16.08816576147703 11.742332735955438 0 0 0
813 1 12.586129301898811 13.918129269298515 9.466057984913611 0 0 0
793 1 15.341850811652918 12.427027712706561 7.874784547207499 0 0 0
815 1 13.683651172440557 14.143793514815222 7.607016526281472 0 0 0
891 1 15.416283209818513 12.044866683167223 11.7351151237006 0 0 0
817 1 15.394150891794627 14.140242144101629 9.443466368916518 0 0 0
818 1 13.869417656563325 16.05478222841547 10.00539238881948 0 0 0
913 1 14.2566421198116 14.3200817960839 11.784661185135864 0 0 0
914 1 16.016816086271206 15.748607971549571 12.080725395320666 0 0 0
796 1 17.01519518000307 12.1700492262896 9.630414690500924 0 0 0
893 1 18.831181176663293 12.181949285581641 11.457552260725762 0 0 0
821 1 19.002732864134174 13.994973487584948 9.765394636441911 0 0 0
917 1 17.271252113341482 13.870339210068938 11.546988287464202 0 0 0
918 1 18.97517531600429 15.685185162750873 11.819585736595366 0 0 0
822 1 17.162224516757036 15.633399277537888 9.913889268687845 0 0 0
799 1 0.0022107568015370532 14.023220449147292 8.003639249764387 0 0 0
802 1 24.765681785881966 15.793731376259188 9.947544615561876 -1 0 0
921 1 20.565435415657277 14.009963138229258 11.375324902710446 0 0 0
897 1 0.05491111960432704 13.864362307617323 11.752313442907276 0 0 0
826 1 20.943617948763418 15.565381784608231 9.964209901243038 0 0 0
825 1 23.060676444680027 14.246928329149705 9.834643672259268 0 0 0
922 1 22.347985565540327 15.732044162759683 11.745036043010924 0 0 0
759 1 1.4053059458125077 19.16380323389987 7.48409810601607 0 0 0
704 1 1.4318073590732108 17.531782449268434 10.213035134699554 0 0 0
929 1 3.2292077713746887 17.724679343700203 11.67905574157923 0 0 0
834 1 3.2137031833357783 19.117158073179162 9.738448259302128 0 0 0
829 1 1.6220743252976533 19.58718843483566 11.827618598356048 0 0 0
855 1 -0.030184625177980706 19.387783650985867 9.720313687306147 0 0 0
833 1 5.209456413895547 17.44033665258746 10.087506212431153 0 0 0
933 1 6.991415094956605 17.397328463663783 11.835376986041434 0 0 0
838 1 7.119069185755129 19.35721662682284 9.995827018390488 0 0 0
930 1 4.983533177698126 19.445020412983418 11.51151628785459 0 0 0
837 1 8.438213612476178 17.626254454347503 9.754699016143295 0 0 0
961 1 6.931137037225355 21.09490530683965 11.629858838098905 0 0 0
934 1 8.575152727755222 19.227078133457418 11.827570508101976 0 0 0
842 1 10.313236281693928 19.471235012926677 9.65750858779296 0 0 0
937 1 10.48803654402812 17.8451387547549 11.642733380306604 0 0 0
841 1 12.15407756521663 17.87814274342015 9.773843158882416 0 0 0
938 1 12.156551196769005 19.41396178526486 11.881101691068304 0 0 0
840 1 12.314222081631328 19.36392219001622 7.855204515897485 0 0 0
845 1 15.985758598893353 17.823330464282655 9.974797451191003 0 0 0
846 1 13.836532587022436 19.325555988663695 9.900891111112673 0 0 0
941 1 14.080215558342857 17.777902236080294 11.840874255203799 0 0 0
942 1 15.780535742020133 19.16362340314818 11.647643105078073 0 0 0