LAMMPS data file via write_data, version 19 Mar 2020, timestep = 100000

1728 atoms
1 atom types

0.0000000000000000e+00 2.1263999999999999e+01 xlo xhi
0.0000000000000000e+00 2.1263999999999999e+01 ylo yhi
-1.3494271556142934e+00 4.3877427155614555e+01 zlo zhi

Masses

1 58.933

Atoms # atomic

272 1 2.4659170290230468e+00 3.0227924548320901e+00 5.2354282881494663e-01 0 1 0
410 1 8.8076626784813028e-01 3.0146569729225803e+00 2.2734297095319485e+00 0 1 0
413 1 2.5212433460945918e+00 1.2290982318291441e+00 2.1708286268842634e+00 0 1 0
267 1 4.3616265231590989e-01 1.3225735615478396e+00 4.8191642330347606e-01 0 1 0
414 1 4.1841203275306924e+00 3.0313652619250977e+00 2.4399982370159385e+00 0 1 0
269 1 2.1779101831779304e+00 1.0070630088307981e+00 -1.1861965449311143e+00 0 1 0
271 1 4.4165992606421343e+00 1.3638274416796956e+00 3.8888394465610721e-01 0 1 0
276 1 6.2872360786568748e+00 2.8583285522390054e+00 6.0215916805109959e-01 0 1 0
275 1 8.0415539020997837e+00 9.0438853848465117e-01 5.9307322392628015e-01 0 1 0
417 1 6.2012515777853485e+00 1.2790703222396715e+00 2.2916856338322438e+00 0 1 0
418 1 8.0786411150925233e+00 2.8801899833822286e+00 2.3271083787963143e+00 0 1 0
277 1 9.7224576923633688e+00 1.0691648597596604e+00 -1.0470041724915851e+00 0 1 0
280 1 9.5544290306646484e+00 3.1126158251013925e+00 5.8624064679709598e-01 0 1 0
279 1 1.1546066580533337e+01 1.0710852865472311e+00 2.7718718000329545e-01 0 1 0
421 1 9.8002468703229439e+00 1.1893291857881212e+00 2.3614535734436073e+00 0 1 0
422 1 1.1399691689220337e+01 3.1378896806281200e+00 2.0147897054309776e+00 0 1 0
278 1 1.1463141121415145e+01 2.7792737665050886e+00 -1.2612851689331068e+00 0 1 0
284 1 1.3228353875870496e+01 3.2470366321194559e+00 2.7222472850666857e-01 0 1 0
283 1 1.4828130326676456e+01 1.4298968660208828e+00 2.2982831174071716e-01 0 1 0
425 1 1.3233133992169417e+01 1.5602592530158979e+00 2.1588862495039272e+00 0 1 0
288 1 1.6714765641925560e+01 3.2963174378408224e+00 1.4751016917163473e-01 0 1 0
429 1 1.6356959355655135e+01 1.2976941341738351e+00 2.0346582221660654e+00 0 1 0
426 1 1.4979319895533562e+01 3.3025122331679615e+00 2.3729034853096262e+00 0 1 0
268 1 2.0277351316596377e+01 3.3520225902426644e+00 8.1194885333067335e-01 -1 1 0
287 1 1.8350237224758828e+01 1.2154890699775429e+00 6.4116484503992432e-01 0 1 0
409 1 1.9792810082364614e+01 1.3611774672734451e+00 2.5210025014914335e+00 -1 1 0
430 1 1.7919267886367994e+01 3.1456867678129687e+00 2.1787148712518802e+00 0 1 0
286 1 1.8678414710907383e+01 3.0401046959516860e+00 -1.1976931040024517e+00 0 1 0
265 1 2.0319112273498781e+01 1.3993480830830212e+00 -1.2607560042489965e+00 -1 1 0
149 1 2.4820335383844956e+00 4.9897861155802907e+00 -1.2750176797749997e+00 0 0 0
147 1 8.1191094264429620e-01 4.8276123954607746e+00 6.4894636750293055e-01 0 0 0
293 1 2.5806076507882723e+00 5.0199720002262280e+00 2.5383576181921876e+00 0 0 0
152 1 2.6141020117211995e+00 6.5835665769411831e+00 6.1288651174717756e-01 0 0 0
290 1 8.7578552896308304e-01 6.3309109050815193e+00 2.4295617023267249e+00 0 0 0
171 1 8.3682319598142330e-01 8.4736327449748909e+00 9.3747877236113242e-01 0 0 0
317 1 2.7668436347372714e+00 8.4813097171809577e+00 2.2562109562967652e+00 0 0 0
146 1 1.0620158425789210e+00 6.9101683140673220e+00 -1.2672283060713596e+00 0 0 0
151 1 4.3231461285479442e+00 4.6512463560582642e+00 7.9417008307113823e-01 0 0 0
294 1 4.3509949465529152e+00 6.4632618650658644e+00 2.6250531282901255e+00 0 0 0
297 1 6.0832074955151683e+00 4.6922418711971750e+00 2.8840687510676739e+00 0 0 0
155 1 7.7707533100772137e+00 4.8776914328483860e+00 3.4980556413449393e-01 0 0 0
156 1 6.2484045407405278e+00 6.4633373605695210e+00 6.0462328028100654e-01 0 0 0
298 1 7.8885246276223091e+00 6.6743674069786030e+00 2.2791112282697710e+00 0 0 0
179 1 7.5773442775593303e+00 8.2668861157499425e+00 2.5181513985213866e-01 0 0 0
321 1 6.4153139837716617e+00 8.4616942314184964e+00 2.1680354087024600e+00 0 0 0
175 1 4.5909104749799443e+00 8.0279533542382637e+00 3.1798000721634301e-01 0 0 0
301 1 9.6357354538780591e+00 4.6920569854295433e+00 2.2725682283716027e+00 0 0 0
159 1 1.1546399086936873e+01 4.9173902210212912e+00 3.9216340947068673e-01 0 0 0
160 1 9.5152793019080697e+00 6.4010108913193449e+00 4.7502544329153928e-01 0 0 0
183 1 1.1464335003975165e+01 8.4200102398335979e+00 2.6612266484565317e-01 0 0 0
302 1 1.1419871573947407e+01 6.4099620461319002e+00 2.1671700139657926e+00 0 0 0
325 1 9.6298448502292615e+00 8.2572571802194119e+00 2.1589967157536623e+00 0 0 0
157 1 9.7106396347182233e+00 4.6095068532600276e+00 -1.2339682496009772e+00 0 0 0
181 1 9.5546153002812186e+00 8.2785498444940497e+00 -1.2233286621336248e+00 0 0 0
163 1 1.5000236556657743e+01 5.0420843236172690e+00 2.8971918025054966e-01 0 0 0
305 1 1.3385237665387544e+01 5.0839988938534075e+00 2.2449223912797378e+00 0 0 0
309 1 1.6613670189764747e+01 5.1524375296036968e+00 2.6765539849892619e+00 0 0 0
164 1 1.3283766443096706e+01 6.5505896787376861e+00 3.8402497397567137e-01 0 0 0
187 1 1.4956075269501962e+01 8.4806617124521342e+00 4.7571119753651669e-01 0 0 0
168 1 1.6846689466188732e+01 6.5977541719211112e+00 2.2733249194176697e-01 0 0 0
306 1 1.4941931489543398e+01 6.9629465191735989e+00 2.0941408822166920e+00 0 0 0
289 1 2.0334595046622681e+01 5.0943089766844203e+00 2.3958332263561255e+00 -1 0 0
167 1 1.8499005712135965e+01 4.9873319877293198e+00 2.0291958925263187e-01 0 0 0
148 1 2.0522585174074194e+01 6.5513114836290720e+00 3.7314773476209795e-01 -1 0 0
191 1 1.8662688879277180e+01 8.3231594960891275e+00 1.7262539421379786e-01 0 0 0
310 1 1.8674339852633008e+01 6.5954588841159882e+00 1.7265070869308468e+00 0 0 0
333 1 1.7027848536659651e+01 8.4141148514880690e+00 2.3169407328445724e+00 0 0 0
145 1 2.0738272390438716e+01 4.7090319423504932e+00 -1.1761487636588370e+00 -1 0 0
176 1 3.0145918079532232e+00 1.0263672707961586e+01 1.8717899887620293e-01 0 0 0
195 1 7.8122909461089474e-01 1.1844303026556517e+01 6.9678844334015633e-01 0 0 0
314 1 8.3265716736005602e-01 1.0281953355162081e+01 2.5186168702260692e+00 0 0 0
341 1 2.8733483190613525e+00 1.1795391839920201e+01 2.1726664787908012e+00 0 0 0
197 1 2.9317595941040859e+00 1.1899278936371495e+01 -1.2897445977119233e+00 0 0 0
170 1 1.1869283041625143e+00 1.0211372590950008e+01 -1.0936008727358129e+00 0 0 0
199 1 4.7293869706830867e+00 1.1988231226749425e+01 2.3075228143000959e-01 0 0 0
318 1 4.6172015577566246e+00 1.0086241959191074e+01 1.8932655918569243e+00 0 0 0
180 1 6.0436668353869383e+00 1.0148505605387522e+01 3.0411426433829991e-02 0 0 0
203 1 7.7169871261607028e+00 1.1711001115530651e+01 1.6863009872002976e-01 0 0 0
322 1 7.9599119800312019e+00 1.0342168247239416e+01 2.2926023597753562e+00 0 0 0
345 1 6.3390724157586762e+00 1.1986664995622835e+01 2.0805487166041106e+00 0 0 0
184 1 9.5197477777496324e+00 1.0281069029573855e+01 6.4175274035801921e-02 0 0 0
207 1 1.1462064788743771e+01 1.2207192641175894e+01 7.4681056338320451e-01 0 0 0
349 1 9.6721885992741079e+00 1.2286247113171941e+01 2.0053565319666871e+00 0 0 0
326 1 1.1016302877339381e+01 1.0200073174125368e+01 2.1168963879313969e+00 0 0 0
329 1 1.2897329844241797e+01 8.5793165052422502e+00 2.4697460418732851e+00 0 0 0
188 1 1.3244296108797592e+01 1.0243563600153466e+01 2.6943507161725466e-01 0 0 0
211 1 1.5147477152991966e+01 1.1675992240782167e+01 8.4309878547843331e-01 0 0 0
330 1 1.5132722990825933e+01 9.5565014573004294e+00 2.4680021529005236e+00 0 0 0
353 1 1.3521756313109048e+01 1.1361552734730548e+01 2.5937918217033293e+00 0 0 0
192 1 1.6754495042097812e+01 1.0059137122716953e+01 8.6527612857896452e-02 0 0 0
357 1 1.6788846468908421e+01 1.1710634231154252e+01 2.5685223184662540e+00 0 0 0
209 1 1.3310647466615249e+01 1.2018249510601278e+01 -1.2739265987504922e+00 0 0 0
169 1 2.0490269697045267e+01 8.6225089542787750e+00 -1.1418402168924602e+00 -1 0 0
313 1 2.0171022624737414e+01 8.5112521480403185e+00 2.2241297144453189e+00 -1 0 0
172 1 2.0155158610476978e+01 1.0294848819869967e+01 6.3578738581561201e-01 -1 0 0
215 1 1.8735372950220611e+01 1.2173308741852860e+01 8.6225764805018557e-01 0 0 0
334 1 1.8595333905516341e+01 1.0162650497558936e+01 2.4603976623644987e+00 0 0 0
337 1 2.0611256934621906e+01 1.2060889305138410e+01 2.4332260413667188e+00 -1 0 0
193 1 2.0438777484127840e+01 1.1866202449116072e+01 -1.2561608672926077e+00 -1 0 0
200 1 2.6443937837463456e+00 1.3774970337314373e+01 5.2863356574542775e-01 0 0 0
219 1 6.4286972430295275e-01 1.5429091519463745e+01 5.3266879382282428e-01 0 0 0
338 1 8.5781734493332640e-01 1.3690417028419716e+01 2.2030309977981495e+00 0 0 0
365 1 2.8434858530423472e+00 1.5615110326138085e+01 2.4063292919273889e+00 0 0 0
221 1 2.4066222746378125e+00 1.5448806301675896e+01 -1.1876478372648265e+00 0 0 0
194 1 1.0614668316699460e+00 1.3603771305941470e+01 -9.3803823920858775e-01 0 0 0
342 1 4.5603025210509420e+00 1.3802623128008078e+01 1.9737677135460281e+00 0 0 0
223 1 4.5458751863095417e+00 1.5902867324665717e+01 2.2331491755905519e-01 0 0 0
204 1 6.2748241849040420e+00 1.3842311349654191e+01 2.5447499917698546e-01 0 0 0
227 1 7.3172834523758814e+00 1.5968601594150766e+01 2.9341467650412634e-01 0 0 0
369 1 6.0857483343797041e+00 1.5668132811386293e+01 2.2349510404456949e+00 0 0 0
346 1 7.9053322719810506e+00 1.3576781999192708e+01 2.5132064368418834e+00 0 0 0
350 1 1.1511540884869467e+01 1.3742984543595162e+01 2.7052847083608587e+00 0 0 0
208 1 9.2984720026390271e+00 1.4180440750106648e+01 3.5185720820878896e-01 0 0 0
231 1 1.1540131088538008e+01 1.5221449184573389e+01 6.6247876346070189e-01 0 0 0
373 1 9.2374785735477190e+00 1.5461009705508781e+01 2.4857746268485932e+00 0 0 0
206 1 1.1561609108925408e+01 1.3803628358393510e+01 -1.1262182614636487e+00 0 0 0
212 1 1.3330397933974789e+01 1.3653018425546563e+01 6.6025514885061432e-01 0 0 0
216 1 1.6744829987888899e+01 1.3484587929511706e+01 7.4966647374244344e-01 0 0 0
235 1 1.5026522005325944e+01 1.5139029056488898e+01 6.2033488408564708e-01 0 0 0
377 1 1.3161118913538825e+01 1.5464464055672630e+01 2.5460852035423587e+00 0 0 0
354 1 1.4773234068472551e+01 1.3550229470979270e+01 2.6256661079196539e+00 0 0 0
381 1 1.6705761957464546e+01 1.5260507739504321e+01 2.3610636687656572e+00 0 0 0
237 1 1.6836217197924338e+01 1.5544202132133154e+01 -8.1062344223663274e-01 0 0 0
217 1 2.0060689107986303e+01 1.5512973981899638e+01 -1.3371151822487954e+00 -1 0 0
214 1 1.8303588450040952e+01 1.3696077069083566e+01 -1.0383345376487472e+00 0 0 0
196 1 2.0307601216381201e+01 1.3682160026903384e+01 4.9002212512096999e-01 -1 0 0
239 1 1.8635934365371014e+01 1.5418875564408042e+01 5.6465267073061343e-01 0 0 0
358 1 1.8618636321814652e+01 1.3707874854588280e+01 2.5423743646774990e+00 0 0 0
361 1 2.0381141050103523e+01 1.5268378339387784e+01 2.3671756081438584e+00 -1 0 0
362 1 6.9001921637421992e-01 1.7695245593988503e+01 2.5401706406799387e+00 0 0 0
224 1 2.6146689201597351e+00 1.7177984411717478e+01 6.2467815320696785e-01 0 0 0
243 1 4.5457909080392045e-01 1.9297951325620762e+01 4.0475758920188487e-01 0 0 0
248 1 2.4897535072366384e+00 2.0857338775223123e+01 5.6232941284420135e-01 0 0 0
389 1 2.3942927129447829e+00 1.9403966781337616e+01 2.3282862196758272e+00 0 0 0
386 1 6.0283183285865805e-01 2.1080630000630403e+01 2.4028480542882189e+00 0 0 0
247 1 4.1259896667957214e+00 1.9372375447249350e+01 6.1041325092115528e-01 0 0 0
245 1 2.6522562719622931e+00 1.9167758811073128e+01 -1.3028405116380171e+00 0 0 0
370 1 7.9224555538584864e+00 1.7609883674415041e+01 2.4964531955972684e+00 0 0 0
390 1 4.4487981834638317e+00 2.0986925186263907e+01 2.2614033918521756e+00 0 0 0
366 1 4.4494449723082603e+00 1.7735658242866602e+01 2.1072724349783116e+00 0 0 0
228 1 6.0659283095482053e+00 1.7918041222048803e+01 5.5496756003501568e-01 0 0 0
252 1 6.2586378563293525e+00 2.0738001442640307e+01 3.3665439684159382e-01 0 0 0
393 1 6.3976023338005925e+00 1.9417921682517601e+01 2.5357723040689804e+00 0 0 0
394 1 8.2427048225611070e+00 2.0652057469826531e+01 2.5100964227143638e+00 0 0 0
226 1 8.2451133753717301e+00 1.7628556897910144e+01 -1.0168862928296960e+00 0 0 0
251 1 8.5832631929369327e+00 1.9230031449855929e+01 7.6562395350893109e-01 0 0 0
232 1 9.7311225768230081e+00 1.7167787182422128e+01 7.7470750812294931e-01 0 0 0
374 1 1.1534224809281268e+01 1.7087640265579829e+01 2.1687809608789657e+00 0 0 0
255 1 1.1824518278602897e+01 1.9205487284214140e+01 5.2500059340772531e-01 0 0 0
256 1 1.0020674819171727e+01 2.0934977894067348e+01 7.8744711868317641e-01 0 0 0
397 1 1.0214501219510444e+01 1.9158049407064020e+01 2.4083208292589715e+00 0 0 0
398 1 1.1861676870856003e+01 2.0836866831594136e+01 2.2354013988262800e+00 0 0 0
230 1 1.1703495820219853e+01 1.7026495130642246e+01 -1.0921214642064665e+00 0 0 0
253 1 1.0015702695102965e+01 1.9013208072889057e+01 -1.1867195610679460e+00 0 0 0
261 1 1.6551699765187557e+01 1.8833042997175880e+01 -1.1787414624615495e+00 0 0 0
378 1 1.4860681803879114e+01 1.7212253200769560e+01 2.6341152555567429e+00 0 0 0
240 1 1.6676134669191278e+01 1.7315973745725987e+01 7.0567446882786156e-01 0 0 0
236 1 1.3265505920957692e+01 1.7159393246561883e+01 4.2533482925366362e-01 0 0 0
259 1 1.4814090453085594e+01 1.8728539016765225e+01 6.0884041632864183e-01 0 0 0
260 1 1.3299009852391332e+01 2.0765089774900204e+01 4.2559516049975410e-01 0 0 0
401 1 1.3304414019913798e+01 1.8799310569981767e+01 2.5862812171514302e+00 0 0 0
402 1 1.4648111435770097e+01 2.0802164931787594e+01 2.3680718555536462e+00 0 0 0
264 1 1.6447420318846778e+01 2.0869209034848684e+01 5.8055272830086091e-01 0 0 0
405 1 1.6761698062395418e+01 1.8835927419562491e+01 2.7759634054394855e+00 0 0 0
258 1 1.4861816182115296e+01 2.0671175111596074e+01 -1.2883591950240003e+00 0 0 0
234 1 1.5166288549585362e+01 1.7106905579945469e+01 -1.2212446117223053e+00 0 0 0
257 1 1.3115498920861931e+01 1.8968877720250187e+01 -1.2069218662486065e+00 0 0 0
382 1 1.8602789825297563e+01 1.7350651374081931e+01 2.3281987664882728e+00 0 0 0
220 1 2.0296172346615748e+01 1.7188158248736588e+01 6.4419637268445662e-01 -1 0 0
263 1 1.8335768521450838e+01 1.9043480574679641e+01 8.1652626046903931e-01 0 0 0
244 1 2.0020226033955471e+01 2.0886664673437984e+01 3.6948725182037623e-01 -1 0 0
406 1 1.8060370565215798e+01 2.0815585283085213e+01 2.4273521227976667e+00 0 0 0
385 1 2.0139702975977652e+01 1.9528906145022088e+01 2.1613370068546067e+00 -1 0 0
241 1 2.0256577995383640e+01 1.9006570134037400e+01 -1.3285975998677872e+00 -1 0 0
262 1 1.8240011391819710e+01 2.0654518420013339e+01 -1.1281410330782595e+00 0 0 0
238 1 1.8478952520638831e+01 1.7375867846304363e+01 -1.0812150116820871e+00 0 0 0
416 1 2.4544057190670698e+00 3.0154562553649922e+00 4.2012468120936193e+00 0 1 0
554 1 4.1018731953417387e-01 2.9077883787207548e+00 6.0476460500697744e+00 0 1 0
411 1 5.2981416431540407e-01 1.3670302315984164e+00 4.3060263696068501e+00 0 1 0
557 1 2.3282372751836671e+00 1.2130957335799557e+00 5.9027849909474535e+00 0 1 0
415 1 4.1656927913677269e+00 1.5528695091803804e+00 4.2736784804612729e+00 0 1 0
558 1 4.0593750119010368e+00 3.0121344647851167e+00 6.0936073896713063e+00 0 1 0
420 1 6.1705466738172534e+00 2.7197256059540758e+00 3.9593613029608568e+00 0 1 0
561 1 6.1178885867261261e+00 1.2925229740124078e+00 5.9579999859134753e+00 0 1 0
419 1 7.9916724218617974e+00 9.6972181901648291e-01 4.1698251986213251e+00 0 1 0
562 1 7.7504137564904516e+00 2.9395887469663751e+00 5.9857134663060556e+00 0 1 0
424 1 9.4988416972640302e+00 2.9597010190451321e+00 4.3104826896930408e+00 0 1 0
566 1 1.1631978585991307e+01 2.8978053746783510e+00 5.8912459367763814e+00 0 1 0
565 1 9.7795522928054854e+00 1.2779641001718349e+00 6.0635534329996901e+00 0 1 0
423 1 1.1684819966158248e+01 1.2922464512053067e+00 4.4282145807534521e+00 0 1 0
569 1 1.3085680800834412e+01 1.1721007636871608e+00 6.2321333704212760e+00 0 1 0
428 1 1.3283109179472984e+01 3.4937627230810029e+00 4.1354265632898981e+00 0 1 0
570 1 1.4664353552717076e+01 3.1733596968394093e+00 6.2729321851912303e+00 0 1 0
427 1 1.4746465661932655e+01 1.5475081281172023e+00 4.1613898621533041e+00 0 1 0
432 1 1.6441752877566181e+01 3.0536482661256286e+00 4.5945580547636986e+00 0 1 0
573 1 1.6185483319393846e+01 1.0942451153393387e+00 6.0230431093494969e+00 0 1 0
412 1 2.0099086236717845e+01 3.3436951312186993e+00 4.0778567750017913e+00 -1 1 0
431 1 1.8056967803872464e+01 1.5968405904809808e+00 4.4782696141814791e+00 0 1 0
574 1 1.8262920199885329e+01 3.7577681139033992e+00 5.7768389672691125e+00 0 1 0
553 1 1.9623968307725374e+01 1.8253037958395706e+00 5.9683043400650817e+00 -1 1 0
437 1 2.4380112330921300e+00 5.0210181739621520e+00 6.2394742491140365e+00 0 0 0
291 1 7.3620423270888435e-01 4.5911789239026044e+00 4.2796276187888891e+00 0 0 0
296 1 2.4848204744768445e+00 6.6024409102490793e+00 4.4199248852186290e+00 0 0 0
315 1 9.6059442441403053e-01 8.4434188700690083e+00 4.0542381601747488e+00 0 0 0
434 1 7.3443345695500328e-01 6.4932509988842764e+00 6.1129368413657081e+00 0 0 0
461 1 2.6571111181922764e+00 8.2383884859881871e+00 6.2289939209967766e+00 0 0 0
295 1 4.1837224008381142e+00 4.5988261259965606e+00 4.3088352741459346e+00 0 0 0
438 1 4.2827246176625078e+00 6.4906297648753117e+00 5.7639786533927646e+00 0 0 0
299 1 7.8611178755989313e+00 4.7705668398080761e+00 4.2255746161605927e+00 0 0 0
441 1 6.2002649683202300e+00 4.7354731451698342e+00 5.9038186047098735e+00 0 0 0
300 1 6.3147292144517220e+00 6.7818770486071704e+00 4.1155083296025152e+00 0 0 0
465 1 6.1565662472179463e+00 8.3688098672515494e+00 5.9021815801029689e+00 0 0 0
442 1 8.1056083339674494e+00 6.8364204018195807e+00 6.0190457042042791e+00 0 0 0
323 1 7.9744631307381253e+00 8.3374528756865232e+00 4.2459603726410249e+00 0 0 0
319 1 4.5360698386859228e+00 8.3361183728186976e+00 4.2220291195414683e+00 0 0 0
443 1 7.7186682243104432e+00 4.9504840296177006e+00 7.6140491977107825e+00 0 0 0
444 1 5.9802694221975408e+00 6.5810597959380086e+00 7.3813818998761640e+00 0 0 0
445 1 9.4588590009524331e+00 4.7089767856684679e+00 6.0936643157384154e+00 0 0 0
303 1 1.1210338740883678e+01 4.8789924041312993e+00 4.2695204999416649e+00 0 0 0
304 1 9.6494614358186794e+00 6.6821573357399879e+00 4.2196002107731543e+00 0 0 0
446 1 1.1085210238848580e+01 6.4749972604526853e+00 6.1212032682369406e+00 0 0 0
473 1 1.2734703046590056e+01 8.3083666902757702e+00 6.1989780854860195e+00 0 0 0
307 1 1.4686668677709877e+01 5.2927991467370639e+00 4.3130436864724473e+00 0 0 0
449 1 1.2941272436207084e+01 4.9940064053150106e+00 6.2817011440638604e+00 0 0 0
308 1 1.2927290751610116e+01 6.7172376660056798e+00 4.4013108548958844e+00 0 0 0
450 1 1.4633831031266581e+01 6.8022356583908081e+00 6.5430359265099476e+00 0 0 0
477 1 1.6754596191385641e+01 8.2286252101803274e+00 6.5141130474074878e+00 0 0 0
312 1 1.6586690871867916e+01 6.9369332995946333e+00 4.3869510602641375e+00 0 0 0
453 1 1.6319510106911618e+01 5.0856654963149346e+00 6.1730010610410497e+00 0 0 0
331 1 1.4706754353271293e+01 8.2646881882187113e+00 4.5018320310341053e+00 0 0 0
311 1 1.8348657428917861e+01 5.0116279476780736e+00 3.9799125603312335e+00 0 0 0
433 1 2.0136713101553045e+01 5.1549794495509360e+00 5.9369156835642469e+00 -1 0 0
292 1 2.0101754534768926e+01 6.5770564467865507e+00 4.1055771602847253e+00 -1 0 0
454 1 1.8631575670171813e+01 6.7595386394874621e+00 6.2909092196038126e+00 0 0 0
335 1 1.8715370187264266e+01 8.3685085752311057e+00 4.2088197897791311e+00 0 0 0
320 1 2.9521265927009082e+00 1.0083026166781424e+01 4.3622546665673649e+00 0 0 0
458 1 8.6772922884352910e-01 1.0182913225548658e+01 6.1178331180206991e+00 0 0 0
339 1 1.2064216621389228e+00 1.1869474353646304e+01 4.3249301362296961e+00 0 0 0
485 1 2.7817467742279205e+00 1.1969182390715563e+01 6.2800334660099928e+00 0 0 0
343 1 4.3947272471322858e+00 1.1851607270895867e+01 3.9468770538178566e+00 0 0 0
462 1 4.5222084020513238e+00 1.0116886674983689e+01 6.1687157193208524e+00 0 0 0
466 1 7.4373990712678033e+00 1.0498582539626954e+01 6.5053260081898960e+00 0 0 0
324 1 6.2722310538324511e+00 1.0055936157265183e+01 3.9272655520826429e+00 0 0 0
489 1 6.1231570193449665e+00 1.2290721586225917e+01 5.9910415373645884e+00 0 0 0
347 1 7.7596738318152623e+00 1.1890101944024618e+01 4.0538182356157844e+00 0 0 0
327 1 1.1254890639559845e+01 8.6317654918735336e+00 3.9975618594641471e+00 0 0 0
469 1 9.4610186417861168e+00 8.5144407644039148e+00 6.3226357478766806e+00 0 0 0
470 1 1.1107649689809856e+01 1.0203624638509693e+01 6.1733565153360832e+00 0 0 0
328 1 9.6087914638669698e+00 1.0177475388294969e+01 4.1024663058905171e+00 0 0 0
351 1 1.1173334865390860e+01 1.1978060934615522e+01 4.0142734609443869e+00 0 0 0
493 1 9.6283474928923010e+00 1.2001092341072280e+01 6.4088784220804964e+00 0 0 0
497 1 1.2705676293419490e+01 1.1885221389168894e+01 6.4896533506354670e+00 0 0 0
332 1 1.3139197666373615e+01 1.0544370413496452e+01 4.6205766873609599e+00 0 0 0
474 1 1.4805700809192613e+01 9.8947756229846853e+00 6.2187037114249941e+00 0 0 0
355 1 1.5071753400188060e+01 1.1601022705407065e+01 4.2187775387204143e+00 0 0 0
336 1 1.6708063593547120e+01 9.6591252139472257e+00 4.6739924183540280e+00 0 0 0
501 1 1.6545160382399835e+01 1.1443923193398524e+01 6.5234290444466838e+00 0 0 0
457 1 2.0689328436672422e+01 8.5210251810138686e+00 6.1513099559329580e+00 -1 0 0
316 1 2.0564801477215017e+01 1.0200289613391908e+01 4.5051999881590312e+00 -1 0 0
478 1 1.8666334413698593e+01 9.8103518582664027e+00 6.0598842447666339e+00 0 0 0
359 1 1.8868357733973593e+01 1.1932910755338543e+01 4.1923522444436525e+00 0 0 0
481 1 2.0125816389851749e+01 1.2054451114735425e+01 6.1227490848249220e+00 -1 0 0
482 1 8.8161055791421628e-01 1.3537910101413226e+01 6.0579836118074555e+00 0 0 0
344 1 2.6775753363810799e+00 1.3712291359022744e+01 3.8196676829878058e+00 0 0 0
363 1 7.9810813693731952e-01 1.5623311626380312e+01 4.0575499599058436e+00 0 0 0
509 1 2.2672370102584249e+00 1.5730157301126027e+01 5.9969879495043470e+00 0 0 0
367 1 4.1142146356780529e+00 1.5755867658225624e+01 4.1723540877097545e+00 0 0 0
486 1 3.8565446169441624e+00 1.3814209059158300e+01 6.0575679126652924e+00 0 0 0
348 1 5.8333480663063195e+00 1.4268588336223326e+01 4.1083336633705336e+00 0 0 0
490 1 7.8024039775179146e+00 1.3942227947715727e+01 5.8161706592938920e+00 0 0 0
513 1 6.0694086379851999e+00 1.5584384377455681e+01 5.9742883155426449e+00 0 0 0
371 1 7.9809989674320931e+00 1.5739612838564055e+01 4.3860548002398367e+00 0 0 0
494 1 1.1352042599553542e+01 1.3824919723916688e+01 6.4494405021626156e+00 0 0 0
352 1 9.5926434424922373e+00 1.3685342236484049e+01 4.3359510697461658e+00 0 0 0
375 1 1.1181386468778085e+01 1.5738498597006393e+01 4.2376079710998242e+00 0 0 0
517 1 9.4317951765946724e+00 1.5350102172819939e+01 6.3601270288478577e+00 0 0 0
521 1 1.3317332641370207e+01 1.5241551578325145e+01 6.1401252238784911e+00 0 0 0
498 1 1.5152015524186098e+01 1.3467596786065737e+01 6.1213097057417292e+00 0 0 0
356 1 1.3244836030898393e+01 1.3482629000612519e+01 4.4573095557149598e+00 0 0 0
379 1 1.4980887081684196e+01 1.5224162627937122e+01 4.4291427715247913e+00 0 0 0
525 1 1.6663343404086280e+01 1.5273837619132175e+01 6.0348572889696444e+00 0 0 0
360 1 1.6802871767514997e+01 1.3468707374363914e+01 4.2990377073971029e+00 0 0 0
502 1 1.8395074543517772e+01 1.3718665999740560e+01 6.2391814126801339e+00 0 0 0
340 1 2.0556141478920285e+01 1.3808447541541408e+01 4.2699688158025451e+00 -1 0 0
383 1 1.8561806881033920e+01 1.5249540418117881e+01 4.3670904664847061e+00 0 0 0
505 1 2.0439986163105409e+01 1.5324251027730487e+01 5.9983689353397587e+00 -1 0 0
526 1 1.8577033094215459e+01 1.6841253697634386e+01 5.9673578321852752e+00 0 0 0
506 1 4.4585404602971468e-01 1.7325573540411309e+01 5.9786313890298208e+00 0 0 0
368 1 2.2997808874767549e+00 1.7540319773400967e+01 4.3200803797711353e+00 0 0 0
387 1 3.7393006671111606e-01 1.9371330534299087e+01 4.1126437711783339e+00 0 0 0
533 1 2.2073874776467473e+00 1.8908279723197303e+01 6.3986456091980424e+00 0 0 0
392 1 2.4389329930755577e+00 2.0589734504874439e+01 4.4274850791920262e+00 0 0 0
530 1 2.1699397291759351e-01 2.1243241673141416e+01 6.2846606278491652e+00 0 0 0
534 1 4.1579723685703645e+00 2.0776040083318922e+01 6.1638636722294455e+00 0 0 0
391 1 3.9741334098818255e+00 1.8942487201942658e+01 4.0368356137056569e+00 0 0 0
510 1 4.4672833349168179e+00 1.7368793736041752e+01 5.7389499765609360e+00 0 0 0
514 1 8.2227818115253903e+00 1.7516769268811959e+01 6.1856713311330065e+00 0 0 0
372 1 5.9760517819172856e+00 1.7639915021958117e+01 3.8807852435945707e+00 0 0 0
395 1 7.9356238788821027e+00 1.9313383385212987e+01 4.4626688881691665e+00 0 0 0
396 1 5.5934874872931708e+00 2.0806588384012031e+01 4.3293239518745361e+00 0 0 0
537 1 6.3729689732779695e+00 1.9397999442856467e+01 6.2848353410420605e+00 0 0 0
538 1 7.9481444392229639e+00 2.1084313020174960e+01 6.1980568773988090e+00 0 0 0
516 1 6.0646167840148646e+00 1.7119184025445673e+01 7.6595724774867051e+00 0 0 0
518 1 1.1286191405316139e+01 1.7039485943374768e+01 6.4072996141277088e+00 0 0 0
376 1 9.6486880744058876e+00 1.7503506257684183e+01 4.0956226802906643e+00 0 0 0
399 1 1.1642471889936353e+01 1.9000266475494602e+01 4.1334723063714431e+00 0 0 0
400 1 9.9427643537144217e+00 2.0733808891044990e+01 4.0198490460321228e+00 0 0 0
541 1 9.8701441004567894e+00 1.9134381791790258e+01 6.2644548563939688e+00 0 0 0
542 1 1.1465056273963862e+01 2.0768427769026907e+01 6.0385380787380036e+00 0 0 0
546 1 1.4876013921311687e+01 2.0371809172798432e+01 6.0985752490710317e+00 0 0 0
522 1 1.4952154495801000e+01 1.7017089712160558e+01 6.1547527762356857e+00 0 0 0
380 1 1.3086561927371102e+01 1.7131193867810719e+01 4.4149117529688962e+00 0 0 0
384 1 1.6884713089605125e+01 1.7152707390006817e+01 4.3338712678095224e+00 0 0 0
403 1 1.4926254933251069e+01 1.8802185614144047e+01 4.3994780493350794e+00 0 0 0
404 1 1.3246644125199500e+01 2.0702604945766115e+01 4.2015054142856121e+00 0 0 0
545 1 1.3039580592649200e+01 1.8658058379530203e+01 6.4245187034367337e+00 0 0 0
408 1 1.6507116976967147e+01 2.0735691632247892e+01 4.1984055434873389e+00 0 0 0
549 1 1.6662734536502970e+01 1.8921104131230372e+01 6.0827290330606552e+00 0 0 0
364 1 2.0239727888883085e+01 1.7103481419581669e+01 4.0584997837671590e+00 -1 0 0
407 1 1.8487769582452955e+01 1.8918359103228564e+01 4.2459666017867352e+00 0 0 0
388 1 1.9793982594287844e+01 2.0948295166675852e+01 4.3663911390475061e+00 -1 0 0
529 1 1.9988001869381730e+01 1.9066932650257328e+01 6.0977098437580546e+00 -1 0 0
550 1 1.8065738362261023e+01 2.0982049071887257e+01 6.1170984183541162e+00 0 0 0
532 1 1.9656079760071879e+01 2.0835154400517474e+01 7.6909156997434849e+00 -1 0 0
555 1 8.5886825550019852e-01 1.5385427433013537e+00 8.0135350211432037e+00 0 1 0
560 1 2.2872125498677778e+00 3.3553457977752270e+00 7.8033542018177613e+00 0 1 0
698 1 3.9506669182995069e-01 3.0891242519738542e+00 9.6595125585946615e+00 0 1 0
701 1 2.3810594044405820e+00 1.3546225086706796e+00 1.0001301376706818e+01 0 1 0
699 1 5.4186653125816808e-01 1.2568192008913683e+00 1.1738631116261312e+01 0 1 0
703 1 4.2243889753768666e+00 1.4560890478005375e+00 1.1967630129620666e+01 0 1 0
559 1 4.0363761756301662e+00 1.3026164360478059e+00 8.2025437283910438e+00 0 1 0
702 1 4.3928233300225754e+00 3.2077281419920163e+00 9.7494672598097516e+00 0 1 0
564 1 6.1638013890789241e+00 3.0585397611249086e+00 7.7524611042045919e+00 0 1 0
706 1 7.7168944826084811e+00 3.1322015620328800e+00 9.7962035371901042e+00 0 1 0
705 1 5.9217334858526298e+00 1.4437482292594706e+00 9.8988006880003976e+00 0 1 0
563 1 8.0116756754987613e+00 1.4990985101159582e+00 7.9153737614994135e+00 0 1 0
707 1 7.8381412032514719e+00 1.2525729136780477e+00 1.1982756554289780e+01 0 1 0
708 1 6.2689802235037062e+00 2.9717101487606121e+00 1.1586701158698199e+01 0 1 0
682 1 7.7472002000416209e+00 1.7363418902409222e-01 9.8521619640804303e+00 0 1 0
568 1 9.6905372600009017e+00 3.1123453323990642e+00 8.1436119351253407e+00 0 1 0
710 1 1.1243224986502710e+01 3.1530323701348602e+00 9.9226965840122663e+00 0 1 0
709 1 9.7862225346761011e+00 1.5358659523751950e+00 1.0023230287836192e+01 0 1 0
567 1 1.1551623103557247e+01 9.7506476804977549e-01 7.9885532749659269e+00 0 1 0
711 1 1.1567660054178486e+01 1.5708335632414590e+00 1.2063700486066905e+01 0 1 0
712 1 9.1656332425733069e+00 3.4244929154706956e+00 1.1972153507168519e+01 0 1 0
572 1 1.2824686300052548e+01 3.0515402464448016e+00 8.0341220611684214e+00 0 1 0
714 1 1.5057979947309214e+01 3.3847752677458249e+00 9.7874787654134199e+00 0 1 0
713 1 1.3131605334788221e+01 1.3139311249950145e+00 9.9825301910668607e+00 0 1 0
571 1 1.5074176436356364e+01 1.5093072810777191e+00 8.0241934369170256e+00 0 1 0
716 1 1.3093973954466689e+01 3.3105631393195414e+00 1.1879193119715758e+01 0 1 0
720 1 1.6489588892502603e+01 3.3624306463432863e+00 1.1645399540837191e+01 0 1 0
715 1 1.5071433159194605e+01 1.4456008220846654e+00 1.1469786407626682e+01 0 1 0
717 1 1.6563920921019914e+01 1.6762584845794017e+00 9.7580735805650818e+00 0 1 0
576 1 1.6905356857988412e+01 3.0887026180669883e+00 7.7744134629849082e+00 0 1 0
556 1 2.0132102334966238e+01 3.1424021359814733e+00 8.0942049109577727e+00 -1 1 0
718 1 1.8515660168034536e+01 3.4304259905382901e+00 1.0204407401607904e+01 0 1 0
575 1 1.8313663551387840e+01 1.3187351440890918e+00 7.8987124368252584e+00 0 1 0
697 1 2.0062462476222255e+01 1.4214521970323772e+00 9.7467879835579296e+00 -1 1 0
700 1 2.0099827131462387e+01 2.7880277571800027e+00 1.1944080589651366e+01 -1 1 0
719 1 1.8154055646717740e+01 1.6189377456201106e+00 1.1706705465704434e+01 0 1 0
459 1 8.5389420553599138e-01 8.0019879989993896e+00 8.1193828014603699e+00 0 0 0
435 1 3.3344196428077111e-01 4.7315480924827460e+00 8.1066895057647770e+00 0 0 0
581 1 2.5236476559720464e+00 4.4750503182082184e+00 1.0019657466801183e+01 0 0 0
578 1 6.3291430259282810e-01 6.2815859450441458e+00 9.8361914030864774e+00 0 0 0
440 1 2.5130111846243253e+00 6.3749583934994885e+00 8.3450660594719199e+00 0 0 0