LAMMPS data file via write_data, version 19 Mar 2020, timestep = 100000

1728 atoms
1 atom types

-1.0750651363527375e-01 2.1371506513636191e+01 xlo xhi
-1.0750651363527375e-01 2.1371506513636191e+01 ylo yhi
-2.1501302727054750e-01 4.2743013027272383e+01 zlo zhi

Masses

1 58.933

Atoms # atomic

8 1 3.4827468224241382e+00 1.4789000263130314e+00 1.5385146593315722e+00 0 0 0
27 1 1.8394602453433415e+00 3.4997245710589699e+00 1.6247960795534042e+00 0 0 0
146 1 1.6577712083271097e+00 1.6506402417219699e+00 3.2050754643887558e+00 0 0 0
173 1 3.4842840873330165e+00 3.4060611041147046e+00 3.3332453894821064e+00 0 0 0
169 1 -6.2822926774074611e-02 3.5816798131488166e+00 3.4176599188940147e+00 0 0 0
3 1 1.7772155528111959e+00 2.1224909957299452e+01 1.5252782057833865e+00 0 -1 0
2 1 1.8285153547899062e+00 1.7655864222140312e+00 -1.0702015416711426e-01 0 0 0
1006 1 1.9629402483950727e+01 1.9497639472337916e+01 2.1246399361553628e+01 0 0 0
7 1 5.4374745236538162e+00 2.1146049782744484e+01 1.4739751817511464e+00 0 -1 0
12 1 7.1011562019491734e+00 1.6454837449153539e+00 1.5893056047184229e+00 0 0 0
31 1 5.0200654508899740e+00 3.4738752679325566e+00 1.5377190588553076e+00 0 0 0
150 1 5.1999067053535484e+00 1.6743782271777161e+00 3.2624101348108665e+00 0 0 0
177 1 6.8287515580628062e+00 3.5102041829142623e+00 3.1221503651200710e+00 0 0 0
721 1 2.1364980532733099e+01 2.1229233635780908e+01 1.7689223116412567e+01 -1 -1 0
15 1 1.2568255158983217e+01 2.1268674293909825e+01 1.4646918632649122e+00 0 -1 0
16 1 1.0669268437262685e+01 1.5756998834108937e+00 1.5955814625487528e+00 0 0 0
35 1 8.9339781112557528e+00 3.5206820750001668e+00 1.6143116445701367e+00 0 0 0
39 1 1.2345919210658499e+01 3.5730996520829414e+00 1.6269047030384693e+00 0 0 0
154 1 8.8559692736840478e+00 1.6236995193686969e+00 3.2915723194216469e+00 0 0 0
158 1 1.2465809622953410e+01 1.5829479252250782e+00 3.4337162250330726e+00 0 0 0
181 1 1.0496894318577672e+01 3.3684582002989587e+00 3.2788000318683710e+00 0 0 0
10 1 8.9202449565255666e+00 1.4618289217930915e+00 -4.6445956574988567e-02 0 0 0
19 1 1.5924074311005191e+01 5.5928022626151375e-02 1.6165402769959629e+00 0 0 0
20 1 1.3995996049605161e+01 1.6899699259729961e+00 1.6612845649736991e+00 0 0 0
43 1 1.5923735109952636e+01 3.3094797743603932e+00 1.5466431547320867e+00 0 0 0
162 1 1.6040632412031023e+01 1.8328069309113515e+00 3.4966496931404509e+00 0 0 0
185 1 1.4219366967504904e+01 3.3651823749361132e+00 3.4950792132182826e+00 0 0 0
4 1 -8.2977067374422120e-02 1.6961076289963755e+00 1.5643056081125100e+00 0 0 0
24 1 1.7822045463025397e+01 1.7427755104524076e+00 1.6686831433829421e+00 0 0 0
47 1 1.9613668951636086e+01 3.5459504179032888e+00 1.6393239115440161e+00 0 0 0
166 1 1.9775209513224297e+01 1.6786899758517400e+00 3.1257007215365564e+00 0 0 0
189 1 1.7953932887957279e+01 3.3866347864975030e+00 3.4133985942404172e+00 0 0 0
25 1 2.1330200596594985e+01 3.3477751142567933e+00 -1.5275010841057851e-01 -1 0 0
45 1 1.7732146497975208e+01 3.2676667854154346e+00 -7.9823291847207795e-02 0 0 0
864 1 1.7796702980524053e+01 1.9432006006526564e+01 1.9490789850349763e+01 0 0 0
28 1 -5.0895603643427795e-02 5.2028484808627775e+00 1.6508407094083841e+00 0 0 0
32 1 3.4620736234285703e+00 5.3601412110642714e+00 1.6888737470461752e+00 0 0 0
51 1 1.4299423831286191e+00 7.0403089137292021e+00 1.4062582513710062e+00 0 0 0
53 1 3.4701838845403623e+00 6.9525941712572292e+00 -1.6096747901621894e-01 0 0 0
170 1 1.6751498611805318e+00 5.3934836242568736e+00 3.4070224296918785e+00 0 0 0
197 1 3.5115471145672617e+00 7.1674124222768496e+00 3.1624953892203584e+00 0 0 0
30 1 5.1953265006851748e+00 5.1030976821497935e+00 -1.7605043442658766e-01 0 0 0
36 1 7.2685287727714591e+00 5.5666987770405303e+00 1.4858416264709717e+00 0 0 0
55 1 5.4355991568702109e+00 6.9695168052740781e+00 1.5071621061411475e+00 0 0 0
863 1 1.9600806073026988e+01 1.7742915417972512e+01 1.9490721220774248e+01 0 0 0
174 1 5.1924190072979304e+00 5.3573239786091893e+00 3.3348518685422630e+00 0 0 0
201 1 7.0951962308713883e+00 6.9305869649252010e+00 3.4872090015299837e+00 0 0 0
40 1 1.0661351186550409e+01 5.4183225393724204e+00 1.6023848531840450e+00 0 0 0
59 1 8.8489445036127226e+00 7.1732707120319334e+00 1.5590819510995715e+00 0 0 0
63 1 1.2514739123658773e+01 7.0606728710398352e+00 1.6885515054898343e+00 0 0 0
178 1 8.8233558550509912e+00 5.3179300113777774e+00 3.4109707807178751e+00 0 0 0
182 1 1.2371343209804637e+01 5.3672191651349532e+00 3.5490572379423031e+00 0 0 0
205 1 1.0738154124539809e+01 7.2449466106711009e+00 3.4337013135048440e+00 0 0 0
34 1 8.8125868061588637e+00 5.3103742623241867e+00 -1.5956433120222835e-01 0 0 0
44 1 1.4284801392202512e+01 5.2253761212924363e+00 1.6710815545696487e+00 0 0 0
67 1 1.6001646713505025e+01 7.0339372765464461e+00 1.5879618778065667e+00 0 0 0
186 1 1.6249556082242258e+01 5.2336973505234008e+00 3.4623297883598769e+00 0 0 0
209 1 1.4160919894307440e+01 7.0447109880780516e+00 3.4421733197510682e+00 0 0 0
193 1 2.1299155022611004e+01 7.0052612251797575e+00 3.3687751830052006e+00 -1 0 0
48 1 1.7774496312637140e+01 5.2851066438658139e+00 1.6230876973518809e+00 0 0 0
71 1 1.9579449454157121e+01 6.9295891074623572e+00 1.6300832242585843e+00 0 0 0
190 1 1.9655467275726608e+01 5.3257744318399398e+00 3.3858223831896637e+00 0 0 0
213 1 1.7874963630118074e+01 7.1354393673317373e+00 3.3411981585590911e+00 0 0 0
862 1 1.9535146060307540e+01 1.9691255306481651e+01 1.7826282520253550e+01 0 0 0
861 1 1.7792746448066481e+01 1.7687787145805892e+01 1.7563355780284734e+01 0 0 0
841 1 2.1342184466257045e+01 1.7778684456688509e+01 1.7453327723713258e+01 -1 0 0
56 1 3.4673890135134409e+00 8.8084530950354392e+00 1.3259974167764812e+00 0 0 0
75 1 1.6305882217650696e+00 1.0615916073778791e+01 1.5392807628950333e+00 0 0 0
77 1 3.3887484494927387e+00 1.0708347609788795e+01 -1.8375753364636710e-01 0 0 0
80 1 3.5100591257853786e+00 1.2346080625370297e+01 1.5162833268121236e+00 0 0 0
194 1 1.5627037609063621e+00 8.7636647325708434e+00 3.2227543101633120e+00 0 0 0
218 1 1.6788632990924377e+00 1.2353574309158388e+01 3.2012414292095785e+00 0 0 0
221 1 3.4592339572603819e+00 1.0593627386240682e+01 3.2793648519559149e+00 0 0 0
217 1 2.1226702541116719e+01 1.0764749834014047e+01 3.3739517823570262e+00 -1 0 0
1005 1 1.7763599384038756e+01 1.7568473375237893e+01 2.1235264577392815e+01 0 0 0
860 1 1.4250743951249355e+01 1.9533789851998108e+01 1.9627675686520959e+01 0 0 0
60 1 7.0385911925169324e+00 8.7889879628628513e+00 1.5319011731328245e+00 0 0 0
859 1 1.6019560418903723e+01 1.7684046412783303e+01 1.9375778825343467e+01 0 0 0
79 1 5.3307535034562630e+00 1.0824388662414490e+01 1.5567029374666690e+00 0 0 0
81 1 7.0403430199773558e+00 1.0741146313543091e+01 -2.1284871042559506e-01 0 0 0
84 1 7.3591162652840554e+00 1.2380606899763261e+01 1.6799497028565149e+00 0 0 0
198 1 5.2550141651146065e+00 8.7727817030433961e+00 3.2700552992835568e+00 0 0 0
222 1 5.2388020361632419e+00 1.2371926872640657e+01 3.2831449821478893e+00 0 0 0
225 1 7.0920507970830258e+00 1.0804856380620913e+01 3.3913599299989139e+00 0 0 0
54 1 5.2814843239955200e+00 9.0002699383474489e+00 -8.4082721328579080e-02 0 0 0
64 1 1.0632741447734221e+01 8.8895791093782375e+00 1.7251196510919684e+00 0 0 0
83 1 8.7414819714329131e+00 1.0554009633401401e+01 1.6341623154491485e+00 0 0 0
87 1 1.2177131715585798e+01 1.0603313193124592e+01 1.6302375612307205e+00 0 0 0
88 1 1.0687872109708541e+01 1.2495400180207310e+01 1.6306822316812803e+00 0 0 0
202 1 8.4935702078301230e+00 8.7899135261102472e+00 3.5058654052017673e+00 0 0 0
206 1 1.2443245636620841e+01 8.9534338600914438e+00 3.5249405975368178e+00 0 0 0
226 1 9.0452566398263095e+00 1.2603934841203809e+01 3.5441765216150825e+00 0 0 0
229 1 1.0506197014782021e+01 1.0624094648095785e+01 3.4263498392944491e+00 0 0 0
230 1 1.2230946930158691e+01 1.2492464659285302e+01 3.4057103664082735e+00 0 0 0
68 1 1.4378896051163142e+01 8.8558472680471620e+00 1.6971776963858378e+00 0 0 0
91 1 1.6003162206530739e+01 1.0549081320749794e+01 1.6832230392494936e+00 0 0 0
92 1 1.3951085483231608e+01 1.2447501422633252e+01 1.6465011049419251e+00 0 0 0
210 1 1.6029612102452113e+01 8.8459112370176065e+00 3.3623746927208376e+00 0 0 0
233 1 1.4071199334886030e+01 1.0682438774012333e+01 3.3090246954776972e+00 0 0 0
234 1 1.5797844740251433e+01 1.2352314996776808e+01 3.4200376461747486e+00 0 0 0
52 1 2.1310676486662693e+01 8.8826550618476965e+00 1.4145813673201786e+00 -1 0 0
858 1 1.5889004784820358e+01 1.9476268162291298e+01 1.7794772805898912e+01 0 0 0
76 1 4.4468362485183377e-02 1.2439876676705165e+01 1.4847934740639168e+00 0 0 0
72 1 1.7708808088668029e+01 8.8686431345433565e+00 1.6072985906163850e+00 0 0 0
857 1 1.4191552809313384e+01 1.7744898671873564e+01 1.7820286171865785e+01 0 0 0
95 1 1.9445597372162659e+01 1.0668054920840698e+01 1.5912689599662575e+00 0 0 0
96 1 1.7657963134604181e+01 1.2333223606477672e+01 1.5995074120664776e+00 0 0 0
214 1 1.9603120946383008e+01 8.8789701520941620e+00 3.4142653491671640e+00 0 0 0
237 1 1.7695748781012107e+01 1.0601516914326824e+01 3.3913733476384658e+00 0 0 0
238 1 1.9580955939334395e+01 1.2343500458801985e+01 3.2994287585648929e+00 0 0 0
99 1 1.7781367731651911e+00 1.4204111887661275e+01 1.5670804589929999e+00 0 0 0
104 1 3.8068423370966951e+00 1.5923725496951311e+01 1.3733324979326302e+00 0 0 0
242 1 1.6860680110644459e+00 1.5936814049833140e+01 3.1033396193750740e+00 0 0 0
245 1 3.5481695983448058e+00 1.4284761183012234e+01 3.2387614614216913e+00 0 0 0
103 1 5.5131772314533212e+00 1.3943782543860820e+01 1.5286348332717341e+00 0 0 0
108 1 7.0867025249463396e+00 1.5811118058342776e+01 1.4731104473224987e+00 0 0 0
246 1 5.3196364272084864e+00 1.5791547928086757e+01 3.3279447332091570e+00 0 0 0
249 1 7.2382466507665484e+00 1.4102120058109222e+01 3.5233720935760577e+00 0 0 0
856 1 1.0601175854853940e+01 1.9375258661926814e+01 1.9465723314298824e+01 0 0 0
107 1 9.1714507923578878e+00 1.4284329665649471e+01 1.7636087997446586e+00 0 0 0
111 1 1.2332221486612283e+01 1.4288733051897127e+01 1.5073780553523557e+00 0 0 0
112 1 1.0737235153136318e+01 1.6105890806854084e+01 1.6865396292811783e+00 0 0 0
250 1 8.9779612744553177e+00 1.6041970634873216e+01 3.3912106383750729e+00 0 0 0
253 1 1.0625221500617229e+01 1.4234278629193641e+01 3.4562779191990156e+00 0 0 0
254 1 1.2330844069010363e+01 1.5814496350897121e+01 3.5282947058188596e+00 0 0 0
106 1 9.0111828685316961e+00 1.5898934652043641e+01 -1.9557710616930124e-01 0 0 0
115 1 1.5817551788151679e+01 1.4111616280437630e+01 1.7113649470081067e+00 0 0 0
116 1 1.4138539405232610e+01 1.6172033272972577e+01 1.8686465676086210e+00 0 0 0
257 1 1.4171742835466661e+01 1.4098807608600540e+01 3.4742158967913568e+00 0 0 0
258 1 1.6108677082130875e+01 1.5836910916409250e+01 3.2886842921142989e+00 0 0 0
100 1 2.1185606008102880e+01 1.5962824017814922e+01 1.4943924012670049e+00 -1 0 0
241 1 2.1352200554878408e+01 1.4186678446341986e+01 3.1997273903418915e+00 -1 0 0
855 1 1.2513719472924821e+01 1.7763709624695885e+01 1.9800415497397427e+01 0 0 0
119 1 1.9460659006507392e+01 1.4016471865963076e+01 1.5250044744856033e+00 0 0 0
120 1 1.7775666629215287e+01 1.6048704133816663e+01 1.5584321243885217e+00 0 0 0
261 1 1.7852501255756074e+01 1.4201253385269673e+01 3.3700971303352327e+00 0 0 0
262 1 1.9591473248873207e+01 1.6108200653722449e+01 3.2530577288231077e+00 0 0 0
117 1 1.7583204243705126e+01 1.4224891924521568e+01 -1.9391525130639545e-01 0 0 0
854 1 1.2501668567776882e+01 1.9427296776831163e+01 1.7727940912553866e+01 0 0 0
149 1 3.4748138375497866e+00 2.1138600929097962e+01 3.2279598999171770e+00 0 -1 0
853 1 1.0501428764198060e+01 1.7720963348853758e+01 1.7847405407651674e+01 0 0 0
123 1 1.7857539853391009e+00 1.7663378533522547e+01 1.4523438565405307e+00 0 0 0
128 1 3.6895566849422501e+00 1.9359407608612038e+01 1.4543361799873908e+00 0 0 0
266 1 1.7180853155850950e+00 1.9509677462090039e+01 3.2933870479935452e+00 0 0 0
269 1 3.5729951948937582e+00 1.7474726201930892e+01 3.3614507860687541e+00 0 0 0
265 1 -1.2169441187097299e-02 1.7787700533178196e+01 3.1324919217446343e+00 0 0 0
153 1 6.9370179205162188e+00 2.1362209262773533e+01 3.4422568667135724e+00 0 -1 0
127 1 5.5038769267193750e+00 1.7753026701782517e+01 1.5748539820760392e+00 0 0 0
132 1 7.0376755816976724e+00 1.9476955311613231e+01 1.5947495322241318e+00 0 0 0
270 1 5.3957434452356585e+00 1.9361794681040841e+01 3.4668882958112013e+00 0 0 0
273 1 7.1528203435056676e+00 1.7622031641394884e+01 3.4918504785914211e+00 0 0 0
11 1 8.7430561184190587e+00 2.1154393264622158e+01 1.7288125041348168e+00 0 -1 0
851 1 8.7642410720869108e+00 1.7661074342880845e+01 1.9619194535604830e+01 0 0 0
157 1 1.0719404101759856e+01 -7.1753171472785482e-02 3.2313428082912203e+00 0 0 0
131 1 8.9542229824787931e+00 1.7687194774853701e+01 1.6238953293929657e+00 0 0 0
850 1 8.7358910997773052e+00 1.9501450793113023e+01 1.7662647553531777e+01 0 0 0
135 1 1.2522825309411274e+01 1.7867727027697072e+01 1.7511100110645028e+00 0 0 0
136 1 1.0675675269365799e+01 1.9405685495080704e+01 1.6744262554814238e+00 0 0 0
274 1 8.6932478313173540e+00 1.9403514154732591e+01 3.3622054314829146e+00 0 0 0
277 1 1.0667662107450605e+01 1.7815961729479064e+01 3.4964750390322759e+00 0 0 0
278 1 1.2565586909312460e+01 1.9816719120256764e+01 3.2352890363433056e+00 0 0 0
852 1 7.0081279165659804e+00 1.9632195128160262e+01 1.9381405820649046e+01 0 0 0
161 1 1.4351063196769642e+01 3.7883612394573163e-02 3.4098053356584264e+00 0 0 0
137 1 1.4452718308116168e+01 1.7742345383391822e+01 -1.1263150021008504e-01 0 0 0
849 1 7.0654963635504986e+00 1.7788860697574577e+01 1.7769517484937765e+01 0 0 0
139 1 1.6129629722340262e+01 1.7731659991888009e+01 1.6430257571308267e+00 0 0 0
140 1 1.4342591441342277e+01 1.9619479479186232e+01 1.4880718312465755e+00 0 0 0
281 1 1.4339340915178274e+01 1.7747347405676827e+01 3.4628033660466593e+00 0 0 0
282 1 1.6021868989704842e+01 1.9543974878178275e+01 3.1830483748388825e+00 0 0 0
165 1 1.7911582357559524e+01 2.1285861605211785e+01 3.3935607909115277e+00 0 -1 0
121 1 2.1254849468181618e+01 1.7840484154108871e+01 -1.4368642353502409e-01 -1 0 0
124 1 2.1268703026815210e+01 1.9612022137980503e+01 1.3399883481111263e+00 -1 0 0
145 1 2.1355604797260597e+01 2.1310024099579550e+01 3.2697775506981168e+00 -1 -1 0
23 1 1.9579471262306669e+01 3.8703662814150164e-02 1.3757513200844025e+00 0 0 0
847 1 5.2265350047034769e+00 1.7732143475624838e+01 1.9431682318699607e+01 0 0 0
143 1 1.9374314449656396e+01 1.7810868626582085e+01 1.4371258456658598e+00 0 0 0
144 1 1.7774934340453775e+01 1.9612756334357506e+01 1.3581787021809595e+00 0 0 0
285 1 1.7848488775299060e+01 1.7767137418598764e+01 3.3675488636911814e+00 0 0 0
286 1 1.9608122447697340e+01 1.9653203883051972e+01 3.2526681622064140e+00 0 0 0
846 1 5.4482841289964865e+00 1.9680515727934775e+01 1.7765172030576654e+01 0 0 0
152 1 3.4388462037800203e+00 1.7431141076575516e+00 5.0721074920107316e+00 0 0 0
171 1 1.7174231191139597e+00 3.3566936455980372e+00 5.1092332394246007e+00 0 0 0
290 1 1.8521891234898644e+00 1.7221979067997881e+00 7.0872308195973659e+00 0 0 0
317 1 3.4736501363816856e+00 3.3079630101267568e+00 6.9922751444670412e+00 0 0 0
148 1 -2.6318043467302196e-02 1.6472152341431403e+00 5.1355885317729317e+00 0 0 0
156 1 7.0423061411947998e+00 1.7631978039848497e+00 5.1396285543552001e+00 0 0 0
175 1 5.2441617831806235e+00 3.4576289793118562e+00 5.1537335928418218e+00 0 0 0
294 1 5.1960648575115531e+00 1.6889186773024913e+00 6.8677410796068257e+00 0 0 0
321 1 7.0967765069048792e+00 3.4033404597653720e+00 6.9308231217295351e+00 0 0 0
155 1 8.7661416946832080e+00 2.1340333373968832e+01 4.9221107656104506e+00 0 -1 0
160 1 1.0705298606206014e+01 1.5896885799759886e+00 5.1068488687634277e+00 0 0 0
179 1 8.8116620807734964e+00 3.3582525168119712e+00 5.1282768481190439e+00 0 0 0
183 1 1.2332596364599960e+01 3.4077532328682705e+00 5.0906020118024262e+00 0 0 0
298 1 8.9639380063768588e+00 1.5312582775140609e+00 6.8073544251440090e+00 0 0 0
302 1 1.2502336539568761e+01 1.7363373886963462e+00 7.1029810901333770e+00 0 0 0
325 1 1.0679100082088887e+01 3.4077844377527802e+00 6.9820947488283682e+00 0 0 0
159 1 1.2354410258795431e+01 2.1295505496069861e+01 5.2134106029053733e+00 0 -1 0
301 1 1.0673745713383713e+01 -6.5239596894035995e-02 6.8712400647707366e+00 0 0 0
164 1 1.4350209563330903e+01 1.6165584832119650e+00 5.2319463589464261e+00 0 0 0
187 1 1.6197011958820234e+01 3.4979220116741496e+00 5.2216394253783465e+00 0 0 0
306 1 1.6041804327376070e+01 1.5249115936133575e+00 6.8838943034803846e+00 0 0 0
329 1 1.4257477086690553e+01 3.5497968451978288e+00 6.8710019682718739e+00 0 0 0
313 1 7.5974180780264078e-02 3.4174993561557709e+00 7.0336560495209870e+00 0 0 0
168 1 1.7926664193624617e+01 1.5308122364257104e+00 5.1290227817838332e+00 0 0 0
191 1 1.9731562929888007e+01 3.3745904216322660e+00 5.2389357723843961e+00 0 0 0
310 1 1.9752553460020650e+01 1.6922730887789506e+00 6.9560403769130774e+00 0 0 0
333 1 1.7826069950981037e+01 3.4714783030929226e+00 6.9246982242269004e+00 0 0 0
176 1 3.4039222137800564e+00 5.4039502121929504e+00 5.0923731946389283e+00 0 0 0
195 1 1.4567081461770111e+00 7.1713985287806494e+00 5.3628378026861183e+00 0 0 0
314 1 1.7453469133878881e+00 5.1468689520705233e+00 6.7857853999734896e+00 0 0 0
337 1 2.1272899783469775e+01 7.1373217647889309e+00 7.0004882551799437e+00 -1 0 0
341 1 3.5131293994194328e+00 7.0929216416272682e+00 6.8498579932065935e+00 0 0 0
180 1 7.0247538559096814e+00 5.0659526642987149e+00 5.1863045865822057e+00 0 0 0
199 1 5.2016343798494544e+00 7.0540877481786932e+00 4.9995190988648375e+00 0 0 0
318 1 5.1325939208116909e+00 5.1962999451271807e+00 6.8021477310546334e+00 0 0 0
345 1 6.9042178223450721e+00 7.0350363752338270e+00 6.7371602483307660e+00 0 0 0
184 1 1.0602332501318399e+01 5.1296765507781421e+00 5.1369243197465355e+00 0 0 0
203 1 8.9702012846451353e+00 6.9884674754592435e+00 5.1730834586279846e+00 0 0 0
207 1 1.2353178686063391e+01 7.1257173458314407e+00 5.1482071209030398e+00 0 0 0
322 1 8.9739168016048350e+00 5.2824502669027895e+00 6.8743209320148750e+00 0 0 0
326 1 1.2626703944577461e+01 5.2607951829713944e+00 6.9308004307892803e+00 0 0 0
349 1 1.0788290594844590e+01 7.1397554288501492e+00 6.8952243553023571e+00 0 0 0
188 1 1.4293535712344550e+01 5.2271253232167192e+00 5.0132313278277101e+00 0 0 0
211 1 1.6166954814267314e+01 6.9044511826033004e+00 5.0322298941167132e+00 0 0 0
330 1 1.6069580819904843e+01 5.2732697407534141e+00 6.8045815179729274e+00 0 0 0
353 1 1.4384512304611500e+01 7.1021071059090088e+00 6.9190873517278266e+00 0 0 0
172 1 -9.5993341983913183e-02 5.1588178473822888e+00 5.1836078135685097e+00 0 0 0
192 1 1.7984990185050350e+01 5.3509445820444830e+00 5.1520125619706887e+00 0 0 0
215 1 1.9648812810018683e+01 7.0601162048145367e+00 5.2388632084537230e+00 0 0 0
334 1 1.9600416158420884e+01 5.2052467947562358e+00 6.9394394953402587e+00 0 0 0
357 1 1.7736237375961352e+01 6.8904493863022305e+00 6.9569393333444056e+00 0 0 0
200 1 3.3547260602202682e+00 8.7949007723878623e+00 5.1735849845245472e+00 0 0 0
219 1 1.5277882333722015e+00 1.0734066278935076e+01 4.8738509015350990e+00 0 0 0
224 1 3.5074783739398154e+00 1.2518046871713988e+01 5.0165790412832170e+00 0 0 0
338 1 1.7129786482343030e+00 9.0418365127410230e+00 6.8886946713069079e+00 0 0 0
362 1 1.6180617792436311e+00 1.2484000621634445e+01 7.0419492841589477e+00 0 0 0
365 1 3.3634909019414398e+00 1.0666467014473685e+01 6.9758949218276207e+00 0 0 0
196 1 2.1306585893599276e+01 8.9710333757554981e+00 5.1469280173860321e+00 -1 0 0
220 1 -3.2251798341620522e-02 1.2524984739269678e+01 5.2188200156684053e+00 0 0 0
361 1 2.1365774459025612e+01 1.0669293906849990e+01 7.1675245079936545e+00 -1 0 0
204 1 6.8535514381399398e+00 8.8790775524502088e+00 5.2311418465375006e+00 0 0 0
223 1 5.3081923186590112e+00 1.0628750737297018e+01 5.2709706777840974e+00 0 0 0
228 1 7.0732227197097757e+00 1.2272324582779051e+01 5.2990268605591506e+00 0 0 0
342 1 5.2793285521691953e+00 8.9047854143792460e+00 7.0469528650778868e+00 0 0 0
366 1 5.2866076942666256e+00 1.2404245220974069e+01 7.0810965421972085e+00 0 0 0
369 1 6.9989039921471514e+00 1.0771256418069617e+01 7.1667724435968214e+00 0 0 0
208 1 1.0557027430586999e+01 8.9967065808714430e+00 5.2007759751605152e+00 0 0 0
227 1 8.8181742313783023e+00 1.0636727597619519e+01 5.2419027070758286e+00 0 0 0
231 1 1.2423800188010070e+01 1.0882305094515111e+01 5.2271125600321175e+00 0 0 0
232 1 1.0598737246058562e+01 1.2441676780855461e+01 5.5081665258844170e+00 0 0 0
346 1 8.7225345218937758e+00 8.7507746689430732e+00 6.9401964531593441e+00 0 0 0
350 1 1.2539745301812202e+01 9.0025328761954579e+00 6.8955046660410320e+00 0 0 0
370 1 8.7608249338390731e+00 1.2410805853963733e+01 7.0161885972753888e+00 0 0 0
373 1 1.0464743009085618e+01 1.0627592827167796e+01 7.0290282929276620e+00 0 0 0
374 1 1.2417237239642905e+01 1.2339290219605507e+01 7.1416328921009153e+00 0 0 0
212 1 1.4224297735217171e+01 8.9648473417587624e+00 5.2089703728070811e+00 0 0 0
235 1 1.5985809507884253e+01 1.0517605906097257e+01 5.1362254610029003e+00 0 0 0
236 1 1.4228808491375036e+01 1.2359836049953273e+01 5.3787382786769742e+00 0 0 0
354 1 1.5918590015504938e+01 8.8408708442788466e+00 6.9067884111653735e+00 0 0 0
377 1 1.4385353985867424e+01 1.0682342107355714e+01 7.1030942380023019e+00 0 0 0
378 1 1.6121628603293814e+01 1.2417823101680053e+01 7.0151849114768607e+00 0 0 0
216 1 1.7821136935188505e+01 8.7029179618663690e+00 5.1228621066684887e+00 0 0 0
239 1 1.9522863491880365e+01 1.0912775386617998e+01 5.2541573845797496e+00 0 0 0
240 1 1.7627596334572083e+01 1.2451884998691629e+01 5.1546970666207423e+00 0 0 0
358 1 1.9474095755356899e+01 8.9862793698781491e+00 6.7979908530576409e+00 0 0 0
381 1 1.7854686728101697e+01 1.0641515572355686e+01 6.9124808390433055e+00 0 0 0
382 1 1.9697912220187064e+01 1.2635696425851773e+01 6.9518495759948662e+00 0 0 0
243 1 1.6814728613923753e+00 1.4047950643280791e+01 5.0083045443861582e+00 0 0 0
248 1 3.4108008265371379e+00 1.5889713927591572e+01 5.0902492661617620e+00 0 0 0
386 1 1.7473570959343085e+00 1.6081801235411618e+01 7.0305158736210744e+00 0 0 0
389 1 3.4347158516781926e+00 1.4165226008966373e+01 6.9260282201693881e+00 0 0 0
247 1 5.3435038145252953e+00 1.4027179220917608e+01 5.0479271841703968e+00 0 0 0
252 1 7.0551234786540871e+00 1.5918832127294563e+01 5.1543172944386395e+00 0 0 0
390 1 5.1299295968973144e+00 1.5963046602540066e+01 6.9575469219673840e+00 0 0 0
393 1 7.0214351052035413e+00 1.4078028579206181e+01 6.9238365283831333e+00 0 0 0
251 1 8.8843244489770381e+00 1.4397683390943788e+01 5.2886351634000048e+00 0 0 0
255 1 1.2445741351169652e+01 1.4080282707864917e+01 5.2122745419259529e+00 0 0 0
256 1 1.0678435169368370e+01 1.6030029593069990e+01 5.3738754055194402e+00 0 0 0
394 1 8.8286722612207065e+00 1.6165197184502880e+01 7.2063235035252911e+00 0 0 0
397 1 1.0705058372110017e+01 1.4280795424394512e+01 7.0319916816588854e+00 0 0 0
398 1 1.2483706622920334e+01 1.6168929281065793e+01 7.1390774178856695e+00 0 0 0
259 1 1.5995389686785741e+01 1.4221321894480319e+01 5.1534528810551610e+00 0 0 0
260 1 1.3974687599975510e+01 1.6019042672355596e+01 5.2802390079247505e+00 0 0 0
401 1 1.4282807887440901e+01 1.4160399835886698e+01 6.8886911698145923e+00 0 0 0
402 1 1.6025924429640618e+01 1.5887403354610289e+01 7.0120740065261602e+00 0 0 0
385 1 -4.2711796406983638e-02 1.4383305349206232e+01 6.9642952208388449e+00 0 0 0
244 1 -4.0041671365969478e-02 1.5940823288393785e+01 4.8850767274611213e+00 0 0 0
263 1 1.9713634300674173e+01 1.4083156149232131e+01 5.1246504582982286e+00 0 0 0
264 1 1.7621441425505630e+01 1.6014032953972503e+01 5.1161898432338573e+00 0 0 0
405 1 1.7900987831147461e+01 1.4310065260257751e+01 7.0687369641449243e+00 0 0 0
406 1 1.9627274408353422e+01 1.6177697640446361e+01 6.8196922744852184e+00 0 0 0
147 1 1.7560058194141468e+00 2.1286096549367585e+01 5.0657151443655728e+00 0 -1 0
289 1 7.2366465580426781e-02 2.1224367412667775e+01 6.7718810734072452e+00 0 -1 0
293 1 3.5461036181634480e+00 2.1340051456147371e+01 6.9456205105821649e+00 0 -1 0
267 1 1.7747396045618931e+00 1.7725499781685293e+01 5.0052507719195729e+00 0 0 0
272 1 3.4501334556096435e+00 1.9529442578672267e+01 5.0423008919376091e+00 0 0 0
410 1 1.7876113870478578e+00 1.9401122564300977e+01 6.8620055619543097e+00 0 0 0
413 1 3.4321566989231131e+00 1.7666627618569834e+01 6.7602535218982132e+00 0 0 0
151 1 5.2051915143307017e+00 3.4982132014526712e-02 5.0486510069256161e+00 0 0 0
297 1 6.8935425472516263e+00 -3.2450630326330554e-02 6.7625595131416425e+00 0 0 0
271 1 5.1343825020348364e+00 1.7611130597532700e+01 5.0979449556550964e+00 0 0 0
276 1 7.2363097600539659e+00 1.9620592164942927e+01 5.2415961410624492e+00 0 0 0
414 1 5.1492590184418372e+00 1.9464841290184282e+01 6.7870267378093558e+00 0 0 0
417 1 7.0179450737140190e+00 1.7806499090568828e+01 7.0468358072078345e+00 0 0 0
275 1 8.9602602023619866e+00 1.7789160979968443e+01 5.2977950813498031e+00 0 0 0
279 1 1.2314551789103255e+01 1.7891062524370184e+01 5.2763975581163871e+00 0 0 0
280 1 1.0598080626720369e+01 1.9612606123733656e+01 5.0260232529467324e+00 0 0 0
418 1 8.8095651483692308e+00 1.9805415833000346e+01 6.9428477255310348e+00 0 0 0
421 1 1.0587820138155912e+01 1.7953552375428160e+01 7.0205350931290686e+00 0 0 0
422 1 1.2392904828209268e+01 1.9620151465056964e+01 6.9289689787473216e+00 0 0 0
163 1 1.6082004937058223e+01 2.1228994605568701e+01 4.9645265504945000e+00 0 -1 0
305 1 1.4129015182532525e+01 -1.6218561083761074e-02 6.9370585486657337e+00 0 0 0
283 1 1.6010764876232130e+01 1.7724701155309063e+01 4.9936655623777115e+00 0 0 0
284 1 1.4092777941908500e+01 1.9655395467794435e+01 5.0921214035060798e+00 0 0 0
425 1 1.4199523461423826e+01 1.7890177072279137e+01 7.0287154541243879e+00 0 0 0
426 1 1.5778232893814941e+01 1.9732498112333055e+01 6.7728037578209053e+00 0 0 0
167 1 1.9840226053294593e+01 9.7373646429588234e-03 4.9370354500910594e+00 0 0 0
309 1 1.7904689708964362e+01 -2.6214296611556165e-02 6.8534364138495532e+00 0 0 0
268 1 -8.4063607464287315e-02 1.9552218100338742e+01 4.9716216628021952e+00 0 0 0
409 1 3.8226105625234652e-02 1.7863198426022031e+01 6.8178676301707268e+00 0 0 0
287 1 1.9495100198969809e+01 1.7849692759156376e+01 5.1218911007657919e+00 0 0 0
288 1 1.7805813958700043e+01 1.9568275207032301e+01 5.1706837965737273e+00 0 0 0
429 1 1.7608461669676323e+01 1.7710005644510957e+01 6.9174397807270864e+00 0 0 0
430 1 1.9611205424648070e+01 1.9528386440777858e+01 6.8485303606063930e+00 0 0 0
292 1 6.5931281563117450e-03 1.4897180783123469e+00 8.5813421295588270e+00 0 0 0
296 1 3.6839815111817735e+00 1.7148180766303918e+00 8.7702636546152188e+00 0 0 0
315 1 1.7927047239597385e+00 3.5383399927442714e+00 8.7023062339591153e+00 0 0 0
433 1 1.4595581956633907e-02 2.1349250327329038e+01 1.0640501237280615e+01 0 -1 0
434 1 1.7546034076284618e+00 1.5626669238413240e+00 1.0320722045426381e+01 0 0 0
435 1 1.6042543729462617e+00 2.1360513395771314e+01 1.2335013777273225e+01 0 -1 0
437 1 3.4369806905497589e+00 -4.9245051450366430e-02 1.0341676564340707e+01 0 0 0
440 1 3.4521124897801574e+00 1.6354515634871105e+00 1.2354135554248993e+01 0 0 0
459 1 1.6883054858435140e+00 3.4476877446290519e+00 1.2139354847107334e+01 0 0 0
461 1 3.5079892970076223e+00 3.4199018268883150e+00 1.0422531494274905e+01 0 0 0
300 1 7.0942970976338318e+00 1.7120533846345962e+00 8.6782781693165010e+00 0 0 0
319 1 5.3472843027339829e+00 3.3985615022297626e+00 8.6480722328471451e+00 0 0 0
438 1 5.4779524668058563e+00 1.7909123283148505e+00 1.0533706624680848e+01 0 0 0
444 1 7.0800951096186253e+00 1.8016298156141355e+00 1.2401611879877196e+01 0 0 0
463 1 5.2814138810866860e+00 3.3959011646147053e+00 1.2167217246202073e+01 0 0 0
465 1 7.2457985176270352e+00 3.5997219471728492e+00 1.0307853242371024e+01 0 0 0
439 1 5.2340447063526279e+00 -9.1748665756331324e-02 1.2205328661009629e+01 0 0 0
304 1 1.0637803550448421e+01 1.7204856666516470e+00 8.7287884265012234e+00 0 0 0
323 1 8.8485362945421357e+00 3.6037338498830125e+00 8.4357185029032085e+00 0 0 0
327 1 1.2529253123991548e+01 3.6234261511348373e+00 8.7596298607386380e+00 0 0 0
442 1 8.6945411121307039e+00 1.6467599714630190e+00 1.0586331157541457e+01 0 0 0
445 1 1.0634154262671077e+01 -3.9149505948638627e-02 1.0496308358659721e+01 0 0 0
446 1 1.2357260872522939e+01 1.6765916428785124e+00 1.0495127276724185e+01 0 0 0
447 1 1.2375546977991741e+01 1.1160180521448013e-01 1.2292293314835208e+01 0 0 0
448 1 1.0685209769775570e+01 1.7562360839569608e+00 1.2462396112574535e+01 0 0 0
467 1 8.9663378816942156e+00 3.4734843271060227e+00 1.2296600631369706e+01 0 0 0
469 1 1.0669733850800249e+01 3.5984941460813533e+00 1.0457844662254594e+01 0 0 0
471 1 1.2476778495009986e+01 3.5536601049739893e+00 1.2361185932828407e+01 0 0 0
308 1 1.4141708492065062e+01 1.7513855559332396e+00 8.7370342274209989e+00 0 0 0
331 1 1.6031911220387322e+01 3.3717740934888378e+00 8.6663528389601527e+00 0 0 0
450 1 1.6066933296335712e+01 1.7776952943957789e+00 1.0582672753488133e+01 0 0 0
451 1 1.5905549354423746e+01 -1.3497395590545358e-02 1.2327617168018959e+01 0 0 0
452 1 1.4075422040788819e+01 1.7811899667375966e+00 1.2349406692998887e+01 0 0 0
473 1 1.4158801186328903e+01 3.4627687513388121e+00 1.0492820079921000e+01 0 0 0
475 1 1.5892236620220240e+01 3.4567648357177800e+00 1.2364569990347539e+01 0 0 0
436 1 2.1279892396761689e+01 1.4849946454809642e+00 1.2409559518212024e+01 -1 0 0
457 1 2.1235530955240691e+01 3.3142989060502770e+00 1.0521170897691276e+01 -1 0 0
312 1 1.7745289837609498e+01 1.5411362284900951e+00 8.6525966611619367e+00 0 0 0
335 1 1.9811953178016857e+01 3.4272868382857737e+00 8.5604625129113412e+00 0 0 0
454 1 1.9679737473491365e+01 1.5666300626525136e+00 1.0393735296558765e+01 0 0 0
456 1 1.7811981807292355e+01 1.5744015291399314e+00 1.2323732559967917e+01 0 0 0
477 1 1.7818354043605446e+01 3.3119247217873609e+00 1.0421465600905730e+01 0 0 0