LAMMPS data file via write_data, version 19 Mar 2020, timestep = 200000

1728 atoms
1 atom types

0.0000000000000000e+00 2.1263999999999999e+01 xlo xhi
0.0000000000000000e+00 2.1263999999999999e+01 ylo yhi
-1.5955626859836478e+00 4.4123562685988659e+01 zlo zhi

Masses

1 58.933

Atoms # atomic

8 1 2.8896999194969002e+00 1.4804312442249872e+00 2.5490208124937563e-01 0 0 0
27 1 1.3406622633011427e+00 3.5652671335259885e+00 4.6045804417546909e-01 0 0 0
173 1 3.2567576703689896e+00 3.4688987618414227e+00 2.1193268690735785e+00 0 0 0
37 1 1.0605968996400641e+01 3.6604382581045689e+00 -1.1948119663110428e+00 0 0 0
3 1 1.4923697123100457e+00 2.1007080802795894e+01 4.4344025456870639e-01 0 -1 0
65 1 1.4235914664394743e+01 7.2266723192346847e+00 -1.4377250795879568e+00 0 0 0
114 1 1.5667256619350916e+01 1.6227355500640687e+01 -1.5744409504377259e+00 0 0 0
12 1 7.2571183518137357e+00 1.9677469037214663e+00 1.9863590580377699e-01 0 0 0
31 1 5.1885817851848515e+00 3.0775935198618978e+00 1.3738339884512496e-01 0 0 0
7 1 5.2305673971700353e+00 2.1205303324249153e-01 4.4746969593585373e-01 0 0 0
109 1 1.0354459945056746e+01 1.4290885952859911e+01 -1.2750674493452010e+00 0 0 0
177 1 7.0449771826780694e+00 3.4311137658588460e+00 2.1862030618300539e+00 0 0 0
129 1 5.0648426608378605e+00 1.6522079954384463e+01 -1.5902730145901589e+00 0 0 0
13 1 1.0612829779398290e+01 8.5894250753841983e-01 -1.0670219730766681e+00 0 0 0
35 1 9.0191419585570038e+00 3.9230966096944435e+00 4.6695792327059804e-01 0 0 0
16 1 1.0921946467253191e+01 2.4549707431844694e+00 1.1448029489947738e+00 0 0 0
39 1 1.2088622907840810e+01 4.3860890929238519e+00 6.0346357445788534e-01 0 0 0
11 1 9.1267806836725871e+00 3.9911036891082041e-01 9.2283984499552796e-01 0 0 0
14 1 1.2450289902677117e+01 2.1506997054051982e+00 -1.3499369611136383e+00 0 0 0
105 1 6.6743094152654505e+00 1.4905232884830903e+01 -1.5111900116705008e+00 0 0 0
130 1 9.2622340436338835e+00 2.0256601736754625e+01 -1.3693755673570138e+00 0 0 0
41 1 1.4421392097836137e+01 3.6315861484036391e+00 -1.3723363116709180e+00 0 0 0
20 1 1.4017716672926896e+01 2.2272372771676130e+00 2.5370572791703783e-01 0 0 0
43 1 1.6044023635692817e+01 3.6130635818394818e+00 3.9106465572736093e-01 0 0 0
185 1 1.4366569729841606e+01 4.0084410655751173e+00 2.4833269541133234e+00 0 0 0
844 1 8.2990676198118507e-02 1.9638700777957443e+01 1.9784159136160923e+01 0 0 0
864 1 1.7298524004304234e+01 1.9416925489218439e+01 1.9496528191188307e+01 0 0 0
4 1 2.1168074827402279e+01 1.6307871108634642e+00 3.4622628299721803e-01 -1 0 0
24 1 1.7819761922005181e+01 1.7852428352258130e+00 -1.4431906291742180e-02 0 0 0
47 1 1.9877357254269757e+01 3.4681795377289353e+00 5.4528956762129699e-01 0 0 0
23 1 1.9456985435725439e+01 2.1151036465004260e+01 -8.5056590897926387e-02 0 -1 0
165 1 1.7523876252610464e+01 2.4470623224904789e-01 2.1361664513224410e+00 0 0 0
169 1 8.6089253763104084e-02 3.4914550885308064e+00 2.7077439104436687e+00 0 0 0
166 1 1.9400695847047388e+01 1.5014353147088020e+00 2.2693115988127182e+00 0 0 0
189 1 1.7962869317549785e+01 3.2367702181455953e+00 1.9034344297917967e+00 0 0 0
863 1 1.9455284202631319e+01 1.7792774948110878e+01 1.9378243473733736e+01 0 0 0
862 1 1.9326076813985296e+01 1.9655977017099936e+01 1.7745490101889263e+01 0 0 0
51 1 1.8869912063334189e+00 7.0741475345769844e+00 3.7017158262464633e-01 0 0 0
32 1 3.6792651986067537e+00 4.8902691412019106e+00 2.6579609018351613e-01 0 0 0
170 1 1.9405056996012471e+00 5.3383016250697857e+00 2.2457053781527083e+00 0 0 0
34 1 8.6317261761895896e+00 5.0640433846564008e+00 -1.5578898137752279e+00 0 0 0
77 1 2.9861680514738080e+00 1.1003432198296828e+01 -1.0941133610662150e+00 0 0 0
36 1 6.4521042629753076e+00 5.2753761236474928e+00 3.2071881392929980e-01 0 0 0
55 1 5.4885793679604724e+00 7.2774816495275250e+00 8.9002637265010787e-02 0 0 0
5 1 3.4079264526366018e+00 2.0957221902325976e+01 -1.3752159866370897e+00 0 -1 0
991 1 1.7542078336787618e+01 7.4479346003872156e+00 2.1102046030433044e+01 0 2 0
841 1 2.1027887136691490e+01 1.8063149950158195e+01 1.7740432767661147e+01 -1 0 0
59 1 8.4910662155680612e+00 7.2043049513759296e+00 -2.9318973699812068e-02 0 0 0
40 1 1.0296213597725302e+01 5.6373807415272177e+00 3.6188886456195135e-01 0 0 0
63 1 1.2092449072626057e+01 7.2209798057854266e+00 7.1256341912653642e-01 0 0 0
44 1 1.4369643346504001e+01 5.5958570071538443e+00 4.1371930172424110e-01 0 0 0
67 1 1.6425303440717776e+01 6.9914257223690859e+00 4.1647046508340901e-01 0 0 0
186 1 1.6455216272052272e+01 5.1541608422685830e+00 2.2401538544338195e+00 0 0 0
62 1 1.2539932340509553e+01 8.8878014455846372e+00 -1.3166480106250595e+00 0 0 0
858 1 1.6070004788597817e+01 1.9817944499531954e+01 1.7691730520831321e+01 0 0 0
860 1 1.4158031101587111e+01 1.9372847537539151e+01 1.9586550908648668e+01 0 0 0
28 1 2.1194856152107224e+01 5.6400198783205084e+00 3.5995035405152964e-01 -1 0 0
48 1 1.8066782699672469e+01 4.9863819279426718e+00 3.3937336992667166e-01 0 0 0
71 1 1.9652293745874172e+01 7.3722046753995345e+00 2.2854565182497311e-01 0 0 0
190 1 1.9312275627115895e+01 5.8407477146322950e+00 2.0080373740366362e+00 0 0 0
56 1 3.6937056783756335e+00 8.8181599386248024e+00 9.8555723561817965e-02 0 0 0
75 1 1.2608003537411629e+00 1.0735001805682035e+01 3.2225444859644203e-01 0 0 0
76 1 2.4900560547248318e-02 1.2890367509616357e+01 5.0952497126370044e-01 0 0 0
80 1 3.2941955377812935e+00 1.2458488668399987e+01 5.2435107627232291e-01 0 0 0
52 1 2.0955062998338210e+01 9.0899881686327006e+00 1.0328842841484129e+00 -1 0 0
221 1 2.8611100023442200e+00 1.0739464429733383e+01 2.3122427703318849e+00 0 0 0
217 1 2.1030833363592585e+01 1.1049748801900130e+01 2.5845831252530020e+00 -1 0 0
21 1 1.7230022692062107e+01 4.4079632474311299e-02 -1.5409308203217187e+00 0 0 0
60 1 6.7502649894196791e+00 9.2894877593760459e+00 2.3981067264477463e-01 0 0 0
79 1 4.8787881842412864e+00 1.0699920077619163e+01 2.8389214919576555e-01 0 0 0
84 1 6.8111812106621157e+00 1.2480453177322206e+01 3.0163955862559844e-01 0 0 0
859 1 1.5633861202249722e+01 1.7550704162716368e+01 1.9593571467694556e+01 0 0 0
6 1 5.2579750941680663e+00 1.3381809600324184e+00 -1.5381276200561458e+00 0 0 0
857 1 1.4444489377704180e+01 1.7934687069187643e+01 1.7623881471726484e+01 0 0 0
83 1 8.4542073154997954e+00 1.0714442917604835e+01 1.7000986905181370e-01 0 0 0
64 1 1.0362256081590457e+01 8.8491191021251439e+00 2.1053312315937189e-01 0 0 0
87 1 1.2280240299317024e+01 1.0661704743865039e+01 3.1639058741853621e-01 0 0 0
88 1 1.0349312295952123e+01 1.2241768193109744e+01 5.2203524888893771e-01 0 0 0
737 1 1.4271332896509165e+01 3.5794966761973362e-01 1.7634585305795884e+01 0 0 0
226 1 8.7019047797352709e+00 1.2299469974268975e+01 2.0196484403329227e+00 0 0 0
50 1 1.7780553104371082e+00 9.1749025376568234e+00 -1.5778751271373153e+00 0 0 0
855 1 1.2295425120276734e+01 1.7599702506952003e+01 1.9477559330234239e+01 0 0 0
68 1 1.4070493338884813e+01 9.1076537925324459e+00 2.9747556006579412e-01 0 0 0
91 1 1.6019693054278690e+01 1.0456280677505314e+01 3.4855952902751719e-01 0 0 0
92 1 1.3627453755927133e+01 1.2256498528952136e+01 9.9041418176360363e-02 0 0 0
233 1 1.3767845143848286e+01 1.0911583561093428e+01 2.2453084711025464e+00 0 0 0
234 1 1.5862902105921274e+01 1.2445108964652462e+01 1.8501215472812373e+00 0 0 0
69 1 1.7812674855952430e+01 7.2143892679711170e+00 -1.4424993404404121e+00 0 0 0
1243 1 1.0388725896608754e+01 1.9399304749769172e+01 1.9371499612163692e+01 0 0 0
851 1 8.5672151350828631e+00 1.7687790780258545e+01 1.9660258233142255e+01 0 0 0
853 1 1.0629746982157567e+01 1.7844054738204012e+01 1.7604214313970704e+01 0 0 0
72 1 1.8136324905205697e+01 9.0127957685715714e+00 3.7727997573441119e-01 0 0 0
95 1 1.9674943603504310e+01 1.0914980210035678e+01 1.5803027904650424e-01 0 0 0
214 1 1.9314621815364642e+01 9.2455058585386443e+00 2.4132972205470420e+00 0 0 0
237 1 1.7829645520644974e+01 1.0986125275706208e+01 2.1219262793288616e+00 0 0 0
238 1 1.9405278242546679e+01 1.2807231682699545e+01 2.1491244142595400e+00 0 0 0
1140 1 1.9516222069111041e+01 1.5985037704282901e+01 2.1184166678465637e+01 -1 1 0
1021 1 5.6264059045318460e+00 5.4547163740005153e+00 2.1079344427591973e+01 -1 0 0
99 1 1.7136291185895800e+00 1.4691858542888163e+01 3.1599726923954363e-01 0 0 0
104 1 3.5617779710315989e+00 1.6115184580076559e+01 -1.1103791804469054e-01 0 0 0
100 1 2.0761778841927434e+01 1.6298145651399111e+01 3.8421454240460395e-01 -1 0 0
241 1 2.1027864440241380e+01 1.4627572724207260e+01 2.0891458654416395e+00 -1 0 0
218 1 1.7346124411459254e+00 1.2731692780498880e+01 2.3713640077410676e+00 0 0 0
242 1 1.1926750992839750e+00 1.6902211956503319e+01 2.1791117334996986e+00 0 0 0
245 1 3.4213397507782317e+00 1.4777445190690068e+01 2.0499381816220645e+00 0 0 0
103 1 5.0365327369922781e+00 1.4176874065387423e+01 1.5575541848328700e-01 0 0 0
108 1 6.6471589805610094e+00 1.6173937530197165e+01 8.0905136334880057e-01 0 0 0
249 1 6.8045544184132298e+00 1.4088086167155542e+01 1.8957092357738645e+00 0 0 0
134 1 1.1711358579708381e+01 1.9821177014873786e+01 -1.4613515253384775e+00 0 0 0
107 1 8.7838340627263314e+00 1.4434908890647263e+01 3.6615740034531474e-01 0 0 0
112 1 1.0710103348662496e+01 1.6291862376980419e+01 7.4866730418126748e-02 0 0 0
111 1 1.2405518990183927e+01 1.4255029912706437e+01 2.8840275477595578e-01 0 0 0
230 1 1.1995907989148165e+01 1.1956985227996308e+01 2.2287522482507067e+00 0 0 0
253 1 1.0414567882351609e+01 1.4015601195169399e+01 2.1948761753993717e+00 0 0 0
115 1 1.5717716650831697e+01 1.4141029092365608e+01 2.6013252686835342e-01 0 0 0
116 1 1.3891872125833984e+01 1.6167116109205377e+01 4.1146677255537556e-01 0 0 0
257 1 1.3295328164320242e+01 1.3831447992504119e+01 2.4296757720886539e+00 0 0 0
258 1 1.5210948247340092e+01 1.5543281501596224e+01 2.1043833786453741e+00 0 0 0
96 1 1.7526091357250412e+01 1.2248538699862873e+01 2.7329525489799167e-02 0 0 0
120 1 1.7584835865218047e+01 1.5866386437692656e+01 1.1880188090451149e-01 0 0 0
119 1 1.9178115048179063e+01 1.4163414519426807e+01 3.1029074845353555e-01 0 0 0
261 1 1.7318158501456921e+01 1.3983976360735564e+01 1.8304888293411725e+00 0 0 0
847 1 5.5582210841774913e+00 1.7938810908041713e+01 1.9580565376770991e+01 0 0 0
46 1 1.9736010919432680e+01 5.1774671037975564e+00 -1.4389536701835572e+00 0 0 0
1322 1 8.1894426406722491e+00 5.3515648582142479e+00 2.1225998441277703e+01 -1 1 0
852 1 7.2967173707991604e+00 1.9997728531033779e+01 1.9439353529857041e+01 0 0 0
123 1 1.7560563603576655e+00 1.7578246523981122e+01 1.3787150359293987e-01 0 0 0
128 1 3.3705526954019085e+00 1.9372369974507325e+01 8.6229075968987390e-01 0 0 0
266 1 1.3315085956757791e+00 1.9129614406636499e+01 2.2905441814166516e+00 0 0 0
149 1 3.2891471423938099e+00 2.1253033609670915e+01 2.2920622624145954e+00 0 -1 0
846 1 5.3695127170529391e+00 1.9595060395214002e+01 1.7567833330340331e+01 0 0 0
102 1 8.5095654019296365e+00 1.6009117893525453e+01 -1.4176435084801216e+00 0 0 0
127 1 5.3035996773153276e+00 1.8044116686386829e+01 4.1012129196228297e-01 0 0 0
132 1 7.4635714625282699e+00 2.0370733535560387e+01 8.6428166849646670e-01 0 0 0
270 1 5.5079476467613437e+00 1.9590797571711658e+01 2.1869857423368471e+00 0 0 0
15 1 1.1977128517664392e+01 3.0447683723286983e-01 5.7368281994760340e-01 0 0 0
849 1 7.2025577287267257e+00 1.7812557541058869e+01 1.7513714834485938e+01 0 0 0
131 1 8.5084897031084754e+00 1.7958698468785894e+01 3.4086259203660640e-01 0 0 0
136 1 1.0251708622321576e+01 1.9547313981778469e+01 4.7727434841277283e-01 0 0 0
135 1 1.2329849998067534e+01 1.7855406409136087e+01 1.9487441940803008e-01 0 0 0
981 1 1.5917020880578809e+00 1.9969640644274707e+00 2.1127009684055299e+01 0 2 0
831 1 1.1926418515475961e+01 1.4427194227767854e+01 1.9465395559295942e+01 0 0 0
19 1 1.5677145059654347e+01 2.7451896360669292e-01 2.6626504658707839e-01 0 0 0
139 1 1.5660450556324381e+01 1.7878060942936411e+01 3.1207537031016908e-01 0 0 0
140 1 1.4063896661002422e+01 1.9810232156031631e+01 5.1630030571036434e-02 0 0 0
281 1 1.3870077685684315e+01 1.7595055263917704e+01 2.0920416967058744e+00 0 0 0
1215 1 5.0962648624377795e+00 1.8749239224568515e+00 2.0970109361809204e+01 2 0 0
9 1 7.1678429189571835e+00 2.1072636544141204e+01 -1.4636165213562864e+00 0 -1 0
124 1 2.0965592393398008e+01 1.9258658235018277e+01 5.8472642927439100e-01 -1 0 0
144 1 1.7131619797156468e+01 1.9682156395861060e+01 2.3199402879237963e-01 0 0 0
143 1 1.8885872016595719e+01 1.7998901138466337e+01 3.5809979838309380e-01 0 0 0
285 1 1.7080683214456744e+01 1.7750185171948310e+01 2.2657903518833429e+00 0 0 0
145 1 2.0914961753274657e+01 2.0759264717134798e+01 2.2539909280608112e+00 -1 -1 0
286 1 1.8736303617332183e+01 1.9514361477205082e+01 1.6824544509201642e+00 0 0 0
146 1 1.3647654177928077e+00 1.5914787876424366e+00 2.2774743506180841e+00 0 0 0
152 1 3.1614326112259254e+00 1.6222466066393322e+00 4.0829037013118672e+00 0 0 0
171 1 1.6246826197210498e+00 3.1563346068462983e+00 4.5618010616165856e+00 0 0 0
147 1 1.5003689421048498e+00 2.1036224940551026e+01 3.9926026174970337e+00 0 -1 0
290 1 1.7270065673757204e+00 1.5047124796658859e+00 5.9561541687843178e+00 0 0 0
150 1 4.9294492833274699e+00 1.6878722267783697e+00 2.2191505249007974e+00 0 0 0
156 1 6.9348924264982896e+00 2.1494126487077665e+00 3.9843413778066106e+00 0 0 0
175 1 4.9109682084899218e+00 3.5515274398397700e+00 4.2400044811965136e+00 0 0 0
151 1 4.9579302243124950e+00 2.1062880888625475e+01 3.8048323813442995e+00 0 -1 0
179 1 8.8624319541050198e+00 4.1830958006411771e+00 3.9095553013626283e+00 0 0 0
297 1 6.8800690367056783e+00 3.8356181262951272e-01 5.7192837611175626e+00 0 0 0
154 1 8.8072061437328557e+00 2.2318708771417928e+00 2.4032481006235669e+00 0 0 0
181 1 1.0567480198546521e+01 4.4277997274817311e+00 2.4004006176313482e+00 0 0 0
158 1 1.2490659704043319e+01 2.2987878308664533e+00 2.6897263433655993e+00 0 0 0
160 1 1.0735582217425968e+01 2.4138423885294240e+00 3.9610018927545143e+00 0 0 0
157 1 1.0797281673881761e+01 8.9354417490652524e-02 2.6438343369494817e+00 0 0 0
155 1 8.8467250764136995e+00 6.6620227991074099e-01 4.1900814285717374e+00 0 0 0
159 1 1.2334274591091987e+01 4.4061352413693605e-01 4.4320790960930365e+00 0 0 0
298 1 9.1867658284008105e+00 2.5259293630197628e+00 5.8530319085623033e+00 0 0 0
161 1 1.3983284435835690e+01 5.8248885713918053e-01 2.4462920718680365e+00 0 0 0
183 1 1.2795058882130334e+01 3.9966200112705628e+00 4.6146742607198998e+00 0 0 0
162 1 1.5843195462987834e+01 2.1314881898893843e+00 2.0566016943187653e+00 0 0 0
164 1 1.4466072129757418e+01 1.9968200725729244e+00 4.6371548406790817e+00 0 0 0
187 1 1.6115170488083884e+01 3.5839579764193608e+00 4.5794254423784189e+00 0 0 0
302 1 1.2608457199613445e+01 1.9551458532221233e+00 5.9073246655224247e+00 0 0 0
329 1 1.4496148729287693e+01 4.0421290995103023e+00 6.3171630128379395e+00 0 0 0
148 1 2.1051411752742951e+01 1.7659547795736901e+00 4.3126723415190336e+00 -1 0 0
168 1 1.7763470247812815e+01 1.5491244333608027e+00 3.9729842499353580e+00 0 0 0
191 1 1.9117697908593037e+01 3.7840421462870730e+00 3.8142868664078469e+00 0 0 0
333 1 1.8254565599717512e+01 3.5547194145763283e+00 6.0910713102686671e+00 0 0 0
167 1 1.9542207344447025e+01 2.1144918695131764e+01 4.1188186039300110e+00 0 -1 0
310 1 1.9294027891179333e+01 1.4817856628717061e+00 6.0638636514672033e+00 0 0 0
313 1 2.0998378859000603e+01 3.4665648260154445e+00 6.2370995658744235e+00 -1 0 0
193 1 1.1943043081129977e-01 7.1443298127516854e+00 2.2367572265380926e+00 0 0 0
197 1 3.7695677986130867e+00 6.9115019084897718e+00 1.8760532626741999e+00 0 0 0
176 1 3.1546583684883749e+00 5.0793179932542030e+00 4.2312519960903625e+00 0 0 0
195 1 2.1633729851584516e+00 7.0282252937879592e+00 4.1584447716811228e+00 0 0 0
314 1 1.2249571534751635e+00 5.3104220491109615e+00 6.0156552315460585e+00 0 0 0
201 1 6.4022386492395071e+00 7.3806268623002449e+00 2.4118876122435617e+00 0 0 0
174 1 5.1652714910606807e+00 5.0510486904675531e+00 2.2756192202567309e+00 0 0 0
180 1 7.0344448673751252e+00 5.4808625389449235e+00 4.3326415312973863e+00 0 0 0
199 1 4.7409639784223847e+00 7.2427281082398425e+00 4.0441851749957785e+00 0 0 0
345 1 6.8475093416331054e+00 6.8682231062352965e+00 6.1672483288219002e+00 0 0 0
182 1 1.2575335641956464e+01 5.3813852197993217e+00 2.6332959045571078e+00 0 0 0
205 1 1.0248658658517501e+01 7.0344151531465604e+00 2.3006308719550135e+00 0 0 0
178 1 8.0736790660723852e+00 5.8919033381678467e+00 2.0284395844122090e+00 0 0 0
203 1 8.8318067682612291e+00 7.1418578223681886e+00 4.2364713810594470e+00 0 0 0
184 1 1.0655898136149064e+01 5.6608266158781548e+00 4.3786388856119292e+00 0 0 0
326 1 1.2843098800354735e+01 5.9742487752272897e+00 6.1552130708619188e+00 0 0 0
207 1 1.2312274961614589e+01 7.2919626832185669e+00 3.9855996901114352e+00 0 0 0
209 1 1.4027885850698919e+01 7.3293988021531078e+00 2.2821945133409254e+00 0 0 0
188 1 1.4255143773239993e+01 5.8507176328498627e+00 4.2587730337279215e+00 0 0 0
211 1 1.6089098296687567e+01 7.4392194548125712e+00 4.1424016409209061e+00 0 0 0
172 1 2.0947136907805447e+01 5.3924675432227751e+00 4.0218097630088181e+00 -1 0 0
213 1 1.7557819739450899e+01 7.2654768637089013e+00 2.5794101801477192e+00 0 0 0
192 1 1.7975909437545500e+01 5.5615110929578906e+00 4.4416604294040507e+00 0 0 0
215 1 1.9368834997264891e+01 7.5067516689317983e+00 4.1918430656280385e+00 0 0 0
334 1 1.9768201662832706e+01 5.9037465367516608e+00 6.0854796556784745e+00 0 0 0
194 1 2.1053613880307869e+00 8.7891427082985274e+00 1.8078023648750805e+00 0 0 0
200 1 3.0164367959125662e+00 9.1035181451840792e+00 4.1614838174609483e+00 0 0 0
219 1 1.4397867450939472e+00 1.0860780765542101e+01 4.2802639730462264e+00 0 0 0
365 1 3.2761597268631255e+00 1.1145142312011007e+01 6.2308187204097925e+00 0 0 0
224 1 3.3645956612734822e+00 1.2748417157222123e+01 4.1992971053130912e+00 0 0 0
338 1 1.7115011576930128e+00 9.4913469215108517e+00 6.3040773356711401e+00 0 0 0
196 1 4.0352440614956818e-02 9.0314624752681603e+00 3.8951524639712174e+00 0 0 0
220 1 2.1204327820450342e+01 1.2552111343363237e+01 4.1936479894033294e+00 -1 0 0
361 1 2.1125799126105470e+01 1.0787970336212641e+01 6.1249921028806114e+00 -1 0 0
225 1 6.7163799762076293e+00 1.1079665752499515e+01 2.0674554504647764e+00 0 0 0
198 1 4.7638557892300506e+00 9.3021060842652599e+00 2.4629096399937644e+00 0 0 0
204 1 6.8743104888461959e+00 9.0297560689580258e+00 4.2863206768876010e+00 0 0 0
223 1 5.1574155919828897e+00 1.0850747504595988e+01 4.2773263697988746e+00 0 0 0
366 1 5.1343234052185522e+00 1.1986012533588726e+01 6.3303942502405626e+00 0 0 0
222 1 5.0717113327876433e+00 1.2748694184199644e+01 2.4965044282927256e+00 0 0 0
228 1 7.0904310160262991e+00 1.2702850199359277e+01 4.0562733772834578e+00 0 0 0
369 1 6.9738670737828388e+00 1.0903961423998195e+01 5.8569445239555051e+00 0 0 0
202 1 8.4888888012473096e+00 8.5468901407991513e+00 1.8612576315240643e+00 0 0 0
206 1 1.2115935919178986e+01 8.8082893795801258e+00 2.1911795018398768e+00 0 0 0
227 1 8.5898904285656741e+00 1.0595532282757718e+01 4.2527179853164379e+00 0 0 0
229 1 1.0430556491257160e+01 1.0261158125766638e+01 2.5450272864690566e+00 0 0 0
208 1 1.0377636055541663e+01 8.7257569000765542e+00 4.2424578876100503e+00 0 0 0
231 1 1.2230663092558475e+01 1.0345651293564075e+01 3.9945288980993370e+00 0 0 0
374 1 1.2177691400288410e+01 1.2517514079431070e+01 5.9011241132829140e+00 0 0 0
370 1 8.9568533001433668e+00 1.2391120033054174e+01 6.1665367874519195e+00 0 0 0
346 1 8.4869191420917733e+00 8.6839076883593815e+00 6.0739900199630759e+00 0 0 0
210 1 1.6051763262406350e+01 9.1456661176093377e+00 2.1136792434347176e+00 0 0 0
212 1 1.4148897368712927e+01 8.9290100154665613e+00 4.1002390811916456e+00 0 0 0
235 1 1.5806900075900925e+01 1.1047054462469347e+01 3.9474440313075005e+00 0 0 0
354 1 1.6166911093476251e+01 9.4575842151141654e+00 5.8818817203989697e+00 0 0 0
216 1 1.7597077767091090e+01 9.3185357868722605e+00 3.7841828657062893e+00 0 0 0
239 1 1.9263756200451692e+01 1.1369386795286733e+01 4.1371935048794048e+00 0 0 0
358 1 1.9423824997444822e+01 9.3715838921015600e+00 5.7496513030643008e+00 0 0 0
240 1 1.7478023523846872e+01 1.2716770525077568e+01 4.2853566530211582e+00 0 0 0
243 1 1.7407732799364017e+00 1.4618893696345030e+01 4.0069982186166762e+00 0 0 0
248 1 3.6051210145723940e+00 1.6016754394943479e+01 4.2705030062377896e+00 0 0 0
362 1 1.3714439717951541e+00 1.2648862557506780e+01 6.2462752600022498e+00 0 0 0
386 1 1.9947776080328394e+00 1.5702105786659887e+01 6.1372913171974846e+00 0 0 0
246 1 5.3734791916455595e+00 1.5799367870548110e+01 2.6862684789728331e+00 0 0 0
247 1 5.3711611728337694e+00 1.4087282182927469e+01 4.3856851190226891e+00 0 0 0
252 1 7.3394990923443109e+00 1.5561711777310052e+01 4.1845511911010016e+00 0 0 0
393 1 7.0665871667763254e+00 1.3961140040159554e+01 6.0292867706407600e+00 0 0 0
254 1 1.2001132041440741e+01 1.5763295989684851e+01 2.0681905622796801e+00 0 0 0
250 1 8.8367609733924848e+00 1.6205427154055723e+01 1.9391666338261921e+00 0 0 0
232 1 1.0442971876680694e+01 1.2179785203244975e+01 4.1246364867615810e+00 0 0 0
251 1 9.3119160220217090e+00 1.4082042166172046e+01 4.0063704725564078e+00 0 0 0
256 1 1.0324059965600522e+01 1.6315496663400101e+01 3.8901580059816450e+00 0 0 0
397 1 1.0438573054733364e+01 1.4035284639400912e+01 6.2100716009375105e+00 0 0 0
394 1 8.7184974003230131e+00 1.5952177445181743e+01 6.4072192278596756e+00 0 0 0
398 1 1.2033006095540971e+01 1.6370283480810233e+01 6.2788801361677500e+00 0 0 0
255 1 1.1662075665352869e+01 1.4248745085105147e+01 4.2129026238823242e+00 0 0 0
236 1 1.3769270371753503e+01 1.2331120212304501e+01 4.1242953694266422e+00 0 0 0
259 1 1.5501193642483960e+01 1.4044663810392192e+01 3.9042542213317821e+00 0 0 0
260 1 1.3538672569951768e+01 1.5734626269536827e+01 3.9211580934212629e+00 0 0 0
401 1 1.3563203037405636e+01 1.4366647640976929e+01 5.7427218510670714e+00 0 0 0
402 1 1.5329046998401529e+01 1.6211102955038449e+01 5.7938711536366698e+00 0 0 0
262 1 1.9137889867056625e+01 1.5779372288653972e+01 2.2818361591035812e+00 0 0 0
244 1 6.8614211246114110e-02 1.6185745404334465e+01 4.2343647838490579e+00 0 0 0
264 1 1.7193207958962109e+01 1.5836902128943528e+01 4.1386483310085529e+00 0 0 0
263 1 1.9519137336648733e+01 1.4262375937365926e+01 4.5299474482502395e+00 0 0 0
385 1 2.1165300984646869e+01 1.4466075550891443e+01 6.1377803341580064e+00 -1 0 0
406 1 1.9141596397776073e+01 1.6482916448228959e+01 5.8787672158338218e+00 0 0 0
269 1 3.3222445120104176e+00 1.7629763458577578e+01 2.3669539867647931e+00 0 0 0
265 1 2.0577722600428537e+01 1.7729477768430261e+01 2.6739819233271165e+00 -1 0 0
267 1 1.9777872121133013e+00 1.7624789375605665e+01 4.2468532051724015e+00 0 0 0
272 1 3.7466602079383122e+00 1.9277066667346176e+01 4.1693646099334911e+00 0 0 0
410 1 2.0135192555415293e+00 1.9517407470728696e+01 6.1346960474142707e+00 0 0 0
153 1 6.7531342950299535e+00 4.9673439140126385e-01 2.2157354223972323e+00 0 0 0
273 1 7.4382435200640895e+00 1.7944798238756849e+01 2.4436169197579067e+00 0 0 0
271 1 5.4413828142185281e+00 1.7733812241570110e+01 3.4323691161122412e+00 0 0 0
276 1 7.1284796051847978e+00 1.9909398379252536e+01 4.3940108279551620e+00 0 0 0
414 1 5.3191011279760536e+00 2.0016059194690520e+01 6.0680890375363719e+00 0 0 0
277 1 1.0352295698876629e+01 1.8053887090528079e+01 2.2474252471188674e+00 0 0 0
278 1 1.2520466085569113e+01 1.9661974883313512e+01 1.8583245886190927e+00 0 0 0
274 1 8.7267070728226681e+00 1.9779768680058595e+01 2.6898136784053728e+00 0 0 0
275 1 8.7043244293789108e+00 1.7786764823821940e+01 4.4730482119353168e+00 0 0 0
280 1 1.0599230129394154e+01 1.9393785571681029e+01 4.2103004294590471e+00 0 0 0
279 1 1.2255602516538293e+01 1.7995352336939110e+01 4.0574404947778095e+00 0 0 0
422 1 1.1893287959536799e+01 1.9591060268399772e+01 6.0296573396956887e+00 0 0 0
282 1 1.5361341623878346e+01 1.9699100895489050e+01 2.1867916424598270e+00 0 0 0
163 1 1.5795105510995713e+01 2.1234915647631674e+01 4.3606799188686178e+00 0 -1 0
283 1 1.5503674581155053e+01 1.8041653595720241e+01 4.1565420649072857e+00 0 0 0
284 1 1.3843838762564094e+01 1.9692913488478009e+01 4.0907131133394543e+00 0 0 0
425 1 1.3868305055583152e+01 1.7844868638077916e+01 6.0805759716962697e+00 0 0 0
268 1 2.1029504271291966e+01 1.9095369882615977e+01 4.4545438739637460e+00 -1 0 0
288 1 1.7471702859476309e+01 1.9815785047534941e+01 4.0625269163686042e+00 0 0 0
287 1 1.8872476960509385e+01 1.8109018266413337e+01 4.1184846528097427e+00 0 0 0
430 1 1.9297066321132963e+01 1.9171244258421321e+01 6.3559939854090146e+00 0 0 0
409 1 2.1261790267075745e-01 1.7424819449742991e+01 6.2069054637298535e+00 0 0 0
317 1 3.1072792713686335e+00 3.6778313339371822e+00 5.9217211232778117e+00 0 0 0
296 1 3.6126148036879946e+00 2.0610140536315118e+00 7.9416080728674334e+00 0 0 0
315 1 1.7763790861804072e+00 3.3670830933646632e+00 8.0319102498603829e+00 0 0 0
291 1 1.8558941091270449e+00 8.0640242478292379e-02 7.6878332958413154e+00 0 0 0
461 1 3.1777430648038130e+00 3.4495661316953621e+00 1.0130306645430913e+01 0 0 0
321 1 6.6438594131353579e+00 3.7241630587998005e+00 5.9517544454630400e+00 0 0 0
294 1 5.1064427378715465e+00 1.5239559605478794e+00 5.6317709621230270e+00 0 0 0
300 1 6.9868634934101674e+00 2.1171047322850214e+00 7.7201487597762171e+00 0 0 0
319 1 4.8921821630453595e+00 4.0184331720269384e+00 8.1574720987251759e+00 0 0 0
465 1 7.1810062319829893e+00 3.9760496903032152e+00 1.0098970696834193e+01 0 0 0
438 1 5.6127403805436327e+00 1.9680844881193991e+00 9.7560686939729333e+00 0 0 0
441 1 7.2642373115210921e+00 5.9881780985759203e-01 9.5873296142844104e+00 0 0 0
325 1 1.0919656720931789e+01 4.1618142529417437e+00 6.2260190533723083e+00 0 0 0
301 1 1.0292770032922451e+01 3.5873532727313118e-01 5.7545095879412260e+00 0 0 0
323 1 8.7713092709729903e+00 3.7498404244196792e+00 7.9055818988231419e+00 0 0 0
304 1 1.1151669345324516e+01 2.1746752251788446e+00 7.7100084622354412e+00 0 0 0
327 1 1.2700927313481394e+01 4.1870398413817194e+00 7.8696434334891663e+00 0 0 0
303 1 1.2231280069749515e+01 1.7728812449169595e-01 7.6534930541301325e+00 0 0 0
299 1 9.0242172708647548e+00 7.5410588538191292e-01 7.8103697826008780e+00 0 0 0
442 1 8.9510814780417221e+00 2.4859004193150502e+00 9.9828811408813873e+00 0 0 0
305 1 1.3868830376085226e+01 3.5020381243311076e-02 6.2256694664844980e+00 0 0 0
306 1 1.6429588554992126e+01 1.7174265212569735e+00 6.4356906542865655e+00 0 0 0
308 1 1.4148237320754294e+01 1.8399627587614682e+00 7.7728772479185544e+00 0 0 0
331 1 1.6497161047601459e+01 3.7358847582831900e+00 7.7948159165769297e+00 0 0 0
449 1 1.4228275135854028e+01 2.0986460844941316e+01 9.8837609066587326e+00 0 -1 0
292 1 2.1152651958189384e+01 1.5076309145903208e+00 7.7366220034574535e+00 -1 0 0
312 1 1.7972201990480386e+01 1.8323377076063065e+00 8.1105656727597086e+00 0 0 0
335 1 1.9563219620567292e+01 3.5341388006523577e+00 8.3374206008199785e+00 0 0 0
477 1 1.7490444446039902e+01 3.2843150011273345e+00 9.8140069984135856e+00 0 0 0
453 1 1.7807647298373489e+01 5.0123350680987500e-02 9.8950896306981253e+00 0 0 0
341 1 3.2335091732533954e+00 7.5747191713453654e+00 6.1361152326012691e+00 0 0 0
339 1 1.2934774976909766e+00 7.4489896011003882e+00 7.8506114296685592e+00 0 0 0
320 1 2.7865290921593355e+00 5.6688066701970143e+00 7.4777635600180652e+00 0 0 0
481 1 2.0981867881360380e+01 7.3788720371273975e+00 1.0321502636553271e+01 -1 0 0
318 1 4.8654217613921462e+00 5.4927385082423639e+00 5.8849788705831338e+00 0 0 0
324 1 7.0385548552297372e+00 5.6501416057721290e+00 8.0665039117142747e+00 0 0 0
343 1 4.7617787042196218e+00 7.0933537543686942e+00 7.7438793546068361e+00 0 0 0
489 1 6.6700624443376402e+00 7.3316091327464807e+00 9.8927921727252901e+00 0 0 0
349 1 1.0645642053198893e+01 7.0140774178753276e+00 6.3194685006339029e+00 0 0 0
322 1 8.8096056330511328e+00 5.2404434663043542e+00 6.1929612178413462e+00 0 0 0
347 1 8.6944081613091360e+00 7.3220753341014486e+00 7.8100241414789213e+00 0 0 0
328 1 1.0681773056511215e+01 5.6466862962812714e+00 8.4429424433888443e+00 0 0 0
351 1 1.2576073066666517e+01 7.3553524695208869e+00 8.0628184794879569e+00 0 0 0
470 1 1.2659596250924503e+01 5.7466813443559932e+00 9.8683862107710230e+00 0 0 0
493 1 1.0513172030806036e+01 7.3934374141161445e+00 1.0021834454699230e+01 0 0 0
330 1 1.6139398700554946e+01 6.0120148472417547e+00 5.8063511164652688e+00 0 0 0
353 1 1.4500704050799234e+01 7.5435321074959987e+00 6.0278318722502044e+00 0 0 0
355 1 1.5950118301760588e+01 7.8014612543930744e+00 7.8259512271227187e+00 0 0 0
332 1 1.4712803585318719e+01 5.9079058081596418e+00 7.7876248622314659e+00 0 0 0
474 1 1.6111009282143385e+01 5.6257716693019653e+00 9.6421096896603000e+00 0 0 0
357 1 1.7808985944618321e+01 7.6088232466687833e+00 6.1541708550984628e+00 0 0 0
337 1 5.4148513430078538e-02 7.4083030600268431e+00 5.8714872112764578e+00 0 0 0
316 1 8.7574512417901929e-02 5.7347078104230356e+00 7.9639685746310480e+00 0 0 0
336 1 1.7962247453356888e+01 5.4899378402635985e+00 8.0016440520195484e+00 0 0 0
359 1 1.9714615713234039e+01 7.4004875496798990e+00 8.0590930477153897e+00 0 0 0
344 1 3.3861659827920647e+00 9.0843350859731125e+00 7.9948461159269630e+00 0 0 0
363 1 1.5620619371590103e+00 1.1270115804325407e+01 8.0851072952559768e+00 0 0 0
368 1 3.4653595713017649e+00 1.2643954194532805e+01 8.1316950588100063e+00 0 0 0
340 1 2.0972547720307883e+01 9.4183490357879176e+00 7.9994860772514951e+00 -1 0 0
364 1 2.1025298453946096e+01 1.2678075190749315e+01 8.1423954281272781e+00 -1 0 0
482 1 1.6222092585600216e+00 9.2478781553876566e+00 9.7875466362852066e+00 0 0 0
505 1 2.1111267518172376e+01 1.1338920371828978e+01 9.9477672481314965e+00 -1 0 0
342 1 4.7897334611503926e+00 9.2095875481244924e+00 5.8989915382964337e+00 0 0 0
348 1 6.4963762047988185e+00 9.0007850265597416e+00 7.6771689850829272e+00 0 0 0
367 1 5.1108414715044219e+00 1.0787728382501912e+01 8.2666187385919141e+00 0 0 0