LAMMPS data file via write_data, version 19 Mar 2020, timestep = 200000

1728 atoms
1 atom types

0.0000000000000000e+00 2.1263999999999999e+01 xlo xhi
0.0000000000000000e+00 2.1263999999999999e+01 ylo yhi
-1.4301561032177972e+00 4.3958156103222699e+01 zlo zhi

Masses

1 58.933

Atoms # atomic

8 1 3.6304178684609982e+00 1.7607556761119694e+00 3.7715929825164096e-01 0 0 0
146 1 1.9227584463632987e+00 1.7580898747911118e+00 2.2820971435111277e+00 0 0 0
173 1 3.3052011676906901e+00 3.8244368546299135e+00 2.3512759808539965e+00 0 0 0
27 1 1.5794459395190108e+00 3.5973965034263400e+00 1.5607277084763305e-01 0 0 0
4 1 2.1124236219982865e+01 1.7691336490940068e+00 3.5377771637314792e-01 -1 0 0
169 1 3.6280363878937666e-01 3.6302511650576745e+00 2.1552708017223927e+00 0 0 0
81 1 7.0878095233324014e+00 1.0179587173865338e+01 -1.0634091409307962e+00 0 0 0
149 1 3.6173421165243878e+00 1.9824451813938407e-01 2.4487825046918825e+00 0 0 0
3 1 1.9219322182338237e+00 2.0806807438423796e+01 5.3463558938608613e-01 0 -1 0
82 1 8.8027496761677817e+00 1.2529807869268044e+01 -1.3343829462730787e+00 0 0 0
12 1 7.1010245281179296e+00 2.0144156420419339e+00 5.0562067036376845e-01 0 0 0
31 1 5.1729112407677578e+00 3.5790248939607672e+00 5.8635461361847696e-01 0 0 0
150 1 5.3448499657037791e+00 1.9941854574815860e+00 2.4484844446129284e+00 0 0 0
177 1 6.8328762254308559e+00 3.9066032932376884e+00 2.3855776747900546e+00 0 0 0
153 1 7.4823754497302559e+00 4.3942129745743863e-01 2.2218110942430802e+00 0 0 0
7 1 5.5973535183650656e+00 2.2089575581175325e-01 6.3000482223195275e-01 0 0 0
85 1 1.0362516689934878e+01 1.0460661030946595e+01 -1.3526997341419238e+00 0 0 0
35 1 8.5776387827419089e+00 3.9969916921569251e+00 3.8383822223189590e-01 0 0 0
16 1 1.0814108128554736e+01 2.2849809794539522e+00 5.0312051450858686e-01 0 0 0
181 1 1.0690193993445885e+01 3.7528364175008626e+00 2.2650971541819405e+00 0 0 0
39 1 1.2760206829639911e+01 3.7933962152921410e+00 6.4037698642362173e-01 0 0 0
154 1 8.8992392624048957e+00 2.2890386917651626e+00 2.0570995095263087e+00 0 0 0
158 1 1.2358911473313128e+01 1.9226979224907672e+00 2.4787941876548514e+00 0 0 0
1 1 1.8374289464982130e-01 2.1172389939362962e+01 -1.1780304644179913e+00 0 -1 0
20 1 1.4322513620981445e+01 1.7715786689635848e+00 7.9872294557260481e-01 0 0 0
43 1 1.6417412006398290e+01 3.8314964644807752e+00 2.8314878615007277e-01 0 0 0
185 1 1.4633561348545591e+01 3.6560087989074121e+00 2.2439171552663257e+00 0 0 0
162 1 1.6214961303398816e+01 1.6377700733967879e+00 2.4783816194797534e+00 0 0 0
19 1 1.5752342153954261e+01 2.1023802473076604e+01 8.7255750366196549e-01 0 -1 0
50 1 1.6094179519891785e+00 8.7637954838541567e+00 -1.3863408587969124e+00 0 0 0
841 1 1.1933620138819023e-01 1.7247024703693530e+01 1.7490120753335866e+01 0 0 0
24 1 1.7407315316069578e+01 1.5287912318176191e+00 6.2642368720197572e-01 0 0 0
47 1 1.9378425607181907e+01 3.3701231297725491e+00 2.5758884767778545e-01 0 0 0
166 1 1.9473465789909639e+01 1.7966639872796322e+00 2.3019451254837122e+00 0 0 0
189 1 1.7907685641805251e+01 3.4552329574356491e+00 2.2048647554073755e+00 0 0 0
165 1 1.7838157000550918e+01 2.1122138141247966e+01 2.4709151074067126e+00 0 -1 0
23 1 1.9457129683015690e+01 1.5340213809321213e-01 2.7561807361945800e-01 0 0 0
14 1 1.2456103237059414e+01 1.6472544184310309e+00 -1.0901585391294708e+00 0 0 0
145 1 2.1261910474924253e+01 2.1246487133619301e+01 2.2247321072735899e+00 -1 -1 0
138 1 1.5755417467491581e+01 1.9564037248531726e+01 -9.6273927671257797e-01 0 0 0
32 1 3.3369407425430273e+00 5.2876782504088444e+00 1.2128525725430195e-01 0 0 0
51 1 1.6050137772434865e+00 7.1987234217542868e+00 5.9563132840386102e-01 0 0 0
170 1 1.7419589692888597e+00 5.3988036249341596e+00 2.1211508138569837e+00 0 0 0
197 1 3.0443046792480390e+00 7.2653752991741127e+00 2.3170674148646944e+00 0 0 0
36 1 6.6778608639135184e+00 5.6457459106521002e+00 4.4713186429932250e-01 0 0 0
55 1 4.8813432419293008e+00 7.1764237243171145e+00 5.1378312466682940e-01 0 0 0
174 1 4.6422019482915271e+00 5.6921559095762824e+00 2.2468685056679467e+00 0 0 0
201 1 6.9885032640439819e+00 6.8424746981150388e+00 2.3592844993887674e+00 0 0 0
178 1 8.7865689958860980e+00 5.2249090462439636e+00 2.5563678098043678e+00 0 0 0
59 1 8.5422696626059853e+00 6.8526096125493376e+00 2.7941635065030046e-01 0 0 0
40 1 1.0812608731926437e+01 5.5653997682040837e+00 4.1874475280225854e-01 0 0 0
205 1 1.0377921812319558e+01 7.1400686485258600e+00 2.4162064640432210e+00 0 0 0
182 1 1.2918810318552744e+01 5.2716105357795140e+00 2.4736014022816932e+00 0 0 0
63 1 1.2860358046887139e+01 7.2010263752740267e+00 6.3040047091694129e-01 0 0 0
44 1 1.4451080753286087e+01 5.1457770246811565e+00 4.0310136887460168e-01 0 0 0
67 1 1.6339899065004584e+01 6.8163338381572638e+00 3.4120653023147840e-01 0 0 0
209 1 1.4775790445679226e+01 7.1793079316659743e+00 2.2361449164832501e+00 0 0 0
186 1 1.6568815651524488e+01 5.4146164291447674e+00 2.2287866714371458e+00 0 0 0
86 1 1.2305978067401000e+01 1.2093428589154176e+01 -1.2251789178638168e+00 0 0 0
193 1 2.1180853515620118e+01 7.1170911541426394e+00 1.9823089449228810e+00 -1 0 0
28 1 2.0908364374633983e+01 5.4707994190981006e+00 3.1201522969276985e-01 -1 0 0
48 1 1.8474919718172600e+01 5.4558896272520849e+00 -3.0375534942011995e-01 0 0 0
71 1 1.9791009030675824e+01 7.3354486558879843e+00 -1.5111058567797153e-02 0 0 0
190 1 1.9750488200149650e+01 5.0389386372807685e+00 2.1957084758506862e+00 0 0 0
213 1 1.8595735910362531e+01 6.9741426364917780e+00 1.9472470484960653e+00 0 0 0
862 1 1.9449124222952189e+01 2.0024574954166916e+01 1.7322504035121181e+01 0 0 0
861 1 1.7413445713870814e+01 1.7838927567311028e+01 1.7613610137217801e+01 0 0 0
56 1 3.3631635557806541e+00 9.1069697567513792e+00 2.2786974688806660e-01 0 0 0
75 1 1.4800678641742493e+00 1.0718260985754783e+01 4.4403593361930516e-01 0 0 0
194 1 1.4487424405935219e+00 9.2322243964162443e+00 2.1737627361443166e+00 0 0 0
221 1 3.4306022936021798e+00 1.0863476445002123e+01 2.4172784406119767e+00 0 0 0
80 1 3.4917544110643850e+00 1.2575279674187625e+01 4.1729853944041251e-01 0 0 0
217 1 2.1246205378238027e+01 1.1053646639473087e+01 2.5669840518743907e+00 -1 0 0
218 1 1.9762504274769035e+00 1.2664552133936999e+01 2.2172660461766465e+00 0 0 0
60 1 6.6979127652033279e+00 8.9530718033649865e+00 6.4433152614250222e-01 0 0 0
79 1 4.9425781550946510e+00 1.0790750024376671e+01 4.9148485135213904e-01 0 0 0
225 1 6.9509070660093721e+00 1.0677960942861816e+01 2.1020293872618070e+00 0 0 0
198 1 4.8729018785980873e+00 8.9324713993845588e+00 2.3136584855259898e+00 0 0 0
222 1 5.5852615474826424e+00 1.2686143114882881e+01 2.3354899255433250e+00 0 0 0
84 1 6.9266271433479369e+00 1.2365060593050549e+01 3.8661404398296972e-01 0 0 0
202 1 8.8114546890546954e+00 8.8336790147453392e+00 1.9937357070719051e+00 0 0 0
83 1 8.8357892003059817e+00 1.0850016451047752e+01 5.7590362518916960e-01 0 0 0
64 1 1.0755159253900601e+01 8.4583127245398444e+00 8.2966352775616237e-01 0 0 0
229 1 1.0576129464389874e+01 1.0316220918590307e+01 2.2399743693609584e+00 0 0 0
87 1 1.2283102091876454e+01 1.0187374503150185e+01 4.4654030522948318e-01 0 0 0
206 1 1.2421589713171882e+01 8.8645888199673983e+00 2.5090557791253891e+00 0 0 0
230 1 1.2178618652596404e+01 1.2252399640196913e+01 2.2311527484642601e+00 0 0 0
17 1 1.4144735430721552e+01 1.1256235187977613e-01 -1.1422472620672333e+00 0 0 0
68 1 1.4622362799774390e+01 9.1528671641984189e+00 5.6919463300190354e-01 0 0 0
91 1 1.6355333712791939e+01 1.1021965865136195e+01 3.1518879485929241e-01 0 0 0
233 1 1.4377394599503063e+01 1.0623764722084132e+01 2.2695875836352033e+00 0 0 0
210 1 1.6269065465530034e+01 9.0740924614356224e+00 2.2895080981912943e+00 0 0 0
234 1 1.5836598176868250e+01 1.2632739516103992e+01 2.2871874586010121e+00 0 0 0
21 1 1.7308387280886858e+01 1.2726568009976005e-01 -1.2062553303244274e+00 0 0 0
2 1 1.9655397659938942e+00 1.8040417568083564e+00 -1.3819412402503415e+00 0 0 0
101 1 3.3079523238606399e+00 1.4113094070241564e+01 -1.4061031902955119e+00 0 0 0
863 1 1.9564185871188133e+01 1.7799286707164200e+01 1.9111288917055308e+01 0 0 0
52 1 2.0872340539712749e+01 9.2830780742938526e+00 3.5962996809594761e-01 -1 0 0
76 1 6.2965496648109340e-02 1.2737734744141850e+01 5.2891229968820275e-01 0 0 0
214 1 1.9151342358221743e+01 9.5066166057494925e+00 2.1224159064173564e+00 0 0 0
72 1 1.7798769823573675e+01 9.1206018407366365e+00 6.6771936248648078e-02 0 0 0
95 1 1.9510233386044881e+01 1.0998960117650830e+01 3.4436275975721053e-01 0 0 0
237 1 1.7792007389233628e+01 1.1347548621891818e+01 2.4218576662132336e+00 0 0 0
96 1 1.7822393270172430e+01 1.2908055296256910e+01 2.1716197155702188e-01 0 0 0
238 1 1.9572699296596753e+01 1.3165518740885599e+01 2.5540033532876003e+00 0 0 0
864 1 1.7549494257969375e+01 1.9620726746629387e+01 1.9089487536315538e+01 0 0 0
99 1 1.7090071774908635e+00 1.4239670676478822e+01 5.7878604271000311e-01 0 0 0
104 1 3.6488648449268708e+00 1.6184539671124199e+01 3.1761749516610904e-01 0 0 0
242 1 1.8480606062543763e+00 1.6126788724730531e+01 1.9696314357342639e+00 0 0 0
245 1 3.9200771101122371e+00 1.4498188929332450e+01 2.4130857037816069e+00 0 0 0
100 1 2.1217018122599516e+01 1.6414509792927046e+01 3.4404544216958688e-01 -1 0 0
103 1 5.4380943388254668e+00 1.4222177258494630e+01 2.3126365485441935e-01 0 0 0
108 1 7.2569662777047030e+00 1.6412911284186933e+01 4.3803673283113786e-01 0 0 0
246 1 5.5891321985792830e+00 1.6106561133556564e+01 2.0937701669777051e+00 0 0 0
249 1 7.2706910515856800e+00 1.4300829699955610e+01 2.1966099062476019e+00 0 0 0
844 1 2.1134195109498531e+01 1.9568320325274918e+01 1.9274644247740323e+01 -1 0 0
226 1 9.0434425623693713e+00 1.2470617128432817e+01 2.0032731900329561e+00 0 0 0
88 1 1.0597651681681668e+01 1.2170024494183840e+01 3.4394441559813793e-01 0 0 0
250 1 8.4621488760067169e+00 1.6223837714027248e+01 2.3635680612310974e+00 0 0 0
107 1 8.7632411810750046e+00 1.4392415353863147e+01 4.7978814116179946e-01 0 0 0
112 1 1.0599555206813731e+01 1.5819281471759043e+01 5.0587721531173879e-01 0 0 0
253 1 1.0530311839539346e+01 1.4472175022158661e+01 2.3509025829160990e+00 0 0 0
254 1 1.2290919309791718e+01 1.6107203899321934e+01 2.4171442216528685e+00 0 0 0
111 1 1.2570243214779829e+01 1.4123197372198605e+01 5.8725489441014034e-01 0 0 0
1607 1 7.1713364046100994e+00 1.4131398085526047e+01 2.1019352087542885e+01 0 0 0
126 1 5.6456548530375201e+00 1.9285815225711008e+01 -1.4169563860234555e+00 0 0 0
857 1 1.4112516033110436e+01 1.7863085617788741e+01 1.7726999082846099e+01 0 0 0
1154 1 1.4270841351687713e+01 7.1154812198428434e+00 2.1126459056119348e+01 0 -1 0
92 1 1.4089526421283040e+01 1.2198525316889063e+01 4.1873841386829125e-01 0 0 0
858 1 1.5823105407193069e+01 1.9720358381864283e+01 1.7431281798509033e+01 0 0 0
115 1 1.5864071620026669e+01 1.4212180870380765e+01 4.6308196795485657e-01 0 0 0
116 1 1.4128999294707681e+01 1.5993997382061652e+01 3.1475563167078091e-01 0 0 0
257 1 1.4029795559021874e+01 1.4277974466846812e+01 2.7866671637567206e+00 0 0 0
258 1 1.5732118360479388e+01 1.5762418904608428e+01 2.5318882234065025e+00 0 0 0
1315 1 6.8265350609646873e+00 1.0076815383555264e+01 2.1093032927410231e+01 1 -1 0
241 1 2.5249142489503384e-02 1.4747552856454595e+01 2.2947698786674158e+00 0 0 0
119 1 1.9447831527502007e+01 1.4497527353002583e+01 6.2382296841076768e-01 0 0 0
120 1 1.7508797784379027e+01 1.5854842307509575e+01 4.3199956256363437e-01 0 0 0
262 1 1.9311349177922104e+01 1.6300877730154884e+01 2.3946874561782230e+00 0 0 0
261 1 1.7451776671144014e+01 1.4286934207562636e+01 2.0864028178510057e+00 0 0 0
123 1 1.9653138517493118e+00 1.8247317303648739e+01 3.0930779784993723e-01 0 0 0
128 1 3.8790257278380404e+00 1.9731296914977914e+01 6.4084591758106857e-01 0 0 0
266 1 1.9809569483441807e+00 1.9554721869205469e+01 2.4567089341104533e+00 0 0 0
269 1 3.7813019389100169e+00 1.7572986079039964e+01 2.4140229666072246e+00 0 0 0
58 1 8.8267970276251901e+00 8.8805834262976386e+00 -8.8199200885377016e-01 0 0 0
134 1 1.2169869054574539e+01 1.9716702254392121e+01 -1.1413095049937976e+00 0 0 0
847 1 5.5749391837024591e+00 1.8151877598394652e+01 1.9302664807467853e+01 0 0 0
852 1 7.3409579103824640e+00 1.9792974455234507e+01 1.9672618727734520e+01 0 0 0
127 1 5.5147565397875491e+00 1.8002979331369211e+01 4.6686327345840750e-01 0 0 0
132 1 7.1637702662817020e+00 1.9795429889933914e+01 3.1208525225297357e-01 0 0 0
273 1 6.9832245845012615e+00 1.8001830108059917e+01 2.3760777154512880e+00 0 0 0
270 1 5.3757039893016163e+00 1.9750998142048850e+01 2.3980183822594459e+00 0 0 0
846 1 5.2120543944536326e+00 1.9757945499410233e+01 1.7855268216448017e+01 0 0 0
37 1 1.0926757208569189e+01 3.8996048703217667e+00 -1.1806417066691057e+00 0 0 0
157 1 1.0449146940868339e+01 3.9426033812420952e-01 2.2921082626570630e+00 0 0 0
11 1 8.7930468253810634e+00 3.2426000689240503e-01 3.4838489220131108e-01 0 0 0
15 1 1.2197166101412762e+01 2.9373362386706958e-02 9.5965739399429761e-01 0 0 0
131 1 8.8793789885077388e+00 1.8129312991973169e+01 4.8713304451810857e-01 0 0 0
136 1 1.0595744170585515e+01 1.9692321814353495e+01 5.6811748284140617e-01 0 0 0
135 1 1.2313571350371850e+01 1.7789803188197460e+01 3.3150185903449914e-01 0 0 0
278 1 1.2304392261873424e+01 1.9304444860576012e+01 2.3749287751900061e+00 0 0 0
274 1 8.7986691421287713e+00 1.9721569031205046e+01 2.1939090730805910e+00 0 0 0
277 1 1.0485461516622644e+01 1.7638487500212317e+01 2.2188952276675327e+00 0 0 0
727 1 5.2918007257158104e+00 2.6392266812582676e-01 1.9486758135325370e+01 0 0 0
860 1 1.4113897837505368e+01 1.9745274307307476e+01 1.9509768949894333e+01 0 0 0
161 1 1.4158912560594649e+01 1.1487720771867220e-01 2.5281848500097501e+00 0 0 0
139 1 1.5559055909370830e+01 1.8036283392332344e+01 8.9795168212392396e-01 0 0 0
140 1 1.3904472049950536e+01 1.9549215791306967e+01 6.2519610639752665e-01 0 0 0
281 1 1.4201087553939571e+01 1.7762351440311289e+01 2.5906156081658427e+00 0 0 0
282 1 1.6054144487202986e+01 1.9433744196897301e+01 2.6886942238120284e+00 0 0 0
105 1 7.2708780914216824e+00 1.4385074199195829e+01 -1.4032351492090065e+00 0 0 0
124 1 2.1251456788123583e+01 1.9285955292483180e+01 2.9802558782504907e-01 -1 0 0
265 1 2.5092774844749693e-01 1.7735827243775315e+01 2.2847780349186513e+00 0 0 0
144 1 1.7645057844763141e+01 1.9222345196333205e+01 7.3566150893775717e-01 0 0 0
143 1 1.9181531722861337e+01 1.7752321009325033e+01 -3.3302904312277226e-02 0 0 0
285 1 1.7568247457560812e+01 1.7573474129370688e+01 2.4566678465730374e+00 0 0 0
286 1 1.9412547007680235e+01 1.9173178551450039e+01 2.6323933036962357e+00 0 0 0
152 1 3.5059989041643225e+00 1.8735245047560798e+00 4.2378798105840749e+00 0 0 0
171 1 1.6735043875484457e+00 3.7932167436481921e+00 4.2288471797269507e+00 0 0 0
317 1 3.2622036377910972e+00 3.9966097902899982e+00 5.9607279541417846e+00 0 0 0
290 1 1.6468286276259230e+00 2.0550741778116506e+00 6.0380611195871996e+00 0 0 0
313 1 2.1209633779089547e+01 3.6703568809434968e+00 5.9280521737692977e+00 -1 0 0
293 1 3.8622994053872688e+00 1.1466369595755024e-01 6.0735866632645878e+00 0 0 0
147 1 1.7248709284034238e+00 2.1251276106992165e+01 4.1826923803603222e+00 0 -1 0
156 1 7.1515632977716903e+00 2.2773087272546046e+00 4.2596978857703789e+00 0 0 0
175 1 5.1462537142547058e+00 3.8608690537132841e+00 4.1209977466542158e+00 0 0 0
294 1 5.2678303408086284e+00 2.0593710183975089e+00 5.8468004156923561e+00 0 0 0
321 1 7.1810415415789199e+00 3.9664150946843435e+00 6.1305520420021402e+00 0 0 0
297 1 7.3955328598318255e+00 4.6360450882059950e-02 6.0990310363690119e+00 0 0 0
151 1 5.4738446005700556e+00 1.6634265904581796e-01 4.1454282394012179e+00 0 0 0
179 1 8.9915784800506557e+00 3.8274906307233207e+00 4.2731232742725203e+00 0 0 0
160 1 1.0646553817826710e+01 2.0020313074468836e+00 4.3810408262309526e+00 0 0 0
325 1 1.0718623738197385e+01 3.9496524325600455e+00 6.0918412840269234e+00 0 0 0
298 1 8.6707341032098526e+00 2.1363547796716431e+00 6.5598740192222067e+00 0 0 0
183 1 1.2534474673179302e+01 3.5688368780528417e+00 4.0658015348107490e+00 0 0 0
301 1 1.0630875556201808e+01 2.2615638450928202e-01 6.2221359287440308e+00 0 0 0
155 1 8.9825306645897438e+00 2.8926442605023522e-01 4.3847117826677504e+00 0 0 0
302 1 1.2275573662897937e+01 1.9918112599905928e+00 6.2699607676906641e+00 0 0 0
164 1 1.4364916918875267e+01 2.1923832074236254e+00 4.2613677756960264e+00 0 0 0
187 1 1.6056129407574719e+01 3.7008611163886176e+00 4.2776847660525981e+00 0 0 0
306 1 1.6013075519529281e+01 1.8164605596075951e+00 6.0626664736822704e+00 0 0 0
329 1 1.4260086121132785e+01 3.3251056934968095e+00 6.2959938385746854e+00 0 0 0
305 1 1.4000456922367089e+01 3.0474838283529859e-01 6.0311127991535560e+00 0 0 0
163 1 1.5774887090627644e+01 1.3372349472047892e-01 4.3084177501723371e+00 0 0 0
148 1 3.2299289775605776e-02 1.7435815321351231e+00 4.0346248613972246e+00 0 0 0
289 1 1.1102644103456971e-01 2.7766838878042305e-01 5.9340024681381358e+00 0 0 0
333 1 1.7888616567423085e+01 3.5159557481705090e+00 6.2943755082058734e+00 0 0 0
168 1 1.7562048147242944e+01 1.6461098924055637e+00 4.3090311896390858e+00 0 0 0
191 1 1.9351299194642316e+01 3.3280843870817183e+00 4.3226224653430494e+00 0 0 0
310 1 1.9349915176435275e+01 1.5475278354963795e+00 5.9524892712788535e+00 0 0 0
309 1 1.7654119049392751e+01 2.1229324061987665e+01 6.1467917864055162e+00 0 -1 0
176 1 3.3039872619159101e+00 5.7190589605282005e+00 4.1995405655052149e+00 0 0 0
195 1 1.2705098784061948e+00 7.2655605814808828e+00 3.9169958587527747e+00 0 0 0
341 1 3.0875893194815642e+00 7.3778588707158521e+00 6.0297425081798819e+00 0 0 0
314 1 1.4619749396920871e+00 5.4076452258030168e+00 5.6625865828229021e+00 0 0 0
337 1 9.0647971589131848e-02 7.6181554335126984e+00 6.0334267401022661e+00 0 0 0
180 1 7.1265560518987376e+00 5.6203281184865030e+00 4.3751131742375255e+00 0 0 0
199 1 5.2343659924866799e+00 7.1223264388746674e+00 3.9293194387855301e+00 0 0 0
318 1 5.0569794060678310e+00 5.6102936278556035e+00 6.1979336097620550e+00 0 0 0
345 1 7.1631380060653971e+00 7.3866261985542199e+00 5.9161862420898688e+00 0 0 0
203 1 9.0364906285582869e+00 7.1714400553022504e+00 4.3123855713355397e+00 0 0 0
322 1 8.8854759747427643e+00 5.4486423309977594e+00 6.0365413288667362e+00 0 0 0
184 1 1.1145745371543574e+01 5.5181909224480528e+00 3.7900307086455287e+00 0 0 0
326 1 1.3032594481926710e+01 5.3697648672320781e+00 5.8282997786031627e+00 0 0 0
207 1 1.2594359186449832e+01 7.2641116615029251e+00 4.2227018152998035e+00 0 0 0
349 1 1.1135395729024811e+01 7.0574517193843045e+00 6.1862386290881703e+00 0 0 0
188 1 1.5139425598996340e+01 5.7209803037393758e+00 4.1266689810924566e+00 0 0 0
211 1 1.6323069900913282e+01 7.5840851803128553e+00 4.4549466241631803e+00 0 0 0
330 1 1.6038942549932223e+01 5.5584698838324949e+00 6.5080351278972888e+00 0 0 0
353 1 1.4309971624023884e+01 7.2670641505503362e+00 5.9772696848050515e+00 0 0 0
172 1 2.1214800245191821e+01 5.3512025884206320e+00 4.0988523257527900e+00 -1 0 0
192 1 1.7894647979375353e+01 5.5460655593693353e+00 4.0613412264688487e+00 0 0 0
215 1 1.9632685185559495e+01 7.2230415767366019e+00 4.1488414755528522e+00 0 0 0
334 1 1.9460874731231939e+01 5.5480194115328665e+00 5.9132286011807276e+00 0 0 0
357 1 1.7942238014636974e+01 7.6421762964509767e+00 6.3451676176025034e+00 0 0 0
336 1 1.7860530617121153e+01 5.7325800756401142e+00 7.9359573218999024e+00 0 0 0
200 1 3.1454233195894683e+00 8.8937266242058275e+00 4.5218804098836394e+00 0 0 0
338 1 1.4041977070817524e+00 9.4016661976422622e+00 5.9000347814807395e+00 0 0 0
219 1 1.7896648094866179e+00 1.1054902983855559e+01 4.0845677799467737e+00 0 0 0
365 1 3.7532264321319522e+00 1.0656088927448714e+01 5.9805455256907658e+00 0 0 0
362 1 1.7067662959981333e+00 1.2545081048735005e+01 5.8718848356451625e+00 0 0 0
224 1 3.5975212984600304e+00 1.2820067786091034e+01 4.2444484974965810e+00 0 0 0
204 1 6.9071523145114204e+00 8.9175448517569720e+00 3.7482183191423264e+00 0 0 0
342 1 5.1299071902894262e+00 8.5970225611546738e+00 5.8996581290494454e+00 0 0 0
223 1 5.3725666460226336e+00 1.0661154573535363e+01 4.2182614072022337e+00 0 0 0
369 1 7.2819948657656841e+00 9.9236573000824109e+00 5.9015736908580569e+00 0 0 0
366 1 5.5884236850590092e+00 1.2304827265600219e+01 5.9724627566011046e+00 0 0 0
227 1 8.5644579743532976e+00 1.0759609343025746e+01 4.0855103679541598e+00 0 0 0
346 1 9.2395405859930104e+00 8.5178312315917726e+00 6.1046666076919909e+00 0 0 0
350 1 1.2634298530903422e+01 8.9907987795088307e+00 6.2358156844897863e+00 0 0 0
208 1 1.0332539999577254e+01 9.1387336027797481e+00 4.0123965468780556e+00 0 0 0
373 1 1.0670722118294341e+01 1.0648903140077518e+01 5.8471286521330708e+00 0 0 0
231 1 1.2210326466169215e+01 1.0413293383529014e+01 4.1438192820564295e+00 0 0 0
232 1 1.0470192576837842e+01 1.2223889988590011e+01 3.9608384529429959e+00 0 0 0
374 1 1.2298333316720447e+01 1.2373617486949565e+01 6.0540278045377116e+00 0 0 0
354 1 1.6428403100369415e+01 9.2299167205765915e+00 6.6314108244122529e+00 0 0 0
212 1 1.4552458729445100e+01 8.9105340707991800e+00 4.2447702155366054e+00 0 0 0
235 1 1.6130313067674013e+01 1.0892479837695550e+01 4.1416873057259069e+00 0 0 0
377 1 1.4417084023245756e+01 1.0604313377309975e+01 5.7966339972100345e+00 0 0 0
236 1 1.4023554866739243e+01 1.2253559768589563e+01 3.9636430702748529e+00 0 0 0
378 1 1.5849772112518520e+01 1.2587394902440757e+01 5.9487298734203593e+00 0 0 0
196 1 2.0942481178313678e+01 9.0206183712499559e+00 3.9463028054031248e+00 -1 0 0
220 1 1.3951595257595462e-01 1.2698235465608157e+01 3.9993696888754080e+00 0 0 0
361 1 2.1160260153182470e+01 1.1099847477144785e+01 5.8096414703543786e+00 -1 0 0
358 1 1.9690896488342212e+01 9.5328177529975182e+00 6.1445551609290723e+00 0 0 0
216 1 1.8306819266396438e+01 9.1030274502040225e+00 4.3533198745867114e+00 0 0 0
239 1 1.9481422318962718e+01 1.1116174400549788e+01 4.1556516538496266e+00 0 0 0
240 1 1.7595808942409576e+01 1.3109533701449136e+01 4.0971254280552039e+00 0 0 0
381 1 1.7826014717208309e+01 1.1127812610449341e+01 5.9564331869880167e+00 0 0 0
382 1 1.9554601249519671e+01 1.2512297986613202e+01 6.2499183484783671e+00 0 0 0
243 1 1.6780579295761069e+00 1.4156043260222054e+01 4.1285146914862949e+00 0 0 0
248 1 3.3839391952188214e+00 1.6042131280818452e+01 4.3739839768180051e+00 0 0 0
389 1 3.5595585995278904e+00 1.4270866189008999e+01 6.0494604769576483e+00 0 0 0
386 1 1.9463984286290812e+00 1.6030341339024751e+01 6.2557021961316570e+00 0 0 0
385 1 6.4900563719546153e-02 1.4369529620757094e+01 6.4354864350378236e+00 0 0 0
228 1 6.9501372105413015e+00 1.2481993082034366e+01 4.1938163195191809e+00 0 0 0
247 1 5.4286861891331020e+00 1.4347168423361129e+01 4.3411802665801753e+00 0 0 0
252 1 7.2093835962646962e+00 1.6215827397099844e+01 4.3405547612371338e+00 0 0 0
390 1 5.6370226126827925e+00 1.6042591790741398e+01 6.4519198460810925e+00 0 0 0
393 1 7.2954675698282170e+00 1.4316907419763918e+01 5.9911680191140153e+00 0 0 0
370 1 8.4675848424862377e+00 1.1961690982753552e+01 6.1738522620893708e+00 0 0 0
394 1 8.9454168465093264e+00 1.6086047406354691e+01 6.2522491873086166e+00 0 0 0
251 1 8.7089643991284422e+00 1.4146832754487608e+01 4.1801144175668385e+00 0 0 0
256 1 1.0169112499891177e+01 1.5800404592732965e+01 4.4222996975395521e+00 0 0 0
398 1 1.2196293826213711e+01 1.5939441054545076e+01 5.8140853493297326e+00 0 0 0
397 1 1.0471121028839727e+01 1.4089064780060504e+01 6.2600292735116110e+00 0 0 0
255 1 1.2111126861334931e+01 1.4042819366130690e+01 4.1957808057527393e+00 0 0 0
259 1 1.5839500083466111e+01 1.4410832156972567e+01 4.4135182588546655e+00 0 0 0
260 1 1.4058536258671195e+01 1.6051639180144043e+01 4.2823761027181977e+00 0 0 0
402 1 1.6067738327642463e+01 1.6227752380702867e+01 6.0478345704229977e+00 0 0 0
401 1 1.3917622664307375e+01 1.4069595029787308e+01 6.0377758966899853e+00 0 0 0
244 1 2.8529663389902327e-01 1.6171916096731696e+01 4.5155401628178593e+00 0 0 0
263 1 1.9837448171611033e+01 1.4572851584368518e+01 4.5571259856227231e+00 0 0 0
264 1 1.7524238911156399e+01 1.6097228408457415e+01 4.2446720948809764e+00 0 0 0
406 1 1.9253087574127903e+01 1.5973507600085998e+01 6.2710644938737632e+00 0 0 0
405 1 1.7768014461457234e+01 1.4095066948297482e+01 6.4680301332485008e+00 0 0 0
267 1 1.7955257105796913e+00 1.7865619731566710e+01 4.1403031554730738e+00 0 0 0
272 1 3.6823504536330240e+00 1.9885951739652818e+01 4.2089188341673118e+00 0 0 0
410 1 1.9250840567111613e+00 1.9421680516243544e+01 6.0412454323558062e+00 0 0 0
413 1 3.5658138098284371e+00 1.7892682612986718e+01 6.0251754093902372e+00 0 0 0
268 1 2.1075523396664462e+01 1.9269518834489798e+01 4.2644988368714083e+00 -1 0 0
271 1 5.4890574981754430e+00 1.7865426716808429e+01 4.5963842780251829e+00 0 0 0
276 1 7.2762623521266470e+00 1.9808382483590201e+01 4.1445906074908878e+00 0 0 0
417 1 7.2034874986880668e+00 1.8024226676887817e+01 6.2484086135545054e+00 0 0 0
414 1 5.4416837224123311e+00 1.9732997848839403e+01 6.2305578236979668e+00 0 0 0
159 1 1.2341283936412577e+01 2.5492515593635995e-01 4.3060811480898247e+00 0 0 0
418 1 9.0914337433352923e+00 1.9716240261797960e+01 6.2084727080570854e+00 0 0 0
275 1 8.8879265293202021e+00 1.7747813070188833e+01 4.2285485934162086e+00 0 0 0
280 1 1.0680462070734633e+01 1.9411603920207586e+01 4.1757836796344829e+00 0 0 0
421 1 1.0591470599893796e+01 1.7805573572958089e+01 6.2341468246256486e+00 0 0 0
422 1 1.2311383854015483e+01 1.9648619046314860e+01 6.0244336466521968e+00 0 0 0
279 1 1.2222622261399472e+01 1.7631953865705793e+01 4.2446977178172922e+00 0 0 0
283 1 1.5789827822571251e+01 1.7676442303274207e+01 4.4414577138913156e+00 0 0 0
284 1 1.4067056584252017e+01 1.9590892455819429e+01 4.3352369524451566e+00 0 0 0
425 1 1.3860294668312008e+01 1.7695078613145768e+01 6.2016976672256527e+00 0 0 0
426 1 1.5786330071763704e+01 1.9505621314006209e+01 6.5448780022300586e+00 0 0 0
167 1 1.9476123199919737e+01 2.1231685888021701e+01 3.9292136709548284e+00 0 -1 0
409 1 3.3669788582644522e-02 1.7695465519387248e+01 6.2896947615120702e+00 0 0 0
287 1 1.9273158906779411e+01 1.7667370826812991e+01 4.3798741104621799e+00 0 0 0
288 1 1.7631521060820639e+01 1.9662518898491982e+01 4.4325182711849100e+00 0 0 0
430 1 1.9495251809255670e+01 1.9673277418730553e+01 6.1608343260197502e+00 0 0 0
429 1 1.7610164092373527e+01 1.7977253263124457e+01 6.1743472492432412e+00 0 0 0
315 1 1.7106564921780985e+00 3.7917656336858441e+00 7.8653880364248447e+00 0 0 0
296 1 3.7211602407148665e+00 2.2138064375515616e+00 7.6869082997221998e+00 0 0 0
434 1 1.7228467214331467e+00 1.9502365297726247e+00 9.9882893115301314e+00 0 0 0
461 1 3.6352613709443435e+00 3.5675653112276273e+00 9.7766643207443575e+00 0 0 0
440 1 3.0366108268359331e+00 1.5741805864644032e+00 1.1684117632039113e+01 0 0 0
437 1 3.4150804564866908e+00 1.8353852635175988e-01 9.6821575306577845e+00 0 0 0
459 1 1.4278908566279029e+00 3.9446378637583286e+00 1.1956696365265792e+01 0 0 0
291 1 1.8959082182935094e+00 2.1187859647252587e+01 8.0095643545264394e+00 0 -1 0
435 1 1.8856258340963281e+00 2.0810504253328602e+01 1.1933853659734437e+01 0 -1 0
319 1 5.5329790822720941e+00 3.6578520520770845e+00 8.1681470668467426e+00 0 0 0
300 1 6.8159385432181239e+00 1.8431454794201507e+00 7.9327444587203964e+00 0 0 0
465 1 7.1125971176708562e+00 3.8328213630758659e+00 9.9638310588471199e+00 0 0 0
438 1 5.3847260471640741e+00 1.6233485660483693e+00 9.7475027744775407e+00 0 0 0
444 1 6.9422704071751271e+00 2.1805373151859668e+00 1.1635767767532077e+01 0 0 0
463 1 5.0642812297149504e+00 3.4732030572737260e+00 1.1903230345236963e+01 0 0 0
295 1 5.4283618798696773e+00 2.2084020315855792e-02 7.8568461904528739e+00 0 0 0
467 1 8.5117107300038786e+00 4.0124612638927291e+00 1.1679491036629699e+01 0 0 0
442 1 9.0115487812420998e+00 2.1363138467433531e+00 9.7900225165052763e+00 0 0 0
323 1 9.0451115106825810e+00 4.0277074905190604e+00 8.1716108488536126e+00 0 0 0
304 1 1.0588028188668403e+01 2.1529206593639305e+00 7.7670034320755139e+00 0 0 0
469 1 1.0922447308861024e+01 3.6002975182779728e+00 9.7431416264338147e+00 0 0 0
327 1 1.2500044270960720e+01 4.0620899260716730e+00 7.9172469447082428e+00 0 0 0
446 1 1.2671492317653691e+01 2.0315426223282378e+00 1.0007908795337487e+01 0 0 0
448 1 1.0229880933729181e+01 2.0032873014224064e+00 1.1907113201691077e+01 0 0 0
471 1 1.2524789318508883e+01 3.9822580125432232e+00 1.1879372564339294e+01 0 0 0
447 1 1.2070323268764730e+01 5.1693636788324016e-01 1.1769434718408306e+01 0 0 0
445 1 1.0457092467670558e+01 1.1619547547764950e-01 9.8800309029995983e+00 0 0 0
299 1 8.9673898357700601e+00 4.5737198502444815e-02 8.0865621897602686e+00 0 0 0
331 1 1.6197888393054306e+01 3.8093645572218775e+00 8.1211143425201744e+00 0 0 0
308 1 1.4346709475810606e+01 2.1524829151256846e+00 8.4383018850560418e+00 0 0 0
473 1 1.4336667937521694e+01 3.9507180088445373e+00 1.0407370656263446e+01 0 0 0
450 1 1.6174799026531051e+01 1.9310042377397478e+00 1.0076252703867302e+01 0 0 0
475 1 1.6082193569639696e+01 3.9468925653742559e+00 1.1739402676225653e+01 0 0 0
452 1 1.4302344024122714e+01 2.0826785687524065e+00 1.1988134462627814e+01 0 0 0
449 1 1.4295348362340144e+01 4.4292841690250284e-01 1.0160403618001835e+01 0 0 0
451 1 1.6101203734845228e+01 3.4921407251624093e-01 1.1953404170309874e+01 0 0 0
436 1 2.1210954717767443e+01 1.6982345745965375e+00 1.1686869333354441e+01 -1 0 0
292 1 3.3644864778942635e-01 1.8310650226189749e+00 7.9203735089553380e+00 0 0 0
433 1 1.4456265020651166e-01 1.8554838755018466e-01 9.9740580318451197e+00 0 0 0
457 1 2.1550378288904964e-01 3.6459506776983939e+00 9.9528307924664201e+00 0 0 0
335 1 1.9462872159550390e+01 3.4879927904714556e+00 8.1758950675183080e+00 0 0 0
312 1 1.7734703053443315e+01 1.8379143535084899e+00 8.2703084145327086e+00 0 0 0
454 1 1.9669262725737003e+01 1.5004572842416857e+00 9.7533887671218480e+00 0 0 0
477 1 1.7837400780284749e+01 3.9239683937620691e+00 9.7379560939051739e+00 0 0 0