LAMMPS data file via write_data, version 19 Mar 2020, timestep = 100000

1728 atoms
1 atom types

0.0000000000000000e+00 2.1263999999999999e+01 xlo xhi
0.0000000000000000e+00 2.1263999999999999e+01 ylo yhi
-3.2876385425941415e+00 4.5815638542595210e+01 zlo zhi

Masses

1 58.933

Atoms # atomic

2 1 1.8828372807580152e+00 1.8718770864632528e+00 -2.4263259332740175e+00 0 0 0
7 1 3.7689037236959049e+00 3.2738422111640642e+00 -2.6265122242682422e+00 0 0 0
266 1 2.2391113403952114e+00 3.3965715798683926e+00 -7.4245925081139008e-01 0 1 0
98 1 2.7884541846358657e-01 1.9187115739445335e-01 5.2458232160035845e-01 0 1 0
1593 1 4.1688550163915412e+00 1.0479772102857252e+00 -2.9797603750261374e+00 0 0 1
11 1 4.3181574788197015e+00 1.2456483939870644e+00 -2.8043193955730272e-01 0 0 0
271 1 6.2020979125824827e+00 2.5604627554914172e+00 -1.8563518610933858e+00 0 1 0
126 1 8.1805243915259673e+00 2.0248170199832871e+00 -9.2519725816739840e-01 0 1 0
1699 1 7.9035095752996112e+00 1.5237280260675161e+00 -3.2202984893361575e+00 0 1 1
108 1 7.0954183715192904e+00 4.9247995215894158e-01 1.8409466036647704e-01 0 1 0
1580 1 6.0186388917165266e+00 2.6903929091758783e+00 7.1241784382664264e-01 0 1 1
1456 1 6.3665132761198926e+00 2.2283347683056789e-01 -2.2825042218879341e+00 0 0 1
1595 1 9.9185445264469259e+00 1.4872975201982183e-01 7.5075852578896107e-01 0 0 1
33 1 1.2738569630948705e+01 3.8348696746437866e-01 -2.2212149037005551e+00 0 0 0
1673 1 1.0345650108188199e+01 9.2512525750508956e-01 -2.4212151096950612e+00 0 0 1
322 1 1.1595179539418133e+01 3.1125834192376889e+00 -7.5865305257157400e-01 0 0 0
84 1 9.0086800834909191e+00 4.1741143915990628e+00 -2.3466541385813988e-01 0 0 0
1645 1 9.6055833166457507e+00 3.4373641430841997e+00 -2.5440625591562203e+00 0 0 1
181 1 1.2280196235028507e+01 2.8003760085451614e+00 -2.9606764576709992e+00 0 0 0
1604 1 1.4962693860532331e+01 4.1234418524244626e-01 -8.2114941534518993e-01 0 0 1
189 1 1.6949386530791756e+01 1.6736575671178919e+00 2.2666784822862196e-01 0 0 0
1630 1 1.5053050744668463e+01 3.0861580716333537e+00 -1.1612151396182453e+00 0 0 1
66 1 1.3409277564574472e+01 1.8323573494711083e+00 6.4750999041207180e-02 0 0 0
3 1 2.1059725676878731e+01 2.2866181743846328e+00 -5.1905412694127184e-01 -1 0 0
265 1 1.8605795810273214e+01 1.5754046168198454e+00 -1.4162602500210018e+00 -1 1 0
1632 1 1.7356696289070904e+01 3.7238131712237350e+00 -1.5969460535880751e+00 0 0 1
39 1 1.9195077365174438e+01 4.1435788950507071e+00 -2.7420201431743418e-01 -1 0 0
121 1 1.9628539633996123e+01 3.0172183352465018e+00 -2.9348114602750686e+00 -1 1 0
34 1 9.4059576033540537e-02 4.3940675608607460e+00 -1.5181279702975450e+00 0 0 0
32 1 3.6099089969226816e-01 4.5139987804336315e+00 7.9334990542450878e-01 0 0 0
37 1 2.2574861368731143e+00 5.1898876374950342e+00 -2.0332787933846208e+00 0 0 0
173 1 1.5157198306158362e+00 7.1243101199736731e+00 -4.0283389524729829e-01 0 0 0
292 1 3.2868136013920046e+00 5.8205391809089697e+00 5.8143925546760089e-01 0 0 0
156 1 4.6477112283669388e+00 4.2887142013814108e+00 -4.0921050497702671e-01 0 0 0
55 1 4.7001628915063254e+00 6.9652430451162841e+00 -1.0889040218727803e+00 0 0 0
232 1 7.0186658186575475e+00 5.7692875867639586e+00 -1.1846871542154083e+00 0 0 0
253 1 6.5809336977182777e+00 8.0760139641307109e+00 -5.6815190503852087e-02 0 0 0
79 1 6.3685000018459128e+00 7.2229059802449775e+00 -2.4899731301575221e+00 0 0 0
1596 1 5.0853664192212333e+00 5.0046322968400458e+00 -2.9232689875857152e+00 0 0 1
202 1 9.4870286754490287e+00 6.5277664874024151e+00 -2.0254941330627432e+00 0 0 0
255 1 1.1137912357621849e+01 7.0205208518697422e+00 1.5987228699388467e-01 0 0 0
88 1 1.1393356099160096e+01 5.3225814656853405e+00 -1.3335711955593579e+00 0 0 0
354 1 1.0694544060250353e+01 8.2655926557674491e+00 -2.2695583920391851e+00 0 0 0
231 1 8.5753147418291178e+00 6.5621227947084551e+00 6.1661407733998308e-01 0 0 0
209 1 1.3216505264672138e+01 8.1706668343982862e+00 3.6623378476706359e-01 0 0 0
205 1 1.3313927646512591e+01 4.7777199985704923e+00 -3.0152176847685386e-01 0 0 0
92 1 1.6381999089634849e+01 7.5772251331156939e+00 3.4071066268106343e-01 0 0 0
67 1 1.3490571792682680e+01 4.7325227008343571e+00 -2.3873695712384775e+00 0 0 0
53 1 1.5388389644403048e+01 5.9948454984190205e+00 -1.3926751169490026e+00 -1 0 0
71 1 1.5999784221271762e+01 7.9534449098272546e+00 -2.2593788427841357e+00 0 0 0
1503 1 1.3009034655215556e+01 6.9340670936448241e+00 -1.4931977058301509e+00 0 0 1
1612 1 1.7874064574247207e+01 6.6106669603529866e+00 -1.4595150495137470e+00 -1 0 1
174 1 2.0107693586622347e+01 6.4737435661093068e+00 5.4399924191174254e-01 -1 0 0
1685 1 1.9075711163339484e+01 5.2958387369474353e+00 -2.9121439492048795e+00 -1 0 1
94 1 2.0193290736150114e+01 7.2122893080953370e+00 -2.1682269886779215e+00 0 0 0
50 1 8.0488714785509885e-01 8.9257731471990400e+00 -1.7738244802814209e+00 0 0 0
198 1 3.2216932590071572e+00 9.1575966442397263e+00 -2.1785023927145621e+00 0 0 0
56 1 2.1432648749113783e+00 1.1604119738679517e+01 -1.5803552568159649e+00 0 0 0
200 1 3.8544270590754626e+00 1.1077687628638250e+01 3.4403134349007480e-01 0 0 0
54 1 3.6214643384564558e+00 8.5615629299195213e+00 2.0115703146107755e-01 0 0 0
197 1 1.7313671439707625e+00 9.7152679617295394e+00 4.0571671168466272e-01 0 0 0
99 1 3.1510169408404665e-01 1.0790653486575914e+01 -2.8978907435400476e+00 0 0 0
221 1 4.5027604368503003e+00 1.1834939874934127e+01 -1.3916361723593216e+00 0 0 0
241 1 5.4427164050473227e+00 9.6517868110873550e+00 -1.7420877436069075e+00 0 0 0
103 1 7.3862652467624903e+00 1.0765274325743995e+01 -1.2643770227743527e+00 0 0 0
38 1 8.4201353286599598e+00 8.5856146825781430e+00 -1.8357706233662769e+00 0 0 0
81 1 6.6334420482308767e+00 1.2032320041007026e+01 -3.1315816699513226e+00 0 0 0
91 1 1.1815042425439142e+01 9.7772424568471230e+00 -9.4229348449637795e-01 0 0 0
229 1 9.5521930092837835e+00 1.1529653673198597e+01 -5.5113755788953478e-01 0 0 0
378 1 1.1923245205425292e+01 1.2154447702096475e+01 -4.6552109033130584e-01 0 0 0
62 1 1.0093506759823546e+01 1.0504319681307249e+01 -2.9885872834787128e+00 0 0 0
135 1 1.4655122700762032e+01 9.2389289950367655e+00 -1.1870793352309033e+00 0 0 0
1680 1 1.6149001370238491e+01 9.7452678586000054e+00 5.1355614676242345e-01 0 0 1
240 1 1.4661101580725667e+01 1.1641320427591955e+01 -9.6748966476986809e-01 0 0 0
1559 1 1.5737449788579092e+01 1.2249743464958859e+01 -2.8284777230460514e+00 0 0 1
245 1 1.6725567308284351e+01 1.2303671844455751e+01 -5.2445514859186870e-01 -1 0 0
226 1 1.3167806770598023e+01 9.0929142841499804e+00 -2.8761343659466179e+00 0 0 0
261 1 1.3740191703672693e+01 1.0804477435942497e+01 6.9750436659003912e-01 0 0 0
96 1 1.3172932786425452e+01 1.1668528618035452e+01 -3.2221760111920048e+00 0 0 0
74 1 1.9074211949503297e+01 1.1871934219853216e+01 -2.2914700714077139e+00 -1 0 0
193 1 1.8117462157066871e+01 8.9315420396792096e+00 -3.4178629084647216e-01 -1 0 0
1657 1 1.9328144295503183e+01 9.3359681399545860e+00 -2.2138815307226913e+00 -1 0 1
95 1 2.0782272311541966e+01 1.0356315138572141e+01 -6.7886195198707622e-01 0 0 0
111 1 1.7175576568183285e+01 9.9573901208306541e+00 -1.9498329671465084e+00 0 0 0
285 1 1.8595785079385472e+01 1.1283291535224151e+01 -1.7971839388354960e-01 0 0 0
1683 1 2.1118781281136066e+01 1.2738723564273075e+01 -1.3659338954580029e+00 -1 0 1
1543 1 3.6640489061999153e+00 1.6032804019458911e+01 -3.1462888047655282e+00 0 0 1
77 1 1.4934942097115786e+00 1.4523640677117218e+01 -2.2799360714833279e+00 0 0 0
361 1 2.1991126327567736e+00 1.6740466056874055e+01 -1.3394978570741674e+00 0 0 0
366 1 1.3200943617851204e+00 1.3908676819551848e+01 4.3393614512811141e-01 0 0 0
249 1 3.1729029996963911e+00 1.4055404480734328e+01 -5.7870460240533461e-01 0 0 0
263 1 7.6706491503779584e-01 1.6374765909946024e+01 4.6989756139546524e-01 1 0 0
251 1 3.2850703568689985e+00 1.6408030801869792e+01 7.6313493003492638e-01 0 0 0
218 1 3.7558224368658077e+00 1.3642485810536463e+01 -3.0159567508902541e+00 0 0 0
222 1 5.3481593744349354e+00 1.3829942441686519e+01 -1.1041625448149941e+00 0 0 0
110 1 8.3969755736612743e+00 1.3687718933630096e+01 -1.9197927189064565e+00 0 0 0
224 1 7.8359911040539876e+00 1.6630036129834007e+01 -2.5819605584357657e+00 0 0 0
417 1 4.8624914808994513e+00 1.6073540091745762e+01 -1.1098278006506437e+00 0 0 0
420 1 7.1362620456053678e+00 1.5692778376933465e+01 -5.8061536992364182e-01 0 0 0
78 1 6.1532248135806693e+00 1.5047496951468970e+01 -2.9590579483226378e+00 0 0 0
395 1 9.6512230478138790e+00 1.5874200802176340e+01 -1.2632964029250662e+00 0 0 0
281 1 1.0790894425471054e+01 1.3313261095340250e+01 -2.2772685062243307e+00 0 0 0
284 1 1.1923044511709467e+01 1.5148675312936369e+01 -3.3030519617260046e-01 0 0 0
254 1 9.7914107886889070e+00 1.4003893174016333e+01 2.5389158338817719e-02 0 0 0
159 1 8.7633858131973970e+00 1.6338685368011753e+01 6.8367889655231995e-01 0 -1 0
258 1 1.3414635449555641e+01 1.3590883915149067e+01 -1.6298822651714755e+00 0 0 0
259 1 1.6612636623748184e+01 1.5152314488712372e+01 -1.9144591097322321e+00 0 0 0
239 1 1.6436935417043969e+01 1.6709425461281015e+01 -4.8040699208802939e-01 0 0 0
230 1 1.5192475886337467e+01 1.4679718730006485e+01 -5.9296250217858670e-02 0 0 0
139 1 1.3941967314606504e+01 1.6091259475838328e+01 -2.9931326594701408e+00 0 0 0
101 1 2.0039504136835539e+01 1.4117254599214544e+01 -2.7883670366055977e+00 -1 0 0
223 1 2.0848529032504235e+01 1.4989240066569963e+01 -4.6932285057356227e-01 -1 0 0
104 1 2.1112727914658084e+01 1.6647324584949672e+01 -1.8439469289870944e+00 -1 0 0
287 1 1.8804112480708490e+01 1.6949354423011723e+01 -2.5626341506128814e+00 0 0 0
382 1 1.8302910734503286e+01 1.4864786289769919e+01 -1.5071781852201482e-01 0 0 0
120 1 2.0004361653918583e+01 1.2913408505201446e+01 7.2381024399309712e-01 0 0 0
1707 1 2.2105346078069368e+00 2.0655575172344758e+01 -1.2005810111627211e+00 0 0 1
123 1 6.7826693841188487e-02 2.0959232268000385e+01 -1.7889287387569206e+00 0 0 0
146 1 1.9937067157980977e+00 1.8618622291131459e+01 2.6181141194035007e-01 0 -1 0
144 1 1.2572828771503299e+00 1.8843404246155455e+01 -2.1132132691169332e+00 1 0 0
238 1 3.6100250541553365e+00 1.8705837687399995e+01 -2.9638965713488434e+00 1 0 0
129 1 4.3291941189215883e+00 1.8168966969680426e+01 -6.4345198391387104e-01 0 0 0
122 1 5.7969600945226212e+00 1.9808217756734440e+01 -1.1926319739457654e+00 0 0 0
1692 1 6.7896135197804144e+00 1.7607368026969532e+01 3.6539850914623218e-01 0 0 1
278 1 7.8694744660060847e+00 1.8933715387506329e+01 -2.1794283496714644e+00 0 0 0
157 1 6.4703045817304137e+00 1.9646577851156614e+01 7.9868915847405386e-01 0 -1 0
1716 1 5.8557010369894735e+00 1.7695638691633487e+01 -2.6022261963649185e+00 0 0 1
136 1 8.7788102842003752e+00 2.0721382855230502e+01 -1.2555215056298388e+00 0 0 0
1460 1 1.0711640126214650e+01 1.9795019240558240e+01 -2.9889826970579696e+00 0 -1 1
115 1 1.1874542183965493e+01 1.7352377825942224e+01 -2.2045899644325253e+00 0 0 0
275 1 1.1157557799693445e+01 2.0284836376957276e+01 -9.1130188461247963e-01 0 0 0
1452 1 9.7948672071243585e+00 1.8240237750513511e+01 -1.3616398303880397e+00 0 -1 1
264 1 1.1466647282728454e+01 1.7984275178271169e+01 4.3678063338241735e-01 0 0 0
16 1 1.3016497340796919e+01 1.9563882035892060e+01 -3.1480322474763152e+00 0 -1 0
18 1 1.3400755097150221e+01 1.9526285502037780e+01 -4.9501846459700038e-01 0 -1 0
154 1 1.3982897938581173e+01 1.7096704683828211e+01 -9.4368289966159402e-01 0 -1 0
282 1 1.5143321322926621e+01 1.8416177020529293e+01 5.5690330589573023e-01 0 0 0
165 1 1.5188249057861363e+01 1.9217817535902253e+01 -1.8055069406117892e+00 0 -1 0
24 1 1.6963737129061194e+01 2.0769542097317352e+01 -1.9114681363807646e+00 0 -1 0
1660 1 1.5871879653886737e+01 1.7338290685274242e+01 -2.7677159099345459e+00 -1 0 1
166 1 1.9605860550216427e+01 2.0704092774820609e+01 -2.5773143421569911e-01 0 -1 0
1684 1 2.0138615675675879e+01 1.8865957652845477e+01 -2.0115085960099530e+00 -1 0 1
97 1 1.9292646771976766e+01 1.7472532739039721e+01 1.4825687018412737e-01 -1 0 0
260 1 1.8172897978215651e+01 1.8993148222083299e+01 -1.0243226888404373e+00 0 0 0
387 1 2.1128023381963530e+01 1.8977338874005873e+01 5.2295757381861874e-01 -1 0 0
190 1 9.1125289132125742e-01 2.3984860890155004e+00 1.4831226787259446e+00 1 0 0
150 1 2.7335151034178788e+00 7.7137698670837140e-01 1.4430317539875945e+00 0 0 0
4 1 2.1953443290573151e+00 2.2623117481110038e+00 3.6827690218673315e+00 0 0 0
280 1 3.6152884519712183e+00 3.0622893607737933e+00 1.4623688979341569e+00 0 1 0
333 1 7.2271789783814433e-01 2.5682413918660102e-01 2.9495370037146964e+00 1 0 0
178 1 3.2508116538159260e+00 2.0028453673599245e-01 3.5142227198441525e+00 0 0 0
134 1 4.5033479753595662e+00 2.0116647297590640e+00 3.6982130077381798e+00 0 1 0
175 1 5.6923589910168939e+00 4.1089604178549077e+00 2.6359180067251922e+00 0 0 0
273 1 5.2968539017808052e+00 6.1370142907187675e-01 2.0194601226144240e+00 0 1 0
161 1 7.3789756069145405e+00 1.4476067229218383e+00 2.9342243077897221e+00 0 0 0
274 1 8.6266627823357993e+00 2.6010068519613103e+00 1.4829022779427126e+00 0 1 0
155 1 8.9229042432577845e+00 2.9354190071313622e+00 4.0199960584939651e+00 0 0 0
10 1 1.0928415240763844e+01 3.0194994952465173e+00 1.6581111679142788e+00 0 0 0
184 1 1.0714634552846100e+01 7.6359016904731203e-01 2.4648783169212694e+00 0 0 0
183 1 1.1425305912585086e+01 2.9139322005077859e+00 4.1588718954155945e+00 0 0 0
326 1 9.1496345535003236e+00 7.1859402496654690e-01 4.4287022703927921e+00 0 0 0
46 1 1.6992753426698709e+01 4.0170631515489372e+00 9.0047847349711585e-01 0 0 0
163 1 1.5302717641359560e+01 6.4184047087346452e-01 3.9633442031707578e+00 0 0 0
182 1 1.5365265781627135e+01 2.3538744178372251e+00 2.0952227757995079e+00 0 0 0
207 1 1.2800336877477612e+01 4.0494016695299795e+00 2.1516117209200276e+00 0 0 0
164 1 1.3117438913240912e+01 1.8733117327416893e+00 2.6461431447124069e+00 0 0 0
170 1 1.6411933944511713e+01 3.3202313531396994e+00 4.3335641833337695e+00 -1 0 0
169 1 1.7328407391018018e+01 7.3142089293963175e-01 2.6353614651693658e+00 -1 0 0
192 1 1.9425268494834260e+01 1.7788804258943582e+00 8.3748333889432125e-01 0 0 0
47 1 2.0776219888536389e+01 2.6440608695722405e+00 3.4391364653663334e+00 0 0 0
186 1 1.8430408566366083e+01 2.6632621255519759e+00 2.9064554185932003e+00 0 0 0
501 1 2.0354878893752620e+01 6.3822451877290376e-01 4.4783744198184783e+00 0 0 0
27 1 3.0941145780157464e-01 6.7274138717637948e+00 2.2819128301582747e+00 0 0 0
1 1 1.4623433630232847e+00 4.8110549135670935e+00 3.2097114825651660e+00 0 0 0
217 1 2.0464402494657459e+00 8.2311629890013336e+00 2.1921430542374400e+00 0 0 0
219 1 2.4916607252615117e+00 7.3266766476723797e+00 4.6007985359028503e+00 0 0 0
12 1 3.7203476891467129e+00 5.2067658660281610e+00 2.8353660080336116e+00 0 0 0
505 1 1.7312268289235000e-01 7.5721688768564883e+00 4.3078391488553516e+00 0 0 0
177 1 6.9824114368438934e+00 4.4956283088582030e+00 8.1196553462363230e-01 0 0 0
225 1 4.7063125419275975e+00 7.4030091222598022e+00 4.3295922838475267e+00 0 0 0
201 1 5.2762892285099623e+00 6.1548202393949527e+00 1.4007086949624812e+00 0 0 0
206 1 8.4022550295582672e+00 4.9651730659580968e+00 2.5770014814296633e+00 0 0 0
513 1 6.1023243064919637e+00 5.7090940147200282e+00 4.3013898767833751e+00 0 0 0
514 1 8.4833725651435508e+00 6.8913600671175326e+00 4.1487163389800452e+00 0 0 0
227 1 6.9996549689035019e+00 7.5854082388292072e+00 2.3624137865425023e+00 0 0 0
199 1 1.0449302507061184e+01 5.1975792726353802e+00 1.1301004270875579e+00 0 0 0
515 1 1.0915548323990253e+01 5.2812229932219017e+00 3.3718934141414145e+00 0 0 0
203 1 1.0114016750463660e+01 7.1184098341111479e+00 2.5387596460697308e+00 0 0 0
236 1 1.2516862770294644e+01 8.4211171438741719e+00 3.2172551699762408e+00 0 0 0
349 1 1.0991996067321042e+01 7.0941876186048507e+00 4.8539133664711009e+00 0 0 0
188 1 1.4983316885356809e+01 4.6956229239054732e+00 1.0375851932741238e+00 0 0 0
68 1 1.5307941417680604e+01 4.7920311872700649e+00 3.2802972166800188e+00 0 0 0
376 1 1.3123807815980749e+01 6.2918152299922809e+00 1.7827244355687197e+00 0 0 0
214 1 1.5456929281603777e+01 6.9713686408210815e+00 2.5353713694926521e+00 0 0 0
213 1 1.3296728748773301e+01 6.2297989390450166e+00 4.1742548416451797e+00 0 0 0
43 1 1.7690580391454191e+01 5.5693881946313182e+00 3.4034815162169387e+00 0 0 0
8 1 2.0419892439096422e+01 5.5823390002857423e+00 4.4277905513296032e+00 -1 0 0
76 1 1.7766153351521666e+01 6.0772797764627224e+00 1.1642383535421263e+00 -1 0 0
210 1 1.7680799286178686e+01 7.2729857675526803e+00 4.7903943141775454e+00 0 0 0
70 1 1.9356541625344150e+01 7.4057630826203455e+00 2.8503706882411253e+00 0 0 0
128 1 1.9550466950103267e+01 4.3725573962697739e+00 2.0936555241480113e+00 -1 1 0
72 1 1.7397836708789985e+01 8.4377397033199912e+00 2.2911285553183376e+00 0 0 0
365 1 6.2964265042214496e-01 1.1564720467742973e+01 1.3959334689980549e+00 0 0 0
368 1 9.4044255562353130e-01 1.2378295444816537e+01 3.9175933946491419e+00 0 0 0
35 1 2.5093131889545219e+00 1.0785564455336337e+01 2.6583755976041274e+00 0 0 0
344 1 6.2599560846334468e-01 1.0158789246939724e+01 3.8835746415408510e+00 0 0 0
391 1 3.9728075415337352e+00 1.2056623192797019e+01 3.7411065284949920e+00 0 0 0
313 1 4.6663481438895396e+00 8.5228648603223487e+00 2.0192338573160891e+00 0 0 0
228 1 6.2080329910423524e+00 1.1516591835193092e+01 3.4995849734447351e+00 0 0 0
367 1 6.1109139029904709e+00 1.0127281885278226e+01 1.0278103065591386e+00 0 0 0
397 1 8.1855352872705929e+00 9.4474794700729170e+00 3.1020395338582301e+00 0 0 0
352 1 8.4610736729177898e+00 1.1564595666200052e+01 3.7065663798572990e+00 0 0 0
252 1 5.3902332687732954e+00 1.2389334905526439e+01 1.2381510035809455e+00 0 0 0
369 1 7.9485572029573053e+00 1.1485036522114171e+01 9.7830754694166711e-01 0 0 0
492 1 4.2809106053767465e+00 9.7789714219354789e+00 4.0996339950282552e+00 0 0 0
242 1 6.4987352113319456e+00 9.4969614966350360e+00 4.8625916132751836e+00 0 0 0
373 1 8.9467626485274874e+00 9.2303920499963805e+00 8.5827503717397224e-01 0 0 0
408 1 1.2428023700049820e+01 1.0877200640132500e+01 3.2541597254923440e+00 0 0 0
630 1 1.0502167297692116e+01 9.4523145231003376e+00 3.9419947424059583e+00 0 0 0
394 1 1.0487647913167464e+01 1.1531325895756522e+01 2.0035603209577815e+00 0 0 0
235 1 1.1122503229939396e+01 9.4347585183496587e+00 1.7107216363371043e+00 0 0 0
208 1 1.4816168024397637e+01 9.2560159962286299e+00 2.1839189177179898e+00 0 0 0
63 1 1.4675841152091737e+01 8.8886825927895856e+00 4.4383218906360842e+00 0 0 0
358 1 1.4512408901486619e+01 1.1544139902941595e+01 2.9959286454267495e+00 0 0 0
196 1 1.6912433638285826e+01 9.5715517864606756e+00 4.8612492003579462e+00 -1 0 0
237 1 2.0844081690399072e+01 8.5153175329158977e+00 8.1085178956519854e-01 0 0 0
315 1 1.9852489501826636e+01 1.0074145865741311e+01 2.1934059792974372e+00 -1 0 0
194 1 1.9382303541599320e+01 9.2296621184762504e+00 4.1619382115038785e+00 -1 0 0
383 1 1.7586019185707542e+01 1.1036680110489892e+01 2.1622839142722814e+00 0 0 0
430 1 1.9776347361054732e+01 1.2348993770455856e+01 3.0605839692013710e+00 0 0 0
119 1 3.0893505256793055e+00 1.3990229270823095e+01 2.0665822576010093e+00 1 0 0
386 1 2.4535361995434681e+00 1.4140499284048639e+01 4.5149725555144844e+00 0 0 0
413 1 1.5983610447796510e+00 1.5894878051020529e+01 2.7125431875061814e+00 0 0 0
220 1 8.9670751825362785e-02 1.5806132899789329e+01 4.5104333513067916e+00 0 0 0
277 1 5.2601272407211397e+00 1.5018542538554650e+01 1.2796634738438595e+00 0 0 0
246 1 6.8901298579468957e+00 1.6274851387672857e+01 2.3963428950017116e+00 0 0 0
112 1 7.3918145599665879e+00 1.3729899651208404e+01 8.2271039849262362e-01 0 0 0
132 1 4.2933994779919065e+00 1.5672967324060142e+01 3.4013848391629811e+00 0 0 0
247 1 6.6900767197106434e+00 1.4112452846739004e+01 3.0902310012431427e+00 0 0 0
423 1 6.3716796637591600e+00 1.6959915458562918e+01 4.8284733613605884e+00 0 0 0
393 1 9.2707895669780864e+00 1.3348685551657162e+01 2.4148985535175207e+00 0 0 0
398 1 1.0703404948056015e+01 1.5005191829462188e+01 4.2339759213722923e+00 0 0 0
279 1 1.1422425230192511e+01 1.3605877760421516e+01 2.6258689994984721e+00 0 0 0
400 1 8.9295922951749684e+00 1.5639383197228280e+01 2.9838384532932984e+00 0 0 0
401 1 1.1058771895751036e+01 1.5643917288360933e+01 1.5408039710057251e+00 0 0 0
256 1 8.8304347471334985e+00 1.3361248974224512e+01 4.8950105306366662e+00 0 0 0
257 1 1.5343967041752007e+01 1.2805279682536884e+01 1.3079427351223885e+00 0 0 0
234 1 1.3208959095200766e+01 1.3579821940143558e+01 1.4150033919193454e+00 0 0 0
432 1 1.6252513431537061e+01 1.5269040966903193e+01 2.0447685957639816e+00 0 0 0
384 1 1.3307710665150966e+01 1.3173530112566350e+01 4.1812641519613933e+00 0 0 0
116 1 1.6393079182016553e+01 1.2849337095592329e+01 3.5604991505435590e+00 0 0 0
428 1 1.3864434859340967e+01 1.6313969390173572e+01 1.0612125472651259e+00 0 0 0
370 1 1.2808890791890141e+01 1.5305352157275818e+01 3.4344538001952509e+00 0 0 0
525 1 1.5038242394395276e+01 1.4886619272488092e+01 4.1707337431749281e+00 0 0 0
244 1 2.0938549113627349e+01 1.4674608603500179e+01 2.2208513378883339e+00 -1 0 0
75 1 1.8047086393463580e+01 1.3263771351951588e+01 1.3875381995949496e+00 -1 0 0
248 1 1.8903484241692354e+01 1.5806507467989409e+01 2.2238093514676516e+00 -1 0 0
389 1 1.7268093823758885e+01 1.6347765385113647e+01 3.8443773477878533e+00 -1 0 0
527 1 1.8855340600142807e+01 1.4343366461361487e+01 3.9905464725297008e+00 0 0 0
127 1 3.4880392270643665e+00 1.7732351247444740e+01 3.0232899906867843e+00 0 0 0
250 1 3.9214391082609210e+00 1.9946279103144317e+01 1.2370919924330464e+00 0 0 0
148 1 1.5968931546518133e+00 1.9497336708804163e+01 2.5787046517589376e+00 0 -1 0
267 1 1.2664842315464113e+00 1.8292763916950769e+01 4.4900395104145865e+00 0 0 0
390 1 5.2451793400924291e+00 1.7825944372893165e+01 1.6677983976516719e+00 0 0 0
297 1 7.4033402621829465e+00 2.0024168458596581e+01 4.5178024038570186e+00 0 -1 0
151 1 5.3253430824385246e+00 1.9541712347293252e+01 3.4175980443858576e+00 0 -1 0
301 1 8.4221338958549996e+00 2.0609268634276432e+01 2.4167888642526671e+00 0 -1 0
418 1 7.2906738751074798e+00 1.8437104682345051e+01 2.7363601912050273e+00 0 0 0
298 1 9.0732658173888971e+00 1.8971009327418713e+01 9.2258471282241672e-01 0 -1 0
20 1 1.2241684538664622e+01 2.1232808121918033e+01 1.2348009096411614e+00 0 -1 0
276 1 9.7682200156024113e+00 1.7643821937393472e+01 2.8875273069544516e+00 0 0 0
17 1 1.1030276100319005e+01 1.9643289704648652e+01 2.0785442352109795e+00 0 -1 0
445 1 1.2517900028659636e+01 2.1003479547764236e+01 3.7426224820210470e+00 0 -1 0
299 1 1.1955183265212339e+01 1.7751111425064138e+01 3.5899422781555437e+00 0 -1 0
330 1 1.0256713465421507e+01 1.9613771423899443e+01 4.3137738837613577e+00 0 -1 0
19 1 1.5182037956599439e+01 2.1069971683344082e+01 1.3378810820488161e+00 0 -1 0
431 1 1.6917725976094239e+01 1.7891239711746771e+01 1.7093230683337790e+00 0 0 0
405 1 1.3563560813827838e+01 1.9663763675490681e+01 2.4147371240130129e+00 0 0 0
288 1 1.5827615017933086e+01 1.9671675793482450e+01 3.1516456833177866e+00 0 0 0
309 1 1.4829300587409602e+01 1.7209596042700035e+01 3.5802531550285259e+00 0 -1 0
167 1 2.0001108778453435e+01 2.0993538011033149e+01 2.0951313354363768e+00 0 -1 0
310 1 2.0975993435507977e+01 1.7346501513361982e+01 2.2851112108326896e+00 0 -1 0
158 1 1.7763608405607034e+01 2.0181010844399953e+01 8.2956214721222210e-01 0 -1 0
406 1 1.8336059589077703e+01 2.0448251593138778e+01 4.4000715978914062e+00 0 0 0
286 1 1.8856091472414938e+01 1.8439273025167349e+01 2.8899089072093318e+00 0 0 0
477 1 2.0624667459696077e+01 1.9609435168919827e+01 3.6880751814387089e+00 0 -1 0
283 1 1.9913415394221843e+01 1.7555854206535926e+01 4.6127511646446724e+00 0 0 0
195 1 4.7572273536795806e-01 2.3010272046161466e+00 5.1524716079015480e+00 0 0 0
31 1 3.3195704803828949e+00 1.4711868353962478e+00 8.0520462452650747e+00 0 0 0
312 1 1.0109999656972830e+00 7.5694143418392734e-01 6.7936401529398456e+00 1 0 0
434 1 2.9357611203406169e+00 3.2224921012182417e+00 6.7118692022500763e+00 0 0 0
460 1 5.3893363232832792e-01 3.5729929867971224e+00 7.4178092148841888e+00 0 0 0
270 1 3.2460782585359844e+00 9.8690866244515374e-01 5.9379686945131365e+00 0 1 0
346 1 6.4209091758609738e+00 2.6084305666197940e+00 4.9919163495045709e+00 0 0 0
153 1 5.4915664616205335e+00 2.0372765830752706e+00 6.9153280612539749e+00 0 0 0
375 1 8.2256319650459808e+00 3.6047955085464398e+00 6.7424254748315153e+00 0 0 0
347 1 7.3833202190426013e+00 1.7382556208416827e-01 6.6278119726886775e+00 0 0 0
293 1 5.4275550144257192e+00 1.7805701654901895e-01 4.9406047580194734e+00 0 0 0
582 1 7.0559224257152762e+00 1.8584821030038214e+00 8.4323699712619913e+00 0 0 0
318 1 5.1006661717556776e+00 4.1870759365602837e+00 7.9304241886792024e+00 0 0 0
328 1 1.1173080793805033e+01 4.3313958923085744e-01 5.5697226824791990e+00 0 0 0
317 1 1.0338666850911387e+01 2.6945747138368570e+00 8.8706772487994936e+00 0 0 0
294 1 9.3139962166077570e+00 2.0419089294208472e+00 6.3632865977877877e+00 0 0 0
438 1 1.1186764013434804e+01 3.9496563998631218e-01 8.1932508955029952e+00 0 0 0
187 1 1.1956595219058507e+01 2.3585476851353921e+00 7.0735064202962743e+00 0 0 0
465 1 9.0507203360114499e+00 4.2069113007019160e-01 8.6890218394542309e+00 0 0 0
300 1 1.3337118436187779e+01 2.8104235217702325e+00 8.8940338102557597e+00 0 0 0
332 1 1.3387361080593839e+01 1.3763254187272551e+00 5.0403022455096700e+00 0 0 0
424 1 1.5810562262525295e+01 2.1239750183174282e+00 8.8303789187403989e+00 0 1 0
472 1 1.5648869304684968e+01 1.5311990485713253e-01 6.2140705505736396e+00 0 0 0
470 1 1.4991337568932684e+01 2.2972833563883106e+00 6.5842506350654002e+00 0 0 0
306 1 1.3662371097959358e+01 7.1463367904374653e-01 7.8606122958577789e+00 0 0 0
185 1 1.3599954359027484e+01 3.7816992047692422e+00 5.0030705479023023e+00 0 0 0
191 1 1.8159668829353723e+01 1.5206639147354963e+00 5.1476350321995881e+00 0 0 0
22 1 1.9080718417399211e+01 3.4798403262836657e+00 5.0859865774317683e+00 0 0 0
215 1 1.9377577792313343e+01 3.3260210748677257e+00 7.1691904312159256e+00 0 0 0
503 1 1.7818137735546379e+01 1.2088277033803743e+00 7.7083537743955830e+00 0 0 0
639 1 1.7050723607811527e+01 3.7878503104310233e+00 6.9645271294091806e+00 0 0 0
320 1 2.0007453019820108e+01 6.5857712711504202e-01 7.2084226315161679e+00 -1 0 0
359 1 1.5884394090249327e+00 5.0718433293271650e+00 5.5004961202316345e+00 1 0 0
60 1 4.0401730959114648e+00 4.2704094649630946e+00 4.9710981876371161e+00 0 0 0
337 1 7.0397199822084000e-01 7.1138407851382341e+00 6.5666733752650224e+00 0 0 0
171 1 4.0834730373927739e+00 6.6096087598034226e+00 6.5720384709193223e+00 0 0 0
341 1 2.2990573244352674e+00 5.5607516741320202e+00 7.6334231444717648e+00 0 0 0
314 1 2.3329036583133536e+00 7.9280251254275420e+00 8.1485391551738449e+00 0 0 0
339 1 1.0021308775918210e-01 5.6078313101775175e+00 8.7747737466673303e+00 0 0 0
342 1 4.6374551841769964e+00 7.6020792593970823e+00 8.8145941675114816e+00 0 0 0
204 1 6.4776304099501303e+00 7.3551560592666521e+00 6.4543823777916849e+00 0 0 0
290 1 6.3728738345011582e+00 4.8712001329096406e+00 6.3911000590260105e+00 0 0 0
348 1 7.6117170679174153e+00 7.6723049317270338e+00 8.2581758799060871e+00 0 0 0
485 1 7.2491523244542702e+00 5.5758387876578741e+00 8.2084301922036342e+00 0 0 0
160 1 1.0576333151552577e+01 4.4570907557700412e+00 5.7059214082364651e+00 0 0 0
324 1 9.0377373712610769e+00 6.2213383591778335e+00 6.5751779238010801e+00 0 0 0
371 1 1.2367704395832273e+01 4.8258171290273602e+00 6.9235325192544845e+00 0 0 0
441 1 1.0275219459397174e+01 5.1762435945403036e+00 8.1514392197339127e+00 0 0 0
443 1 1.0520472608030229e+01 8.0647310145798041e+00 7.7443381445981494e+00 0 0 0
497 1 1.2750838319878326e+01 8.0206514527455557e+00 8.6979898847269794e+00 0 0 0
87 1 1.5685343033370241e+01 5.9130186011909025e+00 5.3891755224490936e+00 0 0 0
329 1 1.5037085525347505e+01 4.4448299598890380e+00 7.2950420044568887e+00 0 0 0
473 1 1.3799011175194762e+01 6.7569216104752599e+00 6.9431478126296877e+00 0 0 0
59 1 1.5914711741427555e+01 6.4910262743546374e+00 8.2553309679825819e+00 0 0 0
404 1 1.2813307342438618e+01 8.2577888965501156e+00 5.9075516803152617e+00 0 0 0
474 1 1.5984377767284776e+01 8.0587082278814410e+00 6.3404665051001263e+00 0 0 0
327 1 2.0430432623845466e+01 5.4527477865765626e+00 6.7026210671615747e+00 0 0 0
211 1 1.8158803676099929e+01 5.5924420013985285e+00 6.0024737934643841e+00 0 0 0
48 1 1.9581419966236112e+01 7.5277785739169323e+00 6.0101159976504039e+00 0 0 0
504 1 1.9807321466213729e+01 7.7998228361672552e+00 8.2550870873576905e+00 0 0 0
641 1 1.7659701156986852e+01 7.7469670600336444e+00 7.7955404631160938e+00 0 0 0
628 1 1.8059932686976904e+01 5.4957033970692795e+00 8.2654279178439332e+00 -1 0 0
550 1 2.0624877340027870e+00 1.1990364337863392e+01 6.1570383746790345e+00 1 0 0
362 1 2.0310939287233127e+00 9.6140371475352726e+00 5.6300313223856957e+00 0 0 0
575 1 3.3064402620222215e+00 1.0211644822809090e+01 8.4268666269222514e+00 1 0 0
697 1 1.6834317626726996e+00 1.2464638885276266e+01 8.5213506639027656e+00 0 0 0
180 1 8.2921535936295978e+00 8.5593869815386565e+00 6.0878372402615302e+00 0 0 0
343 1 4.7998189454169831e+00 9.0150147326054313e+00 6.4251316356930648e+00 0 0 0
493 1 4.6105746819802524e+00 1.1383704349801713e+01 5.8750455273922295e+00 0 0 0
486 1 7.5388931986098076e+00 1.1897015483941523e+01 8.3596877513761854e+00 0 0 0
542 1 6.6608202045944509e+00 1.2412150330429986e+01 5.9439103395629740e+00 0 0 0
533 1 5.4502714165198336e+00 1.2745272689271156e+01 8.2420121084419513e+00 0 0 0
516 1 6.6634643587917850e+00 1.0227992306596697e+01 6.9930309228006653e+00 0 0 0
466 1 8.8305115974840209e+00 1.0723632958641440e+01 5.7750784653862919e+00 0 0 0
399 1 1.0956253983121282e+01 1.0217581321219903e+01 6.3149888044113300e+00 0 0 0
569 1 8.9861372346330359e+00 9.8781330105296892e+00 8.2321905707409346e+00 0 0 0
520 1 1.2224393931780313e+01 1.0742316297340945e+01 8.2883287588795032e+00 0 0 0
377 1 1.1005646014064764e+01 1.2640987658555286e+01 5.4969902645129913e+00 0 0 0