LAMMPS data file via write_data, version 19 Mar 2020, timestep = 100000

1728 atoms
1 atom types

0.0000000000000000e+00 2.1263999999999999e+01 xlo xhi
0.0000000000000000e+00 2.1263999999999999e+01 ylo yhi
-3.3441414124149098e+00 4.5872141412413711e+01 zlo zhi

Masses

1 58.933

Atoms # atomic

1195 1 2.2803953170768225e+00 2.0001906812463375e+00 1.9848279320010365e-01 1 0 1
285 1 6.3140163260940838e-02 2.8226192144053210e+00 7.1276820272598140e-01 1 1 0
145 1 5.9083090873954347e-01 9.8851124980183924e-01 -1.0869250650418798e+00 0 0 0
1645 1 1.8697482261585598e+00 3.9023156315194290e+00 -1.0130037657041262e+00 0 0 1
152 1 4.0114304347046321e+00 3.4253581916533609e+00 1.2015459184991251e-02 1 0 0
630 1 2.0664887455011631e+00 2.1158806445221088e+00 -2.6438882334277340e+00 0 1 0
1273 1 7.4048521611657914e-01 3.6317639908624670e+00 -3.2368511906747415e+00 0 0 1
1580 1 5.9902660669098298e+00 3.7876136360585688e-01 -1.0891038857652870e+00 1 1 1
163 1 6.1003912137392788e+00 2.8582137101811051e+00 -8.9351388338474935e-01 0 0 0
572 1 4.2963748295948410e+00 1.8555153130236366e+00 -2.0823769899926874e+00 1 1 0
1372 1 8.0210073064739724e+00 1.2596006754598335e+00 -3.5524071763232801e-01 1 0 1
447 1 7.4904630539022738e+00 7.1788999937479914e-01 -2.7992347532282897e+00 1 -1 0
417 1 7.4589896265415456e+00 2.8195336720126094e+00 -2.7592959200452123e+00 -1 1 0
1129 1 1.1184390653955932e+01 3.9134587358631818e+00 -2.8515897023895143e-01 0 1 1
50 1 8.5695296755209736e+00 3.9992700316542189e+00 -1.0041894719518556e+00 0 0 0
553 1 9.7029242524126982e+00 2.1101230691908106e+00 -1.6173845920133700e+00 -1 1 0
46 1 1.2101565028222437e+01 1.6684870780812586e+00 -1.9626210498002541e+00 1 1 0
241 1 1.0855626110084140e+01 3.6630416293776582e+00 -2.9340393830490856e+00 0 1 0
1482 1 1.3635167237287831e+01 3.0901028691815942e+00 -2.5215086302676437e+00 0 1 1
57 1 1.3783590295732239e+01 2.1088229124676223e+00 -2.0624624357401578e-01 -1 0 0
1572 1 1.4666830243723512e+01 5.5501693118903062e-01 -2.3691182340303722e+00 0 1 1
540 1 1.5906732430535309e+01 2.5344051828580669e+00 -1.3505565765704564e+00 -1 1 0
1558 1 2.0197384589492433e+01 4.0034308259160012e-01 6.2665872215982121e-01 0 1 1
389 1 1.9436178003579830e+01 2.3872601119633723e+00 -6.8300025700282552e-01 -1 1 0
322 1 2.0381035043287085e+01 1.8272927789688322e+00 -3.0182262826020447e+00 -1 1 0
1623 1 2.0108514808004841e+01 4.1902802490125932e+00 -2.1189464972119860e+00 0 1 1
556 1 1.9093648012552912e+01 8.2583818851289237e-02 -1.6759466082650898e+00 -1 1 0
396 1 1.7829534039384516e+01 2.7877583811045552e+00 -2.5608287222949047e+00 0 1 0
564 1 9.3991218523556308e-01 5.6758736759756889e+00 4.8146616589955782e-01 0 1 0
1610 1 2.1519850450988636e+00 6.5094567891528561e+00 -2.7189034233869895e+00 1 1 1
1220 1 3.2848388871105056e+00 5.5545075373559323e+00 -7.6518646059188411e-01 1 1 1
1695 1 3.5434965113373011e+00 8.2634853814554674e+00 -2.1775783399267312e+00 0 1 1
663 1 1.7332298283437961e+00 8.0804308495871631e+00 3.1097236133211670e-01 0 0 0
635 1 3.3113901657364382e+00 4.4175266654174310e+00 -3.0229450255898107e+00 1 1 0
522 1 5.1239730562480066e+00 4.6280257480210896e+00 -2.0545668860947051e+00 1 1 0
111 1 6.0403743355268640e+00 4.9818448585758501e+00 2.4348331183279948e-01 0 0 0
138 1 7.0974494707304991e+00 5.3676605102957744e+00 -2.8173280501643108e+00 1 0 0
1378 1 5.2889397341585607e+00 7.0303619276990847e+00 -9.9681760195760871e-01 0 0 1
681 1 8.1391594324526668e+00 6.8350171573412704e+00 -1.0799350110421555e+00 0 1 0
1574 1 1.2182896557581342e+01 5.8523652273358460e+00 -1.8441476645390882e+00 0 1 1
1618 1 8.7522689405195688e+00 8.1339119311329586e+00 6.8633065641026914e-01 0 0 1
18 1 1.0056477874799317e+01 6.0574196179679998e+00 -1.1600387779728338e-01 1 0 0
1458 1 1.1646427501758158e+01 7.8020175912558862e+00 -5.7880865723473551e-01 1 1 1
563 1 1.2439609604922522e+01 6.1616095564266251e+00 7.3295312168720184e-01 -1 1 0
1275 1 1.0135774509756160e+01 8.1898046786459879e+00 -2.6764469087183747e+00 0 1 1
1673 1 9.6276678970410821e+00 5.5924814254716537e+00 -2.5828181368414072e+00 0 0 1
516 1 1.5290257871170793e+01 5.1877587364970719e+00 -2.2854311114456323e+00 0 1 0
1664 1 1.3785857361187531e+01 4.7222424479493839e+00 -5.2732659841137552e-01 0 1 1
509 1 1.6103474289853317e+01 5.7558296724758433e+00 -1.0017844885352556e-01 0 0 0
1360 1 1.4385677169638745e+01 7.1570300498527653e+00 -1.0438817664918965e+00 0 0 1
276 1 1.6512515333420144e+01 7.6301195768386254e+00 -1.8899294681296990e+00 0 1 0
82 1 1.3607932152308706e+01 7.4024654821465425e+00 -3.0611176468080754e+00 0 1 0
1294 1 1.7501079946129330e+01 5.0924816511661266e+00 -1.8879140611377747e+00 0 1 1
1331 1 2.0525382925604564e+01 7.2149158553339294e+00 -5.7621826424340705e-01 0 1 1
1676 1 2.0620028772159760e+01 6.6020918962088464e+00 -2.8138380639729501e+00 0 0 1
67 1 1.9712675244481908e+01 4.8834809776515060e+00 3.6016444863053865e-01 0 0 0
1504 1 1.8276735436341713e+01 6.7507576019149411e+00 -2.8185047017535902e-01 -1 0 1
148 1 2.1988425007078335e-01 1.2265250459649181e+01 -1.9768997305047173e+00 0 -1 0
1713 1 4.1846630738321755e+00 1.0684441642381223e+01 -1.3034951236363854e+00 0 1 1
710 1 4.0725198868965311e+00 8.8233517115238058e+00 2.3576990649153107e-01 0 0 0
1420 1 2.0897766571478518e+00 1.2515562370131114e+01 -5.6973171594738403e-01 -1 1 1
1630 1 1.8842738513618693e+00 1.0263432260958123e+01 -1.1395977875987073e-01 1 0 1
427 1 2.0622045080728375e+00 1.0145950203546239e+01 -2.4815176443075955e+00 1 1 0
1655 1 6.8357278999372815e+00 8.7095636396944638e+00 -5.4459042962468773e-01 1 0 1
168 1 5.7773078538211031e+00 9.0559810472671849e+00 -2.6051749489365870e+00 1 0 0
304 1 7.0893714811092963e+00 1.1023347705089771e+01 -3.3007509361544640e-01 1 -1 0
1471 1 6.3064743037372590e+00 1.2682034923272438e+01 -1.9965491280053398e+00 0 0 1
118 1 7.7473302650727423e+00 1.0584779996541428e+01 -2.5189514370622357e+00 1 1 0
28 1 8.4291039513589556e+00 1.2664385878957376e+01 -3.2459409684066869e+00 0 0 0
1552 1 1.2170624840807001e+01 9.3125101169034554e+00 -2.4818167986444903e+00 1 1 1
406 1 1.1895473841950940e+01 1.0136879151507843e+01 3.2811159149202140e-01 1 0 0
158 1 1.2535347854126448e+01 1.1622589211898626e+01 -1.6289218380409471e+00 0 0 0
116 1 1.1008651581641526e+01 1.2387038055486968e+01 2.5744161549327904e-01 1 0 0
789 1 9.4815557076315340e+00 1.0365860619187334e+01 -9.0118805784670686e-01 0 -1 0
324 1 1.0314881009670520e+01 1.1741437238356029e+01 -2.8341368656135888e+00 0 0 0
1447 1 1.3798322971525533e+01 9.3425241483380628e+00 -8.3401128742435926e-01 0 -1 1
167 1 1.6273920696943282e+01 8.6280112855197348e+00 3.7819504776071744e-01 0 0 0
1523 1 1.5057206296151010e+01 1.1540424753786336e+01 -2.0455830752128006e+00 0 1 1
418 1 1.3616969744093181e+01 1.2442765668128269e+01 6.2577809131398165e-01 0 0 0
56 1 1.5315132957344133e+01 1.0773220179563944e+01 3.0324688206684813e-01 0 0 0
326 1 1.4651948055248720e+01 9.4719994255280398e+00 -3.2588665866588116e+00 0 1 0
1636 1 1.7171060347963163e+01 1.0225427018091070e+01 -2.0684057378708949e+00 -1 0 1
1585 1 1.8879940493647545e+01 8.5209971408365224e+00 -1.7677500206602628e+00 -1 0 1
252 1 2.1135699987715586e+01 8.6649597547590247e+00 -2.2959118479206619e+00 -1 1 0
1705 1 1.8399060015301817e+01 1.0080799891822229e+01 1.8766670115349848e-01 0 1 1
456 1 1.7312821796174347e+01 1.2200986316761334e+01 -1.2705844011936511e+00 0 0 0
248 1 2.0954841968693856e+01 9.5744967227530147e+00 -7.7154657280716687e-02 0 0 0
475 1 1.9615390171308412e+01 1.0729210220419287e+01 -1.7763568151100413e+00 0 0 0
1714 1 1.9441428215303024e+01 1.2469058290535694e+01 -1.0695764073660730e-01 -1 0 1
110 1 2.9402435892862115e+00 1.6447663695956585e+01 -8.5448469922620518e-01 1 0 0
105 1 4.1448998344463623e+00 1.4484952992870333e+01 -1.4142387805119294e+00 1 0 0
1693 1 3.6075952034917796e-01 1.4442891699887680e+01 -1.5128190313987775e+00 0 1 1
1631 1 2.3625506630371560e+00 1.3065535486201876e+01 -2.9113728084697206e+00 1 0 1
1665 1 1.1090614964973853e+00 1.5627554043186301e+01 4.2857410373764315e-01 0 0 1
948 1 2.4064502289321745e+00 1.5561512590643208e+01 -2.9129970559428879e+00 0 -1 1
1058 1 4.3162106984704227e+00 1.2917955158900781e+01 4.1875754385709163e-01 -1 0 0
886 1 7.2875846095583263e+00 1.6896258222010264e+01 -1.9807554836863792e+00 0 -1 1
1283 1 7.8278187364444412e+00 1.5206809171752468e+01 -6.6461300962275427e-01 0 0 1
161 1 6.3916649388739399e+00 1.4791964503070883e+01 -2.6515382439390871e+00 1 -1 0
1656 1 5.4175172656278088e+00 1.5524516835065675e+01 2.3191830430306482e-01 1 -1 1
180 1 6.6363125828796505e+00 1.3147240639388244e+01 4.2273440744733248e-01 0 0 0
514 1 4.6760611495960527e+00 1.6771560075848864e+01 -3.0386853228981781e+00 0 0 0
550 1 9.1293318176183238e+00 1.4869944231191413e+01 -2.5227314050117506e+00 1 0 0
11 1 8.7670501478611627e+00 1.3027436117865063e+01 -8.7022578520984073e-01 1 0 0
1524 1 9.7495426425417211e+00 1.6710075064699485e+01 -1.5544378446809868e+00 0 1 1
60 1 1.1489238790490655e+01 1.6200520321123527e+01 4.7957721916029250e-01 0 0 0
1459 1 1.0881317850807699e+01 1.4546887429309111e+01 -1.1259861192555953e+00 0 0 1
133 1 1.1615877433074946e+01 1.3537305199503818e+01 -3.2232947000578904e+00 1 0 0
52 1 1.2395341554376047e+01 1.6582443851715333e+01 -1.6879661078427755e+00 1 0 0
102 1 1.3284321382941247e+01 1.4328803777593855e+01 -8.8486363837061832e-01 0 0 0
254 1 1.4338731324369695e+01 1.6305639852628858e+01 -3.4706881518604060e-01 0 0 0
1314 1 1.5546899530539440e+01 1.6337430325425469e+01 -2.3544739195543785e+00 0 1 1
1463 1 1.5218602072895989e+01 1.3408661806307176e+01 -1.0611176291387872e+00 1 0 1
554 1 1.5585171829982977e+01 1.4789805904642492e+01 7.2815721233070629e-01 -1 0 0
119 1 1.9554920693899575e+01 1.4744558924813720e+01 -6.5742605145003230e-01 0 0 0
1368 1 1.9146048470102023e+01 1.3113717352970113e+01 -2.2198791321384865e+00 0 0 1
1148 1 1.8714865830952387e+01 1.5775642325342936e+01 -2.7139608243610169e+00 -1 1 1
519 1 1.7117951857459165e+01 1.4817402615339336e+01 -1.3197434209305285e+00 0 0 0
1320 1 1.3701761101578702e+00 1.7638923246850815e+01 -2.3609261979963163e+00 2 0 1
36 1 3.2323396491534764e+00 2.0871047663702463e+01 -3.2386524562634103e+00 0 -1 0
511 1 1.5120828157135182e+00 1.8011742688248368e+01 -1.0702326517432237e-01 0 -1 0
120 1 3.3560026764423321e+00 1.8727318237037714e+01 -1.7662075370941999e+00 1 0 0
1698 1 1.3882496040610879e+00 2.0212738989303531e+01 -2.2495123657741409e+00 1 0 1
849 1 3.7087497373644092e+00 1.9341556597641059e+01 4.6671483792246660e-01 0 0 0
96 1 2.9082451363898691e+00 2.1098327049044315e+01 -8.6086446182754228e-01 1 0 0
1651 1 5.1418231246878738e+00 1.7873318276032425e+01 -6.4382504047311606e-01 1 0 1
77 1 6.0571938219955888e+00 1.9492279937452405e+01 1.6304370957818470e-01 0 0 0
494 1 8.0345302529600087e+00 1.7873291715272778e+01 -1.6252807248982881e-01 1 0 0
321 1 5.8265930925489400e+00 1.9178925318849611e+01 -2.1131152518049428e+00 0 0 0
546 1 8.1254898318362923e+00 2.0194972357922339e+01 -3.3527117025287323e-01 0 0 0
113 1 1.0486560532556096e+01 1.8693251771654303e+01 -8.2257194612400841e-01 1 1 0
68 1 1.1168689540548721e+01 2.1195381718047738e+01 -7.8097225024547301e-01 0 -1 0
460 1 1.2610939167152047e+01 1.9585181520611592e+01 -1.5353909250505289e+00 -1 -1 0
1675 1 1.0164060302284224e+01 2.1005063558655401e+01 -2.8788255598031238e+00 0 0 1
1715 1 8.6370949102137917e+00 1.8984949714798077e+01 -2.2039591499317615e+00 1 0 1
421 1 1.4773764450321464e+01 1.8953870754052897e+01 -1.3489226827892287e+00 0 0 0
513 1 1.6086757341721619e+01 1.8934967482293111e+01 -3.2655159671459528e+00 0 0 0
1595 1 1.6234734469836788e+01 1.7191075749450960e+01 -5.7109765538205082e-01 0 0 1
615 1 1.3200909340310085e+01 1.8059235203399719e+01 1.3983869983288777e-01 0 0 0
1153 1 1.6788682124504632e+01 2.1026590977046354e+01 -1.3834177158382310e+00 -1 -1 1
39 1 1.3808802534228272e+01 2.0879536042931946e+01 -4.7617897469447001e-02 0 -1 0
403 1 1.6341870588657414e+01 2.0749049036478290e+01 6.6083212359567511e-01 1 0 0
1666 1 1.3139979629557789e+01 1.7984154769651660e+01 -3.2306427200745551e+00 0 0 1
1612 1 1.8637587357835109e+01 1.7073960143407522e+01 4.5746636504764648e-01 -1 0 1
1691 1 2.0734801404290153e+01 1.7073758843916188e+01 -9.7621030228185912e-01 -1 0 1
262 1 2.0755475562880953e+01 1.9342216887647144e+01 -7.5098633169553564e-01 -1 1 0
268 1 1.8888190894190409e+01 1.8552487003660147e+01 -1.8855694573683257e+00 0 0 0
1497 1 1.8253802911713706e+01 1.9452685581474491e+01 1.2481116059415198e-01 0 -1 1
302 1 2.0559526166362424e+01 2.0086917125754372e+01 -3.2624624150753330e+00 0 -1 0
493 1 2.3483152896943515e+00 2.8510882155897121e-01 1.8765028094374383e+00 0 0 0
420 1 1.0468811036752486e+00 2.4145502158120928e+00 2.7215360438859921e+00 1 1 0
78 1 3.2810034297149571e-02 3.3701683070906824e-01 3.0102173648571000e+00 1 1 0
379 1 4.0881440213195717e+00 6.3666909526987836e-01 4.2652477112571843e+00 0 0 0
44 1 3.3944846354965796e+00 2.1999980426629016e+00 2.4172507557441190e+00 0 1 0
115 1 1.9502824180080791e+00 3.6814999857121644e+00 4.5419409237355266e+00 1 1 0
1683 1 1.7183735660866206e+00 5.2119309498644473e-01 4.6431068792811319e+00 0 2 1
361 1 6.9607755371827551e+00 3.0883144262335702e+00 1.1061299271432636e+00 -1 0 0
731 1 7.1597006527160492e+00 1.0038797507372934e+00 1.8406825192754077e+00 0 0 0
282 1 5.7584542901811870e+00 2.4505559290840058e+00 3.7598511192072044e+00 0 0 0
1535 1 4.6123017557118269e+00 8.9467465315831163e-02 9.9813316615391212e-01 1 1 1
814 1 5.0925074802209478e+00 4.1350156158360427e+00 2.1966773639161463e+00 0 1 0
1326 1 8.1771806599228469e+00 3.7241889056357111e+00 3.1422117669091101e+00 0 0 1
430 1 8.0965400180488984e+00 1.5152897530267309e+00 3.9526873801199365e+00 1 1 0
709 1 1.1760821085278314e+01 1.5342095034038357e+00 1.2977494746642204e+00 0 1 0
192 1 1.1539495949383689e+01 8.3557419088151619e-02 2.6767715039910405e+00 1 1 0
1370 1 9.1074482050224539e+00 2.4388781720141464e+00 1.0836994031551459e+00 -1 0 1
103 1 1.0286791423328090e+01 2.0820573123171497e+00 3.6035945360309247e+00 0 1 0
1724 1 1.1901745642255676e+01 4.1918564952802999e+00 3.5743918731555189e+00 0 1 1
243 1 1.5532173699810729e+01 3.4553624615009779e+00 1.1488518260114375e+00 -1 0 0
864 1 1.3186189622296597e+01 3.9423155063528839e+00 1.3534946851360230e+00 0 1 0
1707 1 1.5105673606920812e+01 3.1783779690910769e+00 3.3296907068569430e+00 0 1 1
488 1 1.2972965611140092e+01 2.2407819418265325e+00 2.8630380433614020e+00 -1 1 0
804 1 1.3113185139124994e+01 6.4286560261264081e-01 4.5320579899775888e+00 -1 1 0
422 1 1.4809177882788521e+01 1.0521873177817398e+00 1.9504109703928503e+00 0 1 0
5 1 1.5351223034528955e+01 1.1442996240733281e+00 4.8463406628367931e+00 0 0 0
160 1 1.9357675538705557e+01 2.5130971647795981e+00 1.9345476414347687e+00 -1 0 0
492 1 1.7899456567683114e+01 4.0767176354781753e+00 1.2636008657735278e+00 -1 1 0
345 1 1.7644271496414714e+01 1.5348801667393899e+00 9.6277675494733472e-01 -1 1 0
27 1 1.7120500011730236e+01 2.0861714292080973e+00 3.1172225692590221e+00 -1 0 0
497 1 1.8986558946885232e+01 3.6626191927654341e+00 4.0378639830598777e+00 0 0 0
411 1 1.9069311972683206e+01 1.0275201795906939e+00 3.9745240145493916e+00 0 1 0
147 1 3.7920463940387998e+00 6.8778677336395164e+00 1.3917873141395862e+00 0 0 0
128 1 2.3736088550017911e+00 4.4806858608173075e+00 2.2303952189482610e+00 1 0 0
1545 1 1.9653235008811829e+00 8.0315180962537873e+00 3.0289079394362446e+00 1 1 1
820 1 2.4623992876290255e+00 6.0814752647656452e+00 4.2922534590387968e+00 -1 0 0
1533 1 8.1621510281706371e+00 4.9746911169906038e+00 1.2015322924778058e+00 1 0 1
1622 1 4.2696793618123632e+00 4.3078041305967796e+00 4.5359941974868452e+00 0 1 1
453 1 6.5636975505869994e+00 6.8370415689019701e+00 1.6796778667048393e+00 0 -1 0
682 1 6.7141132060251438e+00 7.4470625313739047e+00 4.6846623003344732e+00 0 0 0
1629 1 5.0814954588090062e+00 6.1089130004700261e+00 3.4221085885874825e+00 1 -1 1
1590 1 6.7574228430441377e+00 4.5517090799476740e+00 4.7862520338574104e+00 1 0 1
610 1 8.2316728760908653e+00 5.8860179700682762e+00 3.4300956919214842e+00 0 -1 0
1444 1 1.0222158844482319e+01 4.3044764615152609e+00 1.8254687444654767e+00 0 0 1
1564 1 1.0065388059284796e+01 6.6065686345634154e+00 2.1210411794566983e+00 0 1 1
188 1 1.1664356782144296e+01 8.2621709324210126e+00 2.0470197501410006e+00 0 0 0
1405 1 9.0943480550257334e+00 7.9797305265201102e+00 3.7607356741837403e+00 0 1 1
54 1 1.1462829660520141e+01 8.1605303817185213e+00 4.7615793296690612e+00 -1 0 0
437 1 1.0614795931894875e+01 5.9206861399737374e+00 4.4620709323988077e+00 0 -1 0
1037 1 1.4619258684103118e+01 5.6681581489512132e+00 2.1920904478062271e+00 -1 0 0
662 1 1.6961824791786121e+01 4.5496146037541525e+00 3.5748064527006074e+00 0 0 0
1481 1 1.3242724044464957e+01 7.2905094657319545e+00 3.4109666378396915e+00 0 0 1
364 1 1.3995852295436402e+01 7.9397380817906624e+00 1.1680480127338777e+00 0 0 0
369 1 1.6212992697361699e+01 6.6666878021279370e+00 3.9159875443909886e+00 0 0 0
517 1 2.1031816809968642e+01 4.9410839829923399e+00 2.7516980819737169e+00 0 0 0
178 1 1.7093899611670789e+01 6.9340575465275736e+00 1.9396230813197022e+00 -1 0 0
84 1 2.1196542659442535e+01 7.1773009607788838e+00 2.0133848918561048e+00 -1 1 0
238 1 1.9079330303228879e+01 8.1865227815982884e+00 1.3393539015919034e+00 0 1 0
512 1 1.8872933082954091e+01 5.8384893009995622e+00 2.7755395241510996e+00 -1 1 0
190 1 2.0019571318828017e+01 8.0187631834651398e+00 3.9078219639273657e+00 0 0 0
1710 1 1.7809519488938410e+01 8.2506412041822905e+00 3.6041018785844470e+00 -1 1 1
170 1 8.5812979456107341e-01 9.7018312543968737e+00 2.0866425161561830e+00 0 0 0
242 1 4.2894919279592753e-01 9.9882991195233792e+00 4.2326131175944850e+00 0 0 0
717 1 2.8341935768341324e+00 1.0968512433620965e+01 1.7438808779632708e+00 0 0 0
131 1 7.9339889648522299e-01 1.2167201063734476e+01 2.8435008484139450e+00 1 0 0
718 1 2.9740593879396475e+00 1.0173153820743732e+01 3.9770114563517520e+00 0 0 0
720 1 4.4531335607138072e+00 8.7719166691509098e+00 3.3544457841744100e+00 0 1 0
227 1 5.0916530680748631e+00 1.0771956709093343e+01 1.1226370041535247e+00 0 -1 0
954 1 5.8133007779204018e+00 1.1706150728711377e+01 3.0808702847007785e+00 0 0 0
313 1 6.6355694546574879e+00 9.0722488568369197e+00 2.3091909424705976e+00 -1 0 0
439 1 4.5172956146191527e+00 1.2549862547843285e+01 4.8152293261255235e+00 0 -1 0
1357 1 8.9683430936749176e+00 1.2242295469439968e+01 1.3338189512131304e+00 0 0 1
1626 1 8.5861834726210713e+00 1.0798656050089530e+01 3.7077815051141281e+00 0 0 1
893 1 9.5576515828251125e+00 9.7826834358162547e+00 2.1592455593779274e+00 0 -1 1
1292 1 1.2030812402569786e+01 1.2238228590856863e+01 2.3263072038910684e+00 0 0 1
961 1 1.0875457661693893e+01 1.0177964942912091e+01 3.6703995523519657e+00 -1 -1 0
1548 1 1.3676454108666851e+01 1.0313268540443769e+01 2.0020649116231057e+00 0 1 1
233 1 1.5027998710964278e+01 1.1686764271145750e+01 3.5641667446291372e+00 1 0 0
911 1 1.6101955475099860e+01 1.2554342447099653e+01 1.3985820580342923e+00 0 -1 0
1446 1 1.3134065729182993e+01 9.8073944819612624e+00 4.2578639327263934e+00 0 1 1
398 1 1.5402194071103157e+01 8.9436330657921346e+00 2.7628571968943083e+00 -1 0 0
350 1 1.6577085042357236e+01 1.0281299240551338e+01 4.8426550415123994e+00 0 0 0
1531 1 1.7412734648357354e+01 1.0110713653058918e+01 2.1234880217529968e+00 0 1 1
151 1 1.9698492878816133e+01 1.1407659775945859e+01 2.1842800151921278e+00 -1 0 0
574 1 1.8866789709127701e+01 1.0073002128669806e+01 4.0856370876676067e+00 0 1 0
963 1 1.7043405965229766e+01 1.2514971130160918e+01 3.6152170981318585e+00 -1 0 0
613 1 1.9887828345324746e+01 1.1822735383321001e+01 4.4745089414111865e+00 -1 0 0
106 1 3.0819857611633252e+00 1.2766186890747715e+01 3.0077853484761095e+00 0 0 0
412 1 2.8323530067935432e-01 1.3072757938038755e+01 8.4563545219695069e-01 0 0 0
259 1 7.8602714777485494e-01 1.4739109810501123e+01 2.5886877632713094e+00 1 0 0
416 1 3.0313743691322603e+00 1.4645762187932394e+01 7.8740856933931891e-01 0 0 0
851 1 2.8264082545834541e+00 1.5168520410063920e+01 3.5049518189478812e+00 0 1 0
1164 1 7.6703746590508013e+00 1.3779673594393024e+01 2.9983010465256648e+00 -1 -1 0
1667 1 5.3247929177918021e+00 1.3973828239828423e+01 2.6647414577595567e+00 0 0 1
393 1 4.7906894822589301e+00 1.6291084179460789e+01 2.9413196857766728e+00 1 0 0
58 1 7.2244961342887120e+00 1.5807882698300741e+01 1.8013532738431897e+00 0 0 0
480 1 1.0396206952796671e+01 1.5189412445546571e+01 2.9008384500569333e+00 0 -1 0
203 1 9.2316250933283008e+00 1.4480153863050418e+01 8.9033370368232934e-01 0 -1 0
375 1 9.3831240946152352e+00 1.6765908963396374e+01 1.7760465181237199e+00 0 0 0
388 1 9.5191001089308269e+00 1.2803308484668724e+01 3.3626905208363143e+00 0 0 0
835 1 1.1545972799515773e+01 1.4533911241055657e+01 4.7431147414433585e+00 0 0 0
806 1 1.1823529232251532e+01 1.4333724679182748e+01 1.4481600767540543e+00 0 0 0
1662 1 1.1844880369082821e+01 1.6810944113460071e+01 2.9180787781693356e+00 -1 -1 1
341 1 9.2865558358316651e+00 1.5787490366923045e+01 4.5224646228503929e+00 0 0 0
1633 1 1.2980927730445107e+01 1.2955163809056144e+01 4.0931334217668809e+00 0 0 1
1432 1 1.3776822228514398e+01 1.5208388987530062e+01 4.5548761950103431e+00 0 -1 1
1307 1 1.4067908266829539e+01 1.4104945265247768e+01 2.3344144041058739e+00 -1 0 1
87 1 1.5984051338964386e+01 1.5197868366021279e+01 2.9346002772845301e+00 -1 -1 0
1511 1 1.4007237093782443e+01 1.6484067365727515e+01 2.0111297664006136e+00 0 0 1
356 1 2.0452021922481045e+01 1.5896286918706684e+01 1.2483643775203959e+00 -1 0 0
281 1 1.7984125786151893e+01 1.4223695219582828e+01 1.1275634372833112e+00 0 0 0
1607 1 2.0097721492749461e+01 1.5990134056393847e+01 3.5408944869628511e+00 0 0 1
853 1 1.7960545334346286e+01 1.6320985964811332e+01 2.3422899495076956e+00 -1 0 0
370 1 1.9970895542580184e+01 1.3781110484559944e+01 2.7136363148952620e+00 -1 0 0
132 1 1.8152501273001096e+01 1.4715280880729173e+01 4.1737524834693662e+00 0 0 0
1592 1 8.3043450083435466e-01 2.0318740102194404e+01 8.8886994213214710e-01 0 0 1
818 1 3.2134305615270944e+00 1.7041645223220041e+01 1.3095011921759756e+00 -1 0 0
413 1 1.1882128899772193e+00 1.7183141722812053e+01 2.5699758862454845e+00 0 0 0
1596 1 8.6991446423696694e-01 1.9765864651677234e+01 3.0661334317388880e+00 0 0 1
659 1 3.7353189397853055e+00 1.9315862098599290e+01 2.7735348879172488e+00 0 0 0
10 1 2.8012316621865994e+00 1.9479371664204798e+01 4.6626668564665206e+00 1 0 0
1588 1 6.5884134274943440e+00 2.0520163066527790e+01 3.6269211681917728e+00 0 -1 1
1716 1 7.4542268434855501e+00 1.7191381214578872e+01 3.4941677179069792e+00 0 0 1
284 1 5.6617463525771576e+00 1.7913464218907016e+01 1.8579665433573433e+00 0 0 0
387 1 5.3579306341977482e+00 1.8076373812674206e+01 4.5388646918944406e+00 0 0 0
3 1 7.9033986488861823e+00 1.9328360665212585e+01 2.0111918372901805e+00 -1 -1 0
309 1 1.1864775643111669e+01 1.8916254281883397e+01 1.6999654989501458e+00 0 -1 0
1624 1 9.5290045293033838e+00 2.1024586861554418e+01 1.2324518683010943e+00 -1 -1 1
805 1 9.6833174556485186e+00 1.7969239752956895e+01 4.0055323395778908e+00 0 0 0
830 1 9.3814677983713182e+00 2.0326637851405000e+01 3.6970221407847648e+00 0 0 0
1053 1 1.1650397499618945e+01 1.9180686212474715e+01 4.0400312940736791e+00 0 0 0
637 1 1.6259104245821700e+01 1.7699395384429057e+01 3.9677169809373201e+00 -1 -1 0
436 1 1.3871478500707651e+01 1.9864262853546546e+01 2.2794905056549135e+00 -1 -1 0
235 1 1.5816262685057060e+01 1.8511833967669951e+01 1.5538863994887269e+00 0 -1 0
482 1 1.3931254090815909e+01 1.7831912773242422e+01 3.7927651164519185e+00 -1 0 0
139 1 1.5502690390838103e+01 1.9901564025438041e+01 4.0598575282465736e+00 0 -1 0
974 1 1.7221756514320234e+01 2.0959365673103736e+01 3.1497815203907056e+00 -1 0 0
565 1 2.0647333891309380e+01 1.8169208303921597e+01 1.4556153931068492e+00 -1 0 0
1247 1 2.0456771470042295e+01 1.8218158761750257e+01 3.8863213718630307e+00 0 0 0
317 1 1.9374151174619911e+01 2.0408469227885689e+01 2.6031268231428815e+00 0 -2 0
1720 1 1.8152243708966889e+01 1.8578685073170735e+01 2.4524697848369055e+00 0 1 1
1487 1 1.8672142911700710e+01 1.9411262250204182e+01 4.5749047599491384e+00 -1 -1 1
191 1 1.6057408485147451e+00 2.3573947600912044e+00 6.3462917646925376e+00 1 0 0
533 1 1.8131035878093288e-01 3.3157705075837645e+00 7.3815590419713324e+00 -1 1 0
1697 1 3.7428101212717988e+00 2.4387929080229060e+00 5.8125945859010049e+00 1 0 1
816 1 2.8053461196009235e+00 3.4607334777183287e+00 7.8514893851074810e+00 0 1 0
157 1 3.6907232997487003e+00 1.5327438021976356e+00 8.8638732605463542e+00 0 0 0
71 1 5.1401725207070044e+00 3.9267878367192339e+00 7.1918668685779714e+00 0 0 0
1014 1 6.1827521050456431e+00 1.3097821665280389e+00 5.4931821287373115e+00 -1 -1 0
489 1 6.1531145946061239e+00 1.7344141323276339e+00 8.0259754058853385e+00 0 0 0
778 1 1.0968562852689882e+01 2.9004877395188267e+00 5.8043659538939441e+00 -1 0 0
1527 1 1.1210860433886232e+01 2.8579712153425425e+00 8.0814793341306856e+00 0 0 1
205 1 1.1050313914949259e+01 1.0703178437325310e-01 5.2623687120597928e+00 0 0 0
333 1 1.0446321416235646e+01 6.1888171824057048e-01 7.4491717770516264e+00 0 1 0
264 1 8.5822581885626672e+00 2.2624963389964159e+00 6.6882324233786772e+00 0 0 0
537 1 1.2536609573727690e+01 8.1308233419883225e-01 6.8449196743343084e+00 -1 1 0
193 1 9.1670459634091177e+00 4.1039042572990834e+00 5.1035555640192314e+00 -1 1 0
330 1 1.5913527548600612e+01 3.8232920521158005e+00 5.6657182621669246e+00 0 0 0
562 1 1.3725356262953808e+01 2.7940547605126560e+00 5.3100329877301142e+00 0 1 0
86 1 1.5429828106744226e+01 1.7381172952292392e+00 6.9467144660358038e+00 -1 1 0
639 1 1.3828070640474801e+01 2.3505474692298090e+00 8.2564596256687555e+00 0 0 0
298 1 1.6672122753867111e+01 3.5476873237928728e+00 7.9439174809581825e+00 0 -1 0
782 1 1.6470331369820126e+01 1.0152336863583107e+00 8.8845335729107422e+00 -1 0 0
295 1 2.1026669860644432e+01 2.3628638557788828e+00 4.8821834867502094e+00 0 0 0
357 1 2.0498906189961911e+01 1.6891575393618297e-01 5.2257000069589008e+00 0 1 0
29 1 2.0709717936764491e+01 8.7936748437758494e-01 7.3478354238427617e+00 -1 0 0
838 1 1.7736449187491502e+01 2.4557914221102264e+00 5.5284216288635815e+00 0 1 0
667 1 1.7245702346970056e+01 2.5570803294617084e-01 5.8308894843071410e+00 0 1 0
827 1 1.9158128733617946e+01 3.2105246716149796e+00 7.1149133563849816e+00 -1 1 0
534 1 3.4996953679901712e+00 5.4773642155339397e+00 6.5477778370998436e+00 0 0 0
916 1 2.1537397627052255e+00 7.2813971218651821e+00 7.8134448109799273e+00 0 0 0
269 1 8.2262198436124778e-01 7.3211989448105754e+00 5.0892393016814879e+00 1 1 0
108 1 1.1842770830523981e+00 5.1244535036464374e+00 6.2223978232812147e+00 0 1 0
34 1 4.0114665873209496e+00 7.1910675742087182e+00 5.0908550536087471e+00 1 0 0
1367 1 2.8556148828601864e-02 7.7615385753665365e+00 8.1206169578346490e+00 1 0 1
848 1 1.3156725657215602e+00 4.9442751850638293e+00 8.7975533187225370e+00 0 0 0
1547 1 5.7714167003752648e+00 6.3200519730962625e+00 6.3378385364197829e+00 0 1 1
109 1 8.2284944612933586e+00 6.1378978659620618e+00 5.8771541312725724e+00 0 1 0
88 1 6.7622373889726379e+00 8.2453185530253119e+00 7.0056718055095804e+00 0 0 0
150 1 7.5496832757510282e+00 4.3879881296843388e+00 7.3998835306050506e+00 -1 -1 0
536 1 8.4832180635682750e+00 6.3392401196181236e+00 8.2317213251244183e+00 -1 0 0
137 1 6.2851532509526837e+00 6.3112771488396655e+00 8.7542970040936829e+00 1 0 0
214 1 1.2105504079627153e+01 5.2342823431704684e+00 5.9532150045851129e+00 1 1 0
872 1 9.8540423067888359e+00 4.8575531553629974e+00 7.1438670346339137e+00 0 0 0
194 1 1.0362803149013642e+01 7.0690030483543760e+00 6.4175007871365572e+00 -1 1 0
1018 1 1.2299521854041524e+01 5.0972739436207153e+00 8.4161335776198154e+00 -1 0 0
339 1 1.4087723238157826e+01 5.2472822419569596e+00 4.9969527204652291e+00 -1 0 0
49 1 1.4451855501510337e+01 4.5459045598789443e+00 7.8070994819660324e+00 0 0 0
63 1 1.5922259048059146e+01 6.1347316255115816e+00 5.9963788460086356e+00 -1 0 0
1381 1 1.3531050866906183e+01 7.1159352643620775e+00 6.0992758700077463e+00 0 0 0
465 1 1.3478335409074282e+01 8.1445243402920475e+00 8.1675731714785265e+00 -1 0 0
811 1 1.5583328390572909e+01 7.2341294296586156e+00 8.1066411412540234e+00 0 0 0
407 1 1.8242087299085807e+01 7.9878912389745960e+00 5.9350980225172361e+00 -1 0 0
283 1 1.7992172113769254e+01 5.1756184028340364e+00 5.3478385418083967e+00 0 0 0
362 1 2.0284459554704490e+01 6.6106834734939355e+00 6.3924735644021631e+00 -1 0 0
1474 1 2.0255993129784340e+01 4.9856864127379099e+00 8.3844027146639029e+00 0 0 1
164 1 2.0255260180939459e+01 4.5330196862873180e+00 5.5518320053299046e+00 -1 0 0
721 1 1.7853511573908200e+01 5.9079977218040609e+00 7.6553959963684228e+00 -1 0 0
621 1 1.8784331616897241e+00 9.4767456773336303e+00 6.4085667956658998e+00 1 0 0
1095 1 1.4960239585095183e+00 1.1825022403788845e+01 5.2659280999119797e+00 0 1 0
1355 1 1.6621909139478126e+00 1.2004972621345514e+01 7.9654825414695694e+00 0 0 1
672 1 3.8160265213932969e+00 1.1386262161533287e+01 6.7951632310846595e+00 0 0 0
759 1 5.9903653607657183e+00 9.7198364362718568e+00 5.2418777902433522e+00 -1 -1 0
764 1 5.8956567672033513e+00 1.1004982139904426e+01 7.3447613078422673e+00 0 0 0
92 1 8.2906003536749697e+00 1.0546377503974849e+01 8.4260023969590403e+00 0 1 0
42 1 6.8320663687838836e+00 1.2057416041143760e+01 5.1641056308686082e+00 0 -1 0
474 1 4.3101799824864671e+00 8.9767045498491527e+00 6.8558902030896967e+00 0 0 0
505 1 8.4961503948891206e+00 9.0615739016926558e+00 5.4988452424319725e+00 0 0 0
234 1 1.1192600225093702e+01 1.2126659419974212e+01 5.1853789834788113e+00 0 0 0
391 1 1.1604868409066709e+01 9.4290406836947493e+00 6.8074781007600365e+00 -1 0 0
217 1 9.2229378317437352e+00 1.1349363263739104e+01 6.1667542550625161e+00 -1 0 0
354 1 9.6352489810669351e+00 8.5222908859644217e+00 8.1491814344775868e+00 0 0 0
646 1 1.1122052826571979e+01 1.0055517723911493e+01 8.9460405962811702e+00 1 0 0