LAMMPS data file via write_data, version 29 Oct 2020, timestep = 250000

2744 atoms
1 atom types

-0.20921574845387347 25.0172157484554 xlo xhi
-0.20921574845387347 25.0172157484554 ylo yhi
3.448701220057302 56.217195732676814 zlo zhi

Masses

1 58.933

Atoms # atomic

559 1 2.6770574672073106 1.4723539883035184 4.859897829819376 0 0 0
2553 1 1.8172054063455834 24.726713518049806 14.213610905470082 0 -1 2
1498 1 2.685021432462608 2.339942187495908 7.817739961472429 1 -1 1
260 1 1.01123964058238 3.1116484781797125 6.197351397575127 0 0 0
141 1 3.4808305386128557 24.584192493477495 5.103143868801923 -1 -1 0
757 1 1.007734103524036 0.8496237649286338 7.364182425035667 0 1 0
882 1 13.428864825653303 18.91367831583038 4.129629591205225 0 0 0
2022 1 8.032230941583265 -0.15896843495638535 5.181371540330035 -1 -1 0
39 1 5.634303840326704 0.3709114964052066 5.189676990182074 1 0 0
1093 1 18.977219578523176 5.730424623986861 3.6345108738164944 -1 1 1
779 1 7.634710290141322 1.9401821928195937 5.372922292843807 0 1 0
323 1 4.744601625759402 2.75561283808257 5.847492578911509 0 0 0
1413 1 6.7028423568588815 23.287920808031828 4.153080742868759 0 0 0
1063 1 11.461879237600984 3.200427779279959 4.720154459048581 1 1 0
828 1 11.288656216946896 1.5432325996462055 7.208564876227971 0 0 0
1860 1 9.081282707250539 3.3804393582429304 4.980504840112499 -1 -1 1
135 1 10.100803649453 1.3937092108211038 4.923231612293317 0 0 0
953 1 12.465086582433418 0.5866938588382195 5.529850194214525 -1 0 0
1854 1 -0.12329449733572773 6.662000402463352 4.868368582064627 0 0 4
1469 1 15.613502068910252 2.642247917807279 4.5635291322964155 2 1 0
2334 1 14.875190732299817 4.643248035647506 6.793262298586101 -1 1 -1
1062 1 13.357146092188449 0.8030567935850872 7.705827804526965 1 0 0
585 1 15.117986229059166 0.09032231002664304 5.733574372432002 0 0 0
1780 1 22.16651837464623 13.741638016732821 4.124873565665343 1 -2 0
1602 1 17.16636632670273 0.5700400191354342 3.662547588316516 -1 -2 0
749 1 15.75571764025963 1.4785287091376023 7.2753774218620535 0 1 0
704 1 2.5158090936093216 10.777841913617008 3.843240814920492 0 0 0
2432 1 16.947818111129514 23.319348796343064 6.105384482553056 1 -1 2
891 1 17.50527788523894 3.5950070690423526 5.233782076088527 0 0 0
838 1 19.38680668419454 2.26735465049212 6.045257618343015 -1 1 0
18 1 17.501848725589035 0.5520240129777608 6.143534890902947 0 0 0
2724 1 20.45359482572188 3.1642123183074737 4.244095330706031 0 0 2
811 1 21.358016557976114 3.6889018506787146 6.264160331109196 -1 0 0
344 1 20.797760750254227 0.6985236784649825 8.030539769173284 0 0 0
1428 1 23.097690799491836 4.094787106592425 7.843030490089545 -1 1 1
1820 1 23.792627290823177 0.30807118775910025 5.043854719393229 1 1 0
1034 1 23.702129063691572 2.883570649913022 5.373765550464082 -1 0 0
371 1 6.601408788917273 10.983869298335627 4.083394297720261 1 0 0
724 1 21.70119050320521 1.741754168244838 5.5324965330744735 0 0 0
1959 1 22.47522127962128 24.76929152833386 6.752084329964635 0 0 2
2257 1 3.1506954222193215 4.435969130468964 6.645721250420971 -1 -2 0
477 1 1.886368044921332 7.466465078039917 4.585258695392479 0 0 0
420 1 -0.14243073361530634 4.954935953402294 6.528792384865341 1 0 0
88 1 20.720857543135025 15.81569063939754 4.3130031442441705 -1 0 0
1374 1 3.716138108014307 7.134884214108513 6.156694928091926 -2 1 1
1760 1 1.4013567219695637 4.58378107116401 4.3863448998919745 2 -2 1
1173 1 2.6204400409718223 22.681105328755855 3.6119316175352836 1 -1 0
589 1 6.841394399789073 3.7348318952296906 6.20642426121084 -1 0 0
1853 1 5.135859101277985 5.151865875814888 5.184867967096836 2 -1 1
2047 1 6.326258529395969 7.214958197035673 4.314571018835931 1 0 2
4 1 7.108328529781771 4.902256266338299 4.102783943493177 -1 -1 0
272 1 7.816904662512195 5.886418328611877 6.155744215185375 0 0 0
492 1 24.385941421785553 24.43248405721868 14.460877248683 -1 -1 0
171 1 8.461428259623583 8.038911375174536 6.73396003283478 0 0 0
1182 1 10.514277656144536 5.3093149551385155 4.483838006709135 0 0 0
1698 1 13.955873729540055 4.46102146806829 4.453059008190348 1 0 -1
870 1 9.15958471288056 7.495179822531615 3.9836342400980262 0 1 0
1864 1 12.773140714487978 6.221329042408144 5.882057739470206 1 -1 3
1257 1 10.476838159313395 6.641495810688989 6.35531897422691 0 1 1
2201 1 10.211905601256186 16.036566097664462 3.584284784234427 0 2 -1
510 1 13.539872419286011 2.5978878135664103 6.214106552824271 0 0 0
843 1 14.121093381711134 7.01944664355835 3.7743969625461444 -1 1 0
1043 1 15.049437420311406 6.769371216941905 6.036949175092039 0 0 0
1049 1 16.53943151581918 7.980336918654851 7.65166015336148 0 0 0
2428 1 16.539103617647164 8.308916415179995 5.410855265594819 0 1 1
473 1 16.239012558133844 5.499571035934885 4.146193192005655 0 0 0
2193 1 19.074469900169277 4.458263008355508 6.717653733773493 -2 2 0
197 1 18.72002368922471 7.7055810340386195 5.530509445166695 -1 -1 0
771 1 17.31278592193174 5.825330324148306 5.950240352740544 0 1 0
2038 1 20.197940843808887 5.831262081989614 5.521919585039077 -1 0 1
1422 1 24.49812896187023 4.763776252097646 4.105275097631147 1 1 0
2316 1 8.909771806213373 11.23021573582165 4.527018819886301 0 -2 0
2606 1 21.653917689861785 5.566749643575228 7.379493706925982 0 1 2
1608 1 23.008968660066778 6.335085756353802 5.652314371442798 -1 3 1
1176 1 3.3321481838513107 3.7398926515956257 4.219345498968279 2 1 0
247 1 4.223789726671658 8.542268321655591 15.975090770530798 1 0 0
804 1 23.91621101919271 6.347254586283039 7.8124743548453095 -1 0 0
2502 1 19.869656647120358 1.1096934814909716 4.116979292998948 0 1 2
279 1 0.38835325859311587 9.162941790983117 3.744428997611149 1 -1 0
767 1 1.218550984195187 10.023995537450462 7.659663111291388 0 1 0
1058 1 3.340041869986604 8.881474833711788 7.87090240281806 0 1 0
1620 1 23.579619177486606 8.78985828842187 5.1620788044830626 2 -1 1
117 1 6.0412394900596915 7.515574148168635 6.935713984249606 1 0 0
161 1 6.951244870057846 9.129549731741195 5.270835419713584 0 0 0
942 1 4.687350662820544 9.142972944979826 4.6247576960392385 0 0 0
940 1 4.0323615434549005 7.030322645819693 3.681394654089457 1 0 0
1375 1 4.716630057602049 10.41230103288958 6.577136828406019 2 -2 0
2616 1 8.024742060868556 12.129782232026002 6.466510160062589 2 3 3
1869 1 6.78948961115711 9.71796567428472 7.576145345239685 1 -1 0
1135 1 10.093568770366446 9.317954996010341 5.117912110594319 0 0 0
93 1 11.411100866120108 8.70420261397383 6.799023261276897 0 1 0
1529 1 10.860540065115524 11.20606179848648 6.173507874904973 -1 -1 1
1445 1 21.82049255113975 9.433648191485647 3.7549021695814035 0 -1 1
1433 1 9.087289990180361 13.59596468121866 4.439166098467687 1 0 -1
534 1 9.251954863010452 10.06231988805827 7.342920574419903 0 0 0
238 1 13.523102217999782 9.199533167105326 4.984874821719103 1 -1 0
1758 1 15.362653798830426 10.334976971472303 4.160573992305737 1 -3 0
810 1 12.951014475061184 10.953037531125942 7.124550992489734 -1 0 0
332 1 15.480327005105245 12.221528112100772 7.801423811588604 -1 0 0
1141 1 15.10203219084389 9.982854781268623 6.84650236840821 0 0 0
113 1 15.969989334326636 12.768980021353823 4.793939416874128 0 -1 0
1211 1 22.86566660181858 21.15538827687446 15.773942680310569 1 -1 0
977 1 11.702443539114817 7.768070662696448 4.466540487252256 0 0 0
2581 1 19.83868161343517 10.720362169941438 5.20220810119791 0 0 1
1797 1 17.255298238498938 10.556492943668287 5.573487226519679 1 1 1
2580 1 21.379518236716358 7.954452198976055 5.59869531846897 1 2 0
1547 1 18.824370873397427 9.13148838610143 7.073871617557833 -1 -3 0
486 1 21.206006864892856 11.44903192476669 8.247799875406095 0 1 0
606 1 18.90958314519913 11.487613513240582 7.613489938826534 0 0 1
1700 1 0.10715762303897852 8.113899699379926 6.707554151139703 -1 -1 0
1775 1 17.529073644930257 16.793869485936256 3.9546341218763685 -1 1 1
2421 1 22.71814912649767 8.236384253290677 8.067412046479234 -1 0 1
73 1 21.512950787367217 9.788209637233196 6.849819543250061 0 0 0
2588 1 22.882034615438336 11.02027804724173 5.148339165922588 1 0 1
154 1 1.3728180986981424 13.43163768683397 4.3783207506166235 0 0 0
723 1 3.1668243093623047 15.119173427358652 7.4043677051824925 1 -1 0
1628 1 1.1340109920302723 15.257883220434284 6.1030016878491224 1 0 -1
991 1 2.3700025331657057 11.665774330539854 6.297224180681564 0 0 0
792 1 24.169062182447377 15.036407401224988 6.196013310852711 0 0 0
182 1 18.12530790919584 9.350391285577162 3.960348692803265 0 0 0
2020 1 3.720440145747721 14.133098026770412 5.244202236275667 1 -1 0
1520 1 0.31550244022082885 10.788416818854127 5.124000040486958 1 1 2
941 1 4.992558520758888 16.5630041297076 4.974077386145127 0 0 0
92 1 4.158130460099398 11.809950759304169 4.762273779250808 0 0 0
710 1 6.124109854913833 13.363453147602865 4.9410570121651265 1 -1 0
927 1 17.358919957052507 22.117620030012283 16.23944070927878 -1 0 0
1233 1 6.828319288856518 15.839059901487408 4.45265025451188 1 1 0
1460 1 11.423849217464623 13.850096474326065 4.701732562491234 0 1 -1
2035 1 10.369894318209179 13.607264680945654 7.011304731213841 2 1 1
1079 1 11.975070874088207 15.952102772874396 5.746678044741531 0 0 0
538 1 9.648334850899497 15.59705172472508 5.801949876967836 0 -1 0
1458 1 8.243202510211924 19.4272826328136 16.015091736175023 0 -1 -1
1933 1 7.76340521880902 14.722678448979709 6.39896964419253 1 0 2
2669 1 3.8055891374230564 3.3677202384553886 16.138956006984895 0 1 0
1008 1 16.04055198632411 15.161624772806627 4.210254668959474 0 0 0
84 1 13.529202517898009 14.381584965614461 4.498575688251233 1 0 0
2295 1 15.534022615003833 14.701329235899696 7.385064082591422 0 2 2
731 1 0.04125443038792509 1.554933429666051 3.7638254257602615 0 0 0
1022 1 14.084433465367566 11.757928117668284 5.567577054395114 0 0 0
790 1 19.898901599164148 14.221421905166318 5.722608850177493 0 0 0
292 1 19.673451493170667 13.578224033335507 7.974368998438212 0 0 0
164 1 17.292205008286942 13.183130513590719 7.140477053073601 -1 0 0
709 1 20.445819649551574 15.967412359487971 7.2687300018432905 0 1 0
83 1 21.82463587283032 15.085801423908531 5.9995827481495905 1 0 0
155 1 18.43565875596618 12.285560576316188 5.325576102777976 -1 0 0
2576 1 0.2991128870146138 12.897160803848102 6.82121194635973 -1 -1 1
1000 1 21.91270904078621 14.374108956262493 8.101944202665113 1 0 0
780 1 24.272207027018936 13.081451141821004 4.423050389729977 -1 0 0
2391 1 24.036659598542208 10.302231362451435 7.021598208482413 1 1 2
118 1 21.057514299269975 12.337134776562875 6.191414233924837 0 0 0
772 1 24.62426190452019 16.714094294761082 8.14135304788903 0 0 0
1087 1 23.135831172321367 12.829276141413393 6.795808317077626 0 0 0
1683 1 1.4866727412129153 17.713159245979696 7.181036959594369 0 -1 1
1597 1 0.8523298425112231 16.957910125606666 4.40745506831109 -2 1 2
250 1 2.769871960439568 17.809934450772424 5.204866454111889 2 0 0
1861 1 0.8994876915647763 19.687663011864608 5.873446911652909 1 -1 2
1830 1 24.964285717066886 19.102705061592573 7.903288287328126 -1 -1 0
770 1 2.1902768198212508 19.415008527711187 8.401854278909234 1 1 0
1750 1 2.9380771132219157 20.47980277445121 4.427362937727476 0 1 1
2071 1 2.4422533422297117 5.25678816495812 15.285404135614945 -1 0 1
823 1 6.884022145192032 18.318037687404072 4.6799219435185915 1 0 0
2652 1 3.960999018590419 17.241081946485004 7.244837964274975 2 0 0
2246 1 4.883885774188988 19.30443846168071 5.827635279765369 1 1 2
821 1 6.4285203653502485 17.40882011017758 6.8898921879797355 1 0 0
679 1 7.719913812553218 19.32775877486735 7.762704817462664 1 -1 0
460 1 13.055917315034009 16.62939689214987 3.688349281050065 0 0 0
57 1 8.735805261258431 17.635604662797462 5.678409320777915 0 0 0
2155 1 9.85490640385894 19.45433082268128 6.637107683741872 2 1 0
719 1 8.48683004785044 17.3094410772348 8.643409862509156 0 0 0
2238 1 11.199658794034711 18.262041284371122 5.100723616228013 1 0 2
1718 1 10.64377866629812 17.2194658905415 7.438331698271632 -1 -3 2
1652 1 11.357775795937657 19.076102529239087 8.373197695408756 -1 0 3
2168 1 17.683357756686505 15.429552646858529 6.134323448433745 -3 0 0
2154 1 12.88337641466959 18.34636463868587 6.50871285572417 2 -1 -2
1951 1 14.355750908794953 15.974125849654746 5.908739591604663 -2 0 -3
923 1 14.535703500573408 17.887311885654967 8.36901626495931 0 -1 0
234 1 16.07513827385617 17.277885759574104 6.639434258197132 0 -1 0
147 1 17.32345461096336 18.919367314977535 4.444567629089769 0 0 0
1116 1 10.245996686848224 23.40606224327596 11.33627619668654 1 -1 0
1221 1 19.486789830707224 20.185131665999066 4.083767211213883 -1 0 0
2378 1 19.346702066561548 17.396607240572017 5.481189568261425 0 1 2
1674 1 18.38344672579523 17.168218768918443 7.655064707076756 -1 -1 1
875 1 22.59766516996376 17.120668115556697 6.873767933743871 1 0 0
1769 1 22.56117005102861 16.133947290517412 9.209790604563409 -1 0 1
1966 1 20.998836943654318 20.589888790304272 5.813756457396016 -2 -1 -1
2557 1 20.022316869006275 18.811518683756226 7.880011798851635 0 1 2
1849 1 23.001590932000404 16.778924154537144 4.123188851863883 -1 1 2
2456 1 24.564369761603224 17.53682124580711 5.983947950139122 1 2 0
2066 1 21.54071783271045 18.256023810988225 4.945153118985978 -2 0 1
1124 1 15.768305784279164 1.447744719421741 16.074890545913515 -1 1 0
487 1 22.549432493256717 21.844697076551086 6.800813714135883 0 0 0
2643 1 22.331640077347856 19.374473628289444 7.642358880793524 1 -2 2
880 1 10.925808221683807 0.12269135761411576 13.03616034608092 1 1 0
2305 1 0.911264063008665 24.60986375993611 4.878428681246206 3 -2 2
907 1 2.094801786374218 24.133819511793334 7.060337607562205 0 0 0
592 1 13.154064346089775 6.830112860405079 16.597358045983903 -1 0 0
1953 1 24.977961370598372 21.427190180458275 7.370302269983754 0 1 1
269 1 23.807180474536104 20.37752387180138 5.838086987928134 0 -1 0
496 1 -0.022269085281226314 23.54586015610841 7.630154054895824 0 -1 0
855 1 1.9124692487259494 22.084610619493603 5.733483981629155 0 0 0
1624 1 4.802583071252908 23.099177922033114 6.474558334689787 1 -1 0
245 1 8.931338573249826 23.768071559132416 7.894914906734043 1 -2 0
914 1 8.112331109881767 20.436634650150225 5.6592296116722425 0 0 0
1539 1 5.9814820033841425 20.999112060664082 6.781587253365389 0 -2 1
1227 1 9.738313035002912 21.245893481114564 15.675107641882711 0 0 0
2509 1 7.754888644009823 22.51988001847713 6.340974522909585 1 -2 2
466 1 3.573882494975804 21.228682294991465 6.909475937233999 1 -1 0
49 1 22.148849871283467 23.080777506358174 14.907302760804747 0 -1 -1
1985 1 10.437688479263143 21.918256647220446 6.491695098018537 1 1 2
857 1 9.299239110564226 22.933471714965343 4.812676598468391 -1 -1 0
1432 1 12.40501888551706 20.361414153123334 5.971980167565931 -1 0 -1
1564 1 10.380565226005164 24.54745534627407 5.898097774549221 2 0 1
162 1 11.891886074989387 23.130163038343987 4.9527224509274745 0 0 0
1267 1 15.79165480132467 23.508836786297472 4.06101675731285 1 -1 1
925 1 15.02883492231063 19.349872871433092 5.838129300632945 0 1 0
2317 1 14.06372981780843 20.280970204830027 7.704593037297111 0 0 -1
2369 1 14.500365172060544 21.18669533674806 4.117641183376278 -1 0 -1
520 1 14.763330681222943 22.3676934670684 6.369951540205959 -1 -1 0
755 1 16.33245347730309 21.015050886658692 7.474140908630086 0 0 0
2251 1 16.721557098109834 21.22830802196429 4.975742967099868 0 -1 0
1662 1 18.406173518158013 24.2850091805107 4.484352055904056 0 0 2
360 1 18.843976590106152 21.736993673040423 5.883574867498834 -1 -1 0
304 1 18.278664045829323 22.571444609013774 8.184181748583999 0 -1 0
874 1 10.511271977920071 20.751074301701067 4.552504378241138 1 0 0
1003 1 23.642279405208647 20.998750184560578 13.361321817524464 -2 0 0
860 1 20.405442706139326 22.904611336545962 6.6272278825698825 -1 1 0
1198 1 12.3068638997553 23.37732644641457 16.05916909410591 0 -1 0
380 1 24.318911221218094 23.26407191256868 5.394320352443626 0 -1 0
361 1 19.502843076019182 -0.11252625182366671 6.420786710410902 -1 0 0
125 1 21.15035356175413 23.494468963539006 8.69362182507561 0 -1 0
2407 1 4.163043032882741 0.3889048058807737 7.336862985912595 2 0 1
2273 1 1.5477881262848634 0.13272512857981317 9.246701605935712 0 0 0
2198 1 0.8444339622879986 -0.18400087615687014 11.98523495766284 1 -3 1
452 1 2.953618345770026 1.981763239353603 10.280318281638372 0 1 0
169 1 -0.020282229006992142 2.4647216804809577 8.59316781668801 1 0 0
1146 1 3.7883344929579477 4.18945738286598 9.192636796881537 2 0 0
963 1 0.32551824478562064 1.9741053670158535 11.003349363615033 0 1 0
1551 1 3.711488411880293 3.4551228622704917 11.795110874022978 2 1 0
2493 1 6.550656664210878 1.7198283715121527 7.341919926939022 1 1 1
2665 1 4.902967983623317 0.4959434238025642 9.919418602568694 0 1 2
1142 1 6.61488324182677 0.8790741544998997 11.536938711878745 1 1 0
1872 1 7.232289385843444 2.1992751972502393 9.346645424223922 -1 -1 -1
1232 1 8.899812393116862 2.9943094820511047 7.5856584253532 1 1 0
908 1 4.999771112552692 2.74938696608863 8.238156099973331 0 0 0
210 1 5.549441842769077 3.0589022731295783 10.752599168638191 0 0 0
7 1 8.702275583059535 0.8144569882622887 6.992368756492821 -1 -1 0
172 1 9.363287794419564 0.4730561517191788 11.094545080420758 0 0 0
178 1 9.593856337923496 1.6552323821014383 9.103622892282552 0 0 0
224 1 10.647694609387568 2.04750690316316 11.4466626724534 0 0 0
939 1 11.51339151688466 3.3012798671503147 9.003495302886542 0 1 0
1576 1 10.889841696775376 24.925489544132788 9.072863629826017 -1 -3 1
1153 1 9.464824973533199 3.8820883088736995 10.114564848557652 -1 1 0
1719 1 12.375770922920479 3.7363107877998187 11.15881238381857 1 1 2
1835 1 12.872370338846112 1.6222150296163644 9.942839631561252 -1 -1 0
1099 1 14.36380155137178 0.6285027921949048 11.586644439747364 -1 1 0
791 1 15.529136190429133 1.533163713275914 9.536121158972445 0 0 0
459 1 13.605638829013497 24.418052173424492 9.376838885745514 0 0 0
692 1 15.644385626096263 24.36836114157071 7.694557125276651 0 -1 0
715 1 16.28440306062906 24.171258960111793 12.810322468799903 0 -1 0
2470 1 17.727890932502063 0.8326753725013356 8.23511967908983 0 -1 1
158 1 18.724587553441857 2.9692761696106214 8.651779008486946 -1 0 0
426 1 16.318163142882177 2.4155696300634526 11.861627384220938 0 0 0
1689 1 16.550850321038077 3.3343783698299543 7.77228974033821 0 0 2
540 1 19.542203429129998 2.1807272247111342 11.911563605151441 -1 1 0
1454 1 17.60109065472559 0.6250249632669828 11.406094244460299 0 0 0
965 1 19.60350275335645 0.9303312095510223 9.965202031008698 0 1 0
1779 1 20.65388693626852 3.85455364960577 11.205558551324653 -1 -1 0
2729 1 22.8912813952064 1.8103511163338193 7.446603177920678 1 0 0
654 1 21.995532155644938 1.258982797765984 10.239250220366038 -1 0 0
1358 1 23.454579101312618 2.9682183669315583 10.316744262612069 -1 1 0
610 1 21.270881244060625 1.1629546907686719 12.575583999373539 0 0 0
2593 1 24.711281929335392 2.1936923819226646 13.336632912125935 -2 1 2
100 1 1.8000106913188363 6.833602803226786 7.689858271481159 0 0 0
847 1 4.364451152186724 7.504561836251408 11.485435973718854 1 0 0
2411 1 1.6840085970885526 3.9686598434366465 10.368901784969509 0 1 1
76 1 5.385043327649752 5.215190184027703 7.454813420176261 1 0 0
1255 1 3.041704358106363 9.519668671173811 10.783198346756926 0 0 0
159 1 4.117294119604578 6.586193336453496 8.702110817376429 1 0 0
1893 1 2.2480519196965747 6.020284006852466 10.320953967279895 0 2 0
2554 1 7.583451229862185 5.243537706835118 8.219847820285626 2 1 4
1823 1 7.163679122363625 4.4308044172557635 10.508103896264954 -1 0 1
1161 1 5.06875237729752 5.460458795815686 10.567664691932375 0 1 0
947 1 6.601105043348178 7.0248237416632175 12.132740131297474 1 0 0
987 1 9.85346273016186 5.234224846997644 8.104717446622583 0 0 0
1081 1 11.473772773329468 7.399540706036953 8.613230558639774 -1 0 0
931 1 11.419058366729637 3.7786714554095138 6.907999242964353 0 0 0
236 1 11.373056267169817 5.946282631965721 10.167228408273175 0 -1 0
684 1 11.233216994443769 8.086361104498657 11.057962446622582 0 1 0
2297 1 8.880766103173341 6.006383292260768 10.553685527919725 -1 1 2
1086 1 13.038335813472258 5.806045045509187 12.435920346436845 0 0 0
2402 1 10.920854164173523 6.68648717045093 12.714852600917999 0 0 0
812 1 13.914743504175322 3.1968284660445763 8.498573064450552 0 0 0
202 1 13.552709120897429 8.171522458433953 7.491344450936526 0 0 0
2530 1 14.370616919568157 4.845671744693981 10.407690958968026 1 1 1
1733 1 12.727346129694613 5.301729410416359 8.107306600527686 2 0 2
16 1 15.140997228018762 7.228642343489261 12.079217332546708 1 0 0
508 1 13.552693658098459 7.063080255343778 10.04755767993382 1 0 0
2074 1 15.441034977261149 6.142572688557616 8.22672323265799 0 0 1
565 1 16.251811502602685 3.8131605336705965 10.002793534258467 0 0 0
920 1 17.54855834116251 5.231862369916736 8.703924117796475 0 0 0
36 1 19.83496728009179 4.771997017461832 9.089882724755707 0 -1 0
220 1 18.192760751390757 4.308017344773356 11.11818662420856 0 0 0
2662 1 19.31304096335184 6.372521717955762 10.8389094040441 0 -2 2
1297 1 16.543921750340445 6.559919099168274 10.353935182706472 -1 0 0
274 1 19.13362473863156 6.7627174944536925 7.694140382719924 0 -1 0
227 1 21.133586295226742 2.8461697173587552 8.777964489310365 -1 0 0
970 1 1.3996408836356764 4.738541702495467 8.271922200719978 1 1 0
2370 1 21.29329369431752 6.740464320688221 9.536333673988128 1 0 2
2486 1 22.21655789050495 4.814846712496875 9.636757424142266 0 -2 2
628 1 24.82491124247281 4.865456248159854 10.018063973615325 -2 0 0
1105 1 22.254397219127576 8.564646989816092 12.497590951516571 0 0 0
1841 1 24.647362009677643 9.3542567384612 9.261023357706748 -2 1 2
1074 1 5.095007434113983 9.03756184947898 9.337120961627868 1 1 0
391 1 1.9139716051970188 11.990047173147627 9.045701893376371 1 0 0
9 1 0.9707577618891341 10.558166302642269 11.26277894901823 1 -1 0
782 1 1.6714483114284382 8.508725219912037 9.258588372390697 1 0 0
827 1 3.980264990145865 11.21018087434628 8.98681505058616 0 0 0
32 1 24.35866371741414 11.635742905017896 10.629483760798285 0 -1 0
576 1 6.748359553364614 7.135234097522122 9.396179135362702 0 -1 0
2717 1 6.280032534410944 9.152074811441386 11.244553434411515 0 -1 0
150 1 8.166748741929599 9.661234574540094 9.337397570421185 -1 -1 0
64 1 5.027282735111543 11.589741394355986 10.89995979742 0 0 0
1210 1 6.164560803285603 11.794952385645466 7.857311024310743 0 1 0
2485 1 12.946113530822172 13.514855665753231 6.7816903064655465 -1 -1 2
1459 1 8.601172074578225 8.19920639230057 11.280042795521197 0 1 0
1284 1 9.229810720971676 7.543804662945268 8.681267789504895 0 0 0
124 1 11.09353349191492 11.680298176093213 8.239420631682433 1 0 0
1955 1 10.975790185939253 9.45069362927907 9.21973350189371 0 1 1
1032 1 12.055936790791117 10.683579484516317 12.08139351091617 0 0 0
653 1 7.759256927881536 10.641986296898242 11.739721922751247 0 0 0
912 1 12.430665983095977 11.428425131546451 10.039145041441387 0 1 0
2522 1 9.96964782858365 10.852085335849589 10.478187021899966 1 0 1
208 1 15.448566160204269 8.757227059730821 10.373790971927225 0 0 0
222 1 13.469399130297505 9.721260032741327 9.143636494227565 0 -1 0
909 1 13.311669587856098 8.424469523246765 11.908862283334239 0 0 0
470 1 14.468383703994942 10.731045924885992 11.886919413891935 0 -1 0
356 1 15.098609758413426 8.980388467325037 13.288530920127378 1 -1 0
149 1 18.2029574754324 8.30072079271902 9.565397822013068 -1 0 0
888 1 19.61395789392082 8.733714342020875 11.46296745274672 0 1 0
1945 1 17.142833269754604 10.481809919230507 11.68045706005016 0 2 0
419 1 16.99805496178505 10.090913648134432 8.469648598462783 1 0 0
264 1 19.120235338890836 11.236310043616912 12.592512958072508 0 0 0
142 1 20.352957181803973 8.941567083500376 9.014725122145322 0 0 0
382 1 17.156911594575014 8.138210522217008 12.216113512735014 0 -1 0
2675 1 21.796981582565998 12.768962732300437 12.755266949317988 -2 1 2
775 1 23.868065244859615 12.680641571279851 13.734839760710146 0 0 0
2468 1 0.11708692609404275 6.930144367999591 10.068064710325041 -2 2 1
533 1 21.528439119443526 10.472627583986936 11.342673013776821 -1 0 0
493 1 22.891539388468537 8.282036598617195 10.436435076963608 -1 0 0
1140 1 23.56373238294065 10.644709994677438 12.795272825800643 0 1 0
1644 1 22.646056017772608 10.492250154211192 9.511224697807052 0 0 1
1206 1 0.6936119079353603 13.494785516252675 10.335937493569391 0 0 0
1815 1 4.429327380709895 12.92194922514765 7.0234707240329985 2 0 0
2013 1 24.87992604515614 11.904820085008325 8.60616819370663 0 -1 3
431 1 2.032928987458546 16.747312342445873 8.976601784373521 0 0 0
1807 1 2.8492715410067215 14.330795182477878 9.533354993731791 -1 1 1
2494 1 4.131206265909158 15.795082122351856 11.258449260079502 -2 -1 2
2051 1 7.382691979361575 14.007665383756116 8.46706368027532 1 -2 2
720 1 6.765388193097619 14.797470822944598 11.076776197365888 0 0 0
831 1 5.035600399975941 13.734143751864941 9.442338303417129 1 0 0
868 1 6.9406726193237835 11.762033226027441 9.90522286316449 1 1 0
355 1 5.458813845766176 15.11031100935489 6.827211291195213 1 -1 0
1553 1 9.049893978663942 12.538614688430956 8.558830343571518 2 -2 -1
1559 1 5.867315378670454 16.1414043199768 9.198669250913563 0 -1 1
2575 1 8.778092583524213 13.472389194737964 10.809683468721392 0 -1 2
957 1 9.811497293162759 15.057262238388438 8.974208826663617 0 0 0
1245 1 11.418192299637667 13.546021745439226 9.448387039656547 0 0 0
1289 1 10.317073183559936 15.67994841025546 11.684252219763465 0 0 1
2515 1 11.34421785552679 13.02284483957891 11.754496019317255 1 0 2
1356 1 12.461988429871536 15.933663536419301 8.025815814187283 -1 1 0
980 1 15.319658539627865 11.43280412560249 9.905152632357275 0 0 0
873 1 13.627919374963499 13.116429625509857 11.618091834503971 0 1 0
971 1 13.975646184945349 13.23463273156177 9.068403108544874 0 0 0
1514 1 16.168306159146013 14.15013064879945 9.67298526776459 0 -2 -2
1103 1 12.207481195702814 15.574338882208162 10.780298604964006 0 0 0
887 1 17.714880258931785 14.881791515197069 12.860823805201477 -1 0 0
72 1 19.087987577630635 10.659168425878107 9.889224600260093 0 0 0
978 1 18.223245912137457 13.527286167220268 11.016544843908054 0 0 0
440 1 17.4152652157159 12.129625868649214 9.431026069416511 0 -1 0
1035 1 20.359708508824184 12.511812556711803 10.270856113749733 -1 0 0
263 1 19.770720784507937 14.933923770909827 9.872795782008698 -1 0 0
622 1 19.49231220149897 13.559326577197611 12.920538710206518 -1 -1 0
1859 1 17.60055739940038 15.764487253591092 10.940389598101277 -1 -1 3
1614 1 1.2323254572158786 14.511048695204808 8.270093437637865 -1 -1 2
2069 1 21.395343996708768 14.927785000303626 11.094786566597701 1 -1 -1
207 1 23.596310591772045 13.92005587926946 11.307870861487483 -1 -1 0
1010 1 22.515627248840914 12.632318196091575 9.605651432639526 0 1 0
1002 1 24.260934521914145 14.095309869368444 8.49857141874529 -1 0 0
2164 1 23.553465115295253 16.652835338424858 11.610645025577112 -1 -1 0
844 1 1.7239107532203457 16.196668334649054 10.956502681346848 1 0 0
2312 1 -0.1382324313617851 18.1659205044039 10.11246281152058 0 -1 1
2361 1 4.001000213404337 18.021541178688516 12.296906177340116 0 0 1
146 1 3.91660241095693 17.756571904217886 9.724041911965166 1 -1 0
2660 1 24.521287114512262 21.247179986965783 9.498787001389314 -1 1 0
2705 1 -0.18592795610809532 15.716667617629083 10.00970321375414 0 2 -1
2426 1 1.9616054907056024 22.111861723491742 8.64897382156714 2 1 1
254 1 2.504758235329227 19.828698441843088 10.456038720363335 0 -1 0
2469 1 4.939240619401345 19.97561884929054 10.977932031541451 0 2 2
1020 1 4.571570757259085 19.391273125765984 7.9788514276999045 0 0 0
513 1 5.97306978666109 17.047516408522412 11.516593126885061 0 -1 0
2226 1 7.278231074121014 19.645891931636434 11.638062662767872 2 1 -1
922 1 6.190306615955518 18.499654308850012 9.387015507776074 1 -1 0
2570 1 10.433033042351523 17.111692631802647 9.738347305345165 -2 0 0
51 1 8.06700287834395 16.436311160315483 10.529933212396774 0 -1 0
2291 1 11.116580778250185 17.009592064583693 13.239342229534582 2 0 0
1916 1 9.01546913595485 19.458616762255637 9.774058005794107 0 -1 1
20 1 8.962491206859589 17.96947887062565 11.840061972266822 0 -1 0
2612 1 17.841361519808466 15.066705859500184 8.54253213371408 1 1 1
31 1 11.204547371313497 18.588975620951743 11.80977544226613 0 -1 0
302 1 14.197230660532682 15.670903395299483 9.411455690848904 1 -1 0
369 1 12.820090720967404 18.144100911977574 9.77932141574792 0 0 0
1593 1 15.26211850874063 17.99692141162909 11.023831224086472 2 -1 0
1855 1 17.16467163431222 19.06624460260938 8.89272827035348 -1 0 0
1941 1 16.504119461947496 16.93161782080304 12.465202428095301 1 -2 1
1682 1 16.516936811666056 16.871660848432853 9.227089805946886 0 -1 0
190 1 19.989084860441345 17.28624054749607 9.709017973515383 0 0 0
964 1 20.44649960382972 19.602687191081458 10.526691494118538 -1 0 0
2371 1 19.455106788684 16.43255865328532 11.8895238122263 -1 -1 -1
848 1 18.029674468321822 18.452999924221402 11.441087752837642 -1 0 0
170 1 23.04356058012862 18.437173762586454 9.486373275622544 0 -2 0
2258 1 21.77197180930932 16.150035846862203 12.95378562482701 -1 0 2
1402 1 23.774875362400884 19.126001753485816 11.726735047230315 -2 0 2
1971 1 22.22798463541986 21.18386375205114 9.406656829048565 -1 -2 1
1665 1 21.43798532843779 20.78455820528781 12.023196480587721 -1 -1 -1
871 1 21.572489833655354 17.812247309163205 11.261477695192973 -1 0 0
1042 1 1.717193176376635 22.33836515152548 11.359461645283307 0 -1 0
1884 1 0.7547533418318909 20.17272698640881 12.131007088205461 -1 -2 0
2033 1 3.5188537112660736 23.59996518267826 8.895858955302982 0 -3 1
2417 1 -0.15118342333507728 23.49690934525249 10.35132252337523 0 -1 1
476 1 6.7723105815686235 24.548786114992936 7.055337239400489 1 -1 0
1106 1 7.352050953957861 -0.09928961464824615 9.323700307979903 0 1 0
1899 1 4.279831237731435 21.388009303432696 9.261487076180726 -1 -1 3
1174 1 5.867065920515363 23.38789678145897 10.672521173241414 0 0 0
1513 1 5.917373394814721 23.099543504161772 8.352991972619094 2 -1 1