LAMMPS data file via write_data, version 29 Oct 2020, timestep = 150000

2016 atoms
1 atom types

0.21933145758680794 21.044668542413778 xlo xhi
0.21933145758680794 21.044668542413778 ylo yhi
0.5117734010372956 49.104226598961716 zlo zhi

Masses

1 58.933

Atoms # atomic

8 1 3.3687665278977614 1.9150560539306185 2.5743967212936205 0 0 0
146 1 1.8297633359909289 1.94381894701721 4.154833619121099 0 0 0
173 1 3.7148641951413692 3.661464808799395 4.03455512439306 0 0 0
149 1 3.3120913881487026 0.4238386210832594 4.221848027435225 0 0 0
3 1 1.8530588298237287 0.41871130665896583 2.3969859532681372 0 0 0
27 1 2.2522049950254472 3.744929481440951 2.305403548818727 0 0 0
145 1 20.869591934926707 0.5352104076459767 4.184546315086086 -1 0 0
17 1 14.09018404615209 0.26953870080130116 0.7654032243904778 0 0 0
493 1 20.90363337200389 17.703898734658726 11.027004367114182 -1 0 0
12 1 7.011247300121785 2.374561830796189 2.352413039057098 0 0 0
31 1 5.111724590405334 3.7680856992277945 2.0607901852859882 0 0 0
177 1 6.782192123932809 3.8377234570589014 4.188172782382511 0 0 0
150 1 5.273352336378909 1.9713191940654173 3.9565087908919163 0 0 0
7 1 5.26150814587052 0.31641325594760394 2.2941623202052512 0 0 0
503 1 17.20726994232648 17.14101947709307 10.992258483504944 0 0 0
154 1 8.620231627927692 2.2348752206959435 4.127878356941039 0 0 0
14 1 12.389711445150803 2.2015233661238263 0.8996733812645519 0 0 0
35 1 8.564828318622645 4.388155322321276 1.9574298461861925 0 0 0
16 1 10.152650989328164 2.4055825478514294 2.340198803894963 0 0 0
181 1 10.155933680580365 3.8492928571717955 3.953056691736582 0 0 0
158 1 12.082335655743456 2.2357387392376267 3.9566906027781106 0 0 0
39 1 12.133468472912826 4.1035321677158745 2.3238688704155583 0 0 0
15 1 12.026177684191357 0.48881451040762786 2.4099908392089184 0 0 0
94 1 19.36401233837772 12.387517994963662 0.7220697954820705 0 0 0
20 1 13.8199901119859 1.9869173314231114 2.4903168744051047 0 0 0
42 1 15.82287847364878 3.6235159893271813 2.068004939338982 0 0 0
185 1 14.070527778217283 4.001836103571428 3.853803257655395 0 0 0
162 1 15.671723749672752 2.2121925040299897 4.093201825220504 0 0 0
19 1 16.04247879969782 0.27792192904988566 2.272519269268363 0 0 0
161 1 14.09034894581136 20.967556432315135 4.0755671560211475 0 -1 0
78 1 5.558915598741871 12.159740817256138 0.7874239279175195 0 0 0
1703 1 15.949184782693331 5.529462461196188 0.5946690354023542 -2 -3 1
1920 1 14.13066001772358 3.6569123499862375 0.7781774636627437 0 1 1
4 1 21.018683001154404 1.873672871769592 2.1839573436952078 -1 0 0
53 1 1.748007665513906 9.155298547589489 0.8208743474408047 0 0 0
169 1 0.4761461675801004 3.74890735313022 4.0774921046941275 0 0 0
24 1 17.460734262369325 1.7527806550465006 2.618470755043721 0 0 0
47 1 19.307233622635497 3.9341261017146802 2.5691642002147494 0 0 0
189 1 17.288264079949762 3.609716111424049 4.039533106794711 0 0 0
166 1 19.351958591558372 2.133330144103354 3.8306732236973855 0 0 0
23 1 19.31467242617345 21.023072191190238 2.568222862517788 0 -1 0
504 1 18.995732567134375 19.372222409043186 10.860177405119694 0 0 0
165 1 17.33351961164477 0.397547066281458 4.12649380558297 0 0 0
109 1 8.236974441914635 15.906544681259998 1.0362427373429755 0 0 0
86 1 12.472591815272033 12.533888790743815 0.8643156118046071 0 0 0
32 1 3.494015146440238 5.468058669034496 2.1090671865665236 0 0 0
51 1 1.6529035090356752 7.147567637236467 2.304523413180933 0 0 0
170 1 2.098973531701578 5.506175499655797 4.032910780473157 0 0 0
197 1 3.469989213688666 7.642644357535155 4.206652083238179 0 0 0
28 1 0.5327843181820593 5.353898457740228 2.193790480584716 0 0 0
69 1 17.79357672595361 7.577668525559471 0.699688740957732 0 0 0
36 1 6.664751774260818 5.612404014342134 2.633222012531405 0 0 0
55 1 5.282827820678302 7.113273856782182 2.299188650076688 0 0 0
174 1 4.754664101361342 5.616272843035243 4.10914510955369 0 0 0
201 1 7.111802785562739 7.301485105955145 3.881654388137078 0 0 0
59 1 8.976290646224982 7.309028685839334 2.287983493490294 0 0 0
178 1 8.583982323811973 5.510533525340859 3.9846249498747714 0 0 0
126 1 5.339285147737562 19.573457013042468 0.6511957323719595 0 0 0
431 1 19.065875181721836 17.51928878439521 9.651669936609917 0 0 0
40 1 10.549212329722861 5.722733821597406 2.368397249826593 0 0 0
205 1 10.088000625971155 7.1959337756932715 4.367702514270908 0 0 0
63 1 12.413626024779921 7.05053478155802 2.1118681521243508 0 0 0
182 1 11.941737927530344 5.514263078484879 4.258143325328003 0 0 0
10 1 8.54271391490701 2.4670646311432183 0.584895905341557 0 0 0
44 1 14.170456599265746 7.174881866809217 0.5337527168241281 0 0 0
142 1 19.45756867268658 19.495611101089487 0.6780481138735284 0 0 0
41 1 14.054759589227704 5.488798023486213 2.2178745421998984 0 0 0
67 1 16.032031913797994 7.020651139882796 2.2439949598717908 0 0 0
186 1 15.811571719508628 5.512033539960162 4.000569689242443 0 0 0
209 1 13.904071493081323 6.801411058352304 4.070592045280561 0 0 0
193 1 0.3864102038711927 7.254242618448732 4.124797928946282 0 0 0
48 1 17.420904464505888 5.265977037281602 2.344838361558499 0 0 0
71 1 19.460441427406394 7.25718738884807 2.2415986092360782 0 0 0
190 1 19.452424670418047 5.996397575600918 4.094189097178076 0 0 0
432 1 17.43057892783402 19.29110293990164 9.41837052205762 0 0 0
56 1 3.6549478217753633 8.729949402220683 1.9536421759119036 0 0 0
75 1 2.331622613582237 10.710228996716602 2.5434129569343162 0 0 0
221 1 3.9031589834871316 10.327892857699391 4.286527561361895 0 0 0
194 1 1.963742011314481 9.223366915501266 4.1698578915119 0 0 0
80 1 3.828838261279614 12.692851323095445 2.2420290056391887 0 0 0
73 1 2.184777776752382 12.476752357133392 0.8583417837390739 0 0 0
49 1 20.84920531893371 7.266341691781887 0.5514924912866184 -1 0 0
138 1 15.877303419406422 19.215078569393203 0.5270280068726977 0 0 0
77 1 3.7604341644656274 10.398929743858673 0.775132020864485 0 0 0
130 1 8.902837360363266 19.75842920307399 0.6298513370867489 0 0 0
134 1 12.207522189518317 19.70629803726989 0.7445052276596085 0 0 0
60 1 7.081224663902216 8.882716713477345 2.3487439717252485 0 0 0
79 1 5.247597466821083 10.29611016299352 2.405926824002962 0 0 0
198 1 5.376277722534706 8.876611607171245 4.0158998122579685 0 0 0
225 1 6.968163035821606 10.50630707085792 4.2719760645639555 0 0 0
84 1 7.241411651120344 12.435798276492045 2.5999517175067233 0 0 0
222 1 5.300772634583818 12.42857802177932 4.186303052092425 0 0 0
43 1 17.62324581729663 3.688840547839779 0.7066044515107232 0 0 0
97 1 17.567082359876803 14.328131442694955 0.6918921896524717 -1 0 0
121 1 0.3221581893110268 17.959680122734127 0.78440640374785 0 0 0
83 1 8.689079487615869 10.809452051253391 2.6723444579057416 0 0 0
202 1 8.725608349816596 8.986207100142716 4.2816432165001235 0 0 0
64 1 10.490092127343532 8.923681882136933 2.448820439638596 0 0 0
87 1 12.441069286406295 10.587565228638416 2.151930873452117 0 0 0
88 1 10.522393637783125 12.608582840954188 2.58704576847615 0 0 0
206 1 12.55948253072195 8.728772963596276 3.900433537929383 0 0 0
226 1 8.942348488078645 12.58404265619932 4.175632737300111 0 0 0
229 1 10.63165085430626 10.430540758944302 4.057319903056389 0 0 0
98 1 1.8612089668240281 15.78918001067069 0.9834619976361043 0 0 0
18 1 15.882360248587041 1.966675144001356 0.8073073740122696 0 0 0
13 1 10.22046098517751 0.7872693340549579 0.5308645873936267 0 0 0
68 1 14.16322493454574 8.507745177189426 2.2846592058244957 0 0 0
91 1 15.992579928149933 10.616168802445138 2.391485758567386 0 0 0
233 1 14.017751993010645 10.779902252156598 3.913769210551645 0 0 0
210 1 15.92652605093421 8.81950110980875 3.8268937346487433 0 0 0
92 1 14.04380241074882 12.468519993376907 2.616187046306345 0 0 0
105 1 6.44746570320219 14.182670216934246 0.5904068739189045 0 0 0
110 1 12.13264695700482 16.16584458879879 0.5689094574795842 0 0 0
76 1 0.2772488193976631 12.586496094032556 2.5962370105193724 0 0 0
129 1 7.163448669565301 17.88960464744311 0.906370506489004 0 0 0
57 1 7.201448582151833 6.9842809421795735 1.0736084510265305 0 0 0
217 1 20.84954268104569 10.92262889976908 4.027367379365588 -1 0 0
52 1 20.83700035369418 8.927485030025416 2.5317068115268575 -1 0 0
72 1 17.79724424613333 9.084601524797495 2.34668210884431 0 0 0
95 1 19.28595037865684 10.788467731897034 2.4385734657239513 0 0 0
237 1 17.389403009561605 10.805094551922968 4.101777084384645 0 0 0
214 1 19.368304197321063 8.787624028646098 4.09105803779332 0 0 0
238 1 18.850606027178628 12.883006874511391 4.289771332471975 0 0 0
96 1 17.835876443547907 12.530319491762285 2.486866009604264 0 0 0
218 1 1.8555978641357396 12.360110299607983 4.361777438529034 0 0 0
99 1 1.827027430236936 14.249813988782346 2.5227833799307513 0 0 0
104 1 3.616216345917921 15.827106408036338 2.614127673248542 0 0 0
245 1 3.7413768741439024 14.34473919587037 4.348374496643425 0 0 0
242 1 1.6171179827682751 15.850073962190415 4.649218132580147 0 0 0
90 1 15.989953801906102 12.699738438449517 0.5865299831856439 0 0 0
122 1 1.8195279191661689 19.518541056397837 0.8220258530180133 0 0 0
416 1 3.3263029067126677 19.36376013731766 9.049580347596297 0 0 0
103 1 5.358224825700838 14.251058723946684 2.6319895033120013 0 0 0
108 1 6.868429449840561 15.924507349668934 2.6668720395173553 0 0 0
246 1 5.190760036172928 16.008768206304858 4.433143285454725 0 0 0
249 1 7.108575882162468 14.26602456797586 4.121115055163384 0 0 0
22 1 19.279110616409014 1.6294331524913408 0.7910315808610069 0 0 0
102 1 5.245736828589517 16.35314157459144 1.0134964035048952 0 0 0
81 1 7.203181244868894 10.466388405424633 0.565317452821779 0 0 0
107 1 8.614278564294018 14.172812716947119 2.438804120321464 0 0 0
250 1 8.833330919394383 16.028838676148972 4.076361403516582 0 0 0
112 1 10.408017119417773 15.836180373799383 2.2523409002320447 0 0 0
111 1 12.212193442889388 14.621282058891435 2.2663737765183507 0 0 0
253 1 10.791131359531049 14.51559731917054 4.13588497294766 0 0 0
254 1 12.32356819117531 16.251393888868698 3.7658542336508294 0 0 0
230 1 12.094865934724638 12.205857523280864 3.857308665930737 0 0 0
125 1 3.621480997050234 17.916789711199343 1.0561448659298613 0 0 0
234 1 15.856238163804068 12.678764618392705 4.047717655058831 0 0 0
115 1 15.727009925806394 14.27578093752889 2.297419877456705 0 0 0
116 1 14.217285207680114 15.964347099279909 2.272200971949414 0 0 0
258 1 15.640316399721408 15.902108806058623 3.8959649484786563 0 0 0
257 1 13.832742012483108 14.277336492766961 3.835189421096287 0 0 0
411 1 1.8054238495681707 17.4490409821055 9.599189574037183 0 0 0
501 1 13.950402724069047 17.682920936369545 11.08023446815398 0 0 0
241 1 20.951244707273315 14.283746759981863 4.216341406724038 -1 0 0
100 1 20.671468094138746 16.33059767367632 2.477624156406838 -1 0 0
119 1 19.650396703192605 14.358696117622568 2.20536886687578 0 0 0
120 1 17.962081119530907 15.709335268283548 2.4196272109451873 0 0 0
261 1 17.43704022562138 14.292697004364278 4.167711200025417 0 0 0
262 1 19.071135442396773 15.914770776164426 4.353174026897912 0 0 0
494 1 1.6272454630666495 19.3165219655514 10.950409507874856 0 0 0
123 1 1.7197534116467634 17.540585997120335 2.683931896175345 0 0 0
128 1 3.470714643308172 19.44446544595185 2.4689488134166337 0 0 0
269 1 3.134669126583102 17.548925443092106 4.190502718051861 0 0 0
266 1 1.7983895866215407 19.711931288580207 4.305499954908617 0 0 0
265 1 20.79010312499126 18.079707172278294 4.36569730784524 -1 0 0
495 1 3.35275527927694 17.670388485756796 10.911495980720685 0 0 0
153 1 6.970507784296263 0.49224052901488236 3.8518984039069912 0 0 0
560 1 10.536760723725113 15.97208868360884 12.586736620736959 0 0 0
127 1 5.198467549651619 17.798740827657532 2.7223305200998755 0 0 0
132 1 7.102161574388999 19.598125133673946 2.1517891253884747 0 0 0
273 1 7.268407090716866 17.809846491027773 3.7643446549225343 0 0 0
270 1 5.0797160774037176 19.465650831486013 4.1673980674374 0 0 0
33 1 6.715439931355198 3.938658330245835 0.6175406715893916 0 0 0
502 1 15.701535701774366 19.141702527531915 11.374371631053252 0 0 0
427 1 15.68487537128687 17.299242928574163 9.23665970373725 0 0 0
157 1 10.421396506147717 0.4315376395206765 3.908953595136046 0 0 0
11 1 8.783305411029499 0.6682123645542748 2.2570570145794613 0 0 0
131 1 9.041894571957641 17.621967699251613 2.2292544007903 0 0 0
274 1 8.866628934176356 19.573986299584817 4.063671474718053 0 0 0
136 1 10.504967849315287 19.543642108784073 2.3492378635782076 0 0 0
135 1 12.17436953992449 17.955695672665016 2.5150014705484627 0 0 0
277 1 10.67140694161391 17.835504136292734 4.259935978788679 0 0 0
278 1 11.878966668556732 19.694877857929786 4.127909014252934 0 0 0
561 1 16.17188240381094 14.250695595323654 12.6003860219809 0 0 0
137 1 13.706227178091556 17.539832994094972 0.7630090495954618 0 0 0
139 1 15.899044918688382 17.691812151471925 2.2172328030846593 0 0 0
140 1 14.08445676728678 19.321193369208405 2.301772339151661 0 0 0
281 1 13.877811041430013 17.85099355350048 4.208314971176898 0 0 0
282 1 15.615661158203432 19.36341391137795 4.185462848128168 0 0 0
428 1 14.265648446942594 19.37844612365723 9.45932002906206 0 0 0
412 1 20.804229153030743 19.628365428085864 9.443593960049881 -1 0 0
423 1 12.214296330970296 17.89475057950378 8.87984591089257 0 0 0
1178 1 10.581004032214828 14.182502268195142 0.7435525008217562 1 -3 1
124 1 0.24241487593087285 19.598586764620702 2.438122601939111 0 0 0
144 1 17.473657547876492 19.402632645317993 2.506961896957897 0 0 0
143 1 19.092767924939558 17.875081679051068 1.9992373151838274 0 0 0
285 1 17.277490718412942 17.569296894868085 3.8586912434072094 0 0 0
286 1 19.093684492369142 19.140509083391663 3.8754695616209025 0 0 0
114 1 15.82671532815192 16.270961428843073 0.5183834943314747 0 0 0
152 1 3.3095092050069046 1.8705113198719852 6.024285087396802 0 0 0
171 1 1.7209060254070228 3.82383629343522 5.98652234548716 0 0 0
290 1 1.7874179341139829 2.351714373438526 7.699302740643241 0 0 0
317 1 3.7072468999584913 4.008904840266002 7.565361269103739 0 0 0
147 1 1.408235244496276 20.86676610177795 5.951273302358823 0 -1 0
313 1 20.78190674927669 3.8127019374632307 7.678656919591101 -1 0 0
293 1 3.577845962510103 0.3955034814493388 7.569484480200324 0 0 0
156 1 6.9740988952386544 1.9337578640346562 5.771562099047221 0 0 0
175 1 4.909198863018642 3.8473739909851483 5.824841919549511 0 0 0
294 1 5.1570542736249845 1.8637281986362175 7.373072667034305 0 0 0
321 1 7.102791531603888 3.671661886656924 7.512509876471661 0 0 0
151 1 5.158644055382277 0.4254128978941415 5.6726128225678565 0 0 0
297 1 7.068791253838487 0.23497367167475147 7.560927717268635 0 0 0
298 1 8.82998646352707 1.9752957641139468 7.655538656064184 0 0 0
179 1 8.667344354634706 3.8629521061348955 6.038365604178833 0 0 0
160 1 10.44368780543002 1.8761158968784408 5.728755073257011 0 0 0
325 1 10.50507417123468 3.7033304764473716 7.696359829086971 0 0 0
183 1 12.295594193450768 3.7148047223414014 5.763792071475245 0 0 0
155 1 8.80401255276869 0.4529691809105049 5.631879989243496 0 0 0
301 1 10.603873055322527 0.28681005003250704 7.603840769778138 0 0 0
159 1 12.215523806478283 0.5113929573698295 5.6405730687575195 0 0 0
302 1 12.207718736976902 2.257710663486935 7.578175622162234 0 0 0
164 1 13.853899211151942 2.2757802629284565 5.58488588692951 0 0 0
329 1 14.000118384536943 3.783774791589562 7.634038536408564 0 0 0
306 1 15.70255774114913 2.2531381734991602 7.631332225613033 0 0 0
187 1 15.735968099537452 3.797751987951617 5.9029899337923215 0 0 0
305 1 14.027316366223973 0.5837026106698616 7.43135813030068 0 0 0
163 1 15.598388773195051 0.5759935471737969 5.84742322183744 0 0 0
289 1 20.42107255608825 0.4129920909182209 7.721057451898356 -1 0 0
148 1 20.981326937725193 2.158048887359427 5.653439650302417 -1 0 0
168 1 17.5225694196205 2.050892647919202 5.738178244219836 0 0 0
333 1 17.527905159096417 3.873767539658406 7.91144278490371 0 0 0
191 1 18.785032293511616 4.101857053766825 5.889415216179698 0 0 0
310 1 18.975218946540913 2.1673080137732192 7.426336612288201 0 0 0
167 1 18.91496239926976 0.5665979571103943 5.809571498906861 0 0 0
309 1 17.50285651062113 0.6644966185146066 7.719233974916973 0 0 0
176 1 3.243534530455291 5.997328250930019 5.996607205616013 0 0 0
195 1 1.5707413630726068 7.219470985231311 6.1145936803878 0 0 0
314 1 1.7525092978245884 5.433814845225349 7.514477939899634 0 0 0
341 1 3.832990626767733 7.2756381126240175 8.039010657900285 0 0 0
172 1 21.026796159696104 5.4574737466062695 5.391797298666021 -1 0 0
180 1 6.708145663192351 5.866458471038289 5.950230836429567 0 0 0
199 1 5.050620114427471 7.75185048057652 6.030981415344381 0 0 0
318 1 5.407776739574339 5.497017318341754 7.651661952080341 0 0 0
345 1 7.219590025762198 7.1406604095041155 7.83312515937581 0 0 0
204 1 7.362886603258651 8.796483183502529 6.299576883779878 0 0 0
203 1 8.688158165882411 6.779475528344467 6.016347330889368 0 0 0
322 1 8.822642610435834 5.478068012815213 7.79331905053762 0 0 0
184 1 10.56383501099478 5.109209923966607 6.058410868594797 0 0 0
349 1 10.649062626328325 7.019909817062716 7.770916159529329 0 0 0
326 1 12.22863137157887 5.269293840326752 7.630545603442104 0 0 0
207 1 12.002910435211012 7.103393732924084 5.61167128694092 0 0 0
188 1 13.876286178619214 5.345868878852043 5.6172936967706715 0 0 0
353 1 14.03388454644003 7.052137027367125 7.3295053662059795 0 0 0
211 1 15.77894023815832 7.34390367409941 5.515712796577561 0 0 0
330 1 15.925315722008818 5.659303585214272 7.10778427400834 0 0 0
213 1 17.71747727651251 7.279505625139966 3.9263116442972867 0 0 0
337 1 21.034761888690422 7.413572783400644 7.844129751414283 -1 0 0
357 1 17.111076214740674 7.887755073386943 7.334502670105576 0 0 0
192 1 17.53544816023725 5.883655716097977 5.715644723898823 0 0 0
215 1 19.45568823340483 7.314650811945646 6.006629158534781 0 0 0
334 1 19.350741986230542 5.65225079250867 7.999673684549065 0 0 0
200 1 3.357945954100817 8.562333677080142 6.085144732205932 0 0 0
338 1 1.63575628824227 9.286165810256875 7.562864110014274 0 0 0
219 1 1.9741296956533936 10.755044734213374 5.952532005790343 0 0 0
365 1 3.5925941300779156 10.452818539439019 7.689997575236994 0 0 0
196 1 21.01535819207337 8.889588106762668 5.612646229148513 -1 0 0
342 1 5.246980308179661 8.674863007147728 7.952395799674067 0 0 0
223 1 5.248382800181467 10.363089367881823 6.035902019746977 0 0 0
369 1 6.804335845430565 10.713757511975532 7.490148473279336 0 0 0
366 1 5.0091352997416125 12.441320056997013 7.708575433336946 0 0 0
370 1 9.009410677202988 12.122443781933008 7.451363120221763 0 0 0
228 1 6.876064555679849 12.40160487167125 5.7703307542855 0 0 0
346 1 8.927634720154838 8.7654665122351 7.446106464105957 0 0 0
227 1 9.094403391237252 10.951890120071951 5.766383052707392 0 0 0
350 1 12.434710073178929 8.55201588833503 7.3142983664603 0 0 0
208 1 10.593272183144807 8.794320602166348 5.810322387252594 0 0 0
373 1 10.870026629430507 10.4250311997243 7.170726840599192 0 0 0
231 1 12.453685661753047 10.375269561801561 5.585538739925794 0 0 0
232 1 10.728885836588224 12.694064396488622 5.462482189140084 0 0 0
374 1 12.561248031535639 12.320952984059673 7.190419248444436 0 0 0
354 1 15.590800375537825 9.11681890831555 7.7322260291637415 0 0 0
212 1 13.99544915467749 8.581916914988017 5.365114871630934 0 0 0
377 1 13.935431051348836 10.629903911933296 7.664113721273171 0 0 0
235 1 15.476729768799313 10.64711711024621 5.881677923140797 0 0 0
236 1 13.89890881602909 12.536185818551417 5.590382291167867 0 0 0
220 1 21.002125270551062 12.331586841713872 5.891509462161068 -1 0 0
361 1 20.829450270733947 10.432368201140402 7.651799316816636 -1 0 0
216 1 17.61264890657987 9.045123226250283 5.402077720512134 0 0 0
381 1 17.473416786772336 10.550966602838646 7.52424294115069 0 0 0
358 1 19.173310792932106 8.949013207226244 7.831862158289136 0 0 0
239 1 19.181684970513082 10.682388312768298 5.612705273055506 0 0 0
240 1 17.549752051686593 12.555804949688454 6.261504672241684 0 0 0
224 1 3.5418494509097163 12.555245585839797 5.79044611130129 0 0 0
362 1 1.7958098458294247 12.34109073720804 7.772037598981676 0 0 0
243 1 1.9887669245621395 14.039563507460674 6.098628492669858 0 0 0
389 1 3.4773377514708685 14.116176980744555 7.5829789755832655 0 0 0
248 1 3.5139799124145243 16.031958814777937 6.0515288952992385 0 0 0
386 1 1.6960211346057805 15.91298995573976 7.493891598032538 0 0 0
247 1 5.341641678102599 14.248789799172295 6.0221679746650505 0 0 0
393 1 7.041147243260012 13.990384697761424 7.532475089068967 0 0 0
252 1 6.948134040485468 16.036858656904307 5.613610651183611 0 0 0
390 1 5.6834118487583565 15.924319566118726 7.607174972036281 0 0 0
251 1 8.956290395582153 14.36889867470572 5.862079150709755 0 0 0
394 1 8.426932213389081 16.22914933824502 7.216994887834363 0 0 0
397 1 10.546272709329301 14.159188071639209 7.7156124202710785 0 0 0
256 1 10.623131460653042 16.073831391103216 5.763342936530206 0 0 0
255 1 12.21446038885102 14.225560838470606 6.0245301483851454 0 0 0
398 1 12.283562443369945 16.06976806131942 7.495443755903755 0 0 0
378 1 15.673455355169825 12.374795907706352 7.223281626334316 0 0 0
401 1 14.055219324774349 14.108201163203951 7.634508094788078 0 0 0
259 1 15.508700640392691 14.200193854175236 5.4953704501453995 0 0 0
260 1 13.678900861977262 15.828554196314784 5.621771617977345 0 0 0
402 1 15.26640443822295 16.039763189962777 7.215469514177819 0 0 0
385 1 0.3127602185314835 14.128965651395546 7.4767886667780505 0 0 0
244 1 20.75391828137169 16.05346325421688 6.248448785961203 -1 0 0
382 1 19.12482683799455 12.16260686626977 7.535669161697767 0 0 0
264 1 17.249287034795096 15.965028724585922 5.738557674658087 0 0 0
405 1 17.158415806463402 14.459327284637219 7.643412477629263 0 0 0
263 1 19.206021526033513 14.157167296964369 6.454787049157389 0 0 0
406 1 18.984309584849438 16.229044520251605 7.451613750851868 0 0 0
413 1 3.595707253433546 17.778528624793303 7.752143770107782 0 0 0
267 1 1.6307381297186783 17.97836540200883 6.169059784130775 0 0 0
272 1 3.3889177580272154 19.479547669969037 6.057439001969107 0 0 0
410 1 1.4346447200348615 19.545343726278862 8.041125084542145 0 0 0
409 1 20.564757169090143 17.67574280789779 8.020198039572078 -1 0 0
271 1 5.085610601920557 17.70953142337922 5.927379091169532 0 0 0
417 1 7.16685522650809 17.9536382162216 7.748426851603497 0 0 0
276 1 7.068065649491249 19.355291154337323 5.717396540634785 0 0 0
414 1 5.2945734279155054 19.525972526726097 7.670846066937689 0 0 0
418 1 8.79292946295936 19.276846065839905 7.466097391480945 0 0 0
275 1 8.771682603060329 17.84834678743566 5.483799641638167 0 0 0
421 1 10.510648006691083 17.677994114694844 7.3122239616183435 0 0 0
280 1 10.54710538184115 19.62490767438307 5.950905439820308 0 0 0
279 1 12.479085296377857 17.836550669588046 5.844988492991684 0 0 0
422 1 12.252964858569378 19.74209882880837 7.6165860035640085 0 0 0
283 1 15.571809872247364 17.614202256731563 5.8418562055265095 0 0 0
425 1 14.09849961137726 18.2543037592713 7.482860429238366 0 0 0
284 1 14.054733238917107 19.589120595706017 5.807956274127221 0 0 0
426 1 15.979478523640028 19.645603116819803 7.738360148134901 0 0 0
268 1 20.395419888096672 19.54721957068174 6.0156328255239595 -1 0 0
429 1 17.230291242171184 17.430537593537746 7.4122992073412375 0 0 0
287 1 18.847639962806625 17.632979333096458 5.847681513439603 0 0 0
288 1 17.362001615109502 19.380452008085754 5.862927665365175 0 0 0
430 1 18.695820709101476 19.231220439110253 7.695201984397228 0 0 0
435 1 3.442893468519302 20.938362654894707 10.78898716582466 0 -1 0
296 1 3.641959140918905 1.9713737540836818 9.271561525473563 0 0 0
434 1 1.8706129708382457 2.348852618952234 11.571075994001184 0 0 0
447 1 3.6053019611762798 3.7495551563273435 11.144813753835514 0 0 0
315 1 1.8644100539972042 3.748611449176508 9.474087320925543 0 0 0
291 1 1.6597494201658116 0.6084803907739716 9.19736587164053 0 0 0
300 1 7.013877787971045 2.251276270103655 9.286787702138165 0 0 0
319 1 5.289960340768353 3.750018532397262 9.498377307381768 0 0 0
436 1 5.287477489214135 2.124076715958617 11.136132116933775 0 0 0
449 1 6.974268143557488 3.8978216683097777 11.13247072455343 0 0 0
437 1 7.43549457612473 0.5076586654252163 10.950824263024014 0 0 0
295 1 5.445020429562929 0.41973694283107754 9.593691976440992 0 0 0
303 1 12.61385671019352 21.022315071648116 9.394424952613146 0 -1 0
323 1 9.066804842742613 4.097631099218663 9.793614056292203 0 0 0
438 1 9.135447058423392 2.230632115644371 10.919890142454156 0 0 0
304 1 10.830864220417752 1.88090410895931 9.371736190501082 0 0 0
440 1 12.554224481726846 2.3058571979630864 10.639711995908167 0 0 0
327 1 12.944598799859756 3.9889975331651173 9.37850304982558 0 0 0
451 1 10.796517268440066 3.8799523245196714 11.324064447037491 0 0 0
439 1 10.897744266368267 0.24254368903885418 10.910230904859718 0 0 0
299 1 8.80773260641039 0.27982639592343583 9.257166803396887 0 0 0
307 1 16.152692664160913 0.33217993284086006 9.494312243389219 0 0 0
441 1 13.955234917949696 0.40741619095921366 11.436132185003295 0 0 0
308 1 14.425988282830481 1.7636924977063175 9.495293632263666 0 0 0
331 1 15.8665529468756 4.026157755615651 9.179479607667503 0 0 0
442 1 15.771886264912808 2.1557539192766253 11.29017278318709 0 0 0
453 1 14.239762663888994 3.7838771667936104 11.371324591363893 0 0 0
311 1 19.363808407219754 0.5719910313237658 9.47580793846244 0 0 0
443 1 17.56329046469684 0.2470498438168115 11.466032166339994 0 0 0
445 1 0.34507307435201473 3.9297860184642572 11.196087767107512 0 0 0
433 1 20.880312373385877 0.6087172394696532 11.05853268533588 -1 0 0
292 1 20.924946325982543 2.1419054949467533 9.359853294612389 -1 0 0
312 1 17.388085354491217 2.219792942145562 9.38358638932646 0 0 0
444 1 19.073125490007364 2.037635352468116 11.529320329046346 0 0 0
335 1 19.373898817779793 3.7016279683130544 9.481935765426792 0 0 0
455 1 17.280507855427494 3.579946164030068 11.549650425890611 0 0 0
320 1 3.4779605621863254 5.748519305366027 9.448308951825426 0 0 0
339 1 1.747889628433637 7.403750149652412 9.469964990983017 0 0 0
446 1 1.926496535124253 5.56568845603522 11.587337948630452 0 0 0
459 1 3.755674610164066 7.502868466683259 11.115778470066243 0 0 0
324 1 7.145213881163916 5.375028984175989 9.28238550913796 0 0 0
343 1 5.578834838390908 6.9103952999787674 9.380790975849187 0 0 0
448 1 5.605729094626529 5.395073058024593 11.01271171955061 0 0 0
461 1 7.214239329832521 7.477646529320007 11.036420449109103 0 0 0
450 1 8.673350251273893 5.5879770769512485 11.289284676075972 0 0 0
347 1 8.840373300932315 6.961191551706758 9.474232140441325 0 0 0
328 1 10.845869178044627 5.239456947103172 9.44681278883189 0 0 0
463 1 10.474182709553101 7.445372054346848 11.086031657874246 0 0 0
351 1 12.524421805916091 7.055855405972536 9.421777691608003 0 0 0
452 1 12.401666076600076 5.677833717401696 11.288027598255606 0 0 0
332 1 14.65989327596888 5.914069537596432 9.087081042919666 0 0 0
465 1 13.892300410998379 7.604031656632652 11.22423676981162 0 0 0
355 1 15.93922215024497 7.907758531202868 9.531910813108903 0 0 0
454 1 15.856888716657261 5.774835201603928 11.137876734417567 0 0 0
457 1 20.830493551684064 7.287470788121279 11.39501326096358 -1 0 0
316 1 0.3236048773125977 5.6238952754795655 9.819829423181824 0 0 0
336 1 17.391777955159387 5.816818604642506 9.231546744034576 0 0 0
467 1 17.803559381991807 7.317799096478062 11.32335345941335 0 0 0
359 1 19.21098757712541 7.343326492649279 9.403758118967202 0 0 0
456 1 19.501773322466136 5.338677723431598 11.183378948775344 0 0 0
344 1 3.310002175336883 9.13956300581012 9.444988628236356 0 0 0
458 1 1.6755117606183676 8.663266658765448 11.217960031736384 0 0 0
363 1 1.5964205451161906 10.812279881989912 9.328426858225006 0 0 0
471 1 3.284306420986139 10.788331115819734 11.025185065277038 0 0 0
368 1 3.4092433792603147 12.277757273020862 9.041339365934032 0 0 0
348 1 7.39537212334665 9.200243327295365 9.3566377466668 0 0 0
367 1 5.339116964712621 10.618159613650707 9.368093026446207 0 0 0
460 1 5.383282065475054 8.86369374270814 10.813436722449929 0 0 0
473 1 7.212647847360136 10.961962640978022 11.022704743605333 0 0 0
472 1 5.224500428846007 12.385477765559775 10.77777118638782 0 0 0
371 1 9.074506419572295 10.615020865412014 9.121871264584373 0 0 0
462 1 8.865899055861968 9.2419421123239 11.069478494968992 0 0 0
464 1 12.070668070778206 8.998588819563194 11.08376665681945 0 0 0
352 1 10.57582867626656 8.77321204211357 9.224595458179163 0 0 0
475 1 10.558209177969937 10.614254517791458 10.675694266800358 0 0 0
375 1 12.166301403644512 10.42025430058788 9.206529056962747 0 0 0
476 1 12.302740691105022 12.448142591453642 11.091718082876364 0 0 0
376 1 10.91722308591241 12.16045153477941 8.87726390426558 0 0 0
474 1 8.770156973340109 12.59693986147488 10.899541243696426 0 0 0
500 1 12.540121379278409 19.492756024221663 11.040264524136688 0 0 0
466 1 15.997745483819465 9.200074975910807 11.62115073916468 0 0 0
356 1 14.082892699137231 9.063504668674963 9.456063384050251 0 0 0
379 1 15.912380873041704 10.577790166347217 9.597247344380003 0 0 0
477 1 13.902107972887197 10.708069392167596 11.28333240650197 0 0 0
380 1 13.994127085429861 12.408168988155655 9.22936989326139 0 0 0
478 1 15.572678373054021 12.431176702219187 10.952079227027196 0 0 0
415 1 5.30729946681698 17.61596596484509 9.051307185118953 0 0 0
469 1 20.959334899258916 10.73184386865174 11.400477399372567 -1 0 0
340 1 20.768033566111864 8.935861507090653 9.739722717257472 -1 0 0
360 1 17.624650768222075 9.097762383105433 9.629644336170927 0 0 0
468 1 19.221481861196118 9.297399276738718 11.478021536813959 0 0 0
383 1 19.082278982307006 10.644856508654694 9.4805746652377 0 0 0
479 1 17.39165252573076 11.006574186623219 10.993520187254385 0 0 0
499 1 10.464268774501486 17.601844784360097 10.967405495178022 0 0 0
470 1 1.5673722029096733 12.488619343613017 10.899197087715542 0 0 0
387 1 2.026162023024937 14.162150548458158 9.697080944316857 0 0 0
483 1 3.947379512339001 14.10283503055865 11.261283777656576 0 0 0