LAMMPS (19 Mar 2020)
OMP_NUM_THREADS environment is not set. Defaulting to 1 thread. (../comm.cpp:94)
  using 1 OpenMP thread(s) per MPI task
package omp 0
using multi-threaded neighbor list subroutines
package omp 4
set 4 OpenMP thread(s) per MPI task
using multi-threaded neighbor list subroutines
units           metal
boundary        p p p
atom_style      atomic
###################### variable setting ########################################
variable        k loop 100            # define the number of loop
variable        a equal 2.86977+0.01*$k # define the various lattice constant “a”
variable        a equal 2.86977+0.01*1 

###################### BCC Fe simulation cell setting ##########################
lattice         fcc $a
lattice         fcc 2.87977
Lattice spacing in x,y,z = 2.87977 2.87977 2.87977
region	box block 0 1 0 1 0 1 units lattice
create_box      1 box
Created orthogonal box = (0 0 0) to (2.87977 2.87977 2.87977)
  1 by 1 by 2 MPI processor grid
create_atoms    1 box
Created 4 atoms
  create_atoms CPU = 0.0014692 secs

###################### Define Interatomic Potential ######################
pair_style eam/alloy
pair_coeff * * Co_PurjaPun_2012.eam.alloy Co   ## read in interatomic potential file
neighbor    0.3 bin                ## define parameters for neighbor list
neigh_modify    delay 5               ## define parameters for neighbor list

####################### calculated properties SETTINGS ######################
compute peratom all pe/atom
compute eatoms all reduce sum c_peratom


####################### thermal properties output on screen ######################
timestep       1
thermo 5
thermo_style custom step pe c_eatoms
# dump 1 all custom 100 min_bccFe.atom id type xs ys zs c_peratom
####################### minimize the total energy ######################

min_style       cg
minimize        1.0e-15 1.0e-15 1000 10000
WARNING: Using 'neigh_modify every 1 delay 0 check yes' setting during minimization (../min.cpp:190)
Last active /omp style is pair_style eam/alloy/omp
Neighbor list info ...
  update every 1 steps, delay 0 steps, check yes
  max neighbors/atom: 2000, page size: 100000
  master list distance cutoff = 6.79954
  ghost atom cutoff = 6.79954
  binsize = 3.39977, bins = 1 1 1
  1 neighbor lists, perpetual/occasional/extra = 1 0 0
  (1) pair eam/alloy/omp, perpetual
      attributes: half, newton on, omp
      pair build: half/bin/atomonly/newton/omp
      stencil: half/bin/3d/newton
      bin: standard
Per MPI rank memory allocation (min/avg/max) = 7.154 | 7.154 | 7.154 Mbytes
Step PotEng c_eatoms 
       0  -0.22805964  -0.22805964 
       1  -0.22805964  -0.22805964 
Loop time of 0.00371625 on 8 procs for 1 steps with 4 atoms

0.0% CPU use with 2 MPI tasks x 4 OpenMP threads

Minimization stats:
  Stopping criterion = energy tolerance
  Energy initial, next-to-last, final = 
       -0.228059637352    -0.228059637352    -0.228059637352
  Force two-norm initial, final = 1.57405e-14 1.72642e-14
  Force max component initial, final = 1.02141e-14 1.24345e-14
  Final line search alpha, max atom move = 1 1.24345e-14
  Iterations, force evaluations = 1 2

MPI task timing breakdown:
Section |  min time  |  avg time  |  max time  |%varavg| %total
---------------------------------------------------------------
Pair    | 0.0021472  | 0.0021616  | 0.002176   |   0.0 | 58.17
Neigh   | 0          | 0          | 0          |   0.0 |  0.00
Comm    | 0.0002572  | 0.00027515 | 0.0002931  |   0.0 |  7.40
Output  | 0          | 0          | 0          |   0.0 |  0.00
Modify  | 0.0003554  | 0.0003906  | 0.0004258  |   0.0 | 10.51
Other   |            | 0.0008889  |            |       | 23.92

Nlocal:    2 ave 2 max 2 min
Histogram: 2 0 0 0 0 0 0 0 0 0
Nghost:    603 ave 603 max 603 min
Histogram: 2 0 0 0 0 0 0 0 0 0
Neighs:    224 ave 254 max 194 min
Histogram: 1 0 0 0 0 0 0 0 0 1

Total # of neighbors = 448
Ave neighs/atom = 112
Neighbor list builds = 0
Dangerous builds = 0
variable length equal "lx"
variable E equal "c_eatoms"
variable N equal count(all)
variable E_cohesive equal ${E}/${N}
variable E_cohesive equal -0.228059637351818/${N}
variable E_cohesive equal -0.228059637351818/4
print "${length} ${E_cohesive}" append CoFCC.dat
2.87977 -0.0570149093379545

####################### jump into next loop  #######################
clear
OMP_NUM_THREADS environment is not set. Defaulting to 1 thread. (../comm.cpp:94)
  using 1 OpenMP thread(s) per MPI task
package omp 0
using multi-threaded neighbor list subroutines
package omp 4
set 4 OpenMP thread(s) per MPI task
using multi-threaded neighbor list subroutines
next            k
jump            in.lmp
units           metal
boundary        p p p
atom_style      atomic
###################### variable setting ########################################
variable        k loop 100            # define the number of loop
variable        a equal 2.86977+0.01*$k # define the various lattice constant “a”
variable        a equal 2.86977+0.01*2 

###################### BCC Fe simulation cell setting ##########################
lattice         fcc $a
lattice         fcc 2.88977
Lattice spacing in x,y,z = 2.88977 2.88977 2.88977
region	box block 0 1 0 1 0 1 units lattice
create_box      1 box
Created orthogonal box = (0 0 0) to (2.88977 2.88977 2.88977)
  1 by 1 by 2 MPI processor grid
create_atoms    1 box
Created 4 atoms
  create_atoms CPU = 0.0005091 secs

###################### Define Interatomic Potential ######################
pair_style eam/alloy
pair_coeff * * Co_PurjaPun_2012.eam.alloy Co   ## read in interatomic potential file
neighbor    0.3 bin                ## define parameters for neighbor list
neigh_modify    delay 5               ## define parameters for neighbor list

####################### calculated properties SETTINGS ######################
compute peratom all pe/atom
compute eatoms all reduce sum c_peratom


####################### thermal properties output on screen ######################
timestep       1
thermo 5
thermo_style custom step pe c_eatoms
# dump 1 all custom 100 min_bccFe.atom id type xs ys zs c_peratom
####################### minimize the total energy ######################

min_style       cg
minimize        1.0e-15 1.0e-15 1000 10000
WARNING: Using 'neigh_modify every 1 delay 0 check yes' setting during minimization (../min.cpp:190)
Last active /omp style is pair_style eam/alloy/omp
Neighbor list info ...
  update every 1 steps, delay 0 steps, check yes
  max neighbors/atom: 2000, page size: 100000
  master list distance cutoff = 6.79954
  ghost atom cutoff = 6.79954
  binsize = 3.39977, bins = 1 1 1
  1 neighbor lists, perpetual/occasional/extra = 1 0 0
  (1) pair eam/alloy/omp, perpetual
      attributes: half, newton on, omp
      pair build: half/bin/atomonly/newton/omp
      stencil: half/bin/3d/newton
      bin: standard
Per MPI rank memory allocation (min/avg/max) = 7.154 | 7.154 | 7.154 Mbytes
Step PotEng c_eatoms 
       0  -0.94383468  -0.94383468 
       1  -0.94383468  -0.94383468 
Loop time of 0.0034941 on 8 procs for 1 steps with 4 atoms

0.0% CPU use with 2 MPI tasks x 4 OpenMP threads

Minimization stats:
  Stopping criterion = energy tolerance
  Energy initial, next-to-last, final = 
       -0.943834681828    -0.943834681828    -0.943834681828
  Force two-norm initial, final = 2.76725e-14 2.78013e-14
  Force max component initial, final = 2.44249e-14 2.42029e-14
  Final line search alpha, max atom move = 1 2.42029e-14
  Iterations, force evaluations = 1 2

MPI task timing breakdown:
Section |  min time  |  avg time  |  max time  |%varavg| %total
---------------------------------------------------------------
Pair    | 0.0027021  | 0.0027452  | 0.0027884  |   0.1 | 78.57
Neigh   | 0          | 0          | 0          |   0.0 |  0.00
Comm    | 0.0001194  | 0.0001559  | 0.0001924  |   0.0 |  4.46
Output  | 0          | 0          | 0          |   0.0 |  0.00
Modify  | 0.0003667  | 0.0003736  | 0.0003805  |   0.0 | 10.69
Other   |            | 0.0002194  |            |       |  6.28

Nlocal:    2 ave 2 max 2 min
Histogram: 2 0 0 0 0 0 0 0 0 0
Nghost:    603 ave 603 max 603 min
Histogram: 2 0 0 0 0 0 0 0 0 0
Neighs:    224 ave 254 max 194 min
Histogram: 1 0 0 0 0 0 0 0 0 1

Total # of neighbors = 448
Ave neighs/atom = 112
Neighbor list builds = 0
Dangerous builds = 0
variable length equal "lx"
variable E equal "c_eatoms"
variable N equal count(all)
variable E_cohesive equal ${E}/${N}
variable E_cohesive equal -0.943834681827746/${N}
variable E_cohesive equal -0.943834681827746/4
print "${length} ${E_cohesive}" append CoFCC.dat
2.88977 -0.235958670456936

####################### jump into next loop  #######################
clear
OMP_NUM_THREADS environment is not set. Defaulting to 1 thread. (../comm.cpp:94)
  using 1 OpenMP thread(s) per MPI task
package omp 0
using multi-threaded neighbor list subroutines
package omp 4
set 4 OpenMP thread(s) per MPI task
using multi-threaded neighbor list subroutines
next            k
jump            in.lmp
units           metal
boundary        p p p
atom_style      atomic
###################### variable setting ########################################
variable        k loop 100            # define the number of loop
variable        a equal 2.86977+0.01*$k # define the various lattice constant “a”
variable        a equal 2.86977+0.01*3 

###################### BCC Fe simulation cell setting ##########################
lattice         fcc $a
lattice         fcc 2.89977
Lattice spacing in x,y,z = 2.89977 2.89977 2.89977
region	box block 0 1 0 1 0 1 units lattice
create_box      1 box
Created orthogonal box = (0 0 0) to (2.89977 2.89977 2.89977)
  1 by 1 by 2 MPI processor grid
create_atoms    1 box
Created 4 atoms
  create_atoms CPU = 0.000804 secs

###################### Define Interatomic Potential ######################
pair_style eam/alloy
pair_coeff * * Co_PurjaPun_2012.eam.alloy Co   ## read in interatomic potential file
neighbor    0.3 bin                ## define parameters for neighbor list
neigh_modify    delay 5               ## define parameters for neighbor list

####################### calculated properties SETTINGS ######################
compute peratom all pe/atom
compute eatoms all reduce sum c_peratom


####################### thermal properties output on screen ######################
timestep       1
thermo 5
thermo_style custom step pe c_eatoms
# dump 1 all custom 100 min_bccFe.atom id type xs ys zs c_peratom
####################### minimize the total energy ######################

min_style       cg
minimize        1.0e-15 1.0e-15 1000 10000
WARNING: Using 'neigh_modify every 1 delay 0 check yes' setting during minimization (../min.cpp:190)
Last active /omp style is pair_style eam/alloy/omp
Neighbor list info ...
  update every 1 steps, delay 0 steps, check yes
  max neighbors/atom: 2000, page size: 100000
  master list distance cutoff = 6.79954
  ghost atom cutoff = 6.79954
  binsize = 3.39977, bins = 1 1 1
  1 neighbor lists, perpetual/occasional/extra = 1 0 0
  (1) pair eam/alloy/omp, perpetual
      attributes: half, newton on, omp
      pair build: half/bin/atomonly/newton/omp
      stencil: half/bin/3d/newton
      bin: standard
Per MPI rank memory allocation (min/avg/max) = 7.154 | 7.154 | 7.154 Mbytes
Step PotEng c_eatoms 
       0   -1.6405805   -1.6405805 
       5   -1.6405805   -1.6405805 
      10   -1.6405805   -1.6405805 
      14   -1.6405805   -1.6405805 
Loop time of 0.0454518 on 8 procs for 14 steps with 4 atoms

34.4% CPU use with 2 MPI tasks x 4 OpenMP threads

Minimization stats:
  Stopping criterion = energy tolerance
  Energy initial, next-to-last, final = 
        -1.64058048111     -1.64058048111     -1.64058048111
  Force two-norm initial, final = 2.7056e-14 1.11615e-13
  Force max component initial, final = 1.64313e-14 6.23945e-14
  Final line search alpha, max atom move = 1 6.23945e-14
  Iterations, force evaluations = 14 28

MPI task timing breakdown:
Section |  min time  |  avg time  |  max time  |%varavg| %total
---------------------------------------------------------------
Pair    | 0.030005   | 0.030121   | 0.030236   |   0.1 | 66.27
Neigh   | 0          | 0          | 0          |   0.0 |  0.00
Comm    | 0.0078686  | 0.0082119  | 0.0085552  |   0.4 | 18.07
Output  | 0.000443   | 0.000451   | 0.000459   |   0.0 |  0.99
Modify  | 0.0045467  | 0.0046908  | 0.0048349  |   0.2 | 10.32
Other   |            | 0.001978   |            |       |  4.35

Nlocal:    2 ave 2 max 2 min
Histogram: 2 0 0 0 0 0 0 0 0 0
Nghost:    603 ave 603 max 603 min
Histogram: 2 0 0 0 0 0 0 0 0 0
Neighs:    200 ave 230 max 170 min
Histogram: 1 0 0 0 0 0 0 0 0 1

Total # of neighbors = 400
Ave neighs/atom = 100
Neighbor list builds = 0
Dangerous builds = 0
variable length equal "lx"
variable E equal "c_eatoms"
variable N equal count(all)
variable E_cohesive equal ${E}/${N}
variable E_cohesive equal -1.64058048110566/${N}
variable E_cohesive equal -1.64058048110566/4
print "${length} ${E_cohesive}" append CoFCC.dat
2.89977 -0.410145120276415

####################### jump into next loop  #######################
clear
OMP_NUM_THREADS environment is not set. Defaulting to 1 thread. (../comm.cpp:94)
  using 1 OpenMP thread(s) per MPI task
package omp 0
using multi-threaded neighbor list subroutines
package omp 4
set 4 OpenMP thread(s) per MPI task
using multi-threaded neighbor list subroutines
next            k
jump            in.lmp
units           metal
boundary        p p p
atom_style      atomic
###################### variable setting ########################################
variable        k loop 100            # define the number of loop
variable        a equal 2.86977+0.01*$k # define the various lattice constant “a”
variable        a equal 2.86977+0.01*4 

###################### BCC Fe simulation cell setting ##########################
lattice         fcc $a
lattice         fcc 2.90977
Lattice spacing in x,y,z = 2.90977 2.90977 2.90977
region	box block 0 1 0 1 0 1 units lattice
create_box      1 box
Created orthogonal box = (0 0 0) to (2.90977 2.90977 2.90977)
  1 by 1 by 2 MPI processor grid
create_atoms    1 box
Created 4 atoms
  create_atoms CPU = 0.0007408 secs

###################### Define Interatomic Potential ######################
pair_style eam/alloy
pair_coeff * * Co_PurjaPun_2012.eam.alloy Co   ## read in interatomic potential file
neighbor    0.3 bin                ## define parameters for neighbor list
neigh_modify    delay 5               ## define parameters for neighbor list

####################### calculated properties SETTINGS ######################
compute peratom all pe/atom
compute eatoms all reduce sum c_peratom


####################### thermal properties output on screen ######################
timestep       1
thermo 5
thermo_style custom step pe c_eatoms
# dump 1 all custom 100 min_bccFe.atom id type xs ys zs c_peratom
####################### minimize the total energy ######################

min_style       cg
minimize        1.0e-15 1.0e-15 1000 10000
WARNING: Using 'neigh_modify every 1 delay 0 check yes' setting during minimization (../min.cpp:190)
Last active /omp style is pair_style eam/alloy/omp
Neighbor list info ...
  update every 1 steps, delay 0 steps, check yes
  max neighbors/atom: 2000, page size: 100000
  master list distance cutoff = 6.79954
  ghost atom cutoff = 6.79954
  binsize = 3.39977, bins = 1 1 1
  1 neighbor lists, perpetual/occasional/extra = 1 0 0
  (1) pair eam/alloy/omp, perpetual
      attributes: half, newton on, omp
      pair build: half/bin/atomonly/newton/omp
      stencil: half/bin/3d/newton
      bin: standard
Per MPI rank memory allocation (min/avg/max) = 7.154 | 7.154 | 7.154 Mbytes
Step PotEng c_eatoms 
       0    -2.318173    -2.318173 
       1    -2.318173    -2.318173 
Loop time of 0.0029589 on 8 procs for 1 steps with 4 atoms

0.0% CPU use with 2 MPI tasks x 4 OpenMP threads

Minimization stats:
  Stopping criterion = energy tolerance
  Energy initial, next-to-last, final = 
        -2.31817296168     -2.31817296168     -2.31817296168
  Force two-norm initial, final = 1.15175e-14 1.16706e-14
  Force max component initial, final = 7.32747e-15 7.32747e-15
  Final line search alpha, max atom move = 1 7.32747e-15
  Iterations, force evaluations = 1 2

MPI task timing breakdown:
Section |  min time  |  avg time  |  max time  |%varavg| %total
---------------------------------------------------------------
Pair    | 0.0022538  | 0.0022559  | 0.002258   |   0.0 | 76.24
Neigh   | 0          | 0          | 0          |   0.0 |  0.00
Comm    | 0.000278   | 0.00030895 | 0.0003399  |   0.0 | 10.44
Output  | 0          | 0          | 0          |   0.0 |  0.00
Modify  | 0.0002841  | 0.00031265 | 0.0003412  |   0.0 | 10.57
Other   |            | 8.14e-05   |            |       |  2.75

Nlocal:    2 ave 2 max 2 min
Histogram: 2 0 0 0 0 0 0 0 0 0
Nghost:    603 ave 603 max 603 min
Histogram: 2 0 0 0 0 0 0 0 0 0
Neighs:    200 ave 230 max 170 min
Histogram: 1 0 0 0 0 0 0 0 0 1

Total # of neighbors = 400
Ave neighs/atom = 100
Neighbor list builds = 0
Dangerous builds = 0
variable length equal "lx"
variable E equal "c_eatoms"
variable N equal count(all)
variable E_cohesive equal ${E}/${N}
variable E_cohesive equal -2.31817296167742/${N}
variable E_cohesive equal -2.31817296167742/4
print "${length} ${E_cohesive}" append CoFCC.dat
2.90977 -0.579543240419355

####################### jump into next loop  #######################
clear
OMP_NUM_THREADS environment is not set. Defaulting to 1 thread. (../comm.cpp:94)
  using 1 OpenMP thread(s) per MPI task
package omp 0
using multi-threaded neighbor list subroutines
package omp 4
set 4 OpenMP thread(s) per MPI task
using multi-threaded neighbor list subroutines
next            k
jump            in.lmp
units           metal
boundary        p p p
atom_style      atomic
###################### variable setting ########################################
variable        k loop 100            # define the number of loop
variable        a equal 2.86977+0.01*$k # define the various lattice constant “a”
variable        a equal 2.86977+0.01*5 

###################### BCC Fe simulation cell setting ##########################
lattice         fcc $a
lattice         fcc 2.91977
Lattice spacing in x,y,z = 2.91977 2.91977 2.91977
region	box block 0 1 0 1 0 1 units lattice
create_box      1 box
Created orthogonal box = (0 0 0) to (2.91977 2.91977 2.91977)
  1 by 1 by 2 MPI processor grid
create_atoms    1 box
Created 4 atoms
  create_atoms CPU = 0.0012966 secs

###################### Define Interatomic Potential ######################
pair_style eam/alloy
pair_coeff * * Co_PurjaPun_2012.eam.alloy Co   ## read in interatomic potential file
neighbor    0.3 bin                ## define parameters for neighbor list
neigh_modify    delay 5               ## define parameters for neighbor list

####################### calculated properties SETTINGS ######################
compute peratom all pe/atom
compute eatoms all reduce sum c_peratom


####################### thermal properties output on screen ######################
timestep       1
thermo 5
thermo_style custom step pe c_eatoms
# dump 1 all custom 100 min_bccFe.atom id type xs ys zs c_peratom
####################### minimize the total energy ######################

min_style       cg
minimize        1.0e-15 1.0e-15 1000 10000
WARNING: Using 'neigh_modify every 1 delay 0 check yes' setting during minimization (../min.cpp:190)
Last active /omp style is pair_style eam/alloy/omp
Neighbor list info ...
  update every 1 steps, delay 0 steps, check yes
  max neighbors/atom: 2000, page size: 100000
  master list distance cutoff = 6.79954
  ghost atom cutoff = 6.79954
  binsize = 3.39977, bins = 1 1 1
  1 neighbor lists, perpetual/occasional/extra = 1 0 0
  (1) pair eam/alloy/omp, perpetual
      attributes: half, newton on, omp
      pair build: half/bin/atomonly/newton/omp
      stencil: half/bin/3d/newton
      bin: standard
Per MPI rank memory allocation (min/avg/max) = 7.154 | 7.154 | 7.154 Mbytes
Step PotEng c_eatoms 
       0   -2.9765509   -2.9765509 
       1   -2.9765509   -2.9765509 
Loop time of 0.00416255 on 8 procs for 1 steps with 4 atoms

0.0% CPU use with 2 MPI tasks x 4 OpenMP threads

Minimization stats:
  Stopping criterion = energy tolerance
  Energy initial, next-to-last, final = 
        -2.97655085213     -2.97655085213     -2.97655085213
  Force two-norm initial, final = 2.09282e-14 2.3869e-14
  Force max component initial, final = 1.68754e-14 2.04281e-14
  Final line search alpha, max atom move = 1 2.04281e-14
  Iterations, force evaluations = 1 2

MPI task timing breakdown:
Section |  min time  |  avg time  |  max time  |%varavg| %total
---------------------------------------------------------------
Pair    | 0.0029775  | 0.0031353  | 0.0032931  |   0.3 | 75.32
Neigh   | 0          | 0          | 0          |   0.0 |  0.00
Comm    | 0.0002747  | 0.0003483  | 0.0004219  |   0.0 |  8.37
Output  | 0          | 0          | 0          |   0.0 |  0.00
Modify  | 0.0003835  | 0.0004677  | 0.0005519  |   0.0 | 11.24
Other   |            | 0.0002113  |            |       |  5.08

Nlocal:    2 ave 2 max 2 min
Histogram: 2 0 0 0 0 0 0 0 0 0
Nghost:    603 ave 603 max 603 min
Histogram: 2 0 0 0 0 0 0 0 0 0
Neighs:    200 ave 230 max 170 min
Histogram: 1 0 0 0 0 0 0 0 0 1

Total # of neighbors = 400
Ave neighs/atom = 100
Neighbor list builds = 0
Dangerous builds = 0
variable length equal "lx"
variable E equal "c_eatoms"
variable N equal count(all)
variable E_cohesive equal ${E}/${N}
variable E_cohesive equal -2.97655085212996/${N}
variable E_cohesive equal -2.97655085212996/4
print "${length} ${E_cohesive}" append CoFCC.dat
2.91977 -0.74413771303249

####################### jump into next loop  #######################
clear
OMP_NUM_THREADS environment is not set. Defaulting to 1 thread. (../comm.cpp:94)
  using 1 OpenMP thread(s) per MPI task
package omp 0
using multi-threaded neighbor list subroutines
package omp 4
set 4 OpenMP thread(s) per MPI task
using multi-threaded neighbor list subroutines
next            k
jump            in.lmp
units           metal
boundary        p p p
atom_style      atomic
###################### variable setting ########################################
variable        k loop 100            # define the number of loop
variable        a equal 2.86977+0.01*$k # define the various lattice constant “a”
variable        a equal 2.86977+0.01*6 

###################### BCC Fe simulation cell setting ##########################
lattice         fcc $a
lattice         fcc 2.92977
Lattice spacing in x,y,z = 2.92977 2.92977 2.92977
region	box block 0 1 0 1 0 1 units lattice
create_box      1 box
Created orthogonal box = (0 0 0) to (2.92977 2.92977 2.92977)
  1 by 1 by 2 MPI processor grid
create_atoms    1 box
Created 4 atoms
  create_atoms CPU = 0.0011211 secs

###################### Define Interatomic Potential ######################
pair_style eam/alloy
pair_coeff * * Co_PurjaPun_2012.eam.alloy Co   ## read in interatomic potential file
neighbor    0.3 bin                ## define parameters for neighbor list
neigh_modify    delay 5               ## define parameters for neighbor list

####################### calculated properties SETTINGS ######################
compute peratom all pe/atom
compute eatoms all reduce sum c_peratom


####################### thermal properties output on screen ######################
timestep       1
thermo 5
thermo_style custom step pe c_eatoms
# dump 1 all custom 100 min_bccFe.atom id type xs ys zs c_peratom
####################### minimize the total energy ######################

min_style       cg
minimize        1.0e-15 1.0e-15 1000 10000
WARNING: Using 'neigh_modify every 1 delay 0 check yes' setting during minimization (../min.cpp:190)
Last active /omp style is pair_style eam/alloy/omp
Neighbor list info ...
  update every 1 steps, delay 0 steps, check yes
  max neighbors/atom: 2000, page size: 100000
  master list distance cutoff = 6.79954
  ghost atom cutoff = 6.79954
  binsize = 3.39977, bins = 1 1 1
  1 neighbor lists, perpetual/occasional/extra = 1 0 0
  (1) pair eam/alloy/omp, perpetual
      attributes: half, newton on, omp
      pair build: half/bin/atomonly/newton/omp
      stencil: half/bin/3d/newton
      bin: standard
Per MPI rank memory allocation (min/avg/max) = 7.154 | 7.154 | 7.154 Mbytes
Step PotEng c_eatoms 
       0    -3.615702    -3.615702 
       1    -3.615702    -3.615702 
Loop time of 0.00275615 on 8 procs for 1 steps with 4 atoms

283.5% CPU use with 2 MPI tasks x 4 OpenMP threads

Minimization stats:
  Stopping criterion = energy tolerance
  Energy initial, next-to-last, final = 
        -3.61570204659     -3.61570204659     -3.61570204659
  Force two-norm initial, final = 1.43061e-14 1.43061e-14
  Force max component initial, final = 9.32587e-15 9.32587e-15
  Final line search alpha, max atom move = 1 9.32587e-15
  Iterations, force evaluations = 1 2

MPI task timing breakdown:
Section |  min time  |  avg time  |  max time  |%varavg| %total
---------------------------------------------------------------
Pair    | 0.0016568  | 0.0017052  | 0.0017535  |   0.1 | 61.87
Neigh   | 0          | 0          | 0          |   0.0 |  0.00
Comm    | 0.0005744  | 0.0005943  | 0.0006142  |   0.0 | 21.56
Output  | 0          | 0          | 0          |   0.0 |  0.00
Modify  | 0.0002355  | 0.00026235 | 0.0002892  |   0.0 |  9.52
Other   |            | 0.0001944  |            |       |  7.05

Nlocal:    2 ave 2 max 2 min
Histogram: 2 0 0 0 0 0 0 0 0 0
Nghost:    603 ave 603 max 603 min
Histogram: 2 0 0 0 0 0 0 0 0 0
Neighs:    200 ave 230 max 170 min
Histogram: 1 0 0 0 0 0 0 0 0 1

Total # of neighbors = 400
Ave neighs/atom = 100
Neighbor list builds = 0
Dangerous builds = 0
variable length equal "lx"
variable E equal "c_eatoms"
variable N equal count(all)
variable E_cohesive equal ${E}/${N}
variable E_cohesive equal -3.61570204659013/${N}
variable E_cohesive equal -3.61570204659013/4
print "${length} ${E_cohesive}" append CoFCC.dat
2.92977 -0.903925511647533

####################### jump into next loop  #######################
clear
OMP_NUM_THREADS environment is not set. Defaulting to 1 thread. (../comm.cpp:94)
  using 1 OpenMP thread(s) per MPI task
package omp 0
using multi-threaded neighbor list subroutines
package omp 4
set 4 OpenMP thread(s) per MPI task
using multi-threaded neighbor list subroutines
next            k
jump            in.lmp
units           metal
boundary        p p p
atom_style      atomic
###################### variable setting ########################################
variable        k loop 100            # define the number of loop
variable        a equal 2.86977+0.01*$k # define the various lattice constant “a”
variable        a equal 2.86977+0.01*7 

###################### BCC Fe simulation cell setting ##########################
lattice         fcc $a
lattice         fcc 2.93977
Lattice spacing in x,y,z = 2.93977 2.93977 2.93977
region	box block 0 1 0 1 0 1 units lattice
create_box      1 box
Created orthogonal box = (0 0 0) to (2.93977 2.93977 2.93977)
  1 by 1 by 2 MPI processor grid
create_atoms    1 box
Created 4 atoms
  create_atoms CPU = 0.0006514 secs

###################### Define Interatomic Potential ######################
pair_style eam/alloy
pair_coeff * * Co_PurjaPun_2012.eam.alloy Co   ## read in interatomic potential file
neighbor    0.3 bin                ## define parameters for neighbor list
neigh_modify    delay 5               ## define parameters for neighbor list

####################### calculated properties SETTINGS ######################
compute peratom all pe/atom
compute eatoms all reduce sum c_peratom


####################### thermal properties output on screen ######################
timestep       1
thermo 5
thermo_style custom step pe c_eatoms
# dump 1 all custom 100 min_bccFe.atom id type xs ys zs c_peratom
####################### minimize the total energy ######################

min_style       cg
minimize        1.0e-15 1.0e-15 1000 10000
WARNING: Using 'neigh_modify every 1 delay 0 check yes' setting during minimization (../min.cpp:190)
Last active /omp style is pair_style eam/alloy/omp
Neighbor list info ...
  update every 1 steps, delay 0 steps, check yes
  max neighbors/atom: 2000, page size: 100000
  master list distance cutoff = 6.79954
  ghost atom cutoff = 6.79954
  binsize = 3.39977, bins = 1 1 1
  1 neighbor lists, perpetual/occasional/extra = 1 0 0
  (1) pair eam/alloy/omp, perpetual
      attributes: half, newton on, omp
      pair build: half/bin/atomonly/newton/omp
      stencil: half/bin/3d/newton
      bin: standard
Per MPI rank memory allocation (min/avg/max) = 7.154 | 7.154 | 7.154 Mbytes
Step PotEng c_eatoms 
       0   -4.2356548   -4.2356548 
       1   -4.2356548   -4.2356548 
Loop time of 0.0058433 on 8 procs for 1 steps with 4 atoms

133.7% CPU use with 2 MPI tasks x 4 OpenMP threads

Minimization stats:
  Stopping criterion = energy tolerance
  Energy initial, next-to-last, final = 
        -4.23565480943     -4.23565480943     -4.23565480943
  Force two-norm initial, final = 2.72365e-14 3.1148e-14
  Force max component initial, final = 2.57572e-14 2.93099e-14
  Final line search alpha, max atom move = 1 2.93099e-14
  Iterations, force evaluations = 1 2

MPI task timing breakdown:
Section |  min time  |  avg time  |  max time  |%varavg| %total
---------------------------------------------------------------
Pair    | 0.0048601  | 0.0049282  | 0.0049962  |   0.1 | 84.34
Neigh   | 0          | 0          | 0          |   0.0 |  0.00
Comm    | 0.0002541  | 0.00028535 | 0.0003166  |   0.0 |  4.88
Output  | 0          | 0          | 0          |   0.0 |  0.00
Modify  | 0.0004067  | 0.0005057  | 0.0006047  |   0.0 |  8.65
Other   |            | 0.0001241  |            |       |  2.12

Nlocal:    2 ave 2 max 2 min
Histogram: 2 0 0 0 0 0 0 0 0 0
Nghost:    603 ave 603 max 603 min
Histogram: 2 0 0 0 0 0 0 0 0 0
Neighs:    200 ave 230 max 170 min
Histogram: 1 0 0 0 0 0 0 0 0 1

Total # of neighbors = 400
Ave neighs/atom = 100
Neighbor list builds = 0
Dangerous builds = 0
variable length equal "lx"
variable E equal "c_eatoms"
variable N equal count(all)
variable E_cohesive equal ${E}/${N}
variable E_cohesive equal -4.23565480943321/${N}
variable E_cohesive equal -4.23565480943321/4
print "${length} ${E_cohesive}" append CoFCC.dat
2.93977 -1.0589137023583

####################### jump into next loop  #######################
clear
OMP_NUM_THREADS environment is not set. Defaulting to 1 thread. (../comm.cpp:94)
  using 1 OpenMP thread(s) per MPI task
package omp 0
using multi-threaded neighbor list subroutines
package omp 4
set 4 OpenMP thread(s) per MPI task
using multi-threaded neighbor list subroutines
next            k
jump            in.lmp
units           metal
boundary        p p p
atom_style      atomic
###################### variable setting ########################################
variable        k loop 100            # define the number of loop
variable        a equal 2.86977+0.01*$k # define the various lattice constant “a”
variable        a equal 2.86977+0.01*8 

###################### BCC Fe simulation cell setting ##########################
lattice         fcc $a
lattice         fcc 2.94977
Lattice spacing in x,y,z = 2.94977 2.94977 2.94977
region	box block 0 1 0 1 0 1 units lattice
create_box      1 box
Created orthogonal box = (0 0 0) to (2.94977 2.94977 2.94977)
  1 by 1 by 2 MPI processor grid
create_atoms    1 box
Created 4 atoms
  create_atoms CPU = 0.0005972 secs

###################### Define Interatomic Potential ######################
pair_style eam/alloy
pair_coeff * * Co_PurjaPun_2012.eam.alloy Co   ## read in interatomic potential file
neighbor    0.3 bin                ## define parameters for neighbor list
neigh_modify    delay 5               ## define parameters for neighbor list

####################### calculated properties SETTINGS ######################
compute peratom all pe/atom
compute eatoms all reduce sum c_peratom


####################### thermal properties output on screen ######################
timestep       1
thermo 5
thermo_style custom step pe c_eatoms
# dump 1 all custom 100 min_bccFe.atom id type xs ys zs c_peratom
####################### minimize the total energy ######################

min_style       cg
minimize        1.0e-15 1.0e-15 1000 10000
WARNING: Using 'neigh_modify every 1 delay 0 check yes' setting during minimization (../min.cpp:190)
Last active /omp style is pair_style eam/alloy/omp
Neighbor list info ...
  update every 1 steps, delay 0 steps, check yes
  max neighbors/atom: 2000, page size: 100000
  master list distance cutoff = 6.79954
  ghost atom cutoff = 6.79954
  binsize = 3.39977, bins = 1 1 1
  1 neighbor lists, perpetual/occasional/extra = 1 0 0
  (1) pair eam/alloy/omp, perpetual
      attributes: half, newton on, omp
      pair build: half/bin/atomonly/newton/omp
      stencil: half/bin/3d/newton
      bin: standard
Per MPI rank memory allocation (min/avg/max) = 7.154 | 7.154 | 7.154 Mbytes
Step PotEng c_eatoms 
       0   -4.8364743   -4.8364743 
       1   -4.8364743   -4.8364743 
Loop time of 0.0031801 on 8 procs for 1 steps with 4 atoms

0.0% CPU use with 2 MPI tasks x 4 OpenMP threads

Minimization stats:
  Stopping criterion = energy tolerance
  Energy initial, next-to-last, final = 
        -4.83647431498     -4.83647431498     -4.83647431498
  Force two-norm initial, final = 1.41645e-14 1.41645e-14
  Force max component initial, final = 9.32587e-15 9.32587e-15
  Final line search alpha, max atom move = 1 9.32587e-15
  Iterations, force evaluations = 1 2

MPI task timing breakdown:
Section |  min time  |  avg time  |  max time  |%varavg| %total
---------------------------------------------------------------
Pair    | 0.0023679  | 0.0024921  | 0.0026162  |   0.2 | 78.36
Neigh   | 0          | 0          | 0          |   0.0 |  0.00
Comm    | 0.0001171  | 0.00025085 | 0.0003846  |   0.0 |  7.89
Output  | 0          | 0          | 0          |   0.0 |  0.00
Modify  | 0.0003399  | 0.0003489  | 0.0003579  |   0.0 | 10.97
Other   |            | 8.83e-05   |            |       |  2.78

Nlocal:    2 ave 2 max 2 min
Histogram: 2 0 0 0 0 0 0 0 0 0
Nghost:    603 ave 603 max 603 min
Histogram: 2 0 0 0 0 0 0 0 0 0
Neighs:    200 ave 230 max 170 min
Histogram: 1 0 0 0 0 0 0 0 0 1

Total # of neighbors = 400
Ave neighs/atom = 100
Neighbor list builds = 0
Dangerous builds = 0
variable length equal "lx"
variable E equal "c_eatoms"
variable N equal count(all)
variable E_cohesive equal ${E}/${N}
variable E_cohesive equal -4.83647431497929/${N}
variable E_cohesive equal -4.83647431497929/4
print "${length} ${E_cohesive}" append CoFCC.dat
2.94977 -1.20911857874482

####################### jump into next loop  #######################
clear
OMP_NUM_THREADS environment is not set. Defaulting to 1 thread. (../comm.cpp:94)
  using 1 OpenMP thread(s) per MPI task
package omp 0
using multi-threaded neighbor list subroutines
package omp 4
set 4 OpenMP thread(s) per MPI task
using multi-threaded neighbor list subroutines
next            k
jump            in.lmp
units           metal
boundary        p p p
atom_style      atomic
###################### variable setting ########################################
variable        k loop 100            # define the number of loop
variable        a equal 2.86977+0.01*$k # define the various lattice constant “a”
variable        a equal 2.86977+0.01*9 

###################### BCC Fe simulation cell setting ##########################
lattice         fcc $a
lattice         fcc 2.95977
Lattice spacing in x,y,z = 2.95977 2.95977 2.95977
region	box block 0 1 0 1 0 1 units lattice
create_box      1 box
Created orthogonal box = (0 0 0) to (2.95977 2.95977 2.95977)
  1 by 1 by 2 MPI processor grid
create_atoms    1 box
Created 4 atoms
  create_atoms CPU = 0.0006338 secs

###################### Define Interatomic Potential ######################
pair_style eam/alloy
pair_coeff * * Co_PurjaPun_2012.eam.alloy Co   ## read in interatomic potential file
neighbor    0.3 bin                ## define parameters for neighbor list
neigh_modify    delay 5               ## define parameters for neighbor list

####################### calculated properties SETTINGS ######################
compute peratom all pe/atom
compute eatoms all reduce sum c_peratom


####################### thermal properties output on screen ######################
timestep       1
thermo 5
thermo_style custom step pe c_eatoms
# dump 1 all custom 100 min_bccFe.atom id type xs ys zs c_peratom
####################### minimize the total energy ######################

min_style       cg
minimize        1.0e-15 1.0e-15 1000 10000
WARNING: Using 'neigh_modify every 1 delay 0 check yes' setting during minimization (../min.cpp:190)
Last active /omp style is pair_style eam/alloy/omp
Neighbor list info ...
  update every 1 steps, delay 0 steps, check yes
  max neighbors/atom: 2000, page size: 100000
  master list distance cutoff = 6.79954
  ghost atom cutoff = 6.79954
  binsize = 3.39977, bins = 1 1 1
  1 neighbor lists, perpetual/occasional/extra = 1 0 0
  (1) pair eam/alloy/omp, perpetual
      attributes: half, newton on, omp
      pair build: half/bin/atomonly/newton/omp
      stencil: half/bin/3d/newton
      bin: standard
Per MPI rank memory allocation (min/avg/max) = 7.154 | 7.154 | 7.154 Mbytes
Step PotEng c_eatoms 
       0   -5.4182627   -5.4182627 
       1   -5.4182627   -5.4182627 
Loop time of 0.0038202 on 8 procs for 1 steps with 4 atoms

0.0% CPU use with 2 MPI tasks x 4 OpenMP threads

Minimization stats:
  Stopping criterion = energy tolerance
  Energy initial, next-to-last, final = 
        -5.41826274921     -5.41826274921     -5.41826274921
  Force two-norm initial, final = 2.81345e-14 3.15737e-14
  Force max component initial, final = 2.66454e-14 3.01981e-14
  Final line search alpha, max atom move = 1 3.01981e-14
  Iterations, force evaluations = 1 2

MPI task timing breakdown:
Section |  min time  |  avg time  |  max time  |%varavg| %total
---------------------------------------------------------------
Pair    | 0.0022529  | 0.002269   | 0.0022852  |   0.0 | 59.40
Neigh   | 0          | 0          | 0          |   0.0 |  0.00
Comm    | 0.0006815  | 0.00081105 | 0.0009406  |   0.0 | 21.23
Output  | 0          | 0          | 0          |   0.0 |  0.00
Modify  | 0.0003189  | 0.00038995 | 0.000461   |   0.0 | 10.21
Other   |            | 0.0003501  |            |       |  9.17

Nlocal:    2 ave 2 max 2 min
Histogram: 2 0 0 0 0 0 0 0 0 0
Nghost:    603 ave 603 max 603 min
Histogram: 2 0 0 0 0 0 0 0 0 0
Neighs:    200 ave 230 max 170 min
Histogram: 1 0 0 0 0 0 0 0 0 1

Total # of neighbors = 400
Ave neighs/atom = 100
Neighbor list builds = 0
Dangerous builds = 0
variable length equal "lx"
variable E equal "c_eatoms"
variable N equal count(all)
variable E_cohesive equal ${E}/${N}
variable E_cohesive equal -5.41826274920734/${N}
variable E_cohesive equal -5.41826274920734/4
print "${length} ${E_cohesive}" append CoFCC.dat
2.95977 -1.35456568730184

####################### jump into next loop  #######################
clear
OMP_NUM_THREADS environment is not set. Defaulting to 1 thread. (../comm.cpp:94)
  using 1 OpenMP thread(s) per MPI task
package omp 0
using multi-threaded neighbor list subroutines
package omp 4
set 4 OpenMP thread(s) per MPI task
using multi-threaded neighbor list subroutines
next            k
jump            in.lmp
units           metal
boundary        p p p
atom_style      atomic
###################### variable setting ########################################
variable        k loop 100            # define the number of loop
variable        a equal 2.86977+0.01*$k # define the various lattice constant “a”
variable        a equal 2.86977+0.01*10 

###################### BCC Fe simulation cell setting ##########################
lattice         fcc $a
lattice         fcc 2.96977
Lattice spacing in x,y,z = 2.96977 2.96977 2.96977
region	box block 0 1 0 1 0 1 units lattice
create_box      1 box
Created orthogonal box = (0 0 0) to (2.96977 2.96977 2.96977)
  1 by 1 by 2 MPI processor grid
create_atoms    1 box
Created 4 atoms
  create_atoms CPU = 0.0007426 secs

###################### Define Interatomic Potential ######################
pair_style eam/alloy
pair_coeff * * Co_PurjaPun_2012.eam.alloy Co   ## read in interatomic potential file
neighbor    0.3 bin                ## define parameters for neighbor list
neigh_modify    delay 5               ## define parameters for neighbor list

####################### calculated properties SETTINGS ######################
compute peratom all pe/atom
compute eatoms all reduce sum c_peratom


####################### thermal properties output on screen ######################
timestep       1
thermo 5
thermo_style custom step pe c_eatoms
# dump 1 all custom 100 min_bccFe.atom id type xs ys zs c_peratom
####################### minimize the total energy ######################

min_style       cg
minimize        1.0e-15 1.0e-15 1000 10000
WARNING: Using 'neigh_modify every 1 delay 0 check yes' setting during minimization (../min.cpp:190)
Last active /omp style is pair_style eam/alloy/omp
Neighbor list info ...
  update every 1 steps, delay 0 steps, check yes
  max neighbors/atom: 2000, page size: 100000
  master list distance cutoff = 6.79954
  ghost atom cutoff = 6.79954
  binsize = 3.39977, bins = 1 1 1
  1 neighbor lists, perpetual/occasional/extra = 1 0 0
  (1) pair eam/alloy/omp, perpetual
      attributes: half, newton on, omp
      pair build: half/bin/atomonly/newton/omp
      stencil: half/bin/3d/newton
      bin: standard
Per MPI rank memory allocation (min/avg/max) = 7.154 | 7.154 | 7.154 Mbytes
Step PotEng c_eatoms 
       0    -5.981161    -5.981161 
       2    -5.981161    -5.981161 
Loop time of 0.0046035 on 8 procs for 2 steps with 4 atoms

169.7% CPU use with 2 MPI tasks x 4 OpenMP threads

Minimization stats:
  Stopping criterion = energy tolerance
  Energy initial, next-to-last, final = 
        -5.98116099254     -5.98116099254     -5.98116099254
  Force two-norm initial, final = 2.30345e-14 9.52519e-14
  Force max component initial, final = 1.46549e-14 6.68354e-14
  Final line search alpha, max atom move = 1 6.68354e-14
  Iterations, force evaluations = 2 4

MPI task timing breakdown:
Section |  min time  |  avg time  |  max time  |%varavg| %total
---------------------------------------------------------------
Pair    | 0.0034883  | 0.0035238  | 0.0035592  |   0.1 | 76.55
Neigh   | 0          | 0          | 0          |   0.0 |  0.00
Comm    | 0.0003947  | 0.0004552  | 0.0005157  |   0.0 |  9.89
Output  | 0          | 0          | 0          |   0.0 |  0.00
Modify  | 0.0004777  | 0.00050195 | 0.0005262  |   0.0 | 10.90
Other   |            | 0.0001226  |            |       |  2.66

Nlocal:    2 ave 2 max 2 min
Histogram: 2 0 0 0 0 0 0 0 0 0
Nghost:    603 ave 603 max 603 min
Histogram: 2 0 0 0 0 0 0 0 0 0
Neighs:    200 ave 230 max 170 min
Histogram: 1 0 0 0 0 0 0 0 0 1

Total # of neighbors = 400
Ave neighs/atom = 100
Neighbor list builds = 0
Dangerous builds = 0
variable length equal "lx"
variable E equal "c_eatoms"
variable N equal count(all)
variable E_cohesive equal ${E}/${N}
variable E_cohesive equal -5.98116099253994/${N}
variable E_cohesive equal -5.98116099253994/4
print "${length} ${E_cohesive}" append CoFCC.dat
2.96977 -1.49529024813499

####################### jump into next loop  #######################
clear
OMP_NUM_THREADS environment is not set. Defaulting to 1 thread. (../comm.cpp:94)
  using 1 OpenMP thread(s) per MPI task
package omp 0
using multi-threaded neighbor list subroutines
package omp 4
set 4 OpenMP thread(s) per MPI task
using multi-threaded neighbor list subroutines
next            k
jump            in.lmp
units           metal
boundary        p p p
atom_style      atomic
###################### variable setting ########################################
variable        k loop 100            # define the number of loop
variable        a equal 2.86977+0.01*$k # define the various lattice constant “a”
variable        a equal 2.86977+0.01*11 

###################### BCC Fe simulation cell setting ##########################
lattice         fcc $a
lattice         fcc 2.97977
Lattice spacing in x,y,z = 2.97977 2.97977 2.97977
region	box block 0 1 0 1 0 1 units lattice
create_box      1 box
Created orthogonal box = (0 0 0) to (2.97977 2.97977 2.97977)
  1 by 1 by 2 MPI processor grid
create_atoms    1 box
Created 4 atoms
  create_atoms CPU = 0.0006164 secs

###################### Define Interatomic Potential ######################
pair_style eam/alloy
pair_coeff * * Co_PurjaPun_2012.eam.alloy Co   ## read in interatomic potential file
neighbor    0.3 bin                ## define parameters for neighbor list
neigh_modify    delay 5               ## define parameters for neighbor list

####################### calculated properties SETTINGS ######################
compute peratom all pe/atom
compute eatoms all reduce sum c_peratom


####################### thermal properties output on screen ######################
timestep       1
thermo 5
thermo_style custom step pe c_eatoms
# dump 1 all custom 100 min_bccFe.atom id type xs ys zs c_peratom
####################### minimize the total energy ######################

min_style       cg
minimize        1.0e-15 1.0e-15 1000 10000
WARNING: Using 'neigh_modify every 1 delay 0 check yes' setting during minimization (../min.cpp:190)
Last active /omp style is pair_style eam/alloy/omp
Neighbor list info ...
  update every 1 steps, delay 0 steps, check yes
  max neighbors/atom: 2000, page size: 100000
  master list distance cutoff = 6.79954
  ghost atom cutoff = 6.79954
  binsize = 3.39977, bins = 1 1 1
  1 neighbor lists, perpetual/occasional/extra = 1 0 0
  (1) pair eam/alloy/omp, perpetual
      attributes: half, newton on, omp
      pair build: half/bin/atomonly/newton/omp
      stencil: half/bin/3d/newton
      bin: standard
Per MPI rank memory allocation (min/avg/max) = 7.154 | 7.154 | 7.154 Mbytes
Step PotEng c_eatoms 
       0   -6.5253502   -6.5253502 
       1   -6.5253502   -6.5253502 
Loop time of 0.0026518 on 8 procs for 1 steps with 4 atoms

1178.4% CPU use with 2 MPI tasks x 4 OpenMP threads

Minimization stats:
  Stopping criterion = energy tolerance
  Energy initial, next-to-last, final = 
        -6.52535018778     -6.52535018778     -6.52535018778
  Force two-norm initial, final = 1.46686e-14 1.46871e-14
  Force max component initial, final = 1.26565e-14 1.26565e-14
  Final line search alpha, max atom move = 1 1.26565e-14
  Iterations, force evaluations = 1 2

MPI task timing breakdown:
Section |  min time  |  avg time  |  max time  |%varavg| %total
---------------------------------------------------------------
Pair    | 0.0019744  | 0.0020246  | 0.0020749  |   0.1 | 76.35
Neigh   | 0          | 0          | 0          |   0.0 |  0.00
Comm    | 0.0002514  | 0.0002839  | 0.0003164  |   0.0 | 10.71
Output  | 0          | 0          | 0          |   0.0 |  0.00
Modify  | 0.0002443  | 0.0002619  | 0.0002795  |   0.0 |  9.88
Other   |            | 8.135e-05  |            |       |  3.07

Nlocal:    2 ave 2 max 2 min
Histogram: 2 0 0 0 0 0 0 0 0 0
Nghost:    603 ave 603 max 603 min
Histogram: 2 0 0 0 0 0 0 0 0 0
Neighs:    200 ave 230 max 170 min
Histogram: 1 0 0 0 0 0 0 0 0 1

Total # of neighbors = 400
Ave neighs/atom = 100
Neighbor list builds = 0
Dangerous builds = 0
variable length equal "lx"
variable E equal "c_eatoms"
variable N equal count(all)
variable E_cohesive equal ${E}/${N}
variable E_cohesive equal -6.52535018777995/${N}
variable E_cohesive equal -6.52535018777995/4
print "${length} ${E_cohesive}" append CoFCC.dat
2.97977 -1.63133754694499

####################### jump into next loop  #######################
clear
OMP_NUM_THREADS environment is not set. Defaulting to 1 thread. (../comm.cpp:94)
  using 1 OpenMP thread(s) per MPI task
package omp 0
using multi-threaded neighbor list subroutines
package omp 4
set 4 OpenMP thread(s) per MPI task
using multi-threaded neighbor list subroutines
next            k
jump            in.lmp
units           metal
boundary        p p p
atom_style      atomic
###################### variable setting ########################################
variable        k loop 100            # define the number of loop
variable        a equal 2.86977+0.01*$k # define the various lattice constant “a”
variable        a equal 2.86977+0.01*12 

###################### BCC Fe simulation cell setting ##########################
lattice         fcc $a
lattice         fcc 2.98977
Lattice spacing in x,y,z = 2.98977 2.98977 2.98977
region	box block 0 1 0 1 0 1 units lattice
create_box      1 box
Created orthogonal box = (0 0 0) to (2.98977 2.98977 2.98977)
  1 by 1 by 2 MPI processor grid
create_atoms    1 box
Created 4 atoms
  create_atoms CPU = 0.0006749 secs

###################### Define Interatomic Potential ######################
pair_style eam/alloy
pair_coeff * * Co_PurjaPun_2012.eam.alloy Co   ## read in interatomic potential file
neighbor    0.3 bin                ## define parameters for neighbor list
neigh_modify    delay 5               ## define parameters for neighbor list

####################### calculated properties SETTINGS ######################
compute peratom all pe/atom
compute eatoms all reduce sum c_peratom


####################### thermal properties output on screen ######################
timestep       1
thermo 5
thermo_style custom step pe c_eatoms
# dump 1 all custom 100 min_bccFe.atom id type xs ys zs c_peratom
####################### minimize the total energy ######################

min_style       cg
minimize        1.0e-15 1.0e-15 1000 10000
WARNING: Using 'neigh_modify every 1 delay 0 check yes' setting during minimization (../min.cpp:190)
Last active /omp style is pair_style eam/alloy/omp
Neighbor list info ...
  update every 1 steps, delay 0 steps, check yes
  max neighbors/atom: 2000, page size: 100000
  master list distance cutoff = 6.79954
  ghost atom cutoff = 6.79954
  binsize = 3.39977, bins = 1 1 1
  1 neighbor lists, perpetual/occasional/extra = 1 0 0
  (1) pair eam/alloy/omp, perpetual
      attributes: half, newton on, omp
      pair build: half/bin/atomonly/newton/omp
      stencil: half/bin/3d/newton
      bin: standard
Per MPI rank memory allocation (min/avg/max) = 7.154 | 7.154 | 7.154 Mbytes
Step PotEng c_eatoms 
       0   -7.0510457   -7.0510457 
       1   -7.0510457   -7.0510457 
Loop time of 0.0042519 on 8 procs for 1 steps with 4 atoms

0.0% CPU use with 2 MPI tasks x 4 OpenMP threads

Minimization stats:
  Stopping criterion = energy tolerance
  Energy initial, next-to-last, final = 
        -7.05104566117     -7.05104566117     -7.05104566117
  Force two-norm initial, final = 1.16209e-14 1.16103e-14
  Force max component initial, final = 8.65974e-15 8.65974e-15
  Final line search alpha, max atom move = 1 8.65974e-15
  Iterations, force evaluations = 1 2

MPI task timing breakdown:
Section |  min time  |  avg time  |  max time  |%varavg| %total
---------------------------------------------------------------
Pair    | 0.0029509  | 0.0030036  | 0.0030563  |   0.1 | 70.64
Neigh   | 0          | 0          | 0          |   0.0 |  0.00
Comm    | 0.0002893  | 0.0003181  | 0.0003469  |   0.0 |  7.48
Output  | 0          | 0          | 0          |   0.0 |  0.00
Modify  | 0.0007216  | 0.00074325 | 0.0007649  |   0.0 | 17.48
Other   |            | 0.000187   |            |       |  4.40

Nlocal:    2 ave 2 max 2 min
Histogram: 2 0 0 0 0 0 0 0 0 0
Nghost:    603 ave 603 max 603 min
Histogram: 2 0 0 0 0 0 0 0 0 0
Neighs:    200 ave 230 max 170 min
Histogram: 1 0 0 0 0 0 0 0 0 1

Total # of neighbors = 400
Ave neighs/atom = 100
Neighbor list builds = 0
Dangerous builds = 0
variable length equal "lx"
variable E equal "c_eatoms"
variable N equal count(all)
variable E_cohesive equal ${E}/${N}
variable E_cohesive equal -7.05104566116538/${N}
variable E_cohesive equal -7.05104566116538/4
print "${length} ${E_cohesive}" append CoFCC.dat
2.98977 -1.76276141529134

####################### jump into next loop  #######################
clear
OMP_NUM_THREADS environment is not set. Defaulting to 1 thread. (../comm.cpp:94)
  using 1 OpenMP thread(s) per MPI task
package omp 0
using multi-threaded neighbor list subroutines
package omp 4
set 4 OpenMP thread(s) per MPI task
using multi-threaded neighbor list subroutines
next            k
jump            in.lmp
units           metal
boundary        p p p
atom_style      atomic
###################### variable setting ########################################
variable        k loop 100            # define the number of loop
variable        a equal 2.86977+0.01*$k # define the various lattice constant “a”
variable        a equal 2.86977+0.01*13 

###################### BCC Fe simulation cell setting ##########################
lattice         fcc $a
lattice         fcc 2.99977
Lattice spacing in x,y,z = 2.99977 2.99977 2.99977
region	box block 0 1 0 1 0 1 units lattice
create_box      1 box
Created orthogonal box = (0 0 0) to (2.99977 2.99977 2.99977)
  1 by 1 by 2 MPI processor grid
create_atoms    1 box
Created 4 atoms
  create_atoms CPU = 0.0011011 secs

###################### Define Interatomic Potential ######################
pair_style eam/alloy
pair_coeff * * Co_PurjaPun_2012.eam.alloy Co   ## read in interatomic potential file
neighbor    0.3 bin                ## define parameters for neighbor list
neigh_modify    delay 5               ## define parameters for neighbor list

####################### calculated properties SETTINGS ######################
compute peratom all pe/atom
compute eatoms all reduce sum c_peratom


####################### thermal properties output on screen ######################
timestep       1
thermo 5
thermo_style custom step pe c_eatoms
# dump 1 all custom 100 min_bccFe.atom id type xs ys zs c_peratom
####################### minimize the total energy ######################

min_style       cg
minimize        1.0e-15 1.0e-15 1000 10000
WARNING: Using 'neigh_modify every 1 delay 0 check yes' setting during minimization (../min.cpp:190)
Last active /omp style is pair_style eam/alloy/omp
Neighbor list info ...
  update every 1 steps, delay 0 steps, check yes
  max neighbors/atom: 2000, page size: 100000
  master list distance cutoff = 6.79954
  ghost atom cutoff = 6.79954
  binsize = 3.39977, bins = 1 1 1
  1 neighbor lists, perpetual/occasional/extra = 1 0 0
  (1) pair eam/alloy/omp, perpetual
      attributes: half, newton on, omp
      pair build: half/bin/atomonly/newton/omp
      stencil: half/bin/3d/newton
      bin: standard
Per MPI rank memory allocation (min/avg/max) = 7.154 | 7.154 | 7.154 Mbytes
Step PotEng c_eatoms 
       0   -7.5584916   -7.5584916 
       1   -7.5584916   -7.5584916 
Loop time of 0.0096798 on 8 procs for 1 steps with 4 atoms

0.0% CPU use with 2 MPI tasks x 4 OpenMP threads

Minimization stats:
  Stopping criterion = energy tolerance
  Energy initial, next-to-last, final = 
        -7.55849160901     -7.55849160901     -7.55849160901
  Force two-norm initial, final = 1.38154e-14 1.38635e-14
  Force max component initial, final = 7.99361e-15 7.99361e-15
  Final line search alpha, max atom move = 1 7.99361e-15
  Iterations, force evaluations = 1 2

MPI task timing breakdown:
Section |  min time  |  avg time  |  max time  |%varavg| %total
---------------------------------------------------------------
Pair    | 0.0055446  | 0.0055544  | 0.0055642  |   0.0 | 57.38
Neigh   | 0          | 0          | 0          |   0.0 |  0.00
Comm    | 0.0022959  | 0.0025103  | 0.0027247  |   0.4 | 25.93
Output  | 0          | 0          | 0          |   0.0 |  0.00
Modify  | 0.001169   | 0.0012902  | 0.0014115  |   0.3 | 13.33
Other   |            | 0.0003248  |            |       |  3.36

Nlocal:    2 ave 2 max 2 min
Histogram: 2 0 0 0 0 0 0 0 0 0
Nghost:    603 ave 603 max 603 min
Histogram: 2 0 0 0 0 0 0 0 0 0
Neighs:    200 ave 230 max 170 min
Histogram: 1 0 0 0 0 0 0 0 0 1

Total # of neighbors = 400
Ave neighs/atom = 100
Neighbor list builds = 0
Dangerous builds = 0
variable length equal "lx"
variable E equal "c_eatoms"
variable N equal count(all)
variable E_cohesive equal ${E}/${N}
variable E_cohesive equal -7.5584916090051/${N}
variable E_cohesive equal -7.5584916090051/4
print "${length} ${E_cohesive}" append CoFCC.dat
2.99977 -1.88962290225127

####################### jump into next loop  #######################
clear
OMP_NUM_THREADS environment is not set. Defaulting to 1 thread. (../comm.cpp:94)
  using 1 OpenMP thread(s) per MPI task
package omp 0
using multi-threaded neighbor list subroutines
package omp 4
set 4 OpenMP thread(s) per MPI task
using multi-threaded neighbor list subroutines
next            k
jump            in.lmp
units           metal
boundary        p p p
atom_style      atomic
###################### variable setting ########################################
variable        k loop 100            # define the number of loop
variable        a equal 2.86977+0.01*$k # define the various lattice constant “a”
variable        a equal 2.86977+0.01*14 

###################### BCC Fe simulation cell setting ##########################
lattice         fcc $a
lattice         fcc 3.00977
Lattice spacing in x,y,z = 3.00977 3.00977 3.00977
region	box block 0 1 0 1 0 1 units lattice
create_box      1 box
Created orthogonal box = (0 0 0) to (3.00977 3.00977 3.00977)
  1 by 1 by 2 MPI processor grid
create_atoms    1 box
Created 4 atoms
  create_atoms CPU = 0.0012563 secs

###################### Define Interatomic Potential ######################
pair_style eam/alloy
pair_coeff * * Co_PurjaPun_2012.eam.alloy Co   ## read in interatomic potential file
neighbor    0.3 bin                ## define parameters for neighbor list
neigh_modify    delay 5               ## define parameters for neighbor list

####################### calculated properties SETTINGS ######################
compute peratom all pe/atom
compute eatoms all reduce sum c_peratom


####################### thermal properties output on screen ######################
timestep       1
thermo 5
thermo_style custom step pe c_eatoms
# dump 1 all custom 100 min_bccFe.atom id type xs ys zs c_peratom
####################### minimize the total energy ######################

min_style       cg
minimize        1.0e-15 1.0e-15 1000 10000
WARNING: Using 'neigh_modify every 1 delay 0 check yes' setting during minimization (../min.cpp:190)
Last active /omp style is pair_style eam/alloy/omp
Neighbor list info ...
  update every 1 steps, delay 0 steps, check yes
  max neighbors/atom: 2000, page size: 100000
  master list distance cutoff = 6.79954
  ghost atom cutoff = 6.79954
  binsize = 3.39977, bins = 1 1 1
  1 neighbor lists, perpetual/occasional/extra = 1 0 0
  (1) pair eam/alloy/omp, perpetual
      attributes: half, newton on, omp
      pair build: half/bin/atomonly/newton/omp
      stencil: half/bin/3d/newton
      bin: standard
Per MPI rank memory allocation (min/avg/max) = 7.154 | 7.154 | 7.154 Mbytes
Step PotEng c_eatoms 
       0   -8.0479579   -8.0479579 
       1   -8.0479579   -8.0479579 
Loop time of 0.00286295 on 8 procs for 1 steps with 4 atoms

0.0% CPU use with 2 MPI tasks x 4 OpenMP threads

Minimization stats:
  Stopping criterion = energy tolerance
  Energy initial, next-to-last, final = 
        -8.04795790165     -8.04795790165     -8.04795790165
  Force two-norm initial, final = 1.00392e-14 1.05773e-14
  Force max component initial, final = 8.77076e-15 8.77076e-15
  Final line search alpha, max atom move = 1 8.77076e-15
  Iterations, force evaluations = 1 2

MPI task timing breakdown:
Section |  min time  |  avg time  |  max time  |%varavg| %total
---------------------------------------------------------------
Pair    | 0.002321   | 0.0023234  | 0.0023258  |   0.0 | 81.15
Neigh   | 0          | 0          | 0          |   0.0 |  0.00
Comm    | 0.0001297  | 0.0001341  | 0.0001385  |   0.0 |  4.68
Output  | 0          | 0          | 0          |   0.0 |  0.00
Modify  | 0.0003237  | 0.0003253  | 0.0003269  |   0.0 | 11.36
Other   |            | 8.015e-05  |            |       |  2.80

Nlocal:    2 ave 2 max 2 min
Histogram: 2 0 0 0 0 0 0 0 0 0
Nghost:    603 ave 603 max 603 min
Histogram: 2 0 0 0 0 0 0 0 0 0
Neighs:    200 ave 230 max 170 min
Histogram: 1 0 0 0 0 0 0 0 0 1

Total # of neighbors = 400
Ave neighs/atom = 100
Neighbor list builds = 0
Dangerous builds = 0
variable length equal "lx"
variable E equal "c_eatoms"
variable N equal count(all)
variable E_cohesive equal ${E}/${N}
variable E_cohesive equal -8.04795790164565/${N}
variable E_cohesive equal -8.04795790164565/4
print "${length} ${E_cohesive}" append CoFCC.dat
3.00977 -2.01198947541141

####################### jump into next loop  #######################
clear
OMP_NUM_THREADS environment is not set. Defaulting to 1 thread. (../comm.cpp:94)
  using 1 OpenMP thread(s) per MPI task
package omp 0
using multi-threaded neighbor list subroutines
package omp 4
set 4 OpenMP thread(s) per MPI task
using multi-threaded neighbor list subroutines
next            k
jump            in.lmp
units           metal
boundary        p p p
atom_style      atomic
###################### variable setting ########################################
variable        k loop 100            # define the number of loop
variable        a equal 2.86977+0.01*$k # define the various lattice constant “a”
variable        a equal 2.86977+0.01*15 

###################### BCC Fe simulation cell setting ##########################
lattice         fcc $a
lattice         fcc 3.01977
Lattice spacing in x,y,z = 3.01977 3.01977 3.01977
region	box block 0 1 0 1 0 1 units lattice
create_box      1 box
Created orthogonal box = (0 0 0) to (3.01977 3.01977 3.01977)
  1 by 1 by 2 MPI processor grid
create_atoms    1 box
Created 4 atoms
  create_atoms CPU = 0.0008425 secs

###################### Define Interatomic Potential ######################
pair_style eam/alloy
pair_coeff * * Co_PurjaPun_2012.eam.alloy Co   ## read in interatomic potential file
neighbor    0.3 bin                ## define parameters for neighbor list
neigh_modify    delay 5               ## define parameters for neighbor list

####################### calculated properties SETTINGS ######################
compute peratom all pe/atom
compute eatoms all reduce sum c_peratom


####################### thermal properties output on screen ######################
timestep       1
thermo 5
thermo_style custom step pe c_eatoms
# dump 1 all custom 100 min_bccFe.atom id type xs ys zs c_peratom
####################### minimize the total energy ######################

min_style       cg
minimize        1.0e-15 1.0e-15 1000 10000
WARNING: Using 'neigh_modify every 1 delay 0 check yes' setting during minimization (../min.cpp:190)
Last active /omp style is pair_style eam/alloy/omp
Neighbor list info ...
  update every 1 steps, delay 0 steps, check yes
  max neighbors/atom: 2000, page size: 100000
  master list distance cutoff = 6.79954
  ghost atom cutoff = 6.79954
  binsize = 3.39977, bins = 1 1 1
  1 neighbor lists, perpetual/occasional/extra = 1 0 0
  (1) pair eam/alloy/omp, perpetual
      attributes: half, newton on, omp
      pair build: half/bin/atomonly/newton/omp
      stencil: half/bin/3d/newton
      bin: standard
Per MPI rank memory allocation (min/avg/max) = 7.154 | 7.154 | 7.154 Mbytes
Step PotEng c_eatoms 
       0   -8.5197352   -8.5197352 
       1   -8.5197352   -8.5197352 
Loop time of 0.00248755 on 8 procs for 1 steps with 4 atoms

0.0% CPU use with 2 MPI tasks x 4 OpenMP threads

Minimization stats:
  Stopping criterion = energy tolerance
  Energy initial, next-to-last, final = 
         -8.5197351792      -8.5197351792      -8.5197351792
  Force two-norm initial, final = 1.22573e-14 1.21847e-14
  Force max component initial, final = 7.99361e-15 7.99361e-15
  Final line search alpha, max atom move = 1 7.99361e-15
  Iterations, force evaluations = 1 2

MPI task timing breakdown:
Section |  min time  |  avg time  |  max time  |%varavg| %total
---------------------------------------------------------------
Pair    | 0.0019226  | 0.0019655  | 0.0020084  |   0.1 | 79.01
Neigh   | 0          | 0          | 0          |   0.0 |  0.00
Comm    | 0.0001192  | 0.0001261  | 0.000133   |   0.0 |  5.07
Output  | 0          | 0          | 0          |   0.0 |  0.00
Modify  | 0.0002538  | 0.0003032  | 0.0003526  |   0.0 | 12.19
Other   |            | 9.275e-05  |            |       |  3.73

Nlocal:    2 ave 2 max 2 min
Histogram: 2 0 0 0 0 0 0 0 0 0
Nghost:    603 ave 603 max 603 min
Histogram: 2 0 0 0 0 0 0 0 0 0
Neighs:    200 ave 230 max 170 min
Histogram: 1 0 0 0 0 0 0 0 0 1

Total # of neighbors = 400
Ave neighs/atom = 100
Neighbor list builds = 0
Dangerous builds = 0
variable length equal "lx"
variable E equal "c_eatoms"
variable N equal count(all)
variable E_cohesive equal ${E}/${N}
variable E_cohesive equal -8.51973517919665/${N}
variable E_cohesive equal -8.51973517919665/4
print "${length} ${E_cohesive}" append CoFCC.dat
3.01977 -2.12993379479916

####################### jump into next loop  #######################
clear
OMP_NUM_THREADS environment is not set. Defaulting to 1 thread. (../comm.cpp:94)
  using 1 OpenMP thread(s) per MPI task
package omp 0
using multi-threaded neighbor list subroutines
package omp 4
set 4 OpenMP thread(s) per MPI task
using multi-threaded neighbor list subroutines
next            k
jump            in.lmp
units           metal
boundary        p p p
atom_style      atomic
###################### variable setting ########################################
variable        k loop 100            # define the number of loop
variable        a equal 2.86977+0.01*$k # define the various lattice constant “a”
variable        a equal 2.86977+0.01*16 

###################### BCC Fe simulation cell setting ##########################
lattice         fcc $a
lattice         fcc 3.02977
Lattice spacing in x,y,z = 3.02977 3.02977 3.02977
region	box block 0 1 0 1 0 1 units lattice
create_box      1 box
Created orthogonal box = (0 0 0) to (3.02977 3.02977 3.02977)
  1 by 1 by 2 MPI processor grid
create_atoms    1 box
Created 4 atoms
  create_atoms CPU = 0.0006707 secs

###################### Define Interatomic Potential ######################
pair_style eam/alloy
pair_coeff * * Co_PurjaPun_2012.eam.alloy Co   ## read in interatomic potential file
neighbor    0.3 bin                ## define parameters for neighbor list
neigh_modify    delay 5               ## define parameters for neighbor list

####################### calculated properties SETTINGS ######################
compute peratom all pe/atom
compute eatoms all reduce sum c_peratom


####################### thermal properties output on screen ######################
timestep       1
thermo 5
thermo_style custom step pe c_eatoms
# dump 1 all custom 100 min_bccFe.atom id type xs ys zs c_peratom
####################### minimize the total energy ######################

min_style       cg
minimize        1.0e-15 1.0e-15 1000 10000
WARNING: Using 'neigh_modify every 1 delay 0 check yes' setting during minimization (../min.cpp:190)
Last active /omp style is pair_style eam/alloy/omp
Neighbor list info ...
  update every 1 steps, delay 0 steps, check yes
  max neighbors/atom: 2000, page size: 100000
  master list distance cutoff = 6.79954
  ghost atom cutoff = 6.79954
  binsize = 3.39977, bins = 1 1 1
  1 neighbor lists, perpetual/occasional/extra = 1 0 0
  (1) pair eam/alloy/omp, perpetual
      attributes: half, newton on, omp
      pair build: half/bin/atomonly/newton/omp
      stencil: half/bin/3d/newton
      bin: standard
Per MPI rank memory allocation (min/avg/max) = 7.154 | 7.154 | 7.154 Mbytes
Step PotEng c_eatoms 
       0   -8.9741334   -8.9741334 
       1   -8.9741334   -8.9741334 
Loop time of 0.0027475 on 8 procs for 1 steps with 4 atoms

0.0% CPU use with 2 MPI tasks x 4 OpenMP threads

Minimization stats:
  Stopping criterion = energy tolerance
  Energy initial, next-to-last, final = 
        -8.97413338459     -8.97413338459     -8.97413338459
  Force two-norm initial, final = 1.15806e-14 1.2488e-14
  Force max component initial, final = 7.10543e-15 8.88178e-15
  Final line search alpha, max atom move = 1 8.88178e-15
  Iterations, force evaluations = 1 2

MPI task timing breakdown:
Section |  min time  |  avg time  |  max time  |%varavg| %total
---------------------------------------------------------------
Pair    | 0.0020738  | 0.002092   | 0.0021102  |   0.0 | 76.14
Neigh   | 0          | 0          | 0          |   0.0 |  0.00
Comm    | 0.0001944  | 0.0002293  | 0.0002642  |   0.0 |  8.35
Output  | 0          | 0          | 0          |   0.0 |  0.00
Modify  | 0.0002878  | 0.0003407  | 0.0003936  |   0.0 | 12.40
Other   |            | 8.55e-05   |            |       |  3.11

Nlocal:    2 ave 2 max 2 min
Histogram: 2 0 0 0 0 0 0 0 0 0
Nghost:    603 ave 603 max 603 min
Histogram: 2 0 0 0 0 0 0 0 0 0
Neighs:    200 ave 230 max 170 min
Histogram: 1 0 0 0 0 0 0 0 0 1

Total # of neighbors = 400
Ave neighs/atom = 100
Neighbor list builds = 0
Dangerous builds = 0
variable length equal "lx"
variable E equal "c_eatoms"
variable N equal count(all)
variable E_cohesive equal ${E}/${N}
variable E_cohesive equal -8.97413338458711/${N}
variable E_cohesive equal -8.97413338458711/4
print "${length} ${E_cohesive}" append CoFCC.dat
3.02977 -2.24353334614678

####################### jump into next loop  #######################
clear
OMP_NUM_THREADS environment is not set. Defaulting to 1 thread. (../comm.cpp:94)
  using 1 OpenMP thread(s) per MPI task
package omp 0
using multi-threaded neighbor list subroutines
package omp 4
set 4 OpenMP thread(s) per MPI task
using multi-threaded neighbor list subroutines
next            k
jump            in.lmp
units           metal
boundary        p p p
atom_style      atomic
###################### variable setting ########################################
variable        k loop 100            # define the number of loop
variable        a equal 2.86977+0.01*$k # define the various lattice constant “a”
variable        a equal 2.86977+0.01*17 

###################### BCC Fe simulation cell setting ##########################
lattice         fcc $a
lattice         fcc 3.03977
Lattice spacing in x,y,z = 3.03977 3.03977 3.03977
region	box block 0 1 0 1 0 1 units lattice
create_box      1 box
Created orthogonal box = (0 0 0) to (3.03977 3.03977 3.03977)
  1 by 1 by 2 MPI processor grid
create_atoms    1 box
Created 4 atoms
  create_atoms CPU = 0.0006385 secs

###################### Define Interatomic Potential ######################
pair_style eam/alloy
pair_coeff * * Co_PurjaPun_2012.eam.alloy Co   ## read in interatomic potential file
neighbor    0.3 bin                ## define parameters for neighbor list
neigh_modify    delay 5               ## define parameters for neighbor list

####################### calculated properties SETTINGS ######################
compute peratom all pe/atom
compute eatoms all reduce sum c_peratom


####################### thermal properties output on screen ######################
timestep       1
thermo 5
thermo_style custom step pe c_eatoms
# dump 1 all custom 100 min_bccFe.atom id type xs ys zs c_peratom
####################### minimize the total energy ######################

min_style       cg
minimize        1.0e-15 1.0e-15 1000 10000
WARNING: Using 'neigh_modify every 1 delay 0 check yes' setting during minimization (../min.cpp:190)
Last active /omp style is pair_style eam/alloy/omp
Neighbor list info ...
  update every 1 steps, delay 0 steps, check yes
  max neighbors/atom: 2000, page size: 100000
  master list distance cutoff = 6.79954
  ghost atom cutoff = 6.79954
  binsize = 3.39977, bins = 1 1 1
  1 neighbor lists, perpetual/occasional/extra = 1 0 0
  (1) pair eam/alloy/omp, perpetual
      attributes: half, newton on, omp
      pair build: half/bin/atomonly/newton/omp
      stencil: half/bin/3d/newton
      bin: standard
Per MPI rank memory allocation (min/avg/max) = 7.154 | 7.154 | 7.154 Mbytes
Step PotEng c_eatoms 
       0    -9.411478    -9.411478 
       1    -9.411478    -9.411478 
Loop time of 0.00294505 on 8 procs for 1 steps with 4 atoms

0.0% CPU use with 2 MPI tasks x 4 OpenMP threads

Minimization stats:
  Stopping criterion = energy tolerance
  Energy initial, next-to-last, final = 
        -9.41147802793     -9.41147802793     -9.41147802793
  Force two-norm initial, final = 1.00274e-14 1.00274e-14
  Force max component initial, final = 7.60503e-15 7.60503e-15
  Final line search alpha, max atom move = 1 7.60503e-15
  Iterations, force evaluations = 1 2

MPI task timing breakdown:
Section |  min time  |  avg time  |  max time  |%varavg| %total
---------------------------------------------------------------
Pair    | 0.0022069  | 0.0022959  | 0.002385   |   0.2 | 77.96
Neigh   | 0          | 0          | 0          |   0.0 |  0.00
Comm    | 0.0001087  | 0.000165   | 0.0002213  |   0.0 |  5.60
Output  | 0          | 0          | 0          |   0.0 |  0.00
Modify  | 0.0003689  | 0.00040225 | 0.0004356  |   0.0 | 13.66
Other   |            | 8.185e-05  |            |       |  2.78

Nlocal:    2 ave 2 max 2 min
Histogram: 2 0 0 0 0 0 0 0 0 0
Nghost:    603 ave 603 max 603 min
Histogram: 2 0 0 0 0 0 0 0 0 0
Neighs:    200 ave 230 max 170 min
Histogram: 1 0 0 0 0 0 0 0 0 1

Total # of neighbors = 400
Ave neighs/atom = 100
Neighbor list builds = 0
Dangerous builds = 0
variable length equal "lx"
variable E equal "c_eatoms"
variable N equal count(all)
variable E_cohesive equal ${E}/${N}
variable E_cohesive equal -9.41147802792759/${N}
variable E_cohesive equal -9.41147802792759/4
print "${length} ${E_cohesive}" append CoFCC.dat
3.03977 -2.3528695069819

####################### jump into next loop  #######################
clear
OMP_NUM_THREADS environment is not set. Defaulting to 1 thread. (../comm.cpp:94)
  using 1 OpenMP thread(s) per MPI task
package omp 0
using multi-threaded neighbor list subroutines
package omp 4
set 4 OpenMP thread(s) per MPI task
using multi-threaded neighbor list subroutines
next            k
jump            in.lmp
units           metal
boundary        p p p
atom_style      atomic
###################### variable setting ########################################
variable        k loop 100            # define the number of loop
variable        a equal 2.86977+0.01*$k # define the various lattice constant “a”
variable        a equal 2.86977+0.01*18 

###################### BCC Fe simulation cell setting ##########################
lattice         fcc $a
lattice         fcc 3.04977
Lattice spacing in x,y,z = 3.04977 3.04977 3.04977
region	box block 0 1 0 1 0 1 units lattice
create_box      1 box
Created orthogonal box = (0 0 0) to (3.04977 3.04977 3.04977)
  1 by 1 by 2 MPI processor grid
create_atoms    1 box
Created 4 atoms
  create_atoms CPU = 0.0006602 secs

###################### Define Interatomic Potential ######################
pair_style eam/alloy
pair_coeff * * Co_PurjaPun_2012.eam.alloy Co   ## read in interatomic potential file
neighbor    0.3 bin                ## define parameters for neighbor list
neigh_modify    delay 5               ## define parameters for neighbor list

####################### calculated properties SETTINGS ######################
compute peratom all pe/atom
compute eatoms all reduce sum c_peratom


####################### thermal properties output on screen ######################
timestep       1
thermo 5
thermo_style custom step pe c_eatoms
# dump 1 all custom 100 min_bccFe.atom id type xs ys zs c_peratom
####################### minimize the total energy ######################

min_style       cg
minimize        1.0e-15 1.0e-15 1000 10000
WARNING: Using 'neigh_modify every 1 delay 0 check yes' setting during minimization (../min.cpp:190)
Last active /omp style is pair_style eam/alloy/omp
Neighbor list info ...
  update every 1 steps, delay 0 steps, check yes
  max neighbors/atom: 2000, page size: 100000
  master list distance cutoff = 6.79954
  ghost atom cutoff = 6.79954
  binsize = 3.39977, bins = 1 1 1
  1 neighbor lists, perpetual/occasional/extra = 1 0 0
  (1) pair eam/alloy/omp, perpetual
      attributes: half, newton on, omp
      pair build: half/bin/atomonly/newton/omp
      stencil: half/bin/3d/newton
      bin: standard
Per MPI rank memory allocation (min/avg/max) = 7.154 | 7.154 | 7.154 Mbytes
Step PotEng c_eatoms 
       0   -9.8321085   -9.8321085 
       1   -9.8321085   -9.8321085 
Loop time of 0.0029886 on 8 procs for 1 steps with 4 atoms

261.4% CPU use with 2 MPI tasks x 4 OpenMP threads

Minimization stats:
  Stopping criterion = energy tolerance
  Energy initial, next-to-last, final = 
        -9.83210845216     -9.83210845216     -9.83210845216
  Force two-norm initial, final = 6.69508e-15 6.71622e-15
  Force max component initial, final = 3.55271e-15 3.55271e-15
  Final line search alpha, max atom move = 1 3.55271e-15
  Iterations, force evaluations = 1 2

MPI task timing breakdown:
Section |  min time  |  avg time  |  max time  |%varavg| %total
---------------------------------------------------------------
Pair    | 0.0020613  | 0.0020715  | 0.0020817  |   0.0 | 69.31
Neigh   | 0          | 0          | 0          |   0.0 |  0.00
Comm    | 0.0004465  | 0.0004803  | 0.0005141  |   0.0 | 16.07
Output  | 0          | 0          | 0          |   0.0 |  0.00
Modify  | 0.0003086  | 0.0003146  | 0.0003206  |   0.0 | 10.53
Other   |            | 0.0001222  |            |       |  4.09

Nlocal:    2 ave 2 max 2 min
Histogram: 2 0 0 0 0 0 0 0 0 0
Nghost:    603 ave 603 max 603 min
Histogram: 2 0 0 0 0 0 0 0 0 0
Neighs:    176 ave 206 max 146 min
Histogram: 1 0 0 0 0 0 0 0 0 1

Total # of neighbors = 352
Ave neighs/atom = 88
Neighbor list builds = 0
Dangerous builds = 0
variable length equal "lx"
variable E equal "c_eatoms"
variable N equal count(all)
variable E_cohesive equal ${E}/${N}
variable E_cohesive equal -9.83210845215994/${N}
variable E_cohesive equal -9.83210845215994/4
print "${length} ${E_cohesive}" append CoFCC.dat
3.04977 -2.45802711303998

####################### jump into next loop  #######################
clear
OMP_NUM_THREADS environment is not set. Defaulting to 1 thread. (../comm.cpp:94)
  using 1 OpenMP thread(s) per MPI task
package omp 0
using multi-threaded neighbor list subroutines
package omp 4
set 4 OpenMP thread(s) per MPI task
using multi-threaded neighbor list subroutines
next            k
jump            in.lmp
units           metal
boundary        p p p
atom_style      atomic
###################### variable setting ########################################
variable        k loop 100            # define the number of loop
variable        a equal 2.86977+0.01*$k # define the various lattice constant “a”
variable        a equal 2.86977+0.01*19 

###################### BCC Fe simulation cell setting ##########################
lattice         fcc $a
lattice         fcc 3.05977
Lattice spacing in x,y,z = 3.05977 3.05977 3.05977
region	box block 0 1 0 1 0 1 units lattice
create_box      1 box
Created orthogonal box = (0 0 0) to (3.05977 3.05977 3.05977)
  1 by 1 by 2 MPI processor grid
create_atoms    1 box
Created 4 atoms
  create_atoms CPU = 0.0025551 secs

###################### Define Interatomic Potential ######################
pair_style eam/alloy
pair_coeff * * Co_PurjaPun_2012.eam.alloy Co   ## read in interatomic potential file
neighbor    0.3 bin                ## define parameters for neighbor list
neigh_modify    delay 5               ## define parameters for neighbor list

####################### calculated properties SETTINGS ######################
compute peratom all pe/atom
[...]
  master list distance cutoff = 6.79954
  ghost atom cutoff = 6.79954
  binsize = 3.39977, bins = 2 2 2
  1 neighbor lists, perpetual/occasional/extra = 1 0 0
  (1) pair eam/alloy/omp, perpetual
      attributes: half, newton on, omp
      pair build: half/bin/atomonly/newton/omp
      stencil: half/bin/3d/newton
      bin: standard
Per MPI rank memory allocation (min/avg/max) = 7.122 | 7.122 | 7.122 Mbytes
Step PotEng c_eatoms 
       0   -16.413995   -16.413995 
       1   -16.413995   -16.413995 
Loop time of 0.0042142 on 8 procs for 1 steps with 4 atoms

0.0% CPU use with 2 MPI tasks x 4 OpenMP threads

Minimization stats:
  Stopping criterion = quadratic factors are zero
  Energy initial, next-to-last, final = 
        -16.4139952784     -16.4139952784     -16.4139952784
  Force two-norm initial, final = 4.09924e-16 4.09924e-16
  Force max component initial, final = 2.77556e-16 2.77556e-16
  Final line search alpha, max atom move = 1 2.77556e-16
  Iterations, force evaluations = 1 2

MPI task timing breakdown:
Section |  min time  |  avg time  |  max time  |%varavg| %total
---------------------------------------------------------------
Pair    | 0.0035159  | 0.0035375  | 0.003559   |   0.0 | 83.94
Neigh   | 0          | 0          | 0          |   0.0 |  0.00
Comm    | 0.0001902  | 0.00022595 | 0.0002617  |   0.0 |  5.36
Output  | 0          | 0          | 0          |   0.0 |  0.00
Modify  | 0.000306   | 0.0003202  | 0.0003344  |   0.0 |  7.60
Other   |            | 0.0001306  |            |       |  3.10

Nlocal:    2 ave 2 max 2 min
Histogram: 2 0 0 0 0 0 0 0 0 0
Nghost:    322 ave 322 max 322 min
Histogram: 2 0 0 0 0 0 0 0 0 0
Neighs:    86 ave 100 max 72 min
Histogram: 1 0 0 0 0 0 0 0 0 1

Total # of neighbors = 172
Ave neighs/atom = 43
Neighbor list builds = 0
Dangerous builds = 0
variable length equal "lx"
variable E equal "c_eatoms"
variable N equal count(all)
variable E_cohesive equal ${E}/${N}
variable E_cohesive equal -16.4139952783528/${N}
variable E_cohesive equal -16.4139952783528/4
print "${length} ${E_cohesive}" append CoFCC.dat
3.82977 -4.1034988195882

####################### jump into next loop  #######################
clear
OMP_NUM_THREADS environment is not set. Defaulting to 1 thread. (../comm.cpp:94)
  using 1 OpenMP thread(s) per MPI task
package omp 0
using multi-threaded neighbor list subroutines
package omp 4
set 4 OpenMP thread(s) per MPI task
using multi-threaded neighbor list subroutines
next            k
jump            in.lmp
units           metal
boundary        p p p
atom_style      atomic
###################### variable setting ########################################
variable        k loop 100            # define the number of loop
variable        a equal 2.86977+0.01*$k # define the various lattice constant “a”
variable        a equal 2.86977+0.01*97 

###################### BCC Fe simulation cell setting ##########################
lattice         fcc $a
lattice         fcc 3.83977
Lattice spacing in x,y,z = 3.83977 3.83977 3.83977
region	box block 0 1 0 1 0 1 units lattice
create_box      1 box
Created orthogonal box = (0 0 0) to (3.83977 3.83977 3.83977)
  1 by 1 by 2 MPI processor grid
create_atoms    1 box
Created 4 atoms
  create_atoms CPU = 0.0004541 secs

###################### Define Interatomic Potential ######################
pair_style eam/alloy
pair_coeff * * Co_PurjaPun_2012.eam.alloy Co   ## read in interatomic potential file
neighbor    0.3 bin                ## define parameters for neighbor list
neigh_modify    delay 5               ## define parameters for neighbor list

####################### calculated properties SETTINGS ######################
compute peratom all pe/atom
compute eatoms all reduce sum c_peratom


####################### thermal properties output on screen ######################
timestep       1
thermo 5
thermo_style custom step pe c_eatoms
# dump 1 all custom 100 min_bccFe.atom id type xs ys zs c_peratom
####################### minimize the total energy ######################

min_style       cg
minimize        1.0e-15 1.0e-15 1000 10000
WARNING: Using 'neigh_modify every 1 delay 0 check yes' setting during minimization (../min.cpp:190)
Last active /omp style is pair_style eam/alloy/omp
Neighbor list info ...
  update every 1 steps, delay 0 steps, check yes
  max neighbors/atom: 2000, page size: 100000
  master list distance cutoff = 6.79954
  ghost atom cutoff = 6.79954
  binsize = 3.39977, bins = 2 2 2
  1 neighbor lists, perpetual/occasional/extra = 1 0 0
  (1) pair eam/alloy/omp, perpetual
      attributes: half, newton on, omp
      pair build: half/bin/atomonly/newton/omp
      stencil: half/bin/3d/newton
      bin: standard
Per MPI rank memory allocation (min/avg/max) = 7.122 | 7.122 | 7.122 Mbytes
Step PotEng c_eatoms 
       0   -16.340766   -16.340766 
       1   -16.340766   -16.340766 
Loop time of 0.0031855 on 8 procs for 1 steps with 4 atoms

0.0% CPU use with 2 MPI tasks x 4 OpenMP threads

Minimization stats:
  Stopping criterion = quadratic factors are zero
  Energy initial, next-to-last, final = 
         -16.340765819      -16.340765819      -16.340765819
  Force two-norm initial, final = 2.00869e-16 2.00869e-16
  Force max component initial, final = 1.11022e-16 1.11022e-16
  Final line search alpha, max atom move = 1 1.11022e-16
  Iterations, force evaluations = 1 2

MPI task timing breakdown:
Section |  min time  |  avg time  |  max time  |%varavg| %total
---------------------------------------------------------------
Pair    | 0.0022368  | 0.0022666  | 0.0022964  |   0.1 | 71.15
Neigh   | 0          | 0          | 0          |   0.0 |  0.00
Comm    | 0.0004938  | 0.0005211  | 0.0005484  |   0.0 | 16.36
Output  | 0          | 0          | 0          |   0.0 |  0.00
Modify  | 0.0003042  | 0.00030475 | 0.0003053  |   0.0 |  9.57
Other   |            | 9.305e-05  |            |       |  2.92

Nlocal:    2 ave 2 max 2 min
Histogram: 2 0 0 0 0 0 0 0 0 0
Nghost:    322 ave 322 max 322 min
Histogram: 2 0 0 0 0 0 0 0 0 0
Neighs:    86 ave 100 max 72 min
Histogram: 1 0 0 0 0 0 0 0 0 1

Total # of neighbors = 172
Ave neighs/atom = 43
Neighbor list builds = 0
Dangerous builds = 0
variable length equal "lx"
variable E equal "c_eatoms"
variable N equal count(all)
variable E_cohesive equal ${E}/${N}
variable E_cohesive equal -16.3407658189962/${N}
variable E_cohesive equal -16.3407658189962/4
print "${length} ${E_cohesive}" append CoFCC.dat
3.83977 -4.08519145474905

####################### jump into next loop  #######################
clear
OMP_NUM_THREADS environment is not set. Defaulting to 1 thread. (../comm.cpp:94)
  using 1 OpenMP thread(s) per MPI task
package omp 0
using multi-threaded neighbor list subroutines
package omp 4
set 4 OpenMP thread(s) per MPI task
using multi-threaded neighbor list subroutines
next            k
jump            in.lmp
units           metal
boundary        p p p
atom_style      atomic
###################### variable setting ########################################
variable        k loop 100            # define the number of loop
variable        a equal 2.86977+0.01*$k # define the various lattice constant “a”
variable        a equal 2.86977+0.01*98 

###################### BCC Fe simulation cell setting ##########################
lattice         fcc $a
lattice         fcc 3.84977
Lattice spacing in x,y,z = 3.84977 3.84977 3.84977
region	box block 0 1 0 1 0 1 units lattice
create_box      1 box
Created orthogonal box = (0 0 0) to (3.84977 3.84977 3.84977)
  1 by 1 by 2 MPI processor grid
create_atoms    1 box
Created 4 atoms
  create_atoms CPU = 0.00043 secs

###################### Define Interatomic Potential ######################
pair_style eam/alloy
pair_coeff * * Co_PurjaPun_2012.eam.alloy Co   ## read in interatomic potential file
neighbor    0.3 bin                ## define parameters for neighbor list
neigh_modify    delay 5               ## define parameters for neighbor list

####################### calculated properties SETTINGS ######################
compute peratom all pe/atom
compute eatoms all reduce sum c_peratom


####################### thermal properties output on screen ######################
timestep       1
thermo 5
thermo_style custom step pe c_eatoms
# dump 1 all custom 100 min_bccFe.atom id type xs ys zs c_peratom
####################### minimize the total energy ######################

min_style       cg
minimize        1.0e-15 1.0e-15 1000 10000
WARNING: Using 'neigh_modify every 1 delay 0 check yes' setting during minimization (../min.cpp:190)
Last active /omp style is pair_style eam/alloy/omp
Neighbor list info ...
  update every 1 steps, delay 0 steps, check yes
  max neighbors/atom: 2000, page size: 100000
  master list distance cutoff = 6.79954
  ghost atom cutoff = 6.79954
  binsize = 3.39977, bins = 2 2 2
  1 neighbor lists, perpetual/occasional/extra = 1 0 0
  (1) pair eam/alloy/omp, perpetual
      attributes: half, newton on, omp
      pair build: half/bin/atomonly/newton/omp
      stencil: half/bin/3d/newton
      bin: standard
Per MPI rank memory allocation (min/avg/max) = 7.122 | 7.122 | 7.122 Mbytes
Step PotEng c_eatoms 
       0   -16.266227   -16.266227 
       1   -16.266227   -16.266227 
Loop time of 0.0023529 on 8 procs for 1 steps with 4 atoms

0.0% CPU use with 2 MPI tasks x 4 OpenMP threads

Minimization stats:
  Stopping criterion = quadratic factors are zero
  Energy initial, next-to-last, final = 
        -16.2662266812     -16.2662266812     -16.2662266812
  Force two-norm initial, final = 4.14305e-16 4.14305e-16
  Force max component initial, final = 2.35922e-16 2.35922e-16
  Final line search alpha, max atom move = 1 2.35922e-16
  Iterations, force evaluations = 1 2

MPI task timing breakdown:
Section |  min time  |  avg time  |  max time  |%varavg| %total
---------------------------------------------------------------
Pair    | 0.001628   | 0.0017017  | 0.0017754  |   0.2 | 72.32
Neigh   | 0          | 0          | 0          |   0.0 |  0.00
Comm    | 8.74e-05   | 0.00014495 | 0.0002025  |   0.0 |  6.16
Output  | 0          | 0          | 0          |   0.0 |  0.00
Modify  | 0.0003669  | 0.00038275 | 0.0003986  |   0.0 | 16.27
Other   |            | 0.0001235  |            |       |  5.25

Nlocal:    2 ave 2 max 2 min
Histogram: 2 0 0 0 0 0 0 0 0 0
Nghost:    322 ave 322 max 322 min
Histogram: 2 0 0 0 0 0 0 0 0 0
Neighs:    86 ave 100 max 72 min
Histogram: 1 0 0 0 0 0 0 0 0 1

Total # of neighbors = 172
Ave neighs/atom = 43
Neighbor list builds = 0
Dangerous builds = 0
variable length equal "lx"
variable E equal "c_eatoms"
variable N equal count(all)
variable E_cohesive equal ${E}/${N}
variable E_cohesive equal -16.2662266812321/${N}
variable E_cohesive equal -16.2662266812321/4
print "${length} ${E_cohesive}" append CoFCC.dat
3.84977 -4.06655667030803

####################### jump into next loop  #######################
clear
OMP_NUM_THREADS environment is not set. Defaulting to 1 thread. (../comm.cpp:94)
  using 1 OpenMP thread(s) per MPI task
package omp 0
using multi-threaded neighbor list subroutines
package omp 4
set 4 OpenMP thread(s) per MPI task
using multi-threaded neighbor list subroutines
next            k
jump            in.lmp
units           metal
boundary        p p p
atom_style      atomic
###################### variable setting ########################################
variable        k loop 100            # define the number of loop
variable        a equal 2.86977+0.01*$k # define the various lattice constant “a”
variable        a equal 2.86977+0.01*99 

###################### BCC Fe simulation cell setting ##########################
lattice         fcc $a
lattice         fcc 3.85977
Lattice spacing in x,y,z = 3.85977 3.85977 3.85977
region	box block 0 1 0 1 0 1 units lattice
create_box      1 box
Created orthogonal box = (0 0 0) to (3.85977 3.85977 3.85977)
  1 by 1 by 2 MPI processor grid
create_atoms    1 box
Created 4 atoms
  create_atoms CPU = 0.0004305 secs

###################### Define Interatomic Potential ######################
pair_style eam/alloy
pair_coeff * * Co_PurjaPun_2012.eam.alloy Co   ## read in interatomic potential file
neighbor    0.3 bin                ## define parameters for neighbor list
neigh_modify    delay 5               ## define parameters for neighbor list

####################### calculated properties SETTINGS ######################
compute peratom all pe/atom
compute eatoms all reduce sum c_peratom


####################### thermal properties output on screen ######################
timestep       1
thermo 5
thermo_style custom step pe c_eatoms
# dump 1 all custom 100 min_bccFe.atom id type xs ys zs c_peratom
####################### minimize the total energy ######################

min_style       cg
minimize        1.0e-15 1.0e-15 1000 10000
WARNING: Using 'neigh_modify every 1 delay 0 check yes' setting during minimization (../min.cpp:190)
Last active /omp style is pair_style eam/alloy/omp
Neighbor list info ...
  update every 1 steps, delay 0 steps, check yes
  max neighbors/atom: 2000, page size: 100000
  master list distance cutoff = 6.79954
  ghost atom cutoff = 6.79954
  binsize = 3.39977, bins = 2 2 2
  1 neighbor lists, perpetual/occasional/extra = 1 0 0
  (1) pair eam/alloy/omp, perpetual
      attributes: half, newton on, omp
      pair build: half/bin/atomonly/newton/omp
      stencil: half/bin/3d/newton
      bin: standard
Per MPI rank memory allocation (min/avg/max) = 7.122 | 7.122 | 7.122 Mbytes
Step PotEng c_eatoms 
       0   -16.190453   -16.190453 
       1   -16.190453   -16.190453 
Loop time of 0.003093 on 8 procs for 1 steps with 4 atoms

0.0% CPU use with 2 MPI tasks x 4 OpenMP threads

Minimization stats:
  Stopping criterion = quadratic factors are zero
  Energy initial, next-to-last, final = 
        -16.1904528055     -16.1904528055     -16.1904528055
  Force two-norm initial, final = 3.76319e-16 3.76319e-16
  Force max component initial, final = 2.22045e-16 2.22045e-16
  Final line search alpha, max atom move = 1 2.22045e-16
  Iterations, force evaluations = 1 2

MPI task timing breakdown:
Section |  min time  |  avg time  |  max time  |%varavg| %total
---------------------------------------------------------------
Pair    | 0.0023178  | 0.0023227  | 0.0023277  |   0.0 | 75.10
Neigh   | 0          | 0          | 0          |   0.0 |  0.00
Comm    | 0.0001777  | 0.00019735 | 0.000217   |   0.0 |  6.38
Output  | 0          | 0          | 0          |   0.0 |  0.00
Modify  | 0.0003728  | 0.0003969  | 0.000421   |   0.0 | 12.83
Other   |            | 0.000176   |            |       |  5.69

Nlocal:    2 ave 2 max 2 min
Histogram: 2 0 0 0 0 0 0 0 0 0
Nghost:    322 ave 322 max 322 min
Histogram: 2 0 0 0 0 0 0 0 0 0
Neighs:    86 ave 100 max 72 min
Histogram: 1 0 0 0 0 0 0 0 0 1

Total # of neighbors = 172
Ave neighs/atom = 43
Neighbor list builds = 0
Dangerous builds = 0
variable length equal "lx"
variable E equal "c_eatoms"
variable N equal count(all)
variable E_cohesive equal ${E}/${N}
variable E_cohesive equal -16.1904528055303/${N}
variable E_cohesive equal -16.1904528055303/4
print "${length} ${E_cohesive}" append CoFCC.dat
3.85977 -4.04761320138257

####################### jump into next loop  #######################
clear
OMP_NUM_THREADS environment is not set. Defaulting to 1 thread. (../comm.cpp:94)
  using 1 OpenMP thread(s) per MPI task
package omp 0
using multi-threaded neighbor list subroutines
package omp 4
set 4 OpenMP thread(s) per MPI task
using multi-threaded neighbor list subroutines
next            k
jump            in.lmp
units           metal
boundary        p p p
atom_style      atomic
###################### variable setting ########################################
variable        k loop 100            # define the number of loop
variable        a equal 2.86977+0.01*$k # define the various lattice constant “a”
variable        a equal 2.86977+0.01*100 

###################### BCC Fe simulation cell setting ##########################
lattice         fcc $a
lattice         fcc 3.86977
Lattice spacing in x,y,z = 3.86977 3.86977 3.86977
region	box block 0 1 0 1 0 1 units lattice
create_box      1 box
Created orthogonal box = (0 0 0) to (3.86977 3.86977 3.86977)
  1 by 1 by 2 MPI processor grid
create_atoms    1 box
Created 4 atoms
  create_atoms CPU = 0.0013857 secs

###################### Define Interatomic Potential ######################
pair_style eam/alloy
pair_coeff * * Co_PurjaPun_2012.eam.alloy Co   ## read in interatomic potential file
neighbor    0.3 bin                ## define parameters for neighbor list
neigh_modify    delay 5               ## define parameters for neighbor list

####################### calculated properties SETTINGS ######################
compute peratom all pe/atom
compute eatoms all reduce sum c_peratom


####################### thermal properties output on screen ######################
timestep       1
thermo 5
thermo_style custom step pe c_eatoms
# dump 1 all custom 100 min_bccFe.atom id type xs ys zs c_peratom
####################### minimize the total energy ######################

min_style       cg
minimize        1.0e-15 1.0e-15 1000 10000
WARNING: Using 'neigh_modify every 1 delay 0 check yes' setting during minimization (../min.cpp:190)
Last active /omp style is pair_style eam/alloy/omp
Neighbor list info ...
  update every 1 steps, delay 0 steps, check yes
  max neighbors/atom: 2000, page size: 100000
  master list distance cutoff = 6.79954
  ghost atom cutoff = 6.79954
  binsize = 3.39977, bins = 2 2 2
  1 neighbor lists, perpetual/occasional/extra = 1 0 0
  (1) pair eam/alloy/omp, perpetual
      attributes: half, newton on, omp
      pair build: half/bin/atomonly/newton/omp
      stencil: half/bin/3d/newton
      bin: standard
Per MPI rank memory allocation (min/avg/max) = 7.122 | 7.122 | 7.122 Mbytes
Step PotEng c_eatoms 
       0   -16.113515   -16.113515 
       1   -16.113515   -16.113515 
Loop time of 0.0051361 on 8 procs for 1 steps with 4 atoms

0.0% CPU use with 2 MPI tasks x 4 OpenMP threads

Minimization stats:
  Stopping criterion = quadratic factors are zero
  Energy initial, next-to-last, final = 
        -16.1135152079     -16.1135152079     -16.1135152079
  Force two-norm initial, final = 5.62703e-16 5.62703e-16
  Force max component initial, final = 3.60822e-16 3.60822e-16
  Final line search alpha, max atom move = 1 3.60822e-16
  Iterations, force evaluations = 1 2

MPI task timing breakdown:
Section |  min time  |  avg time  |  max time  |%varavg| %total
---------------------------------------------------------------
Pair    | 0.0028266  | 0.0030902  | 0.0033537  |   0.5 | 60.17
Neigh   | 0          | 0          | 0          |   0.0 |  0.00
Comm    | 0.0007815  | 0.00097885 | 0.0011762  |   0.0 | 19.06
Output  | 0          | 0          | 0          |   0.0 |  0.00
Modify  | 0.0003266  | 0.00047185 | 0.0006171  |   0.0 |  9.19
Other   |            | 0.0005952  |            |       | 11.59

Nlocal:    2 ave 2 max 2 min
Histogram: 2 0 0 0 0 0 0 0 0 0
Nghost:    322 ave 322 max 322 min
Histogram: 2 0 0 0 0 0 0 0 0 0
Neighs:    86 ave 100 max 72 min
Histogram: 1 0 0 0 0 0 0 0 0 1

Total # of neighbors = 172
Ave neighs/atom = 43
Neighbor list builds = 0
Dangerous builds = 0
variable length equal "lx"
variable E equal "c_eatoms"
variable N equal count(all)
variable E_cohesive equal ${E}/${N}
variable E_cohesive equal -16.113515207866/${N}
variable E_cohesive equal -16.113515207866/4
print "${length} ${E_cohesive}" append CoFCC.dat
3.86977 -4.0283788019665

####################### jump into next loop  #######################
clear
OMP_NUM_THREADS environment is not set. Defaulting to 1 thread. (../comm.cpp:94)
  using 1 OpenMP thread(s) per MPI task
package omp 0
using multi-threaded neighbor list subroutines
package omp 4
set 4 OpenMP thread(s) per MPI task
using multi-threaded neighbor list subroutines
next            k
jump            in.lmp
Total wall time: 0:00:07
