LAMMPS data file via write_data, version 29 Oct 2020, timestep = 2000000

1000 atoms
1 atom types

0.027105 27.527105 xlo xhi
0.099957 59.599957 ylo yhi
-26.7313920681505 55.177344054249346 zlo zhi

Masses

1 44.01

Pair Coeffs # lj/cut/omp

1 0.4475 3.79

Atoms # full

421 421 1 0.0 2.9973533068653877 8.798738876829153 -22.522094610914657 2 -1 -3
337 337 1 0.0 10.143081330304208 3.8313318052067387 -22.12730485727866 -2 -1 0
52 52 1 0.0 7.120559793359528 10.907023365219667 -23.21447131917177 2 4 0
941 941 1 0.0 10.2508353422542 14.716683301908558 -1.452986531259338 8 0 -1
722 722 1 0.0 5.220318819055282 7.023187021153752 -26.365635086405746 -2 2 -3
535 535 1 0.0 11.941684635391534 11.393463091470538 -24.038561289880057 11 0 1
126 126 1 0.0 3.285621701785218 10.407680397476684 -26.38749586151317 1 1 -2
124 124 1 0.0 11.856094395562431 9.222689945057356 -20.95500156468846 -1 1 2
125 125 1 0.0 3.309728616514462 12.62817758822656 -22.810958234304387 0 -1 1
602 602 1 0.0 12.652011359158891 7.457854008292724 -26.180363338288938 4 0 3
913 913 1 0.0 2.174511396448772 12.339945896036665 -18.77408355996593 3 -2 -2
687 687 1 0.0 5.716519197382055 2.0200504448556393 -18.65160475653012 0 1 -1
723 723 1 0.0 5.517139251710876 14.01039864874964 -19.739587882886962 6 -2 -1
437 437 1 0.0 8.210159668898385 0.4461004667056793 1.5890268285991134 -7 -2 0
6 6 1 0.0 9.579642417503722 3.837229368958951 -14.050493053384997 -1 0 0
600 600 1 0.0 8.434985388991484 9.138567022536284 -14.482496465630474 2 2 0
889 889 1 0.0 4.088015937904038 6.799903147917822 -18.955349242543466 -6 0 0
603 603 1 0.0 12.564484450398856 13.959040389008301 -12.08528609180646 3 -2 2
166 166 1 0.0 12.327221691525462 10.282228040209628 -16.714055119320346 4 1 0
109 109 1 0.0 9.330949650404737 12.884272794904481 -18.32245200864495 0 2 2
939 939 1 0.0 12.041389673277715 9.389451887180703 -11.83387791053714 0 2 0
305 305 1 0.0 7.920502799101688 1.9364784125081855 -9.304513729925059 -4 1 -2
946 946 1 0.0 4.889026373398297 10.221681155498995 -17.024128614459002 5 -4 -1
466 466 1 0.0 2.3623517610804403 13.784806148481454 -13.328541801616215 -2 0 1
167 167 1 0.0 3.354379663413479 4.366372948972735 10.935498654949914 -2 1 1
556 556 1 0.0 2.673826133536189 4.308410548916116 -26.29072064547018 -2 -2 2
475 475 1 0.0 8.886989982580019 1.2107204453429075 5.909798870974765 1 -1 0
297 297 1 0.0 0.47546979502893727 11.786370040525204 -9.390521051055046 7 -2 5
692 692 1 0.0 7.48258505635982 8.172527550434856 7.200271975021348 8 -1 -2
212 212 1 0.0 9.691356408267147 5.333086834440636 -9.716068656627556 0 1 -2
744 744 1 0.0 6.838851040165769 8.159204811856902 -11.364459068005145 -3 -2 2
48 48 1 0.0 2.1515278946721383 14.422934813771935 5.857497529396678 6 3 1
599 599 1 0.0 1.5192298554416912 2.828392750380798 -1.4600566215228135 4 3 2
671 671 1 0.0 5.655788879057329 13.76778401420177 -10.664689209462114 5 3 -1
781 781 1 0.0 8.375990200921267 7.333346149027634 -5.47135875580744 -9 0 -2
859 859 1 0.0 12.29731433131811 0.2204857880494572 -6.264403356978239 -2 1 0
4 4 1 0.0 10.136278974620224 11.27040627251457 -7.694542477015922 1 -2 1
170 170 1 0.0 5.271217791309153 9.743003852999944 -5.1070668347897445 2 -1 0
408 408 1 0.0 3.740181952569303 3.5760100638168963 -5.7479199687399785 1 0 0
566 566 1 0.0 5.8828928941524055 4.952013426408227 -9.794272272397674 -4 -1 5
135 135 1 0.0 10.396186468616067 9.36543242425166 -1.3733771151398102 -4 0 -3
138 138 1 0.0 1.7003669095655507 13.425337338137506 12.556753483862504 1 -1 0
579 579 1 0.0 0.29102853841807236 14.30407625602249 1.1174225395557542 0 3 -1
183 183 1 0.0 9.746506598934932 3.7612236581173897 2.9459299159063868 -1 1 0
395 395 1 0.0 3.8694344905308093 13.097622116606743 2.5942002781364195 -1 2 -1
655 655 1 0.0 5.719667694262185 5.68926413866161 4.568680997804737 -2 -1 2
695 695 1 0.0 12.208055095672892 3.267600992770112 -0.45830369806988713 5 2 0
717 717 1 0.0 7.834571587784624 3.652548357844579 -1.9272809628796495 7 2 -3
177 177 1 0.0 3.0800048393891197 8.198656736751227 2.6806384808905577 0 -1 1
696 696 1 0.0 5.979345040938307 7.764989876630723 0.17065317044150774 0 -5 -1
509 509 1 0.0 6.620916785104426 6.197950147494713 11.096415416001609 2 1 1
975 975 1 0.0 4.463162506629489 10.547984708440039 5.927479595529643 1 -2 -1
504 504 1 0.0 8.975638870455034 9.843324151606328 11.349403693366295 -4 -3 -2
515 515 1 0.0 9.168495251002142 12.4780855430897 6.795065951912573 5 2 -1
278 278 1 0.0 9.50800123771932 2.9559670217836196 11.444623431857739 -1 4 -1
11 11 1 0.0 5.183472464733048 9.826019321373114 11.027967825025481 3 -1 0
648 648 1 0.0 12.079860944572859 7.204079758228667 11.126888187629756 5 2 2
247 247 1 0.0 1.9997609413157817 6.119150598124803 7.028119129770577 -4 2 1
616 616 1 0.0 10.385461135389063 14.389679395029232 -22.342838183832576 2 0 2
265 265 1 0.0 6.382266999169858 1.3401211787974772 -14.224534274010917 11 1 2
12 12 1 0.0 12.25073848409434 9.82231712862193 5.976265636112412 5 1 0
184 184 1 0.0 2.311409391710372 7.311293987759148 -5.675697888534643 -1 0 1
178 178 1 0.0 8.452655464281882 13.205788944587615 12.931484944808783 -2 -2 -2
650 650 1 0.0 0.3346241502372546 5.331151030826632 -14.666248706634384 -5 -4 1
85 85 1 0.0 12.92031266096064 6.798031291267086 3.684500845114261 -2 -2 0
181 181 1 0.0 0.38124086934678186 1.8324687424226835 -18.632878288414048 2 0 -2
75 75 1 0.0 13.618071440080522 3.356225346108492 -4.852639709949656 3 0 1
157 157 1 0.0 13.705903845681311 2.9044110989117096 9.435237991764897 -7 0 0
804 804 1 0.0 13.768430925030835 1.5719617087276885 -10.323667890584268 2 -1 -2
947 947 1 0.0 13.19658548024195 14.943718868811839 18.834593089750857 5 1 2
841 841 1 0.0 8.755029286562676 1.6923258789051516 42.11571945061074 4 -1 -2
925 925 1 0.0 13.243585417809516 2.998308468696456 22.100706407027584 3 0 2
923 923 1 0.0 3.7969657126637166 4.2306973236153524 19.53571030919287 -4 3 0
796 796 1 0.0 3.315119337947212 13.064347376426442 18.488955918618192 1 2 1
468 468 1 0.0 12.680568566987933 9.220503394436404 26.96460517153825 0 2 0
800 800 1 0.0 0.5900318242355092 0.6535769850436167 51.35190068479808 -6 -3 -1
482 482 1 0.0 10.240364270059688 13.279035879580789 21.749517406609744 -4 -3 0
361 361 1 0.0 2.3640247691300376 14.558165993325307 43.63312928243529 -3 1 1
719 719 1 0.0 7.391883345391937 14.276311050180377 24.322828474425453 0 1 -1
448 448 1 0.0 2.0367830116560257 7.4594994827435555 23.756825715667336 -3 1 -1
422 422 1 0.0 12.954622783980028 12.041190207178762 30.111914650849183 -10 0 0
82 82 1 0.0 7.882843062083534 11.881756385013302 30.309802825397757 4 2 1
149 149 1 0.0 6.337610803959107 7.93197897274073 30.814415333667167 -6 -1 -1
721 721 1 0.0 2.909632153944693 13.557895612230844 52.9348733454605 -3 1 -1
129 129 1 0.0 7.872813843132302 3.606264821153294 20.63821122656616 4 -1 1
179 179 1 0.0 4.457476249791594 4.541302868406206 29.53828937736939 1 4 -1
163 163 1 0.0 9.686619947641066 10.692267005817675 54.54267251012628 12 3 -1
7 7 1 0.0 5.559511708670743 10.983671104378564 51.13299606824141 -4 2 -1
111 111 1 0.0 12.287354840548957 0.15410415530716626 24.794487715160198 -1 -2 -2
79 79 1 0.0 3.8152249992690357 2.309259422842879 33.501714737912394 7 -2 1
188 188 1 0.0 7.522829172905873 9.409915337974637 34.19432607474609 3 0 1
67 67 1 0.0 6.418610510881134 0.4667514128129858 30.12213842637983 2 2 1
455 455 1 0.0 11.275227402612462 11.602436923328863 34.21309768925468 -4 2 0
214 214 1 0.0 8.246144147753586 3.869707843904945 36.757327955852205 2 2 -2
281 281 1 0.0 10.522194741322517 9.41380790879993 40.0238297031441 1 -1 1
172 172 1 0.0 11.085118104227949 2.0920272112208744 34.20134605839286 2 2 0
454 454 1 0.0 10.378995846117768 7.063345915468839 29.068693743077045 -3 1 0
208 208 1 0.0 0.7273798442729081 1.0085187777092774 29.757178756265244 3 -1 1
207 207 1 0.0 4.820691656778085 13.343630880584742 33.813117184688736 -2 1 0
785 785 1 0.0 4.2610941090712195 5.941252663014234 36.178967771203546 13 2 -3
136 136 1 0.0 6.408743807350158 11.310179757043587 38.852842575606076 0 2 -1
321 321 1 0.0 1.0001370403554384 3.7342200945812594 37.66411632125977 -3 -2 -1
840 840 1 0.0 3.0191557795561224 6.720469516869882 32.62960604157854 -4 0 -1
863 863 1 0.0 12.453686590793884 2.029349397441134 38.32471771329769 -5 -1 0
914 914 1 0.0 3.265123710224297 14.01179607018886 38.95864632315177 0 1 -4
912 912 1 0.0 12.604435142674419 7.2608686326396015 22.548536996206114 -2 4 0
661 661 1 0.0 1.614900234281234 7.554283531467775 38.73684479075969 7 1 -1
802 802 1 0.0 4.059091044085285 7.865853904123925 42.81566076866169 2 0 0
327 327 1 0.0 6.680230339919974 5.582531080373091 41.51793612236692 8 1 1
961 961 1 0.0 6.871674685438155 0.33764943532234976 50.54895869169192 -2 0 -2
780 780 1 0.0 3.746934025831344 2.285812454715101 40.11550250912073 -2 3 3
424 424 1 0.0 8.383297270302279 12.181663762159118 47.86159863599744 -1 -3 1
732 732 1 0.0 2.997320184999779 1.5424828381536415 44.40310532237575 0 -1 -2
637 637 1 0.0 5.091996753806025 8.744943951562894 47.242366126351186 -3 4 1
51 51 1 0.0 9.984840929485944 0.7771853166077719 45.69296471382633 -1 0 -2
62 62 1 0.0 5.743590813927369 4.224875436416185 47.55266215441323 5 1 -1
320 320 1 0.0 3.8885214882930392 2.6002447429841675 51.58719726317226 4 1 -2
141 141 1 0.0 12.836142586598763 5.265680124064838 50.66502191430493 -4 -1 -3
979 979 1 0.0 6.322043743754269 12.340437436645372 54.462304193844915 7 0 -3
325 325 1 0.0 12.595511844365173 10.120174626960006 50.586905066571475 0 0 -3
879 879 1 0.0 7.884835434046563 6.720697910889514 51.730442341370434 0 -3 0
314 314 1 0.0 0.6923217814332356 6.882336409881351 46.30319439765704 5 2 0
46 46 1 0.0 3.677201726684855 6.135987742133815 52.32768080097563 -4 1 0
262 262 1 0.0 1.6187645996244402 10.62622115305593 46.165075330724264 6 3 1
211 211 1 0.0 12.329478374025776 8.253564439976763 32.190484346090756 -4 2 1
377 377 1 0.0 6.219675765091874 0.2559826945533691 46.85337653035805 -9 3 -1
609 609 1 0.0 1.7873979082458653 9.19105450038592 51.52497524970627 -4 2 -2
76 76 1 0.0 3.5625976698921344 25.12323694587772 -25.118661864064528 0 -4 1
100 100 1 0.0 8.264813067974279 16.827794439077735 -19.647384913205855 3 -1 -3
694 694 1 0.0 2.5696471731049173 22.27033404280716 -22.50840026276722 -3 0 1
275 275 1 0.0 8.506542576642099 22.442712696525668 -25.029276022469265 -2 -5 1
917 917 1 0.0 3.4415316706743107 17.153860964403375 -22.386319246248544 -1 1 0
512 512 1 0.0 10.373995704789126 20.05837350757548 -19.841951061157822 -2 -4 2
64 64 1 0.0 11.817782111004542 26.934300545430233 -23.537604982617992 -4 3 0
290 290 1 0.0 12.307334066457177 21.684770212661512 -24.07794249441421 2 -2 -2
797 797 1 0.0 10.261968450259497 29.414830582363045 -16.213544462064533 -5 1 1
440 440 1 0.0 0.28058262937431283 27.33245915528571 -22.62735968690013 2 1 1
267 267 1 0.0 12.480663416888031 28.480593341937762 11.763946138030935 -2 1 0
324 324 1 0.0 3.380323984408887 17.43668782256252 10.411585130120553 1 -2 -1
90 90 1 0.0 6.6893133475253235 15.625549999567493 -24.12521208748521 -3 4 -1
834 834 1 0.0 7.446264647558592 22.998231834282585 -18.394954562140963 2 0 1
222 222 1 0.0 3.170621306727292 16.675835767542882 -18.371632757538165 1 3 -1
964 964 1 0.0 13.077868653641042 17.055503433116417 -15.885981536915446 7 0 1
98 98 1 0.0 13.232183035300512 23.239008247639564 12.910065485938599 5 -1 -3
937 937 1 0.0 4.350563961144247 25.438717533947628 -20.16515380771638 0 1 3
763 763 1 0.0 10.376454600645184 25.18556413762012 -20.16020075382547 0 -2 2
37 37 1 0.0 11.353146090024284 21.67075539100322 -16.435123641094073 5 -2 -1
21 21 1 0.0 10.923875718636825 24.993552976276717 -13.00846023023253 2 1 1
331 331 1 0.0 7.271317323036469 28.205410010620447 -19.121615494187395 1 0 2
934 934 1 0.0 6.59027106667065 28.300461102636856 -14.442822691522933 -6 -1 0
865 865 1 0.0 6.661726108399842 18.59199368861718 -11.27607715919039 6 -1 1
953 953 1 0.0 9.807846644805407 28.799818922757726 -7.274474822098739 -2 0 2
469 469 1 0.0 10.019785802810981 19.35687434007941 -13.25205080019207 -1 1 -2
230 230 1 0.0 10.87835709968438 17.240411075363856 -5.951886156606317 0 -2 2
638 638 1 0.0 9.413867306211369 15.628694893024054 -13.98254186252757 1 4 0
93 93 1 0.0 5.364796713047277 19.584741347402662 -24.83653611095019 7 1 2
155 155 1 0.0 8.606928356634766 19.49453573865148 -4.3880017436167975 5 -3 1
86 86 1 0.0 0.5170833798055121 22.42477469543999 -6.919367264762716 -1 0 3
436 436 1 0.0 8.354286594915118 26.9442480802322 -1.751815030642021 8 -4 0
224 224 1 0.0 10.09920340675217 19.22486462762725 4.92686461006943 1 2 0
268 268 1 0.0 0.3752309097137585 21.904740740599287 -2.0611996904589844 4 2 -1
241 241 1 0.0 9.673454290841825 15.993571926640172 -9.613217009564178 7 1 2
594 594 1 0.0 9.80009772344086 22.957176409810682 3.1923998254842445 -1 -2 -1
715 715 1 0.0 11.734084418918199 28.06476012514151 3.252630841737904 -5 -2 0
778 778 1 0.0 2.9027783213714833 25.6702452640365 12.84813458409825 1 2 -2
613 613 1 0.0 12.706782763661884 22.6872829680666 -0.4575242939606987 2 0 0
24 24 1 0.0 4.966702440966842 29.829575788057042 2.9161118088811264 3 2 -1
808 808 1 0.0 7.809231265161616 15.03806738835409 4.2211649018897255 -5 2 -3
741 741 1 0.0 6.581836957359332 26.73824227735219 5.24129392133473 9 1 -1
416 416 1 0.0 7.415616448862078 28.983658002826253 10.240773556500518 -4 -3 -1
568 568 1 0.0 2.188392506864093 27.245909769387623 5.560385573724307 0 -2 0
197 197 1 0.0 11.317654759458035 26.56876990379751 7.99171103123761 -3 6 0
856 856 1 0.0 13.40888261623064 15.880908302833536 -24.60888171110518 -5 -2 2
705 705 1 0.0 4.818457032804535 20.932526119341276 5.860229402481277 -5 -2 0
286 286 1 0.0 12.668585224003431 16.40440866168568 13.181079626871732 -1 -4 0
336 336 1 0.0 6.109750311800698 23.10025300407602 10.802085304933112 0 3 0
688 688 1 0.0 13.738585601476144 15.823160905043903 0.9455469044981335 1 0 0
867 867 1 0.0 6.170227573107864 20.848479133849455 26.262293918747016 2 0 0
642 642 1 0.0 1.7547516056522763 29.504288642035128 25.16808470789959 -1 1 -1
490 490 1 0.0 4.887478753020889 24.83781283031018 16.83004296440308 -2 1 -3
269 269 1 0.0 10.000222631870765 21.106550593847754 20.069589829001377 -2 1 -2
310 310 1 0.0 4.71960340172252 29.00031547114901 15.027635612370158 2 5 1
488 488 1 0.0 6.186836501757417 19.96772409055455 17.675099728796138 5 1 2
19 19 1 0.0 0.596684477794571 26.701114362806482 15.839004663678384 2 0 2
232 232 1 0.0 12.215535570669132 28.35315558384907 27.772194723503734 5 -1 -1
467 467 1 0.0 9.525290514168944 16.42556835332289 34.86504201227294 5 -2 -2
551 551 1 0.0 0.5289250492592611 21.600552267939786 16.97237057210447 1 6 -2
680 680 1 0.0 6.05387311806247 18.11991684335734 51.485120303409985 -7 -1 -1
312 312 1 0.0 7.609533458461676 27.83303724913012 17.57029709862535 1 -1 1
25 25 1 0.0 3.824602510812009 22.846127743325713 21.580080369437287 -2 -3 0
118 118 1 0.0 0.9171305013773579 23.368042189528257 50.77046498443276 -5 2 0
783 783 1 0.0 4.82851059483151 16.22348336564082 15.801003205586579 2 2 -1
209 209 1 0.0 3.7007131656090415 15.291464455289269 49.302683414361155 -5 1 -2
298 298 1 0.0 11.42600507301051 24.46777749269876 51.490743012029554 0 -2 -2
949 949 1 0.0 10.818660140224079 22.3631272498602 26.883440734989907 -9 0 -1
507 507 1 0.0 7.966580307596895 25.26894241431 27.817855374641358 3 2 0
668 668 1 0.0 6.275601525951134 15.589152005204616 27.998850555442342 4 2 -2
73 73 1 0.0 3.00588068393034 26.44255635968719 22.823081520956183 3 2 -2
992 992 1 0.0 11.193036203405672 16.498321404394108 27.27018293437762 -8 2 1
735 735 1 0.0 2.0786812591950534 28.65786330208467 29.49478204424521 6 1 2
2 2 1 0.0 7.00960835165238 25.910977034019794 23.193202019753702 -2 -4 0
456 456 1 0.0 11.86746388507113 24.942983043226153 21.690573137478477 -6 2 0
158 158 1 0.0 0.060948978147268226 19.069763236481727 41.83200438733499 -1 -1 -3
670 670 1 0.0 2.440242839132749 21.377869179365074 29.152431104942398 2 -1 1
528 528 1 0.0 12.83984397317189 18.656179583484978 30.45149718671841 -2 2 0
169 169 1 0.0 2.7472524519141683 26.380806318445536 42.25232829028215 2 0 -1
660 660 1 0.0 7.493203810317237 21.711707470293938 30.20940051691925 -8 3 0
756 756 1 0.0 6.6628829690480345 25.380332691372853 35.5732650671156 -3 4 2
72 72 1 0.0 1.9116970723872357 22.942528667852642 32.94606215961119 5 -3 0
522 522 1 0.0 11.5574184264973 28.557294616828717 49.34910581218858 2 0 -3
853 853 1 0.0 3.7286449429394413 25.13983859931169 28.177156364090916 -3 2 0
318 318 1 0.0 10.455540691800222 28.353838451598367 34.021857339839826 -5 0 -1
625 625 1 0.0 2.1361506579968603 24.50435353021301 39.16017757968568 5 2 -1
817 817 1 0.0 6.5566448495643925 26.25521639441199 31.633830332744953 2 2 1
918 918 1 0.0 3.017562061547794 18.959981510348644 32.9972137984865 1 4 2
501 501 1 0.0 2.617468956966714 20.1367339246318 37.04912796421904 -6 3 0
254 254 1 0.0 5.522989470310129 23.371478942990446 50.667279552026855 -1 2 -1
444 444 1 0.0 11.556812493765948 25.8924589971821 40.24373587834613 -5 3 -3
489 489 1 0.0 5.266894306034997 27.502205423331596 39.160503228889056 4 1 2
527 527 1 0.0 10.938648573468276 21.641724106294618 41.730989812731835 2 -1 -1
593 593 1 0.0 10.66311781589903 15.476421213298792 44.2151627464509 0 -4 1
449 449 1 0.0 0.1506968132005622 18.636890043895605 14.27935136929371 -8 2 2
399 399 1 0.0 6.89756536592522 27.303625970660985 43.968796069150386 8 -2 3
29 29 1 0.0 3.9181811751371294 25.957870532687156 46.496855152296575 5 1 -4
250 250 1 0.0 8.541176579205871 22.99622364446868 45.86346702388505 -6 2 1
960 960 1 0.0 13.648928679241186 28.21397222700788 31.2822110426866 1 1 1
770 770 1 0.0 11.557011520933726 27.798699145964786 54.47205275094811 -2 -1 -1
908 908 1 0.0 11.839042276361333 17.092783238901124 51.33523830499712 1 1 -2
639 639 1 0.0 1.5591330326582633 17.21496862842404 29.239386158623073 -1 0 -1
762 762 1 0.0 4.486347033031872 19.968012145478596 47.79757467136491 6 0 0
57 57 1 0.0 8.037544197937764 26.81245175341572 49.06960770733836 2 3 -1
641 641 1 0.0 8.1836145097038 21.07828176199029 49.685212332616146 10 -3 1
649 649 1 0.0 12.896603294310935 20.88130676241954 54.375524707276 6 2 -1
803 803 1 0.0 6.5986103164028105 29.772674281747832 29.327488954376125 2 0 -2
68 68 1 0.0 2.2192264569235896 19.284214080860387 52.82710781244727 4 3 -1
885 885 1 0.0 0.12439624765523531 25.214536846936745 19.29245406870216 3 -1 -1
931 931 1 0.0 12.041019526529771 29.51155305667201 21.4530305746803 2 -1 1
16 16 1 0.0 9.16241452907119 29.654964302086235 37.71538158612499 1 0 1
338 338 1 0.0 10.028133348583804 18.177786294846783 54.5828303739858 2 1 0
425 425 1 0.0 13.19999683435375 15.2011701572221 38.95680559806182 1 0 -2
243 243 1 0.0 0.03450053019436439 26.637313624863175 53.41575486779567 -6 -4 1
244 244 1 0.0 12.622079924079424 33.56402197999056 -21.0229700346984 -3 0 0
590 590 1 0.0 12.270602649083783 41.935822990104754 -22.43872328875417 -8 -1 2
357 357 1 0.0 8.527167701974466 34.71377091721708 -22.937079213801127 0 -2 1
628 628 1 0.0 13.363657341092543 37.33188382025096 -23.499287887767206 2 0 1
511 511 1 0.0 4.843061721599251 36.877341268326234 -25.85790907702832 -4 0 1
161 161 1 0.0 0.569146372343163 35.05742388680578 -22.584899373061763 0 0 1
218 218 1 0.0 11.442805044281698 44.5095064546683 -11.831771165995878 8 1 0
813 813 1 0.0 2.170425470992829 42.085118210008275 -21.14879385312879 0 -2 -1
385 385 1 0.0 6.720323827486178 40.72925711915648 -21.658843775342596 -2 1 2
414 414 1 0.0 9.572880581078234 39.17417916027458 -25.019922967561172 13 1 1
246 246 1 0.0 3.39149486630846 30.253998371014635 6.795706242712409 1 -1 -1
284 284 1 0.0 12.853327338584354 33.20625881518849 -16.32629986932381 2 -1 0
445 445 1 0.0 4.423260846557882 35.3993798528868 -21.724864261056112 11 -1 3
825 825 1 0.0 2.0200230028466373 32.21831346859449 -11.753155694314025 0 0 1
771 771 1 0.0 12.136008432732227 38.13281590432713 -19.96796142941134 -4 2 -1
750 750 1 0.0 3.786332184685868 31.006753555118827 -19.85816147200647 -2 4 -1
835 835 1 0.0 13.113281805116044 38.29928930713345 -16.202832952154367 7 -3 1
675 675 1 0.0 8.580955469552535 39.69364948261984 -17.235198157884582 1 0 2
837 837 1 0.0 5.140222125519449 42.799126497402185 -17.75298316398134 -4 0 0
951 951 1 0.0 8.724503003692169 42.56277650145293 -14.319881140596168 -5 -2 2
192 192 1 0.0 9.203358607879064 33.728647963596444 -18.473836198352004 1 2 0
948 948 1 0.0 12.894800882279904 42.3329020838396 -17.13002788824948 -2 0 0
819 819 1 0.0 5.536147520708598 40.05867401967828 -11.702781499047441 2 1 4
81 81 1 0.0 2.8818898269842514 38.35782541166967 -16.394139973326155 0 -1 0
59 59 1 0.0 8.285179500301984 34.256176509512805 -14.583711357077236 0 -1 -1
213 213 1 0.0 9.702607765257657 35.44226669510452 -5.238112560875109 -3 1 -1
993 993 1 0.0 2.7471096780428153 31.51590425243455 -23.6858333720066 -4 5 0
872 872 1 0.0 3.8079662852093312 41.94718593827159 -7.971401843337379 2 0 1
969 969 1 0.0 2.455522693987129 35.788209060497266 -8.468205655550832 -5 0 2
742 742 1 0.0 12.254660758206136 34.1933585909012 10.991954147274466 3 -1 1
273 273 1 0.0 3.839395615973276 43.03309469202592 3.6308181675459643 -10 -2 1
33 33 1 0.0 3.4632358098414935 40.84212648238157 -4.060895757368026 -3 -3 0
962 962 1 0.0 6.690330492123342 40.29973089439444 -2.1660552066368304 0 -1 -4
657 657 1 0.0 8.203893048400287 30.17299935916862 5.515827755768061 -6 -2 0
959 959 1 0.0 7.213562248651901 41.67545830292161 6.187802630585683 -3 3 0
380 380 1 0.0 10.350641011635165 40.18345665742443 -0.23560712484546187 1 4 5
40 40 1 0.0 3.389416694759465 34.907255067196466 3.0359493993717166 1 2 0
194 194 1 0.0 11.320547307355678 30.421027335604258 -1.22017562047726 3 4 -4
767 767 1 0.0 5.665535058691185 34.02106966671569 -2.108396262991622 1 3 4
683 683 1 0.0 11.29603607098092 35.29448983537637 0.18066165672385637 -3 3 1
330 330 1 0.0 13.614723113137472 36.20150627996307 -4.606413963863741 1 0 -1
698 698 1 0.0 1.3792094752507948 39.032736332224765 2.747393719512896 -5 2 2
920 920 1 0.0 9.486989262750038 37.45961894202746 3.6680829189311126 -7 -2 2
478 478 1 0.0 7.8160480719939 41.86862855277966 2.170604303353297 -3 1 4
586 586 1 0.0 3.0646206861543064 32.15356476479377 13.272891692392331 4 1 -3
54 54 1 0.0 9.231959044972276 37.701165521592856 7.762683186488257 -7 -1 0
8 8 1 0.0 0.3504888635774779 36.12680731276561 7.892026134519863 4 -1 -2
869 869 1 0.0 7.082832630170782 41.919200226438754 11.711599526429321 -2 1 2
53 53 1 0.0 10.974234008691873 43.032229603610354 8.293720379082377 -2 -2 0
706 706 1 0.0 4.415293854006089 33.25023910212175 9.292432503881027 -10 -3 0
905 905 1 0.0 13.16388763680181 33.39401833205223 4.050755524837097 -4 1 2
360 360 1 0.0 1.1458216075328542 42.11713151478548 0.673793144426611 -3 2 1
96 96 1 0.0 9.497459737677493 33.91713502179367 7.350856807136086 4 4 0
186 186 1 0.0 12.144539663329128 40.29675652263811 12.088363095647768 1 -1 0
614 614 1 0.0 13.483517180224554 37.71018843607123 3.2481027979810015 -6 2 0
245 245 1 0.0 3.823724704232418 39.81080076614272 10.583649324931837 3 0 3
900 900 1 0.0 12.809731752917573 39.416004462123965 -8.859831007653053 -6 -3 -2
765 765 1 0.0 13.154429840362981 41.88312593553183 -4.285925269035726 5 3 1
492 492 1 0.0 2.3847933194614175 44.10605073464436 7.542340345401318 3 1 -1
359 359 1 0.0 0.15642032211711676 43.794208956806756 -6.704681881473199 10 -2 1
857 857 1 0.0 5.842098082334659 35.226876357490085 13.369923445407021 0 -2 0
35 35 1 0.0 1.5958942725822047 41.08745525561483 -25.368081759264797 3 -3 1
748 748 1 0.0 6.561523839994648 42.7755069202034 -5.207774304629659 2 0 -1
18 18 1 0.0 12.386055103254057 31.14253403169347 7.047635821425768 1 2 -2
398 398 1 0.0 13.095421364117144 34.8063115902 -9.98930504039139 -6 -2 -1
503 503 1 0.0 7.459516069266692 30.42208187047237 -4.206552481302328 4 1 0
400 400 1 0.0 4.675191665066216 44.700450733492936 -25.360585171302738 6 -3 1
689 689 1 0.0 0.2681401874974086 32.60813452162342 22.340198681906376 -4 0 0
299 299 1 0.0 5.323330732774592 32.640198588451746 18.411420314058685 -1 -2 1
277 277 1 0.0 7.959820659095632 43.323780353274834 22.856817242152882 -2 -1 -2
103 103 1 0.0 10.334462329602935 43.501988953357255 17.690249377270494 0 2 0
956 956 1 0.0 9.48199359675887 39.76030930251232 18.108199634952097 1 2 1
701 701 1 0.0 13.324343552754524 37.17579243504801 49.7906700886419 2 1 -1
686 686 1 0.0 9.468449755447164 33.07189247651242 19.248584546442228 1 -4 1
347 347 1 0.0 12.058474657609473 42.350276393475006 21.312978648799014 -3 1 -2
977 977 1 0.0 6.855262618825323 44.669697132410626 15.798106292900382 -9 0 2
669 669 1 0.0 13.693352051981684 44.21788789062276 34.23222477083047 -1 0 0
47 47 1 0.0 2.597467589446687 42.00875515657247 16.716585984104523 4 0 3
775 775 1 0.0 13.581102320302941 31.3210755915051 51.66287855696706 1 0 -3
185 185 1 0.0 1.4000280810089147 38.14334163354527 16.405779258584143 1 0 -1
539 539 1 0.0 5.998325480275473 41.551760184416764 47.77027991295037 -4 1 0
231 231 1 0.0 12.323044750142978 36.032021996762296 19.51541765874644 -2 3 -1
622 622 1 0.0 13.560566534339795 32.31014852657362 23.901797681557778 -4 -2 0
860 860 1 0.0 4.1722026314284 32.89253667292327 23.408997498097644 -4 0 0
945 945 1 0.0 4.861738408604772 43.83030793990713 32.384658654333265 -2 0 -3
708 708 1 0.0 10.28970387633812 43.61778776994257 54.41712174432067 1 2 -2
122 122 1 0.0 5.588972512627061 37.21789148759504 27.69485916875519 6 -2 -1
836 836 1 0.0 8.301898166736192 32.739368501858436 15.685890637092893 3 2 1
326 326 1 0.0 13.561328326127143 42.2457462322253 29.65461855450027 -2 -2 -2
474 474 1 0.0 1.1769729167611274 37.889651878990264 29.346450087939285 2 0 0
486 486 1 0.0 6.686905253220705 44.26257713552894 27.80866601986359 -2 0 0
173 173 1 0.0 9.102300856961307 38.46307772876412 22.526186333927694 3 -1 -2
434 434 1 0.0 9.970610970581866 35.25921804598101 35.37437752649778 -9 2 0
289 289 1 0.0 2.9813971704324227 31.62275824176054 32.9770391411285 2 2 2
373 373 1 0.0 9.478181642856454 37.38015022280974 31.181389600818026 6 1 -1
552 552 1 0.0 11.801614330320753 38.46155250348627 53.481419282178436 8 -1 0
328 328 1 0.0 10.919563038702801 32.164436353484234 32.66213937553144 1 4 1
123 123 1 0.0 13.14401596071732 44.25062015492577 48.720169482080024 4 1 1
749 749 1 0.0 6.092245924085697 39.80741539354826 30.54657166004895 -2 1 1
15 15 1 0.0 11.051140036562575 40.83052291629906 33.06567130043 -3 0 0
418 418 1 0.0 9.229016694540897 31.173735611065247 52.90754732947646 0 -1 -2
884 884 1 0.0 3.2173358289056218 37.46842914220231 33.07717395253549 1 -1 1
499 499 1 0.0 0.45187006296523835 34.69445743152674 35.9453363380492 0 0 0
868 868 1 0.0 2.953577070545276 39.23433496092131 38.77549162960952 2 -2 -1
944 944 1 0.0 5.950953945017672 39.527684984268966 35.362326748329934 8 0 -2
549 549 1 0.0 7.774657654575047 42.87941352791214 39.7239106175077 3 -6 -1
815 815 1 0.0 8.729518318151475 35.490662141900536 44.2322395442593 -7 -1 -2
578 578 1 0.0 2.6214779020730417 43.42722139648572 28.678119214279565 -7 -2 0
930 930 1 0.0 4.3409701521189605 44.24963627196611 43.83108998557006 0 2 0
451 451 1 0.0 12.744763946983536 40.33310896285412 43.6426405124496 8 -1 1
83 83 1 0.0 9.956117633369066 44.43120583327328 35.597426175348886 -3 2 0
257 257 1 0.0 4.3950247383897905 38.87018447605784 42.29537974032881 -3 -1 1
647 647 1 0.0 1.679202620573008 40.77389759351096 45.02306444086902 3 -1 1
382 382 1 0.0 12.020996862801356 34.750074903582046 41.94044474371178 -5 1 1
349 349 1 0.0 9.39536528494375 42.80230721446331 43.917384033466504 1 1 -1
919 919 1 0.0 8.805283354151396 30.973692179055554 41.668151469815754 1 0 1
229 229 1 0.0 7.904368244187043 37.67995290438772 52.418981625720036 -1 2 1
427 427 1 0.0 6.991909326238945 43.26445477993574 51.836014677047174 -2 -2 0
963 963 1 0.0 2.412257079538972 43.35657044767931 49.8051527059765 -6 -3 2
112 112 1 0.0 9.97631879873711 41.163251154434406 50.26429569560804 -3 -1 0
697 697 1 0.0 7.300281318949433 30.243320727423164 49.18285648733519 0 4 0
966 966 1 0.0 4.098689768274553 35.88398123531217 52.41324649015269 0 2 -3
510 510 1 0.0 12.766740788579915 40.17215983527454 16.30228633590345 6 0 0
1 1 1 0.0 1.9259782390827789 37.709878590763374 20.321010623544826 -4 -2 1
253 253 1 0.0 8.627758383062934 29.88043547574519 25.332923842553907 4 -1 1
274 274 1 0.0 6.7645514035436 38.83431221401291 14.516741646800494 -5 -2 -1
832 832 1 0.0 10.740682600061083 51.701982326476646 -23.695682479316222 2 -1 0
34 34 1 0.0 2.6181932884696577 53.83504781342767 -23.95107273160543 11 -2 4
776 776 1 0.0 12.613900054183185 58.97823292923735 -23.158819710766448 5 -2 0
855 855 1 0.0 13.684557393235387 48.962888663823826 3.8623773003794746 0 -1 0
69 69 1 0.0 4.97372757719033 52.8328826586399 -19.76762792426769 3 1 4
892 892 1 0.0 0.8643043590773425 53.62998594767976 -11.470752765721075 -4 -5 1
690 690 1 0.0 5.93848600718316 58.15736502595089 -21.889348074259754 2 -4 0
973 973 1 0.0 8.779930677993567 54.62048864159885 -18.025226734284715 0 -2 0
652 652 1 0.0 2.1564668570373504 45.559433513454536 -17.45054871417041 8 0 0
558 558 1 0.0 7.727021121531192 47.497358338310605 -23.031186895921277 3 -2 0
644 644 1 0.0 1.9089215595263462 49.52890352564367 -23.08080275332712 1 -2 2
95 95 1 0.0 13.509536044596457 46.5488833153361 -21.399463383304727 -2 3 1
646 646 1 0.0 0.31977023919720104 58.907141475331706 -11.46708563929909 5 2 0
394 394 1 0.0 8.645233398356838 52.97797776889283 -13.270069386657767 6 -3 2
799 799 1 0.0 4.133432784115548 51.020882756877405 -11.848546471298345 -1 0 0
634 634 1 0.0 3.952570530836238 49.64456511163582 -15.74811804869518 5 -2 -3
880 880 1 0.0 2.508328807736318 47.979705978952005 11.881194918365924 2 1 1
849 849 1 0.0 0.0778981237995254 48.720027014529336 -26.352489203028142 3 -1 -1
994 994 1 0.0 6.49029034423774 46.239368120457605 -17.157912671030644 -3 0 0
970 970 1 0.0 5.439011169537423 55.753742535176116 -12.426717911326644 -4 -2 2
105 105 1 0.0 11.898801622102097 46.094632586056434 -16.409019464095252 7 -2 -4