LAMMPS data file via write_data, version 29 Oct 2020, timestep = 300000

2048 atoms
1 atom types

-0.21522750065167706 28.56722750065442 xlo xhi
-0.21522750065167706 28.56722750065442 ylo yhi
-0.21522750065167706 28.56722750065442 zlo zhi

Masses

1 58.933

Atoms # atomic

268 1 2.3914596655404905 0.33785693749406775 2.8729416613179266 1 -2 -2
575 1 2.628961890208317 1.9037716347643294 0.2641457073642577 1 -1 0
402 1 1.3825871814096864 0.49410869507593935 5.243184308327341 0 -1 0
1859 1 0.1765090033360071 2.505879225586882 3.9784503280987327 1 -2 -1
231 1 2.1763243729186548 13.863103613554621 0.180115678677658 -1 2 -2
1237 1 3.046986140677853 2.1999524528536516 2.8426701333017044 -1 -2 1
1084 1 1.1838034748377422 3.1342252251331053 2.0762916667956404 2 -1 2
1768 1 5.098305072286043 2.4521848251222895 1.614012498646329 -1 3 1
1466 1 4.07914990102503 4.747557147461657 5.077250545488428 -3 -1 3
1376 1 3.6742823835859046 1.031194076104025 4.758086225276533 2 2 -1
1864 1 3.7894040275751104 4.205643009412642 2.024303585758178 -1 2 1
1806 1 6.9640373087863585 0.895435439131804 1.8354674046621082 1 -1 1
20 1 9.81001481810051 1.7194190231658877 5.117304521371172 0 -1 -1
784 1 7.303957404042442 2.622832857938927 4.3186520235438 0 2 1
1746 1 27.508086650579948 6.946172147294319 0.7894166354976493 1 1 1
1228 1 2.716129177485919 27.939134156305464 0.2979608239243854 2 -2 2
1257 1 5.819341836357267 11.667931275869785 1.0822389133257062 2 0 0
1532 1 10.119821956975306 5.1018387058476025 2.096628106185056 1 3 2
1822 1 11.842332942436425 3.600546912111151 4.129452251609409 0 0 1
2029 1 7.906200421229595 0.5936553455250428 3.7514160572617565 -2 3 1
1238 1 12.65542242749091 0.8418603657588035 4.114411599510888 1 1 0
255 1 10.623740587093296 0.6991865187705583 2.593945826225595 1 0 -1
1550 1 12.434160358338003 28.483968801354056 1.2671734759058155 0 -3 0
1527 1 14.859671295109969 0.595433222134575 2.532402776167748 -1 2 1
238 1 13.727254908336025 2.217467896549749 2.0171203987890958 1 1 0
227 1 14.903177803443123 3.5143382841710404 0.1961927408895356 0 0 -2
372 1 16.05283793846469 4.2858090783757925 13.201595865402828 -1 -2 0
1942 1 12.259726350197226 1.623734404330966 0.2331730042428507 2 1 1
1894 1 15.145517162516953 3.1634331645089357 3.4534643351331074 1 0 1
1025 1 17.685995929888428 1.3090277435698807 4.411459539304452 -1 0 0
188 1 18.978986630097538 3.2780581943390446 3.597955765904215 0 1 1
1016 1 17.309512348786868 3.3757616381577424 0.45781198639280185 0 1 1
880 1 17.91073184590909 1.3383809271895455 6.612908984131258 1 0 0
781 1 19.72957708475215 28.539516721502004 4.071550618677305 2 -1 1
554 1 17.32027594927405 0.4530250478779104 0.20098341025585154 -2 1 -1
1046 1 26.953163805365392 27.790559322215692 12.586736969997007 0 -2 0
1217 1 21.315099229263772 2.3771287765869364 3.695215559882745 -3 0 -2
235 1 25.511895948458907 1.8285269418419414 1.107807198982103 -1 0 1
1059 1 26.12666416995519 24.883810168167194 12.278888161059953 -2 -1 -1
272 1 23.11411916232771 2.748018035088237 1.544019295179911 0 0 1
707 1 21.648741773706313 28.278877782603985 5.189471716380817 -2 -2 3
643 1 19.85279914641049 4.345845623464447 0.469007387165398 0 0 1
1432 1 22.673400757124746 4.651015053087177 3.1193847161723918 1 -2 3
1112 1 6.468963567698234 9.450729293992467 0.9454319087373606 1 -1 0
803 1 0.2004958307822281 0.5089119437087196 3.127507051599442 1 1 -1
631 1 27.606298570088214 3.3818162768649356 2.26363088078006 2 2 3
495 1 0.9678475195321201 0.29160600647235413 1.037534920135524 1 1 0
488 1 22.734156248595895 5.108457595929794 0.6958092075372512 -1 1 0
916 1 0.2233894235391275 6.097166547900697 2.329344637175819 2 0 0
201 1 24.91106258716897 2.9620112536946466 2.9493628658787263 -1 1 1
1626 1 26.920216832964293 3.4008992572911705 4.487887995297651 0 1 2
855 1 25.73709722910681 24.998679391870596 9.635293260897368 -2 0 2
1210 1 27.139371644498077 4.865621369256602 0.9298287967233896 -2 1 -1
1115 1 2.0559576618463504 4.653834705973759 3.3666602728225516 1 0 0
418 1 5.09919153881364 8.017703451270663 3.640123282001685 2 0 1
1982 1 2.931728667219352 7.3666405330175895 2.0038077881245817 3 1 2
776 1 3.9668715490497046 6.796472647196511 0.020043157985501298 -1 0 0
297 1 1.094022838924355 6.47728792201041 4.964878136784458 -1 -1 -1
1080 1 2.0685254037538736 8.583586072586696 3.806990334895488 0 0 1
1556 1 20.926648890820076 1.7992426655657665 0.08403711304878653 0 1 0
347 1 4.147596713208334 18.25459189031489 0.541735406003232 0 2 1
1495 1 7.018373645505347 3.491215136398905 2.113021736203088 0 1 1
1680 1 4.177986428372108 6.102760723152373 3.3300330079860347 2 3 1
1165 1 4.93500529062356 3.2231889601872474 4.053750370313444 0 1 1
401 1 6.197618424158793 5.683820168002749 3.204096918814589 -1 1 1
928 1 5.768396860472241 6.804705246675842 5.624991994725252 0 -1 1
1159 1 8.628235627249138 8.334841459229258 0.7280315855778821 0 1 2
1113 1 5.534566453734368 5.635866517103963 0.8965180191939723 1 -1 0
257 1 8.616580617470436 4.27267615079583 3.515243840938038 0 -1 -1
691 1 9.082606125562053 6.99053056084168 2.7156023382198025 1 1 3
275 1 11.596480680684643 6.629330173051958 3.4894642580175903 0 0 1
642 1 11.334085013625614 2.8492927526642147 1.6664040777551403 0 0 0
545 1 11.017321880654798 5.153925651457363 0.23473690176232986 0 -2 2
1720 1 10.733422748845406 7.752968356196287 1.3999353907932577 2 0 3
85 1 25.279716897965926 3.8391042005286744 0.1819920248084213 0 2 1
340 1 12.9906773881705 4.664046502667927 2.2984764941007936 -2 1 1
1546 1 14.162721178608367 4.650278138438912 4.8950850325923945 1 0 1
376 1 12.862661824084089 6.535625431847448 5.8482947367967135 0 -1 -1
1750 1 17.094502755107428 8.960329047154 3.450041806124449 -1 0 1
905 1 15.294304183041874 8.095738821984487 1.7098371747965408 -1 0 0
1018 1 13.21379523877442 5.110658172362018 0.34750246716999955 0 1 0
1381 1 12.777895842055553 7.721408822423725 1.9788799673506872 0 0 0
563 1 16.901740349567767 1.893531800141108 2.37475958176674 1 -1 0
132 1 16.863176385077367 6.869576278934479 2.9690515607626917 1 0 1
1241 1 19.019008634785223 6.021294041102512 3.5994410710678686 -1 0 -2
1611 1 20.177473848345677 8.30609282842008 1.5961120046087285 -1 -1 1
240 1 17.059638820159186 4.427078662900585 2.664816237790744 2 1 1
1350 1 19.554760617379756 6.688626867125926 5.947320774437881 0 0 1
1500 1 18.68448282714158 6.079040014966778 1.3863377950201585 0 1 0
100 1 14.929763781360046 5.456837440483812 2.730212378774194 0 -3 0
139 1 20.54751281461258 4.223704435314238 2.678208137245747 1 -1 0
1359 1 21.078052880836808 6.419942021395125 2.523518822638274 -2 -1 0
773 1 22.104175310051595 6.4413247421165485 4.9085507189953175 0 -1 1
1954 1 21.00350191812535 8.706520195267355 5.691033520249457 -2 1 -1
1390 1 23.718378262882645 7.326188222005001 1.5427064650584672 -1 1 2
1129 1 21.039811517123916 6.871408432764324 0.2680617249699827 -1 0 2
1149 1 23.965643629490195 4.901885735706001 7.568495709055888 0 0 1
224 1 24.709668024300782 5.09887982929621 2.1396811496539736 -1 1 0
1188 1 24.47121983412545 6.734542313218357 3.7742442620679553 -1 1 -1
167 1 25.305815071180326 6.324640151828022 0.47016858411925677 -1 2 1
1264 1 25.965711471709653 7.661814652538105 2.2492752535299068 0 2 -1
1698 1 26.906338122853647 5.8130250077800625 3.644999774061014 -1 2 1
977 1 28.465590931178433 4.678497223386377 4.9761089301436625 -1 0 1
517 1 26.336769867486822 8.425550587286732 4.315234959144935 -1 0 -1
832 1 24.940999485066655 4.677654687700701 4.514527919888461 0 0 0
1042 1 12.407746264447466 18.054930391292935 -0.2102386746399638 0 1 0
1097 1 4.073950164453049 9.2316008561029 2.13828068747278 -1 1 1
1102 1 0.8311416593656176 10.29508278255552 4.657100047799506 -1 -1 -1
1863 1 0.24297145620518912 8.464023621944234 1.4844160858437516 0 -1 2
1781 1 3.5596478247538763 10.66109914402322 4.05861011854917 2 0 1
1037 1 28.23965713369433 7.968315586050689 3.77152405276214 1 1 -1
302 1 27.895855778717532 9.91056183467356 3.2512732101841935 -1 -2 1
346 1 1.0554624427039008 12.165199847587925 3.975173756478717 0 0 -3
1331 1 27.434290441482766 25.845287937853897 10.686362340036638 0 0 0
375 1 28.41173285421145 19.059804790977225 0.358948338602466 0 0 0
628 1 7.79208075958001 10.00557681074762 2.6824454871657624 1 2 -1
387 1 5.570824242932242 10.444745730743405 3.4338384594243685 0 1 -1
1649 1 2.6301994568578526 8.75331394779591 0.33354488432469187 0 0 1
1305 1 6.3191872390381585 7.600024621747653 1.7841654702304799 3 -1 1
1 1 21.53135866879495 27.758484919652112 0.7623156209864509 -1 0 0
2003 1 10.210107916533376 9.183650879530386 3.531566392597152 -1 3 0
802 1 12.507688644952268 8.736869582114199 4.680821523677868 -3 0 1
144 1 9.477386935416707 10.01971345169153 5.528702207567844 0 0 1
581 1 9.919224337297715 9.945829781847122 1.579235854597945 -1 -1 1
526 1 12.22931216933692 10.01689992498195 2.6961315656396643 2 -1 -1
419 1 12.166546126285535 12.460651189342338 1.3675221999717926 -1 -2 0
1633 1 8.079311892448276 11.66844118471567 1.1221812448521022 -1 1 4
1544 1 14.588248305841029 7.156318084174014 3.916001283550565 0 -2 -1
1347 1 11.345885830711612 11.91465254434556 3.4649455213690756 0 -2 -1
1031 1 17.767776854890037 11.217705147035106 3.6107915573109177 0 -2 1
682 1 13.9665435206397 11.550280722662018 2.9261059892227697 0 -2 0
632 1 15.507610029718132 12.054558525035624 4.437327056259018 0 0 0
999 1 14.527811789054788 9.446205040797423 3.6844354514394393 -1 0 1
740 1 8.982318391014527 2.134928002052629 2.523981905198496 0 4 -1
345 1 6.890312279863172 13.835882380518738 1.2919457221049866 3 -1 1
1329 1 19.349924441413393 8.422071525808091 4.360415227620744 -1 1 0
858 1 20.00831736668902 10.762734492829622 4.378437369748561 1 1 1
808 1 17.450886696796182 7.7844596201340215 0.9935592507953466 -2 1 1
1580 1 20.401990907942697 10.339735150185582 0.4787550076722933 -2 1 0
1133 1 21.474292506949034 12.62129857400163 4.028544899469016 0 1 0
63 1 15.557723894703944 19.84453064481471 0.855068232454433 2 -3 0
1010 1 18.840008203021434 9.837705633002521 2.4145263982125846 2 -1 1
1261 1 23.061546546901262 6.571284043110846 6.590649741854611 -1 0 2
318 1 22.25847193050936 8.551951840519399 3.4714401434187114 -1 -1 -2
1109 1 22.358136678110554 9.136636024293686 0.8514328664329782 1 -1 0
533 1 21.1813066511507 10.085814883166783 2.5485556391214206 0 1 0
1309 1 22.86741137401834 10.787391028622585 4.589100677962822 -1 -2 -1
879 1 9.274224846631816 3.407447460200674 0.19135857634510905 2 -1 1
1900 1 14.491619822915448 25.20690014106347 -0.14548792006738578 -1 -1 2
1608 1 26.055155023437457 9.89016759288808 1.846123434228458 -1 1 2
184 1 25.495961346586363 10.755033362027845 4.527894980320859 1 0 0
1354 1 24.018223162167956 9.625100209014184 2.828632200867632 0 1 1
1311 1 27.640168082856768 10.830537698342884 0.769162247512717 -1 1 0
475 1 26.36585970710677 12.20067764320532 2.1806155214518235 -2 0 0
171 1 11.44835306406943 11.20140161755857 12.542594127159727 -1 0 0
837 1 1.107329466033053 10.97036431537771 2.2163132795321707 2 -1 2
1554 1 0.29216990866049464 14.818392954912746 1.0571707666364163 1 -2 0
1479 1 3.772416412065139 15.062137291074349 1.329044996652579 0 -2 0
1486 1 3.119807586958078 13.009252189984627 4.284450029948828 -1 -1 1
1587 1 -0.20441381202153988 12.706671533013349 1.3917300718501104 3 1 0
661 1 1.682021587034801 15.512517585199712 2.711654004844608 1 1 1
1218 1 2.748039215973685 13.26942666930338 2.28269793816682 0 1 -2
1019 1 5.389402124412873 14.093479725701892 4.6365618195236395 1 0 0
114 1 23.908486917068046 0.20221248810452125 9.889554464440414 0 -1 1
1686 1 3.2510481595062215 11.267684556477771 1.4510651143517754 0 -1 1
968 1 7.115420020088547 12.688595011827116 3.3982100985776085 -1 1 -1
183 1 4.869540411272177 13.042591875445753 2.4255272189152226 0 0 1
207 1 8.867623358683293 17.71996236679236 0.9557986196579553 1 2 -2
382 1 7.769998643276934 13.095192668901484 5.558997361196463 0 0 -1
1992 1 16.022924371297535 14.600729252807103 0.3431687851334332 1 1 2
1520 1 3.493394781828969 24.02645579420171 1.1717484711614325 1 3 2
50 1 6.98791182444383 14.880920775477113 3.0846450840227213 2 0 -1
767 1 10.11397408874377 16.181978773293253 2.2860918791334486 0 0 2
1499 1 9.62565154063159 13.34626664699209 1.7535104513267186 2 1 1
2005 1 11.627311415702508 13.952635714257093 5.150489296493412 2 0 0
1963 1 11.487607056246176 14.15171698745989 2.7365116333288255 -1 0 1
311 1 25.264269405952803 26.829234311965322 11.008544533085884 0 0 -2
1994 1 12.842526418339519 15.937607233916323 2.88978766263918 1 -1 2
1647 1 13.494179921451153 14.128314526210918 4.31701695019364 2 -2 -1
920 1 17.291301994287522 15.573186082463181 2.5812831740797937 1 0 2
1719 1 16.016225669815007 14.625454966254571 4.317964363702482 2 -1 1
301 1 14.04257000460751 13.62588785081554 2.070374104387323 1 -1 -1
254 1 13.39322000902808 15.780976321139281 0.7671163059348112 -1 1 -1
1330 1 18.330131171779115 13.94818358296505 1.0396009798498256 2 0 0
961 1 17.982984630584063 11.26208757812162 0.5273904721287392 0 0 2
1435 1 16.495191129009577 13.026929570263677 2.1795413036277793 -1 1 0
442 1 18.331326399073376 15.551609146215316 4.847578423178152 -1 -1 -1
1064 1 20.510891794760802 12.693105139352964 0.27543881933443926 -1 -1 0
715 1 22.175194202772822 11.730707550893968 1.7833870575407007 -1 0 -1
791 1 24.395717394645033 12.328703125780015 2.9838778365982654 1 0 0
111 1 21.046731777860003 15.259303504601037 0.8646484495460423 0 0 0
1673 1 22.690659241656974 14.01775952767133 1.9320751422648992 2 1 0
474 1 22.25464203534215 14.949896752599972 4.209893313235398 0 2 0
1583 1 22.686005359880674 16.96193471233922 0.675913844497641 0 -1 0
1906 1 27.651156781886584 12.214427882715665 3.930707837414725 1 -2 1
1213 1 26.97248699088216 14.695728959885743 2.101851231589663 -1 -1 1
2038 1 24.472657829116265 10.893724693780715 0.5623136521342271 0 1 1
540 1 26.194324607012987 13.743436959223281 4.753513070274739 0 1 -1
1524 1 25.09920801815253 13.598738840793887 0.9966286209476105 0 2 1
1555 1 24.47050554672662 14.99298164637364 3.316732604368732 -1 -1 2
1986 1 19.263982106283002 2.0301155843648075 1.8348682414949193 1 1 0
1788 1 3.248434606888313 19.65595514512365 2.5801563077862317 1 -1 1
847 1 1.323424694375428 17.003728432505277 1.1849047991866857 0 -1 0
936 1 3.366104423285785 17.050095440443343 2.6744741963315684 -2 0 0
726 1 1.0855183860557849 18.41454656767148 2.6897627529376 -1 1 0
1829 1 4.154266195635946 15.199030591152496 3.5644440589210844 0 -1 1
683 1 26.625516543083315 12.768878202465743 -0.1077652545944374 -2 -1 2
1690 1 6.836956243055761 4.0792048407076225 0.14018832231812917 0 2 1
1999 1 10.67095876044679 19.28798935637908 0.23629907462568905 0 1 2
518 1 5.270130709605477 20.17020815770917 0.15916449820220469 0 -1 0
1605 1 7.17929959560499 19.33266434624332 1.3098922733886345 0 0 1
1700 1 5.586091079695143 18.535494013478242 2.9498564070609405 0 0 0
1979 1 7.51222310591238 16.839129234986544 2.9749830294761828 2 1 1
1890 1 5.625079479273048 16.372211058135896 1.7782999799229322 0 0 2
118 1 9.501777217740127 18.172007721836877 3.449699036625504 -1 1 -1
108 1 11.738303920615582 17.92528349516968 2.3352062241085565 2 0 -1
600 1 13.153531959619789 19.976730753530113 1.459682887321918 0 1 0
1103 1 8.398707129208406 20.692594265781935 2.6998516273934587 0 -2 1
735 1 7.695590473357348 5.79108254519839 1.6031735253985402 -1 -1 2
1762 1 11.24471651079416 13.700407944220151 12.606228986252987 1 -1 0
1091 1 12.20188521089212 23.260841369632395 13.991925790321897 -1 -1 -3
133 1 14.163279644980117 18.047651465941925 2.2599041792010928 -1 1 -1
285 1 15.478643717243957 17.09529295154926 0.7521713394568256 -1 -1 0
805 1 14.504062436549923 21.757843052225944 2.1003651033733055 0 -1 -1
1326 1 12.087881524850161 18.551854337230537 4.324141273571818 1 0 1
1623 1 17.19787155274713 17.897332260408504 2.3249971735764134 -1 -1 1
727 1 16.348745694095207 18.26406406695486 12.269081172599073 -1 1 -1
1725 1 14.957469534623169 15.705426137259291 2.7701738288075197 1 0 3
758 1 19.636203366220357 14.7569648176995 2.6721663969146308 -1 0 0
1534 1 18.98473142814079 17.19604511586602 3.4283053292600374 -2 0 1
529 1 19.149241104745535 17.103507973718926 1.3167104777895977 -1 0 1
1586 1 19.247707138785415 25.486202671481323 13.500870531081823 2 -1 1
69 1 26.71346188453687 17.237194826978687 0.10253095389841549 -2 -1 -1
1650 1 17.218767749775367 21.09810615553382 1.9754894930737374 0 1 0
824 1 18.961136695114973 19.281857291107556 1.4084555585140361 -1 0 2
360 1 -0.113265917431503 2.3470674132385474 0.5008198900667026 0 2 1
1567 1 23.681417583111553 17.13740884206542 2.8383349380392495 1 0 2
1528 1 24.369998996287904 18.47770977492356 0.22183358785426338 -2 0 2
1256 1 25.794722094249494 17.979436654047674 1.911930639920432 -2 0 2
762 1 21.403065954725236 16.343909168061607 2.641339377450423 0 0 0
1373 1 22.62330755631652 18.975167621608385 2.1077917234296746 1 -1 -2
1066 1 20.739769443433424 26.060629841169785 11.935161463220364 -2 -2 -1
815 1 26.846713110613948 19.735143043785207 2.7172925541309367 1 0 0
606 1 28.00566596032577 17.14688019045699 2.132321665191994 -1 0 0
1000 1 24.769072073390163 16.043863090737332 1.349078249188776 0 0 1
953 1 27.5962105887157 21.60893552455827 3.7300219382995 1 2 -1
1341 1 28.26284673890529 19.486329520267994 4.582846867492472 1 -2 -1
1507 1 1.4533375323100703 20.036032588567302 4.388281079399689 0 0 0
794 1 2.7068170221107635 21.7476718794413 1.8697388833890707 0 -1 0
2043 1 1.9072943693005615 19.396149536116873 0.41568239587049693 -1 -1 0
650 1 0.3320865954357697 20.74592131592506 2.1532533040398567 2 -1 0
640 1 4.759027270661953 3.3404025574696377 13.796743735677309 2 1 1
680 1 1.118481300478889 23.18565941490884 0.973026880113977 0 -1 -1
1737 1 7.652139148466392 22.540796155834983 1.8490984941147728 1 1 0
1107 1 3.612324737536709 21.135929801592 4.131690197369586 -1 -1 2
409 1 5.4171349148164 23.0007044653086 2.0303391943890476 1 -1 0
848 1 11.413983977351284 17.56317450001078 13.43798707617509 -1 2 1
580 1 5.638773842256791 20.787539804998566 2.5834745296943367 1 2 -1
1798 1 3.6589977566987066 21.357707860408624 0.15535495553762718 1 -1 2
1839 1 5.9180855289893834 27.492984768300175 3.428601273930704 1 -1 2
119 1 10.899054980632698 20.009918817525538 2.743090964387721 1 1 -1
1663 1 8.106201935789956 25.256665159391467 1.7732631121101001 1 1 1
929 1 9.862304724066767 21.650868978954477 1.1653797782323267 -1 -2 0
1232 1 10.559222667972115 25.06141500199343 1.9987414688655454 -2 2 2
1957 1 9.086031150186598 23.28205474414804 3.460824004897978 -1 0 0
844 1 13.61216026481346 25.291232840082678 4.51480452017773 1 1 1
1262 1 10.04203267509273 21.388278642085602 4.707623957303033 0 0 -2
211 1 22.900121721077987 20.530645761562077 0.4489339471679006 -1 -1 -1
408 1 21.034614586574584 23.982837361447288 13.755967264221187 0 -1 -2
622 1 17.38125732083622 20.438696242561626 13.8664308111622 2 -1 -1
1315 1 5.731941319836316 24.88792586682804 0.38312763230065494 2 -1 1
1193 1 16.092358763697227 10.68891309998006 1.9084471308468016 -2 1 -1
1921 1 13.641323699055345 23.553244127406806 2.9400988810251216 -2 -1 1
637 1 12.10985639751946 22.07895080064668 1.3276392015517144 -2 -1 -2
1834 1 12.922172461815135 21.138278849293883 3.5457784905438707 -1 0 1
1631 1 14.727638519083337 21.904820532068385 4.915332784415302 0 -1 0
1926 1 15.283561607133334 24.400573982052762 2.0120508856016146 0 0 0
1560 1 12.372198499773294 24.162442520942705 0.7428543215790488 -2 -2 1
542 1 11.161962079442178 22.77232236894058 3.0241876080424337 -1 2 0
371 1 16.328433879076726 22.464288769237022 3.358676957097599 0 0 -1
343 1 16.689443072204654 22.784730335312922 -0.1326722469003272 0 -1 -1
919 1 15.551737820485329 5.726154173926617 0.6879442577202827 2 2 1
1592 1 19.551539147608167 20.42083514751061 3.3334209706371447 -2 -2 2
1770 1 19.60322964096283 22.123233115811388 1.7642250731866667 2 -1 4
403 1 17.847243349834315 23.54684790274316 1.8998036444288688 0 -1 1
1674 1 20.591806151540972 20.349611483604562 1.3037996628087156 1 -1 1
524 1 20.52692351612852 22.328859435361053 5.804920801256858 -1 -1 1
1322 1 8.998118018248203 13.530139313341113 13.533504273782295 0 1 -1
536 1 22.09785244910845 20.891528620850927 3.2020820580137284 -1 -1 0
77 1 22.232594851443963 22.7448001607451 1.1243234035931862 -1 1 2
105 1 13.384585164421974 20.958349805877184 11.439998366610089 -1 0 -2
55 1 24.457690769407535 19.92165842264903 2.4984199654206516 -2 0 0
1952 1 -0.19519947364901666 21.23455046308318 0.05492004831096453 0 1 1
1335 1 26.891114914501813 23.0479347975266 0.5024665608135247 1 -1 3
1897 1 0.2550618082318023 22.07292724588138 5.425718451199018 0 -1 -1
64 1 23.17689837295086 24.460651154129778 2.4612849796687626 0 1 1
1854 1 24.42310798350516 22.155313832050595 1.000250137921798 0 0 2
1814 1 26.485689168052737 20.885285772278905 0.8027041290940033 1 -2 -1
1974 1 3.290813171573507 24.79660023334199 3.7160237427937957 -1 0 2
1947 1 0.7864501370681507 27.189514112512192 3.898860191561546 1 0 2
462 1 4.716633693814755 -0.04966249013373103 1.2421599810384136 1 0 -1
737 1 2.280813234802771 26.732423169812463 2.2493081355239366 0 -3 0
93 1 25.261433956043348 26.306663888264723 2.968513973750507 1 0 1
4 1 1.0527970938052658 25.03801852695625 2.533034902566599 0 -1 0
1573 1 2.2378692704319167 26.571514159654598 5.3368409478876435 2 0 1
1622 1 5.4184246853452995 25.412594722295438 2.70062520926642 2 -2 1
1518 1 7.336295336048454 27.825355351863195 5.11328588685948 -1 0 0
1935 1 12.15191704272513 9.431622542195727 13.470648741442908 0 1 0
698 1 4.639229264972444 26.607253625059805 1.2459494262478583 3 -3 0
617 1 6.9689060501367175 27.00237856422224 1.5477872398412758 -1 -1 -2
1216 1 14.578052627890209 22.86586849114493 0.20770252532611388 1 -1 -1
1239 1 10.443990726844952 27.825237692151042 1.1490654359689783 1 -1 2
778 1 9.254934573580023 26.881478163660937 3.219343278317211 0 0 0
900 1 9.832254019109783 28.26562220683786 4.540973075450209 0 0 -1
28 1 13.31614746542117 25.944849190448288 2.1417485394969487 0 -1 1
1576 1 19.16220133910582 23.777860439329324 0.1851850211321711 0 -1 2
1008 1 16.7465389270211 25.911975022895334 0.847635508660024 -1 2 1
1026 1 14.306640819465255 27.546175410483272 1.0942462929583892 0 0 1
252 1 16.366210190600185 26.016267848056323 3.2391564433967273 0 -2 -3
312 1 11.552517099883595 27.428556608162864 3.164822646494171 0 -1 1
1807 1 3.917973394913343 27.191471111822736 13.356473857823634 -2 -1 0
281 1 14.173336160845864 27.28135872149298 3.5490835321351 1 0 -1
319 1 21.220850692265124 0.5961811090316694 2.4447514909387995 0 -1 0
1280 1 22.88462202278908 26.679387106074728 11.001078803386568 1 1 1
1949 1 19.552556504927416 26.22576101481514 0.9100845521967871 0 -1 2
1498 1 16.817450991564876 27.881158676142924 2.154454643699744 -1 0 -1
1223 1 18.344145205521734 26.27169825290727 2.640846448196471 0 0 2
1646 1 19.718551700063614 24.17941369041734 2.913730644197438 2 -2 2
1430 1 21.45600654048547 25.42924562287473 5.044470540407022 0 1 0
1048 1 19.344311666021575 24.103796629366208 5.315490713922094 -1 -1 0
1412 1 16.940457470084304 27.979445882391587 4.396011409832519 1 0 1
790 1 21.158363493158667 25.14727043134065 1.59820368732329 -1 0 -1
1695 1 23.280170949967435 0.4119198597672681 1.0477631679488661 0 -1 0
1759 1 20.177250559348657 27.675001961240852 13.455781796257185 0 0 0
1209 1 21.195682986774706 26.734037981128026 3.1488890739912447 -2 0 1
724 1 25.26477898095571 -0.016486860725571095 2.393729239048571 1 0 1
1506 1 23.140062573329537 26.611023594825447 1.3312454363298138 -1 -1 2
2046 1 21.747537686794963 23.102896931091507 3.8041185309814383 -2 -1 0
1535 1 25.63969837971068 27.300247257605797 0.5637880019092935 2 -1 -1
1406 1 25.2862268606711 24.810982802520385 1.3864274898625089 0 0 -1
861 1 27.39740776820127 0.34632658729650523 0.7920727697629635 0 2 -1
1642 1 26.819187414514815 1.2765358781557237 2.8886361983011244 -1 1 1
1197 1 23.58993325962785 27.855161766138067 4.127568662645953 -1 0 2
296 1 27.673093993470353 27.337206107555446 2.189814220503213 0 0 0
2044 1 28.252617279793775 25.428210532385314 0.9913171997288095 2 1 2
976 1 2.0351296155758773 2.8373362003528872 4.8909449075927025 -1 0 1
543 1 4.8306936612437745 28.13512856996914 5.923875579129118 3 -2 0
849 1 0.9634440858776021 28.212131290814888 7.029216323832951 0 -1 -1
729 1 3.314807490564154 0.8980990830996658 7.246694399293804 0 1 1
1004 1 4.455135196312733 28.11658865731745 9.377227405952063 -2 -2 1
1116 1 28.545463004070204 0.15356944073789358 9.698941695914838 -1 0 1
1703 1 -0.200528879024084 27.30728170955704 5.684935100328449 0 0 4
2000 1 0.8376511022380602 1.7948448302025093 6.870507655290369 1 1 -2
221 1 2.1042940177907803 -0.14725062257595312 9.266495546620332 2 -1 1
1070 1 8.775169413747276 3.704039352652238 5.842057407638092 1 0 1
1459 1 5.7898016623112625 1.6492492356228592 5.731188760758422 1 -1 1
1211 1 9.229755779283494 2.418178886759837 7.628586987656494 0 0 0
1881 1 4.190605949809911 2.9006129558222735 6.674304207090104 -1 1 3
1756 1 6.866561294305614 2.868976636358833 7.305153368239593 0 0 0
359 1 4.604601078079433 1.8592905246595235 9.108881480832453 0 -1 1
386 1 7.8713535013968325 1.0074388039553328 6.309519926659441 0 2 1
678 1 10.509545904267739 0.6955130033804563 8.97364381975552 0 0 0
1017 1 12.37302999640529 2.2655526265843173 8.135269480991955 0 0 1
1259 1 13.463170243730529 2.5091545356244507 5.389943157618077 1 1 3
412 1 11.94161898431646 1.0360541113480508 6.290688326031135 -1 2 -1
2001 1 15.752896211637458 2.541811712679371 6.684437912421853 0 2 0
294 1 10.747760436837497 3.873062577668003 7.077286353279835 0 -1 -1
232 1 16.211674204150896 28.321741817529755 6.85249609036876 0 -1 -1
2023 1 14.266702139170604 2.1386636876943874 9.544441568466574 0 0 2
193 1 14.52279654961087 4.084378224685338 8.258348645162332 1 2 0
1591 1 14.064420854802934 -0.05112182528647935 5.652168997280904 -1 1 3
911 1 16.902986075818248 3.406219820960954 4.9765859264587435 -1 0 0
566 1 15.41742976472064 26.526169780685237 5.337453208502638 -1 1 1
393 1 12.250041575349037 2.1096473011990344 10.549979745555401 1 2 2
874 1 19.969879672922204 1.4842645602949387 5.305599423288612 -1 0 1
1621 1 17.303711464961005 3.3053298209803756 7.890307566661834 -1 -1 0
502 1 18.76269372824644 4.318107266463488 9.996086036833615 -2 1 1
965 1 16.224696701416384 3.0806264583790015 9.958774993521121 -1 1 -2
1628 1 19.523033510661612 0.48949978108054815 8.308837341085903 -1 1 1
1470 1 19.47919757560586 3.0090039747066752 6.79098412978 1 -1 -2
1871 1 16.976501359254627 1.0338356410850764 8.500310284199072 -1 3 1
1056 1 21.456532851995107 1.640939640104223 10.574837189615861 0 2 1
1613 1 23.371935096611516 0.7293994947505451 7.406385997987228 -2 1 2
60 1 23.057234098789586 0.9389400804807564 3.020095183296757 3 0 0
1300 1 24.86323520384409 28.435145956305618 5.8135404797565995 1 -1 -1
130 1 21.69034788698886 28.397256863057414 7.327706419812769 0 -2 0
95 1 23.646861418606264 2.060180479180575 10.988398359462893 0 1 -1
71 1 23.67729441765956 26.919842635189703 8.650320475157702 -1 -2 1
451 1 21.427312912591347 1.9143507277961942 7.985580858742843 -2 0 1
1450 1 25.255009102380725 0.17309309698489506 8.049267280283233 -2 1 1
1266 1 23.347774433983027 3.240911198123708 4.700929005398389 0 0 2
1610 1 26.99908050699657 2.295933166894459 7.050788709286668 -2 1 -2
1577 1 26.123033270182844 4.8461568461798885 6.558584945474244 -2 -1 1
588 1 27.768669028356527 1.1627215702201863 4.916936085369934 0 1 0
1503 1 25.436673685172927 1.500841512976801 4.471409944106552 1 2 -1
1876 1 25.146105548746483 2.134745743025375 9.193504456396498 1 0 3
1526 1 24.570635594652217 4.738226471792848 9.861508787104762 0 1 0
490 1 1.9360518037492422 5.325520622797492 6.459286550939468 1 0 0
1106 1 1.742302095665192 2.1080014497927175 9.130070295451656 2 1 -1
1137 1 28.000442766154883 6.7313476253933135 6.255260448243745 -1 1 -2
389 1 3.5413878406987784 6.998010247548443 5.485472572874973 0 -2 2
510 1 0.08377888118069327 3.8737903771988416 7.000770562251997 0 1 0
46 1 1.1398991445920388 5.44619672421626 8.72933408111813 1 2 2
697 1 4.892927796703858 5.262508943137833 7.042147521701032 2 1 1
1988 1 2.352980733048004 3.544155628248096 7.7097223224272895 0 0 4
320 1 5.361113367828643 9.208359846263141 5.741363032291783 0 0 2
723 1 7.81233031606105 8.298332120654056 4.111254771228713 -1 -1 1
1448 1 6.492148925139294 4.622157291194762 5.361554853005878 -1 2 1
1306 1 8.901481559146928 4.501299183227106 8.353870169435728 0 3 0
702 1 8.442297538789518 5.757417809049076 4.977688154883 1 1 1
2014 1 2.6292572207002314 7.147197740738457 10.138597679268647 1 2 1
1151 1 4.322928933789368 7.796816153651282 7.693286163233343 2 0 -1
1804 1 6.418090764194104 8.868101728802992 8.46340104163535 -2 0 1
6 1 10.683291847244973 5.222580401578742 5.022849711881574 -1 -1 -1
1246 1 9.89216617148682 6.376201137791026 6.973423598090878 1 1 -1
987 1 6.795638514612502 6.286351006071502 7.450211553222211 1 0 -1
732 1 11.443967844406826 7.829902009150054 6.788418063936753 0 -1 0
923 1 17.958265579427874 7.110672283927235 9.36319861074918 0 -1 -1
688 1 15.219452929520829 7.468367424645715 5.997191720393687 0 2 -2
1481 1 12.986863010189106 4.164994663866014 6.885887869554843 -1 1 2
1893 1 16.458208653928395 5.696968295162336 4.640555767671135 -2 3 1
883 1 15.982623203642651 5.109574307073491 6.6617405369856355 0 -1 0
377 1 16.161687790079966 7.429439985238277 8.048078287462266 0 0 1
506 1 11.752109271552282 5.773473056093866 8.227398592913925 0 0 -1
422 1 13.932734685936508 6.546190896387431 8.278457528579706 0 1 -2
555 1 18.41339152901473 4.81235761161635 5.774949122105032 0 0 0
15 1 20.285897943066615 5.697787169957569 10.207189786466309 -1 -1 0
1789 1 19.14135066747682 8.286742075023433 7.666766236209885 1 0 2
759 1 20.481188588678187 4.902697721166212 7.934203839710115 -1 1 1
1349 1 20.685881894854823 4.91553202547268 4.773749655742065 -2 -1 1