LAMMPS data file via write_data, version 29 Oct 2020, timestep = 300000

2048 atoms
1 atom types

-0.4776575426889824 28.829657542688494 xlo xhi
-0.4776575426889824 28.829657542688494 ylo yhi
-0.4776575426889824 28.829657542688494 zlo zhi

Masses

1 58.933

Atoms # atomic

258 1 1.188049741667497 1.4995410132611284 3.501314653918775 0 0 0
8 1 2.9666215594572605 1.2258661701778828 1.5758497832487621 0 0 0
35 1 1.0640349405203235 3.300165266465494 1.3547608796209114 0 0 0
293 1 2.773319309318278 3.1147068289604225 3.215631351037925 0 0 0
289 1 -0.4703348837119223 3.4496179908840263 3.3930285589412876 0 0 0
4 1 -0.4165342610333872 1.2559386286652103 1.3594668018307994 0 0 0
5 1 3.135432269277988 -0.053005138206695224 -0.41561628042919574 0 0 0
12 1 6.459620837308492 1.4085910393747494 1.3360642733907626 0 0 0
262 1 4.740269036655779 1.4328682261355317 3.3068731496742516 0 0 0
39 1 4.639452111437784 3.1222890982337943 1.6169920917198848 0 0 0
297 1 6.377007939640114 3.330109642024485 3.174323064650638 0 0 0
7 1 4.876617713130067 -0.377130126240823 1.4201648537682017 0 0 0
9 1 6.844458692517508 -0.053954362614324625 -0.45700725374390266 0 0 0
6 1 4.462881327437414 1.7262314936296308 -0.43351925366901867 0 0 0
266 1 8.570803282170154 1.2032365357163433 3.312530780592014 0 0 0
16 1 10.314693523004346 1.5008455634308546 1.5484362088586647 0 0 0
43 1 8.185740325144266 3.112864135313145 1.2983919234862034 0 0 0
301 1 10.084276769024722 3.137235962727698 3.199517102428448 0 0 0
11 1 8.56009847326872 -0.4624168144577074 1.3213973450924201 0 0 0
13 1 10.644450184967367 -0.1576842475560693 -0.030603771027098825 0 0 0
269 1 10.655308708292724 -0.34238510113621234 3.065464382073156 0 0 0
45 1 10.511188120060426 2.967603476288769 -0.25293735819520063 0 0 0
270 1 12.404245969885457 1.2556397518182922 3.345729990151574 0 0 0
20 1 14.371859737400873 1.696831481897683 1.7939764393739486 0 0 0
52 1 14.16802402034029 3.148800040947443 3.4668472272674173 0 0 0
51 1 15.926643979749693 3.682108939102612 1.936642482651564 0 0 0
15 1 12.514656259435332 -0.2627039560337294 1.578269409798045 0 0 0
274 1 15.747913147444487 1.2977249870801966 3.796538989565419 0 0 0
305 1 12.558619462828432 3.2288683495015538 1.110173520028582 0 0 0
14 1 13.005455238643973 1.4492243581950603 -0.46624503227732994 0 0 0
273 1 14.051303402881302 -0.4367719224559181 3.301450473829349 0 0 0
19 1 15.795380686941938 -0.2039397134075831 1.8065327904723545 0 0 0
49 1 14.558015931590065 3.5867143558508516 -0.3495725210635996 0 0 0
21 1 17.83175529850194 -0.42268605804491716 -0.26264489871037083 0 0 0
24 1 17.811750584874645 1.5937480133499067 1.8454709163572942 0 0 0
278 1 19.8733626391124 1.4598608449781456 3.542695620786442 0 0 0
55 1 19.716494150766444 3.256343917290874 1.7449351240909898 0 0 0
309 1 17.671598880465282 2.9987313538865514 3.7635151761731356 0 0 0
277 1 17.845285005612133 -0.30246343394837755 3.7895195335941434 0 0 0
53 1 17.976341034369263 3.28111146714476 0.3111558440448595 0 0 0
18 1 16.302185236803368 1.98533851929226 -0.42599741386942713 0 0 0
61 1 24.587034346848647 2.7082897360134095 -0.3988193249239603 0 0 0
28 1 20.750882082786582 0.9915978691285774 1.6404308220200314 0 0 0
282 1 23.228050908758107 0.6991503920647013 3.7349413249618433 0 0 0
313 1 21.7064812851142 3.209803964489048 3.640328714617307 0 0 0
59 1 22.828161307817055 2.2403893186874675 1.5225911284484366 0 0 0
27 1 23.215997249938276 -0.42123263164167213 1.38357814488863 0 0 0
57 1 21.222823516184768 3.0077897354524508 -0.2536603104288189 0 0 0
26 1 23.131533936071428 0.8651235424581669 -0.4413057829626794 0 0 0
32 1 25.25342893724664 1.2407888885677798 1.401619611462481 0 0 0
317 1 25.224327346420765 2.706720949301767 3.1820646657892104 0 0 0
286 1 27.180165019266752 0.9862989720604041 3.3650421850143655 0 0 0
63 1 27.315046268641147 3.1181726873811795 1.5446709358752697 0 0 0
31 1 26.966778988898646 -0.4610363059667293 1.0534844572355508 0 0 0
67 1 1.255374077095008 7.171623979681312 1.0411036478124327 0 0 0
290 1 1.4554156396616096 5.273597081184132 3.2321521527002584 0 0 0
325 1 3.1033267058103418 6.837935450120164 2.9989713014295067 0 0 0
40 1 2.7185087906887295 4.864281450220947 1.3502488287125265 0 0 0
321 1 -0.44493210410635353 6.872121843497035 2.8190883184084647 0 0 0
44 1 6.610620257402539 5.247472300999601 1.0530700225433935 0 0 0
71 1 5.036846384111541 7.294531541375035 1.425750839682263 0 0 0
294 1 4.963708000632751 5.279031493634662 2.9203344462200422 0 0 0
329 1 6.805759817273461 7.08522481532566 3.2918461012907394 0 0 0
73 1 6.530218310722939 7.325373588464323 -0.2502735879474286 0 0 0
75 1 9.075839140918756 6.940136962801359 1.2947058577898674 0 0 0
298 1 8.060496793997151 5.1189738550747474 2.9289730170585266 0 0 0
48 1 10.390863443910407 4.872903744429198 1.3168192998632202 0 0 0
333 1 10.692171764724115 6.819086174037223 3.215189868017095 0 0 0
46 1 12.06332159435928 6.749726062029862 1.4405625557353454 0 0 0
304 1 10.221422777867955 5.063352636212349 4.37707255847584 0 0 0
50 1 16.126576026598933 5.309228824534272 -0.3398857625590477 0 0 0
302 1 12.313052518380644 4.758420995281804 2.8903657861878416 0 0 0
79 1 14.038425614167496 4.840261173925804 1.269305894679692 0 0 0
337 1 14.139553356475995 6.805496722404157 3.237469682101747 0 0 0
306 1 16.26460921903361 5.246652892300662 3.5476337511378553 0 0 0
83 1 15.975618068483806 6.697714063481623 1.6165452765377806 0 0 0
47 1 12.11850850538191 5.127894035609944 -0.27722458649807885 0 0 0
82 1 16.14874242049131 7.7363423584741735 -0.46246840966119035 0 0 0
81 1 14.21169591768571 7.006760036065453 -0.23318414592648556 0 0 0
56 1 17.996087775773702 5.478347435547314 1.2555560382362494 0 0 0
87 1 19.844410612929302 7.106593867728859 1.1678370692324374 0 0 0
341 1 18.01150048984909 6.901934693863422 3.206289010573322 0 0 0
310 1 19.563762877793145 5.036755012275714 3.062019995091752 0 0 0
54 1 19.543346964774273 4.793559148711791 -0.43814483965660855 0 0 0
60 1 21.869187842781457 4.420678778340942 1.468640673911761 0 0 0
91 1 23.624320489042347 6.694717418878708 1.1989012050616208 0 0 0
314 1 23.401108947162207 4.808695516755556 3.2454192456982915 0 0 0
345 1 21.64659776739223 6.533244064156827 2.806747601474042 0 0 0
89 1 21.584892640274653 6.0158675437400255 -0.15321264135581453 0 0 0
36 1 28.801922222801014 5.27374308910694 0.9376571428232658 -1 0 0
64 1 24.887988755042755 4.267223671905032 1.3888970216725265 0 0 0
349 1 25.21783668311872 6.564544256288593 3.0740106715382907 0 0 0
95 1 26.12161927653296 6.164771542669559 0.7790937483781872 0 0 0
318 1 27.01914719025551 5.0821616071071425 2.831931971652766 0 0 0
99 1 1.1429975326832247 10.558489278337023 1.0629126309892074 0 0 0
322 1 1.2127046895663172 8.727826269860888 3.5353788819710994 0 0 0
357 1 2.9768092446548233 10.437374748039685 3.0658913913107493 0 0 0
72 1 3.180785495314032 8.762840362659022 1.3206277491228013 0 0 0
68 1 -0.34948426751455486 8.740712765765899 1.6661459156921166 0 0 0
353 1 -0.46132263438218524 10.915278685980637 3.1568394593965112 0 0 0
101 1 2.7151041937159395 10.612283827890169 -0.3084044365220747 0 0 0
76 1 6.830989432016624 8.918497572688235 1.577775994872153 0 0 0
103 1 4.861666426238314 10.454167264668584 1.5117161871365004 0 0 0
326 1 5.288895104151607 8.880816193054903 3.2761375834096627 0 0 0
361 1 6.932133491088256 10.506538664551512 3.4905666985404236 0 0 0
105 1 6.933033734998223 10.748166218328418 -0.4730385338665677 0 0 0
70 1 4.837256087289102 8.937882386064038 -0.14425657618592985 0 0 0
330 1 8.768763089841173 8.577968842207113 3.148909873706735 0 0 0
107 1 8.30316573837458 10.730925894345699 1.569598563384392 0 0 0
80 1 10.69360274525102 8.85662118620445 1.0954855608690004 0 0 0
365 1 10.107032359856966 10.589160475545626 2.95793349990699 0 0 0
334 1 11.967685578563863 8.620161948729846 3.004660322336209 0 0 0
112 1 10.635287474095904 12.073907597081861 1.3576008574363092 0 0 0
338 1 16.088767325047748 8.7109365455071 3.1177523298233254 0 0 0
111 1 12.308383568635106 10.566935483470601 1.1819459823889407 0 0 0
84 1 13.989336003865212 8.680820241459228 1.3020418250187733 0 0 0
369 1 14.14076258666858 10.54656029042418 3.3534221781140063 0 0 0
116 1 14.395720616830056 11.723308447123545 1.0019024301182877 0 0 0
370 1 15.939391427393703 11.909305826886127 2.726815402086882 0 0 0
115 1 16.318613079421503 9.858849203472998 0.8694203494719621 0 0 0
88 1 18.004507225272036 8.360535585398601 1.2622444214776607 0 0 0
119 1 19.841040074181088 10.187295835812176 1.1951872081726618 0 0 0
342 1 20.29339060402088 8.590301881688138 3.130450690775493 0 0 0
373 1 17.791939610709527 9.990186731710654 3.0233346095753753 0 0 0
374 1 19.540298896344716 11.978627603215422 3.4725649796135 0 0 0
92 1 21.85154031845483 8.476172215893735 1.1008384766895596 0 0 0
123 1 23.403499344717495 10.197764151470372 1.4107470126174997 0 0 0
346 1 23.400665255216857 8.394649872188827 2.8859219128057823 0 0 0
377 1 21.749318413306135 10.34165725657145 3.3773487791716543 0 0 0
378 1 23.627661435141654 11.965778805050784 3.3671205527367563 0 0 0
124 1 21.726272559801338 12.061316986468178 1.140156623782164 0 0 0
90 1 23.46363644155597 8.54479687811558 -0.33845040424672135 0 0 0
96 1 25.52369897271077 8.577502873836302 0.9580346927298062 0 0 0
381 1 25.34829467500343 9.8315282284942 2.7007514240311337 0 0 0
127 1 27.14847573615849 10.662835665100658 1.0977485550393522 0 0 0
350 1 26.83457608919391 7.945072975684278 2.6489448172640446 0 0 0
128 1 25.097041415020897 12.03228955639931 1.1083960414178395 0 0 0
133 1 2.9973960212498043 14.540261336356673 -0.18853057108516819 0 0 0
104 1 3.042707049758876 12.284978853596414 1.0568441302934688 0 0 0
354 1 1.5168858774245295 12.161787688755686 2.80122408808454 0 0 0
131 1 1.4616212409022773 14.331506710217583 1.3584372199435304 0 0 0
389 1 3.1355626404971266 14.349456463701936 3.0767462336681266 0 0 0
386 1 0.9050290151605231 16.125647069553196 3.177076160327534 0 0 0
385 1 -0.24207329870435992 13.983271725736621 3.1060161147060943 0 0 0
100 1 -0.3771521109940442 12.087267273678883 1.0217567890657597 0 0 0
358 1 5.087089295379517 12.250272826458168 2.9607242445048616 0 0 0
108 1 6.781757718050509 12.306648341829325 1.1857457026208003 0 0 0
135 1 4.995317678308407 14.13834868462862 1.3058006011049657 0 0 0
393 1 6.802925334090074 14.043529404622577 2.838980999474781 0 0 0
140 1 6.864102311909327 16.195949000812483 1.378241030865802 0 0 0
390 1 4.603097876131862 16.112520398776077 2.603426248884176 0 0 0
102 1 5.057489197835772 12.15575039844832 -0.25610942441638085 0 0 0
137 1 6.91371803861469 14.254057411543325 -0.10859143765682822 0 0 0
362 1 8.726875879133942 12.454313923230927 3.1056568063811834 0 0 0
139 1 8.617052857419605 14.220300546934757 1.3041000587649831 0 0 0
397 1 10.378020733497944 14.346700519939867 3.262044459562867 0 0 0
144 1 10.415036945273226 16.03573336427558 1.4592641446345225 0 0 0
394 1 8.589164390177741 15.821699121811582 3.5587039571650907 0 0 0
145 1 14.361985263323195 14.149402810099398 -0.35712365815687186 0 0 0
366 1 12.475566909569421 12.243751927888006 2.9527321788435192 0 0 0
143 1 12.183212326712692 13.840042409902198 0.8702533241988268 0 0 0
401 1 14.102736251515944 13.955499488426474 2.4513333496852634 0 0 0
148 1 14.31248713659563 15.976536276061859 1.3445060167290437 0 0 0
147 1 16.170524072264563 14.562115836093394 1.104438123466755 0 0 0
398 1 12.611376677093164 15.69781046753367 2.9016993385898497 0 0 0
146 1 16.248046753128648 16.198593483430898 -0.3035144588941071 0 0 0
399 1 12.526640422571239 13.969516478593246 4.373770344992862 0 0 0
403 1 16.20130251547539 13.773212250871513 4.046385697491819 0 0 0
433 1 14.620376254615381 15.492452699835534 4.199111094379397 0 0 0
150 1 20.198098139372213 16.259992742881444 -0.37006017503474753 0 0 0
120 1 17.932186097816412 12.296584098754806 1.2663813759311364 0 0 0
404 1 16.491342760878815 16.077706411233876 2.63938854493838 0 0 0
151 1 19.764051666489905 14.07952275494299 1.3900200419911675 0 0 0
405 1 18.03950435343181 14.078900314960121 2.949026101708161 0 0 0
406 1 19.992563260113663 15.35558473715033 3.3936950068766825 0 0 0
152 1 18.66769598743825 16.163344696632656 1.4672715681993374 0 0 0
149 1 18.006374357597615 14.497927266581547 -0.33255579524786794 0 0 0
118 1 19.727782246503217 12.218018881997562 -0.045000572055832744 0 0 0
114 1 16.495841113731352 12.339115894559145 -0.44019326522464297 0 0 0
155 1 23.58887572112745 14.09078738605384 1.415025124963877 0 0 0
409 1 21.6752788571633 13.586968757407137 3.4501072874273926 0 0 0
410 1 23.649269876246137 16.178630308292895 3.3049581159320716 0 0 0
156 1 21.708516230599777 15.737457297944362 1.5679255272100057 0 0 0
153 1 21.65517345684048 14.072643506089634 -0.3042256765716461 0 0 0
132 1 28.565392768966653 16.090653814414317 1.3350205867491427 -1 0 0
413 1 25.104849503712238 13.90080691081815 3.0998450194986717 0 0 0
382 1 26.9628601720091 12.365381654440553 2.7729845982846677 0 0 0
159 1 27.120463132685373 14.266057142814619 1.2530514359217997 0 0 0
414 1 27.307617457396383 15.744736973764022 3.4377632972841012 0 0 0
160 1 24.879707529670405 15.887629130009996 1.1738656272378747 0 0 0
157 1 25.12754970548918 14.06395412843615 -0.3599553234911994 0 0 0
136 1 2.704270024021905 16.649258984535642 1.0343532170029273 0 0 0
163 1 0.9054055860389552 18.332557659245865 1.5029381399563362 0 0 0
418 1 1.156965658787669 19.900426093367635 3.329915767357854 0 0 0
421 1 3.0719701703656996 17.822971947993054 3.1466231558598494 0 0 0
168 1 2.910000340309703 19.773267456604202 1.3361076605965774 0 0 0
161 1 -0.3712470199882745 17.83914928386001 -0.4771033109684818 0 0 0
134 1 4.9399357319206025 16.450658755296793 -0.18275165861931414 0 0 0
167 1 4.9490685535558425 18.587275993040144 0.663504710569149 0 0 0
425 1 6.6166800616513886 17.675542170635545 3.1847836861403698 0 0 0
422 1 5.341257484084954 19.668012371728217 3.3333520786161754 0 0 0
172 1 7.3093648552589086 19.80348693124771 1.4091337676492863 0 0 0
138 1 8.464294023555366 16.393483576035884 -0.25835137010185694 0 0 0
426 1 8.957382817573727 19.590679944819904 3.331943067352009 0 0 0
171 1 8.618439521081282 17.87492398393708 1.8413564066748878 0 0 0
176 1 10.530755775487263 19.60259073251131 1.8509425213546535 0 0 0
429 1 10.80570909716265 17.43287221349283 3.3885523958080097 0 0 0
173 1 10.519156734024609 17.972183622279047 -0.1988834081737652 0 0 0
170 1 8.97956230557233 19.810972452868107 -0.165496537714084 0 0 0
174 1 12.176790961462283 19.590352714961398 -0.030068107629366625 0 0 0
178 1 15.868358231596735 20.135646550390526 -0.47382302248710234 0 0 0
177 1 14.292501752366247 18.131601035307007 -0.022779255675758725 0 0 0
430 1 12.43804302682546 19.242554544549307 3.2105004859241597 0 0 0
175 1 12.374489249486677 17.509044263195406 1.5584250851903207 0 0 0
402 1 14.407611754144641 18.13995396161515 2.6720583006178695 0 0 0
180 1 14.385941038636375 20.26013755440986 1.6509283745637737 0 0 0
434 1 16.827612059538723 19.97106951410045 3.1197033889288623 0 0 0
179 1 16.63649231763239 18.16214760948816 1.3541250137869967 0 0 0
437 1 18.102609168787865 17.85666767664526 3.4391036240163917 0 0 0
438 1 19.62028540155797 19.621345639341634 2.9590925917400734 0 0 0
184 1 17.901593478504346 19.99820847108191 0.6438276950451869 0 0 0
183 1 19.97459193060451 17.92723643335288 1.097940323672087 0 0 0
187 1 23.437380270991184 17.778888416868583 1.6094687845894597 0 0 0
188 1 21.41471530651443 19.82409232758399 1.329334702132526 0 0 0
441 1 21.322571625900032 17.8963919557467 3.158703131724018 0 0 0
442 1 23.08813163228126 19.721663407893686 3.213498898878433 0 0 0
185 1 22.198714079980036 18.072428286449735 -0.26926032606340433 0 0 0
417 1 28.68550748197736 17.99503245485394 3.1187755220251394 -1 0 0
164 1 28.4440863710482 20.127192412194056 1.4191216676189786 -1 0 0
192 1 25.28709289995824 19.745970072335183 0.8712064637063066 0 0 0
445 1 25.012414466339592 18.208700028248607 3.32703366960548 0 0 0
191 1 26.631325926184445 17.460713592450247 1.371321715010765 0 0 0
446 1 26.906235283392277 19.450860692849083 3.0875342217566253 0 0 0
194 1 0.8204489332302789 23.411623653449993 -0.2542706811475627 0 0 0
195 1 1.2493762652710558 21.61114291646649 1.2620384436554224 0 0 0
450 1 0.8242511032967086 23.388212769666943 2.734958985636054 0 0 0
453 1 3.6531312144770993 21.691970175039657 3.226370987792591 0 0 0
200 1 3.233886669265563 23.16787923783143 1.5591500608291895 0 0 0
198 1 5.193616775629357 23.63869865027894 -0.4611348411449505 0 0 0
199 1 5.27419035467176 21.27603437198932 1.3028645089828106 0 0 0
204 1 6.930376074083283 23.38182801459967 1.2382414528200594 0 0 0
454 1 5.2617193883643 23.307222780355467 3.2938284257168755 0 0 0
457 1 7.181587520999426 21.743383726074498 3.3811299657377627 0 0 0
205 1 10.693840788213956 21.515030910403 -0.2993064414678952 0 0 0
203 1 8.798272208473623 21.55058887432771 1.4969764880692513 0 0 0
208 1 10.749430516898569 23.316046211439662 1.4069882177913562 0 0 0
458 1 8.39378939055879 23.85812378003326 3.153466801097542 0 0 0
461 1 10.412250723381149 21.72746692862369 3.228776529914245 0 0 0
202 1 9.144759921900015 23.396947348673237 -0.2607158274849445 0 0 0
209 1 13.818411926092777 21.699106510924018 -0.21692281339129843 0 0 0
206 1 12.28898742765712 23.580822425517404 -0.3715119468129392 0 0 0
462 1 12.302406999654874 23.37925243367451 3.526674216298888 0 0 0
210 1 15.825155976775635 23.19497305623171 -0.2109051105038534 0 0 0
207 1 12.139714778676042 21.473522259594 1.5743027841210884 0 0 0
212 1 14.47024647961559 23.766124583506617 1.688696941599737 0 0 0
465 1 14.008397311544837 21.79110774523297 3.304237069298136 0 0 0
466 1 16.16478276748279 23.477417171814416 3.557718769481709 0 0 0
214 1 19.89286273380003 23.682843314625266 -0.44092626580447897 0 0 0
211 1 16.31529077526603 21.657407109261747 1.4309750783956572 0 0 0
215 1 19.485623617643526 21.73922242211338 1.1934576350566948 0 0 0
216 1 17.538682262617428 23.668234591453512 1.188014015836521 0 0 0
469 1 18.091791891918966 22.102129768090983 3.3920043291068747 0 0 0
470 1 19.647742589141586 23.525636090131194 3.599011937924333 0 0 0
217 1 21.598335144121002 21.961604848814517 -0.306696555098758 0 0 0
218 1 23.63854141932709 23.15811845372567 0.003517625515833289 0 0 0
219 1 23.428995219551908 21.55688092665151 1.522984695748279 0 0 0
220 1 21.416524347238294 23.36343337585579 1.639320836095616 0 0 0
473 1 21.670335530026733 21.908754387465983 3.2337440340176338 0 0 0
474 1 23.972189029193068 23.310632771229606 3.496409126292967 0 0 0
193 1 28.535623796020786 21.565254659007586 -0.2019684218738632 -1 0 0
196 1 28.3483729563794 23.375943602126057 1.1754122437421675 -1 0 0
449 1 28.67781152406762 21.472769658668554 3.123922692454812 -1 0 0
224 1 25.32303116526566 23.33918430196338 1.4892291666390909 0 0 0
477 1 25.048429528613283 21.330035422644137 3.107826964607576 0 0 0
223 1 26.71982225635825 21.656591017306518 1.4423593186319787 0 0 0
478 1 27.046001136780944 23.494131820034134 3.358595037204053 0 0 0
261 1 2.85716821831412 28.47015087827845 3.2744207138235604 0 -1 0
229 1 3.4741283274227692 25.12221780198268 -0.1971975216736921 0 0 0
3 1 1.2490783135000403 28.804071117604565 1.4527906510435082 0 -1 0
227 1 1.3092824117467132 25.442306587510352 0.9876304630812986 0 0 0
482 1 1.0705250466113212 26.92220857079485 3.0449425837880257 0 0 0
232 1 3.205898667101476 27.12449392212052 1.1301673288137708 0 0 0
485 1 2.9659461409201056 25.211834181234067 2.8831044726848627 0 0 0
228 1 -0.4125802002861911 27.23608817144563 1.3170511631494373 0 0 0
481 1 -0.36180554904420603 25.1482892131475 2.6681746156892037 0 0 0
257 1 -0.4110279083698103 28.78981131881828 3.545345745123061 0 -1 0
230 1 5.0963985195096395 27.538016839131018 -0.31663883826609296 0 0 0
265 1 6.685006459585927 28.66621579919261 3.2309051767713894 0 -1 0
231 1 5.2772522702103375 25.332002911669505 1.5721773401835275 0 0 0
489 1 6.875901197937576 25.602095884179207 2.9600098599926152 0 0 0
236 1 7.055891670478945 27.281913964855043 1.07381008114698 0 0 0
486 1 4.846771824644228 27.073634948761246 3.2116329044908003 0 0 0
237 1 10.216847088045832 25.348235980177584 -0.12102688309914233 0 0 0
493 1 10.424814368774111 25.22769760040339 3.1721875267724324 0 0 0
235 1 8.779949655852377 25.747709234258203 1.3381974336658946 0 0 0
490 1 8.8151648089786 27.476963843586866 3.102018267214728 0 0 0
240 1 10.629270815757717 27.268386695764896 1.4308264669855095 0 0 0
234 1 8.461965754697166 27.37401691791522 -0.4702548020036659 0 0 0
242 1 16.037507416894208 26.907276732701703 -0.17451998546830827 0 0 0
241 1 14.042244285486936 25.128741255522264 -0.13979535228478168 0 0 0
494 1 12.119018054812981 27.020983508760864 3.371492586026338 0 0 0
239 1 12.228124192042563 25.313941832908156 1.5257444186939293 0 0 0
497 1 13.850984748265693 25.277066680348078 3.5701931736385015 0 0 0
244 1 13.7715823814492 27.21432202573778 1.5905427689676856 0 0 0
498 1 15.565845737441263 27.242415022059554 3.4377404236111038 0 0 0
243 1 15.882599981141722 25.44361570722951 1.8599417104654785 0 0 0
238 1 12.307860772104346 27.56219065549604 -0.45431970230355156 0 0 0
17 1 14.156631468922685 28.790204603127574 -0.30291127791176486 0 -1 0
23 1 19.317817831388616 28.58039475363013 1.7199163792147996 0 -1 0
245 1 17.619536085770235 25.376776159417446 -0.24474228998606068 0 0 0
247 1 19.60630777851255 25.544908134526672 1.5060992012766543 0 0 0
501 1 17.77179032692802 25.180052281624263 3.3140163030876417 0 0 0
248 1 17.149473011445373 27.53892186233658 1.642796619398481 0 0 0
502 1 19.81963520042771 26.755427445455155 3.5922453114390924 0 0 0
246 1 19.27234978447523 27.070440147634216 -0.3654342544162072 0 0 0
281 1 21.400002542463156 28.7042973111725 3.4026512651160186 0 -1 0
505 1 21.72680599238148 25.16477484557022 3.352756624485735 0 0 0
251 1 23.23021179151204 25.186434283930254 1.4533527617715327 0 0 0
252 1 21.29030369482681 27.093860038006994 1.8120516539982883 0 0 0
506 1 23.179894349776646 26.927950748412186 3.69046332870262 0 0 0
25 1 21.343126752138147 28.459324388291456 -0.38696180594381696 0 -1 0
249 1 21.139690823130593 25.554979871214087 -0.18167512600884916 0 0 0
250 1 23.27370017966151 26.75107749503463 -0.4620971599109751 0 0 0
225 1 28.190899580142357 25.44177020741043 -0.3749463619068718 -1 0 0
285 1 24.921377870724108 28.769873315530553 3.4390268755308746 0 -1 0
256 1 24.888577079849597 27.079560033855934 1.3617672818575914 0 0 0
509 1 25.182821181887924 25.249461607490275 3.4228496684633907 0 0 0
255 1 26.75340379140166 24.97987000134357 1.4868532988493692 0 0 0
510 1 27.078988668171725 26.868529638770454 2.903937372182255 0 0 0
254 1 26.695351271003645 27.088014233905717 -0.3598625017842294 0 0 0
264 1 3.224319091826739 1.6928209780054595 5.064977855921407 0 0 0
514 1 1.360147600026153 1.6114083604239138 6.631596246188517 0 0 0
547 1 1.4009133788859514 3.547115509096204 8.484918074872676 0 0 0
520 1 2.944953737892369 1.162417578309717 8.373516681120636 0 0 0
291 1 1.3318825651049724 3.551376688384458 4.804754778955224 0 0 0
549 1 3.2633531358730075 3.5612438385602045 6.896825715379693 0 0 0
517 1 3.225003668522405 -0.2458458829855747 6.506429763648594 0 0 0
516 1 0.2548269697930283 1.3543908343630782 8.34444502604704 0 0 0
545 1 -0.371507688038335 3.391638119173531 6.312377283641126 0 0 0
260 1 -0.4223606568485323 1.2540370077403178 5.304309489979223 0 0 0
268 1 6.732242099594993 1.3691761854896574 4.761948468117473 0 0 0
518 1 5.106245626975724 1.5231157704131864 6.635607841259241 0 0 0
524 1 6.7708073966000235 1.2490868594797895 8.531144419369658 0 0 0
551 1 5.30223236133882 3.2744009038905033 8.081368944278813 0 0 0
553 1 6.900543369184841 3.065041263479827 6.527845335924178 0 0 0
295 1 4.954518056964724 3.393854604061793 4.958981992196044 0 0 0
521 1 6.533680710168537 -0.4709359404595947 6.8258688017614535 0 0 0
519 1 4.9426961577444395 -0.11006263833763907 8.500797746196179 0 0 0
263 1 5.0145222979807755 -0.427351407306969 4.872392933953944 0 0 0
299 1 8.621698064667974 3.1567717280970697 4.9752032989652175 0 0 0
272 1 10.734262612065832 1.3059942651182341 5.29132408946747 0 0 0
522 1 8.811163166260886 1.3287360892904214 6.6424817517914505 0 0 0
555 1 8.275123780007801 3.4059713191322496 8.547914705616112 0 0 0
528 1 10.202121247209577 1.5437739559709254 8.692129250333931 0 0 0
557 1 10.610444031445994 3.257161491742411 6.567491618486349 0 0 0
525 1 10.655494628405723 -0.22225848530694248 6.826063004096334 0 0 0
559 1 12.040657225897512 3.2367541490633602 9.069714042259708 0 0 0
303 1 12.318463142957045 3.3521129520623765 4.728333945852657 0 0 0
526 1 12.440529093413367 1.379272572656863 7.076704415724061 0 0 0
276 1 13.489379531974011 1.3712114757273117 5.189140715938128 0 0 0
561 1 13.94359680126129 2.9892905026249363 7.385720274773088 0 0 0
307 1 15.440706675493656 3.273990051020278 5.614658321226778 0 0 0
532 1 14.050511433572384 1.3722702548107484 8.949496549344707 0 0 0
563 1 15.900031553568907 3.0181298970641177 8.901029698861585 0 0 0
530 1 15.792937691126935 1.297447368847903 6.999722202977054 0 0 0
529 1 13.963188958575438 -0.30284353327804203 7.040372960963303 0 0 0
280 1 17.54001912559643 1.0582768849566448 5.793774527000414 0 0 0
536 1 17.801145290540973 1.8697948869476426 8.814441863672013 0 0 0
534 1 19.658270105902275 1.2851528830679408 7.344441017465013 0 0 0
311 1 19.593652852420874 3.009031345110381 5.443762312813027 0 0 0
565 1 17.466003795581813 3.120823596284419 6.602080074686531 0 0 0
567 1 19.311124601282046 3.649692154376564 9.19101130840526 0 0 0
535 1 18.962458453976083 -0.25097449446003317 8.877090712716665 0 0 0
284 1 21.397116798325925 1.1311586198085766 5.384437434491882 0 0 0
315 1 23.755379649315742 3.2059333449403753 4.912591754890628 0 0 0
538 1 23.399959908992415 1.427482814299249 6.591754294138646 0 0 0
540 1 21.440020655327814 1.5100963455198555 8.57289264799625 0 0 0
571 1 23.382248035155754 3.068608597311498 8.374622420016582 0 0 0
569 1 21.516052862750733 3.1601347867450658 6.685010300056264 0 0 0
539 1 23.48164545784708 -0.057331460317470384 8.783585773854075 0 0 0
283 1 23.544923126608168 -0.410450620401285 5.585774238490565 0 0 0
573 1 25.20519340477089 2.8110519304862596 6.744508130132788 0 0 0
288 1 25.620530445478394 1.0696380578597648 5.389158521018093 0 0 0
542 1 27.128581955383694 0.7537554133935866 6.817674397533554 0 0 0
319 1 26.830324476777974 3.503918137600244 4.790010279204486 0 0 0
544 1 25.376867587171624 1.6030631017351755 8.586125870665596 0 0 0
543 1 27.054782652719823 -0.3342365237550595 8.813762873613214 0 0 0
575 1 27.25194661924578 2.882484200339679 8.250344675175024 0 0 0
323 1 1.5122425747584143 6.972355550338137 5.027599882488533 0 0 0
546 1 1.2627090898019644 5.132905700586265 6.654386573227836 0 0 0
296 1 3.4908597784534883 4.961289988953859 4.988492657980587 0 0 0
581 1 3.402889925546063 7.078119909140729 6.716651549227848 0 0 0
552 1 3.518815949032878 5.12606220561988 8.761002373187692 0 0 0
579 1 1.6687953710860737 6.754655112639749 8.484875586502335 0 0 0
577 1 -0.4453361865627201 6.733539675231484 7.112865810452447 0 0 0
300 1 7.067185761210584 5.043844910445952 5.052274591617812 0 0 0
327 1 5.049590366725339 6.955271232116087 4.9567277523736015 0 0 0
550 1 4.990863967937982 5.129558723933233 6.860960031101668 0 0 0
585 1 6.763941351064335 6.758035886647357 6.832040942543915 0 0 0
556 1 6.820157910224253 5.569801303400449 8.828515510522305 0 0 0
583 1 5.137225782214503 7.152648105988223 8.747526627442909 0 0 0
331 1 8.537708092363165 6.869558093654081 4.947285353166155 0 0 0
554 1 8.457392906259551 4.82685857958735 6.787231909798431 0 0 0
589 1 10.647932583180781 6.662689247662428 6.848288508942387 0 0 0
560 1 10.257081939104598 5.100000991849916 8.646384024719499 0 0 0
587 1 8.23541334672732 7.208047681132149 8.568329254824532 0 0 0
335 1 11.962791282425002 6.246340848357056 4.817664030455495 0 0 0
558 1 12.249248763603704 5.042086595516799 6.912945652858613 0 0 0
591 1 12.1781715335175 6.944566288002499 8.867273653405631 0 0 0
308 1 14.015528502005944 4.925756253978552 4.772135477707562 0 0 0
593 1 13.795187984304931 6.653826415066657 6.82707734903054 0 0 0
339 1 15.947998305541832 7.086466980656236 5.114959208845192 0 0 0
564 1 14.008548321626122 5.117042273760242 9.009817992838032 0 0 0
562 1 15.732716305762091 5.077505479000046 7.064275731501074 0 0 0
595 1 15.91462119803318 6.899801858381718 8.802188234800965 0 0 0
312 1 17.75285579275569 5.0774502238983015 5.2465579391957275 0 0 0
343 1 19.60808694889225 6.758541830543798 4.824739741141362 0 0 0
566 1 19.646450357812228 4.932119699207322 6.5385799397093605 0 0 0
597 1 17.730440850820685 6.963908484551572 6.7285674258146395 0 0 0
568 1 17.7373166970548 5.193852418483629 8.052400459485531 0 0 0
599 1 19.603402588466402 6.647947118050118 8.224923696074589 0 0 0
316 1 21.256244399588518 5.083115237694834 4.910105903997389 0 0 0
347 1 23.25314977428259 6.623125097965463 4.657547528036194 0 0 0
601 1 21.522818260211878 7.090903113752232 6.788218798520533 0 0 0
570 1 22.861892314421034 4.9033302557081635 6.539356162138123 0 0 0
572 1 21.53904229455521 5.00874550460776 8.650093942878085 0 0 0
603 1 23.400416777887344 6.764128734182643 8.335502891904564 0 0 0
548 1 28.747923629334803 4.483619246670888 8.420285021860778 -1 0 0
292 1 28.71650450469361 5.532512116704112 5.043239932251316 -1 0 0
576 1 25.062719357845864 4.941025213501468 8.529845237520634 0 0 0
605 1 25.453649109003912 7.0485207308981925 6.667908619525966 0 0 0
320 1 25.123420674122812 4.9747106778774555 5.29613102964166 0 0 0
351 1 26.897658613618034 7.111023501640781 4.85371304818561 0 0 0
574 1 26.749679058955692 5.007057106085517 6.789878184968194 0 0 0
607 1 26.974400242162723 6.6989727987763334 8.725122782320335 0 0 0
355 1 1.4567125766163689 10.95615431602025 4.707905044426235 0 0 0
578 1 1.2029353585880573 9.038874404554317 6.129209981343069 0 0 0
611 1 1.0209119034508745 11.100653397982885 8.763990093489141 0 0 0