LAMMPS data file via write_data, version 29 Oct 2020, timestep = 300000

2048 atoms
1 atom types

-0.003223352972689497 28.355223352974406 xlo xhi
-0.003223352972689497 28.355223352974406 ylo yhi
-0.003223352972689497 28.355223352974406 zlo zhi

Masses

1 58.933

Atoms # atomic

258 1 1.5192271826142483 1.6465421366801323 3.9377563277228704 0 0 0
8 1 3.529174931395065 1.5254744077120008 1.4303586707185523 0 0 0
293 1 3.5896747491443732 3.475846159276859 3.3246563402892155 0 0 0
35 1 1.7759700067572346 3.085080221986179 1.851876232458267 0 0 0
261 1 3.5441574432247758 0.21881079334197487 2.9946714040401554 0 0 0
3 1 1.4793637236551798 0.05975173964261771 2.0329008649868436 0 0 0
229 1 3.4513268980531433 24.84480761472145 0.21193777623927623 0 0 0
262 1 5.317488889110939 1.6444940752467698 3.948799321237934 0 0 0
10 1 7.232650341646977 2.063813293093082 2.020133274123885 0 0 0
297 1 7.1770791261949105 3.3128469215174787 3.8706653680065752 0 0 0
39 1 5.571295561521743 3.5406486091715577 1.6087128439772367 0 0 0
7 1 5.31891372595742 28.342784662077037 1.2933956912374265 0 -1 0
265 1 6.587081378865481 28.089968200603963 3.3973897474277908 0 -1 0
1802 1 8.667103120131596 3.578588918227663 1.8240096846374625 0 0 1
266 1 8.339225519536033 1.2896955436561883 3.837223107513416 0 0 0
16 1 10.307154774137747 1.2498039976771502 2.121926323043878 0 0 0
301 1 10.486095337891507 3.401048669683715 3.4190704956504154 0 0 0
15 1 12.46100616533106 0.01303831978800929 1.7752699211954204 0 0 0
12 1 8.716210711608726 27.89148283923445 2.0402066432456127 0 -1 0
47 1 12.307435676601072 3.5047015446794574 1.7342631912977458 0 0 0
270 1 11.93015691130109 1.5835010405541152 3.154393764813291 0 0 0
20 1 14.47064108362885 1.656812646049466 1.7743907317444663 0 0 0
305 1 13.975918075728995 3.4543034758618423 3.5468459643309256 0 0 0
273 1 14.091777019289443 0.08110857394850693 3.3947920601474357 0 0 0
274 1 16.18217779529972 2.014997304375464 3.6228284707900924 0 0 0
51 1 15.823445717707646 3.7548337309199273 1.9505471809931152 0 0 0
101 1 1.6023346674744359 8.848582093056038 0.05713182628887944 0 0 0
24 1 17.769225032406077 1.887875392900735 1.120008308780085 0 0 0
278 1 19.21130626422344 1.812665513671489 3.1020453042436515 0 0 0
55 1 19.485603059025415 3.6779180351680756 1.7445030520745322 0 0 0
309 1 17.980178911189743 3.642777181195781 3.727123715593827 0 0 0
277 1 19.14228897039302 28.262700558828133 1.4711409142179797 0 -1 0
279 1 17.605898996849923 0.0586575630803002 3.2977009627463367 0 0 0
28 1 21.701998438728506 1.8057907523669459 1.9696721285691268 0 0 0
282 1 23.28162398699612 1.9476150074909453 3.506382836884883 0 0 0
313 1 21.29576327295911 3.927390093937499 2.8931287299159347 0 0 0
59 1 23.079504450068946 3.8364603322518622 1.6662825351374029 0 0 0
281 1 21.33000572746773 0.10304113935418618 3.522227852323547 0 0 0
257 1 27.96405692006048 28.14797453987467 3.5606854402236747 -1 -1 0
289 1 28.12562635479037 3.2689909855267247 3.6169290491773687 -1 0 0
4 1 28.111326546211377 1.9920553402596162 1.5047528600723445 -1 0 0
317 1 24.874799725273213 3.818515907870966 3.3394848781884594 0 0 0
32 1 24.720617861444705 2.129592998665277 1.4975249183119608 0 0 0
286 1 26.16572826881645 1.4205915431500677 3.0445535545084965 0 0 0
63 1 26.735209102502814 3.8144182604813412 1.5530214306262387 0 0 0
285 1 25.06834097681663 28.004285400859168 3.32854873486927 0 -1 0
31 1 26.79294904125872 27.760395841606254 1.5402372086969134 0 -1 0
67 1 1.6363099001266752 7.207046846556252 1.6552865657266174 0 0 0
290 1 2.149901097057191 5.393233232623943 3.4973252753622797 0 0 0
40 1 3.6970065628315325 5.416729650141492 1.7012799886117842 0 0 0
325 1 3.4962419117107957 7.208433920163427 3.2807964157849403 0 0 0
44 1 6.928851374104625 5.1282849989002095 2.1711542637482046 0 0 0
71 1 5.440144493897793 7.01268755976394 1.8333008053867035 0 0 0
294 1 5.284858311508453 5.643084463813779 3.517541433757118 0 0 0
329 1 7.256006254225623 6.888288331697757 3.5658529334902034 0 0 0
1021 1 24.357182460128936 24.804208595033995 10.64347944164634 0 0 0
48 1 10.686097271108949 5.311896630546798 1.6313549067686683 0 0 0
75 1 9.13851994704734 7.10360487620497 1.9149317300814095 0 0 0
298 1 8.910007199570854 5.179873536527345 3.4149962465463792 0 0 0
333 1 10.476987282129995 7.0909385677413335 3.715093349921801 0 0 0
70 1 5.1899380246497495 9.020945580229924 0.39551144803603305 0 0 0
797 1 24.89604155475413 0.39037449487910125 11.07418787113227 0 0 0
46 1 12.028970267454266 7.186160539955451 1.7586382860063254 0 0 0
302 1 12.36796221883903 5.51930406207563 4.2265494098695795 0 0 0
52 1 14.156583773047117 4.9363528109734975 2.0052356458907252 0 0 0
337 1 13.655592345397475 7.602589871883685 3.586190486047806 0 0 0
83 1 15.331125795528438 7.072855717802157 1.2562285698047713 0 0 0
306 1 15.806824276048866 6.150435650872696 3.371943316731143 0 0 0
56 1 17.370237995830664 5.679643462113008 1.8378153317447414 0 0 0
338 1 18.086687756464517 7.48211671961759 3.5015531294817737 0 0 0
310 1 19.649545777858457 5.556017450109503 3.2248406597688644 0 0 0
87 1 19.74282630786191 7.418018876653204 1.7537252367826819 0 0 0
1277 1 26.16721163325936 24.656821695792928 12.193041273220492 0 0 0
1053 1 24.414982479057574 26.546235765958055 12.398896670107172 0 -1 0
60 1 21.14158770812415 5.624675292593056 1.658855151015 0 0 0
91 1 23.013517141948203 7.457800287767419 1.3377911898600348 0 0 0
314 1 22.98235402366992 5.746081961429846 3.1298810761587186 0 0 0
345 1 20.928416032941588 7.285581915960792 3.5265296668731367 0 0 0
321 1 28.332395521217574 7.361865362811669 3.7464369505271145 -1 0 0
36 1 0.31815355298831577 5.4145185393851065 1.9742742778722848 0 0 0
95 1 24.847350988185653 6.906505260117042 3.068420862118523 0 0 0
349 1 26.903973071574384 5.265304616878238 3.441580265398727 0 0 0
64 1 24.83521580244786 5.321007403086567 1.6060888705764982 0 0 0
65 1 26.66075782947774 7.303460825554948 2.0633618674289416 -1 0 0
1024 1 25.80996583327702 26.628629753476332 10.688931930521026 0 0 0
322 1 1.8753703499723835 9.004536031407655 3.7142096801226323 0 0 0
99 1 1.5838615548014212 10.64935082499194 1.9520381057974356 0 0 0
72 1 3.587213200267271 8.977038946528541 1.7109026603039628 0 0 0
357 1 3.432659781739002 10.841311728638631 3.822235209357137 0 0 0
353 1 0.061855318999315775 10.806428537780036 3.5164385545722907 0 0 0
1105 1 14.132498456949715 7.204722132977684 13.504893878727122 0 0 0
76 1 7.163269135749851 8.782428434334113 2.0249442870584846 0 0 0
326 1 5.396383699687098 8.60585258340508 3.349000497285182 0 0 0
103 1 5.380430717817764 10.56886116690787 2.0605471790594394 0 0 0
361 1 7.193032125679629 10.93222344125776 3.0284077346940257 0 0 0
1023 1 28.296775736953286 26.237202804452252 12.468336505979988 0 0 0
80 1 10.729613443084743 9.034782313408186 1.5860252062595706 0 0 0
330 1 8.862252867205337 8.829023907145238 3.5505194197832624 0 0 0
107 1 8.706686601768087 10.827301219088856 1.6720479950800808 0 0 0
365 1 10.821941134217193 10.578531143558456 3.5074669503299347 0 0 0
158 1 26.4794880252046 16.03597363585435 0.44915575416606657 0 0 0
111 1 12.460991996846081 10.679799244940652 1.3012097905745728 0 0 0
334 1 12.49789184337784 9.329637601056563 3.137732592654984 0 0 0
79 1 14.09822333038748 8.818265871492319 1.641631029790512 0 0 0
401 1 14.306863233668437 10.901128357773958 3.430432340298158 0 0 0
84 1 15.921229955759442 8.423748463001964 3.069942236970387 0 0 0
115 1 15.970366094504765 10.525497016836502 1.6696621846696529 0 0 0
1828 1 26.60374919028643 5.728412958805996 0.2809403138672333 -1 0 1
1249 1 28.218021170524427 24.680888990475818 13.966914757580302 -1 0 0
88 1 17.634762424941055 8.81610932619355 1.8642943228390492 0 0 0
373 1 17.438995402097415 10.490816767566585 3.4818566529346926 0 0 0
119 1 19.0881162964254 10.380711285065644 1.5562719589318397 0 0 0
342 1 19.637850252673058 8.992983306383055 3.7449267092525376 0 0 0
1899 1 6.858321042463491 10.301142330848776 0.36746585444538343 0 0 1
799 1 26.697640174550784 28.077604597044136 12.784190346805808 0 -1 0
92 1 21.296646118612074 9.07166545144578 1.9189931147824273 0 0 0
346 1 23.131903885430773 9.280120093246142 3.218522631967184 0 0 0
123 1 23.314328444273354 10.975643289527067 1.3397685020177217 0 0 0
377 1 21.157963757254873 10.522595942478866 3.2999934142949763 0 0 0
66 1 28.150368561531486 9.199524377790583 1.88295097293198 -1 0 0
96 1 24.693525342908252 9.09190719156459 1.5386633893581918 0 0 0
381 1 24.926609056723652 10.48344973544358 3.2613926723533333 0 0 0
127 1 26.50734681539404 8.989964006365764 3.6954647627644492 0 0 0
94 1 26.596876675875986 10.730700747350687 1.6771187848519415 0 0 0
1109 1 17.67386216824891 6.794746466759992 13.986314577812333 0 0 0
100 1 0.13374428841609642 12.710495551491897 2.0953267100039428 0 0 0
354 1 1.5994400129354187 12.615123869157555 3.8823520927081954 0 0 0
104 1 3.413090176316706 12.452934652838373 1.8886638358809902 0 0 0
131 1 1.6562164242323767 14.819219634539444 1.4969210187776132 0 0 0
389 1 3.469755211447706 14.109777066945995 3.234956343291172 0 0 0
136 1 3.384310425290938 16.324751418287697 1.47398566099221 0 0 0
386 1 1.6508397888240371 16.287433178868515 3.5125168748028335 0 0 0
385 1 0.12918341123301783 14.55588336265707 3.2179754247333805 0 0 0
206 1 12.586396756019193 22.92486796910062 0.06573974257833955 0 0 0
41 1 7.314871603561497 3.2497071729202363 0.060198839148140795 0 0 0
358 1 5.306268112802372 12.778871408931087 2.9552208826228132 0 0 0
108 1 7.238563966954982 12.810020983696342 1.5089782922786332 0 0 0
135 1 5.255261482545229 14.126180948591475 1.2069850030793263 0 0 0
393 1 7.301262114974549 14.329865380621918 3.2913012905962318 0 0 0
140 1 6.897674872915751 16.06220330323007 1.5337724933505967 0 0 0
390 1 5.783804850979405 16.19271850238942 3.512717843392462 0 0 0
74 1 9.04300741772649 8.72416575112809 0.13020517072528182 0 0 0
362 1 8.871561913106786 12.495244062728995 3.494237237758447 0 0 0
112 1 10.658767852712703 12.385579399264849 1.8759867727295034 0 0 0
139 1 9.23309086105126 14.362168306377399 1.701483893331213 0 0 0
397 1 10.535474016725084 14.450088223324244 3.6178961873875086 0 0 0
394 1 8.73506897633816 16.18187523620961 3.464121004054896 0 0 0
144 1 10.802912675837812 16.154554824954154 1.6497235123919332 0 0 0
1229 1 10.558405154765223 21.502728906863567 14.147640694841158 0 0 0
133 1 3.3449497162185033 14.032161965613351 0.013142420138646194 0 0 0
61 1 24.71150312999447 3.8727916536321723 0.0188159816986409 0 0 0
366 1 12.450889181502957 12.167312265983133 3.3745330797494386 0 0 0
369 1 16.277730428903944 12.394899823293033 3.5358236415126916 0 0 0
116 1 14.304801642104618 12.475942813282543 1.6332456526719066 0 0 0
143 1 12.182718181151083 14.335527958220894 1.70132815332618 0 0 0
370 1 14.339702000816192 14.149835545803343 3.442169322233791 0 0 0
147 1 15.992148365871504 14.302667384584998 1.7644731658077615 0 0 0
398 1 12.720709103419725 16.08763185159935 3.7010107850377088 0 0 0
402 1 16.457640347447324 15.90379462087732 3.350737219547155 0 0 0
205 1 10.776427014868272 21.398604143892275 0.2585664725408751 0 0 0
97 1 0.2304628775268771 10.621359338397294 0.045301538232717736 0 0 0
38 1 5.452897825723718 5.346688390609252 0.2272689691354204 0 0 0
374 1 19.40281526669484 11.742625659044196 3.515428673192581 0 0 0
120 1 17.850121162200512 12.269783006026593 1.6680255467259792 0 0 0
405 1 18.320749128594063 13.84557931391489 3.408808275720437 0 0 0
406 1 19.85080149699453 13.653783902733304 1.4400575956362927 0 0 0
151 1 19.19043449566569 16.129277210073848 3.567520053141476 0 0 0
152 1 17.862046329019357 15.791264202345385 1.5119258424094502 0 0 0
1022 1 28.13454233976161 24.231177832174748 10.933707534646118 0 0 0
58 1 22.871361559316036 5.570393054990344 0.12960412205219024 0 0 0
378 1 23.10290554068061 12.083540392320682 3.4373760903303476 0 0 0
124 1 21.187447851944523 11.85140140358985 1.5611997791284369 0 0 0
155 1 22.717584666600935 14.056705808177641 2.06239714610307 0 0 0
156 1 20.8636152110252 14.341443285078542 3.428315066052067 0 0 0
413 1 22.758735212451782 16.146193679058378 3.573432920985031 0 0 0
128 1 24.916022725653434 12.537747213646952 1.9060011392036653 0 0 0
150 1 20.988752665041925 16.065968128178707 2.106605962388383 0 0 0
132 1 28.34082518156649 16.40200877100177 1.8620672198208632 -1 0 0
409 1 24.706911018028304 14.314545110793457 3.692649598270179 0 0 0
382 1 26.897765282417105 12.576468187267576 3.6122975978555663 0 0 0
159 1 26.494849563322557 14.291276034628634 2.0087293941718896 0 0 0
160 1 24.91546691894548 16.030790123296647 2.2883733136822264 0 0 0
414 1 26.634835176478468 16.024993965428088 3.783795336901896 0 0 0
129 1 28.30312430033177 14.563692331834169 0.1347632495298809 -1 0 0
23 1 19.7023508445317 1.7793660607489654 0.2928946685848754 0 0 0
26 1 22.803045671997666 1.6550428303322637 0.2742430051710602 0 0 0
163 1 1.9935383768596315 18.057701230276425 1.428160719627417 0 0 0
418 1 2.1192648530685956 19.921273912135206 3.2704828214858632 0 0 0
421 1 3.461608198695045 17.983222404932537 3.4874017025713706 0 0 0
417 1 0.2188040930386368 18.147680296376123 3.5320599377722837 0 0 0
164 1 0.033424705333381155 19.679213199091592 1.7071528153560798 0 0 0
68 1 26.70523642475118 8.847867856207253 0.11094036165843606 -1 0 0
34 1 1.889102377048885 5.402034312303853 0.005266450513624999 0 0 0
168 1 3.7283457579636203 19.583518604691626 1.978390727549323 0 0 0
167 1 5.72569348661447 18.19532828713654 2.287224624866138 0 0 0
425 1 7.320420720421957 17.924494855104 3.8242971917861266 0 0 0
172 1 7.343082700080746 20.030000312301322 1.9098002158642826 0 0 0
422 1 5.4151539943433455 20.090036044165288 3.5028919561237024 0 0 0
189 1 24.680664518179267 17.768937116191424 0.006061745116772229 0 0 0
1840 1 12.182296260380324 5.446909282053902 0.09213189484797768 0 0 1
426 1 9.38256429239475 19.76569202757267 3.641683568714442 0 0 0
171 1 8.590542736701499 18.34706484196773 1.9209791207197027 0 0 0
429 1 10.915735149298792 18.00489450348282 3.3552768678811273 0 0 0
176 1 11.013454953991884 19.762285254302018 1.9047194855020142 0 0 0
430 1 12.5948151944726 19.734754705706152 3.6210002611190473 0 0 0
148 1 14.192928962626434 15.824609281447895 1.8170374453330906 0 0 0
175 1 12.86166578529677 17.592884326988212 2.001700540776656 0 0 0
180 1 13.793454925536091 19.829282665558335 1.5115554229479784 0 0 0
433 1 14.497231138137616 17.71820284862838 3.7529236112808815 0 0 0
179 1 15.628122278803161 17.66617219613755 1.6200400302173434 0 0 0
1019 1 22.681134524663744 24.70939610551999 12.658125996355613 0 0 0
1082 1 22.85834744492125 5.254005637238365 13.830314092263036 0 0 0
154 1 23.097847463792775 15.810669026046686 0.40322406786989806 0 0 0
434 1 15.63113227911575 19.715462059246246 3.1848926082458187 0 0 0
437 1 17.496954747798693 18.226866933362526 3.2956283514138707 0 0 0
184 1 17.711553064123272 19.66609292875896 1.495739085852501 0 0 0
438 1 19.156931680393154 19.494546116069433 4.05757441667969 0 0 0
412 1 19.3580554696801 17.702745848923477 1.757273924218262 0 0 0
2020 1 1.629598743534193 26.726002860940557 0.4442510464084227 0 0 1
183 1 20.91195287914728 19.204279636951174 1.94320559101277 0 0 0
187 1 22.553642789671233 17.870250890480648 1.5303080011338317 0 0 0
441 1 20.745580926560635 17.649148116907277 3.901258223355785 0 0 0
442 1 22.638248442807594 19.55975740530069 3.38974134034079 0 0 0
98 1 1.2974671369147621 12.796968410624277 0.1730086985329218 0 0 0
445 1 24.451170653461983 17.895632025612308 3.390201769451221 0 0 0
192 1 24.46375418331558 19.618673277920276 1.9007408867531927 0 0 0
191 1 26.559987554232535 18.074943063725268 1.9083767431198437 0 0 0
446 1 26.656623229099537 19.283878763810073 3.590900185348977 0 0 0
1045 1 17.754643323405126 0.47166994448460947 14.090705131396847 0 0 0
1074 1 15.72223277664907 5.113455659019102 14.076671584289663 0 0 0
1017 1 21.588564295610716 24.78023234650532 10.613640003559592 0 0 0
195 1 1.895413738156162 21.34706869278195 1.624772144317071 0 0 0
456 1 1.3483521403302559 22.743761989424947 3.2984289044594055 0 0 0
200 1 3.401463113087713 23.245037034126327 2.3201953667819875 0 0 0
453 1 3.6980851695772152 21.495771214995067 3.840215670325833 0 0 0
449 1 28.191694906901144 21.079979446721314 3.5479060650509138 -1 0 0
1020 1 21.35829602036823 26.576169362120247 12.380806766897159 0 0 0
1042 1 15.797978788037636 1.9149785450053767 14.132927098769 0 0 0
57 1 21.280603279929615 3.4238071513469097 0.1750230692970537 0 0 0
199 1 5.127170175476606 21.80881411832976 2.1225591382272877 0 0 0
204 1 6.883491035283951 22.63831894787422 1.5754425808887098 0 0 0
454 1 5.510919319135931 22.99347867324898 4.127274691152712 0 0 0
457 1 7.493208930416968 21.25132100451435 4.00420060908882 0 0 0
203 1 9.235525918260006 21.397659863525433 2.0258021272201554 0 0 0
458 1 9.053719474699854 23.222414967953622 4.053297022864212 0 0 0
208 1 10.816783792773771 23.160693781124696 2.1713980850716212 0 0 0
461 1 11.012664381827182 21.44757902362831 3.8099313219594384 0 0 0
237 1 10.535920195954287 24.599335722387114 0.20062050003053913 0 0 0
1134 1 12.434664243535197 12.384019548869814 14.102764047489323 0 0 0
233 1 6.9721941450082845 24.721254927905154 0.003180833589932411 0 0 0
462 1 12.855368270486156 23.555526847686146 3.8932847033314033 0 0 0
207 1 12.215855587769461 21.51794633172443 1.9785926023761948 0 0 0
212 1 14.491865544727013 23.13445631671927 1.6113343465532395 0 0 0
465 1 14.117722259052291 21.63299944565706 3.5013265339781747 0 0 0
211 1 15.965985851068915 21.301523416797497 1.5130069851032812 0 0 0
466 1 16.234871551431688 22.84786381321896 3.7362239068867154 0 0 0
1162 1 8.64224345505397 15.638065689922401 13.800354090397004 0 0 0
216 1 17.737430647762388 22.758990046340433 1.7161395683381393 0 0 0
469 1 17.507764324905672 21.040626579016866 3.405982952075592 0 0 0
470 1 18.910139802309203 22.807361183806503 3.6378739966990867 0 0 0
215 1 19.57554897601609 21.04445602958245 1.6301252835125466 0 0 0
1125 1 3.226617482103633 10.778998542642535 13.95387990085286 0 0 0
1257 1 6.788139786826018 24.507521092987755 14.031712183111807 0 0 0
1114 1 23.06730910527287 9.13614776316256 14.015754265682656 0 0 0
220 1 20.753263493497407 22.93605980478763 1.9698970063905068 0 0 0
219 1 22.488512219518462 21.008214559062257 1.5078072124800297 0 0 0
473 1 20.557504588922484 21.149890777081048 3.698238983107233 0 0 0
474 1 22.58863299568587 23.174416564535232 3.4284211488841816 0 0 0
1206 1 19.454978406768642 19.632865346517193 14.106134644880907 0 0 0
1018 1 22.905492390708815 26.81842181472418 10.461741131112577 0 0 0
196 1 28.28753952883629 23.196679659475674 1.700499678730146 -1 0 0
1126 1 5.015717356655034 12.26189496506747 13.950145174658026 0 0 0
475 1 24.680373811557665 21.434002193470555 3.4001191237998687 0 0 0
224 1 24.575562530383927 23.000651621258182 1.8242297174349693 0 0 0
223 1 26.254951744400422 21.08781940681585 1.6972276400391582 0 0 0
478 1 26.116687085323964 23.26908807756297 3.373800506396161 0 0 0
185 1 21.38277390888991 17.265337103504752 0.020175444195569388 0 0 0
227 1 1.5376558478615079 24.52918043273771 1.7618705180458227 0 0 0
482 1 1.5379922725755224 26.94313788423114 3.9901762696137113 0 0 0
226 1 3.3614644648005925 26.210189212035505 2.170468270773313 0 0 0
485 1 3.234692599830525 24.870757053989017 4.201608427852109 0 0 0
228 1 0.02519049379184998 26.318032181544357 2.295939412522529 0 0 0
450 1 27.976998994557754 24.443125466640378 3.690699612276204 -1 0 0
231 1 5.685948149072313 24.297782445667153 1.992798999645121 0 0 0
489 1 7.252341923710878 24.388951001508964 3.642968214112133 0 0 0
236 1 7.453913055236098 26.309076597266795 2.0510657003526456 0 0 0
486 1 5.237260428715693 26.378317857518358 3.2681194460825562 0 0 0
269 1 10.183252708586782 27.8643520337459 3.7826811852779216 0 -1 0
234 1 8.605357799745269 24.244529233881178 1.5984166315235324 0 0 0
490 1 8.972741479118719 25.964008519698506 3.6931592253209127 0 0 0
493 1 11.039739966713173 24.936777872279844 3.4431304704969024 0 0 0
240 1 10.815912308810244 26.659681632670278 1.6425002307781904 0 0 0
494 1 12.742616304448019 26.545743124347794 3.1477528477439223 0 0 0
19 1 16.171065104295508 0.3261177104624079 1.567605688268033 0 0 0
239 1 12.959159122313638 24.694864245815673 1.4569684982492388 0 0 0
497 1 14.60222419845846 25.0120140407212 3.1188274385072767 0 0 0
244 1 14.46098376056673 26.917100057326575 1.3581279956065115 0 0 0
243 1 16.56327894990027 24.425008718194004 1.7418744017320227 0 0 0
498 1 15.940467204435969 26.85968129718364 3.1917832695174475 0 0 0
793 1 21.13122890561407 28.29498224068198 10.322284234220442 0 -1 0
1093 1 3.5567406138376993 6.858210364744871 13.860480410592842 0 0 0
247 1 19.06570081961244 24.891742527451335 1.9836916597753658 0 0 0
501 1 17.466008451979057 24.662590940680055 3.5969154928856817 0 0 0
248 1 17.824707897975504 26.57125533026213 1.6916823492626292 0 0 0
502 1 19.602644710499305 26.82318201385778 3.8669006415597895 0 0 0
45 1 10.433297464242877 3.0367523676311543 0.39306546053833813 0 0 0
27 1 23.211678204202812 28.31667296376222 1.9800832690573171 0 -1 0
251 1 22.716850972464606 24.716952885526858 1.7392559342882412 0 0 0
505 1 21.14403215353453 25.129245374512216 3.448324035901338 0 0 0
252 1 21.201637126021925 26.666943517602565 1.700531690423054 0 0 0
506 1 23.076100371812444 26.50643294391578 3.669186416773211 0 0 0
509 1 24.65221528946447 24.820648083044443 3.214045175975427 0 0 0
510 1 24.748092012475364 26.493856628879946 1.572285854007324 0 0 0
255 1 26.58320703477417 24.75783819277894 1.7354162672457238 0 0 0
481 1 26.689588614259584 26.234528278310677 3.5211548161326016 -1 0 0
181 1 17.637326157773916 17.55787465782125 0.04246410588178757 0 0 0
291 1 1.8472175488980143 3.91834504299563 5.183553175430932 0 0 0
514 1 1.853503219886828 2.0825485331727043 7.273886024107962 0 0 0
264 1 3.3738439172415036 2.0475391566693464 5.1410465136563275 0 0 0
520 1 3.2329186640318284 1.9854492401662773 9.223021281323165 0 0 0
260 1 28.18853582910158 1.2985640043124036 5.477278773176283 -1 0 0
549 1 3.316095445479894 3.7121273705846285 6.919677444831622 0 0 0
259 1 1.9451183200197226 0.12238337943720978 5.453518880714246 0 0 0
515 1 1.7688870602506686 0.24110485095606185 8.817330499290524 0 0 0
547 1 1.5485184478511462 3.6860174920932125 8.74252034413735 0 0 0
268 1 6.715608003296005 1.6725998748994033 5.8478905776045575 0 0 0
518 1 4.9989247904074015 2.0646353898123246 7.832966956368851 0 0 0
551 1 5.240772300052838 3.727400505021482 9.073092998433621 0 0 0
524 1 7.082484620297998 1.958693436489398 8.646963181763823 0 0 0
553 1 7.002579776325461 3.9386088151423326 7.3359874906347775 0 0 0
295 1 5.265084769098422 3.4731268509631574 5.390869584003052 0 0 0
263 1 4.081617765743047 27.794617524319943 4.852158959499647 0 -1 0
521 1 6.593511680442858 28.287377609221323 7.449992039719506 0 -1 0
519 1 4.632904015561517 28.230083708901823 8.925633668381273 0 -1 0
267 1 8.687025438820966 27.984149634663197 5.472966203635357 0 -1 0
272 1 10.361306287738989 1.5788087609377395 5.063866235598328 0 0 0
522 1 8.640821262849963 1.607084490765839 6.824258905391782 0 0 0
555 1 9.13048103916635 3.1875617096971087 8.858635908942407 0 0 0
528 1 10.760675263677994 1.4956938948017624 8.585245948308332 0 0 0
557 1 10.411243933099277 3.425039148683068 7.0227974924122725 0 0 0
299 1 8.857601582470433 3.3780903315131012 5.128135484224314 0 0 0
525 1 10.48798863838898 28.043368222283966 6.85006433269355 0 -1 0
523 1 9.192138152514145 28.20417034571641 8.957491664082102 0 -1 0
271 1 11.972016487306451 28.341894154109482 5.25513056991603 0 -1 0
303 1 12.051274478071871 3.494526275185921 4.964939562567287 0 0 0
526 1 12.233805251784073 1.4827282350907809 7.167549845443974 0 0 0
559 1 12.392970118422117 3.6272824417747165 8.256604765476506 0 0 0
276 1 13.750283990442046 2.0048985451143118 5.067504342556066 0 0 0
532 1 13.846723817288964 1.9208397025612063 8.558220183568306 0 0 0
561 1 14.039664213402952 3.7605268832928664 6.628944299530617 0 0 0
563 1 15.502388608128404 3.8187630199595155 8.569404216998652 0 0 0
530 1 15.78227779495216 2.1506358998814705 6.7214198630436615 0 0 0
307 1 15.751606523752615 3.9033928103373676 4.791117567547061 0 0 0
536 1 16.05396395070317 0.2867874674486817 8.603127477186648 0 0 0
529 1 14.382916919604018 0.2215560158756027 7.114465179256906 0 0 0
280 1 18.29838784241354 2.0485356389468357 5.1147730409266225 0 0 0
534 1 19.674589641333885 2.0512365337093286 7.1729709148691265 0 0 0
565 1 17.480262694552703 2.263176967611908 8.434646159383764 0 0 0
312 1 17.470254777528947 3.5869210955915682 6.5203899436549975 0 0 0
540 1 19.23951744747473 3.805191125641606 8.496824155152296 0 0 0
311 1 19.717790931431004 3.7595679794722696 5.120689488171735 0 0 0
535 1 19.50893029884714 0.148365833537445 8.388554612110546 0 0 0
531 1 17.3927466138086 0.6031854695587352 6.743635464459306 0 0 0
284 1 21.122185724604787 2.179070392303373 5.290653646746561 0 0 0
573 1 23.09625988587097 1.564585732572931 6.805772410120321 0 0 0
569 1 21.368368643067758 4.075466797410562 6.95464107005712 0 0 0
315 1 23.11593486161785 3.3796628541583233 5.21532656485936 0 0 0
538 1 21.434429402532572 2.0025014919272297 8.56489934845289 0 0 0
571 1 23.08365987155667 3.4358810918692417 8.903417330891708 0 0 0
537 1 21.273289206191187 28.077324744683164 6.954392841846098 0 -1 0
283 1 23.012571180978693 0.29459097139567264 5.152342072020688 0 0 0
516 1 0.18690848188591316 1.7277426060397485 8.996508955159518 0 0 0
544 1 24.88861571609964 1.9802743712564113 8.913122355026083 0 0 0
319 1 26.57112473996238 3.689143680868951 4.956567167074916 0 0 0
288 1 25.029569981673227 1.8389774521160236 5.193164087372674 0 0 0
542 1 26.807881127409928 1.7934826084393294 7.453348385309483 0 0 0
575 1 26.86093339201295 3.8342798229411015 8.561888035220383 0 0 0
320 1 24.734628730840843 3.6996401618413004 6.954611537454108 0 0 0
543 1 26.328646504965636 28.29845437773873 8.885050233555491 0 -1 0
541 1 24.946793543915977 28.186697455553617 6.933567507950485 0 -1 0
545 1 0.10371455614985337 3.8093897329386466 7.183894362010611 0 0 0
323 1 1.9614478904903474 7.057551181140906 5.041568770133416 0 0 0
546 1 1.9209651902902312 5.396095266985491 6.959722550971957 0 0 0
552 1 3.493621474796952 5.043260993441082 8.687524009908495 0 0 0
581 1 3.564532136569974 7.354579878468327 7.02811683822838 0 0 0
579 1 2.1287525315353966 7.340997487360121 9.462809739710853 0 0 0
296 1 3.7956255980429687 5.5309045958809095 5.40988549038409 0 0 0
292 1 0.14595381190612622 5.288609358737405 5.140049001844493 0 0 0
300 1 7.163464550254023 4.982516429263902 5.144159461288532 0 0 0
550 1 5.388315855887837 5.4066950919377765 7.279298600477193 0 0 0
585 1 7.122999485626773 6.839133673993596 7.091454050518213 0 0 0
583 1 4.709004406172818 6.793396365077581 9.007349435234884 0 0 0
327 1 5.428787352647156 7.099448999227763 5.310811272637411 0 0 0
556 1 6.769614570386845 5.4656335695007705 9.10841379711823 0 0 0
331 1 8.553530695893874 7.009262087339357 5.249674154221731 0 0 0
554 1 8.62403406742389 5.289667468984495 7.188352284581104 0 0 0
304 1 10.242986030724563 5.555896104954203 5.462026146481914 0 0 0
589 1 10.85840155707995 7.437927619761194 7.074190232833738 0 0 0
587 1 8.821316532069641 6.87334799173033 8.826268722248518 0 0 0
560 1 10.87065877532229 5.581196599023362 8.581251923818645 0 0 0
591 1 12.54822293854418 7.376356057262075 8.913271060777653 0 0 0
335 1 12.189929711296438 7.624400652467606 5.369822189447811 0 0 0
558 1 12.340153581577033 5.142188789207546 6.708862148547691 0 0 0
308 1 14.26039899100587 5.985731676839604 5.8603720042755825 0 0 0
593 1 13.942907193318623 7.811996677358811 6.906245305882361 0 0 0
564 1 14.158487408254123 5.457702557298512 8.164026681398715 0 0 0
562 1 16.265959277779867 5.65775995526679 6.750762556681726 0 0 0
339 1 15.662246927734113 7.870063976576566 5.024064610812691 0 0 0
595 1 16.054722475425248 7.5485469393070455 8.818097009282518 0 0 0
341 1 17.91623175397772 5.462312990059798 5.025495797481415 0 0 0
343 1 20.01239909343607 7.045231289704621 5.380545065550524 0 0 0
597 1 17.60576412779513 7.1113058033893015 6.825891982431419 0 0 0
568 1 17.389881269982247 5.4054270971918426 8.48176142763639 0 0 0
566 1 19.66834391346018 5.362582429832353 6.567899290184762 0 0 0
599 1 19.260970114468005 7.07847407469626 8.660865328526027 0 0 0
316 1 21.44337179140764 5.247586988852817 4.712744334961862 0 0 0
347 1 22.73484046478547 7.4601469998409575 5.077625295169189 0 0 0
570 1 22.97745307561275 5.526005704586405 6.792294397129151 0 0 0
601 1 21.102108578798806 7.353734210917728 7.1392100043538615 0 0 0
572 1 21.342353364228845 5.8562115827605785 8.720969031885494 0 0 0
603 1 23.00160189547638 7.011032499395472 8.99077893892091 0 0 0
577 1 0.43119247558788754 7.240993747697809 6.912379627528381 0 0 0
548 1 0.12453240810889454 5.62802358894143 8.537752774457932 0 0 0
352 1 26.633268773456194 7.016570374367908 5.007791601909823 0 0 0
351 1 24.95819209567236 7.326701882020788 7.078900762885371 0 0 0
318 1 24.573970901663024 5.613987560963224 5.349514639537865 0 0 0
576 1 24.526504653760878 5.298798540880585 8.837345985567238 0 0 0
574 1 26.4237677068019 5.565025875556402 7.00921348864045 0 0 0
607 1 26.67272028322959 7.312848980489814 8.498949428934697 0 0 0
584 1 3.5168956857388065 9.348427350443501 8.679313716345648 0 0 0
578 1 2.104213756520358 8.960024499807078 7.156182999577638 0 0 0
355 1 1.533950421064856 10.835302426314309 5.360450636788754 0 0 0
611 1 1.9536343565400538 11.244068090707676 8.968823311400149 0 0 0
613 1 4.038325885203933 10.706378729300306 6.992821648550357 0 0 0
328 1 3.718119756291254 9.15677099262373 5.199258251895666 0 0 0
580 1 28.278225821008625 8.895445179556818 8.295238586331779 -1 0 0
610 1 2.2237260016076665 12.695294141313124 6.9784320538533295 0 0 0
359 1 5.546249090995103 10.69033675535608 4.7490040054062295 0 0 0
332 1 6.730085660454148 8.982312320017911 5.121836255728438 0 0 0