LAMMPS data file via write_data, version 29 Oct 2020, timestep = 300000

2048 atoms
1 atom types

-0.1822994306683583 28.534299430671833 xlo xhi
-0.1822994306683583 28.534299430671833 ylo yhi
-0.1822994306683583 28.534299430671833 zlo zhi

Masses

1 58.933

Atoms # atomic

985 1 1.488800618443011 3.0597168961710706 4.04298249966062 1 1 0
651 1 0.41860056262911516 0.5444780482775075 0.8477432421360467 1 0 1
1145 1 -0.03511877666891372 1.6686839192394993 2.578495500623095 1 1 0
1291 1 2.560969206902421 1.7588955318775625 1.8608646609341362 0 0 1
474 1 3.2383488657593777 -0.068618548425178 1.6837373705941319 0 0 0
492 1 4.115238328609892 2.9381347542428613 0.007236259133007017 0 1 0
1762 1 4.610425013533296 2.5667675787966417 2.75469674246784 1 1 0
1880 1 6.467285215911602 3.0725161546426785 0.8723923222651342 1 0 1
425 1 7.955667024616179 3.1276087038425584 2.460155458227018 1 0 1
1529 1 6.143094932132158 2.46419465836257 4.598416012791374 1 0 0
395 1 6.089912850804939 0.8852978523951085 1.9342383049951337 0 1 -1
950 1 4.36098823885203 0.6597925715779569 4.1543702596370595 -1 1 0
1540 1 9.371648856761404 2.880090819300832 4.350864038788537 -1 0 1
1138 1 9.35067967031548 0.30186150337073075 0.3692743858662041 0 1 0
1671 1 10.874375316573332 3.694854723694308 2.5534660944200516 0 -1 0
472 1 8.083201907164048 0.8394315342786627 3.4174359613546237 1 1 0
459 1 10.00650103844608 1.0592688383750994 2.389890980457508 0 0 0
621 1 9.35715882781827 3.903409630946631 0.9211009904580225 0 1 1
98 1 10.725312830538165 2.2729959765740007 0.33453662173753007 0 1 1
1220 1 11.872653760726397 1.8739085380489562 4.28751209488905 -1 1 0
28 1 15.498746957753104 2.6609044048305326 2.326841172979293 0 0 1
50 1 12.29874145388702 1.5693950441813955 1.8128974497496648 0 0 0
79 1 13.168728977076087 3.4530126437941853 3.0799762041643786 0 0 1
1614 1 12.461489239102674 3.6814513477916857 1.0128968625929864 1 0 1
757 1 14.034660074722305 0.7358659297981749 4.153656364733097 0 0 0
36 1 16.033171251156418 3.8124097525590495 0.44811958684476216 -1 0 0
1677 1 14.114323459809102 1.8361895694087402 0.46066538870300655 -1 0 1
1668 1 15.262413728544153 -0.16102138820719283 0.640335228850134 0 1 1
1611 1 18.05774928896652 0.17255171019924942 0.9185690054434379 -1 0 1
1186 1 18.01086374070917 2.6403593017827007 0.392013749867026 -1 1 1
1966 1 16.922460532723708 0.7084196069765922 2.7074603119189873 0 1 0
506 1 19.757997971345056 1.5129803919093014 2.3847503795245744 0 1 0
1753 1 18.16555416245232 2.8263785883534553 3.0263169968600145 1 1 0
1954 1 20.16146188321547 2.202453159254909 4.329113916710546 -1 1 0
763 1 20.002153610497917 1.3248766247843768 -0.13443786349796993 0 1 0
1950 1 22.355012076376514 1.4835246114449971 1.4553466848320389 0 1 0
1085 1 21.58161149927382 3.2308734869745424 2.883125993106835 0 0 0
565 1 23.68926266741846 3.59554981548403 2.5791226648763885 1 0 1
347 1 21.948813998924372 1.0258640512485395 3.7919504763391756 0 0 0
702 1 22.644918053822032 -0.13022736644952104 -0.12760606146785186 0 1 0
1626 1 24.743091120947902 1.5150138204026822 2.606993813345131 0 1 1
1856 1 25.110516468824112 0.7013173419769544 0.24665711890410263 0 0 1
224 1 24.598161644005067 3.005072052992637 0.2241843613268794 0 1 0
1475 1 27.037018817870486 1.8884956012112006 1.3499863454524825 -1 1 0
84 1 26.681727234418013 2.9064208915601846 3.586465198353525 0 1 0
1901 1 28.016079647234665 3.8725710055696085 -0.11937126837710153 -1 1 1
251 1 27.251686321898177 0.8308258486919271 4.563661699038411 -1 1 -1
1136 1 3.044968885936431 4.616300063285487 3.3039198016925417 0 0 1
1440 1 1.3374681383092961 5.050005783045572 1.423589874442416 1 1 1
570 1 3.887320183263556 7.013464186584618 -0.05765895111134697 1 0 0
2033 1 3.6682168501391206 4.7758715301839265 1.3410939375317341 0 0 1
1531 1 1.7241931620769049 6.982997601331513 3.151915354835895 1 0 2
1969 1 1.288255681099188 7.398582025090049 0.47650460799964567 1 0 1
1933 1 0.5344036157136945 5.147371872639175 3.9752599473386736 0 1 0
1425 1 4.294182243435109 6.499597414422042 2.787205238251303 1 0 0
235 1 6.157542251599667 4.199044524966223 2.812222597975065 1 1 1
379 1 6.5236508644860525 6.53771472429566 4.159820198056114 0 0 0
1576 1 5.941852453548452 5.819294655542076 1.289786067153477 0 0 1
1418 1 7.666101974725865 7.844491951823615 1.85533446932962 0 1 0
1472 1 7.805905350910491 4.542787772121957 4.122070058292556 1 1 0
1141 1 8.07665158577096 5.788150835597935 2.3225776815325534 1 0 1
1579 1 8.774708442650542 6.222065220266001 0.128459263579895 0 -1 1
319 1 12.10088588013616 6.127830807247299 3.2678020598797373 0 0 1
605 1 9.943300411412183 5.524692281926552 3.5873215544304338 1 0 1
601 1 10.284478202704427 7.590344631408703 2.1521540312925325 1 0 0
1981 1 9.435335689141036 7.333603650156914 4.194757662278499 1 0 1
1427 1 10.948127098420581 5.669651218107597 1.1536201937419406 -1 0 1
1348 1 14.154422428531246 5.114340847590479 0.09230496049023457 -1 1 1
1404 1 12.911804178886706 6.734548257542138 1.5610424975225519 1 0 1
1999 1 14.76108862133384 4.941524021280354 2.7080047385888424 -1 0 1
1771 1 15.327185921249576 6.864632276046756 0.9891400535451744 -1 1 1
1391 1 16.072370230357205 7.06368279809141 4.1774063301049065 0 1 1
499 1 15.928761108828155 4.674389503311938 4.4327842558331225 0 1 0
1535 1 14.013571009486087 7.6082652280367995 3.772778884698946 1 1 0
539 1 19.765662096612214 4.195560816258404 1.9300419048633959 0 0 1
401 1 17.272024430788175 5.076921334373055 2.1177931751769576 0 1 0
1333 1 18.396337778590762 6.997621806713827 4.579586672195246 0 0 1
1843 1 18.842694414382255 4.976236508091828 4.014627094138896 0 0 1
828 1 19.028874878868223 5.8253552284064245 0.019202373559878777 0 0 0
760 1 19.4130615066566 6.666929175307091 2.024186558435845 0 1 0
1704 1 17.45071464932506 7.0924107706531165 0.6009821872251884 0 1 1
884 1 22.166710459171778 5.565831624427246 2.5561882714847672 0 0 0
812 1 22.751234958308316 7.433281636809834 1.3868090076016912 -2 0 1
242 1 21.984672738214087 3.9477616387493217 1.001415843651648 0 1 1
1057 1 24.130043769319272 6.29953085069378 3.3096481718139525 0 0 1
265 1 21.314456922265997 6.236442730565955 0.033531879574631496 0 0 0
1223 1 21.661376803061483 7.549322789612981 3.68303691767168 -1 0 1
546 1 24.203408704280438 5.1155023856007 0.8097006956413721 -1 0 0
110 1 20.692290184125486 5.600360498001681 4.537291550207525 0 2 0
1363 1 28.21299832254055 6.738828317284426 2.0235590809948185 0 0 1
1105 1 26.029823818518015 4.487237690430588 1.9832372572838457 0 1 0
1688 1 28.25780205569238 4.0112067681158265 2.2941256654517694 0 1 1
1346 1 25.577465141533896 6.934944259912797 1.8722639513034118 -1 1 1
1672 1 26.479565078036273 5.785156934894945 4.001142208485323 -1 1 1
428 1 27.44076887243414 5.993821640271167 0.16550938158338468 -1 1 0
842 1 2.995572428140083 8.369611782978202 1.9065761089598428 1 0 0
1354 1 2.3902564160810487 10.406515771000375 2.151660197481748 1 0 1
886 1 2.655422094380453 11.16193259340116 4.310511356633582 0 0 0
312 1 0.5624240765134327 12.026127021258558 1.8700250979644837 1 0 0
103 1 3.513165697676877 8.884702254717848 4.007129319227463 0 0 0
1849 1 0.5383955535717372 8.95817308537862 2.631568772719438 1 0 1
1001 1 0.5374820614961331 9.614261858321171 0.25659974977770333 0 0 0
853 1 3.13089975304066 9.09348383867343 -0.025830698509879346 0 -1 0
844 1 1.9565359060618035 11.590518157177984 0.18587132919131122 1 0 1
592 1 5.608361487304596 8.580314324493132 3.1637065809265863 1 -1 0
1781 1 7.743933980754241 8.3972151677664 4.442960103594833 1 1 1
1446 1 5.137252236057695 11.108804510351481 3.9448132331098975 -1 0 1
1086 1 6.999875374058497 10.32058767277781 2.5759884585921164 1 0 0
1829 1 5.310502489628047 8.682097102248402 0.7082668245333125 1 0 1
809 1 6.484830367527133 11.331132276161876 0.42976915748492195 0 0 1
747 1 4.28446352096505 10.46027839379049 1.2962191982380245 0 1 0
995 1 7.725469879540634 9.070111884870556 0.2832115669265297 0 1 0
846 1 9.004803119880332 11.203394131185805 0.49200556644155635 1 0 1
1210 1 9.168298845310291 9.329551861868921 2.760344608336565 0 0 0
73 1 9.425140757635553 11.558420038338213 3.7546599749366 0 -1 0
1987 1 11.214178640043775 9.848376168152454 1.453656944748279 0 0 1
477 1 11.462601397693911 10.26025238818506 3.852316880391246 0 1 0
1257 1 11.48408890786896 8.122524176650204 4.303243240699623 0 0 0
106 1 14.379266494631702 10.084661376279183 0.9014296255118321 -1 0 0
52 1 12.805410466626162 8.818074929609883 2.4680607386859683 0 0 0
420 1 15.789679172862783 8.977589683623565 2.378862812270249 0 1 0
183 1 13.578529128693507 11.183115331715827 3.3186886821682475 0 0 0
510 1 15.887821164516652 10.557843227545522 3.507246070699234 0 0 0
192 1 12.391286173034196 11.664295897032469 0.493528260532628 0 0 0
1563 1 17.733315031986226 8.078605718318835 2.9260016113444243 -1 -1 1
160 1 18.36475705343449 11.982267510369155 0.08156842911833462 1 0 0
1559 1 18.248918608092133 10.037404467669027 1.9877954662959025 0 0 0
1512 1 16.6356408415447 11.88996181976293 1.5573075728526444 0 0 1
172 1 17.045960906302092 9.42632953533305 0.5029877137847062 0 1 0
1568 1 19.125725229897995 12.090643385882784 2.3303224516660097 -1 0 1
986 1 19.72833376234187 8.482658632249155 3.1398650316353254 0 0 0
1356 1 17.857675779537285 11.330601523065008 3.828642691421077 -1 0 1
1456 1 21.04227301099725 10.526253206182142 4.037229549400052 0 1 1
1091 1 20.699555698410684 8.543450056398834 0.9056474468333899 -1 0 0
26 1 22.52238733765801 9.353119987036111 2.767382897974153 1 -1 -1
1151 1 24.108520598755355 8.641124439554929 4.201599467902911 0 0 0
243 1 22.91639204536513 11.548838723151531 2.5544695655155993 0 1 0
95 1 20.801385798763327 10.927387589555483 1.2824942177742809 0 0 0
214 1 22.714208543038275 9.600767151365492 0.49420866881694325 0 0 1
1487 1 26.520560885635398 8.117883747154984 0.21643970865424472 -1 1 1
115 1 28.169281759274416 10.958362637259587 3.506471809572168 0 -1 1
252 1 24.83222383777381 9.166985628855514 1.793289602918374 0 0 -1
1118 1 26.858585192977152 8.593941501706913 2.8983543569404464 0 0 1
1696 1 26.53488381876436 10.382472792381353 1.6243336477229688 1 1 1
1851 1 25.68417553187116 10.747003243723606 3.819791509090673 0 -1 1
1231 1 3.855141705556017 13.548865829356588 0.06932843893063634 1 1 0
279 1 2.6597269771795 16.09079776818975 1.5880486570681318 1 0 -1
381 1 1.2004343865702807 14.435292363292623 1.1425565900574517 0 -1 1
38 1 1.7702996365893688 15.694682969974815 3.7803405170607065 0 -1 0
431 1 2.96704166435171 12.701880209176979 2.0704520747498507 0 0 0
1700 1 1.3985218721224457 12.726943572012509 3.6366326947056784 0 0 0
550 1 5.365224454663115 12.569000933308665 2.033331068914838 0 0 0
4 1 4.055077312770949 14.597957067619948 2.4385301542149507 -1 0 0
1630 1 7.147323123016136 14.859261091852554 4.426638062799668 1 0 1
1667 1 7.028692845742096 12.484392655269623 4.432095266234826 0 0 1
1618 1 6.1722287595909835 14.648281721720043 2.5954499989673008 0 0 1
478 1 7.798936160384831 12.200288202138728 2.124491447079727 1 -1 0
1307 1 7.891723594975701 15.696848622720793 1.2820185285442272 0 -1 0
921 1 5.189183985612735 15.577186237413715 0.5798179056100599 1 0 0
1578 1 6.220300509081797 13.523070582786438 0.212627749869639 0 0 1
1679 1 11.512605435709977 12.247259325672163 4.328827721955967 0 0 1
68 1 11.610425430561726 14.236864279665689 2.112673974342485 0 0 0
1828 1 8.291340633945977 14.047741403231583 2.495073322923829 0 0 1
1180 1 10.368242923324193 12.566219573901991 2.0713053919330613 0 0 1
435 1 9.288451945170825 13.965822216574791 0.13198296364509415 0 1 1
590 1 10.09437354815522 15.804915595640251 2.808729678646632 0 -1 0
1604 1 10.747086318291728 15.658814551650314 0.4570828957620079 0 0 0
1248 1 9.862849993747716 13.749844539531173 4.033590804665446 0 1 0
522 1 11.816710726893293 15.784615865024962 4.601218059375671 0 0 0
1681 1 11.245448445565541 13.358055648357377 -0.15531439344954379 1 -1 1
753 1 14.01888364062758 14.253142593659893 1.2423454499739177 0 0 0
313 1 13.343361594718447 13.970404142280394 3.5286362237033697 0 0 0
209 1 14.47573181031035 12.175236622935943 1.3212077140502148 0 0 1
1922 1 15.3152117448215 13.090955472802639 3.1020082474975323 0 0 1
929 1 15.523659633376385 15.641991923471089 3.122178915590948 -1 -1 0
383 1 13.763779879354033 16.183684269689447 3.986619551092712 0 0 0
1949 1 12.894508987802222 16.076830013001636 -0.012978756972717775 0 -1 1
246 1 20.038886236741956 13.673731635921694 1.0102174641687538 0 1 0
1920 1 17.710992923292817 13.939259473328597 1.6400827282758412 0 0 1
1409 1 16.553566107981254 15.786305723283514 0.5903628633513626 0 0 1
199 1 17.721256715440337 13.402849779201059 4.31558888139506 -1 0 0
137 1 19.335276489704228 14.42081967669161 3.5123818088915244 0 0 0
1004 1 22.394482043603595 12.918673541371524 0.5436328115249532 -1 0 1
303 1 21.105884705499808 12.791072169765062 2.7466501731780117 -1 0 0
1951 1 24.25815602202421 14.606802357245535 0.7604755507707763 0 -1 1
30 1 23.29649611053824 14.064313400631697 2.8844833201740547 0 0 -1
693 1 22.006896979725934 15.11866741259019 1.4920517650473446 0 0 0
885 1 21.537435851207437 14.83805058002739 4.301218275859446 0 -1 0
2029 1 27.581135975381176 16.06132116163307 0.2162905250817222 -1 1 1
686 1 24.667031073983235 12.52590629269966 1.5669737763869132 0 1 1
1665 1 26.94096099094647 12.684347338555972 1.6204200968179705 -1 0 0
895 1 27.50747358286279 13.084474926641038 3.7339179341552153 0 0 0
306 1 26.958803957724378 15.147087907712585 4.407781341519187 1 -1 0
1657 1 25.609004767127047 14.683554029207919 2.9738977269351254 0 0 0
1435 1 28.496516958419054 14.759786415578152 2.792794247624392 0 0 1
37 1 24.915455090543613 12.822725383289708 4.4443893570258055 -1 0 -1
1888 1 28.34310762363808 13.081840879546068 -0.1724007528169551 0 -1 1
1564 1 0.3757934822538418 16.753017797859073 1.7986826607994642 1 0 1
1311 1 2.491165412667789 18.13836759243907 3.0813234355945682 0 -1 0
342 1 0.5246456823749186 19.233889139235774 2.6140426962487395 2 0 0
1055 1 1.9230193025746862 18.351779240879146 0.38799207418845927 1 -1 1
1341 1 2.590099898431186 20.328579933323756 3.3730548607826267 1 -1 0
1122 1 4.107962647720843 19.754476239988534 2.166918662017098 0 -1 0
1312 1 4.736882311215659 16.717849010574245 2.9972203416302583 1 -1 2
189 1 6.5699472712831035 17.624291033857055 0.7627276993198211 0 1 0
762 1 5.5708964841706585 19.11195504922859 4.01325554198119 1 1 0
2047 1 6.299686357816842 19.459241391871995 1.772933420848815 1 0 0
912 1 6.74140403114753 16.990127325786332 2.863218355899839 1 0 0
1491 1 8.009826103441563 18.458734624386096 2.3980418320323587 0 0 0
1948 1 4.301579078115193 17.95469245628255 0.7033398027222106 0 -1 1
153 1 10.341450199480754 20.05046121994324 0.4810842286781911 0 0 0
125 1 12.005509133896481 16.70085856065941 1.9941208199605072 1 -1 0
1078 1 10.604368029553564 19.26466438974584 2.368822523843654 1 -1 0
352 1 9.77669524105246 20.222459537304587 4.343062573817653 1 0 0
1148 1 9.87810991730949 17.591344743758796 1.164083562299247 0 0 0
1424 1 10.881409851986186 17.883003670956523 4.278940760719381 0 0 0
954 1 8.636260964749878 16.966451724299088 4.508345109028447 0 0 0
644 1 8.19614099503791 19.04212387177127 -0.048199676823283966 0 0 0
650 1 13.048579312933807 18.816795478778246 0.63109558003951 0 0 0
720 1 15.345789986753662 19.34438668708327 0.7597905295361288 0 0 1
600 1 14.56794003617322 16.767533735733277 1.2324733556094534 0 0 0
9 1 15.377251402949291 18.155610033711596 3.1824661314380247 -1 -1 -1
589 1 13.263599675774906 18.3834461312458 3.0386754390308544 0 0 0
1030 1 17.525191125394247 18.013722600165917 1.0213988844620712 -1 0 0
925 1 19.331242067418497 18.361822276494124 4.15662941313743 0 0 0
1740 1 19.37643670591679 16.466223163019773 1.508773613971589 0 0 1
1061 1 19.592094145050098 18.707762346021862 1.9220545966407032 -1 0 0
908 1 17.240005136462326 19.260767707836145 3.7710405178388413 0 0 0
1742 1 17.567766371917642 16.751497010056987 3.1055821544312456 -1 0 0
150 1 23.379592178065025 18.64433293631637 1.9331897963219533 0 0 -1
1225 1 21.23618445174543 17.465690494141192 0.6779169081638089 -1 0 1
13 1 20.876798121367738 16.71769691003245 3.043796835176155 0 -2 1
1527 1 21.8770753227503 18.55377618981781 3.4440999996867747 0 1 1
1755 1 23.14568189597121 16.521145963332145 3.0911271968611835 1 0 1
815 1 21.467632825652988 19.728999740184044 0.3218797128372959 1 0 1
54 1 23.466604194006933 16.750569027967888 0.3849462229161461 0 -1 0
1419 1 25.862686218895558 16.900160428059195 1.1236640061357108 -1 0 0
974 1 28.20386169378399 17.046409710106417 3.760601353896095 -1 0 1
1110 1 27.00058666307275 19.766496698512665 3.6623978395016925 0 -1 0
1019 1 25.403775957757063 19.33956848827586 0.7596451859447224 0 0 1
505 1 26.2046948396826 17.58473089566247 3.1133169382268746 0 1 0
1632 1 27.60686524073501 18.54768949690307 1.402397973013184 -1 -1 0
349 1 24.617968349952324 18.924360643928548 4.1703148881586 0 0 0
382 1 1.3294106014208857 22.76596956371104 1.1072261044341687 1 0 0
1036 1 -0.0823450571772959 20.490751684050924 0.14884382615423486 0 0 0
1259 1 -0.003386086160280438 21.518205522023397 2.562180630393467 1 1 1
456 1 1.668444982357284 23.049355210799373 3.1866550883575906 -1 0 0
1825 1 3.4202301764926113 24.144722400392574 3.4258085105250657 0 0 0
697 1 3.3781393962260533 22.386322991721418 1.697289415918731 0 0 0
1536 1 1.7962179634027327 20.340372845674192 1.2759614138661843 1 0 0
2035 1 4.411796970590741 20.55116262550794 0.10034457022534404 0 0 1
1635 1 4.4002848297373784 23.917312725908523 0.23578011592014253 0 -1 0
336 1 6.69061796161059 23.73527936742594 0.36148695160060174 0 -1 0
1600 1 7.661367400103849 20.46974830038592 4.025448436536263 0 -1 1
1874 1 7.9493406290294 22.891258123134907 2.0218649099283077 0 0 0
1203 1 5.571771744266303 24.002220073238128 2.2680892238513026 0 0 0
1043 1 5.87166403228124 21.76162634311348 2.2165279190004132 1 0 0
339 1 4.56951387568603 21.287113007125534 4.211777483234739 0 0 1
1374 1 6.396047250426203 22.827413900685784 4.264416857013742 1 0 0
691 1 6.663952092635463 20.935355864162066 -0.07930842944347581 0 0 2
1421 1 8.753130426525265 21.847391550211665 0.18425130964122216 0 -1 1
409 1 9.32610223641314 22.32796554681924 4.144795409596717 1 0 0
1734 1 10.86196394464969 22.6523316863369 1.527592988992361 0 0 1
2009 1 11.517747264832375 21.381821191907058 3.228424917522504 0 -1 1
580 1 8.995967088036016 20.892006186780417 2.322825059130989 0 0 0
1163 1 11.280589452669155 23.900621821764137 4.580396836397372 0 0 0
219 1 14.354410769182671 24.02862225199577 0.2272943841241195 0 0 1
236 1 16.109815537537404 20.97644091880267 2.440745156095068 -1 0 1
285 1 12.289346454122965 20.729350847983476 0.9469639423698366 0 0 0
1728 1 15.35820892165714 22.68135586001501 4.342543554463733 1 0 1
260 1 13.761776416044283 20.558591973940707 2.831195241553891 0 -1 1
931 1 14.488422334197658 21.67853097767978 0.8141927363104263 0 -1 0
676 1 13.545693734529088 23.762294397025087 2.7136504308987583 0 0 1
816 1 17.55195559719125 20.712837221578077 0.5320583034174543 -1 0 0
1170 1 17.80594263563306 22.90375466052387 1.1365298031090691 -1 0 0
1214 1 17.437435045575906 22.693644833013508 3.5525073443780313 1 0 1
937 1 19.79581713657699 24.035013685791654 4.49998757378509 -1 -1 0
642 1 20.26224659138629 22.719413011124477 2.4203772284178062 0 0 0
891 1 18.56906687799765 21.077023901281112 2.7643163715872303 0 0 1
1474 1 19.896272084814413 23.68431220471488 -0.13351503133886428 -1 1 1
1031 1 21.791272247863734 21.036437370638996 2.3265297893666372 0 -2 1
1800 1 20.420566873111756 21.877709989845993 0.5527508687407455 0 -1 0
518 1 23.331352126298192 21.18438698783425 0.09128183957665392 -1 -1 0
1720 1 22.65682027153133 22.900429641994684 1.504044445067177 0 0 1
1528 1 23.889828226764298 23.157102786259443 4.1331551726209526 0 0 1
278 1 20.602861172581065 20.42274362475451 3.763170183876839 0 -1 0
994 1 25.335276607316782 21.748418690237287 -0.17573626433240735 -2 0 0
40 1 26.103169217852912 24.123856810316465 -0.06568506861164522 -1 -1 1
1539 1 27.136462669163183 23.66321118598169 2.273030939966116 -1 0 0
1637 1 24.732702526222514 20.699338732695246 2.766366380682692 -1 -1 0
772 1 26.493032143596103 21.230379373874104 1.664494409557478 -2 -1 -1
455 1 25.162313104379518 22.904877547900405 2.098821095556871 -1 1 0
1506 1 26.433042348955738 24.372361159464248 4.202794713585293 -1 0 1
114 1 26.110850379277565 21.71112819819641 4.244001722277876 -1 0 0
15 1 27.873867958905674 22.700075807411555 0.45181833850801767 0 -1 1
1502 1 1.7520114218500158 28.014301175328132 3.2982282571520942 1 -1 1
830 1 -0.08907356033857283 24.928656861354284 -0.10980586712942404 1 -1 0
1909 1 1.4543524501747487 27.087841262403717 0.8639879467043161 2 0 0
1799 1 1.858457500848727 25.61949080869631 2.6517501696172268 0 -1 0
448 1 3.8118543478042732 26.730887319749193 3.5358936835395434 1 -1 1
248 1 5.379558373198678 28.307671658834412 0.31654826910237804 1 -1 0
1708 1 4.1453130818681325 25.92548871135283 1.6728363257790884 0 0 0
244 1 6.112254676900724 26.18772397678993 0.8907404210111118 0 0 0
1434 1 7.398043008345061 25.243119676908062 2.25451897699762 0 0 0
669 1 7.708170566745681 27.686600944825443 1.1258228630940834 2 -1 0
2014 1 5.556466946505955 27.61287265081042 2.780780223519156 1 0 1
290 1 5.778128747726534 25.478460686464594 4.38857471172103 0 0 0
426 1 8.23581633408815 24.58783767784519 4.146126546050516 0 0 0
548 1 10.447113721397344 24.727162001158316 2.427532294023016 -1 0 0
1018 1 10.130427853283852 27.398403584330172 2.0023173026580903 1 1 1
1079 1 12.11500236568377 26.063111983286195 2.7041937647163308 0 -1 0
1838 1 8.544534271889257 27.158748396578112 3.5834227582743337 1 -1 1
93 1 11.470924911160418 28.262362294694643 3.6627542047222432 1 -1 0
761 1 9.119978607924958 24.975303641944425 0.7214591736272685 1 0 1
959 1 11.537167032414695 26.948677356515585 0.6405838308038948 1 0 1
838 1 11.970106224526424 24.599766615060446 0.5227055406565014 0 -1 0
1669 1 14.760166640645442 26.232443772380506 1.4782092186629183 1 0 1
489 1 15.46908544239127 24.835701282993288 2.7903819596292907 0 0 0
182 1 13.683604240667576 28.118665044344223 2.452807696647936 0 0 0
754 1 13.92444496101506 26.43416009661059 3.8409214590021987 0 0 0
1806 1 15.94712333388346 28.294207515839634 4.3244328167086925 -1 -2 1
1334 1 16.726705176074738 27.08415401890254 0.2891851400398773 0 -1 1
109 1 16.595574436654516 24.839996595287023 0.5974628105275871 0 0 0
3 1 19.476671646619184 25.001902691318964 2.142588000916802 -1 -1 0
1002 1 19.681227125477704 25.857390479174803 -0.17560416259281164 0 0 0
140 1 18.533889049281658 28.121316256828962 3.5362904361729983 -1 0 0
1140 1 16.42149053490473 27.12213357790109 2.6674240428591935 0 -1 0
829 1 20.15527436047465 28.232541697549422 1.7204908430162835 0 -1 0
257 1 18.341485261100033 26.718678710636542 1.5992916761394893 -1 -1 0
74 1 17.668285385808115 25.2780836521745 3.405100925298945 -1 0 -1
247 1 24.28068026493754 24.893889032555087 1.533875160514094 -1 0 0
186 1 21.735822843992672 24.7218135313245 0.8946885553719437 0 0 -1
1439 1 23.11924764353719 26.647780034372996 3.2344450997472682 0 0 0
380 1 21.92240586865302 26.999917970970326 1.201595420602593 0 0 0
1283 1 24.166722026291936 27.613529131707498 1.4073427941585668 -1 -1 0
1013 1 21.708211545106064 24.875750568550668 3.31754318317237 -1 0 1
883 1 20.333057376457663 26.714955883138938 3.512563121039768 0 -1 0
547 1 25.95305981648846 26.280907746518672 0.38451254795023804 -1 -1 0
1895 1 27.808752006062033 25.94151510481123 1.9693867808488323 -1 -1 1
596 1 28.480598995630775 25.112745857092207 3.8323880965098125 -1 -1 0
327 1 24.958090083664754 28.154117318583037 3.7675892751537003 -1 -1 0
134 1 25.336904890500204 25.87143699175714 3.03060642624564 -1 -1 0
1317 1 26.28252644192699 28.14599550980472 1.713182157863193 -1 -2 1
664 1 28.290315412159554 28.235498345301863 2.8462068979464274 0 0 0
1121 1 27.408245294691188 27.124536874795172 4.426600984799948 -1 0 1
1525 1 27.84039173560291 27.704454931050087 0.0526967814194812 0 0 1
1120 1 3.6783681452123975 2.833817699596645 5.070566020146327 1 0 0
159 1 3.1720806188324446 1.1901953137537429 9.08795112944071 0 1 0
1499 1 3.1049561088192497 2.403917199136766 7.112349095227946 1 1 0
786 1 0.7785478382199795 2.9869754593867643 6.589641428798844 1 0 0
1157 1 0.884932725099127 0.9952140486617684 4.739741082740221 0 0 1
1466 1 1.0524499020937474 0.26877611369217935 8.33349711906282 0 0 1
1686 1 2.763560035533434 0.6242698644048499 5.853284912065464 1 0 0
703 1 1.2594526667820491 2.462334767083429 8.844806385383702 1 0 0
1127 1 6.470541490566036 -0.08752397983575833 4.848682679716569 0 1 1
1903 1 5.327365028009917 2.501262353620945 8.545015435619325 1 0 1
1593 1 4.989490529298979 0.07896960468364767 8.19102482071715 0 0 1
1178 1 7.982480027351867 1.6044609878683045 6.062223775867845 1 0 0
1914 1 6.779813807293729 3.6468411140585903 6.897485280138626 1 0 0
694 1 5.447305109847415 1.5944876425236518 6.56320302144222 1 1 0
1717 1 9.742843605911448 0.023236178708107708 5.015037593925767 0 0 1
663 1 9.257432091013138 0.23427212523029478 7.422940364770113 1 1 0
299 1 10.42007764750012 1.9166207074352601 6.5126198152158015 -1 0 -1
746 1 10.788127178330228 2.522333265142308 8.713174785924055 0 2 0
198 1 8.155989589185019 1.5629550035419442 8.89377823893976 -1 1 0
1997 1 11.899398438966115 0.5642965768749002 8.251722658445683 0 1 0
23 1 8.322548256147016 3.7093340480730568 8.184382483508086 0 0 0
94 1 13.763412548687299 2.7169206640544337 5.25415093868923 1 1 -1
1759 1 12.99865635029798 0.334558606430417 6.137749476351078 1 1 1
1730 1 12.528406666000938 3.2114827326224655 7.064891296717209 0 1 0
155 1 15.874331379580987 2.7317713140159254 5.53600220616892 0 1 0
1477 1 15.592316352313777 0.6522512577985279 6.528683919592525 0 1 0
1596 1 14.208676165701306 2.1642953366161 7.643656515310091 0 1 1
1304 1 14.93464294356378 -0.08587080650557692 8.714496086473746 0 0 1
1416 1 18.27153886979377 1.0337910647064505 4.857196090638857 -1 1 0
275 1 18.272553087863642 3.481800638157811 5.445347870587569 0 0 0
446 1 17.932444726349953 1.2042599343755955 6.900179847076345 0 1 0
67 1 19.539056002418263 3.3708052591865756 8.22048432341235 -1 0 0
307 1 19.059192026045867 1.3184468386704238 8.790295246120808 0 0 0
785 1 16.464871655648775 2.1987352167465617 8.582974432319217 0 1 1
1577 1 17.383749114052847 -0.022115620380507295 8.557281961439996 -1 0 0
1408 1 21.10818017776512 3.516471380176266 6.161115466593686 0 1 1
14 1 23.488605547199377 2.9752365562993206 4.946353751866523 0 1 0
1698 1 22.827521999911156 1.2268432330530668 6.22069815638866 -1 1 1
148 1 21.55577993944359 2.4302187092576686 8.969284735412094 0 1 0
469 1 24.07223861863786 2.897074448432295 7.36254861856215 0 2 0
1415 1 20.607127184859266 1.0780369165076968 6.778353405063537 0 -1 0
894 1 22.6389882080543 0.7219410830022558 8.290802802827898 0 0 0
1524 1 27.881469725918375 3.7858576912034163 5.251097344259986 -1 1 1
1209 1 25.556545264345573 0.9454586273199583 7.5364603941028125 -1 1 1
1877 1 28.088444584287238 1.1058896417024628 6.675186840782955 -1 0 1
544 1 25.660097952371547 2.813023280407544 9.14454904067453 0 0 0
1162 1 27.801300299546476 3.4849016398652504 8.417399338842424 -1 0 0
750 1 24.986087105082337 1.1781481945761 5.337832586739343 0 1 1
900 1 26.26247032620919 2.9259178941742756 6.325250003385367 0 1 0
811 1 27.367312956027043 1.4388498633810094 8.969232790148846 -1 0 0
1613 1 1.8841883482008344 4.3411303403784745 8.035298602129773 0 0 1
358 1 2.694381978757108 4.766090762053998 5.5095242056209255 0 -1 1
1583 1 1.7077477103893686 7.7607640466364405 7.696351720793685 0 0 0
1814 1 3.615823393407473 6.569959321917988 7.219681564180074 1 0 0
525 1 0.42738749962024924 5.2469688272566595 6.06315545180299 1 0 0
1077 1 0.04484814879264168 6.040993691671922 8.186891919867985 1 0 1
281 1 1.7123144041610354 7.2269316007923905 5.354277770606489 0 0 -1
768 1 4.7719556153029865 4.523594825488409 7.395533590721873 2 1 0
1501 1 4.353515215949956 7.1044917233925755 5.042160622560456 1 0 0
545 1 5.128288628873684 4.640101707691418 5.213599954771159 0 0 1
526 1 7.984930807936017 6.263749902599939 5.971476034562612 1 0 0
202 1 5.711084007772278 6.6772574406412275 6.83935711912018 0 0 -1
440 1 7.065212650961524 5.443446842631373 8.835936498901473 1 0 0
1937 1 4.674539749851046 7.3902579190128685 8.954620266425962 0 0 1
1724 1 9.020921414434317 4.2270466239557445 6.015104415395082 0 0 1
264 1 11.381653539131865 3.938282839835991 4.993026932908978 -1 0 1
1205 1 8.806123738938082 6.492596092165127 8.380200432448898 0 0 1
1414 1 10.577925502188265 4.580939192752533 7.308832811493661 -1 1 0
1549 1 10.298492913569303 7.975039000660512 9.125152537659025 0 0 0
1467 1 10.350686837384954 6.834531650412729 6.358410975575893 0 1 1
1898 1 15.471059168963839 4.919127022837742 8.586774042591006 -1 1 1
158 1 12.552178151263755 5.525598830547093 6.550554289165522 1 1 0
1603 1 13.468730845534145 4.957216395122023 4.854947599748499 -1 0 1
567 1 14.452031982654137 4.325594182566415 6.653091051926054 1 0 0
864 1 13.389100932218014 7.2257072988202244 8.41671750289913 1 -1 0
1783 1 14.892028337523701 6.513526274694006 6.124103180509817 0 0 1
1188 1 13.223137268951621 4.302330443512782 8.783624382805153 0 1 0
1551 1 15.89016445262116 7.432028883214286 9.13446660822995 0 0 0
1714 1 17.399860767444142 4.097112233492353 7.561978121196968 0 0 1
1357 1 17.28428365653375 6.143111700775103 8.565774696984334 -1 0 0
1369 1 18.74143136482596 6.131259521756363 6.6408439533936745 0 0 0
1654 1 20.27488863039275 6.924925859633072 8.218162774624965 0 0 1
729 1 16.788252317287395 7.723265027487476 6.696174164520111 0 1 0
393 1 19.238776782383837 5.38285806493865 9.318061787028354 0 1 0
1911 1 23.17327939395963 6.381347503318692 8.999897223077514 0 1 1
1986 1 21.78038993812705 5.5930004299501075 6.996079935782364 0 1 0
519 1 22.741456374659915 5.2594630116109755 5.146529446094705 0 0 0