LAMMPS data file via write_data, version 29 Oct 2020, timestep = 300000

2048 atoms
1 atom types

0.022635086727117226 28.329364913271988 xlo xhi
0.022635086727117226 28.329364913271988 ylo yhi
0.022635086727117226 28.329364913271988 zlo zhi

Masses

1 58.933

Atoms # atomic

258 1 2.0320670215325465 1.6380105443235657 3.77032380499844 0 0 0
293 1 3.951792222484678 3.2254956311499585 3.8106833890461607 0 0 0
8 1 3.738478128162231 1.880848024598478 1.8743054114698232 0 0 0
35 1 1.8661903573848933 3.1859735227758077 1.833060119863689 0 0 0
1023 1 26.41298637399808 24.63027012255695 12.627508827829244 0 0 0
1165 1 10.659096391402219 14.766009568185439 13.82830328379906 0 0 0
12 1 7.467622868550884 1.9790589192956842 1.9927051555872561 0 0 0
262 1 5.525075701868565 1.688860950015823 3.8432638749726453 0 0 0
297 1 7.218997331865589 3.538520869217885 3.7767830042667776 0 0 0
39 1 5.16720980593531 3.4452446463652837 1.8593729275393152 0 0 0
268 1 7.14820193013993 1.6520053557836658 5.5490653363729505 0 0 0
266 1 9.156061750526828 1.4522548657182794 3.722675023739453 0 0 0
16 1 11.114212404885851 1.797348577076458 1.6868951117991913 0 0 0
43 1 9.47620773957939 3.39457041889109 2.1548574669982368 0 0 0
301 1 11.194264075246627 3.4222590995312134 3.4217557828754788 0 0 0
270 1 12.736807401724898 1.617136056255743 3.7458995965116366 0 0 0
1277 1 24.700104465027785 24.4141391409956 14.150960922409217 0 0 0
47 1 12.668833569636119 3.6842196284247337 1.4831026893838615 0 0 0
20 1 13.906000262564694 1.671232218089031 1.7122540798487285 0 0 0
305 1 14.20339236426107 3.719585694406565 3.5923122434150248 0 0 0
19 1 15.807617701037168 0.3991887721471561 1.9398995766141318 0 0 0
274 1 15.747922152092126 2.067419914212444 3.9381464443820837 0 0 0
51 1 15.390570592747368 3.585063680078251 1.5304835308838574 0 0 0
273 1 14.350723594928702 0.09881587370843772 3.873970722124739 0 0 0
1024 1 24.49520748984638 26.48685142165014 12.345774738083028 0 0 0
1022 1 26.583541304108106 26.43264884701932 10.706625068093 0 0 0
24 1 17.152702047952197 1.9021787790449947 1.704151014404769 0 0 0
278 1 19.358738811278243 1.6796308024285864 3.3209754835452703 0 0 0
55 1 19.352215176343908 3.6249749074127693 1.610177262016696 0 0 0
309 1 17.520191642791232 3.6596176904483038 3.4389614074780495 0 0 0
277 1 17.355884656811646 0.3947175626222299 3.57692148120484 0 0 0
28 1 21.026137798883514 1.9113693750577219 1.6810059296521045 0 0 0
282 1 23.055083295315274 1.8073066082405174 3.765082916969264 0 0 0
313 1 21.095672122032894 3.5190288796212186 3.2383045987447634 0 0 0
59 1 23.332615176711283 3.438786096433568 1.9832882189009329 0 0 0
4 1 28.243757110074135 1.459243924229668 1.9287975359806426 -1 0 0
289 1 0.031073364449388838 3.276658024462903 3.7414439142412017 0 0 0
317 1 24.899184267456196 3.742142189639277 3.922029868530868 0 0 0
32 1 25.01488713205274 1.9159790035514983 1.648301044506394 0 0 0
286 1 26.45371240000948 1.972518216619126 3.4105486341441185 0 0 0
63 1 26.993014478544843 3.3891179234036675 1.8151089405785936 0 0 0
105 1 6.815416609898841 10.235550978076963 0.07750549125221762 0 0 0
1126 1 5.347457889456567 12.703445292738083 13.474462430951306 0 0 0
67 1 1.9626716710373013 6.737293676907923 1.710745741143415 0 0 0
290 1 1.987371383819761 5.319160682026141 3.669224517915647 0 0 0
325 1 3.4179033145036875 7.322506988455983 3.39149177497398 0 0 0
40 1 3.87709605013692 5.3074061764405 1.607295212964691 0 0 0
44 1 6.906686857699754 4.7319910880928795 1.7305676197414552 0 0 0
71 1 5.609488464331844 6.625834635996786 1.8133910470572947 0 0 0
294 1 5.29526285791427 4.69942853316517 3.55781541953752 0 0 0
329 1 6.824215092405837 6.752844862887519 4.022828710882567 0 0 0
189 1 24.276395757952233 17.488596639667044 0.19341552534025885 0 0 0
48 1 10.77582994399289 5.37254410066656 1.7546389296477407 0 0 0
75 1 8.343344687225839 6.795399365730263 1.8317878452861294 0 0 0
298 1 8.636326443628892 5.112672867446273 3.4911752845243074 0 0 0
333 1 10.215981719387242 7.003094019888971 3.3874515070770497 0 0 0
302 1 12.445276293631483 5.435695658958584 3.3403488520233733 0 0 0
79 1 12.422436840600541 6.544799787394584 1.3719255183510475 0 0 0
52 1 14.136408666384357 5.35075788152308 1.660963763362879 0 0 0
337 1 14.54063382274452 6.727355139260849 3.5912897323657735 0 0 0
306 1 15.920564611823952 5.042509309604234 3.7768937222412915 0 0 0
83 1 15.971864469001947 6.836028407614296 1.4322888847184596 0 0 0
56 1 17.356651690568558 4.867801346135426 1.747552081988192 0 0 0
87 1 19.257882078288024 6.408868518776874 2.16561721595317 0 0 0
341 1 17.657561880576228 6.769033940534116 3.6475787633996473 0 0 0
310 1 19.3981145644756 5.268930683434547 4.203869305463421 0 0 0
60 1 21.10343291047219 5.2157645741743295 1.5407589855169086 0 0 0
91 1 23.229965380786748 6.786219396103868 1.5566445589696454 0 0 0
314 1 23.061455135699973 5.249180444681646 3.2845498582505774 0 0 0
345 1 21.343102559970106 6.9369536436816555 3.3014837193546587 0 0 0
36 1 0.3858064950653154 4.819116875210114 2.0117638410289027 0 0 0
349 1 24.82355071426682 6.989136803131334 3.615100344934508 0 0 0
321 1 0.22740035242872025 6.66862217808276 3.8745542338383716 0 0 0
64 1 25.25639858498775 5.197881475345073 1.8032667114397152 0 0 0
95 1 26.79210284570077 6.649724480378901 1.774268577517109 0 0 0
318 1 26.765946635296284 5.270967683115423 3.98737999583246 0 0 0
1021 1 24.300267376290723 24.8579819480239 10.346285530351498 0 0 0
99 1 1.7591087204635547 10.705217523163821 2.0060404848181257 0 0 0
322 1 1.999566228750053 9.135767716040272 3.903968783117583 0 0 0
72 1 3.3437240341842904 8.646295173765743 1.9878653457583797 0 0 0
357 1 3.659001996172025 10.466786778165707 3.9354981411226806 0 0 0
353 1 28.161539551352316 10.270618361673803 3.471763796672559 -1 0 0
68 1 0.45581914411566005 8.618043237606996 2.0129413569462145 0 0 0
218 1 22.696849486967764 23.36080944381988 0.11459704199960215 0 0 0
76 1 6.640317825517596 8.514331136166108 1.9255375817218003 0 0 0
103 1 5.210096960530856 10.414290763730978 1.8511931081217627 0 0 0
326 1 5.264347699195541 8.787653360409433 3.6961105214494347 0 0 0
361 1 6.822234933053311 10.531235659333095 3.9101747678853918 0 0 0
358 1 5.418490980327404 12.485050516372588 4.155604520244316 0 0 0
332 1 7.187706926554952 8.777542822502623 5.244232545973911 0 0 0
169 1 6.942907745979054 17.1881248076791 0.17110816433516993 0 0 0
107 1 8.054701797596053 10.484147155652007 1.9187848964325525 0 0 0
80 1 10.186291226070788 8.566750610238127 1.7307298852507063 0 0 0
330 1 8.515013822556153 8.736816110560014 3.5339740296050017 0 0 0
365 1 10.327438102460507 10.377202084365836 3.3941550815739236 0 0 0
797 1 24.507933590919514 28.304184425095745 10.703173931191406 0 -1 0
206 1 12.440718577765166 23.219218728522023 0.28466375483877 0 0 0
106 1 8.812858525835203 12.267526696588575 0.3136620670196397 0 0 0
1273 1 20.784184413358343 25.00836192592251 14.157873581488928 0 0 0
111 1 12.215359273956041 10.490194478341072 1.6826060561088052 0 0 0
334 1 11.969110825151768 8.287600780686278 2.817603887282015 0 0 0
84 1 14.152396835987094 8.39109922142147 1.923120888041079 0 0 0
369 1 13.864152261019372 10.239885381391634 3.683525014989051 0 0 0
338 1 16.229953166396704 8.889641416040476 3.638187915444792 0 0 0
115 1 15.508273801997978 10.14213197295021 2.0028096968370885 0 0 0
88 1 17.407409216802893 8.619075858235538 1.9377768511921438 0 0 0
373 1 17.940641428992578 10.497497411546618 3.630240687250679 0 0 0
119 1 19.736310694907196 10.173524776084342 1.6970093130208734 0 0 0
342 1 19.20037682278808 8.643625121469613 3.648449867353456 0 0 0
1018 1 22.725326170926238 26.619101441544895 10.14968513808167 0 0 0
1020 1 21.26603648901484 26.523970762442417 12.493131166872182 0 0 0
92 1 21.587352312018258 8.702994206961172 1.8257145221290398 0 0 0
123 1 23.209524589125575 10.53494827660447 1.7284496267735476 0 0 0
346 1 23.294643566291562 8.73825620360253 3.5697450117716163 0 0 0
377 1 21.242288281887152 10.375370733645322 3.364205895857057 0 0 0
378 1 23.126019332298682 12.138396434903804 3.187577517120655 0 0 0
124 1 21.267406623150038 11.894974404073679 2.023734434274124 0 0 0
1019 1 23.16847582392782 24.251776942364533 12.340937896779218 0 0 0
381 1 24.941917696713872 10.420742225293143 3.66894451507568 0 0 0
96 1 24.736870820313158 8.550334314238953 1.7495736986032344 0 0 0
127 1 26.63634179423001 10.039630965296457 1.9584106251255469 0 0 0
350 1 26.605413361621217 8.450773018768984 3.5514024339932 0 0 0
382 1 26.522047278659727 12.191886485333066 3.4790964984018022 0 0 0
795 1 23.197583938073237 0.032400797182088326 12.969886324269115 0 0 0
1013 1 17.96054226571817 24.57488898124003 10.591524209895994 0 0 0
104 1 3.6019174392147475 12.129806394415134 2.167001365475629 0 0 0
354 1 1.370276848822304 11.970337809486088 3.812131306052166 0 0 0
131 1 1.630799490390956 13.577240889941645 1.8758587624601777 0 0 0
389 1 3.519178772639373 13.912780323435383 3.7143095244928737 0 0 0
136 1 3.252539095406109 15.474005377886005 2.332447884847139 0 0 0
386 1 1.457377795711847 16.15541503802286 3.7433708823439504 0 0 0
100 1 27.944051620455248 11.931954538518047 1.7170152552090123 -1 0 0
13 1 10.393936865025573 0.1035560841312198 0.13325721103623173 0 0 0
385 1 28.232385533977684 14.081577477538856 3.518120048097725 -1 0 0
108 1 6.954817394913947 12.559382251374519 2.1756683920317457 0 0 0
135 1 5.302463093843981 14.098931747103585 2.235164821967813 0 0 0
393 1 6.960416044570177 14.392709937470663 3.9901729586377876 0 0 0
390 1 5.076736914105236 16.223481228916523 2.744419773160118 0 0 0
140 1 7.188600701200666 15.59473142453025 1.6793170371509911 0 0 0
114 1 15.941280013557787 12.126250722781338 0.5051502206165025 0 0 0
1014 1 19.51620408437543 26.797567579021177 10.881421105137981 0 0 0
366 1 12.336416245890998 12.130666480282251 3.7550139945869407 0 0 0
112 1 10.195494513695303 12.29196564188367 2.3218584256763757 0 0 0
362 1 8.585844451272507 12.451490280077609 3.647125465023755 0 0 0
139 1 8.7528395724534 14.037615024414897 1.887850530554509 0 0 0
397 1 10.802521805865345 13.87855735243557 3.605822857058137 0 0 0
144 1 10.515280259136839 15.865130677613504 2.05240074923699 0 0 0
398 1 12.551802553771147 15.974840684237792 3.8028222569513344 0 0 0
133 1 3.6863181689788647 13.863659831863675 0.4701173826464961 0 0 0
1193 1 6.842391167142225 18.099910005117085 14.053955164245405 0 0 0
143 1 12.4039598974442 14.038810918924446 1.7460119732020658 0 0 0
116 1 14.214218012255962 12.359731486073825 2.04935882122954 0 0 0
401 1 14.585923535506325 14.106976906349049 4.127749916576845 0 0 0
147 1 15.911148443055417 13.980391567864391 2.1523797124219266 0 0 0
148 1 14.151263229682286 15.666197836986235 2.0559780329309683 0 0 0
370 1 16.15359708946165 11.865915237239234 3.5952170172457714 0 0 0
402 1 15.890634414999843 16.4378410017722 3.5097510605389073 0 0 0
1016 1 17.549002720863097 26.373708382621377 12.78577372855056 0 0 0
120 1 17.602313419066768 11.639381479319972 1.7317200967344801 0 0 0
374 1 19.398212428694894 11.999019142428754 3.1971495671718397 0 0 0
405 1 17.719212394679072 13.54981914530012 3.365562794356209 0 0 0
151 1 19.798026227188117 14.006093685499296 1.8137369523495646 0 0 0
152 1 17.939997912204856 15.684947346175917 1.5574374882521542 0 0 0
406 1 19.718906085845745 15.796012552043265 3.2436515337317005 0 0 0
209 1 14.06545581321968 21.57977877707708 0.3232646495006065 0 0 0
155 1 22.977252871107787 14.248438577341448 1.839252238518885 0 0 0
409 1 21.27186980480779 13.762585631341848 3.608234559325306 0 0 0
156 1 21.450936548486265 15.632320151127669 1.8841144517738513 0 0 0
410 1 23.346702160925712 15.666155573488055 3.3933536881313158 0 0 0
1015 1 19.468042816777178 24.94154501603152 12.217294600571762 0 0 0
128 1 25.08363665364124 11.852037291854566 1.600170579671928 0 0 0
132 1 0.21799489195338853 15.930728701040326 1.704467110640764 0 0 0
413 1 24.65843220011486 13.732511873117458 3.3102102880198356 0 0 0
159 1 26.785077914109102 14.221278901793669 1.623409009665872 0 0 0
160 1 24.837495402160954 15.458615366982214 1.3905228881710796 0 0 0
414 1 26.564381723964466 15.976757635930902 3.4429171296944374 0 0 0
1007 1 12.829496609975873 24.483670195558457 12.850088070506526 0 0 0
163 1 1.924886014616953 17.69126389063581 1.6890711297659724 0 0 0
418 1 1.705680752798071 19.442069498232854 3.4114255016217956 0 0 0
168 1 3.3843587785075506 19.65633396720143 1.499875764523881 0 0 0
421 1 3.1630071462117453 17.697791497566122 3.225061029209209 0 0 0
417 1 28.171868451793095 17.628437542804548 3.018954143908414 -1 0 0
164 1 0.35116193548626473 19.9113257402328 1.7939851014863302 0 0 0
170 1 8.137636912019843 19.483096188470313 0.13636299609743174 0 0 0
167 1 5.220101424594658 18.046444266649686 1.689446290571877 0 0 0
172 1 6.526733255820488 19.78354951514199 1.8970206455446226 0 0 0
425 1 7.016302502345492 17.437776293686127 3.1419464749349713 0 0 0
422 1 4.603775759745951 19.498516513441732 3.3052363087502226 0 0 0
394 1 8.56593647752664 15.896130220504466 3.4979191000065524 0 0 0
426 1 8.694512800453634 19.180692821922314 3.0058316237420297 0 0 0
171 1 8.644111869817976 17.390012758145797 1.740516695394711 0 0 0
176 1 10.248436002508937 19.557085599439777 1.6448030516231869 0 0 0
429 1 10.461164024762565 17.78943893944566 3.443442698353225 0 0 0
175 1 12.439570533340984 17.497066090680708 1.8759982187886917 0 0 0
430 1 12.016254753465088 19.553942581090215 3.2338128879373578 0 0 0
180 1 14.283171500309194 19.664151112380424 1.759142359963939 0 0 0
433 1 14.13888246594229 17.845928342438043 3.346811660598063 0 0 0
434 1 15.977864113630428 19.574886567593328 3.28008572830891 0 0 0
179 1 16.028741344337426 17.85368876243665 1.8457029221752044 0 0 0
58 1 23.061088692358926 5.004402139900901 0.08299194104740737 0 0 0
183 1 19.416223160196846 17.665529546195906 1.517323497176533 0 0 0
184 1 17.703838010710307 19.361646020819666 1.4308455797990418 0 0 0
437 1 17.700213591571277 17.801555973545923 3.4594441318916096 0 0 0
438 1 19.081561099911564 19.346338256018388 3.5269348287986313 0 0 0
33 1 0.33240540661186885 2.9561748581828735 0.10827686052387386 0 0 0
174 1 12.44379590577637 19.426764069027477 0.24093739746337176 0 0 0
187 1 22.87337866422136 17.8073676988458 1.7617076968884913 0 0 0
188 1 20.978356820717135 19.432817958291636 1.429338469834952 0 0 0
441 1 21.01063898595921 18.22293349119581 3.228248307845855 0 0 0
442 1 22.670591624804956 19.670752474303296 2.961219585089109 0 0 0
192 1 24.824822215287092 19.869675872414962 1.5647451186667194 0 0 0
445 1 24.579860838785102 17.59758638637153 3.0872756916397823 0 0 0
191 1 26.23912054579909 17.76064309994741 1.4741200659631852 0 0 0
446 1 26.25098459919052 19.21934706235528 3.400198520294602 0 0 0
195 1 2.0376476568902535 21.52627980348588 1.5494844527458338 0 0 0
450 1 1.7638447124328824 23.16420235826464 3.2624583338842736 0 0 0
453 1 3.670541799950297 21.281555278510346 3.33127007885766 0 0 0
200 1 3.7847822953082866 23.36891772088018 1.9005018799508349 0 0 0
449 1 0.050879917539239525 21.356405516463884 3.6878878262118255 0 0 0
227 1 2.103540089317838 25.038492712183388 1.9739034997370304 0 0 0
1010 1 16.24334477637198 26.434478045389536 10.464199794899463 0 0 0
199 1 5.006660570209845 21.446887579412888 1.6916504585982342 0 0 0
204 1 7.220526530517311 23.068069836540285 1.758335252797416 0 0 0
454 1 5.792969983843907 23.177845511521568 3.4182620778611787 0 0 0
457 1 7.037628598106156 21.252891352230368 3.4504663733351966 0 0 0
458 1 8.744772211952414 23.021282426362795 3.4098325445645603 0 0 0
203 1 8.54990576735342 21.281161728412822 1.6179643486239574 0 0 0
208 1 10.291005945705857 23.234303249196913 1.418132734073909 0 0 0
461 1 10.393344805533564 21.65231947246021 3.560711143944559 0 0 0
462 1 12.278014676327215 23.440413352011376 3.175041720368055 0 0 0
207 1 11.961939492333729 21.513815480725075 1.6220568296859499 0 0 0
212 1 14.084889426395723 23.221808146097526 1.8616927107768018 0 0 0
465 1 13.920825247831678 21.232823678249815 3.255568402598817 0 0 0
211 1 15.672609572648431 21.403031119578916 1.8597243327357775 0 0 0
466 1 15.729771524001826 22.992471691689122 3.3637093489289103 0 0 0
78 1 12.378819712967399 8.68505407782936 0.26941742501095883 0 0 0
215 1 19.314283498234502 21.338565917424653 1.761458727098675 0 0 0
216 1 18.01678855552341 23.181299264757914 1.6039083676807264 0 0 0
469 1 17.51008308804366 21.329148689776353 3.2881747175178475 0 0 0
470 1 19.366610635859114 23.231996882731607 3.3262923152747716 0 0 0
219 1 22.976119377345945 21.510791562386093 1.3054042977319307 0 0 0
220 1 20.908001652433647 23.817568560929008 1.5268797459536274 0 0 0
473 1 20.726452729959316 21.123900758231542 3.5860697546659397 0 0 0
474 1 22.56132973355155 23.106938073984825 3.189063603777836 0 0 0
74 1 8.31947390945644 8.51707367757821 0.12846777940631604 0 0 0
1138 1 16.025451487702224 12.305222271807342 14.048706697865127 0 0 0
196 1 0.11390330549835781 22.879577742681793 1.6760405952203086 0 0 0
1182 1 26.555591552793768 16.160183148598716 13.967827339767345 0 0 0
477 1 24.582710389733993 21.420161049479155 3.3545261886580815 0 0 0
224 1 24.758967673629392 22.866297067495946 1.5854098117342301 0 0 0
223 1 26.6730316476073 21.466113379038426 1.8935791197893868 0 0 0
478 1 26.54153426164879 23.05900910847865 3.514599111619617 0 0 0
481 1 0.1917700254937067 25.062284598473866 3.364711504348834 0 0 0
62 1 26.962536099256987 5.335825102951035 0.2373018777130217 0 0 0
3 1 1.9224897743747051 0.1650341854603628 1.5097070950307043 0 0 0
1006 1 12.475249469258731 26.468292568683637 11.188178619102088 0 0 0
261 1 3.797419699831397 0.05842569780303744 3.88643872269676 0 0 0
482 1 1.9620163507291122 26.888283898575946 3.8940005407144826 0 0 0
485 1 3.992024438182611 25.181720084480816 3.302349963511382 0 0 0
232 1 3.7757971110247714 26.97884755508908 1.7379054025944358 0 0 0
257 1 0.25113360016653297 0.13480230574319857 4.06108287060564 0 0 0
1009 1 14.337756868891944 24.649240202501694 11.157886098135839 0 0 0
265 1 7.15860355594678 0.47823997844232474 3.7198248167169843 0 0 0
7 1 5.268142518579769 0.2503541491390156 1.5671067976946371 0 0 0
231 1 5.596995399319984 24.863134756626938 1.3894491616831812 0 0 0
489 1 7.094080488577726 25.259428158752026 3.4676349451704342 0 0 0
236 1 7.147230135178051 26.636863024905548 1.8461748489781924 0 0 0
486 1 5.4454324021257134 27.00438738649011 3.3411801340385097 0 0 0
487 1 5.243120041125831 24.764674149714427 5.195425517650197 0 0 0
1221 1 3.747714220729068 21.37735521267356 13.862988882807263 0 0 0
11 1 8.683118756511425 0.19674406201729847 1.6441632038673353 0 0 0
269 1 11.2406482269346 0.08289348996988366 3.8581670598524793 0 0 0
493 1 10.499745139422068 24.987939418707576 3.350669474640427 0 0 0
235 1 8.785551392028207 25.050171050570086 1.933876909418482 0 0 0
240 1 10.467284795265412 27.113070930227586 1.9330276851791433 0 0 0
490 1 8.77482380697597 26.958420385887013 3.614186754755415 0 0 0
89 1 21.472452929012466 7.150984326039782 0.37812395401415216 0 0 0
1012 1 14.530940119941143 26.47266043242238 12.453762835720333 0 0 0
15 1 12.604692762656523 0.19421991028923102 1.8889593241626823 0 0 0
494 1 12.654189140473312 26.737739388079312 3.4975075703425857 0 0 0
497 1 14.131917343413859 25.003995126293475 3.2798778515160314 0 0 0
239 1 12.151799778202715 25.167486867644286 1.5841546122297092 0 0 0
244 1 14.038916985335995 26.41099053370702 1.5933439976873265 0 0 0
498 1 15.809474438615014 26.791720846624035 2.994332395021501 0 0 0
243 1 15.894621233189575 24.603698038107456 1.5627810059335332 0 0 0
23 1 19.38834730813911 28.156504249608343 1.5555745424032539 0 -1 0
225 1 28.166963695583625 24.969189987355033 0.14800073873378536 -1 0 0
501 1 17.38315175283305 24.692944527688578 3.2772042862274993 0 0 0
247 1 19.245601081386365 25.29734706979101 1.671936020374819 0 0 0
248 1 17.430554943452517 26.400300297830324 1.4547205706092625 0 0 0
502 1 18.923498799765742 26.723327920200557 3.4950868417473804 0 0 0
27 1 23.227651057329023 0.26286655696312655 2.0169445995318056 0 0 0
281 1 21.346397422829916 0.3913378154504983 3.3650357214093662 0 0 0
505 1 21.00763071988221 24.94212160643377 3.4402820650817767 0 0 0
251 1 23.020294817391232 25.301162456755705 1.6351657034912732 0 0 0
252 1 21.18740236819516 26.783472829059328 1.9590267512521469 0 0 0
506 1 23.38262484052504 26.814158369493022 3.470206498553059 0 0 0
1194 1 8.710505384459882 19.344309487479766 13.895731842835275 0 0 0
138 1 9.045227280548929 15.571967109788348 0.4285171589503006 0 0 0
101 1 3.648877466750256 10.94305410712569 0.2670404406334527 0 0 0
1025 1 0.07796627494958988 28.02329543796685 14.08842397046825 0 -1 0
228 1 0.5559550186688691 27.005480552796154 2.043906341093913 0 0 0
31 1 26.479043445900032 0.07338929545824868 1.4825173254814523 0 0 0
256 1 24.970458906157955 26.487012877630907 1.6690422032027936 0 0 0
285 1 24.94253312599949 0.36972281441054006 3.694436581244949 0 0 0
255 1 26.487836117871673 24.73586962372193 2.0178855044433788 0 0 0
509 1 24.879948762804762 24.876970618448144 3.587857733577569 0 0 0
510 1 26.927788008089667 26.899926672681726 3.403884393357721 0 0 0
514 1 1.8624750385315132 1.8873621083899645 7.363073916886007 0 0 0
520 1 3.4261680160411907 1.6226392536972947 8.7491885155879 0 0 0
549 1 3.6456709490657118 3.5166272144117268 7.2611188113208 0 0 0
264 1 3.6093784287473776 1.781780396585568 5.518945458600433 0 0 0
547 1 1.5777913922666085 3.405363397421361 9.276966192637376 0 0 0
291 1 1.8717528750123118 3.482668200296377 5.43558996200819 0 0 0
259 1 1.6744945507071598 0.10186740343000693 5.606161317580013 0 0 0
517 1 3.509337867524435 28.275235684458185 7.011772574862453 0 -1 0
515 1 1.8689280245707969 28.067055427824258 9.207639223538786 0 -1 0
518 1 5.357851706593082 1.6050384500292119 7.324611507185731 0 0 0
524 1 7.32653172161995 1.6453530027439682 9.047196162713249 0 0 0
295 1 5.512481422142955 3.1107081367650395 5.541800589971498 0 0 0
551 1 5.544929151379321 3.272317222744214 9.25069458731089 0 0 0
553 1 7.318122724792843 3.132325844774878 7.452765978529693 0 0 0
519 1 5.342939691617664 28.20128420078031 8.89448476406831 0 -1 0
263 1 5.282124154283731 0.15112176486220263 5.67885695608544 0 0 0
521 1 7.281971318906028 0.18191879554058232 7.116508674689718 0 0 0
272 1 11.023469474090378 1.7230299542982288 5.486652069037389 0 0 0
522 1 9.004296512912727 1.3843062134094029 7.343198317475796 0 0 0
528 1 10.706337588239528 1.6165213578985305 9.175120235229784 0 0 0
557 1 10.999025327966917 3.8057789841881284 7.361670787434557 0 0 0
299 1 9.570640923810842 3.3761199403092252 5.162486522366126 0 0 0
555 1 9.142040061245513 3.370302714594059 8.90502594437245 0 0 0
526 1 12.252467829765973 1.7643244030115086 7.601920845671097 0 0 0
307 1 15.988155639765566 3.648795746050443 6.103000574641984 0 0 0
303 1 12.428341358200656 3.469219506105751 5.540041333569123 0 0 0
276 1 14.207539905832766 1.6864206263532464 6.066308178071442 0 0 0
532 1 14.203845078809165 1.7888466479645169 9.054628511086717 0 0 0
530 1 16.191097278865332 1.72542410088706 7.028233906565056 0 0 0
561 1 14.1474196752952 3.548915418652426 7.400770765901446 0 0 0
529 1 14.010313366235492 28.18632821146417 7.400901030799503 0 -1 0
563 1 16.01067128002679 3.256704194551302 8.77483406513365 0 0 0
275 1 15.605025246367505 27.871126541226808 5.644955606185218 0 -1 0
531 1 15.882631658438736 0.22969799738570343 9.169869638562316 0 0 0
559 1 12.352893947653675 3.7514211283832344 8.847008738245723 0 0 0
280 1 17.678628712109425 1.8886406152623387 5.308379463826801 0 0 0
534 1 19.475027264126982 1.5397450268594446 6.648278790508468 0 0 0
536 1 17.471882225004773 1.7459638344821564 9.223825400098399 0 0 0
311 1 19.440544912169713 3.6413933982940363 5.291166038462345 0 0 0
565 1 17.774414530670303 3.2355756838978067 7.242165131700225 0 0 0
567 1 18.97662773143258 3.6935308583131494 9.110553687045613 0 0 0
533 1 17.284213149805566 28.057644510931183 7.341607296840615 0 -1 0
279 1 19.313218634840762 28.144607355124776 5.3259739552724685 0 -1 0
284 1 21.151452875950266 2.0017792088402655 5.2507827478005344 0 0 0
315 1 22.680073174036913 3.9270209378637384 4.998919952963523 0 0 0
538 1 22.5117444370803 2.101256411694763 7.286432296236025 0 0 0
569 1 20.83530173865649 3.4882760055934776 7.216976668125789 0 0 0
540 1 20.90830155491547 1.885649666145632 8.989008652161024 0 0 0
571 1 22.887353047437184 3.5445159714977437 9.129187262453616 0 0 0
283 1 22.98228923926633 28.24115458804616 5.1542773072475185 0 -1 0
537 1 21.264645265917682 0.09704272792467657 6.784440670176008 0 0 0
516 1 28.261650615466547 1.5305633707894484 8.92932991537249 -1 0 0
545 1 27.9233478640593 3.6514065884521485 7.340765104150941 -1 0 0
260 1 28.151182297438066 1.978859061886579 5.730380264839581 -1 0 0
288 1 24.768003531093726 1.8593886561631428 5.572744683694967 0 0 0
544 1 24.75379510715366 1.6234384520421932 9.290080213775319 0 0 0
542 1 26.51195554468096 1.795712796303489 7.378872735594827 0 0 0
319 1 26.696034237955082 3.6467129113677728 5.479992113384472 0 0 0
573 1 24.771817051313942 3.7497162629967606 6.830241409474409 0 0 0
323 1 1.6586274878108915 6.956496443261341 5.2946361103453246 0 0 0
546 1 1.7416686503427274 5.302618269122403 7.307656208284315 0 0 0
581 1 3.2281067081056825 7.042790731537862 7.2184066861658325 0 0 0
579 1 1.6905653707095865 7.108655697122978 8.960324014995376 0 0 0
296 1 3.7380230704424835 5.185517746641422 5.327789431811712 0 0 0
552 1 3.2179588726807213 5.116075387353646 9.165589987306024 0 0 0
577 1 0.053141974590380864 6.9432178159904385 7.340367796838619 0 0 0
548 1 0.06108734799143144 5.173812629328293 9.088294836163502 0 0 0
327 1 4.981594317779514 7.169304249844161 5.391199128061762 0 0 0
300 1 7.231241420648976 4.85707434816658 5.501818618792357 0 0 0
550 1 5.443460944460087 4.838422798593474 7.646348501202677 0 0 0
585 1 6.923532846126161 6.788927797573708 6.808809108058925 0 0 0
583 1 5.69623784442743 6.619569666125183 9.193755229597237 0 0 0
556 1 7.784487141470534 5.15381296773123 8.771145767769047 0 0 0
331 1 8.830984225813244 6.743669535081662 5.115842645181487 0 0 0
304 1 10.696305784467729 5.127729133869353 4.9708578187036565 0 0 0
554 1 9.064960009062727 5.049756262060424 6.766025044155375 0 0 0
560 1 10.681198380736534 5.422041157066064 8.976493139678697 0 0 0
587 1 9.080914626746845 7.148137435577635 8.35921966663395 0 0 0
589 1 10.654266421426048 7.1181975712561 6.623527493211123 0 0 0
335 1 12.693182906228332 6.675845111193488 5.282794272350185 0 0 0
591 1 12.591288093201474 7.549549405710989 8.68834923792761 0 0 0
308 1 14.31833177206459 4.90795456362588 5.48138988770509 0 0 0
558 1 12.183144517947568 5.550047807861424 7.286293825093256 0 0 0
593 1 14.177200869834293 7.059942061120518 7.273601718220996 0 0 0
564 1 13.778927889260146 5.407173340418973 8.760225567136299 0 0 0
562 1 16.29686373946217 5.333379266374535 7.338021283905275 0 0 0
339 1 16.05304600765208 6.906932483999336 5.547323379332665 0 0 0
595 1 15.878665999145923 7.140374877668501 8.838360630577752 0 0 0
312 1 17.47512877641144 4.9720924049293 5.512215807293524 0 0 0
566 1 19.547673588522798 5.280931716111876 6.8789124129062245 0 0 0
597 1 17.95342107348093 6.878290683001663 7.230533549207357 0 0 0
568 1 17.605195270196383 5.471585740763642 9.421557105696023 0 0 0
599 1 19.639803707678826 6.9007671695920365 9.067964694039913 0 0 0
343 1 19.521882874919196 7.075005881945195 5.440447356063018 0 0 0
347 1 22.57529165116653 7.477879837749941 5.336776226173887 0 0 0
316 1 21.30993062310988 5.704991408026912 5.429051994751013 0 0 0
570 1 22.99853350431492 5.157683563680936 7.6009480408906684 0 0 0
601 1 21.089989203457947 6.966706764252548 7.446334624863802 0 0 0
603 1 22.60958008756344 6.990264675343838 9.032440502430374 0 0 0
572 1 21.179694557771377 5.070326149632228 8.88805154095146 0 0 0
575 1 26.527918555415805 3.252336638430721 9.34688978615282 0 0 0
292 1 0.2508180339542039 5.000468759360539 5.546651035348534 0 0 0
320 1 24.77562853427857 5.540157604263208 5.340647055157879 0 0 0
576 1 24.599564509992405 5.353821806099619 8.876896675153406 0 0 0
605 1 24.672927986339417 6.86397179144735 7.233417690992102 0 0 0
351 1 26.979411451564182 6.888914530089345 5.4637531398718995 0 0 0
574 1 26.641328837313253 5.414449002312012 7.413645311882688 0 0 0
607 1 26.816123108614903 7.099233501264718 8.995358723064038 0 0 0
578 1 1.5360707445480437 8.66107500683235 6.820773498574367 0 0 0
355 1 1.6621478948447743 10.50431354028034 5.449970531962324 0 0 0
611 1 2.197802201212486 10.881873086937214 8.717358785990985 0 0 0
613 1 3.3447212994470106 10.066210347837602 6.881238343443555 0 0 0
584 1 3.313529864407719 8.819794368459778 9.099237042197325 0 0 0
328 1 3.454522460891104 8.62658235595046 5.277000650996116 0 0 0
610 1 1.617117562597582 12.663406814061272 7.272473837658406 0 0 0
356 1 0.03577615376340049 12.381189821378998 5.7602161957062705 0 0 0
616 1 3.6223238202308656 12.648358274882323 8.47506477349251 0 0 0
324 1 0.17576302328758686 8.649683487743836 5.030695306380723 0 0 0
580 1 0.17257439208732686 9.051425482923047 8.733658138493174 0 0 0
612 1 27.879302406052908 12.189397871959466 8.585391410527519 -1 0 0
359 1 5.527777368818212 10.2264771179137 5.634234094598739 0 0 0
582 1 5.119611642306694 8.66647685527133 7.403750559448435 0 0 0
617 1 7.16520192813091 10.22052523450737 7.147867124586126 0 0 0
615 1 5.115490447516312 10.463146941522352 8.6648011675296 0 0 0
588 1 6.940020635615809 8.915044155850373 8.97227646217301 0 0 0
363 1 8.837049396807117 10.686726843204278 5.317421452874592 0 0 0
586 1 8.857340305641333 8.527047875381724 6.571947397818734 0 0 0
336 1 10.715653924230732 8.917388206913197 4.841735697360862 0 0 0
621 1 10.904333399548564 10.507138957687657 7.240711288804049 0 0 0
619 1 8.449132683240693 10.782792714445446 9.097461377992243 0 0 0
592 1 10.44530872226549 8.950277134415275 8.96932775632284 0 0 0
367 1 12.516741100486232 10.337997546618785 5.436849047549552 0 0 0