LAMMPS data file via write_data, version 29 Oct 2020, timestep = 300000

2048 atoms
1 atom types

0.016391965074625148 28.335608034924768 xlo xhi
0.016391965074625148 28.335608034924768 ylo yhi
0.016391965074625148 28.335608034924768 zlo zhi

Masses

1 58.933

Atoms # atomic

258 1 1.65571567800209 1.8155791266125907 3.9230012382700608 0 0 0
8 1 2.8958643949565235 1.9985791899335812 1.9131753130308633 0 0 0
293 1 3.546741278262143 3.7745014493863547 3.0234491919153084 0 0 0
289 1 0.1677151628555563 3.735845521984612 3.707593457490437 0 0 0
35 1 1.553288723518635 3.609423436168649 1.7987919119982168 0 0 0
261 1 3.6539598078280946 28.117575984817492 3.4584429273364967 0 -1 0
3 1 1.570848474649042 0.11888422940293426 1.9224561686625374 0 0 0
12 1 6.625827769005292 1.8376736549323764 1.4824971365782778 0 0 0
262 1 5.067920416741039 1.8114170481739647 3.076436528463277 0 0 0
297 1 7.058667616562763 3.9025717894677894 3.4160811978970997 0 0 0
39 1 5.092287998755421 4.366930649431935 1.2892505348149073 0 0 0
7 1 5.073207364123396 0.07572447385135114 1.6647784212323398 0 0 0
266 1 8.468341773804061 2.0277842129132426 3.294130310673013 0 0 0
16 1 10.179944026781909 1.5100880294488326 1.7155861506803964 0 0 0
301 1 10.555348673374764 3.4317208150637972 3.019319342740959 0 0 0
43 1 8.346094180277328 3.2187577776811467 1.135559839297182 0 0 0
11 1 8.525261088162116 0.020254198006206536 1.3862005176280416 0 0 0
269 1 10.786072993844485 0.5344408834569304 3.754108681935388 0 0 0
129 1 0.5178689697795192 14.299040270658015 0.2561544752032592 0 0 0
47 1 12.381678038881438 3.8924728366911396 1.7168267740074519 0 0 0
270 1 12.63762733334898 1.7232659158016064 3.2101132919022186 0 0 0
20 1 14.270231421621478 2.166258617730654 1.5031691930895419 0 0 0
305 1 13.96404232123968 3.75335252661183 3.35384457580607 0 0 0
51 1 16.0484947822142 3.3029877534461507 1.5894953189493557 0 0 0
274 1 15.647720933707278 1.4861799624825507 3.5029079016430518 0 0 0
209 1 14.093300320920667 21.569994663082138 0.20955699136912903 0 0 0
146 1 15.849219007770552 16.089601076846947 0.4280681540067422 0 0 0
24 1 17.7597458426818 1.8644945758881124 1.7628936890111606 0 0 0
278 1 19.65992719721441 1.9563866980301794 3.354198619479638 0 0 0
309 1 18.03218028866611 3.90339354289052 3.050402538972086 0 0 0
55 1 19.811760543270413 3.722788078586278 1.5560153604574312 0 0 0
23 1 19.780500136743154 27.846732638632158 1.9998747455823842 0 -1 0
1250 1 1.4261226526411102 26.923474742957684 14.08822735479881 0 0 0
19 1 16.233279453257158 27.87717840514038 1.476116664035683 0 -1 0
277 1 17.67861111475259 27.942555792320682 2.9802310382086876 0 -1 0
28 1 21.29419687019828 1.9879443779654347 1.5832237946922392 0 0 0
282 1 23.042472022930923 1.9276998566047268 3.2355003929763084 0 0 0
313 1 21.37372154079389 3.58327768096113 3.747843890973284 0 0 0
59 1 22.977122350646123 3.8564187020902234 1.2828860454578115 0 0 0
27 1 23.151282740877868 28.155294306093676 1.822156752770151 0 -1 0
202 1 8.434881032147489 22.889458809498297 0.43514178115154784 0 0 0
4 1 28.246863723857615 1.9745988395684533 2.1704018356235615 -1 0 0
32 1 24.63794398923647 2.0391091186851704 1.3230225838230818 0 0 0
286 1 26.449490788831664 1.9081391408681299 3.5935533807791145 0 0 0
63 1 26.60781882727626 3.519692331592595 2.0398088582941734 0 0 0
317 1 24.622524221066715 3.561391345653836 3.243942418368269 0 0 0
31 1 26.81536904992866 0.5702463519793168 1.8832989564902873 0 0 0
67 1 1.5885502406086125 7.202496428002075 1.70412227180331 0 0 0
290 1 2.050703522726101 5.416998297087659 3.578310345714884 0 0 0
325 1 3.689062173056651 7.334967417475265 3.151594657733402 0 0 0
40 1 3.2379997245265324 5.701310179236132 1.5814176982029684 0 0 0
36 1 0.06235417246062035 5.226971544844158 1.9008531689342634 0 0 0
1161 1 7.39420400461333 13.484150911781246 13.924777995058834 0 0 0
44 1 7.195714926191585 5.298338877283639 1.444694643235739 0 0 0
71 1 5.61606408512251 7.164652674103277 1.5664200018972578 0 0 0
294 1 5.166831058409499 5.591772326019587 3.2148448006820565 0 0 0
329 1 7.000816755718274 6.537247956427181 3.456454602404099 0 0 0
48 1 10.20064892399375 5.346924625036741 0.9362439012673923 0 0 0
75 1 8.974165595588067 6.899335218475224 1.3266493182402699 0 0 0
298 1 8.74682752672809 5.208133175715012 3.2781008799499873 0 0 0
333 1 10.467008864579075 7.1446598561980155 3.456775735788007 0 0 0
79 1 12.457482100156943 6.8446696069369315 1.5884963580779823 0 0 0
302 1 12.166934180616881 5.356744188716316 3.458969132247451 0 0 0
52 1 14.19802060956046 5.190369616241077 1.7919889924709682 0 0 0
337 1 14.198997656285453 6.964559656627876 2.884813800239897 0 0 0
306 1 16.268120310825193 5.697553594980419 3.143547796923596 0 0 0
83 1 15.97343770967948 7.062322640440014 1.2296570304543117 0 0 0
56 1 17.94207217049772 5.7429940795278265 1.4968754994776745 0 0 0
87 1 19.757057216124473 7.098246398481866 1.4386874566914025 0 0 0
341 1 18.12343890745874 7.241812208674138 3.2249209315297525 0 0 0
310 1 19.841957423010943 5.268749547681551 3.50427821561347 0 0 0
1021 1 24.740464089185398 24.83259553011416 10.717897995663739 0 0 0
60 1 21.436474375282426 5.100992048143371 1.3599830192455837 0 0 0
91 1 23.19588757284919 7.029121334680023 1.5610910184302478 0 0 0
314 1 23.2439477206144 5.17999940640922 3.2889274444131607 0 0 0
345 1 21.257041338356444 7.524094033775664 3.5330521017737477 0 0 0
1022 1 26.574670697081952 26.463732252511583 10.656957956413217 0 0 0
29 1 24.90544112989416 27.912436192233603 0.2382435028905785 0 -1 0
321 1 0.023635320321726994 6.9623234929783475 3.418403112809333 0 0 0
349 1 24.79369413873366 7.235113047635583 3.436596435696897 0 0 0
64 1 24.94458833019478 5.375744127705645 1.6561867200152254 0 0 0
95 1 26.719265268898855 6.941708227133848 1.607124505502746 0 0 0
318 1 26.51717841788023 5.39600345704007 3.4133520983656216 0 0 0
1117 1 24.58121887512803 7.129240023795235 14.042350242047274 0 0 0
1265 1 14.012294142632532 24.9959599644117 14.03297560025786 0 0 0
99 1 1.8458226183354918 10.608101823460792 1.6790669179214126 0 0 0
322 1 1.844007026589922 8.988791060865529 3.480818610101237 0 0 0
72 1 3.8230737207573027 9.357419417953448 2.041140778112365 0 0 0
357 1 4.369693003665246 10.725861309093263 3.584870544445175 0 0 0
104 1 3.9273733832168496 12.839015436446259 2.1119771369068636 0 0 0
222 1 26.67727645490399 22.909151247216798 0.051341625648548994 0 0 0
76 1 7.228021304235057 9.198118012540943 1.545713435635212 0 0 0
103 1 5.661636153325432 10.946828454264226 1.6577888859941934 0 0 0
326 1 5.876437350705918 8.680191190069865 3.2621944404216583 0 0 0
361 1 7.348663790722129 10.640827639868608 3.432241991714638 0 0 0
358 1 5.550457846492813 12.586047454726959 3.59673654422863 0 0 0
108 1 7.3625287275021165 12.275073842253981 1.5603174611598565 0 0 0
1024 1 24.65673907977495 26.486947958462967 12.57700583302887 0 0 0
330 1 8.980419135639021 8.834338038144761 3.135181221150961 0 0 0
107 1 9.345647902989231 10.600204302057447 1.5887168055707397 0 0 0
80 1 10.666996001222786 8.397372122433731 1.4362319567963537 0 0 0
365 1 10.952940353232133 10.314134959099546 3.873176849197499 0 0 0
334 1 12.521409339409152 8.610177060443561 3.1801277523629077 0 0 0
111 1 12.234439945776774 10.248627519365195 1.7218102241820872 0 0 0
84 1 14.323433242934097 8.855557375495588 1.6229995447345695 0 0 0
369 1 14.446853572732302 10.508220390692713 3.266959528572078 0 0 0
338 1 16.185658173992106 8.603976708281794 3.3683696837047297 0 0 0
115 1 15.774272877414651 11.113708912940181 1.4728321850843251 0 0 0
116 1 13.852289547639476 12.290146186528547 1.301117344421759 0 0 0
366 1 12.63741267647276 12.870028456807523 3.6008502792440664 0 0 0
1023 1 26.13109153667773 24.840656740639368 12.525329925009796 0 0 0
342 1 19.21216490037563 9.3585719922151 3.5320090779750193 0 0 0
88 1 17.867358215859483 8.962727008951486 1.6620922369597364 0 0 0
373 1 17.56280217545586 10.709099448997437 2.804078780012922 0 0 0
119 1 19.65023164323414 10.821266774461474 1.2851817377820627 0 0 0
205 1 10.472399737410633 21.10702092062964 0.38766309628961565 0 0 0
92 1 21.378770209255475 9.044614152062403 2.0683886699765774 0 0 0
346 1 23.28460699715687 8.940634424423276 3.499575466776455 0 0 0
123 1 23.503719725299657 10.222570760319009 1.6208816294366604 0 0 0
377 1 21.865784988550473 10.939499916152633 3.364317621674027 0 0 0
96 1 25.302135397071922 9.10906927945229 1.9974934228290482 0 0 0
214 1 19.64004600733962 22.74204109794081 0.5130397491899912 0 0 0
133 1 3.5139738258584967 14.540072030511531 0.4702312859779092 0 0 0
353 1 28.230540022308144 10.766731271722238 3.4452041995420615 -1 0 0
68 1 28.167166756870767 8.952533918339197 1.9125230829192976 -1 0 0
381 1 24.597704763683016 10.862939081717286 3.8945289144381006 0 0 0
127 1 26.654111489380725 11.044201837123616 1.284093959106113 0 0 0
350 1 26.73413519423312 9.13177249982346 3.8098003702111733 0 0 0
128 1 24.57941154307899 12.705452754350457 1.6217826491640777 0 0 0
1045 1 17.807207455435506 0.20790174572834702 13.796561268648677 0 0 0
382 1 26.478777626597168 12.31528489051948 3.5085199447661077 0 0 0
201 1 6.739853451772748 21.11972350689582 0.46986993269145944 0 0 0
354 1 2.0456067098012367 12.48053469575169 3.4171174386149903 0 0 0
131 1 1.842019792672436 14.739777119565366 2.1587178867763357 0 0 0
389 1 3.809763946616208 14.291304117733581 3.808952213348732 0 0 0
136 1 3.963009932318738 16.057809219438603 2.0547020869008104 0 0 0
386 1 1.9258508775113548 16.224156627383017 3.7165857150955532 0 0 0
100 1 0.5918291160394854 12.680640490675863 1.5886043811841315 0 0 0
153 1 20.816690861845366 14.796015233653652 0.07401370821257514 0 0 0
170 1 8.498817998683553 19.39276888630903 0.323887994947348 0 0 0
135 1 5.670546293929629 14.40829116915536 1.4688487779521913 0 0 0
393 1 7.2800050742725535 13.957098621489369 3.6386130927541607 0 0 0
390 1 5.321917546918974 16.39129883945083 3.606619591273828 0 0 0
185 1 21.165396819290745 17.544216387003914 0.27717820426297257 0 0 0
140 1 7.32067232993356 16.23362987346292 2.2036815487290937 0 0 0
210 1 15.776643967894753 22.60834494292442 0.13543439087402376 0 0 0
1246 1 26.219228457422467 22.824910503449363 13.89436605341472 0 0 0
145 1 14.186371742257103 14.536794448259037 0.1507044439052849 0 0 0
362 1 9.107331025178937 12.347038900118351 3.5162420927942115 0 0 0
112 1 10.762187694748613 12.697005463642371 1.736712028857455 0 0 0
139 1 8.969543164255207 14.547002637662425 2.090580796215252 0 0 0
397 1 10.68084261345899 14.390947868343064 3.572727135397552 0 0 0
144 1 10.484578617408578 16.32246912338861 1.9710537211209158 0 0 0
143 1 12.633412466615678 14.230356305498303 1.7923448554208563 0 0 0
394 1 8.855556887623338 16.029388010600986 4.000768494588943 0 0 0
161 1 28.02947931650903 17.620041542196958 0.4486122984614162 -1 0 0
149 1 17.650877993963768 14.455567982508283 0.23479867262715695 0 0 0
101 1 3.5808081006334804 10.50335668937228 0.06504440041177718 0 0 0
401 1 14.279168108049626 14.00273143446529 3.548961610410481 0 0 0
370 1 15.635584092120322 12.353910901953668 3.5648119662131177 0 0 0
148 1 14.218201100801622 15.847341716830114 1.7594739520917075 0 0 0
147 1 16.262208158117613 14.087272889440207 1.985273720234477 0 0 0
402 1 15.822576300575513 15.789664421197209 3.9869279910068998 0 0 0
1054 1 26.839014486033825 2.2850454800209103 13.788404492417593 0 0 0
182 1 19.538349136913634 19.508972633064538 0.4621751642100924 0 0 0
217 1 21.28571351644879 21.346838024050093 0.268523243366514 0 0 0
120 1 17.919542740498027 12.408274187765628 1.4305296657806439 0 0 0
374 1 19.44106504916798 12.349246272499034 3.5956546636219424 0 0 0
405 1 17.875008905356268 13.928046768483012 3.7202747499853857 0 0 0
151 1 19.717329846416167 13.829864847828285 1.9716927153218309 0 0 0
152 1 17.522440485040512 15.849575387132496 2.4855932900676634 0 0 0
1233 1 14.562833643386304 21.59630516202436 13.87667216633607 0 0 0
797 1 24.75032482647679 0.49777352129415087 10.451723147367266 0 0 0
14 1 12.418850684823896 1.8690908871087617 0.1397821506359517 0 0 0
378 1 23.229878015851337 12.615884167606787 3.467287303932631 0 0 0
124 1 21.488418568144564 12.43386254381804 1.667418076146776 0 0 0
155 1 22.65785744905701 14.812962725046683 1.6207674176935332 0 0 0
409 1 21.363912910658147 14.170615504130044 3.6818063430089882 0 0 0
132 1 28.123814815975344 15.921543913428433 2.0062051656846047 -1 0 0
385 1 0.15312448607600682 14.0126078337259 3.5358321255526786 0 0 0
413 1 25.29971721041016 14.146585957883959 3.8431223920542177 0 0 0
159 1 26.761895656006562 13.804273284569998 1.83074649327406 0 0 0
414 1 26.96479605132295 15.881461616428485 3.897746189964671 0 0 0
190 1 26.53557823783797 19.561299437412966 0.0753470682106464 0 0 0
237 1 10.48341883960682 24.791916681267917 0.4974726649029236 0 0 0
163 1 1.7228514659408263 17.689516461335323 1.9565314020183426 0 0 0
418 1 1.8591363079189926 19.13311630623036 3.6945676907875518 0 0 0
421 1 3.606196037447217 17.690729847323038 3.802015614679582 0 0 0
168 1 3.5868029570492213 19.308327745628805 1.7508335021296926 0 0 0
419 1 1.878683420478666 17.49793059869437 5.813171320588157 0 0 0
167 1 5.634371578384957 18.096239481252894 1.83454773495944 0 0 0
172 1 7.0033551828525304 19.663190762321136 2.010180809323282 0 0 0
425 1 6.916743707032113 18.063593713173695 4.199088153794245 0 0 0
422 1 5.182870089540259 19.52003174207928 3.6988815343633004 0 0 0
50 1 15.906471697025648 5.351595558080337 0.0653279441551709 0 0 0
426 1 8.859406734376899 19.44489955483607 4.016439319079016 0 0 0
171 1 8.531864211527486 17.908239698844437 1.8929353937030344 0 0 0
176 1 10.353602372891707 19.43984021511835 1.9744746984819261 0 0 0
429 1 10.45161593977788 17.75044019753962 4.051712624689879 0 0 0
398 1 12.42434572192852 15.774215961671892 3.9051474416097944 0 0 0
799 1 26.647336549946168 0.22342051075735148 12.153013062192969 0 0 0
795 1 23.171019839100442 0.29573027457258094 12.283109182252415 0 0 0
175 1 12.405224550915076 17.79948820276065 2.1816871276483663 0 0 0
430 1 12.025606071938235 19.48470382477942 3.548583741486336 0 0 0
180 1 14.195688281957421 19.51335642766587 2.5637529001776658 0 0 0
433 1 14.230129427320664 17.603420716170774 4.112746508631083 0 0 0
434 1 15.902924510602015 19.690796805015836 3.9607493369657583 0 0 0
179 1 15.284913482233012 17.579927382266664 2.243787825024652 0 0 0
177 1 13.969552472404777 17.542921741888115 0.24222026153357382 0 0 0
173 1 10.597240041334372 17.93450422184265 0.07584199686214416 0 0 0
406 1 19.52778534098876 16.146990466585127 3.667651904400758 0 0 0
183 1 18.89770306355827 17.54465397961357 1.8421409260046409 0 0 0
184 1 17.311080654032125 19.130136665593486 2.1159473348318913 0 0 0
437 1 17.16836482710562 17.604594968163948 3.808022361238413 0 0 0
438 1 18.94884271699562 19.34223056286566 3.415224998235753 0 0 0
102 1 5.060044066566462 12.604771809294034 0.049831063106853396 0 0 0
156 1 21.170608911748765 16.264351463798636 1.9461997962816717 0 0 0
410 1 23.204217241911845 15.679370290742263 3.718469457499498 0 0 0
187 1 23.444131296356044 17.37244049998731 1.8518410048868188 0 0 0
188 1 21.683833352673354 19.584485511711655 1.664098466539876 0 0 0
441 1 21.05924080263125 18.250890756804324 3.566334725414172 0 0 0
442 1 23.174537848191157 19.247161830829295 3.537883161994232 0 0 0
160 1 24.878512492786772 15.387139469842229 2.2155548793032644 0 0 0
417 1 0.10676384638563505 17.829389624589773 3.2683917404647134 0 0 0
164 1 0.2177030677776952 19.696929355095865 1.762812406163992 0 0 0
445 1 24.70505494064474 17.27265686271213 3.805080663611907 0 0 0
192 1 25.11591470157831 18.997784525336424 1.6836929380000207 0 0 0
191 1 26.166524013870497 17.08431805127655 2.007586424921451 0 0 0
446 1 26.699414029149665 19.397487941943066 3.3745231207426842 0 0 0
6 1 5.030906782041355 2.225756456126404 0.18893431793694018 0 0 0
195 1 2.1648331501619937 21.439507956522135 1.4844222726871328 0 0 0
450 1 1.8258543400221878 23.112493497000294 3.4170398100963477 0 0 0
200 1 3.755688747886301 23.43563667430765 1.929059428675389 0 0 0
453 1 3.515297336318844 21.30244955802632 3.8489399086172034 0 0 0
174 1 12.411070460676637 19.73186189466477 0.2559462433235517 0 0 0
199 1 5.354090051412331 21.38565089836659 2.2289390532338738 0 0 0
204 1 6.512443938374715 23.33178764441455 2.049341047343649 0 0 0
454 1 5.1988454893917835 23.232469153386926 3.77756307620296 0 0 0
457 1 6.688596633854115 21.29555514047179 3.90696441358961 0 0 0
1057 1 0.4786911401457521 4.037844760300008 14.025826332689586 0 0 0
458 1 8.594846245772288 23.061743011818546 3.151413874910675 0 0 0
203 1 8.913463396186588 21.199413527331078 2.1202743204417067 0 0 0
208 1 10.355244237603728 22.790247400234826 1.980797395831401 0 0 0
461 1 10.867409418699111 21.17623442514693 3.9542283904655053 0 0 0
207 1 12.270303148221332 21.134961975162593 1.9761629624198735 0 0 0
462 1 12.451003204803797 23.24688178456943 3.6273795185766464 0 0 0
212 1 13.91541833474589 22.923321848235428 1.85631634816087 0 0 0
465 1 13.688576399010788 21.37266633342347 3.694698067010404 0 0 0
211 1 15.671428142999916 21.681411136170425 2.3593942668514587 0 0 0
466 1 15.520058071183849 23.480335121989867 3.8656684438545392 0 0 0
1019 1 23.23430796859297 24.914210973521158 12.440083876727392 0 0 0
1121 1 28.282594375862228 10.507353606207994 14.079260179118618 -1 0 0
216 1 17.505280655090047 22.990512605509142 2.2180966939988767 0 0 0
469 1 17.429449063832244 21.205779099947243 3.6261158245527523 0 0 0
470 1 19.62098203627004 23.090914361115455 3.6188416693191825 0 0 0
215 1 19.286005405862493 21.257607076675296 2.1667421704426646 0 0 0
1018 1 23.260512525412487 26.806169705246436 10.399738235470327 0 0 0
219 1 23.470063038514745 20.977312130945883 1.6472214601028032 0 0 0
220 1 21.43667767739128 22.532973751499288 1.9820868902246715 0 0 0
473 1 21.420863750234485 20.834719799897478 3.429782756905511 0 0 0
474 1 22.88189755048166 23.05033079214364 3.571364838095794 0 0 0
449 1 0.6689311221423799 21.215449259571447 3.18532087890458 0 0 0
196 1 28.29275905015508 22.967307333630107 1.5866722582130968 -1 0 0
224 1 25.140036618696428 23.15105888130882 2.044896505319192 0 0 0
477 1 24.83966327451264 21.470770491829292 3.4751952846047427 0 0 0
223 1 26.558486193321368 21.009845579814524 1.6163074440208876 0 0 0
478 1 26.7340257908363 22.766261194274545 3.4562502948819067 0 0 0
138 1 8.666514591735726 15.804592578477818 0.3566744940880697 0 0 0
257 1 0.0423679170743133 28.322305518045034 3.8028616723528232 0 -1 0
117 1 17.57054411112164 10.451627362127695 0.04400953270084041 0 0 0
485 1 3.3112552884612856 25.248318622681154 3.5051353919912285 0 0 0
227 1 1.7982460522883121 25.129110568357266 1.770007639750896 0 0 0
482 1 1.732279239794951 26.831151622599734 3.2956172275968085 0 0 0
232 1 3.22130677715124 26.923860987539236 1.480103749193479 0 0 0
265 1 6.659366965636088 0.22698196066354775 3.5086107599143466 0 0 0
231 1 5.079772474028208 25.122914446845655 1.5359701141879436 0 0 0
489 1 7.327121750213041 25.087347275105078 3.535294237405349 0 0 0
236 1 6.867818386135874 26.666208456359847 1.7243306231011868 0 0 0
486 1 5.2794061802485 26.531505234255427 3.7567136986917644 0 0 0
213 1 17.626212850982697 21.029118385162107 0.3121822004145506 0 0 0
178 1 15.61003732130224 19.78297614552722 0.8822223489708095 0 0 0
235 1 8.332249071549892 25.05471499478267 1.577655813678522 0 0 0
493 1 10.182019699706313 24.591060371717745 3.5184241889701546 0 0 0
490 1 8.757536276686228 27.1801339537878 3.466401173280607 0 0 0
240 1 10.38817352371313 26.561747053013832 2.1140461069897687 0 0 0
494 1 12.325732490673422 26.58113713920405 3.1550972235231485 0 0 0
1101 1 11.204592520663775 6.988636009745956 13.87029970203336 0 0 0
273 1 14.313201806967617 28.113471094738443 2.8522123948753237 0 -1 0
15 1 12.027711768692509 28.272347247467543 1.4987701315724429 0 -1 0
239 1 12.204627350352004 24.75944163821235 1.8614594625558463 0 0 0
497 1 13.726203200860926 25.119262027082357 3.8002128266881785 0 0 0
244 1 14.140652861621279 26.37208884138385 1.407883132692127 0 0 0
243 1 15.640445582868345 24.5141417281801 1.549557338816447 0 0 0
498 1 15.954444968630778 26.26196200261623 3.3689372077039526 0 0 0
1153 1 28.047397885984275 13.953252295724585 13.960963756084192 -1 0 0
501 1 17.63788407022319 24.475012539897882 3.874433244564922 0 0 0
247 1 19.903853113516863 24.53893997106893 1.7310505933259033 0 0 0
248 1 17.608369509838447 25.992371009447986 1.7256668413599754 0 0 0
502 1 19.121519192244158 26.127157328416608 3.5190500883132305 0 0 0
1020 1 21.21734226912129 26.839537893296978 12.185188361332724 0 0 0
281 1 21.564960661633826 28.328947377325377 3.2546733941223707 0 -1 0
251 1 23.556742335807062 24.64507063966623 1.7274336146365412 0 0 0
505 1 21.322096123723245 24.479815989213336 3.0580446472688916 0 0 0
252 1 21.639411964595755 26.38418768881894 1.7487771399396448 0 0 0
506 1 23.479610037371483 26.657400308680426 3.6159392266230914 0 0 0
256 1 25.042073938162957 25.962542599260384 1.8597218990411213 0 0 0
1017 1 21.476295288087197 24.539651547254646 10.453656884070073 0 0 0
197 1 4.106324489365158 21.04847940389978 0.14244736517683618 0 0 0
285 1 24.92954303292543 28.205149383787226 3.1400716602900975 0 -1 0
481 1 0.13724069177665846 24.837986834482574 3.4748181490433194 0 0 0
228 1 28.30888822652297 26.812478383956158 1.9636536278861052 -1 0 0
509 1 24.778151712194635 24.674525669226867 3.9871058245781694 0 0 0
255 1 26.623074171089552 24.695430299018692 1.9531692739935 0 0 0
510 1 26.502030885366313 26.56450324838689 3.6351797892503432 0 0 0
291 1 2.319193402035821 3.617709238112084 5.2133408761468765 0 0 0
514 1 1.852811653513583 1.9079202130832587 6.804893851467106 0 0 0
520 1 3.3979045718488057 1.804186007331182 9.12346908879081 0 0 0
547 1 2.210329076849909 3.753378629791429 8.686999674711954 0 0 0
549 1 3.892275817320383 3.7171043651267404 6.784298218151777 0 0 0
545 1 0.09288932849468749 3.5577898870303644 6.785034494374072 0 0 0
264 1 3.62698586088928 1.5818753547806157 4.86180426667571 0 0 0
260 1 0.08306073103733472 1.73343620972055 5.362300664490981 0 0 0
295 1 4.75258567863973 3.5862872598403803 4.705473404119142 0 0 0
268 1 6.481709661933944 1.5801424454702435 5.131564831865661 0 0 0
518 1 5.058574479661254 1.929777434258373 7.136407764776794 0 0 0
524 1 6.6319591851005075 2.1496917566491405 8.807382640904784 0 0 0
553 1 6.301412987865092 3.6800472129322146 6.71926658025138 0 0 0
551 1 4.946846557738512 3.627188632446887 8.862658980412354 0 0 0
521 1 7.17761327088744 0.18902740407559196 6.923104520444314 0 0 0
299 1 8.609380285929003 3.698779130416869 5.044876252408685 0 0 0
272 1 9.86236804082862 1.8312532241791233 5.214138775509718 0 0 0
522 1 8.157072086310187 2.23390543607637 6.711074912631638 0 0 0
557 1 10.112407900826316 3.59727110163858 6.726132142095515 0 0 0
555 1 8.346581840907442 3.509604797851063 8.281895349082514 0 0 0
528 1 10.038554934811245 2.1060185079561227 8.349759843215478 0 0 0
523 1 8.557885091136702 0.4766986140372901 8.976214442423707 0 0 0
525 1 10.458615326310168 0.3821589581252817 7.260005476329594 0 0 0
526 1 11.9427114665484 2.1423435017726193 6.837585397070093 0 0 0
303 1 11.932614642882946 3.3026091348461666 4.90666644928419 0 0 0
559 1 11.712579323210006 3.6302825709167106 8.396105038177014 0 0 0
276 1 14.063014396396854 1.8539499277238665 5.069410718350134 0 0 0
532 1 14.140818327891155 2.0552073286045993 8.560903908646518 0 0 0
561 1 14.200576766271109 3.4792687276374883 6.690034442420938 0 0 0
530 1 15.727085270038033 1.625661675738291 6.758362459598307 0 0 0
307 1 15.820711430677019 3.4699999673275133 4.7683235592121 0 0 0
563 1 16.159625923919936 3.116552894617399 8.792349677594032 0 0 0
275 1 15.381447862846349 28.0331286388395 5.123738341674977 0 -1 0
529 1 13.824721594739316 0.1462192285185572 7.044123263177475 0 0 0
527 1 12.462198542499968 0.3446346508214724 8.86060642565885 0 0 0
280 1 17.48281011844966 1.6292090520957716 4.852962791633047 0 0 0
534 1 19.79482589092463 1.393979905043853 6.688914936021186 0 0 0
311 1 19.43695332024657 3.2256687021662787 4.961340725379847 0 0 0
565 1 17.79714219660717 3.2002551675227005 6.503223784206157 0 0 0
567 1 19.32379839666556 4.0184459417242335 8.312842689838678 0 0 0
536 1 18.160700904577645 1.7855378447279668 8.57401218565666 0 0 0
531 1 15.758550290598805 0.19704857112971416 8.976964753952295 0 0 0
279 1 19.549020567082998 28.25103617130585 4.59754933665344 0 -1 0
535 1 19.561103660760796 0.12225121999466591 9.04873574061767 0 0 0
533 1 17.368166823218733 0.09613959231356761 7.168107006785812 0 0 0
284 1 21.568578727672197 1.798958737512057 5.036052306341307 0 0 0
538 1 23.48116918509648 2.10990675034181 7.0520852624634776 0 0 0
540 1 21.494011476929092 1.9101267989263255 8.45899978007978 0 0 0
571 1 23.060945166781046 3.7925124773896646 8.616376641678526 0 0 0
315 1 23.25207543240334 3.617124412018919 5.098279296187812 0 0 0
569 1 21.19455095069189 3.5711003529669383 6.581800061607436 0 0 0
537 1 21.15128949345326 28.15543356861121 7.19217908350878 0 -1 0
516 1 28.274231257285184 1.7465930983895799 8.397812315561142 -1 0 0
573 1 24.96706266669935 3.892568736704318 6.58984621687403 0 0 0
544 1 25.199960770323372 1.5773741619064183 8.60865515836159 0 0 0
288 1 24.903818752819273 1.5144949149974756 4.910620706831556 0 0 0
542 1 26.77241233944476 1.8521373780707082 6.852197024800412 0 0 0
319 1 26.81085350010129 3.7582302208971896 5.170153754919171 0 0 0
575 1 26.86422284506753 3.850863646251938 8.475792031304962 0 0 0
287 1 26.330885311640728 0.030613098883193857 5.211378389407863 0 0 0
323 1 1.8575434941508935 7.50015524965027 5.078746924952447 0 0 0
546 1 1.7471356578247241 5.010421677810682 7.088407955052259 0 0 0
552 1 3.740634468892898 5.804745410135524 8.8825385972789 0 0 0
296 1 3.760894077165282 5.417960535303203 5.0962492310009235 0 0 0
579 1 1.865928700913219 7.263376313199641 8.834928813910222 0 0 0
581 1 3.0032077247986333 7.375546275909885 6.768978533202092 0 0 0
548 1 0.12933333496767377 5.574736350096256 8.653371277866146 0 0 0
577 1 0.19779393780468346 7.177742532946665 6.974269989260024 0 0 0
292 1 0.48895548973266983 5.228701241175611 5.070823717875611 0 0 0
300 1 6.660026294158153 5.1672018706491585 5.322676585486897 0 0 0
327 1 4.941984769448551 7.230210400568522 4.99239270667922 0 0 0
550 1 4.8094792773939785 5.809923979661681 7.0281141114779375 0 0 0
585 1 6.763765228760998 7.231468353156162 6.904329635332761 0 0 0
556 1 7.127821144541737 5.3500245323955244 8.402535695212173 0 0 0
583 1 5.619597424496747 7.152496958751048 9.148947246965191 0 0 0
331 1 8.655816544583919 6.952766985977613 5.053283062905117 0 0 0
587 1 8.630420850347544 7.016317033276992 8.821007439638745 0 0 0
304 1 10.452893543173579 5.526355895843098 4.940547434187197 0 0 0
554 1 8.847328267930992 5.515506610078941 6.661264872342092 0 0 0
589 1 10.575567815598363 6.763495837499688 7.058195859712431 0 0 0
560 1 10.014027496948087 5.12047803562051 8.63107734568559 0 0 0
558 1 12.570276124023783 4.965961259412952 6.538173260744574 0 0 0
335 1 12.401148054618664 7.206507411714719 5.150648948264351 0 0 0
308 1 13.889493664783544 5.82971329023208 4.656516668422064 0 0 0
591 1 12.92902402926215 6.830722568418135 8.456045899346767 0 0 0
593 1 14.279938663721026 7.03200613644151 6.756183838937386 0 0 0
564 1 14.662468658817776 4.964920395901198 8.532595751225339 0 0 0
339 1 16.251609770663872 7.140841884791754 5.008979294685645 0 0 0
595 1 15.837444665186936 7.14582185823948 8.491993713680028 0 0 0
562 1 15.974481914907253 5.1509132567651115 6.21210446779266 0 0 0
312 1 17.746632920252978 5.526900949438316 4.584929679475326 0 0 0
343 1 19.968740841950243 7.359784241758972 5.17639260031563 0 0 0
566 1 19.50544338229109 5.173227214179363 6.119138533320518 0 0 0
597 1 18.070930478429414 6.691663269026904 6.585688318551451 0 0 0
599 1 19.540328296754385 7.064221225420844 8.552488304125538 0 0 0
568 1 17.136399401052692 5.047595445275807 8.564141968994118 0 0 0
316 1 21.67061358911017 5.5256427193519775 4.929006394285443 0 0 0
347 1 22.8596618749545 7.416305435146176 5.29768327110482 0 0 0
570 1 22.831042825855985 5.384495517414819 6.9255867634927215 0 0 0
601 1 21.667405500417736 7.681931726889489 6.809460701495767 0 0 0
572 1 20.91602283254823 5.53377566237968 8.189625501796137 0 0 0
603 1 23.352446907516402 7.083848850649919 8.710515264075548 0 0 0
320 1 24.785093003354334 5.713272625763346 5.063049750843698 0 0 0
351 1 26.563645661440155 7.251491497546158 5.228552953334082 0 0 0
605 1 25.077524916965054 7.026188264631049 6.876064529237874 0 0 0
574 1 26.882010347608293 5.6016210114724645 6.7452858408597685 0 0 0
607 1 26.49701529837013 7.351432376675276 8.89430123914236 0 0 0
576 1 25.014010445449884 5.3965478811278365 8.352691185953518 0 0 0
355 1 1.8729601418594772 11.42357096945814 5.211002607716001 0 0 0
578 1 1.3741898243907795 9.221850647926459 6.831911776972282 0 0 0
611 1 1.9308750601332432 10.68794833063528 8.618430678276598 0 0 0
613 1 3.5162744810702993 10.751856837347257 6.866995374017974 0 0 0
328 1 3.798179183700872 9.180666347203301 5.149350537260214 0 0 0
609 1 28.110735545716338 10.835730224960805 7.334592417228651 -1 0 0
324 1 0.16884508077031116 9.26058929948014 5.115575456111629 0 0 0
584 1 3.4219509178829357 9.057338122923802 8.727124509646286 0 0 0
359 1 5.615502515283769 10.515313176537113 5.5274354226029585 0 0 0
332 1 7.211293420686901 8.929697067883925 5.119032747857333 0 0 0
582 1 5.611389832557437 9.203291674335174 6.855741263359447 0 0 0
617 1 7.235758051832593 10.549809813904778 6.9906769143743315 0 0 0
588 1 7.38176719066106 8.81089775262167 8.764671692186514 0 0 0
615 1 5.269794773261726 10.530839004705866 8.833682001859374 0 0 0
336 1 10.583091126916266 8.413937718613605 5.4360969222534035 0 0 0
586 1 8.745154296911192 8.592613731728976 6.927860445204866 0 0 0
363 1 9.091884044890362 10.356014737419429 4.976908721304646 0 0 0
621 1 10.867042897736539 10.237112285972708 6.834547482841556 0 0 0