LAMMPS data file via write_data, version 29 Oct 2020, timestep = 300000

2048 atoms
1 atom types

-0.20777475746295515 28.559774757465437 xlo xhi
-0.20777475746295515 28.559774757465437 ylo yhi
-0.20777475746295515 28.559774757465437 zlo zhi

Masses

1 58.933

Atoms # atomic

1636 1 3.6571964473471024 1.6402312182239325 4.50032579266826 1 0 1
1792 1 0.4048289847232348 2.608881190156228 1.7913288643207295 0 2 1
1609 1 3.1436240976797 2.252619365093537 2.1835734653368437 0 2 2
1230 1 0.8319379888177934 0.570166575962552 0.9847384014374776 2 1 0
2 1 1.427461398527703 1.8183091355295806 3.631990305518091 0 0 -1
1773 1 1.8393350887814606 2.856617904311678 0.04569887920354665 0 1 1
1173 1 2.8994242957391263 0.3790426993882636 0.22116449119282322 1 1 0
999 1 4.706767777066834 0.9149762825237067 2.760479953926846 -1 1 0
1050 1 6.807935783303597 1.0019161032495272 2.3803682646036766 1 -1 1
477 1 5.769719911118657 3.1259671554279262 1.996601717944415 1 1 -1
49 1 6.332319169831077 1.867827412367121 4.527179547048272 -2 -1 0
378 1 4.447070286375926 3.5150409584769595 3.8603571991572565 1 1 0
1468 1 6.971288623450247 3.8514448044179046 4.015628140493621 1 0 0
812 1 5.081992409861255 0.5262651459908759 0.4551252415833469 -2 0 1
855 1 9.066074715141129 2.690191385993648 3.7876555684929523 -2 1 2
586 1 10.479528064972051 1.8348439704238166 2.004527371877301 0 1 0
1983 1 8.020138285516452 2.54656311304288 1.5231855050529048 0 3 0
264 1 8.694003660143803 0.578746074253574 3.504300204358495 0 1 2
987 1 11.707911667847524 0.4013314261698916 0.2965504742633671 1 1 -1
55 1 10.970968533064118 0.9403504854205147 4.185458680729949 -2 0 0
112 1 9.55066062683232 1.7653854318288633 -0.16684086681027538 -1 1 -1
1217 1 13.019582281816772 0.5268092169524996 2.5164306498174738 -1 0 -1
1595 1 14.41932035736426 1.299107594973373 0.6166235615920231 -1 1 0
848 1 15.297030482204065 3.852275480401275 1.2637970595626296 0 1 1
343 1 14.848215810255727 0.9002303495506914 3.44375827458452 0 0 -1
997 1 12.53772018700886 2.877085631412066 1.5720061090239164 0 -1 -2
1232 1 12.65774977547087 3.6875115539897476 4.025920598504424 -1 2 1
1168 1 16.340376352808974 1.977668918057459 1.859153738992882 0 1 0
1821 1 18.57002527369483 1.9491436181275548 0.6881804659429346 0 0 0
2005 1 17.286791770562324 2.7124105689787448 3.8460752864425007 0 1 1
1425 1 19.82731552860583 1.1398994879474003 2.0875306626025933 0 0 0
1744 1 20.24221775457469 3.577681109784666 1.081520736855538 -1 -1 0
174 1 17.38951778951919 0.06353005980595372 2.2849758299082312 -1 0 -2
163 1 19.73200255038215 2.1418069484496676 4.143434406231011 -1 0 -1
980 1 17.36730084654164 3.8037076706492323 0.23224914878052588 -1 -1 1
1571 1 16.434735746130222 0.7357040892125971 -0.13480744409768164 -1 -2 1
1460 1 23.851762109248597 1.3043509484447464 3.1771188641594654 1 1 1
1799 1 21.876149266645633 2.8227930700817434 2.5142345144143063 -2 0 0
1334 1 22.716025791913978 0.7003384005180008 1.285867323794645 0 0 0
1367 1 20.46067402015408 -0.17742352602603528 4.299411630437838 -1 0 2
1844 1 23.170269405344214 3.457336391349017 0.5610289778657374 -1 1 1
1776 1 25.39088387407795 2.758219331510117 1.8567497500000663 -1 1 2
1057 1 27.100498694983607 3.840843279221315 1.6300671635387927 0 1 0
1775 1 27.333615555670917 1.7040972226371123 3.178223557648351 0 1 1
1266 1 26.36042819857066 3.6856720833123466 3.9779974123386737 0 1 1
4 1 24.902916341881983 0.6257727617569236 0.6555476222830041 -1 0 0
39 1 27.68165335098572 -0.042158647437685715 4.522796678419086 -1 1 0
312 1 27.183312686563973 1.276500557110222 0.9672386858812194 0 0 0
245 1 1.0167904770717286 5.041121797764321 0.49151692961747573 0 2 -1
1667 1 2.377479945130678 4.3517648989084226 2.6944291513701137 0 1 1
1743 1 2.3087068450531807 6.409296593564415 1.761219354027318 0 2 3
832 1 1.6822808936199458 7.849962857773409 3.354633584011912 1 1 1
796 1 0.628831324396923 5.893367088138867 4.286962659617415 1 -1 1
1860 1 3.7474568375952746 4.362688589565437 0.7233581808828428 1 0 1
873 1 -0.11712868326051051 4.046369607236259 3.6285474924149774 1 0 1
836 1 1.8746552796432625 7.4599223919344535 -0.07330673260183487 -3 -1 1
1284 1 3.483835805660828 5.999978512308835 3.7639388934419786 0 0 0
1006 1 6.046805442081798 5.296526296826323 3.037462813754999 1 1 2
1018 1 6.226284463325142 7.80399158482156 3.945918299759727 1 1 1
344 1 6.902669838233127 6.877761068878948 1.4184911437819814 0 1 1
645 1 4.545897919932883 7.290186443893874 2.0509691205503713 0 2 0
1607 1 6.115701858969463 4.9157236802740725 0.5131942397984055 -1 0 1
1721 1 4.481641466071804 6.173024691116737 0.2218831061915636 -1 2 2
292 1 10.397111125425532 3.997203699108451 0.2403621379936695 0 1 0
1448 1 8.635255373644418 4.7835584892998115 1.5843812834430766 -1 1 1
853 1 9.12380997696707 4.984814139890863 4.247710887223729 0 -1 1
467 1 10.69612133206686 6.650244402416159 2.0405016953374138 1 1 0
291 1 8.389247204141608 7.244110094135273 3.384692380918718 -2 -1 -2
1930 1 10.804409068505366 3.9819201846419805 2.4617397964971945 0 1 0
1010 1 10.69960103212954 6.8216695196979655 4.312916301543207 1 0 0
1547 1 9.281377039757833 6.535661935689279 -0.06042103042339764 1 1 1
1720 1 12.301539560259263 7.438459980140653 0.06145222835728531 1 1 1
1435 1 12.373811326312142 5.81719917494689 4.267715446099197 -1 0 0
1405 1 12.423863537589682 5.517404228796302 1.6280492578207433 1 2 0
1258 1 14.604937603265316 6.5559598584626775 1.087686984869044 -1 0 0
1140 1 15.292379803731881 7.258329627677824 4.372280874904778 0 0 0
1887 1 16.183770914646495 5.616478424395154 2.4848238278323738 2 0 2
1968 1 12.585673657834372 7.661313360550641 2.4931273983022413 -1 0 0
167 1 14.343798141495126 5.406287042402329 3.195818997400729 -1 1 1
1273 1 19.26657231979035 5.146427237879515 0.2239283065888662 -1 0 0
770 1 18.001945777219127 4.428695990928202 2.3567702126547316 -1 -1 1
656 1 17.395967969685138 7.845404437954842 2.725665156741382 1 0 0
912 1 19.298330716946815 6.246605387002302 2.3166620541527188 1 -1 1
221 1 18.42889725554504 4.5941556863082935 4.575719632470332 2 -1 1
345 1 18.624160907373906 7.793892415012875 0.6652922998107222 1 -1 1
1262 1 18.481993394098552 7.841724870208411 4.549425765231904 -1 0 0
94 1 17.05675121105049 6.137966667320034 0.7286693334464626 1 1 -1
351 1 20.5293674772453 4.4277535498677585 3.240397695710601 0 1 1
117 1 21.60790058243831 5.671401033281592 0.9089303311542827 -1 0 0
942 1 23.779534845181885 7.107476758717382 1.5527637394504448 0 1 1
1836 1 23.21554744817042 4.378595855974118 2.5375957352879412 -1 -1 -1
1203 1 21.876404162757794 6.322393350716755 2.978520851469002 0 1 -1
1486 1 24.015186619204144 5.447420905869035 -0.04008935322217866 -1 -1 1
1318 1 24.530831079712577 5.547006429514384 4.11669317787737 -1 0 1
370 1 28.549584303781277 6.074745339479908 2.2467295691962637 -1 1 0
697 1 27.465503832688633 5.8334003990062175 0.10836841711735035 0 1 1
315 1 25.287777962033182 5.091379214510523 1.8599798927959075 -1 -1 0
775 1 27.58881936985619 7.9264985563727155 3.815173898074428 -1 0 1
529 1 27.067988783106145 5.598620940697932 4.20475627946749 0 0 0
51 1 25.892210384483526 7.065976772382673 2.453418639962706 -1 -1 -1
1810 1 2.4571195826818633 10.29437523482884 3.384685744251641 0 0 2
1568 1 0.4408342953692702 10.522319319585923 2.290843008227757 1 0 0
1195 1 2.9163771863637553 8.843199445190878 1.8752222735813917 0 -1 1
1539 1 2.519572817107178 11.558387290552119 1.7240923547046647 0 1 -1
77 1 -0.11403579284878859 8.546582942269342 1.0307146444085469 0 0 1
553 1 1.8689398152259806 10.062941629207252 0.2481705774635451 0 0 0
1622 1 0.5507000326726893 11.690344076706001 4.140099167227558 2 -1 1
1931 1 7.804534171843713 9.741717922757184 2.882780072702125 0 0 1
1908 1 5.73663328673253 11.009626521812912 0.6603259953809955 1 0 1
1490 1 5.569770624170485 9.31395073292446 2.062595051896931 0 0 1
50 1 4.491527547912307 9.218745942132745 0.027058427406721375 1 -1 0
1325 1 6.058363679507151 10.770154030924061 4.20601816475168 0 0 1
1031 1 4.143878271313503 8.98785574940102 3.8279046213092265 1 -1 1
1990 1 4.639198045319847 11.651949039904999 2.7710790193707124 1 2 0
173 1 8.806384415328662 8.162652162543203 1.4611503186473558 0 1 0
1560 1 11.40043875369936 9.357392487622612 1.418985257899298 -1 -1 1
1171 1 10.140962671661022 9.08455446131295 3.1815584729604525 0 -1 2
1587 1 9.613424759775551 10.25876668888789 0.9699980532664854 2 1 0
1088 1 8.022855611229748 11.777644965276712 0.14213507169630368 1 -2 0
1876 1 11.353624703954292 11.776158541798724 2.7642014912350072 0 0 2
902 1 9.217846386517806 10.894383267790007 3.8730057285099484 1 -1 0
669 1 15.78338278716019 10.61385381982488 1.0457883832402628 2 0 0
1557 1 12.616371751224188 9.793040084308938 3.442852586977589 1 -1 2
129 1 13.963254623400678 8.773220517073478 -0.03643845129643167 0 0 -1
1357 1 13.50861013646433 10.686392709664405 1.2888735834526845 -1 -1 0
2009 1 14.565839696597637 8.843803606447096 2.4763362635534243 -1 -1 1
828 1 14.617421458198796 11.104574580080333 3.4998877250016833 0 -1 0
1197 1 16.134319559472054 8.222358024082009 0.8380870224928938 0 1 2
990 1 16.671681959446623 9.736706295721486 3.937145571739179 0 1 -1
1544 1 18.10426835327474 9.726327490992743 2.1392011722640287 0 -1 -1
1540 1 17.740585472292864 11.732048157185375 3.745678293146679 0 -1 1
156 1 18.87794318063201 12.112490024870253 2.1656790376158646 0 -2 2
1331 1 18.00816878866432 10.489703119334541 -0.04938752604826738 0 0 1
1631 1 19.418200516440677 9.98901878981494 4.241510242255502 0 0 0
793 1 21.51945255691976 8.031607403749174 1.9001391658976066 -1 -1 1
1494 1 21.205617386337728 10.400472707775258 2.672257445869183 1 2 1
841 1 20.809655509151582 9.655617772052077 0.4139555511634101 0 0 -1
988 1 22.450013018436415 11.4137580570507 0.9492820642900468 1 -1 0
1239 1 23.10925632969588 11.98234577460344 3.0702868877455574 0 0 1
539 1 20.78868048255125 12.065008875416604 3.9797908513815434 0 -1 1
394 1 23.78908314273893 9.511721782079537 1.025897421269397 -1 -1 1
169 1 20.721996973631704 8.248607817545473 3.9871782963158715 0 1 1
271 1 22.868050854300634 8.824534886169692 3.295627403941335 0 1 -1
385 1 26.898069358167824 10.068889351466561 1.860366034382626 -1 0 1
101 1 24.990287677399017 11.492345461000628 1.61882504342498 0 0 0
543 1 28.231613367688418 11.176565603890744 0.19638645727691056 1 -1 0
560 1 27.34906047288345 10.723152142355266 4.055699185507852 -2 0 2
1883 1 25.168698235046975 9.844333135228256 3.292465083450792 -3 -1 0
455 1 26.005754831902607 8.253801408842934 0.6691301535815724 -1 2 0
962 1 1.3252459613830758 13.600145108061046 0.8421819420085643 1 1 -1
108 1 3.073543541682283 15.016757712405642 1.2006633668552122 1 0 0
417 1 1.376241465652411 15.09369023781189 2.781281590910834 0 0 1
1165 1 3.75232330414217 15.304592952547404 3.759175914676311 0 1 1
1922 1 0.6821977634091534 16.14951495759425 0.9563705887597687 1 1 2
1480 1 2.3640691834346863 13.211630723019113 3.226391451577008 -1 0 1
1766 1 6.947354810141831 12.239726654313044 2.175770276799424 0 1 -1
955 1 4.211639124244958 12.898111173342627 0.3720702690426507 0 0 1
29 1 5.97739803326644 14.38640475207033 0.20864825707947487 2 1 -1
2022 1 4.985628790085743 14.047329141301168 2.3211733523755935 0 0 1
1076 1 6.960885805760032 14.913332379957607 3.177707651109154 0 -1 -1
389 1 6.857113707367624 12.775682460934899 4.427195076964525 1 -2 1
907 1 12.068443060030397 12.211509434654271 0.4659465391950307 0 -1 1
1417 1 10.930799160992708 14.77186566969092 1.1640126162186248 -1 0 0
364 1 9.209704743623805 12.798046396822583 1.917266622657129 0 0 -1
369 1 11.169642873954876 13.808109665663498 3.1617274951971845 0 -1 0
276 1 11.89166860677442 16.228783427234326 2.8649393044269607 -1 -1 0
567 1 9.315029749210826 15.293321567099138 3.3653611419483584 1 0 0
298 1 8.906643027962405 13.38792104593081 4.335650371632314 1 0 0
1978 1 8.47835746697083 14.740227708692268 0.8300451855090627 -1 1 0
1053 1 13.173455404643022 14.08240351087028 1.158949595219936 0 -1 0
782 1 14.55597819231259 12.50068148615703 0.6227606278940981 0 1 -1
1035 1 15.657391105941155 13.021673897538061 4.074077037148874 -1 -1 -1
1896 1 14.911017645435782 15.668339385608702 0.4037459930053383 0 -1 1
1654 1 13.926562386462404 13.960451889945867 3.1491531650473523 0 0 1
1959 1 16.10096153376989 14.629364908064746 2.3135303521749866 0 -3 1
874 1 16.69481441422446 12.786775776668321 1.259828209787685 -1 -1 1
1403 1 19.362462809444047 14.170085205077084 1.3462526295270367 0 0 0
1455 1 16.999094578018827 16.07830991144482 4.268144932066457 1 -1 0
561 1 19.863922971079887 16.147615773821407 0.5534439887342176 0 -2 1
172 1 17.43836912383326 15.292166144841142 0.3437547348548954 1 1 1
1154 1 18.064639481682782 14.38277492718297 3.6032596913522217 0 -1 0
278 1 21.490866296034817 13.432857395128716 2.0442327962730737 0 -1 0
1633 1 21.84452796744904 14.484738085345459 0.11944901915878292 -1 0 2
1260 1 20.60404290669512 12.445255075606754 0.33593685473641677 0 1 1
433 1 21.71421694592734 15.612886612620938 2.1486440076114945 -2 -1 -1
681 1 24.138257472966863 16.07026880244276 3.9614652956655583 -2 0 0
1001 1 23.7932962333323 13.556575045810387 0.5166175953787207 -1 0 0
287 1 24.03099699327864 15.648901543841497 1.50689076285203 1 -1 0
1451 1 23.188690277880305 14.207315442033716 3.4694052589287825 0 0 -1
870 1 20.65613358913221 14.460525289006371 3.759345680764874 2 0 -1
338 1 27.074293460329486 12.156894984317839 1.6510090901582717 0 -1 -1
1096 1 28.486611860339714 13.408222471509154 2.9312828366937254 0 0 1
1104 1 25.320115464712806 13.790823274001493 2.085662207283472 1 -1 1
1099 1 27.584335470219628 14.221009312103975 1.0105608040876792 -2 0 3
61 1 26.246139249192915 16.155762212729208 2.349040641089116 -1 0 0
1071 1 27.475046885117806 14.980181491404979 3.9087760140378016 0 -1 0
1552 1 25.010984327586208 12.197237260763215 3.9821817721383264 0 0 1
1482 1 -0.18954134587474644 16.555847454823557 3.0489195268473295 1 1 2
1222 1 0.9629557105207833 18.253667598248207 2.200879544516931 0 -1 0
1300 1 3.09888323667309 19.822167277291904 0.7995642050060776 2 -1 0
1674 1 3.1044910644946615 17.32005060503304 2.7261691332393374 1 -1 1
956 1 3.8854353202661542 19.73715288047432 3.4601646373168062 1 1 -1
25 1 0.23679490560097055 20.041702311087263 1.5645879031675833 0 0 1
113 1 1.4003936411949995 19.431600595740292 3.9291737845912227 0 -1 1
191 1 2.6050800743484896 17.605188021421398 0.5019857012197888 2 0 -1
1880 1 6.942670252144987 19.509722109628903 0.6402185910087089 1 -1 0
994 1 5.901398831351192 18.327697976890214 3.1163473025843285 -2 1 0
1832 1 7.572185211989197 17.373452616946842 1.6325454400962074 0 -2 2
959 1 4.638957764728517 18.318785923811873 1.2064085265908109 2 1 1
658 1 5.506119619560314 16.283771830793874 2.0732489024897087 1 0 0
566 1 8.045910637168475 16.988727859762946 3.9010607130090484 0 1 1
448 1 9.458026087821695 16.64903812417556 1.0137618862958393 1 0 2
1528 1 12.037223490747762 18.255595301148297 1.5290783220047681 -1 0 1
84 1 10.727716964760953 20.18653926473356 1.9684889147260098 1 0 -1
1623 1 8.301690624045383 19.159459897389 3.0139967897423534 0 -1 2
734 1 10.216297941894702 17.928679604530295 3.0659365211279375 1 1 0
741 1 9.492451842389114 19.060261881418334 0.7711240805671088 -1 1 0
1353 1 14.665199475911992 16.451192603596503 2.6814530788552644 -1 -1 1
1282 1 15.063977834315862 19.70383994301605 4.31359877195136 -1 0 0
1083 1 14.200292307102295 18.037371067724834 0.5619618057520689 -1 0 1
127 1 13.996902526145876 18.73553870837403 2.5571114709184557 1 -2 -1
1306 1 12.24147824923634 16.28683339422149 0.04023944216000083 0 1 0
804 1 15.816307709700448 19.735550330860626 0.27424221681106 -2 0 0
1791 1 19.077549916041676 16.402185493790277 2.8726146281744707 0 0 1
1091 1 16.561351975690926 17.82076745346278 2.1815265110990896 -2 0 -1
1841 1 18.63704007777764 18.562624514229746 3.3712686078708414 -1 0 2
252 1 16.44704087657537 18.162744555879456 4.15965792209326 0 -1 -2
996 1 17.40576869048129 20.245781294124917 4.58146150268322 -1 1 0
1505 1 18.11287786110838 18.748227946793705 0.5880746263070953 0 0 0
1629 1 23.622237791577078 19.110063953596985 0.6442206137319899 1 0 1
54 1 22.321764023945192 17.353732369019767 1.058448464404155 1 -1 0
739 1 22.272718319414693 17.52914729929884 3.3752635924382837 -1 1 -1
505 1 20.603009991539793 18.566861313170897 1.6796452299142572 0 2 0
1739 1 20.699690756821845 19.17751796627642 3.902511894601168 0 1 0
1995 1 23.03800729148123 19.671972495661358 3.197674567337468 0 0 0
1712 1 25.252537558125915 17.019716350716195 0.43413751927141453 -2 0 2
636 1 27.74403508998899 19.002949422502184 3.867498444260651 0 0 0
1379 1 24.451362644373845 17.885661719765444 2.6869912556514155 0 -2 -1
367 1 26.20998493056674 17.17812386870213 4.356843659831382 1 1 2
1800 1 26.163345854087055 18.886929535747733 1.5908568533974834 -1 0 0
1759 1 26.065807580914388 20.129606294949042 3.6773315744500796 0 -1 0
198 1 27.629170986457808 17.463152118245944 0.6212143093630432 -2 1 0
253 1 2.106882268349299 21.188786984216215 2.5072490809175263 -1 -1 1
282 1 2.3177101977499963 24.012808229805685 1.3038004638494396 0 0 0
1238 1 0.7433081761423823 23.045319041100747 4.109737701960453 1 -1 0
965 1 0.015440307601410214 22.460583403329323 1.520159926762008 0 -1 -1
1024 1 3.120967571463872 23.189770135479463 3.331713156959272 1 0 0
204 1 3.475109621274985 22.095680417727372 -0.20193551736080223 -1 -1 1
1120 1 4.813913113396816 23.980037059431105 0.7397245960576837 2 0 0
45 1 6.462518604268881 20.64735624991833 3.473609474079568 1 1 0
1689 1 7.2217100859543235 22.945601816246615 2.4720379997374713 1 -2 1
43 1 4.8038840722947045 21.7170247747473 2.109671675244043 1 0 1
1356 1 5.137988937486422 23.644876247393803 3.1665497385825603 -1 0 2
1567 1 6.045321934991192 22.227340742830478 0.21882019616302018 1 0 2
1317 1 11.797564940160292 24.371042866398263 0.7463423178673251 -1 -3 2
33 1 12.063812859534043 22.077525266285747 2.0659279550494043 0 0 0
1061 1 8.14794621415623 21.54302798232858 0.5598219100447622 0 0 0
589 1 8.142968583372474 24.323570393688662 0.6130274566760585 1 0 0
318 1 9.86634671326144 22.913243686951233 1.3097652683914978 0 -1 -2
504 1 8.898369694031027 21.35780482371169 2.6527281487848144 0 -1 0
809 1 9.591349377782807 23.925611200544665 3.17507082205307 0 -1 1
1904 1 10.864784265013215 21.95944218624861 3.7922147011121314 0 0 0
1246 1 12.87019493878257 20.38056865354701 4.173503939915732 0 1 0
86 1 14.995235680255497 20.928789593748633 2.3062375383021423 -1 0 1
1108 1 13.485657151451877 22.702212254572082 4.535627401013057 0 1 1
1725 1 14.097991382269983 23.27175353176972 0.32642573634153016 1 -1 3
424 1 15.335307125815874 23.555791126236443 2.520826636430914 0 -1 1
1087 1 13.240916351689748 20.942467265839028 0.5692682186263331 0 1 2
442 1 19.921026209616187 24.308488722926505 0.06882785385703277 0 -1 0
1693 1 17.283622361271846 20.52784261109914 1.9547880006771456 0 1 1
502 1 19.248107885077886 21.025642867450713 3.335347631502882 -1 0 1
931 1 16.246328454601944 22.01955092335338 4.382438311094652 0 -2 0
1958 1 16.28296893349615 22.485734923133116 0.5147456824612575 0 -1 1
32 1 17.749317357314062 22.399583738118658 2.7905003932907446 1 0 -1
1592 1 19.1396421159439 22.4471241037876 1.1399552538331374 -1 -1 1
1833 1 19.65701588024085 23.339592372500178 4.5143757468125045 0 -2 1
1817 1 17.799978662665104 24.30056021269108 1.1542015358100353 1 -1 1
1598 1 19.734400044811075 20.358787401778784 0.46103261027584663 0 -1 -1
1399 1 21.847344544912545 20.708778160676786 1.5189932465447449 1 -1 -1
984 1 20.872863249729022 22.56600156486285 2.2006247942757895 -1 -1 0
1966 1 23.02835818411191 23.121097403102645 1.4669399147705433 0 0 1
998 1 24.041011812426866 21.4948676903009 3.552964963157164 -1 0 0
1662 1 21.783626614226023 21.39700647037123 4.008929695583474 1 0 1
1722 1 21.92014725775467 23.972755315535707 3.5990085003350187 0 0 0
1338 1 24.54958879545356 21.12919586288946 1.3769353651567553 0 -1 -1
2023 1 26.957163535933987 21.089841048621764 1.570684583230473 0 0 0
1771 1 24.938913775249205 23.472442125626685 2.5811274511748676 -1 0 2
429 1 28.39312055085678 21.32113136528057 3.7334431572912585 -2 1 1
1723 1 24.76506021585231 23.896366346625044 0.2229288176842938 0 0 1
414 1 26.31604997119203 22.724107524263864 3.7614036676586626 0 0 -1
846 1 27.141165548014612 23.723701239030994 0.06636566870397781 -1 -1 1
1561 1 1.6047510093159028 26.173530840093093 0.4467788829915993 2 0 0
599 1 1.9561109873169706 27.716248291724433 2.166034468122171 1 0 0
1130 1 3.8223517579630713 25.249879541894913 2.3534343758085403 1 -2 0
1556 1 0.6870685374223049 24.903459259664494 2.505513136261872 1 -1 0
427 1 0.8099900979410919 28.269388670699513 3.83487677409921 2 -1 0
571 1 2.0643889982996475 26.000758641469723 3.9836527658908407 0 0 0
565 1 3.1708245103251462 28.134700203823904 4.209734686059915 1 -1 1
1400 1 5.801879727029613 28.408633646342224 4.417318787903591 -1 -1 0
963 1 6.855529450514202 27.794301903409114 -0.1784011550739913 -2 -1 1
722 1 5.830652142986136 25.86215417310821 1.149380252424458 0 0 2
202 1 5.768484112098103 26.32004853058593 3.4975024859931527 0 -1 0
479 1 4.329092197023503 27.377675258961133 2.0678081587583486 0 0 1
1409 1 7.12138660250682 27.716047692197805 2.214353956856173 1 0 2
1184 1 7.328368535452001 25.217606762745035 2.746658825161989 -1 0 0
325 1 3.9722117225005986 26.667328153017657 0.15079199838256585 1 0 -1
1572 1 8.805635298154687 28.433396458238718 0.4956680113762766 -1 0 1
1296 1 10.722576955286243 26.935330085269484 -0.05124495243332394 -1 -2 1
1973 1 9.054397419975276 27.00797942085518 3.7161836136817503 1 0 2
480 1 9.178285751228538 26.281623969594925 1.6057968294098222 0 1 0
1410 1 10.980255314627154 28.290311001347206 2.286631709296284 -1 0 0
1418 1 11.01035900567998 26.215176104890425 2.49021207883685 1 0 0
1823 1 15.190958785776777 27.899943863362992 1.5900763979209407 0 0 0
699 1 13.050442263799344 24.932925054806645 2.660842945315828 -1 -1 -1
485 1 13.64040603876706 25.990637982812416 0.1108944755611933 -1 0 2
154 1 13.05806813449409 27.19414999814994 1.8502978427049124 2 1 -1
513 1 13.824779605527944 27.43712103089358 3.7917252786427507 -2 -2 -2
1443 1 15.174821720725008 25.682629511504288 1.7576074648614717 0 -1 1
1013 1 15.7137867047428 25.216224872671646 4.132494473997643 0 1 1
1566 1 15.884841507452895 24.9160747283606 -0.05514986442363323 0 -1 1
164 1 17.035989966635725 27.558955579889748 0.3060618769774378 -1 0 2
483 1 17.86823904637638 24.539788594949513 3.4524738261947965 1 0 1
314 1 19.220775140733842 26.375367698336227 1.2326826694573882 1 -1 -1
663 1 17.110014378490845 26.691571736034398 2.382185642945832 2 0 -1
2016 1 19.939454372175497 24.743476936786593 2.621062749073911 -1 0 0
1509 1 19.35721687034944 27.09650069721402 3.144405660478197 0 0 -1
1994 1 16.68965913416664 27.86505155613876 4.58627949884018 0 0 2
105 1 23.508999909056932 25.72775003573603 -0.027194661995765784 -1 0 -1
453 1 23.507165913867055 27.8816889240021 4.456821802098731 -1 -1 0
884 1 21.464527980779884 25.0358981078706 1.182389689715027 1 -1 1
1483 1 20.853208538132144 27.717835440932795 1.6338744915867132 1 1 1
609 1 23.7909738196482 25.389775561757283 2.413167528325884 0 0 0
8 1 21.86528416705398 26.688656373814446 3.4010523610821695 0 -2 2
992 1 23.360906230932734 27.71610028891056 2.224329109062803 1 0 0
395 1 23.398940634803687 27.72772143767458 -0.062328857217817696 0 1 -2
1191 1 25.39530397648123 28.17644858539085 2.7573892417160497 0 0 2
384 1 27.69240984925638 27.719986802121973 2.2474430582289817 0 0 -2
1815 1 25.70392371302107 25.607670198561287 3.192960746595097 0 -1 0
1834 1 27.930704783473324 26.319698204236964 4.101072212718365 -1 -1 1
2047 1 27.9788358485431 26.303958423127206 0.6188531571055911 1 1 0
1221 1 27.303714081741717 24.623405341564805 1.9724982287219905 -2 -1 0
726 1 25.60222523010396 26.663046466437592 1.1728671242316357 -1 2 0
250 1 2.2345399745963395 3.6685644867846863 4.728085176518009 0 0 -1
1166 1 2.832241367460897 3.790939911170407 7.307224026203846 -2 0 0
199 1 1.9907005042933736 1.7219529379885146 6.384693931707734 -1 0 0
419 1 -0.12359212888087644 2.3391584514600603 5.017398409487812 -1 -1 1
1364 1 1.5896626790981436 1.4217458921245922 9.104189264122477 1 -1 0
1040 1 0.22741432252806987 0.42699113668007693 6.649974132301483 -1 -2 -1
41 1 3.922812189031564 0.20669058006020363 6.118311617820429 -1 2 -1
490 1 4.886634515911583 2.7931022961216185 5.939825324456827 1 1 0
1769 1 6.145112663039898 0.8822250905588307 7.006517624169162 0 1 -1
460 1 3.9638331749743205 1.5781846835261497 8.106462156683993 0 1 0
1131 1 7.582724750018496 3.205526504843433 6.216506409531051 2 0 1
1867 1 7.894956088536086 1.269146503317695 5.514581954236739 -1 1 2
1555 1 9.87549840662392 0.2062119295774154 6.132553185896457 -1 0 2
1676 1 8.085590228979711 1.852060560383825 7.875586135004577 1 -1 1
1423 1 9.521281826551842 3.3026759881853462 7.935290216373568 0 1 0
580 1 10.183628554254653 2.5750595204438347 5.762420774483999 0 2 -1
1523 1 9.920029942899275 1.073974314722856 9.241212029379462 -1 1 1
1952 1 11.488516113479285 1.6501056107614347 7.356296601818164 0 2 1
631 1 11.939264643782973 3.404743006838139 8.983026410610195 2 1 1
437 1 15.1291296624111 2.9609817954063264 5.01994853165345 1 1 -1
519 1 12.861702890804192 1.5881310510614803 4.756188175095375 0 0 -1
388 1 14.376503866117693 2.8901863350865042 8.16925900838549 -1 1 0
991 1 12.974354687310466 3.3051051997192062 6.28128369319226 0 0 1
1549 1 15.859930602890353 1.5220085897018316 6.4286548291081065 0 1 0
56 1 13.610092587675672 0.9463604896100766 7.465377349403071 0 0 2
1812 1 15.923358156049064 -0.15540197091717545 7.73411991951294 -1 0 0
794 1 17.965097205895425 2.7148048702297207 5.930915439366399 0 0 0
1118 1 17.986184850694315 1.2543383695135095 8.024269483308261 0 0 2
1220 1 20.1822935950865 1.3385810161228684 6.613438437667293 -2 2 1
1818 1 18.354526160430694 0.621379905911232 5.115856444983061 1 2 0
1123 1 20.101953370183637 1.1046537384753927 9.155671776265772 0 0 2
1188 1 19.75016956884201 3.125518798529174 8.109423682663364 0 2 0
68 1 16.767022330218985 3.271611169764669 8.41904063726619 -1 1 1
983 1 24.386819308869526 3.207349047384603 5.497300582660095 -2 2 1
1212 1 20.470375172890428 3.546390952376386 5.74795850136203 -2 1 1
544 1 22.132683709501478 -0.012842410343026245 5.9104336773537245 0 -1 -1
1411 1 24.38993883235665 1.2292863562388814 6.948946910909579 -2 0 1
216 1 22.16608223953196 1.98823073561252 5.001191142650552 -1 1 0
391 1 22.823142718865164 3.172452402628531 6.948394622554529 0 2 -1
1207 1 22.215077386870114 1.0972603924557234 7.798237349255089 -2 0 -1
1026 1 24.200131878254197 0.40334947301818813 9.045511103968263 -2 1 0
1987 1 23.74593210627239 2.7296494965755262 8.964812147546287 -1 0 0
475 1 26.512400441790682 1.9809066105714526 6.23789978955572 -1 1 0
371 1 25.295502165031706 0.4779003101581617 4.942062751699569 -1 1 -1
1279 1 26.632955764686947 0.09780048941158498 6.932818066741298 1 0 1
283 1 28.15861778525224 2.700666258020885 7.7754065102220995 0 0 -1
1127 1 25.939711318898325 2.259557133553256 8.474561552596699 -1 2 1
1646 1 2.5183067794448566 7.670276717681435 5.677823454200675 2 -1 1
119 1 3.7865347428667904 6.192807987392946 7.321468963825764 1 -1 -1
1686 1 0.4751039259731722 4.569091694338038 6.111031849144677 1 -1 0
436 1 -0.15906722787546812 7.183415874331829 5.9978735007086055 1 0 0
80 1 1.256768898039379 6.125888322416002 7.501550332752086 0 0 0
1558 1 1.2537501683943055 3.9227819899001073 8.912707765762086 1 1 1
1283 1 4.268168950438419 5.207676107627084 5.4963681709030405 -1 -1 0
1321 1 4.910180069938455 7.594532778322398 5.746688352507049 0 -2 0
178 1 7.272808745897703 5.958605355687698 5.432521491149325 0 1 1
1748 1 6.363049197624471 7.445394440896101 8.178022143346542 -1 1 -1
1816 1 5.122000787250284 5.900904460188863 9.27885692878653 1 -1 0
269 1 5.999866212327818 5.166929357008248 7.27907486187753 1 0 -1
537 1 4.853006400541179 3.9351485483898188 8.644369044274848 -1 -1 1
482 1 7.203892710085216 4.0880333135888485 8.886560535586781 0 0 -1
1075 1 8.18097546308344 6.22226888687865 8.322393631131101 0 0 0
1174 1 10.99002559935704 4.479337385300398 5.92594419444585 2 0 1
1807 1 10.70227435644037 5.590893057133683 8.593461725989018 -1 -1 0
1310 1 9.817489528550741 6.4705507292726185 6.688481535799859 1 0 0
1513 1 12.024576790429732 7.238648236565114 8.694712089444732 0 1 1
1599 1 11.959802517420542 6.504772362085296 6.404468041304245 -1 1 2
82 1 13.318699807940346 5.060162782549402 8.205890441801051 0 0 0
1466 1 14.995580240543905 6.581241126291816 8.36986447083055 -2 -1 1
929 1 14.252688742609177 5.172942888276885 5.61849961702483 -1 -1 0
1016 1 15.719967516625983 4.655263697295418 7.323344759947187 0 1 0
165 1 16.414200513686275 5.097182630373737 5.18552724309314 0 1 1
1653 1 17.041582915471146 6.566747403763706 8.196771902525425 -2 0 1
629 1 18.622706672265288 4.774949885547132 7.128603670398569 -1 0 1
1114 1 20.32763989744703 5.755726807419269 5.157426287218317 1 0 1
914 1 19.78387487526053 7.264123421951592 6.55549137375734 -2 -1 -2
1948 1 19.332232440774014 5.568175746064591 9.002007607994951 -1 0 2
527 1 22.574146295288436 4.422950562957504 5.037789390629682 0 0 -1
1066 1 21.652168950903132 4.011598669851602 9.117161667830528 -1 -1 -1
151 1 21.456704137938758 5.467364279764406 7.077126373475156 0 0 -1
350 1 23.7844402095716 5.923835925313182 6.258401398144429 0 -2 -1
484 1 23.476239910657227 5.1811572796674 8.810529997962732 -2 1 -2
403 1 22.88221945501885 7.362079162897059 7.614851207513047 0 0 0
1671 1 22.363678465638436 7.5205941229061395 5.366745343898997 -1 -2 0
938 1 24.920654799739637 4.428391029888427 7.348673532317643 -2 1 2
1548 1 27.846200716184327 5.577105903743232 7.702134987873011 -1 0 1
425 1 27.014552730229383 4.106196589970362 6.571600943852188 1 0 1
639 1 27.432171490821446 7.876508473601479 7.707708968367601 1 0 -1
647 1 26.007509110426916 6.57106043818536 5.666217357556789 -1 0 1