LAMMPS (29 Oct 2020)
OMP_NUM_THREADS environment is not set. Defaulting to 1 thread. (src/comm.cpp:94)
  using 1 OpenMP thread(s) per MPI task
package omp 0
using multi-threaded neighbor list subroutines
package omp 2
set 2 OpenMP thread(s) per MPI task
using multi-threaded neighbor list subroutines
units metal
dimension 3
boundary p p p


lattice fcc 3.5440
Lattice spacing in x,y,z = 3.5440000 3.5440000 3.5440000
region box block 0 8 0 8 0 8 units lattice
create_box 1 box
Created orthogonal box = (0.0000000 0.0000000 0.0000000) to (28.352000 28.352000 28.352000)
  1 by 1 by 2 MPI processor grid
create_atoms 1 box
Created 2048 atoms
  create_atoms CPU = 0.001 seconds


# read_restart after_heating_2400.lmp

variable P equal 0
variable dt equal 0.001
variable loopVar loop 4
variable sys_press equal "press/10000"
# print "step temp vol pe" file heating.txt screen no

pair_style eam/alloy
pair_coeff * * Co_Zhou04.eam.alloy Co
Reading eam/alloy potential file Co_Zhou04.eam.alloy with DATE: 2018-03-30




neighbor 2 bin
neigh_modify every 10 check yes

thermo 1000
thermo_style custom step temp vol press ke pe density

timestep $(dt)
timestep 0.0010000000000000000208

# fix 2 all npt temp 300 300 $(dt*100) iso 0 0 $(dt*1000)
# run 30000
# unfix 2





# dump_modify 1 append yes
# dump 3 all custom 10000 traj_npt_new.lammpstrj id type x y z

velocity all create 2000 123123

print """
asdfasdfasdfasdfsadfasddsaffffffffffff
"""

asdfasdfasdfasdfsadfasddsaffffffffffff

label ensemble

print """
Hi HI Hi
# """

Hi HI Hi
# 
variable T equal 1900+${loopVar}*100
variable T equal 1900+1*100
# variable T equal 1200
# velocity all create 1200 123123
reset_timestep 0
fix 1 all npt temp $T $T $(dt*100) iso 0 0 $(dt*1000)
fix 1 all npt temp 2000 $T $(dt*100) iso 0 0 $(dt*1000)
fix 1 all npt temp 2000 2000 $(dt*100) iso 0 0 $(dt*1000)
fix 1 all npt temp 2000 2000 0.10000000000000000555 iso 0 0 $(dt*1000)
fix 1 all npt temp 2000 2000 0.10000000000000000555 iso 0 0 1
print """
<--------------------------------------------------------------------->
<------------------ Equilibrating at temperature $T ----------------->
<--------------------------------------------------------------------->
"""

<--------------------------------------------------------------------->
<------------------ Equilibrating at temperature 2000 ----------------->
<--------------------------------------------------------------------->

fix temp all print 1000 "$(step) $(temp) $(press) ${sys_press} $(vol) $(ke) $(pe) $(density)" file temp_hot.txt screen no title  "step temp press pressGiga vol ke pe density"
run 250000
Last active /omp style is pair_style eam/alloy/omp
Neighbor list info ...
  update every 10 steps, delay 10 steps, check yes
  max neighbors/atom: 2000, page size: 100000
  master list distance cutoff = 7.6035394
  ghost atom cutoff = 7.6035394
  binsize = 3.8017697, bins = 8 8 8
  1 neighbor lists, perpetual/occasional/extra = 1 0 0
  (1) pair eam/alloy/omp, perpetual
      attributes: half, newton on, omp
      pair build: half/bin/atomonly/newton/omp
      stencil: half/bin/3d/newton
      bin: standard
Per MPI rank memory allocation (min/avg/max) = 4.442 | 4.442 | 4.442 Mbytes
Step Temp Volume Press KinEng PotEng Density 
       0         2000    22790.356    32481.852    529.19103    -9015.757        8.794 
    1000    2056.6703    25290.511   -4966.6775    544.18574   -8343.5908    7.9246474 
    2000    1986.7164    25147.773   -255.57122    525.67625   -8362.8408    7.9696278 
    3000    1998.7647    25054.597    629.65982    528.86418   -8383.8168    7.9992659 
    4000    2006.0516    25143.569   -794.26025    530.79226   -8365.9891    7.9709603 
    5000    2033.7515    25203.777   -3750.6225    538.12152   -8359.4164    7.9519186 
    6000    2016.9373    25000.438    2438.3568    533.67256   -8393.8318    8.0165949 
    7000    1995.2668    25089.531    2738.3748    527.93865   -8362.6301     7.988128 
    8000    1977.0116    25296.039   -10010.365    523.10842   -8362.5709    7.9229156 
    9000    2002.2859    25050.269   -116.49895    529.79586   -8392.4868    8.0006482 
   10000    2045.2039    25035.359    4297.8142    541.15179   -8374.6327     8.005413 
   11000    1977.2399    25202.473   -3719.8755    523.16883   -8360.9327    7.9523301 
   12000    2077.2911    25033.103    585.31426    549.64191   -8397.9519    8.0061344 
   13000    1970.1743     25268.81   -6785.9379    521.29928   -8352.8098    7.9314533 
   14000    2105.4868    25042.329     8755.492    557.10236   -8362.2439    8.0031849 
   15000    2010.5844    25141.979   -3185.8852    531.99162   -8380.4781    7.9714642 
   16000    2008.4407    25010.724     5383.763    531.42442    -8378.781    8.0132981 
   17000    1998.5434     25144.72   -2989.1659    528.80563   -8379.5019    7.9705954 
   18000    1990.5574    25130.612   -257.26391    526.69256   -8368.4655    7.9750699 
   19000    2011.8783    25052.002    2269.9117    532.33397   -8376.2254    8.0000945 
   20000    1972.7411    25109.021    2914.0131    521.97846   -8358.2734    7.9819277 
   21000    1991.1902     25161.43     106.1497    526.85999   -8359.7273     7.965302 
   22000    1947.2639    24913.915    7984.5384    515.23729   -8391.6206    8.0444355 
   23000     1994.736    25174.963   -1413.2066     527.7982   -8359.2613      7.96102 
   24000    2045.2952    25172.751   -2884.0106    541.17595   -8371.3812    7.9617198 
   25000    2023.0466    25128.141    2195.2281    535.28905   -8360.7424     7.975854 
   26000    1954.8375     25176.53   -8452.8354    517.24123   -8391.9474    7.9605247 
   27000    1969.6268    25091.869    4607.1258    521.15443   -8355.3758    7.9873837 
   28000    1974.8623    24984.335    3167.9953     522.5397   -8393.6232     8.021762 
   29000    1938.2117     25033.46    826.13772    512.84212   -8386.6188    8.0060203 
   30000    1937.0532    25209.721   -1610.4342    512.53558   -8344.9737    7.9500437 
   31000    2030.2221    25193.312    2408.4261    537.18768   -8338.6966    7.9552219 
   32000     2042.256    25149.108    -2246.895    540.37179   -8372.5373    7.9692047 
   33000    1985.6582    25156.713   -2554.4881    525.39626   -8368.5796    7.9667955 
   34000    1996.8291    25111.255    3376.2091    528.35204   -8354.8431    7.9812173 
   35000    1994.1768    25242.698   -6324.5324    527.65024   -8363.2433     7.939658 
   36000    2007.3184    25062.018    4461.6419    531.12744   -8361.7828    7.9968974 
   37000    2014.2715    25173.245   -1702.9969    532.96722   -8366.2876    7.9615635 
   38000    2022.2195    24999.856    1325.8401    535.07021   -8398.5399    8.0167816 
   39000    2014.2405    25075.913    2316.3032    532.95902   -8370.5579    7.9924661 
   40000    1973.0377     25043.05    366.68332    522.05693   -8391.0351    8.0029543 
   41000    2035.8947    25135.685   -1988.0087     538.6886   -8374.9022    7.9734602 
   42000    1949.9069    25157.551   -5252.4138    515.93661   -8380.3524    7.9665301 
   43000    2032.0444    24991.507    7083.2139    537.66984   -8377.4979    8.0194598 
   44000     2008.012    25032.761    3908.8463    531.31096   -8378.0929    8.0062437 
   45000    1975.7041    25209.962   -3210.0544    522.76246   -8358.4293    7.9499678 
   46000    2032.2433    25073.403    3241.3494    537.72246    -8370.674    7.9932662 
   47000    1989.1333    25150.965   -4305.0329    526.31575   -8381.6454    7.9686163 
   48000    2029.8299    25061.868    1472.1242    537.08389   -8382.8569    7.9969453 
   49000    1977.7562    24956.241    6848.2077    523.30543    -8386.923    8.0307922 
   50000    1922.5907    25202.053   -6007.9915    508.70888   -8367.8519    7.9524627 
   51000    1992.0573    25007.255    4213.0285    527.08943   -8385.1536    8.0144096 
   52000    2026.6585    25105.896    1463.4478    536.24475   -8369.7184    7.9829211 
   53000    2018.1756    25203.303   -4911.0388    534.00022   -8368.5705    7.9520684 
   54000     2005.911    25076.924    995.66599    530.75505   -8375.1409    7.9921441 
   55000    2058.0749    25096.633    510.64348     544.5574   -8378.9765    7.9858675 
   56000    1996.9406    25131.223   -7544.0611    528.38154   -8402.0753     7.974876 
   57000    1922.7672    24989.368    8022.0897    508.75557   -8367.8998    8.0201462 
   58000    1993.8259    25119.368   -1237.3255    527.55738   -8375.8542    7.9786396 
   59000    2031.4371    25175.425   -982.41684    537.50914   -8359.6922    7.9608739 
   60000    2014.5491    25067.504    3127.2547    533.04067    -8370.305    7.9951473 
   61000    2057.0263    25071.162    -1434.107    544.27993    -8395.286    7.9939807 
   62000     2006.617    25218.469   -8353.5684    530.94186   -8377.9753    7.9472861 
   63000    1948.6203    24916.724     7445.271    515.59619   -8395.4013    8.0435288 
   64000    1987.5678    25093.262   -948.55942    525.90152   -8382.6419    7.9869404 
   65000    2062.7916    25133.259    544.41275     545.8054   -8360.6136      7.97423 
   66000    2042.3262    25255.773   -5894.9128    540.39035   -8358.9096    7.9355475 
   67000    1984.3029    25172.362   -5702.1617    525.03765   -8381.5873    7.9618426 
   68000     2075.972    24967.255    8121.8148    549.29289    -8380.995    8.0272494 
   69000    2011.6507    25217.829   -4835.0714    532.27375   -8364.7113    7.9474877 
   70000    1984.2332    25129.171   -3252.3493     525.0192   -8380.8087    7.9755272 
   71000    1942.5864    25081.417    734.53939    513.99965   -8375.1748    7.9907122 
   72000    2022.1858    25139.467   -436.18847    535.06131   -8366.1466    7.9722608 
   73000    1965.6503    24984.495    6231.2137    520.10226   -8380.6083    8.0217106 
   74000    1999.0813    25085.411    16.337291    528.94794    -8378.579    7.9894401 
   75000    2039.6679    25100.772    108.13874    539.68699   -8376.3453    7.9845508 
   76000    2017.1486    25215.728   -2592.5209    533.72847   -8350.5895      7.94815 
   77000    1977.6797    25165.146   -2158.1964    523.28519   -8363.3531    7.9641256 
   78000    2004.3504    24899.977    10613.742    530.34213   -8388.0053    8.0489387 
   79000    1972.9821     25085.27   -223.98295    522.04222    -8379.117    7.9894848 
   80000    2036.2524    25218.252    -2357.159    538.78326   -8351.3835    7.9473543 
   81000     2035.487    25028.463    3742.9646    538.58072   -8381.1962    8.0076187 
   82000    2016.7759    24962.336    5477.5551    533.62987   -8394.3081    8.0288313 
   83000    2010.5541     25144.39   -1995.0578    531.98359   -8372.1487    7.9706999 
   84000    2040.3191     25064.75   -2068.4448    539.85927   -8400.2504    7.9960257 
   85000    2029.5986    25125.097   -360.63318    537.02268    -8368.805    7.9768204 
   86000    2010.4986    25210.034   -6788.0999    531.96892   -8372.5463    7.9499452 
   87000    1935.0887    25115.548   -4670.8014    512.01579   -8386.5055    7.9798533 
   88000     1957.897    25016.766    6330.4526    518.05077   -8373.1104    8.0113626 
   89000    2019.6934    25122.636    3987.8132    534.40182   -8352.6352    7.9776017 
   90000    1945.1288    25163.567   -2194.8455    514.67235    -8364.396    7.9646256 
   91000    1998.8192    25146.242   -6750.8452    528.87861   -8392.5567    7.9701128 
   92000    2033.2255    24986.452    6654.8173    537.98236   -8380.8747    8.0210824 
   93000    1915.8538    25090.565   -389.03885    506.92633   -8373.1374    7.9877988 
   94000    2027.6043     25207.79   -2868.2058    536.49501   -8355.5733     7.950653 
   95000    2034.4204    25084.652   -1442.9365    538.29852   -8389.9253    7.9896818 
   96000    2003.2249    25048.055    2839.0414    530.04434   -8378.7088    8.0013552 
   97000    2015.5411    25154.687    1164.6873    533.30314    -8354.338    7.9674371 
   98000    1975.4893    25193.803      -4332.9     522.7056    -8368.242    7.9550667 
   99000    1989.8403    25080.482    1138.2906    526.50282   -8374.8038    7.9910102 
  100000    2042.4578    25050.917    5434.6264    540.42519   -8366.6104     8.000441 
  101000    2007.1538    25208.943   -7421.0446     531.0839   -8373.5578     7.950289 
  102000    2025.0887     25113.27    -3762.482    535.82939   -8391.9851    7.9805772 
  103000    2012.5682    25168.705    270.52025    532.51652   -8352.1257    7.9629994 
  104000    1950.0431    25041.987    3191.2982    515.97267   -8376.3355    8.0032942 
  105000     2025.294    25193.918   -1732.2225    535.88372   -8355.6639    7.9550305 
  106000    2049.5824    25074.666    3483.1214     542.3103   -8368.6251    7.9928635 
  107000    1941.0354    25273.611   -10403.868    513.58927   -8368.0222    7.9299467 
  108000    2001.4913    24995.818    5189.8167    529.58564   -8382.3254    8.0180766 
  109000    2060.4634    25135.697   -1376.1955    545.18938   -8374.0686    7.9734565 
  110000    2005.5518    25030.912   -1609.9327    530.66002   -8404.5888    8.0068351 
  111000    1981.3737     25136.83    496.72769    524.26259   -8360.2337     7.973097 
  112000    1974.9928    25205.274   -10835.419    522.57423   -8393.2906    7.9514464 
  113000    2049.4717    25051.997    3193.7423    542.28102    -8376.691    8.0000963 
  114000    1991.2868    24959.226    6202.8199    526.88556   -8389.6122    8.0298317 
  115000    1993.1429    25141.549   -2089.3512    527.37668   -8369.0388    7.9716007 
  116000    2069.3916     25028.91    7038.2365    547.55174   -8368.4496    8.0074755 
  117000    1906.7688    25130.039    -2890.106    504.52248   -8378.1477    7.9752518 
  118000    2064.3634     25186.22   -2874.3036     546.2213   -8365.8893    7.9574619 
  119000    1994.6283    25160.158   -935.32708    527.76972   -8363.7169    7.9657046 
  120000     1955.954    25065.833    3263.7468    517.53665   -8368.6983    7.9956801 
  121000    2013.5971     25009.47     2663.919    532.78877   -8390.0216    8.0136999 
  122000    2008.1587    25154.021   -2441.8066    531.34978   -8371.7477     7.967648 
  123000    2024.1566    24981.989     6871.764    535.58275    -8383.842    8.0225152 
  124000    2013.9095    25055.866    3012.4592    532.87144   -8374.0849    7.9988609 
  125000    1971.8744     25151.58   -7948.8251    521.74912   -8398.0559    7.9684215 
  126000    1979.2993    25036.684    3566.9541    523.71371   -8376.1143    8.0049893 
  127000    2026.1969    25087.047   -41.562788    536.12262   -8379.2512    7.9889189 
  128000    1985.0172    25100.802   -3151.2265    525.22666   -8386.5318    7.9845411 
  129000    1953.0785    25100.296   -3941.9276     516.7758   -8393.0913     7.984702 
  130000    1994.5471    24934.163    7483.2964    527.74822   -8389.9992    8.0379032 
  131000    1961.6183    25128.549     -1451.69     519.0354    -8372.956    7.9757247 
  132000    1968.3037    25047.688    3350.8842    520.80435   -8373.0456    8.0014726 
  133000    2008.2948    25145.444   -1664.8689    531.38579   -8368.4907    7.9703656 
  134000    1994.1104    25084.096    2082.5981    527.63268   -8368.7411    7.9898587 
  135000    2071.0923    25173.031   -9649.9633    548.00173   -8404.9278    7.9616312 
  136000    2045.3424    24948.491    9794.1254    541.18842   -8377.4445     8.033287 
  137000    1911.4614    25020.854     2583.165    505.76411   -8383.0846    8.0100539 
  138000    1940.6201    25170.993   -3807.4839    513.47938   -8370.0145    7.9622756 
  139000    2032.7432    25066.973    884.65838    537.85474   -8380.8838    7.9953166 
  140000    1959.0728    25023.735    4086.4896    518.36187   -8377.9857    8.0091316 
  141000     1987.132    25207.578   -4189.2731    525.78622   -8363.1824    7.9507198 
  142000     1983.534    25048.508    1528.8798     524.8342   -8385.4861    8.0012107 
  143000    2022.2831    25035.563    3281.5735    535.08703   -8378.5398    8.0053477 
  144000    1993.2912    25178.633   -5593.0386    527.41592   -8376.6596    7.9598597 
  145000    2046.9556    24987.367    6750.1304    541.61528   -8381.0017    8.0207885 
  146000    2016.2987    25127.541   -2804.9521    533.50361   -8380.1741    7.9760444 
  147000     1964.995    25090.405   -1707.6792    519.92888    -8383.821    7.9878497 
  148000    1950.2258    25012.354    5124.6699    516.02101   -8374.8144    8.0127757 
  149000    2035.6285    25110.905   -1377.5466    538.61817   -8378.7886    7.9813287 
  150000    1997.3585    25117.873    1908.7592     528.4921   -8360.9246    7.9791147 
  151000    1963.0445    25011.434    4696.0121    519.41276   -8381.3205    8.0130704 
  152000    2004.4987    25123.344   -3309.4724    530.38136   -8384.6472     7.977377 
  153000    1990.7788     25107.23   -1789.1122    526.75113   -8383.6318     7.982497 
  154000    1957.8895    25102.053    8.0789745    518.04877   -8373.5692    7.9841431 
  155000    2033.2824    25157.142   -655.65267     537.9974   -8358.7922    7.9666596 
  156000     2037.878    25067.219    2079.9118    539.21337   -8378.2524    7.9952381 
  157000    1954.3008    25104.262   -1267.9586    517.09922   -8374.2126    7.9834408 
  158000    2006.0038    25010.955    6505.2739    530.77961   -8373.0345    8.0132242 
  159000    1978.1612    25049.252    4662.4578     523.4126    -8367.445    8.0009731 
  160000    1972.7026    25092.137   -4724.4925    521.96827   -8400.3404    7.9872986 
  161000    2056.1787    25172.186    -3236.931    544.05567   -8370.2077    7.9618983 
  162000    1993.8876    25028.264    2979.8814    527.57372   -8384.3363    8.0076824 
  163000    2046.2536    25311.169    -6448.348    541.42953   -8344.0065    7.9181799 
  164000    1979.3373    25179.604   -2240.6922    523.72377   -8364.7562    7.9595529 
  165000    2047.2742    25089.789    3900.1983    541.69958   -8361.0907     7.988046 
  166000    1988.8053    25206.423   -3105.6685    526.22897   -8356.9033     7.951084 
  167000    2012.2881     25212.79    1047.1206    532.44241   -8334.3454    7.9490763 
  168000    2002.3826    25191.249   -4529.1124    529.82147   -8369.3132    7.9558734 
  169000    2002.7533    25237.656   -3687.0549    529.91956   -8350.8248     7.941244 
  170000    1996.5945    24990.153    6000.4292    528.28994   -8379.7806    8.0198942 
  171000    1943.1202    25129.444    -3084.255    514.14091   -8378.8807    7.9754405 
  172000    1971.2372    25093.007    1406.2684    521.58054    -8371.415    7.9870215 
  173000    2012.8387     25050.17      2833.43    532.58809   -8375.8557    8.0006797 
  174000    2038.4709    25179.029   -6122.6655    539.37025   -8382.0404    7.9597345 
  175000     2031.324     25038.42    5596.9866    537.47924   -8367.4873    8.0044343 
  176000    1992.2279    25061.406    3720.4674    527.13456   -8366.0894    7.9970928 
  177000    1977.6611    25193.191   -4732.2851    523.28026    -8370.598      7.95526 
  178000    2027.3019    25042.017    2862.2637      536.415   -8381.4972    8.0032845 
  179000    1963.6037    25083.412    1079.2344    519.56074   -8371.8923    7.9900768 
  180000    1933.2307    25168.343   -3827.0518    511.52418   -8372.9853     7.963114 
  181000    1994.5906    25017.435    4182.0686    527.75972   -8379.7259    8.0111485 
  182000    1990.7721    25168.279   -2702.7915    526.74938   -8365.9344    7.9631342 
  183000    2012.7262    25078.486    2375.7182    532.55832   -8371.1448    7.9916461 
  184000    2004.2121    25129.526   -2115.8448    530.30554   -8374.1168    7.9754147 
  185000    2039.7163    25049.899    4888.2179    539.69978   -8372.4733    8.0007662 
  186000    1957.9315    25150.375   -1752.6479    518.05989   -8365.7537    7.9688032 
  187000    2049.9377    25031.708    8761.4675    542.40433   -8361.2396    8.0065805 
  188000    1948.3743    25209.927   -6544.7207    515.53111   -8368.2833    7.9499788 
  189000    2035.8613    25089.593   -506.52815    538.67978   -8380.9264    7.9881084 
  190000    2013.2821    25184.073   -2010.9647    532.70542   -8363.0456    7.9581402 
  191000     1897.465    25225.675   -4251.3817    502.06074    -8349.431    7.9450157 
  192000    1996.2348    25018.129    4903.4556    528.19477   -8377.9523    8.0109262 
  193000    1943.9335    25200.524   -4206.6679    514.35608   -8360.5538    7.9529451 
  194000    2069.3591    25096.803   -2209.2554    547.54314   -8391.2533    7.9858135 
  195000    2003.7176    25161.803    1792.2541     530.1747   -8346.8733    7.9651838 
  196000     1965.559    25124.344   -2802.4594     520.0781   -8380.4855    7.9770596 
  197000    2045.1006    25073.492    1692.8294    541.12446   -8379.3235    7.9932379 
  198000    1906.7629    24997.349    2722.9227    504.52091   -8390.6661    8.0175856 
  199000    2024.0117        25155    -3728.157    535.54443   -8378.4404     7.967338 
  200000    1965.5036     25180.83   -5132.8747    520.06344   -8373.2158    7.9591651 
  201000    2065.0434    24986.226    6423.2833    546.40122   -8380.9117    8.0211548 
  202000    1972.1214    25171.457   -4154.9193    521.81449   -8371.9963    7.9621289 
  203000    2022.6603     25067.57   -1566.7576    535.18684   -8392.9318    7.9951262 
  204000    2003.7316    25228.346   -6096.5136     530.1784   -8362.7885    7.9441746 
  205000    2037.5115    25126.951    2350.6424    539.11642    -8356.502    7.9762318 
  206000    1988.2317     25145.93   -1405.8159    526.07719   -8366.9654    7.9702118 
  207000    2014.5141    25019.587    1985.9557    533.03141   -8391.1834    8.0104596 
  208000    1929.7206    25065.399    1402.4864    510.59542   -8375.9006    7.9958188 
  209000    2021.2803    25042.874    3788.7699     534.8217   -8377.6864    8.0030106 
  210000     2063.685    25155.829   -208.30832    546.04179    -8363.079    7.9670753 
  211000     1959.717    25097.584    1227.8966    518.53234   -8367.2965    7.9855649 
  212000    1999.8268    25059.607    2835.8281    529.14521   -8375.8925    7.9976668 
  213000     1972.434    25177.192   -4674.5355    521.89721   -8372.5977    7.9603153 
  214000     2039.635    24926.856    8265.1077    539.67827   -8390.0729    8.0402594 
  215000    1987.9975    25130.452   -1626.9271    526.01523   -8373.8577    7.9751206 
  216000    2026.2003     25157.04    3347.2338    536.12352   -8344.4322    7.9666918 
  217000    1998.8775    25158.125   -2463.2834    528.89403   -8371.3495    7.9663484 
  218000    2034.5655    25114.819   -2435.4575    538.33691   -8386.8999    7.9800849 
  219000     2015.282    24967.166    5650.4248    533.23459   -8390.9876    8.0272783 
  220000    1990.7955    25097.158   -2924.7804    526.75557   -8388.4096    7.9857005 
  221000    2014.7208    25060.208    3186.9825    533.08609   -8368.1974     7.997475 
  222000    1958.5315    25081.945    636.93258    518.21864   -8380.0488    7.9905442 
  223000    2022.3516    25121.879   -1685.8337    535.10517   -8379.1261    7.9778421 
  224000    2017.8245    25095.765    3431.8351    533.90732   -8362.4803    7.9861436 
  225000    1936.3845    25019.302    4532.4286    512.35865   -8373.9972    8.0105506 
  226000    2003.3336    25073.249    1219.8395    530.07308   -8377.7535    7.9933154 
  227000     2005.378    25102.778    386.80006    530.61402   -8371.5282    7.9839126 
  228000    1998.7627     25112.63    170.87546    528.86365   -8371.0921    7.9807804 
  229000    1982.7731    25264.876   -7511.5483    524.63289   -8358.7198    7.9326884 
  230000    1947.4318    24912.845    9124.9967    515.28174   -8383.3874    8.0447812 
  231000    2009.8538    25134.756    169.39809    531.79832   -8364.4953    7.9737549 
  232000    2027.0906    25189.978   -3199.7266    536.35909    -8363.941    7.9562747 
  233000    1999.6169    25124.928    1895.0196    529.08967   -8358.7596    7.9768741 
  234000    1952.9409    25106.115    1935.0771     516.7394   -8362.4572    7.9828515 
  235000    1950.8011    25181.445   -5881.4885    516.17323   -8374.7434    7.9589707 
  236000     2088.784     25104.54    984.47545    552.68287   -8374.1819    7.9833522 
  237000      2000.55    25260.976   -5727.8187    529.33657   -8355.3236     7.933913 
  238000    2054.5026    25000.738     5769.304    543.61218   -8383.6929    8.0164988 
  239000    1975.0607    25088.356   -3055.2023    522.59219     -8393.56     7.988502 
  240000    2022.8258    25025.908     3592.956    535.23065     -8382.49    8.0084362 
  241000    2018.1243    25104.046   -730.38122    533.98663   -8378.4928    7.9835093 
  242000     1956.825    25101.617   -1154.0548    517.76713   -8378.7773     7.984282 
  243000    2044.4044    25235.192   -7338.6013    540.94025   -8368.7074    7.9420194 
  244000    1977.8154    25022.557    2722.2894    523.32108   -8384.4036    8.0095088 
  245000    1983.8641    25025.055    3684.3113    524.92155   -8380.2663    8.0087092 
  246000    2030.1216     25141.43    1994.0801    537.16109    -8354.161    7.9716382 
  247000    1994.6593    25132.209   -2787.1569     527.7779   -8379.9694    7.9745631 
  248000    2046.8804    25096.548    -2562.994    541.59538   -8389.4047    7.9858947 
  249000    2116.2346    25071.774    4912.7222    559.94618    -8368.498    7.9937857 
  250000    1987.1891    25166.474   -2353.5196    525.80132   -8363.4734    7.9637056 
Loop time of 1249.31 on 4 procs for 250000 steps with 2048 atoms

Performance: 17.290 ns/day, 1.388 hours/ns, 200.111 timesteps/s
130.1% CPU use with 2 MPI tasks x 2 OpenMP threads

MPI task timing breakdown:
Section |  min time  |  avg time  |  max time  |%varavg| %total
---------------------------------------------------------------
Pair    | 879.91     | 889.3      | 898.69     |  31.5 | 71.18
Neigh   | 14.147     | 14.174     | 14.2       |   0.7 |  1.13
Comm    | 59.473     | 69.405     | 79.338     | 119.2 |  5.56
Output  | 0.012837   | 0.027882   | 0.042927   |   9.0 |  0.00
Modify  | 274.22     | 274.7      | 275.18     |   2.9 | 21.99
Other   |            | 1.702      |            |       |  0.14

Nlocal:        1024.00 ave        1024 max        1024 min
Histogram: 2 0 0 0 0 0 0 0 0 0
Nghost:        4095.50 ave        4101 max        4090 min
Histogram: 1 0 0 0 0 0 0 0 0 1
Neighs:        76553.0 ave       79215 max       73891 min
Histogram: 1 0 0 0 0 0 0 0 0 1

Total # of neighbors = 153106
Ave neighs/atom = 74.758789
Neighbor list builds = 4605
Dangerous builds = 0


# fix 132 all momentum 100 linear 1 1 1 angular
fix out_file_1 all print 1000 "$(step) $(temp) $(press) ${sys_press} $(vol) $(ke) $(pe) $(density)" file one_phase_heating_$T_.txt screen no title  "step temp press pressGiga vol ke pe density"
fix out_file_1 all print 1000 "$(step) $(temp) $(press) ${sys_press} $(vol) $(ke) $(pe) $(density)" file one_phase_heating_2000_.txt screen no title  "step temp press pressGiga vol ke pe density"

# dump 3 all custom 1000 traj_npt_new.lammpstrj id type x y z
run 50000
Last active /omp style is pair_style eam/alloy/omp
Per MPI rank memory allocation (min/avg/max) = 4.442 | 4.442 | 4.442 Mbytes
Step Temp Volume Press KinEng PotEng Density 
  250000    1987.1891    25166.474   -2353.5196    525.80132   -8363.4734    7.9637056 
  251000    2030.7181    25026.604    3192.0119    537.31891   -8386.5305    8.0082133 
  252000    1985.6912    25107.754   -2975.4907    525.40498   -8387.8229    7.9823303 
  253000    1979.6595    25114.123   -414.49211    523.80903   -8374.0553    7.9803061 
  254000    2033.4659    25170.856   -343.55964    538.04596   -8359.2697    7.9623191 
  255000     1969.632     25080.37    1365.1455    521.15579   -8372.2463    7.9910459 
  256000    1996.3755    25028.002    455.26685    528.23201   -8392.9789     8.007766 
  257000    2016.3649    25125.343   -3253.8061    533.52111   -8383.8667    7.9767423 
  258000    1943.4964    25249.628   -6221.6644    514.24044   -8352.4001    7.9374786 
  259000    2032.6284    24910.484     10941.31    537.82437   -8388.2945    8.0455437 
  260000    1970.8108    25096.053   -1751.0978     521.4677   -8382.0549    7.9860522 
  261000    1962.8453      25052.1    2224.4763    519.36007   -8379.2131    8.0000632 
  262000    1947.8779    25049.247    3295.8769    515.39976   -8371.6647    8.0009746 
  263000    1992.6249    25249.004   -7459.7628    527.23962   -8363.9757    7.9376749 
  264000    2056.3662    25085.146    1829.1471    544.10528   -8372.1523    7.9895245 
  265000    2011.0697    25099.601   -1354.9391    532.12002   -8379.4305    7.9849232 
  266000    1948.1196    25234.759   -5638.2051    515.46372   -8360.4809    7.9421559 
  267000    2022.8807    25103.958    -2452.888    535.24516   -8386.2923    7.9835374 
  268000    1944.4636    25144.606   -1849.9853    514.49635   -8369.9868    7.9706316 
  269000    1985.1898    25077.605   -229.26152    525.27231   -8382.3277     7.991927 
  270000     2048.792    25236.912   -8416.9309    542.10118   -8377.3549    7.9414781 
  271000    2083.8662    25048.469    1756.7081    551.38165   -8389.9753    8.0012231 
  272000    1971.0781     25014.81    2496.0667    521.53844    -8386.242     8.011989 
  273000    1938.2756    25181.536   -2305.0889    512.85902   -8359.8895    7.9589422 
  274000    2010.5477    24971.047    3644.6915     531.9819   -8397.8064    8.0260306 
  275000    2017.6252    25131.536   -1548.9986    533.85457   -8373.9141    7.9747766 
  276000    2049.0112    25119.055   -1213.4039    542.15917   -8377.3426    7.9787391 
  277000    2014.7826    25071.565    1193.8774    533.10243   -8378.0769    7.9938522 
  278000    1959.5127    25157.291   -1957.8243    518.47829   -8364.2254    7.9666124 
  279000    2011.2742    25135.976   -263.43081    532.17413   -8366.2072     7.973368 
  280000    1984.8655      25085.5    308.21402     525.1865   -8373.5417    7.9894116 
  281000    1950.7112    25294.263   -9058.0212    516.14945   -8354.5818    7.9234722 
  282000    2040.1321    24979.868    8295.2571     539.8098   -8371.7549    8.0231965 
  283000    1966.6106    25103.491    2357.0307    520.35635   -8362.0307    7.9836858 
  284000     1986.962    25098.112     478.7661    525.74125   -8373.7853    7.9853971 
  285000    1993.2259    25035.299    5593.9739    527.39865    -8365.343    8.0054321 
  286000    1952.2415    25169.377   -3553.5751    516.55435   -8370.8296    7.9627869 
  287000      2007.09    25063.212     1460.348    531.06701   -8380.5665    7.9965165 
  288000    2035.7547    24924.494    8953.9821    538.65156   -8389.3311    8.0410212 
  289000    1901.5269    25027.367    2098.1582     503.1355   -8382.8137    8.0079692 
  290000    1956.1024    25140.632   -1033.8308    517.57594   -8368.2982    7.9718913 
  291000    1987.4481        25066    239.70245    525.86985   -8385.1664    7.9956272 
  292000    2041.2207    25052.708    397.97367    540.09786   -8387.3354    7.9998692 
  293000    2039.7035    25025.418    4591.4546    539.69641   -8375.6306    8.0085931 
  294000    1961.6347    25247.702   -5165.5648    519.03976   -8354.5446    7.9380842 
  295000    2037.0376      24947.6     6165.198    538.99101   -8393.2665    8.0335739 
  296000    1976.2176    25147.344   -1270.7952    522.89833   -8365.5153    7.9697635 
  297000    1957.1413    25148.008   -1465.3775    517.85081   -8362.9633    7.9695532 
  298000    1957.9327    24963.563    8584.2515    518.06022   -8371.3746    8.0284368 
  299000    1944.4155    25230.246   -5923.3736    514.48362   -8359.3692    7.9435764 
  300000    2046.1662    25172.601   -1087.0629    541.40641   -8359.4403    7.9617669 
Loop time of 244.401 on 4 procs for 50000 steps with 2048 atoms

Performance: 17.676 ns/day, 1.358 hours/ns, 204.582 timesteps/s
133.3% CPU use with 2 MPI tasks x 2 OpenMP threads

MPI task timing breakdown:
Section |  min time  |  avg time  |  max time  |%varavg| %total
---------------------------------------------------------------
Pair    | 174.12     | 175.3      | 176.47     |   8.9 | 71.72
Neigh   | 2.8183     | 2.8198     | 2.8212     |   0.1 |  1.15
Comm    | 11.185     | 12.403     | 13.621     |  34.6 |  5.07
Output  | 0.0017312  | 0.0021898  | 0.0026483  |   1.0 |  0.00
Modify  | 53.522     | 53.555     | 53.588     |   0.4 | 21.91
Other   |            | 0.3251     |            |       |  0.13

Nlocal:        1024.00 ave        1030 max        1018 min
Histogram: 1 0 0 0 0 0 0 0 0 1
Nghost:        4082.50 ave        4087 max        4078 min
Histogram: 1 0 0 0 0 0 0 0 0 1
Neighs:        76583.0 ave       78705 max       74461 min
Histogram: 1 0 0 0 0 0 0 0 0 1

Total # of neighbors = 153166
Ave neighs/atom = 74.788086
Neighbor list builds = 927
Dangerous builds = 0

unfix temp
unfix out_file_1
# unfix 1
# # clear
write_data after_heating_$T.in
write_data after_heating_2000.in
System init for write_data ...
Last active /omp style is pair_style eam/alloy/omp
write_restart after_heating_$T.lmp
write_restart after_heating_2000.lmp
System init for write_restart ...
Last active /omp style is pair_style eam/alloy/omp
next loopVar
# # # thermo_modify flush yes
jump in.lmp ensemble

print """
Hi HI Hi
# """

Hi HI Hi
# 
variable T equal 1900+${loopVar}*100
variable T equal 1900+2*100
# variable T equal 1200
# velocity all create 1200 123123
reset_timestep 0
fix 1 all npt temp $T $T $(dt*100) iso 0 0 $(dt*1000)
fix 1 all npt temp 2100 $T $(dt*100) iso 0 0 $(dt*1000)
fix 1 all npt temp 2100 2100 $(dt*100) iso 0 0 $(dt*1000)
fix 1 all npt temp 2100 2100 0.10000000000000000555 iso 0 0 $(dt*1000)
fix 1 all npt temp 2100 2100 0.10000000000000000555 iso 0 0 1
print """
<--------------------------------------------------------------------->
<------------------ Equilibrating at temperature $T ----------------->
<--------------------------------------------------------------------->
"""

<--------------------------------------------------------------------->
<------------------ Equilibrating at temperature 2100 ----------------->
<--------------------------------------------------------------------->

fix temp all print 1000 "$(step) $(temp) $(press) ${sys_press} $(vol) $(ke) $(pe) $(density)" file temp_hot.txt screen no title  "step temp press pressGiga vol ke pe density"
run 250000
Last active /omp style is pair_style eam/alloy/omp
Per MPI rank memory allocation (min/avg/max) = 4.442 | 4.442 | 4.442 Mbytes
Step Temp Volume Press KinEng PotEng Density 
       0    2046.1662    25172.601   -1087.0629    541.40641   -8359.4403    7.9617669 
    1000     2076.622    25295.241    375.71126    549.46488   -8316.4498    7.9231657 
    2000    2119.7507    25194.663    6460.5629    560.87652   -8319.6598    7.9547954 
    3000    2068.3909    25404.897    -10828.23    547.28695   -8336.6337    7.8889668 
    4000    2092.7007    25309.668    1693.4866    553.71923   -8308.7726    7.9186493 
    5000    2074.7861    25235.397    2954.0162     548.9791   -8318.8896     7.941955 
    6000    2077.7109    25290.809   -1178.4499    549.75298   -8327.0451    7.9245542 
    7000    2056.6831    25145.426    4369.5283    544.18914   -8343.7079    7.9703715 
    8000    2118.9435    25296.673    1877.3638    560.66295   -8313.4478    7.9227172 
    9000    2147.0799    25483.267   -8054.3928    568.10773    -8304.967    7.8647054 
   10000    2054.8655    25280.909   -1379.2389     543.7082   -8329.4499    7.9276575 
   11000     2082.746    25190.128    6609.7489    551.08526   -8318.2178    7.9562273 
   12000    2062.3743    25341.918   -166.47635      545.695     -8305.61     7.908572 
   13000    2130.5024    25407.687   -11080.954    563.72139   -8342.4682    7.8881005 
   14000    2167.7627    25249.275    981.88287     573.5803   -8338.0134    7.9375897 
   15000    2108.6636    25322.129   -2141.2908    557.94294   -8322.5714    7.9147527 
   16000    2097.9592    25246.376    2707.3204     555.1106   -8320.3757    7.9385011 
   17000    2078.7648     25241.91    1905.9624    550.03185   -8324.7986    7.9399058 
   18000    2139.5915    25372.579   -4228.9761    566.12632   -8319.8616    7.8990153 
   19000    2156.0503    25325.273    358.43247    570.48125   -8308.0313      7.91377 
   20000     2036.905    25355.292    -3712.035    538.95593   -8316.5557    7.9044007 
   21000    2063.9448    25370.444   -5754.7936    546.11054   -8322.0497    7.8996799 
   22000    2102.1599    25339.815    -2940.149    556.22208   -8318.7925    7.9092285 
   23000    2061.1243    25296.518    4888.2588    545.36424   -8292.4027    7.9227657 
   24000    2071.2801    25393.536   -995.96668    548.05143   -8295.8006    7.8924963 
   25000    2095.2542    25286.761    2047.6246    554.39486   -8313.4678    7.9258227 
   26000    2163.3799     25298.86    2349.8143    572.42063   -8309.6192    7.9220324 
   27000    2087.0791    25520.013   -3905.1982    552.23177   -8272.7007    7.8533811 
   28000    2105.3833    25300.196    756.01139    557.07499   -8310.6731    7.9216139 
   29000    2115.8644    25352.506    5465.1862    559.84824   -8279.0871    7.9052692 
   30000     2049.079    25200.049      4802.57    542.17713    -8322.878    7.9530951 
   31000      2068.23    25365.916   -2226.8306    547.24437   -8306.5152    7.9010899 
   32000    2061.0923    25205.245    5468.6589     545.3558   -8322.7623    7.9514555 
   33000    2096.4962     25129.75    9080.1671     554.7235   -8327.3314    7.9753434 
   34000    2092.5774    25397.351   -3070.4038     553.6866   -8299.6494    7.8913108 
   35000    2054.2248     25395.57   -5474.9275    543.53868    -8314.668    7.8918642 
   36000    2185.7193      25294.2    2385.2685    578.33152   -8315.0967    7.9234917 
   37000    2128.0758     25304.09   -930.24725    563.07933   -8324.4536    7.9203951 
   38000    2156.5044    25300.891    2913.3784     570.6014   -8307.7287    7.9213963 
   39000    2096.5271    25377.571   -1240.8079    554.73167   -8305.9917    7.8974613 
   40000    2129.3738    25181.476    6955.8744    563.42276   -8320.6444     7.958961 
   41000    2094.5622    25300.149   -2855.7063    554.21177   -8331.4271    7.9216288 
   42000    2042.8811    25273.433    2466.9597    540.53718   -8309.4887    7.9300026 
   43000    2166.5579    25453.348   -2165.1535    573.26151   -8285.0587    7.8739497 
   44000    2092.4589    25413.277    93.900715    553.65524   -8286.4043    7.8863655 
   45000    2127.4028    25164.895    4110.0486    562.90125   -8339.6895    7.9642053 
   46000    2114.2626    25175.786    4014.9483    559.42441   -8337.5108      7.96076 
   47000    2059.7859    25473.969   -7214.4794    545.01011   -8297.9571    7.8675759 
   48000     2085.919    25348.888    -382.5075    551.92482   -8309.3497    7.9063975 
   49000     2249.382    25341.291    1993.9856    595.17639   -8305.7613    7.9087677 
   50000    2132.8741     25353.13   -4223.0585    564.34892   -8324.7134    7.9050747 
   51000    2169.5813    25391.928   -8965.5478    574.06149   -8334.6533    7.8929959 
   52000    2167.9328    25343.508    490.23939    573.62529   -8306.5654     7.908076 
   53000    2092.7165    25129.693    4607.4342     553.7234   -8347.2172    7.9753614 
   54000     2082.956    25328.144   -3705.3519    551.14081   -8326.3778     7.912873 
   55000    2109.9565    25313.529   -876.16552    558.28504   -8321.7207    7.9174415 
   56000    2069.6945    25122.801    5947.7048    547.63188    -8347.447    7.9775494 
   57000    2133.3619    25275.869    3654.4559    564.47799   -8314.4424    7.9292381 
   58000    2083.5572    25305.096   -1843.5011    551.29989   -8322.1486    7.9200802 
   59000    2037.9277    25429.785   -5236.0417    539.22653   -8299.9345    7.8812457 
   60000    2107.7368    25097.373    11007.373    557.69771   -8327.7576    7.9856322 
   61000    2103.5478    25230.921    630.02339    556.58931   -8333.4852    7.9433638 
   62000    2072.5019     25242.49   -423.31161    548.37472   -8335.9922    7.9397233 
   63000    2109.1939    25249.438    468.61545    558.08325   -8332.1189    7.9375385 
   64000    2046.1764    25243.498   -548.81002     541.4091   -8337.7942    7.9394063 
   65000    2116.7744     25299.33    840.90471    560.08903   -8313.9913     7.921885 
   66000    2040.4554    25286.704     721.3687    539.89534   -8315.8845    7.9258406 
   67000     2108.132    25205.715   -2143.5743    557.80228   -8358.5077    7.9513072 
   68000    2116.9226    25107.335    10242.556    560.12823   -8331.6322    7.9824634 
   69000    2059.5661    25374.584   -4393.1664    544.95197   -8318.2023     7.898391 
   70000    2122.6392     25280.13    -1857.681    561.64083   -8334.1798    7.9279019 
   71000    2121.3202    25270.257    7327.2682     561.2918   -8293.6758     7.930999 
   72000    2109.4446     25339.59   -2392.6016    558.14959    -8318.386    7.9092986 
   73000      2070.03    25379.539   -733.85228    547.72064   -8296.9156    7.8968489 
   74000    2133.0517     25314.29    606.05981    564.39593   -8313.2642    7.9172035 
   75000    2154.1754    25223.139    1813.1617    569.98514   -8338.0673    7.9458145 
   76000    2095.3354    25418.131   -7813.4426    554.41636    -8318.126    7.8848594 
   77000    2089.9282    25351.846   -3244.0323    552.98562   -8316.8594     7.905475 
   78000    2091.5917      25299.7    3695.9369    553.42578   -8303.4913    7.9217694 
   79000    2059.1367    25384.078   -2112.7378    544.83834   -8299.5251    7.8954368 
   80000    2121.6425    25370.798     4119.254    561.37709   -8281.7684    7.8995696 
   81000    2123.8954    25404.724    3591.9068    561.97321   -8272.0856    7.8890206 
   82000    2149.5988    25452.003   -8402.7732    568.77421   -8318.9384     7.874366 
   83000    2044.2468    25320.734    1976.1668    540.89854    -8300.007    7.9151886 
   84000    2037.7167    25304.701    3695.9915    539.17069    -8296.357    7.9202037 
   85000    2057.1243    25305.189    -1167.432    544.30587   -8322.2691    7.9200511 
   86000    2137.0956    25322.027   -233.39231    565.46592   -8317.0853    7.9147845 
   87000    2131.1959    25333.729   -1465.2658    563.90488   -8314.0612    7.9111286 
   88000    2105.5738    25303.976    375.75867    557.12539   -8315.1394    7.9204307 
   89000    2110.2752    25124.042    9627.7132    558.36934   -8326.6998    7.9771552 
   90000    2104.0085    25362.443   -2051.5654    556.71121   -8309.3206     7.902172 
   91000    2085.3651    25230.193    845.08198    551.77825   -8336.0857     7.943593 
   92000    2080.9184    25207.668    3708.3906    550.60167    -8330.825    7.9506913 
   93000    2047.2412    25362.144   -2372.9074    541.69084   -8311.7281    7.9022653 
   94000    2132.2026    25325.422   -401.12107    564.17125    -8313.371    7.9137236 
   95000    2159.7935    25256.201    2824.5347    571.47167   -8324.3589    7.9354131 
   96000    2083.0149    25408.265   -5897.8203    551.15639   -8314.0604     7.887921 
   97000    2143.7031    25240.065     490.4908    567.21423   -8336.9236    7.9404861 
   98000    2100.8519    25244.971    4599.8153      555.876   -8313.2999    7.9389429 
   99000    2107.6422    25215.519   -2588.1846    557.67267   -8359.2411    7.9482156 
  100000    2115.4162    25377.511    -1858.931    559.72964   -8303.7249    7.8974799 
  101000    2132.6245     25338.89   -1385.6777    564.28289   -8314.1907    7.9095172 
  102000    2015.3067    25242.236    1150.9833    533.24111   -8322.5505    7.9398033 
  103000    2100.6252    25403.642   -4127.6998    555.81602   -8303.4298    7.8893565 
  104000    2088.6164    25162.219    4943.0962    552.63854   -8338.1277    7.9650522 
  105000    2129.5594    25363.293   -3968.1491    563.47186   -8321.5721     7.901907 
  106000    2014.6977    25347.956    -4331.317    533.07998   -8320.2959    7.9066884 
  107000    2157.7627    25262.224    2350.8946    570.93433   -8321.3508     7.933521 
  108000    2143.6402    25228.252    4499.9809    567.19759   -8321.2448    7.9442044 
  109000     2086.867    25235.453   -317.82394    552.17564   -8338.7959    7.9419372 
  110000    2062.7805    25191.015    2309.4779    545.80246   -8339.3418    7.9559473 
  111000    2103.4689    25203.503    3933.1686    556.56845   -8328.4129    7.9520052 
  112000    1998.9939    25274.999   -4714.1796    528.92483   -8344.8354    7.9295113 
  113000    2145.1291    25122.819    7885.1882    567.59154   -8340.1995    7.9775437 
  114000    2130.9749    25336.978    -756.9363    563.84641   -8314.3838    7.9101142 
  115000      2113.52    25361.451   -6165.4052    559.22792   -8330.4764    7.9024812 
  116000    2118.1373    25185.656    3861.8198    560.44963   -8338.6579      7.95764 
  117000    2143.6208    25248.238       534.63    567.19244    -8331.127    7.9379157 
  118000    2082.4546    25175.759     5706.664    551.00815   -8328.3748    7.9607684 
  119000    2038.7541    25294.994    311.75207     539.4452   -8320.0926    7.9232431 
  120000    2059.2917    25236.909    1959.5366    544.87936   -8323.9688    7.9414791 
  121000    2082.4527    25325.632   -731.80952    551.00765   -8313.0635    7.9136579 
  122000    2134.4292    25381.486   -1082.8607    564.76041   -8301.0133    7.8962432 
  123000    2150.3532    25274.842    109.40216    568.97382   -8325.5748    7.9295603 
  124000    2098.2153    25336.227   -2405.3194    555.17837   -8319.6053    7.9103485 
  125000    2105.0086    25177.867    5133.8968    556.97585   -8334.7204    7.9601019 
  126000    2087.1997    25248.052    2299.7153    552.26369   -8318.0673    7.9379743 
  127000    2083.8531    25327.291   -3172.0845    551.37819   -8325.1942    7.9131394 
  128000    2139.8528    25297.509    287.34793    566.19547     -8320.05    7.9224553 
  129000    2056.5998    25233.531    1872.2357    544.16708   -8321.2711    7.9425422 
  130000    2116.4207    25457.434   -7730.9461    559.99542    -8309.821     7.872686 
  131000    2060.9224    25439.833   -1445.0896    545.31083   -8283.6668    7.8781329 
  132000    2086.5105    25372.071   -8837.8117    552.08133   -8336.7476    7.8991735 
  133000     2084.163    25171.504    5988.8842    551.46018   -8327.4174    7.9621139 
  134000     2147.358    25365.723    -205.3865     568.1813   -8305.4756    7.9011503 
  135000    2089.7673    25118.259    6383.4609    552.94305   -8340.4132    7.9789919 
  136000    2117.5109    25349.166   -3056.2112     560.2839    -8321.974     7.906311 
  137000    2103.8796    25242.245   -584.13491     556.6771   -8338.8393    7.9398003 
  138000     2103.004    25412.906   -3975.6335    556.44542   -8307.5309    7.8864805 
  139000    2036.4029    25273.666    1352.4965    538.82309   -8316.8184    7.9299293 
  140000     2083.998    25333.476   -2887.2154    551.41652   -8320.9028    7.9112075 
  141000    2132.7345    25339.516   -874.36247      564.312   -8314.9693    7.9093217 
  142000    2071.8995    25259.923    3496.9481    548.21533   -8313.0424    7.9342437 
  143000    2087.0968    25365.147   -1209.9919    552.23646   -8302.8933    7.9013295 
  144000    2069.0145    25296.154   -179.81307    547.45197   -8321.6933    7.9228798 
  145000    2044.3963    25114.042    5659.1846     540.9381   -8343.0714    7.9803319 
  146000    2092.4252    25204.555     5702.601    553.64633   -8320.7615    7.9516733 
  147000    2072.0919    25391.434   -3019.1059    548.26624   -8303.2536    7.8931494 
  148000     2106.105    25390.367   -1888.4999    557.26594   -8302.9289    7.8934814 
  149000    2104.0678    25335.723    2695.0947     556.7269   -8294.7129    7.9105059 
  150000     2093.306    25344.257   -3182.4286    553.87938   -8322.8305    7.9078423 
  151000     2040.603    25397.818   -2195.1131    539.93442   -8295.7214    7.8911655 
  152000    2159.3581    25294.641    4435.3832    571.35647    -8300.238    7.9233538 
  153000    2074.5152    25312.355    1047.4239    548.90743   -8308.5042    7.9178086 
  154000    2155.8407    25338.069   -2972.8887    570.42579   -8323.7928    7.9097735 
  155000    2057.1742     25286.85    3196.5277    544.31907   -8302.2628     7.925795 
  156000    2086.0123    25337.937   -517.62455    551.94951   -8309.0801    7.9098148 
  157000     2090.684    25386.243   -5872.3168    553.18563   -8319.6634    7.8947637 
  158000    2090.3358    25248.056    1720.6264    553.09349   -8327.5654    7.9379728 
  159000    2172.6259     25349.74   -7.5214859    574.86708   -8309.4471    7.9061317 
  160000    2117.7719    25318.355   -2616.3536    560.35294   -8329.4108    7.9159324 
  161000    2108.4676    25329.132   -2406.2298    557.89108   -8321.9768    7.9125643 
  162000     2091.807    25277.208   -1224.1319    553.48275   -8332.2619    7.9288181 
  163000    2056.8535     25215.16    4963.6477    544.23421    -8319.246    7.9483288 
  164000    2053.6128    25073.179    9503.8918    543.37675   -8346.0902    7.9933377 
  165000    2163.8637    25384.919   -2064.1711    572.54863   -8305.3642    7.8951752 
  166000    2054.6063    25365.019   -3036.4529    543.63962   -8310.3545    7.9013696 
  167000    2115.1744    25178.598    4947.6237    559.66567   -8331.6184    7.9598707 
  168000    2109.3122    25175.398    2589.0144    558.11454   -8341.0237    7.9608826 
  169000    2170.0978    25311.566   -1719.2434    574.19815   -8328.4417    7.9180554 
  170000    2122.2727    25252.434    1238.5679    561.54383   -8328.7031    7.9365969 
  171000    2052.8203    25172.128    4107.2342    543.16705   -8334.1491    7.9619167 
  172000    2139.7265    25272.541    871.37333    566.16203   -8324.9734    7.9302823 
  173000    2098.8639     25311.96   -3324.0221    555.34998   -8332.3196    7.9179323 
  174000    2117.5953    25330.776    127.04528    560.30622    -8310.651    7.9120508 
  175000    2064.2354    25186.121   -601.55656    546.18742    -8352.911     7.957493 
  176000    2102.0202    25459.757   -3678.3838    556.18512   -8289.5764    7.8719676 
  177000    2092.3061    25436.257   -586.28656     553.6148   -8276.6491    7.8792404 
  178000    2086.2541    25197.479    3075.9166    552.01347   -8336.4264    7.9539061 
  179000    2103.8286    25224.098   -491.82591    556.66363   -8346.0499    7.9455124 
  180000    2106.0228    25548.172   -7416.7522     557.2442   -8277.0257    7.8447252 
  181000    2096.5354    25179.781    4696.8527    554.73386   -8332.2871    7.9594969 
  182000     2149.971     25131.33     3128.656    568.87269   -8357.0272     7.974842 
  183000    2100.5124    25399.219   -9399.4585    555.78617    -8333.097    7.8907304 
  184000    2094.9423    25402.309   -2863.1902    554.31233   -8300.4753    7.8897704 
  185000    2121.3793    25229.172    4606.4442    561.30745   -8315.6916    7.9439144 
  186000    2103.1959     25308.19   -1132.6032     556.4962   -8323.9137    7.9191119 
  187000    2114.2638    25374.713    6.1420725    559.42473   -8298.2585     7.898351 
  188000    2180.7415    25303.382    2720.2516    577.01443    -8310.477    7.9206167 
  189000    2098.0129    25382.515    663.04541    555.12482   -8289.0955    7.8959232 
  190000    2042.1342    25492.315    -3337.353    540.33955   -8275.5517     7.861914 
  191000    2067.1946     25274.91   -1058.7974    546.97042   -8325.7851     7.929539 
  192000    2061.8902    25194.798    7216.9556     545.5669   -8314.4074    7.9547526 
  193000    2126.0883    25265.288    3364.8501    562.55343   -8315.6513     7.932559 
  194000    2131.8109    25519.833   -10082.213    564.06761    -8302.564    7.8534363 
  195000    2071.3838    25334.202    965.87407    548.07888   -8301.2923    7.9109808 
  196000    2132.6982    25266.207    4286.2398    564.30239    -8312.789    7.9322704 
  197000    2170.4676    25487.064   -8235.1384      574.296   -8304.8411    7.8635337 
  198000    2080.0505    25185.666    6367.1218    550.37204   -8321.4671     7.957637 
  199000    2105.8145    25369.807    553.20327    557.18907   -8294.3112    7.8998783 
  200000    2092.4923    25331.095   -276.66952    553.66409   -8313.0637    7.9119511 
  201000    2087.3723    25516.581   -9726.8956    552.30936   -8302.5222    7.8544374 
  202000    2134.1848     25219.42    3577.4496    564.69574   -8327.1839    7.9469863 
  203000     2115.917    25325.383    137.78267    559.86215   -8309.9026    7.9137358 
  204000      2161.51    25296.101    3787.9018    571.92585   -8307.1474    7.9228964 
  205000    2064.6064    25376.841   -2552.8195     546.2856   -8306.3775    7.8976886 
  206000     2087.431    25281.528    771.64306     552.3249    -8321.787    7.9274634 
  207000    2070.5096    25386.878   -5602.8223    547.84757   -8319.1117    7.8945661 
  208000    2132.3648    25192.576    7168.7262    564.21417   -8319.2585    7.9554544 
  209000    2098.0866    25307.187    2232.3781     555.1443   -8302.5374    7.9194256 
  210000    2080.6776     25330.59   -383.68976    550.53796   -8312.1163    7.9121089 
  211000    2077.2688    25331.431   -2562.6424    549.63601   -8319.7955    7.9118462 
  212000    2037.5303    25097.009    8894.1741    539.12139   -8334.6522    7.9857479 
  213000     2091.785    25338.366   -670.65659    553.47692   -8308.4545    7.9096808 
  214000    2094.0277    25310.904    2223.8052    554.07034   -8308.0969    7.9182628 
  215000    2091.7979    25197.312    1580.0903    553.48035   -8340.4158    7.9539589 
  216000     2107.599    25335.021   -1655.9072    557.66124   -8314.1821    7.9107252 
  217000    2122.8245     25284.73    2794.2694    561.68983   -8308.2746    7.9264594 
  218000    2130.9542    25329.563   -28.754106    563.84093   -8310.8548    7.9124296 
  219000     2088.107    25378.721   -6299.2522    552.50376   -8324.4879    7.8971036 
  220000    2079.3756    25245.828    4398.3976    550.19345   -8313.9281    7.9386734 
  221000    2063.0224    25419.807   -5190.8955    545.86649   -8300.0887    7.8843395 
  222000    2158.1968    25345.719   -839.32945     571.0492   -8308.5924     7.907386 
  223000    2073.3862    25270.243   -581.26369    548.60869   -8327.8405    7.9310035 
  224000    2079.7276    25273.662    1885.3268    550.28659   -8319.8961    7.9299305 
  225000    2171.2843    25206.653    4774.8836     574.5121   -8327.5759    7.9510113 
  226000    2094.8603    25287.742   -2235.7107    554.29065   -8333.0052    7.9255154 
  227000    2062.2723    25320.168   -1579.8119    545.66801   -8321.4971    7.9153655 
  228000    2196.2157    25245.292    2015.6285    581.10882   -8330.8787    7.9388422 
  229000      2002.02    25425.014   -7197.8295    529.72553   -8312.3643    7.8827248 
  230000    2069.8028     25319.46   -1358.8236    547.66055   -8316.8139    7.9155868 
  231000    2115.1713    25248.879     2761.808    559.66485   -8319.9683    7.9377142 
  232000    2125.3265    25278.225    2231.4762    562.35188   -8316.1292     7.928499 
  233000    2110.5899    25173.457    3876.1269    558.45262   -8339.7182    7.9614963 
  234000    2141.8433    25196.709    2855.8556    566.72215   -8338.5177    7.9541494 
  235000    2081.4075    25304.033    1037.5538     550.7311   -8312.3807    7.9204126 
  236000    2088.0445      25284.6    805.87691    552.48722   -8316.7627    7.9265003 
  237000    2062.3517     25265.66    4353.9581    545.68901   -8306.2839    7.9324423 
  238000    2108.2713    25250.228    331.91642    557.83913   -8334.4428    7.9372901 
  239000    2133.3103    25338.155   -4695.7806    564.46433   -8332.5708    7.9097468 
  240000    2108.6049    25343.255   -3793.8452     557.9274   -8324.9147    7.9081549 
  241000    2045.5465    25209.726     2260.648    541.24242    -8335.898    7.9500421 
  242000    2128.0769    25297.306   -1776.7412    563.07959   -8327.3165    7.9225189 
  243000    2198.5373    25205.096    2412.5535    581.72312   -8339.2796    7.9515027 
  244000    2011.8743    25379.706   -5056.7739    532.33291   -8313.3779    7.8967971 
  245000    2061.0527    25319.304   -862.32189     545.3453   -8317.7099    7.9156357 
  246000    2135.9304    25342.134    222.35982    565.15762   -8311.0419    7.9085049 
  247000    2105.6365     25334.14   -2135.7201    557.14198   -8318.3177    7.9110001 
  248000    2118.6235    25181.308    3174.1681    560.57828   -8342.3601    7.9590141 
  249000    2090.7653    25368.488    202.34111    553.20713   -8300.6127    7.9002889 
  250000    2126.1431     25388.41   -1599.5743    562.56793   -8302.8758    7.8940898 
Loop time of 1230.62 on 4 procs for 250000 steps with 2048 atoms

Performance: 17.552 ns/day, 1.367 hours/ns, 203.150 timesteps/s
131.7% CPU use with 2 MPI tasks x 2 OpenMP threads

MPI task timing breakdown:
Section |  min time  |  avg time  |  max time  |%varavg| %total
---------------------------------------------------------------
Pair    | 872.54     | 879.59     | 886.64     |  23.8 | 71.48
Neigh   | 14.621     | 14.654     | 14.686     |   0.9 |  1.19
Comm    | 57.133     | 64.503     | 71.873     |  91.8 |  5.24
Output  | 0.011124   | 0.014813   | 0.018503   |   3.0 |  0.00
Modify  | 269.85     | 270.18     | 270.51     |   2.0 | 21.95
Other   |            | 1.682      |            |       |  0.14

Nlocal:        1024.00 ave        1032 max        1016 min
Histogram: 1 0 0 0 0 0 0 0 0 1
Nghost:        4043.50 ave        4060 max        4027 min
Histogram: 1 0 0 0 0 0 0 0 0 1
Neighs:        76012.5 ave       79340 max       72685 min
Histogram: 1 0 0 0 0 0 0 0 0 1

Total # of neighbors = 152025
Ave neighs/atom = 74.230957
Neighbor list builds = 4778
Dangerous builds = 0


# fix 132 all momentum 100 linear 1 1 1 angular
fix out_file_1 all print 1000 "$(step) $(temp) $(press) ${sys_press} $(vol) $(ke) $(pe) $(density)" file one_phase_heating_$T_.txt screen no title  "step temp press pressGiga vol ke pe density"
fix out_file_1 all print 1000 "$(step) $(temp) $(press) ${sys_press} $(vol) $(ke) $(pe) $(density)" file one_phase_heating_2100_.txt screen no title  "step temp press pressGiga vol ke pe density"

# dump 3 all custom 1000 traj_npt_new.lammpstrj id type x y z
run 50000
Last active /omp style is pair_style eam/alloy/omp
Per MPI rank memory allocation (min/avg/max) = 4.442 | 4.442 | 4.442 Mbytes
Step Temp Volume Press KinEng PotEng Density 
  250000    2126.1431     25388.41   -1599.5743    562.56793   -8302.8758    7.8940898 
  251000     2117.768    25170.921    6146.5838    560.35191   -8327.3685    7.9622986 
  252000    2081.2446    25408.447   -7027.0881    550.68799   -8316.0999    7.8878645 
  253000    2109.2092    25208.431   -1388.7339    558.08729   -8352.1557    7.9504508 
  254000    2155.0362    25297.904    -585.7638    570.21292   -8325.2017    7.9223317 
  255000    2088.7735    25340.057   -5471.4277    552.68011   -8327.2707    7.9091529 
  256000    2090.0241    25260.512    739.78618    553.01101   -8325.2287    7.9340587 
  257000    2091.0732    25270.361    1506.1092     553.2886   -8320.9957    7.9309666 
  258000    2140.3371    25347.804   -5918.5057    566.32359   -8332.2529    7.9067358 
  259000    2062.8079    25249.448    -959.1921    545.80972   -8336.1745    7.9375355 
  260000    2141.1641    25189.547     6857.983    566.54242   -8321.8015     7.956411 
  261000    2058.6785    25291.711   -3230.6823     544.7171   -8332.3866    7.9242715 
  262000    2152.5346    25376.948   -3623.8545    569.55101   -8315.9924    7.8976553 
  263000    2084.2206    25381.351    3349.2146    551.47542    -8275.438    7.8962854 
  264000    2062.9164    25307.569   -363.25671    545.83844   -8316.1809     7.919306 
  265000    2032.2256    25284.678   -3615.5385    537.71779    -8336.469    7.9264758 
  266000    2144.5025    25198.303    4317.9155    567.42575   -8332.7312     7.953646 
  267000    2077.1718    25281.515    -1563.081    549.61034   -8329.3348    7.9274675 
  268000     2083.383    25302.541    -3286.777    551.25381    -8332.018      7.92088 
  269000    2094.4625    25197.658    3933.0367    554.18538   -8329.9823    7.9538497 
  270000    2084.5899    25350.057   -4811.5211    551.57315   -8326.5408    7.9060331 
  271000    2119.1983    25316.569   -4846.7131    560.73038   -8335.5107     7.916491 
  272000    2100.2619    25210.395    40.454986    555.71989   -8344.7011    7.9498312 
  273000    2094.7703    25339.828   -1746.2322    554.26683   -8307.6865    7.9092243 
  274000     2085.444    25218.791    2041.8509    551.79913   -8332.7638    7.9471845 
  275000    2077.6989    25255.702    1223.3395    549.74982   -8324.5676    7.9355699 
  276000    2132.4056    25243.992    3721.2655    564.22497   -8319.0357    7.9392511 
  277000    2074.2517    25448.047   -7580.3707     548.8377   -8309.3832    7.8755899 
  278000    2105.1848    25231.293    2724.5222    557.02247    -8327.244    7.9432467 
  279000    2135.4851    25253.916    2335.6492    565.03979    -8323.252     7.936131 
  280000    2120.2794    25355.133   -1358.9295    561.01641    -8310.234    7.9044503 
  281000    2046.9862    25166.508    2630.5487    541.62336   -8347.7362    7.9636947 
  282000    2075.3742    25190.389    5608.9344    549.13472   -8325.5392     7.956145 
  283000    2033.7816    25239.066    391.27785     538.1295   -8326.3982    7.9408005 
  284000    2057.2635    25474.657   -7634.7015    544.34269   -8298.3076    7.8673636 
  285000    2032.2826    25248.619    2029.8971    537.73286   -8322.8544    7.9377959 
  286000    2082.7439     25207.85    7549.9739     551.0847    -8310.413    7.9506338 
  287000    2120.1434    25428.013   -7113.3562    560.98043   -8313.5879     7.881795 
  288000     2096.548    25155.302    3556.8586     554.7372   -8352.1115    7.9672423 
  289000    2115.0222    25249.183    4689.4551     559.6254   -8313.5506    7.9376185 
  290000    2123.0948    25397.312   -3774.3054    561.76138   -8306.5998    7.8913227 
  291000    2126.3859    25365.829   -2730.4227    562.63217   -8311.9752    7.9011171 
  292000     2046.135    25252.815    4273.0161    541.39815   -8311.3318     7.936477 
  293000    2013.1493    25293.611    2278.8804    532.67029   -8309.8672    7.9236763 
  294000    2122.4583    25402.307   -490.37035    561.59295    -8291.191    7.8897711 
  295000    2113.5531    25333.539   -1136.2375    559.23667   -8313.9327    7.9111878 
  296000    2092.7112    25237.831    1137.0647    553.72201   -8329.4064     7.941189 
  297000     2113.881    25315.134    -602.7943    559.32342   -8317.3314    7.9169397 
  298000    2073.5825    25387.038    955.49859    548.66062   -8289.3497    7.8945164 
  299000     2049.359    25175.155    4326.8576     542.2512   -8334.3754    7.9609595 
  300000    2087.5093    25279.528    -2902.671     552.3456   -8337.6022    7.9280905 
Loop time of 244.841 on 4 procs for 50000 steps with 2048 atoms

Performance: 17.644 ns/day, 1.360 hours/ns, 204.214 timesteps/s
131.8% CPU use with 2 MPI tasks x 2 OpenMP threads

MPI task timing breakdown:
Section |  min time  |  avg time  |  max time  |%varavg| %total
---------------------------------------------------------------
Pair    | 173.8      | 175.39     | 176.99     |  12.0 | 71.64
Neigh   | 2.8961     | 2.8964     | 2.8967     |   0.0 |  1.18
Comm    | 11.122     | 12.741     | 14.361     |  45.4 |  5.20
Output  | 0.001859   | 0.0045882  | 0.0073174  |   4.0 |  0.00
Modify  | 53.456     | 53.479     | 53.502     |   0.3 | 21.84
Other   |            | 0.3275     |            |       |  0.13

Nlocal:        1024.00 ave        1036 max        1012 min
Histogram: 1 0 0 0 0 0 0 0 0 1
Nghost:        4102.50 ave        4126 max        4079 min
Histogram: 1 0 0 0 0 0 0 0 0 1
Neighs:        76510.0 ave       77721 max       75299 min
Histogram: 1 0 0 0 0 0 0 0 0 1

Total # of neighbors = 153020
Ave neighs/atom = 74.716797
Neighbor list builds = 953
Dangerous builds = 0

unfix temp
unfix out_file_1
# unfix 1
# # clear
write_data after_heating_$T.in
write_data after_heating_2100.in
System init for write_data ...
Last active /omp style is pair_style eam/alloy/omp
write_restart after_heating_$T.lmp
write_restart after_heating_2100.lmp
System init for write_restart ...
Last active /omp style is pair_style eam/alloy/omp
next loopVar
# # # thermo_modify flush yes
jump in.lmp ensemble

print """
Hi HI Hi
# """

Hi HI Hi
# 
variable T equal 1900+${loopVar}*100
variable T equal 1900+3*100
# variable T equal 1200
# velocity all create 1200 123123
reset_timestep 0
fix 1 all npt temp $T $T $(dt*100) iso 0 0 $(dt*1000)
fix 1 all npt temp 2200 $T $(dt*100) iso 0 0 $(dt*1000)
fix 1 all npt temp 2200 2200 $(dt*100) iso 0 0 $(dt*1000)
fix 1 all npt temp 2200 2200 0.10000000000000000555 iso 0 0 $(dt*1000)
fix 1 all npt temp 2200 2200 0.10000000000000000555 iso 0 0 1
print """
<--------------------------------------------------------------------->
<------------------ Equilibrating at temperature $T ----------------->
<--------------------------------------------------------------------->
"""

<--------------------------------------------------------------------->
<------------------ Equilibrating at temperature 2200 ----------------->
<--------------------------------------------------------------------->

fix temp all print 1000 "$(step) $(temp) $(press) ${sys_press} $(vol) $(ke) $(pe) $(density)" file temp_hot.txt screen no title  "step temp press pressGiga vol ke pe density"
run 250000
Last active /omp style is pair_style eam/alloy/omp
Per MPI rank memory allocation (min/avg/max) = 4.442 | 4.442 | 4.442 Mbytes
Step Temp Volume Press KinEng PotEng Density 
       0    2087.5093    25279.528    -2902.671     552.3456   -8337.6022    7.9280905 
    1000    2161.6999    25421.271    4858.6842    571.97611   -8264.1313    7.8838852 
    2000      2256.24    25403.803    7473.5796    596.99098   -8263.8653    7.8893064 
    3000    2222.3654    25504.235     325.1032    588.02792   -8260.7533    7.8582394 
    4000    2126.0773    25501.507   -4450.4782    562.55051    -8281.615    7.8590802 
    5000    2179.9345    25532.452    779.38016    576.80089   -8249.2319    7.8495551 
    6000    2229.7135    25478.371    5228.5356     589.9722   -8243.8967    7.8662166 
    7000    2156.4544    25745.125    222.26688    570.58817   -8186.8714    7.7847122 
    8000    2159.7766    26338.808   -4448.8785    571.46722   -8045.7501    7.6092427 
    9000    2149.5913    26609.972   -4330.5133    568.77223   -7984.7626    7.5317024 
   10000      2198.72    26625.896   -445.22401    581.77146   -7959.8763    7.5271977 
   11000    2208.6802    26444.789    8547.5758    584.40688   -7968.8266    7.5787479 
   12000    2248.8277    26675.778    58.720973    595.02972   -7952.9635    7.5131223 
   13000    2230.1262    26663.548   -3531.5806     590.0814   -7970.9844    7.5165687 
   14000    2143.7002     26735.87   -4271.8104    567.21345   -7943.6969    7.4962357 
   15000     2190.832    26600.629    -3332.987    579.68432   -7986.3404    7.5343478 
   16000    2198.3181    26586.967    664.01477    581.66511   -7965.1622    7.5382194 
   17000    2139.6647      26722.3   -2052.1612    566.14568   -7944.9955    7.5000425 
   18000    2167.3125    26680.819   -3653.9811    573.46118   -7960.9874     7.511703 
   19000     2236.512     26444.85    9129.9873    591.77104   -7970.1438    7.5787303 
   20000    2178.5753    26597.933    2637.7075    576.44125   -7957.1629    7.5351112 
   21000    2176.3047     26690.48   -5039.7972    575.84047   -7965.5989    7.5089841 
   22000    2161.2259    26588.879    2164.9543    571.85068   -7960.6047    7.5376772 
   23000    2258.3973     26559.25    6319.3068     597.5618   -7955.9016    7.5460861 
   24000    2187.4616     26417.51    7959.0258    578.79253   -7982.9998    7.5865737 
   25000    2117.5812     26446.67    3527.2142    560.30249   -7985.9172    7.5782087 
   26000    2180.1582    26682.779   -7010.2838    576.86008   -7978.5492    7.5111511 
   27000    2251.6677     26773.55   -4247.1646    595.78117   -7948.7643     7.485686 
   28000    2188.6095    26513.115    1734.4196    579.09626   -7983.8275    7.5592169 
   29000    2233.2418    26637.575   -1255.2546    590.90577   -7965.5318    7.5238977 
   30000    2218.4368    26461.268    456.56174    586.98842    -8000.853    7.5740281 
   31000    2203.6895    26554.928    1970.3611    583.08635   -7971.1582    7.5473144 
   32000    2209.4404    26671.998   -3008.9406    584.60803   -7965.7387    7.5141871 
   33000    2239.6015    26459.122    5031.9908    592.58853   -7983.1208    7.5746424 
   34000    2188.3635    26564.512    2917.9029    579.03117   -7960.6677    7.5445913 
   35000    2162.9403    26711.484   -5958.2516    572.30431    -7964.277    7.5030795 
   36000    2246.8169    26845.155   -5128.6615    594.49768   -7934.7927    7.4657192 
   37000    2214.4381    26708.451    -7945.112    585.93041    -7973.989    7.5039315 
   38000    2248.0296    26629.903   -4762.0302    594.81854   -7986.6483    7.5260652 
   39000     2229.749    26557.551    879.13761    589.98159   -7978.1887    7.5465689 
   40000    2154.4813    26716.381   -3302.3661     570.0661   -7955.0625    7.5017042 
   41000    2213.0175    26694.765    1904.9995    585.55452   -7935.9497    7.5077786 
   42000    2255.3163    26650.912   -5555.7582    596.74657   -7984.2439    7.5201324 
   43000    2182.9762    26650.715   -3014.6231    577.60571   -7972.3269    7.5201879 
   44000    2225.0338    26664.566    1123.8606    588.73398   -7946.1129    7.5162815 
   45000    2233.3221    26691.956   -2836.2924    590.92702    -7965.108    7.5085688 
   46000    2217.2892    26531.807    3167.7932    586.68478   -7975.5834    7.5538912 
   47000    2185.8572    26550.673    2260.3306    578.36802   -7965.8103    7.5485239 
   48000    2207.3381    26732.689   -5027.5306    584.05177   -7963.6613    7.4971279 
   49000    2088.0274    26548.325   -2293.8813    552.48268    -7989.502    7.5491913 
   50000    2183.5036     26660.22    693.66427    577.74527   -7950.1123    7.5175069 
   51000     2114.118    26548.239    1961.4741    559.38615   -7970.2637    7.5492158 
   52000     2195.409    26544.872    5137.0929    580.89539   -7962.6446    7.5501734 
   53000    2150.4168    26641.787   -4428.2585    568.99065   -7976.7811    7.5227081 
   54000    2219.0968    26670.793   -493.29997    587.16307    -7956.449    7.5145268 
   55000    2278.5225    26520.782    7937.6692    602.88683   -7961.5172    7.5570314 
   56000    2191.0018    26631.727   -535.23951    579.72925   -7967.2365    7.5255497 
   57000    2256.3616    26717.098    -1513.356    597.02316   -7948.6798    7.5015029 
   58000    2212.6982    26630.828    43.636334    585.47001    -7962.937    7.5258039 
   59000    2199.0557    26557.015    -2769.673    581.86029   -7988.7055    7.5467211 
   60000    2217.0942    26638.632   -2272.7324    586.63319   -7975.1575     7.523599 
   61000    2236.2425    26634.548   -807.80157    591.69973   -7971.7403    7.5247527 
   62000    2183.1497    26499.228     6333.039    577.65162    -7968.472    7.5631784 
   63000    2162.1996     26680.04   -340.20062    572.10831   -7950.3183    7.5119222 
   64000    2239.4171    26631.192    56.754676    592.53972   -7962.3089    7.5257011 
   65000    2154.2405    26452.858    8347.0073    570.00239   -7970.5969    7.5764359 
   66000    2219.5906    26573.107      1652.38    587.29373   -7966.4673    7.5421509 
   67000    2219.9822    26581.413    70.320025    587.39733   -7977.4179    7.5397942 
   68000    2216.4203     26618.62    3331.5328    586.45488   -7952.4402    7.5292553 
   69000    2131.8727    26634.625    -3491.327    564.08397   -7977.2071     7.524731 
   70000    2199.7326    26601.288   -3423.1328    582.03938   -7985.4956    7.5341609 
   71000     2196.136    26503.958    1825.6068    581.08774   -7981.7628    7.5618287 
   72000    2249.0434    26682.834   -1836.7435     595.0868   -7962.8509    7.5111356 
   73000    2269.0918    26696.581   -1568.0323    600.39151   -7953.9224    7.5072679 
   74000    2203.9317    26554.698    512.43539    583.15045   -7980.5582    7.5473795 
   75000    2234.3815    26726.186   -3774.4356    591.20733   -7952.1665    7.4989521 
   76000    2196.9167    26735.224   -2849.0542     581.2943   -7947.6488    7.4964169 
   77000    2216.3996    26412.833    5630.1637     586.4494   -7992.5706    7.5879172 
   78000    2217.7784    26443.921    6856.7907    586.81422   -7979.2483    7.5789966 
   79000    2228.1968      26651.5   -3438.6294    589.57088   -7968.5077    7.5199664 
   80000    2204.3168    26531.832    1340.4792    583.25233   -7975.1075    7.5538841 
   81000    2204.7959    26523.866    3996.2696     583.3791    -7965.967    7.5561528 
   82000    2184.1473    26563.552    769.00649     577.9156   -7978.4759    7.5448638 
   83000     2143.137    26727.844   -6292.6544    567.06444   -7965.4958    7.4984868 
   84000    2152.9333    26727.759   -1018.2436    569.65651   -7939.0464    7.4985106 
   85000    2234.6505    26631.184    1032.4796    591.27851   -7959.2049    7.5257033 
   86000    2154.4305    26566.937    560.70548    570.05266   -7972.8795    7.5439027 
   87000    2187.1407    26643.872    776.67461    578.70763   -7960.5673    7.5221193 
   88000    2154.4071    26828.736   -10386.378    570.04645   -7962.8959     7.470288 
   89000    2137.2366    26545.292    728.41616    565.50324   -7970.9484    7.5500539 
   90000    2172.3112    26394.506    5575.6041     574.7838   -7995.1642    7.5931856 
   91000    2271.4336    26613.596   -2212.4026    601.01115   -7978.6944    7.5306768 
   92000    2232.2684    26644.805   -1539.7501    590.64822   -7967.1517    7.5218559 
   93000    2225.6575    26457.428    5454.1997    588.89899   -7982.4797    7.5751273 
   94000    2156.9379    26755.041   -7975.6784    570.71609   -7960.6516    7.4908645 
   95000    2205.3462    26802.177   -8244.6643    583.52472   -7957.1101    7.4776906 
   96000    2169.0567     26740.88   -6197.5646    573.92269   -7962.1991    7.4948312 
   97000    2223.9723    26485.969    8721.9267     588.4531   -7960.0014    7.5669645 
   98000    2189.3133    26591.243    3018.8223    579.28248   -7960.1052    7.5370072 
   99000    2190.8696    26675.985   -3837.0101    579.69427   -7959.4681    7.5130643 
  100000    2171.9324    26569.424    3049.5246    574.68357   -7961.8283    7.5431964 
  101000    2234.6992    26574.065    639.08255     591.2914   -7973.6776    7.5418791 
  102000    2174.8061    26612.065   -822.53688    575.44394   -7969.8214      7.53111 
  103000    2167.8754    26611.624   -596.37744     573.6101   -7973.0764    7.5312346 
  104000     2140.286    26645.561    573.55525    566.31008   -7952.1452    7.5216425 
  105000    2222.4405    26454.851    1202.9258    588.04778   -7997.1803    7.5758653 
  106000    2237.6155    26401.463    6548.8093    592.06302   -7990.9086     7.591185 
  107000    2231.6485    26582.252   -895.75378     590.4842   -7983.6016    7.5395562 
  108000    2196.5879    26432.745    6499.5036    581.20732   -7981.5183    7.5822011 
  109000    2179.9542    26601.437    2230.6139    576.80611   -7951.5428    7.5341187 
  110000    2132.4098    26444.272    5505.3015    564.22606   -7981.7623     7.578896 
  111000    2203.9878    26588.663   -2048.4412     583.1653   -7984.3815    7.5377384 
  112000    2198.1083    26601.572    967.24608    581.60961   -7966.9707    7.5340807 
  113000    2192.6788    26527.385    1282.0157    580.17299   -7977.7809    7.5551505 
  114000    2245.2765    26536.935    4770.0997    594.09009   -7963.8822    7.5524316 
  115000    2156.3002     26576.29   -2336.8658    570.54737    -7982.845    7.5412478 
  116000    2220.7703    26767.432   -7442.5488    587.60585   -7957.0127    7.4873968 
  117000    2176.8852     26473.99   -958.85837    575.99406   -8005.5174    7.5703883 
  118000    2214.3333    26565.358    3413.0531    585.90266   -7962.7697    7.5443511 
  119000    2258.5042    26552.992   -263.86186    597.59008   -7980.5749    7.5478646 
  120000    2241.1727    26603.834   -2075.1678    593.00425    -7974.551      7.53344 
  121000    2257.7659    26635.532    -287.1132    597.39474   -7970.3621    7.5244746 
  122000    2219.0537    26623.043   -1637.0257    587.15165   -7977.3803    7.5280044 
  123000    2219.1158    26613.503   -605.01786    587.16808   -7966.9887    7.5307031 
  124000    2191.2179     26581.56    1489.5478    579.78644   -7970.6694    7.5397525 
  125000    2196.3113    26640.198    3970.8155    581.13411   -7939.5919    7.5231567 
  126000    2168.3851    26471.454    2674.4433    573.74497    -7997.433    7.5711136 
  127000    2197.2404    26674.457    -2061.354    581.37995   -7958.2601    7.5134946 
  128000    2163.7878     26535.36    1755.4346    572.52855    -7975.974    7.5528798 
  129000    2279.3977     26675.08    -4311.477    603.11841   -7972.8565    7.5133191 
  130000    2160.7208    26720.812   -4601.6464    571.71703   -7953.9384    7.5004602 
  131000    2158.7016    26711.269   -3586.5836    571.18275   -7953.1204    7.5031398 
  132000    2236.6518    26724.422   -1578.8719    591.80805   -7947.0901    7.4994471 
  133000    2201.3665    26709.632   -1250.1856    582.47171   -7951.6244    7.5035996 
  134000    2198.3789    26659.395   -3903.1342     581.6812   -7973.5133    7.5177396 
  135000    2121.8065    26554.986   -1605.0928    561.42048   -7984.0107    7.5472979 
  136000    2227.5414    26599.884   -2495.8857    589.39746   -7980.5349    7.5345586 
  137000    2245.7548    26634.948   -215.66294    594.21666   -7962.4971    7.5246396 
  138000    2202.6561    26525.652    4804.8298    582.81293   -7965.8109    7.5556441 
  139000    2161.8351    26596.112   -297.05477    572.01189   -7968.4448    7.5356273 
  140000    2149.1515    26664.307   -2998.7843    568.65585    -7965.477    7.5163545 
  141000    2135.9273    26363.742    8354.4362    565.15679   -7991.6812    7.6020463 
  142000    2183.3245    26455.075    6517.0977    577.69789   -7979.0822    7.5758012 
  143000    2216.1006    26669.173    538.82505     586.3703   -7945.1519    7.5149831 
  144000    2164.8703    26704.085   -4085.9042    572.81498   -7959.6336    7.5051583 
  145000    2267.5096    26645.578   -1807.2659    599.97288   -7967.0911    7.5216377 
  146000    2188.2426      26473.6    5117.4671    578.99918   -7972.7495       7.5705 
  147000    2185.0376    26734.118    -3619.447    578.15115   -7954.2623    7.4967271 
  148000    2110.5379    26771.224   -6395.7815    558.43887   -7953.7452    7.4863365 
  149000    2230.9733    26576.346    1133.3224    590.30554   -7972.1352    7.5412319 
  150000    2226.9464    26462.292    7387.3219    589.24003   -7974.6714    7.5737349 
  151000    2187.9449    26562.778    4588.7452    578.92041    -7955.264    7.5450837 
  152000    2164.6282    26644.455   -2742.8756    572.75093   -7971.3186    7.5219548 
  153000    2178.6771    26528.998    2126.6317    576.46818   -7978.6369    7.5546911 
  154000    2171.8764    26400.348     4523.894    574.66875   -7997.3762    7.5915053 
  155000    2250.7576    26716.809   -6976.8065    595.54037   -7971.0008     7.501584 
  156000    2205.1662    26648.018   -4403.6975    583.47709   -7979.9826     7.520949 
  157000    2200.3991    26524.559    3190.7916    582.21573   -7976.2415    7.5559555 
  158000    2207.4418    26619.605   -451.26918    584.07921   -7965.2584    7.5289769 
  159000     2172.049    26601.606    872.30191    574.71444   -7966.1116    7.5340709 
  160000    2142.2888    26679.879   -5468.3425       566.84   -7970.2097    7.5119676 
  161000    2214.3671    26640.802   -3762.6624     585.9116   -7975.3142    7.5229863 
  162000     2208.248    26502.101    3286.0034    584.29251   -7975.9679    7.5623585 
  163000      2179.83    26425.561    5518.6741    576.77323   -7987.3808    7.5842622 
[...]
  262000    2208.1132     26723.34   -5383.6107    584.25685   -7968.2429    7.4997506 
  263000    2167.4006    26605.516       782.62    573.48449   -7958.7873    7.5329638 
  264000    2201.8186    26543.429     3919.606    582.59133   -7967.5118    7.5505838 
  265000    2206.6577    26601.086   -3700.5769    583.87174   -7982.9347    7.5342181 
  266000    2197.2103     26599.38    3537.6177    581.37201   -7954.7783    7.5347013 
  267000    2160.3894    26437.855    6040.0995    571.62934    -7981.958    7.5807357 
  268000     2184.128    26508.666    2680.2544    577.91048   -7977.5328    7.5604857 
  269000    2229.3158    26729.722   -4588.3924    589.86697   -7959.4723      7.49796 
  270000    2234.0651    26627.305   -2380.1475    591.12362   -7972.3922    7.5267995 
  271000    2178.8172    26516.601    6401.0844    576.50528    -7962.263    7.5582232 
  272000    2201.8644     26746.94    -4553.138    582.60345   -7950.5866    7.4931334 
  273000    2224.3524    26806.623   -6646.5888    588.55366   -7947.6389    7.4764504 
  274000    2176.8329    26566.332    1328.8869    575.98022   -7970.4486    7.5440745 
  275000    2099.1299    26581.991     1852.278    555.42036   -7963.2719    7.5396304 
  276000    2262.1834    26554.833    2311.9353    598.56359   -7973.5469    7.5473412 
  277000    2234.3038    26408.354    8345.1922    591.18677   -7986.7082     7.589204 
  278000    2181.5056    26548.336    7653.3011    577.21659   -7945.9255    7.5491884 
  279000    2191.5227    26555.564   -4082.5847    579.86708      -8000.7    7.5471336 
  280000    2163.8458    26480.159    1794.9853    572.54389   -7992.6623    7.5686248 
  281000    2174.7363     26451.36    6055.3165    575.42548   -7980.2892    7.5768652 
  282000      2164.75    26761.113   -6713.6831    572.78315   -7957.0172    7.4891649 
  283000    2176.9279    26537.955   -201.36284    576.00536   -7985.6882    7.5521413 
  284000    2223.4511    26590.019   -5818.0862    588.31519   -7996.2551    7.5373539 
  285000    2194.3695    26469.259    3097.8649    580.62032   -7989.8925    7.5717416 
  286000    2178.0768     26593.66   -446.80887    576.30935   -7963.8711    7.5363222 
  287000     2236.542    26562.924    3048.1128    591.77898    -7964.686    7.5450422 
  288000    2237.8175    26591.376    -711.4326    592.11648   -7981.5227    7.5369694 
  289000    2189.0636    26461.225    8808.4747    579.21641    -7964.867    7.5740403 
  290000    2281.3019    26655.609    1484.7065    603.62226   -7948.1263    7.5188072 
  291000    2168.1354    26698.061   -2096.5422    573.67891   -7955.8063    7.5068517 
  292000    2190.6669     26490.22    3541.6618    579.64065   -7980.3695    7.5657502 
  293000    2157.9972    26618.853   -1658.4821    570.99639   -7970.6229    7.5291893 
  294000    2170.1765    26562.128    828.15409    574.21897   -7972.0967    7.5452684 
  295000    2238.4553    26595.567    2505.4293    592.28523   -7960.2278    7.5357818 
  296000    2192.0451    26650.286    -363.7778     580.0053   -7957.1065     7.520309 
  297000    2201.8222    26551.839   -2984.5389    582.59229   -7991.4303    7.5481923 
  298000    2252.5895    26575.654   -705.67911    596.02508   -7983.4935    7.5414281 
  299000    2168.4859    26412.571    8571.3636    573.77166   -7979.0521    7.5879924 
  300000    2154.4843    26558.659    104.71055    570.06688   -7982.9024     7.546254 
Loop time of 239.033 on 4 procs for 50000 steps with 2048 atoms

Performance: 18.073 ns/day, 1.328 hours/ns, 209.176 timesteps/s
129.8% CPU use with 2 MPI tasks x 2 OpenMP threads

MPI task timing breakdown:
Section |  min time  |  avg time  |  max time  |%varavg| %total
---------------------------------------------------------------
Pair    | 167.87     | 168.87     | 169.88     |   7.7 | 70.65
Neigh   | 2.943      | 2.953      | 2.963      |   0.6 |  1.24
Comm    | 11.118     | 12.275     | 13.432     |  33.0 |  5.14
Output  | 0.0020363  | 0.0025151  | 0.002994   |   1.0 |  0.00
Modify  | 54.445     | 54.582     | 54.72      |   1.9 | 22.83
Other   |            | 0.3479     |            |       |  0.15

Nlocal:        1024.00 ave        1027 max        1021 min
Histogram: 1 0 0 0 0 0 0 0 0 1
Nghost:        3684.50 ave        3696 max        3673 min
Histogram: 1 0 0 0 0 0 0 0 0 1
Neighs:        72478.0 ave       74680 max       70276 min
Histogram: 1 0 0 0 0 0 0 0 0 1

Total # of neighbors = 144956
Ave neighs/atom = 70.779297
Neighbor list builds = 991
Dangerous builds = 0

unfix temp
unfix out_file_1
# unfix 1
# # clear
write_data after_heating_$T.in
write_data after_heating_2200.in
System init for write_data ...
Last active /omp style is pair_style eam/alloy/omp
write_restart after_heating_$T.lmp
write_restart after_heating_2200.lmp
System init for write_restart ...
Last active /omp style is pair_style eam/alloy/omp
next loopVar
# # # thermo_modify flush yes
jump in.lmp ensemble

print """
Hi HI Hi
# """

Hi HI Hi
# 
variable T equal 1900+${loopVar}*100
variable T equal 1900+4*100
# variable T equal 1200
# velocity all create 1200 123123
reset_timestep 0
fix 1 all npt temp $T $T $(dt*100) iso 0 0 $(dt*1000)
fix 1 all npt temp 2300 $T $(dt*100) iso 0 0 $(dt*1000)
fix 1 all npt temp 2300 2300 $(dt*100) iso 0 0 $(dt*1000)
fix 1 all npt temp 2300 2300 0.10000000000000000555 iso 0 0 $(dt*1000)
fix 1 all npt temp 2300 2300 0.10000000000000000555 iso 0 0 1
print """
<--------------------------------------------------------------------->
<------------------ Equilibrating at temperature $T ----------------->
<--------------------------------------------------------------------->
"""

<--------------------------------------------------------------------->
<------------------ Equilibrating at temperature 2300 ----------------->
<--------------------------------------------------------------------->

fix temp all print 1000 "$(step) $(temp) $(press) ${sys_press} $(vol) $(ke) $(pe) $(density)" file temp_hot.txt screen no title  "step temp press pressGiga vol ke pe density"
run 250000
Last active /omp style is pair_style eam/alloy/omp
Per MPI rank memory allocation (min/avg/max) = 4.442 | 4.442 | 4.442 Mbytes
Step Temp Volume Press KinEng PotEng Density 
       0    2154.4843    26558.659    104.71055    570.06688   -7982.9024     7.546254 
    1000    2250.3858    26667.622    4701.1799      595.442   -7933.3763    7.5154202 
    2000    2352.1786    26736.762    1510.5257     622.3759   -7935.6363    7.4959859 
    3000    2256.3539    26782.425   -2144.2603    597.02112   -7934.7343    7.4832054 
    4000    2245.5593    26954.407   -7816.1961    594.16493   -7919.5168    7.4354589 
    5000     2305.027    26742.863    4199.8397    609.89981   -7921.7972    7.4942756 
    6000     2324.987    26801.794   -2906.9455    615.18113   -7932.6345    7.4777973 
    7000    2297.8232    26750.793    3949.9504    607.99371   -7917.3574    7.4920539 
    8000    2347.4073    26796.578   -3102.8753    621.11345   -7942.3785     7.479253 
    9000    2264.2405     26866.32    -3638.171    599.10789   -7923.8012    7.4598376 
   10000    2270.9763    26554.635    6744.2388    600.89015   -7954.6353    7.5473974 
   11000    2280.6719    26777.894    2194.2987    603.45557   -7918.9354    7.4844716 
   12000    2186.0979    26684.178     5061.616    578.43171   -7920.7392    7.5107573 
   13000    2314.2317     26833.28   -1263.1335    612.33532   -7927.4502     7.469023 
   14000    2257.3471     26782.09    3129.7061    597.28393   -7910.5685     7.483299 
   15000    2301.3666    26620.482   -595.05261    608.93128   -7967.2163    7.5287288 
   16000    2288.3613     26714.79    586.61444    605.49014   -7943.6285     7.502151 
   17000    2297.6819    26650.847    3132.4341    607.95634   -7944.5108    7.5201506 
   18000     2297.761    26777.043   -1806.2269    607.97725   -7937.3909    7.4847094 
   19000    2222.8039    26670.388    3073.0064    588.14395   -7935.5289    7.5146408 
   20000    2313.9853    26726.764    3395.5487    612.27014   -7926.3683      7.49879 
   21000    2294.3185     26757.22    3911.3384    607.06639   -7918.1624    7.4902545 
   22000    2294.6903    26873.126    -6394.916    607.16475   -7931.9341    7.4579483 
   23000    2323.3665    26698.148    3062.6127    614.75235   -7944.2806    7.5068273 
   24000     2328.856    26770.666   -4026.1792    616.20486   -7948.9472    7.4864923 
   25000    2194.4586    26775.657   -1606.7031    580.64392   -7928.3974    7.4850969 
   26000     2310.337    26858.484    2802.9469    611.30482   -7903.5234    7.4620142 
   27000     2302.573    26794.622    305.12115    609.25049   -7928.0092    7.4797991 
   28000    2252.4686    26696.234     1648.611    595.99309   -7940.5551    7.5073656 
   29000    2355.8163    26646.163    4742.1924    623.33843    -7938.694    7.5214726 
   30000    2312.9776    26864.363   -1139.7454     612.0035    -7914.344    7.4603812 
   31000    2276.7202    26760.834    3879.5969    602.40995   -7915.4562    7.4892428 
   32000    2272.2469    26677.827    1142.1335    601.22633   -7946.0592    7.5125455 
   33000    2298.4708    26926.475   -4779.8708    608.16506   -7918.2952    7.4431721 
   34000    2299.9558    26935.197   -4417.6211    608.55801   -7908.4516     7.440762 
   35000    2285.7803     26685.31    4106.8696    604.80721   -7932.6681    7.5104389 
   36000    2216.8289    26734.319   -1680.3433    586.56298   -7941.6165    7.4966707 
   37000    2337.5402    26705.087    2563.7236    618.50265   -7932.4689    7.5048767 
   38000    2379.9949    26752.937    1098.5649    629.73599    -7935.659    7.4914535 
   39000    2295.4442    26901.547    -3444.147    607.36423    -7913.131    7.4500693 
   40000    2246.5085     26888.01   -5605.2145    594.41607    -7922.716    7.4538199 
   41000    2251.4216    26705.501    525.64175    595.71605   -7940.2467    7.5047605 
   42000    2345.6457    26804.335   -112.67215    620.64735   -7923.7424    7.4770886 
   43000    2299.4396    26723.236    2326.3713    608.42141   -7930.3183      7.49978 
   44000    2361.6639    26867.553   -1705.3788    624.88569   -7915.9046    7.4594953 
   45000    2286.3424    26872.658   -1980.1249    604.95594   -7911.4431    7.4580782 
   46000    2340.1051    26787.294   -877.70459    619.18131   -7934.2791    7.4818453 
   47000    2300.2017    26705.446    2629.9186    608.62307    -7929.767     7.504776 
   48000    2266.7166    26830.876    3580.4476    599.76306   -7901.2145    7.4696923 
   49000    2346.7445    26683.035    3565.4162    620.93808   -7933.7104    7.5110792 
   50000    2372.9011    26654.772    126.59572      627.859   -7958.3324    7.5190434 
   51000    2287.9755    26863.989    -849.1996    605.38805   -7911.9323    7.4604849 
   52000    2306.6734    26833.988   -2129.7134    610.33545   -7927.3084     7.468826 
   53000    2251.0075    26753.876    4046.7311     595.6065   -7921.6607    7.4911907 
   54000    2238.7399    26787.532   -547.94893    592.36053   -7927.5073    7.4817787 
   55000    2281.3379    26773.671   -3318.1824    603.63177   -7943.9806    7.4856522 
   56000     2265.349    26669.746    4599.9268    599.40119   -7933.3695    7.5148218 
   57000     2324.716    26796.965   -136.14443    615.10943   -7929.4859    7.4791449 
   58000    2273.6187    26721.508    3202.9524    601.58931   -7933.9694    7.5002649 
   59000     2227.273    26804.869   -5794.8089    589.32646   -7935.5743    7.4769397 
   60000    2283.8448    26781.381     480.1547    604.29509   -7931.0742    7.4834972 
   61000    2328.8102    26840.618    1286.0916    616.19275   -7916.9427    7.4669812 
   62000    2307.3312    26635.696    6749.0502     610.5095   -7933.4231    7.5244284 
   63000    2283.9775    26732.825   -43.215988    604.33021    -7938.233    7.4970898 
   64000    2381.7292    27056.579   -9469.9132    630.19487   -7906.9398    7.4073809 
   65000    2293.6801     26820.46   -4259.0507    606.89748   -7933.3632    7.4725932 
   66000    2255.7747    26885.279   -4504.7261    596.86788   -7921.1433     7.454577 
   67000    2268.8886    26840.294   -8014.2934    600.33774   -7946.9459    7.4670712 
   68000    2336.1965    26599.495    7169.8342    618.14713   -7942.9216    7.5346688 
   69000    2349.1431    26786.955    389.37635    621.57275   -7929.7626    7.4819399 
   70000    2273.2773    26669.384    5199.3769    601.49897   -7932.9224    7.5149236 
   71000    2326.5387    26879.114   -2402.3438    615.59171   -7915.0563     7.456287 
   72000    2330.2314    26640.221    1375.0704    616.56879   -7959.0897    7.5231503 
   73000    2306.5268    26568.563    8016.7143    610.29666   -7942.9341    7.5434408 
   74000    2358.3996    26714.528    4741.5996    624.02195   -7927.5854    7.5022244 
   75000    2313.3023    26835.389   -3023.7659    612.08943   -7929.1465    7.4684361 
   76000    2266.1165    26701.025    5639.6549    599.60426   -7924.4164    7.5060184 
   77000    2311.3887    26644.664    6435.4779    611.58308   -7931.7641    7.5218959 
   78000    2206.6764    26595.592    4883.2032    583.87668   -7948.3769    7.5357745 
   79000    2201.3004    26793.617   -3033.3157    582.45422   -7937.8486    7.4800796 
   80000    2298.4936    26889.215   -3765.1733    608.17111   -7919.9033     7.453486 
   81000    2336.7146    26769.897    750.41405    618.28422   -7929.2918    7.4867074 
   82000    2329.0331    26785.991   -684.20239    616.25173   -7925.7005    7.4822092 
   83000     2308.333    26618.848    4004.9317    610.77456   -7949.9594    7.5291909 
   84000    2268.1765    26838.885     -4970.16    600.14932   -7934.2013    7.4674632 
   85000    2261.6394    26772.966    -2188.766    598.41964    -7938.006    7.4858492 
   86000    2287.6164    26643.207     3741.685    605.29303   -7943.5931    7.5223071 
   87000    2324.1926    26769.295    2030.6369    614.97093   -7923.9272    7.4868759 
   88000    2318.3153    26675.739     4214.034    613.41584   -7928.3643    7.5131336 
   89000    2280.4244    26692.243    2420.4938    603.39008   -7940.2999    7.5084881 
   90000    2276.0538    26795.213   -5942.6407    602.23362   -7947.2129    7.4796339 
   91000      2268.41    26662.286    2522.8992    600.21111   -7944.2625    7.5169243 
   92000    2359.0839     26673.84    2237.7898    624.20302   -7945.4503    7.5136682 
   93000    2246.4223    26828.647    735.38275    594.39328   -7912.9606    7.4703128 
   94000    2295.4513    26899.188   -1011.2797    607.36613   -7906.6857    7.4507227 
   95000    2332.3571    26746.229   -1412.7626    617.13122   -7948.7249    7.4933326 
   96000    2310.2591    26816.246   -5503.0061    611.28419   -7944.2511    7.4737674 
   97000    2306.2366    26746.056   -863.76552    610.21986   -7938.1165    7.4933809 
   98000    2318.8144    26763.523    289.87651    613.54791   -7927.3469    7.4884903 
   99000    2260.4708    26595.675    4388.5847    598.11043   -7954.9672    7.5357512 
  100000    2298.5914    26728.116     2479.289    608.19698   -7927.9887    7.4984105 
  101000    2236.7541    26570.413     8276.156     591.8351     -7939.91    7.5429158 
  102000    2305.6093     26893.17   -5097.4093    610.05389   -7920.3096    7.4523899 
  103000    2280.6659    26676.209    1525.4961    603.45398   -7944.8182     7.513001 
  104000    2342.3155    26755.134   -1286.9131    619.76618     -7941.51    7.4908385 
  105000    2332.9977    26605.202    2397.3981    617.30074   -7961.2577    7.5330526 
  106000    2279.6026     26801.77    164.75315    603.17264   -7924.1097    7.4778042 
  107000    2329.9169     26842.62    -1667.352    616.48555   -7922.1884    7.4664241 
  108000    2270.4868    26579.297    7996.5425    600.76063   -7942.1124    7.5403946 
  109000    2357.7877    26642.938    5674.0895    623.86004   -7946.3497    7.5223832 
  110000    2309.8862    26827.497   -6178.7924    611.18554   -7942.6182    7.4706332 
  111000     2352.885    26996.178    -9845.233    622.56281   -7922.1132    7.4239541 
  112000    2351.7383    26680.514   -285.09198    622.25942   -7952.2155    7.5117889 
  113000    2333.9443    26674.391    5475.8598    617.55121   -7931.0854    7.5135132 
  114000    2327.8721    26839.407   -1889.2014    615.94451   -7919.2899    7.4673179 
  115000    2313.8349    26665.804    1109.2859    612.23035   -7950.7977    7.5159325 
  116000    2372.2061    26834.848   -1203.3351     627.6751   -7929.1442    7.4685865 
  117000    2335.5809    27026.189   -8980.8202    617.98425   -7906.7382    7.4157102 
  118000    2351.6148    26829.384    1545.1662    622.22674    -7914.586    7.4701076 
  119000    2308.6555    26807.948    3605.0238     610.8599   -7907.9717    7.4760807 
  120000    2273.7136    26788.946    -975.5617    601.61441   -7931.7576    7.4813839 
  121000     2376.401    26835.024    202.55531    628.78506   -7921.5064    7.4685375 
  122000    2332.1653    26746.324   -646.51125    617.08047   -7937.5761    7.4933059 
  123000     2359.711    26793.382    3351.9518    624.36896    -7908.157    7.4801451 
  124000    2277.7956    26898.285   -6089.2863     602.6945   -7927.0237    7.4509726 
  125000    2307.7828     26775.96    -2322.842    610.62899   -7939.3588     7.485012 
  126000     2320.477    26767.177    748.63811     613.9878   -7925.4622    7.4874683 
  127000    2364.3103    26627.884    3359.2481    625.58591   -7948.6065    7.5266359 
  128000    2325.1742    26876.713     -3775.39    615.23066   -7926.4522    7.4569532 
  129000    2242.4243    26777.581    1629.6378    593.33542   -7917.6015     7.484559 
  130000    2255.2452    26695.026    4613.8775    596.72778    -7931.412    7.5077052 
  131000    2327.8682    26749.225     -1714.96     615.9435   -7944.3284    7.4924932 
  132000    2269.5201    26783.617   -1052.0591    600.50483   -7926.0976    7.4828724 
  133000    2239.7399     26856.48   -5292.4953    592.62514   -7925.8978     7.462571 
  134000    2280.4763    26852.498    604.15292    603.40381    -7909.161    7.4636776 
  135000    2279.7384    26543.466    9764.1398    603.20856   -7939.0768    7.5505732 
  136000    2310.3364     26807.53   -1644.0185    611.30466   -7931.4253    7.4761973 
  137000    2267.6348    26708.729    5622.2885    600.00599   -7921.3255    7.5038533 
  138000    2277.3035    26654.907    8502.7635    602.56431   -7921.8092    7.5190052 
  139000    2316.0213    26896.267    -4124.907    612.80886    -7919.615    7.4515316 
  140000    2334.0657    26734.618    958.61955    617.58333   -7934.3458    7.4965868 
  141000    2293.5229    26694.816    6012.0046    606.85589   -7919.8306    7.5077642 
  142000     2239.323     26816.11   -1219.6028    592.51482   -7926.1213    7.4738055 
  143000    2247.0439    27005.998   -5031.0148    594.55775   -7896.1093    7.4212547 
  144000    2340.4524    26716.789    1483.7261     619.2732   -7936.4306    7.5015895 
  145000    2331.9633    26703.122    8552.7948    617.02704   -7912.0264     7.505429 
  146000    2293.0241    26801.396   -2225.9209     606.7239   -7927.5276    7.4779085 
  147000    2334.0697    26770.442     767.1709    617.58438   -7930.0894    7.4865551 
  148000    2328.3756    26803.325   -93.398175    616.07774   -7922.8508    7.4773704 
  149000    2281.6588    26643.592    4459.2366    603.71668   -7943.0416    7.5221984 
  150000    2332.2568    26862.228   -1698.4336    617.10468   -7917.7162    7.4609739 
  151000    2216.5708    26804.062   -2151.6446    586.49469    -7927.725    7.4771648 
  152000      2262.23    26922.217   -8891.6176     598.5759   -7933.2262    7.4443493 
  153000     2282.095    26707.158   -259.17457     603.8321   -7944.6074    7.5042948 
  154000    2324.0366    26896.044    -2540.843    614.92968   -7916.5062    7.4515935 
  155000    2342.1177    26834.492   -4803.4075    619.71385   -7934.1073    7.4686858 
