LAMMPS (29 Oct 2020)
OMP_NUM_THREADS environment is not set. Defaulting to 1 thread. (src/comm.cpp:94)
  using 1 OpenMP thread(s) per MPI task
package omp 0
using multi-threaded neighbor list subroutines
package omp 2
set 2 OpenMP thread(s) per MPI task
using multi-threaded neighbor list subroutines
units metal
dimension 3
boundary p p p


lattice fcc 3.5440
Lattice spacing in x,y,z = 3.5440000 3.5440000 3.5440000
region box block 0 8 0 8 0 8 units lattice
create_box 1 box
Created orthogonal box = (0.0000000 0.0000000 0.0000000) to (28.352000 28.352000 28.352000)
  1 by 1 by 2 MPI processor grid
create_atoms 1 box
Created 2048 atoms
  create_atoms CPU = 0.002 seconds

# read_restart after_heating_press_100000_2500.lmp

variable P equal 200000
variable dt equal 0.001
variable loopVar loop 6
variable sys_press equal "press/10000"
variable sim string "heating"
#variable temp_word equal "heating"

# print "step temp vol pe" file heating.txt screen no

pair_style eam/alloy
pair_coeff * * Co_Zhou04.eam.alloy Co
Reading eam/alloy potential file Co_Zhou04.eam.alloy with DATE: 2018-03-30




neighbor 2 bin
neigh_modify every 10 check yes

thermo 1000
thermo_style custom step temp vol press ke pe density

timestep $(dt)
timestep 0.0010000000000000000208



velocity all create 2600 123123

print """
yo aagadi
"""

yo aagadi

label ensemble

print """
Label pachadi solti, hos garam.
"""

Label pachadi solti, hos garam.

variable T equal 2500+${loopVar}*100
variable T equal 2500+1*100
# variable T equal 2500


reset_timestep 0
fix 1 all npt temp $T $T $(dt*100) iso $P $P $(dt*1000)
fix 1 all npt temp 2600 $T $(dt*100) iso $P $P $(dt*1000)
fix 1 all npt temp 2600 2600 $(dt*100) iso $P $P $(dt*1000)
fix 1 all npt temp 2600 2600 0.10000000000000000555 iso $P $P $(dt*1000)
fix 1 all npt temp 2600 2600 0.10000000000000000555 iso 200000 $P $(dt*1000)
fix 1 all npt temp 2600 2600 0.10000000000000000555 iso 200000 200000 $(dt*1000)
fix 1 all npt temp 2600 2600 0.10000000000000000555 iso 200000 200000 1
print """
<--------------------------------------------------------------------->
<------------------ Equilibrating at temperature $T ----------------->
<--------------------------------------------------------------------->
"""

<--------------------------------------------------------------------->
<------------------ Equilibrating at temperature 2600 ----------------->
<--------------------------------------------------------------------->

fix temp all print 1000 "$(step) $(temp) $(press) ${sys_press} $(vol) $(ke) $(pe) $(density)" file temp_${sim}.txt screen no title  "step temp press pressGiga vol ke pe density"
fix temp all print 1000 "$(step) $(temp) $(press) ${sys_press} $(vol) $(ke) $(pe) $(density)" file temp_heating.txt screen no title  "step temp press pressGiga vol ke pe density"
run 250000
Last active /omp style is pair_style eam/alloy/omp
Neighbor list info ...
  update every 10 steps, delay 10 steps, check yes
  max neighbors/atom: 2000, page size: 100000
  master list distance cutoff = 7.6035394
  ghost atom cutoff = 7.6035394
  binsize = 3.8017697, bins = 8 8 8
  1 neighbor lists, perpetual/occasional/extra = 1 0 0
  (1) pair eam/alloy/omp, perpetual
      attributes: half, newton on, omp
      pair build: half/bin/atomonly/newton/omp
      stencil: half/bin/3d/newton
      bin: standard
Per MPI rank memory allocation (min/avg/max) = 4.442 | 4.442 | 4.442 Mbytes
Step Temp Volume Press KinEng PotEng Density 
       0         2600    22790.356    39922.345    687.94834    -9015.757        8.794 
    1000    2642.3329     22679.88    198406.95    699.14945   -8283.1244    8.8368363 
    2000    2584.1813    22563.345     200624.2     683.7628   -8312.4264    8.8824766 
    3000    2554.3594    22540.941    201339.19    675.87204   -8319.7094    8.8913052 
    4000    2620.5467    22614.813    199911.24    693.38492   -8298.7274    8.8622615 
    5000    2573.4542    22628.527    199770.49    680.92443   -8293.7846    8.8568904 
    6000    2553.8576    22570.185    199878.04    675.73928   -8311.4232    8.8797846 
    7000    2658.1076    22514.636    207772.51    703.32336    -8305.309    8.9016935 
    8000    2552.4664    22696.536    188158.41    675.37116   -8321.2686    8.8303514 
    9000    2658.4638     22501.29    204929.58    703.41759   -8320.1086    8.9069731 
   10000    2523.9843     22638.16    198941.64    667.83492   -8291.5536    8.8531217 
   11000    2648.7696    22654.904    190988.56    700.85257    -8328.052    8.8465784 
   12000    2700.0699    22547.589    205518.14    714.42638   -8302.4465    8.8886835 
   13000    2585.8534    22659.855    193256.67     684.2052   -8310.4258    8.8446457 
   14000    2648.7565    22578.466    201964.88     700.8491   -8305.7022    8.8765279 
   15000    2597.6503    22559.408    200770.75    687.32662   -8316.1807    8.8840268 
   16000    2649.2882    22647.907    193387.74    700.98978   -8323.2916    8.8493116 
   17000    2536.6292    22629.374    195785.69    671.18071   -8309.4576    8.8565592 
   18000    2615.4371    22580.716    202230.12    692.03293   -8299.5916    8.8756434 
   19000    2670.1124    22650.375    192762.79    706.49977   -8321.5188    8.8483473 
   20000    2540.6734    22595.749    196451.63    672.25078   -8319.2104    8.8697387 
   21000    2583.1291    22586.315    204173.43    683.48438   -8290.8219    8.8734434 
   22000    2609.7203    22581.067     201337.9    690.52028   -8307.2448    8.8755056 
   23000    2539.4761    22562.925    201743.38    671.93399   -8308.2314     8.882642 
   24000    2647.1555    22680.589    192604.49    700.42549   -8310.6244    8.8365602 
   25000    2619.1094    22567.827    202425.95     693.0046   -8304.9052    8.8807128 
   26000    2650.2289    22616.431    197093.36    701.23869   -8314.5516    8.8616274 
   27000    2559.8398    22591.998    195590.03    677.32212   -8328.4772    8.8712114 
   28000    2626.5835    22523.681    208711.08    694.98221   -8293.6376    8.8981187 
   29000    2546.5924    22686.286    190237.17    673.81692   -8319.7564    8.8343411 
   30000    2561.9955    22502.992     206711.8    677.89253   -8308.0534    8.9062993 
   31000    2514.7021    22570.401    199275.15     665.3789    -8317.002       8.8797 
   32000    2679.6985     22624.17    196629.47    709.03622   -8317.3595    8.8585961 
   33000     2641.466    22592.228    202545.51    698.92005   -8301.1019     8.871121 
   34000    2564.8204    22610.036    194807.94    678.63999   -8323.5797    8.8641337 
   35000    2581.4541    22620.732    199046.51    683.04118   -8301.6241    8.8599425 
   36000    2640.5261      22686.2    193597.63    698.67136   -8302.9366    8.8343745 
   37000    2619.6094    22444.835    213586.79     693.1369   -8301.2876    8.9293768 
   38000    2591.1582    22591.439    199284.03    685.60884   -8310.3196    8.8714307 
   39000    2578.4171    22700.689    190642.51    682.23761   -8310.9953    8.8287359 
   40000     2624.403    22515.162    206193.93    694.40526   -8310.7425    8.9014855 
   41000    2598.1224    22560.918    201644.98    687.45155   -8311.1898    8.8834322 
   42000     2522.685    22579.039    198326.58    667.49114    -8315.575    8.8763029 
   43000    2630.6418    22596.116    196710.63    696.05602     -8320.76    8.8695946 
   44000    2655.5313    22650.141    201469.95    702.64169   -8283.2987    8.8484388 
   45000    2597.8952    22666.135    194469.98    687.39143    -8306.848    8.8421949 
   46000    2737.7309    22610.506    200293.78    724.39133   -8309.2684    8.8639498 
   47000    2626.6246    22527.056    203989.13     694.9931   -8317.8249    8.8967856 
   48000     2605.802    22736.637    182813.48    689.48353   -8336.4806     8.814777 
   49000    2656.6621    22465.821    214268.07    702.94088   -8294.5287    8.9210353 
   50000    2524.8984    22604.733    199851.68     668.0768   -8299.9623    8.8662135 
   51000    2698.9461    22611.431    197633.72    714.12904   -8315.8409     8.863587 
   52000     2702.956    22522.499    201869.39    715.19005   -8334.3763    8.8985855 
   53000    2599.6239    22590.049    194871.53    687.84884   -8337.6968    8.8719768 
   54000    2615.9873    22527.668    210158.49    692.17851   -8287.7682    8.8965437 
   55000    2606.7177    22637.843    199875.65    689.72581   -8292.9734    8.8532455 
   56000    2578.2581    22645.392    191750.64    682.19554    -8326.378    8.8502945 
   57000    2594.3707    22595.564    201322.52    686.45886   -8304.3056     8.869811 
   58000    2627.2383    22587.553    197157.93    695.15548   -8324.5516    8.8729571 
   59000    2645.8969    22638.899    196973.35    700.09245    -8304.823    8.8528326 
   60000    2585.9046    22592.625    199295.43    684.21876   -8314.3105    8.8709651 
   61000    2576.7565    22627.234    194079.95    681.79821   -8319.3358    8.8573968 
   62000    2628.4398    22562.897    207227.63     695.4734   -8287.3088     8.882653 
   63000    2596.1837     22534.42    203440.09    686.93858   -8313.4771    8.8938781 
   64000    2490.4081    22542.094     201889.9    658.95083   -8316.5922    8.8908505 
   65000    2612.8477    22633.151    196630.94    691.34778   -8309.1146    8.8550812 
   66000    2622.3267    22606.968    200874.98    693.85589   -8296.5821    8.8653369 
   67000    2639.7945    22528.316     198369.4     698.4778   -8342.7791     8.896288 
   68000    2626.0177    22644.772    198989.38    694.83251   -8295.3627    8.8505366 
   69000    2617.0519    22586.568    199971.87     692.4602   -8312.3647    8.8733439 
   70000     2543.055    22592.549    199358.67    672.88094   -8307.0681    8.8709949 
   71000    2575.0763    22582.055    205270.88    681.35365   -8284.8212    8.8751173 
   72000    2595.9465    22606.007     197052.8    686.87581   -8316.3736    8.8657136 
   73000    2566.0759    22622.607    196783.75    678.97218   -8305.9126    8.8592083 
   74000    2677.6362    22593.749    200864.88    708.49052   -8309.3668    8.8705238 
   75000    2538.9443     22487.51    207156.92    671.79328    -8308.924    8.9124314 
   76000    2620.2705    22656.054    191052.94    693.31182   -8327.8049    8.8461296 
   77000    2634.6163     22595.42    203427.28    697.10767   -8290.5363    8.8698678 
   78000    2596.2061    22663.626    191170.51    686.94449   -8325.0979     8.843174 
   79000    2606.6161    22601.915    199163.79    689.69893   -8308.8045    8.8673189 
   80000    2613.3948    22455.412    209755.11    691.49255   -8317.7611    8.9251707 
   81000    2584.8421     22661.49    193553.93    683.93762   -8310.0006    8.8440075 
   82000    2594.7118     22625.59    203088.13     686.5491   -8282.3479    8.8580404 
   83000    2575.8955    22631.714     197742.9     681.5704   -8302.4209    8.8556433 
   84000    2642.3482    22573.806    199193.86    699.15349   -8320.2932    8.8783606 
   85000    2601.1702    22537.275    205101.29    688.25797   -8305.8482    8.8927513 
   86000    2556.3471    22638.805    191761.13    676.39798   -8329.4947    8.8528695 
   87000    2693.5291     22451.22    212268.25    712.69572   -8314.2195    8.9268372 
   88000    2556.7593    22662.252    195954.24    676.50704   -8302.3465    8.8437101 
   89000    2586.4684    22495.943    209220.86    684.36795   -8300.4063    8.9090901 
   90000    2550.9515     22566.62    203338.74    674.97033   -8297.3897    8.8811877 
   91000    2552.1078    22756.041    188529.94    675.27629   -8297.2301    8.8072606 
   92000     2706.173    22603.745    198142.42    716.04124   -8320.4341    8.8666009 
   93000    2596.7546    22579.312    199354.32    687.08962   -8316.0777    8.8761953 
   94000    2537.3075    22591.396    199592.65    671.36019   -8307.9664    8.8714478 
   95000    2628.1191    22543.525     210487.7    695.38854   -8276.5618    8.8902861 
   96000    2689.9503    22627.172     195055.6    711.74879   -8322.3466    8.8574207 
   97000    2549.2383    22496.637    209792.46    674.51703    -8291.994    8.9088154 
   98000       2538.4    22592.447    197633.24    671.64925   -8318.1232    8.8710348 
   99000    2591.0028    22572.796    200891.45    685.56773   -8313.9876    8.8787579 
  100000    2632.3875    22645.102    194845.78    696.51793   -8310.0119    8.8504078 
  101000    2647.0404      22621.9    194354.77    700.39501   -8328.2381    8.8594851 
  102000    2612.2344     22561.47    201126.42    691.18552   -8315.8269     8.883215 
  103000     2626.701     22537.97    207741.21     695.0133   -8297.3744    8.8924774 
  104000    2540.0037    22721.014    185282.39     672.0736    -8326.464    8.8208379 
  105000    2626.8763    22526.955    209544.15    695.05968   -8288.4305    8.8968256 
  106000    2600.4668    22655.884     194821.9    688.07186   -8308.3024    8.8461958 
  107000    2517.1797    22589.037    197058.34    666.03448   -8318.9348    8.8723741 
  108000    2550.4865    22492.422    205895.57    674.84728   -8316.6817    8.9104848 
  109000    2668.8423    22627.935    197637.27     706.1637    -8312.479    8.8571223 
  110000    2561.7475    22565.299    201557.57    677.82691    -8312.691    8.8817077 
  111000    2499.9995    22608.022    199691.92    661.48866   -8295.6774    8.8649234 
  112000    2626.6497    22465.648     211227.7    694.99972   -8306.9853    8.9211043 
  113000    2627.1431    22742.622    186737.25    695.13028   -8315.0501    8.8124574 
  114000    2580.0114    22572.886    202487.09    682.65945   -8305.3032    8.8787224 
  115000     2642.604    22651.428    196200.78    699.22117   -8309.1738    8.8479361 
  116000    2536.9042    22604.357    196204.62    671.25349   -8317.6871    8.8663609 
  117000    2630.0489    22500.941    211557.78    695.89914   -8290.1421    8.9071114 
  118000    2593.2605    22587.088    199002.92    686.16511   -8319.6671    8.8731396 
  119000    2671.8919    22656.808    197072.27    706.97061   -8300.7175    8.8458352 
  120000    2615.4236    22559.301    205111.04    692.02936   -8298.1321    8.8840688 
  121000    2604.2543    22607.304    193526.03    689.07401   -8340.0509    8.8652051 
  122000    2540.5373    22465.124    210990.52    672.21479   -8303.2021    8.9213123 
  123000    2709.6321     22610.63    199865.35     716.9565   -8306.8396     8.863901 
  124000    2575.4668    22766.534    185774.91    681.45698   -8303.2991    8.8032017 
  125000    2672.5995    22552.334    202980.64    707.15784   -8312.9955    8.8868136 
  126000    2492.7354    22565.925    197729.47    659.56661   -8324.0684    8.8814611 
  127000    2673.7955    22565.051     200830.3     707.4743   -8321.5438    8.8818052 
  128000    2601.4094    22629.873    193131.46    688.32127   -8328.0152    8.8563637 
  129000    2553.8419    22541.232    204985.56    675.73513   -8301.9687    8.8911903 
  130000    2606.0106    22539.819    205937.67    689.53873   -8300.8925     8.891748 
  131000    2530.6058    22668.344    192441.38    669.58695   -8312.0632    8.8413335 
  132000    2598.1634    22503.116    205608.04    687.46238   -8321.5562    8.9062505 
  133000     2573.654     22630.21    197508.19     680.9773   -8302.3011    8.8562317 
  134000    2618.6241    22602.869    197865.52    692.87618   -8313.6807    8.8669446 
  135000    2617.9304    22518.689    206088.07    692.69265   -8308.4414    8.9000913 
  136000    2576.1881    22610.387    199294.08    681.64781   -8299.2872    8.8639963 
  137000    2638.2701    22604.096    203290.76    698.07445   -8291.2275    8.8664633 
  138000     2555.974     22695.21    193429.46    676.29925   -8295.7881    8.8308673 
  139000    2679.0347    22573.789     205304.5    708.86058   -8295.0204    8.8783673 
  140000    2630.3021    22683.891    193194.72    695.96614   -8303.7336    8.8352738 
  141000     2561.542    22526.613    208617.62    677.77254   -8290.2616    8.8969604 
  142000     2675.489    22671.947    199288.42     707.9224   -8284.3939    8.8399284 
  143000    2581.3913    22641.649    195798.22    683.02458   -8308.6599    8.8517577 
  144000    2613.6704    22571.853    203223.77    691.56547   -8304.5409    8.8791287 
  145000    2640.1595    22587.018    198093.98    698.57437   -8323.3465    8.8731673 
  146000    2600.7112     22697.75    193867.82    688.13653   -8299.2504    8.8298792 
  147000    2541.9435    22569.737    196381.12    672.58686   -8331.9392    8.8799612 
  148000    2606.4163    22515.096    209730.57    689.64608   -8287.3201    8.9015114 
  149000    2512.6737    22576.187    202009.47    664.84218   -8297.8842    8.8774241 
  150000    2601.1052    22571.867    200368.95    688.24076   -8314.0274    8.8791232 
  151000    2552.7593    22614.538    199770.83    675.44867   -8296.4872    8.8623693 
  152000    2567.7828    22532.793    206464.53    679.42381   -8297.2734    8.8945203 
  153000    2548.8057     22719.47    190396.59    674.40255   -8303.0322    8.8214378 
  154000    2646.2189    22548.418    209133.25    700.17766   -8279.9338     8.888357 
  155000    2621.6063    22677.404    192145.54    693.66528   -8314.1895     8.837801 
  156000    2590.4464    22576.006    198259.24    685.42049    -8325.008    8.8774954 
  157000    2623.9841    22658.953       196187    694.29442   -8305.8518    8.8449976 
  158000    2537.4536    22611.068    199705.85    671.39885   -8298.1668    8.8637293 
  159000     2672.387    22501.559    210619.12    707.10163   -8297.6288    8.9068665 
  160000     2654.771    22712.369    186762.84    702.44049   -8329.4019    8.8241957 
  161000    2616.6077    22607.045    197041.54    692.34266   -8319.2393    8.8653067 
  162000      2582.76    22608.316    203488.99    683.38673   -8289.1052    8.8648084 
  163000    2516.0615    22579.554    199326.11     665.7386    -8310.385    8.8761005 
  164000    2597.6556    22592.026    199418.34    687.32803   -8312.0995    8.8712002 
  165000    2585.1524    22469.046       206404    684.01975   -8326.7807    8.9197552 
  166000    2624.0663    22588.938    200259.44    694.31617   -8308.7621    8.8724128 
  167000    2637.8068    22641.108    198360.45    697.95185   -8301.5831     8.851969 
  168000    2559.6443    22549.361    202706.91     677.2704   -8310.6196    8.8879851 
  169000    2538.2136    22613.011    202001.93    671.59995   -8282.8582    8.8629676 
  170000    2558.3055    22668.488    190355.63    676.91617   -8321.2801    8.8412772 
  171000    2656.3138    22530.892    206816.07    702.84871   -8301.9961     8.895271 
  172000    2653.9305    22614.476    196953.02    702.21811   -8317.8054    8.8623934 
  173000    2577.6439    22739.567    191414.84    682.03301   -8290.8098    8.8136411 
  174000    2668.1454    22543.986    202853.57     705.9793   -8318.2434    8.8901041 
  175000    2550.3073    22555.532    199269.63    674.79987   -8326.5968    8.8855535 
  176000    2605.0398    22532.229    205474.94    689.28184   -8302.5429    8.8947429 
  177000    2607.1894    22704.055    194953.35    689.85064   -8286.7074    8.8274269 
  178000    2546.0667    22558.154    204231.43    673.67783   -8299.2644    8.8845206 
  179000    2605.3984    22591.204    198077.63    689.37674   -8316.9289    8.8715228 
  180000     2589.657    22548.738    202717.03    685.21164   -8313.2204    8.8882308 
  181000    2598.2391    22591.651    198971.62    687.48241    -8311.533    8.8713476 
  182000    2584.0188    22672.223    191008.97     683.7198    -8324.125    8.8398208 
  183000    2563.5383    22546.065    205503.16    678.30074   -8296.9212    8.8892845 
  184000     2654.951    22615.975    201016.95    702.48814   -8294.2153    8.8618063 
  185000      2573.51    22633.364    195658.47    680.93922   -8309.6017    8.8549979 
  186000    2572.3228    22609.611    205306.29    680.62508    -8276.474    8.8643005 
  187000     2630.953    22565.853    201100.63    696.13837   -8318.2651    8.8814897 
  188000    2574.2994    22650.472     197078.1    681.14808   -8298.9477    8.8483094 
  189000    2661.5821    22630.451    196869.31    704.24269   -8309.4329    8.8561376 
  190000     2547.364    22647.537    193326.84     674.0211   -8316.5623    8.8494564 
  191000    2627.5832    22596.883    199454.84    695.24674   -8308.8159    8.8692935 
  192000    2572.3097    22536.047    207101.28    680.62161     -8294.95     8.893236 
  193000    2650.0792    22693.039    187088.48    701.19908   -8332.8323    8.8317119 
  194000    2621.2687    22508.327    208417.62    693.57596   -8305.6242    8.9041886 
  195000    2552.7233    22664.467    188469.92    675.43915   -8335.0533    8.8428458 
  196000    2662.8739    22502.958    204871.15    704.58449   -8323.6689    8.9063129 
  197000    2571.4459    22604.703    201649.69    680.39306   -8292.9049    8.8662251 
  198000    2563.0215     22707.66    194571.37      678.164   -8287.2752    8.8260257 
  199000    2534.4724    22559.174    203210.15    670.61003   -8302.6122     8.884119 
  200000    2670.1409    22603.022    202389.69     706.5073   -8294.9085    8.8668846 
  201000    2598.3427     22657.53    192820.37    687.50982   -8320.6221    8.8455531 
  202000    2620.1564    22546.462    202864.02    693.28163   -8314.4921     8.889128 
  203000    2605.2694    22494.258    208476.63    689.34259   -8310.2404    8.9097578 
  204000    2586.7329    22592.419    195991.39    684.43792   -8326.2459    8.8710458 
  205000    2535.3299    22599.174    201989.93    670.83692   -8289.8056    8.8683942 
  206000    2695.9418    22523.236     207687.7    713.33411   -8305.0146    8.8982946 
  207000    2637.7354    22685.583    191041.33    697.93295   -8317.1285    8.8346149 
  208000    2657.6098    22571.653    199064.77    703.19165   -8326.8443    8.8792073 
  209000    2604.8062    22571.601    198253.31    689.22004   -8324.2109    8.8792278 
  210000    2682.1899    22531.667    207676.08    709.69543   -8302.5288    8.8949648 
  211000    2538.5768    22594.938    203680.09    671.69604   -8285.6547    8.8700568 
  212000     2595.171    22552.139    200742.06    686.67061   -8326.5691    8.8868902 
  213000    2646.6989    22664.155    196961.59    700.30466   -8300.8751    8.8429674 
  214000    2607.3323    22618.025    195291.79    689.88845    -8319.421     8.861003 
  215000    2664.3248    22507.001     207363.6     704.9684   -8312.4857     8.904713 
  216000    2565.1281    22672.147    191130.84    678.72138   -8318.2558    8.8398505 
  217000    2635.2788    22554.289    200621.42    697.28295    -8322.364    8.8860431 
  218000    2629.1797     22651.47    198861.37    695.66915    -8293.041    8.8479195 
  219000    2631.2211    22524.406    205859.43    696.20931   -8312.6407    8.8978324 
  220000    2536.5728    22564.652       196281     671.1658    -8333.331    8.8819624 
  221000    2701.1216     22470.27    211302.13    714.70468   -8309.8092    8.9192693 
  222000    2602.1933     22721.07    187481.98    688.52868    -8318.959    8.8208165 
  223000    2650.8922    22610.112     204047.9     701.4142   -8282.0936    8.8641042 
  224000    2555.8542     22655.31    192395.07    676.26756   -8319.4758    8.8464198 
  225000    2682.1991    22556.315    206926.59    709.69786   -8292.6941     8.885245 
  226000    2589.7875    22644.793    195046.57    685.24617   -8313.4959    8.8505286 
  227000    2594.8953      22601.5    196850.02    686.59767   -8318.7903    8.8674818 
  228000    2624.9572    22463.259    213064.17    694.55192   -8295.0858    8.9220531 
  229000    2557.7047    22629.276    194815.38    676.75718   -8315.8841    8.8565972 
  230000    2594.4957    22642.591    197889.14    686.49192   -8298.4263     8.851389 
  231000    2572.6383    22552.875    204306.17    680.70856   -8303.9557    8.8866003 
  232000    2551.9362    22556.546    201946.39    675.23088   -8310.6406    8.8851539 
  233000    2621.1614    22511.019    202844.12    693.54756   -8327.0417    8.9031238 
  234000    2550.4624    22672.243    194433.14    674.84091   -8300.6694    8.8398131 
  235000    2597.3237    22510.904    203833.83    687.24021   -8322.4325    8.9031692 
  236000    2661.8139    22612.122    200906.58    704.30403   -8299.0402    8.8633163 
  237000    2593.5319    22548.809    202063.48    686.23692   -8316.9954    8.8882029 
  238000    2677.8107    22598.627    197260.62    708.53669   -8324.9574    8.8686091 
  239000    2542.6566    22524.397    203082.39    672.77553   -8315.3175    8.8978358 
  240000    2600.9795    22602.702    202357.24    688.20751   -8291.8038    8.8670101 
  241000    2568.2497    22569.063    199694.14    679.54736   -8319.0206    8.8802261 
  242000    2547.6621    22670.051    193271.87    674.09997   -8305.1399    8.8406678 
  243000    2532.4604    22548.056    206729.95    670.07767   -8287.6159    8.8884994 
  244000    2604.8451    22670.505    197515.48    689.23033   -8288.3222    8.8404905 
  245000    2548.9282    22490.586    211877.03    674.43497   -8285.8721    8.9112123 
  246000    2657.7647    22638.393    195415.42    703.23262   -8317.2236    8.8530308 
  247000    2639.9323    22510.481     201364.8    698.51425    -8335.779    8.9033364 
  248000    2680.9988    22579.509    197276.24    709.38027   -8333.9176    8.8761181 
  249000    2581.0871    22683.636    190921.36    682.94407   -8319.5972     8.835373 
  250000     2699.755    22560.818     203377.5    714.34306   -8306.7832    8.8834718 
Loop time of 1591.25 on 4 procs for 250000 steps with 2048 atoms

Performance: 13.574 ns/day, 1.768 hours/ns, 157.110 timesteps/s
112.2% CPU use with 2 MPI tasks x 2 OpenMP threads

MPI task timing breakdown:
Section |  min time  |  avg time  |  max time  |%varavg| %total
---------------------------------------------------------------
Pair    | 1140.4     | 1144.9     | 1149.3     |  13.1 | 71.95
Neigh   | 18.454     | 18.659     | 18.864     |   4.7 |  1.17
Comm    | 99.556     | 109.8      | 120.04     |  97.8 |  6.90
Output  | 0.028743   | 0.11594    | 0.20315    |  25.6 |  0.01
Modify  | 310.15     | 315.64     | 321.12     |  30.9 | 19.84
Other   |            | 2.176      |            |       |  0.14

Nlocal:        1024.00 ave        1026 max        1022 min
Histogram: 1 0 0 0 0 0 0 0 0 1
Nghost:        4256.50 ave        4264 max        4249 min
Histogram: 1 0 0 0 0 0 0 0 0 1
Neighs:        85195.5 ave       87845 max       82546 min
Histogram: 1 0 0 0 0 0 0 0 0 1

Total # of neighbors = 170391
Ave neighs/atom = 83.198730
Neighbor list builds = 5078
Dangerous builds = 0


# fix 132 all momentum 100 linear 1 1 1 angular
fix out_file_1 all print 1000 "$(step) $(temp) $(press) ${sys_press} $(vol) $(ke) $(pe) $(density)" file one_phase_${sim}_press_$P_$T_.txt screen no title  "step temp press pressGiga vol ke pe density"
fix out_file_1 all print 1000 "$(step) $(temp) $(press) ${sys_press} $(vol) $(ke) $(pe) $(density)" file one_phase_heating_press_$P_$T_.txt screen no title  "step temp press pressGiga vol ke pe density"
fix out_file_1 all print 1000 "$(step) $(temp) $(press) ${sys_press} $(vol) $(ke) $(pe) $(density)" file one_phase_heating_press_200000_$T_.txt screen no title  "step temp press pressGiga vol ke pe density"
fix out_file_1 all print 1000 "$(step) $(temp) $(press) ${sys_press} $(vol) $(ke) $(pe) $(density)" file one_phase_heating_press_200000_2600_.txt screen no title  "step temp press pressGiga vol ke pe density"

# dump 3 all custom 1000 traj_npt_new.lammpstrj id type x y z
run 50000
Last active /omp style is pair_style eam/alloy/omp
Per MPI rank memory allocation (min/avg/max) = 4.442 | 4.442 | 4.442 Mbytes
Step Temp Volume Press KinEng PotEng Density 
  250000     2699.755    22560.818     203377.5    714.34306   -8306.7832    8.8834718 
  251000    2595.2867    22607.529    198214.78    686.70122   -8312.7029     8.865117 
  252000    2600.7287     22623.75    196194.25    688.14115   -8315.7177    8.8587608 
  253000    2633.3471    22528.135    205949.75    696.77185   -8308.5925    8.8963596 
  254000    2535.4812    22637.901       190336    670.87696   -8336.6685    8.8532232 
  255000    2626.8846    22535.891    206807.28    695.06188   -8299.1963    8.8932976 
  256000     2558.298    22582.298    202219.08    676.91418     -8299.71    8.8750216 
  257000    2552.0812    22636.308       197619    675.26926   -8298.3431    8.8538462 
  258000    2636.2214    22501.297    207349.23    697.53236   -8308.8724    8.9069706 
  259000    2546.4669    22677.368    193048.97    673.78372   -8306.5248    8.8378151 
  260000    2587.9257    22574.997    205363.16    684.75353   -8288.9536    8.8778922 
  261000    2569.8543     22579.32    198629.17    679.97192   -8321.3018    8.8761921 
  262000    2594.6509    22628.188    197102.76      686.533    -8307.501    8.8570233 
  263000    2690.3418    22644.928    195166.49    711.85238   -8320.2971    8.8504759 
  264000     2570.803    22495.077    207976.25    680.22295   -8303.1566    8.9094331 
  265000    2668.8591    22682.154    196040.45    706.16816   -8293.4125    8.8359504 
  266000    2629.8073    22658.385    196366.48    695.83522   -8298.4064    8.8452194 
  267000    2653.8202    22522.742    208557.94    702.18892   -8295.6502    8.8984898 
  268000    2656.7471    22747.748     189537.2    702.96338   -8302.3045    8.8104715 
  269000    2632.0815    22653.166    192581.85    696.43697    -8326.956    8.8472574 
  270000    2689.6275    22581.054    201053.94    711.66338   -8311.4108    8.8755106 
  271000    2648.9862    22617.429     198590.2    700.90988   -8306.8195    8.8612366 
  272000    2612.8293    22645.733    196377.12    691.34291   -8310.5046    8.8501611 
  273000    2626.9122    22599.312    197426.71     695.0692   -8323.6816    8.8683401 
  274000     2530.199    22539.386    201250.35    669.47932   -8321.0859    8.8919187 
  275000     2628.381    22641.759    196151.82    695.45782   -8309.3039    8.8517146 
  276000     2566.936    22536.504    203493.14    679.19976   -8312.1668    8.8930559 
  277000    2520.0621    22776.388    187396.52    666.79713   -8292.0657    8.7993928 
  278000     2636.988     22528.46    206738.17     697.7352   -8304.1641    8.8962309 
  279000    2480.6794    22639.814    192446.73    656.37666   -8319.0408     8.852475 
  280000    2619.1119     22501.91    207086.14    693.00527   -8311.7913    8.9067279 
  281000    2616.2438    22681.976    194744.36    692.24639   -8299.5903    8.8360195 
  282000    2653.0904    22702.829    195772.89    701.99582   -8289.1215    8.8279035 
  283000    2679.1781    22626.815    194528.65    708.89852   -8326.6135    8.8575605 
  284000    2578.5165    22673.054    197233.88     682.2639   -8284.8806    8.8394967 
  285000    2660.3537    22506.988    208326.74    703.91766   -8303.2289    8.9047182 
  286000    2489.4196    22676.219    194717.88    658.68925   -8293.3454    8.8382629 
  287000    2665.7704    22637.065    196794.09    705.35089   -8310.7482    8.8535499 
  288000    2614.3444    22550.443    200820.93     691.7438   -8322.5903    8.8875587 
  289000    2616.1605     22718.27    190188.66    692.22433   -8308.3842    8.8219034 
  290000      2593.94    22432.199    209058.79    686.34491   -8327.8205    8.9344067 
  291000    2597.3442    22567.464    202837.96    687.24563   -8304.3377    8.8808556 
  292000    2555.1486    22665.521    193087.56    676.08086   -8312.4456    8.8424344 
  293000    2632.3804    22547.946    209007.44    696.51606    -8282.193    8.8885431 
  294000    2625.6446    22673.515    194063.36    694.73379   -8307.7579    8.8393171 
  295000    2658.7105    22528.361    203380.49    703.48289   -8318.7968    8.8962703 
  296000    2611.1684    22522.017    201587.39    690.90344   -8333.4227    8.8987762 
  297000    2583.3297    22579.943    201386.88    683.53747   -8308.0856    8.8759472 
  298000    2651.1558    22571.058    201123.11    701.48395   -8315.6329    8.8794413 
  299000    2575.3682    22526.249    211672.55    681.43089   -8279.5357    8.8971041 
  300000    2502.7689     22681.36    190421.87    662.22144   -8312.9501    8.8362595 
Loop time of 313.183 on 4 procs for 50000 steps with 2048 atoms

Performance: 13.794 ns/day, 1.740 hours/ns, 159.651 timesteps/s
115.6% CPU use with 2 MPI tasks x 2 OpenMP threads

MPI task timing breakdown:
Section |  min time  |  avg time  |  max time  |%varavg| %total
---------------------------------------------------------------
Pair    | 228.62     | 229.01     | 229.4      |   2.6 | 73.12
Neigh   | 3.6794     | 3.7077     | 3.7359     |   1.5 |  1.18
Comm    | 18.967     | 20.49      | 22.014     |  33.7 |  6.54
Output  | 0.0041242  | 0.0046932  | 0.0052622  |   0.8 |  0.00
Modify  | 58.467     | 59.571     | 60.676     |  14.3 | 19.02
Other   |            | 0.3994     |            |       |  0.13

Nlocal:        1024.00 ave        1034 max        1014 min
Histogram: 1 0 0 0 0 0 0 0 0 1
Nghost:        4258.00 ave        4269 max        4247 min
Histogram: 1 0 0 0 0 0 0 0 0 1
Neighs:        84570.0 ave       86791 max       82349 min
Histogram: 1 0 0 0 0 0 0 0 0 1

Total # of neighbors = 169140
Ave neighs/atom = 82.587891
Neighbor list builds = 1023
Dangerous builds = 0

unfix temp
unfix out_file_1


write_data after_${sim}_press_$P_$T.in
write_data after_heating_press_$P_$T.in
write_data after_heating_press_200000_$T.in
write_data after_heating_press_200000_2600.in
System init for write_data ...
Last active /omp style is pair_style eam/alloy/omp
write_restart after_${sim}_press_$P_$T.lmp
write_restart after_heating_press_$P_$T.lmp
write_restart after_heating_press_200000_$T.lmp
write_restart after_heating_press_200000_2600.lmp
System init for write_restart ...
Last active /omp style is pair_style eam/alloy/omp
next loopVar
jump in.lmp ensemble

print """
Label pachadi solti, hos garam.
"""

Label pachadi solti, hos garam.

variable T equal 2500+${loopVar}*100
variable T equal 2500+2*100
# variable T equal 2500


reset_timestep 0
fix 1 all npt temp $T $T $(dt*100) iso $P $P $(dt*1000)
fix 1 all npt temp 2700 $T $(dt*100) iso $P $P $(dt*1000)
fix 1 all npt temp 2700 2700 $(dt*100) iso $P $P $(dt*1000)
fix 1 all npt temp 2700 2700 0.10000000000000000555 iso $P $P $(dt*1000)
fix 1 all npt temp 2700 2700 0.10000000000000000555 iso 200000 $P $(dt*1000)
fix 1 all npt temp 2700 2700 0.10000000000000000555 iso 200000 200000 $(dt*1000)
fix 1 all npt temp 2700 2700 0.10000000000000000555 iso 200000 200000 1
print """
<--------------------------------------------------------------------->
<------------------ Equilibrating at temperature $T ----------------->
<--------------------------------------------------------------------->
"""

<--------------------------------------------------------------------->
<------------------ Equilibrating at temperature 2700 ----------------->
<--------------------------------------------------------------------->

fix temp all print 1000 "$(step) $(temp) $(press) ${sys_press} $(vol) $(ke) $(pe) $(density)" file temp_${sim}.txt screen no title  "step temp press pressGiga vol ke pe density"
fix temp all print 1000 "$(step) $(temp) $(press) ${sys_press} $(vol) $(ke) $(pe) $(density)" file temp_heating.txt screen no title  "step temp press pressGiga vol ke pe density"
run 250000
Last active /omp style is pair_style eam/alloy/omp
Per MPI rank memory allocation (min/avg/max) = 4.442 | 4.442 | 4.442 Mbytes
Step Temp Volume Press KinEng PotEng Density 
       0    2502.7689     22681.36    190421.87    662.22144   -8312.9501    8.8362595 
    1000    2692.5878    22632.283    207190.55    712.44667   -8263.0617    8.8554208 
    2000    2704.8589    22703.962    200443.43    715.69354   -8269.6325    8.8274631 
    3000    2766.9052    22639.381    204260.65    732.11071   -8275.0167    8.8526443 
    4000    2686.2487    22743.206    190323.58    710.76938   -8301.7106     8.812231 
    5000    2601.0594    22656.278    203178.37    688.22866   -8269.9965    8.8460421 
    6000    2794.0799    22664.291    203189.96    739.30103   -8274.6279    8.8429143 
    7000    2633.4422    22686.269    201356.67      696.797   -8267.8384    8.8343477 
    8000    2690.0101     22650.25     200719.6    711.76461   -8284.6714    8.8483962 
    9000    2734.5239    22741.609    196042.45    723.54278   -8273.7185    8.8128499 
   10000    2640.2904    22853.168    186578.08      698.609   -8272.0566    8.7698296 
   11000    2728.1289    22627.657    203979.32    721.85067   -8284.2263    8.8572309 
   12000    2699.9288    22715.598    194363.44    714.38905   -8291.5664    8.8229412 
   13000    2704.9118    22705.497    205341.86    715.70754   -8237.2891    8.8268663 
   14000    2620.5609    22767.702     193150.3    693.38868   -8272.1825      8.80275 
   15000    2756.2576    22561.564    211813.71    729.29341   -8266.7922    8.8831778 
   16000    2600.3687    22691.463    195858.88    688.04591    -8288.454    8.8323253 
   17000    2644.5755     22583.88    208859.16    699.74281   -8272.5336    8.8744002 
   18000    2702.3808    22630.602    200752.44    715.03784   -8296.3019    8.8560786 
   19000    2640.0581    22663.261    203106.19    698.54754   -8263.3335    8.8433162 
   20000    2691.7145    22668.538     205424.6    712.21558   -8258.9726    8.8412579 
   21000    2692.6828    22663.211    195983.29    712.47179   -8303.1241    8.8433358 
   22000    2711.0263    22570.262    209767.16    717.32541   -8276.4463    8.8797546 
   23000    2681.2734     22717.56    192450.64    709.45293   -8300.4242    8.8221792 
   24000    2686.2171    22735.414    195182.43    710.76099    -8276.231     8.815251 
   25000    2694.7501    22725.965    198801.69     713.0188   -8267.3587    8.8189164 
   26000     2716.729    22691.901    202665.98    718.83432   -8264.3127    8.8321549 
   27000     2689.929    22719.206    194934.74    711.74316   -8288.6015      8.82154 
   28000    2651.3259    22547.882    211456.13    701.52896    -8269.351     8.888568 
   29000    2698.9088    22620.712    208718.94    714.11916   -8258.4817    8.8599504 
   30000    2687.7183    22673.768     193880.6    711.15821   -8309.8859    8.8392182 
   31000    2674.5774     22735.05    196945.91    707.68118   -8268.7528    8.8153924 
   32000    2730.4814    22626.085    200466.08    722.47315   -8301.6572    8.8578465 
   33000    2685.5609    22663.065     201208.9    710.58738   -8279.3378    8.8433929 
   34000    2748.3085    22763.799    197595.23    727.19011   -8257.6293    8.8042592 
   35000     2670.898    22600.795    207368.01    706.70765   -8271.8443    8.8677582 
   36000    2643.3481    22682.995     199369.9    699.41805   -8275.6387    8.8356228 
   37000    2652.1075    22724.016    194518.97    701.73575   -8286.6894    8.8196728 
   38000    2617.4588    22718.653    200087.35    692.56787   -8260.2502    8.8217549 
   39000    2782.9131    22658.862    204652.69    736.34634   -8271.0901    8.8450333 
   40000    2622.5847    22687.851    202508.11    693.92416   -8258.1746    8.8337317 
   41000    2702.3734    22670.622    199541.89    715.03589   -8288.5209     8.840445 
   42000     2750.557    22626.451    203556.42    727.78504   -8285.5921     8.857703 
   43000    2657.1106    22738.795    197250.15    703.05955   -8268.3102    8.8139405 
   44000    2741.1757     22706.78    197743.52    725.30281   -8282.3109    8.8263675 
   45000    2748.9285    22675.075       202956    727.35414   -8269.0374     8.838709 
   46000    2716.2492    22704.742    196164.52    718.70737   -8289.5642    8.8271599 
   47000    2655.7832     22774.23    190673.85    702.70834   -8286.1744    8.8002266 
   48000    2733.8184    22617.207    209480.05    723.35608   -8262.5917    8.8613236 
   49000    2682.5178    22676.756    195897.76    709.78219   -8296.0361    8.8380538 
   50000    2690.1161     22735.43    197406.56    711.79265   -8268.7609    8.8152449 
   51000    2712.6044     22562.23    211416.75    717.74295   -8267.2494    8.8829157 
   52000    2677.6564    22705.749    193227.51    708.49588   -8294.7476    8.8267684 
   53000    2708.8823    22751.163    195200.56     716.7581   -8272.6604     8.809149 
   54000    2729.8166    22697.283    197184.15    722.29723   -8287.5395    8.8300605 
   55000    2717.5902    22801.336    192581.28    719.06218     -8268.45    8.7897652 
   56000    2714.0116    22640.316    202975.29    718.11531   -8280.4476    8.8522785 
   57000    2780.8746    22663.185    201246.31    735.80695    -8282.046    8.8433461 
   58000    2668.1421    22695.437     197664.3    705.97844     -8284.51    8.8307788 
   59000    2703.9363    22700.973    197187.71    715.44941   -8287.0978    8.8286254 
   60000    2691.1033    22627.983    211479.15    712.05386   -8244.8607    8.8571036 
   61000    2705.0977    22733.133    194307.48    715.75671    -8285.037    8.8161358 
   62000    2707.5992    22823.783    188925.85    716.41862    -8275.487    8.7811205 
   63000    2726.6657    22555.771    208638.96    721.46351   -8287.0175    8.8854595 
   64000    2715.3904    22689.829    199949.01    718.48012   -8274.1883    8.8329614 
   65000    2667.1366    22673.147    195498.16    705.71238   -8303.0618    8.8394605 
   66000    2663.1044    22777.924    194065.75    704.64547   -8269.4651    8.7987993 
   67000    2718.8983    22610.345    207205.61    719.40831   -8273.0704    8.8640127 
   68000    2660.1502    22829.265    183782.64    703.86382   -8296.0961    8.7790118 
   69000    2709.4648    22648.496    203763.59    716.91224   -8272.8097    8.8490815 
   70000    2769.4434    22619.389    207062.26    732.78231   -8269.9848    8.8604687 
   71000     2726.969    22816.442    187545.01    721.54378   -8291.6643    8.7839457 
   72000    2650.6849    22639.629    203347.25    701.35935   -8273.3303    8.8525473 
   73000    2763.0572    22691.263     204936.5    731.09255   -8249.3165    8.8324035 
   74000    2727.2406    22719.664    195504.12    721.61563   -8287.4895    8.8213623 
   75000     2713.673    22608.129    205406.39     718.0257   -8282.1513    8.8648816 
   76000    2706.4339    22814.127    190960.95    716.11029   -8269.5748    8.7848371 
   77000    2610.4938    22571.381    206831.65    690.72497   -8281.0929    8.8793142 
   78000    2745.7491    22637.564    206968.93     726.5129    -8266.662    8.8533548 
   79000    2588.1724    22752.054    193917.11    684.81882   -8273.6748    8.8088043 
   80000    2756.9247    22748.817    190515.47    729.46991   -8306.9504    8.8100576 
   81000    2748.0595    22654.367     206667.6    727.12423   -8258.2104    8.8467884 
   82000    2685.2755     22770.38    197869.27    710.51186   -8253.4586    8.8017146 
   83000    2749.0274    22675.143    200397.19    727.38032   -8281.2831    8.8386822 
   84000    2704.8368    22582.425     205413.8    715.68769   -8292.9425    8.8749719 
   85000     2666.702    22606.438    201415.09    705.59739   -8297.7328    8.8655449 
   86000       2737.8    22706.534    197129.58    724.40961   -8283.5434    8.8264631 
   87000    2676.0088    22613.886    204150.54    708.05992   -8286.3818    8.8626249 
   88000    2693.1451    22732.181    196317.56    712.59411   -8274.5624    8.8165048 
   89000    2868.7877    22681.266    205690.93    759.06836   -8258.9049    8.8362963 
   90000      2662.95     22760.78    191757.89    704.60462   -8284.0325     8.805427 
   91000    2675.8384    22592.448    202730.45    708.01483   -8299.7577    8.8710345 
   92000    2756.7378    22587.139    210811.66    729.42047   -8264.3456    8.8731194 
   93000    2660.6532    22756.776    191041.94     703.9969   -8288.4733    8.8069761 
   94000    2713.1913     22747.77    195369.45    717.89826   -8272.4753    8.8104629 
   95000    2754.7173    22648.383    203132.22    728.88585   -8277.0423    8.8491255 
   96000    2668.5866    22628.886    201966.16    706.09604   -8288.9805    8.8567502 
   97000    2701.9846    22747.856    195839.13      714.933   -8270.4739    8.8104297 
   98000    2701.2059    22719.233    194527.82    714.72696   -8286.6733    8.8215296 
   99000    2623.7099    22582.021    206354.09    694.22189   -8279.4659    8.8751306 
  100000    2787.8489    22670.622    201224.12    737.65233    -8279.251     8.840445 
  101000    2617.3531    22742.923    195487.34     692.5399   -8273.0265    8.8123408 
  102000    2730.7139    22770.703    198484.35    722.53467   -8252.9535    8.8015898 
  103000    2769.2445    22573.424    207336.48    732.72969   -8292.2242    8.8785106 
  104000    2726.9036    22733.671     192891.8    721.52646   -8293.7411     8.815927 
  105000    2833.7916    22649.661    205281.33    749.80854   -8275.4219    8.8486264 
  106000    2688.0029     22769.02    190279.66    711.23352   -8295.2765    8.8022405 
  107000    2691.5951    22719.776    195743.27    712.18399   -8281.1073    8.8213189 
  108000    2762.8065    22651.252    199600.16    731.02621   -8296.0552    8.8480047 
  109000     2686.717    22839.718    188350.27    710.89326   -8271.6965     8.774994 
  110000    2689.8127    22578.179    206459.32    711.71238   -8288.4867    8.8766408 
  111000    2791.7756    22747.089       196251    738.69131   -8277.0679    8.8107269 
  112000    2677.4288    22672.287    200623.38    708.43564   -8275.8093    8.8397958 
  113000    2805.2771    22728.495    198549.12    742.26375    -8273.677    8.8179348 
  114000    2687.6278    22782.133    193943.66    711.13427   -8267.9672     8.797174 
  115000    2675.0448    22630.074    205917.52    707.80486   -8270.8987     8.856285 
  116000    2702.2881    22714.918     198437.1    715.01331   -8272.9354    8.8232056 
  117000    2663.1607     22819.65     188363.9    704.66039   -8278.4925    8.7827108 
  118000    2786.0329    22605.127    207553.73    737.17182   -8275.1005    8.8660589 
  119000    2800.9917    22643.228    201092.54    741.12984   -8294.3182    8.8511401 
  120000    2724.9629    22646.021    198185.18    721.01297   -8305.0451    8.8500485 
  121000    2664.2055    22822.784    191664.99    704.93683   -8262.4404    8.7815048 
  122000    2736.4049    22561.755    208532.07    724.04048   -8285.6492    8.8831029 
  123000    2617.8217    22623.054    204089.04     692.6639   -8277.5476    8.8590333 
  124000    2667.2029    22699.309    196884.79    705.72994   -8281.0543    8.8292727 
  125000    2759.5402    22720.296    199400.21    730.16196   -8267.8459    8.8211167 
  126000    2774.3792    22660.496    199584.67    734.08831   -8294.8515    8.8443956 
  127000    2660.3713    22702.083    193646.71    703.92233   -8297.8525    8.8281937 
  128000    2690.4558    22737.373    198203.78    711.88253   -8259.7103    8.8144919 
  129000    2718.3219    22649.624    202196.25     719.2558   -8278.4065    8.8486406 
  130000    2653.5815    22769.858    191179.78    702.12577   -8282.3787    8.8019163 
  131000    2768.9089    22679.897    208446.21    732.64088   -8239.6053    8.8368296 
  132000    2701.4413    22708.919    196978.88    714.78925   -8281.7684    8.8255361 
  133000    2689.8008    22703.764    200661.88    711.70923   -8264.0997    8.8275401 
  134000    2796.9802    22722.609    199449.77    740.06841   -8267.5325     8.820219 
  135000    2682.9007    22751.867    195371.92    709.88348   -8272.2033    8.8088764 
  136000    2697.0333    22681.745    198350.37    713.62292   -8283.6932    8.8361096 
  137000    2735.6579    22773.488    191797.89    723.84283   -8281.4232    8.8005133 
  138000    2695.0876    22680.701    202202.25    713.10809   -8265.3081    8.8365164 
  139000    2757.6439    22634.301    205078.23    729.66022   -8272.7055    8.8546311 
  140000     2682.514    22833.637    188531.33    709.78118   -8271.8257    8.7773307 
  141000     2705.953    22637.561    205533.45    715.98303   -8267.6034    8.8533559 
  142000    2728.0757      22723.2    196595.44    721.83659   -8278.1042    8.8199896 
  143000    2664.1736    22795.126    193650.44    704.92838   -8261.8775    8.7921596 
  144000    2704.4354    22591.106    205376.05    715.58148   -8291.0546    8.8715617 
  145000    2705.2594    22696.212    195620.28    715.79951   -8291.4933    8.8304773 
  146000    2726.9856    22672.887    200314.35    721.54815   -8283.3085    8.8395617 
  147000    2721.8664    22659.233    202376.77    720.19365   -8278.1274    8.8448884 
  148000    2681.2674    22522.996    215731.27    709.45135   -8263.4381    8.8983892 
  149000    2710.3671    22775.615    194928.26    717.15097   -8267.9458    8.7996917 
  150000    2591.4438    22663.865    201469.55    685.68442   -8271.5186    8.8430809 
  151000    2752.0187    22693.938    200935.14     728.1718   -8271.7617    8.8313621 
  152000    2715.4563    22693.874    200088.54    718.49758   -8274.1122    8.8313871 
  153000    2663.4424    22770.577    191269.88    704.73492   -8284.1851    8.8016384 
  154000    2631.8399     22663.66    204205.91    696.37303   -8260.3607    8.8431607 
  155000    2647.0582    22605.518    212334.33    700.39974   -8243.3836    8.8659056 
  156000    2671.0391    22614.467    203001.62    706.74496   -8289.8071    8.8623972 
  157000    2654.1986    22786.713    193258.95    702.28905   -8264.4087    8.7954057 
  158000    2668.0219    22665.774    204077.43    705.94664   -8260.4837    8.8423358 
  159000    2646.4088    22647.032    198382.16    700.22789   -8297.4823    8.8496535 
  160000    2653.7397    22768.122    200508.42    702.16764   -8237.9519    8.8025874 
  161000    2656.4222    22701.594    203980.91    702.87739   -8246.4184    8.8283838 
  162000    2706.0656    22702.311    201671.93    716.01282   -8261.5702    8.8281052 
  163000     2639.528    22732.252    194431.81    698.40728    -8282.972    8.8164775 
  164000    2712.0558     22847.37    187742.04     717.5978   -8272.3979     8.772055 
  165000    2699.6628    22570.835    207384.99    714.31867   -8285.4282    8.8795293 
  166000    2726.3551     22692.78    202489.66    721.38133    -8261.969    8.8318129 
  167000    2794.8495    22666.972    200441.15    739.50466   -8283.5309    8.8418684 
  168000    2669.0426    22740.552    192255.18    706.21669   -8293.4027    8.8132594 
  169000    2733.3496    22611.067     206570.2    723.23204   -8275.4001    8.8637297 
  170000     2720.209    22744.256    192261.87    719.75509   -8290.2509    8.8118243 
  171000    2610.7832    22745.823    191673.88    690.80152   -8288.6241    8.8112173 
  172000    2735.0044    22608.514       204909    723.66991   -8286.5081    8.8647305 
  173000    2716.7492    22697.531    197122.51    718.83966   -8286.9699    8.8299641 
  174000    2734.4121    22719.989    194573.09    723.51319   -8290.4158    8.8212362 
  175000    2691.7629    22698.471    204491.92    712.22841   -8249.2484    8.8295987 
  176000    2642.7878    22685.148    198316.72    699.26981    -8278.145    8.8347843 
  177000    2623.9636    22698.767    196622.88    694.28899   -8283.3085    8.8294833 
  178000    2750.3141     22754.94    198049.44    727.72078   -8258.8884     8.807687 
  179000     2604.203    22581.181    204044.19    689.06045   -8297.2871    8.8754609 
  180000    2744.3577    22624.263    204426.65    726.14474   -8278.1384    8.8585598 
  181000    2694.9985    22681.425    199272.14    713.08452   -8282.1506    8.8362342 
  182000    2661.7239    22731.984    196061.44    704.28022   -8276.1445    8.8165812 
  183000    2718.7289    22651.449    207000.06    719.36347   -8254.6881    8.8479278 
  184000    2713.9808    22703.146    198943.01    718.10715   -8275.2482    8.8277804 
  185000    2701.0618    22591.638    203384.26    714.68883   -8298.1798    8.8713526 
  186000    2794.2668    22640.124    205061.98    739.35046   -8272.8324    8.8523536 
  187000     2658.608    22607.275    206822.92    703.45575   -8268.3048    8.8652165 
  188000    2708.3475    22782.295    193454.44    716.61662    -8267.276    8.7971114 
  189000    2674.1671    22556.925    212781.11    707.57263   -8263.3945    8.8850049 
  190000    2725.0004    22822.648     190111.7    721.02288   -8269.9512    8.7815571 
  191000    2724.3543     22697.06    198173.79    720.85193   -8282.3092    8.8301476 
  192000    2752.0309    22565.182    209067.78    728.17503   -8282.8471    8.8817535 
  193000    2675.2394    22794.542    189833.99    707.85636   -8283.3789    8.7923848 
  194000    2677.6277    22677.807    204672.53    708.48829   -8258.2475     8.837644 
  195000     2710.298    22702.558    201316.95    717.13269   -8262.6491     8.828009 
  196000    2666.7167    22685.065     199341.9    705.60127   -8277.3393    8.8348163 
  197000    2751.7603    22638.552     202088.4    728.10343   -8287.2679    8.8529686 
  198000    2677.8526      22700.6     201089.5    708.54779    -8261.577    8.8287705 
  199000     2703.788    22697.003    195609.31    715.41018   -8291.9041    8.8301695 
  200000    2669.9635    22691.334    203491.29    706.46036   -8252.6414    8.8323757 
  201000    2707.7727    22697.318    190307.35    716.46452   -8316.6567    8.8300471 
  202000    2671.1517    22634.136    205369.05    706.77475   -8269.5257    8.8546959 
  203000    2683.6241    22611.194     204725.9    710.07489   -8279.1791    8.8636799 
  204000    2693.2482    22797.836    190027.62     712.6214   -8281.6096    8.7911146 
  205000    2754.6945    22650.254    207098.41    728.87981   -8257.3059    8.8483948 
  206000     2724.885    22763.851    190813.45    720.99235   -8295.1397    8.8042389 
  207000    2665.4019      22678.7    204743.61     705.2534   -8254.3111    8.8372961 
  208000    2651.9636    22653.297    206465.66    701.69767   -8253.6965    8.8472062 
  209000    2742.2037    22705.202    198196.05     725.5748    -8278.211     8.826981 
  210000    2722.7179    22614.599    202771.14    720.41895   -8293.3819    8.8623455 
  211000    2583.8909    22677.538    198001.76    683.68594   -8281.4914    8.8377488 
  212000    2663.9312    22680.995    203182.09    704.86426   -8258.1517     8.836402 
  213000    2706.1166    22545.122    213585.85    716.02632   -8265.3881    8.8896564 
  214000    2669.7284    22713.297    194549.58    706.39815   -8292.3193    8.8238349 
  215000    2636.7081    22615.018    206557.59    697.66114   -8265.2194    8.8621812 
  216000    2651.6734    22716.718    202466.58     701.6209   -8247.4223    8.8225063 
  217000    2730.7949     22757.78    193070.08    722.55609   -8280.4779    8.8065876 
  218000    2737.3705    22695.287    196972.61    724.29596   -8292.7432    8.8308374 
  219000    2681.9479    22782.372    187235.96     709.6314   -8299.2763    8.7970817 
  220000    2797.6889    22487.233    216327.97    740.25593   -8282.1547     8.912541 
  221000    2642.7834    22759.395    196082.41    699.26863   -8261.6157    8.8059628 
  222000    2649.8193    22737.374    194248.47    701.13031    -8279.537    8.8144915 
  223000    2698.9158    22627.755    203654.46    714.12102   -8279.6349    8.8571926 
  224000    2634.2977    22709.091    197117.07    697.02336   -8275.8271    8.8254695 
  225000    2688.6339    22665.972    207318.38    711.40047   -8245.0546    8.8422586 
  226000    2613.4539    22710.489    195083.07    691.50819   -8286.6943    8.8249262 
  227000    2767.8127    22736.155    195474.52    732.35083   -8284.3057     8.814964 
  228000    2672.8846    22526.327    210176.12    707.23329   -8289.5336    8.8970735 
  229000    2646.4409    22666.398    198503.18    700.23641   -8288.2462    8.8420926 
  230000    2654.8972    22815.052    190299.19    702.47389   -8265.0113     8.784481 
  231000    2702.1354    22523.375    212552.65    714.97292   -8281.1624    8.8982396 
  232000    2694.2509    22694.651    198727.86     712.8867   -8278.2763    8.8310848 
  233000    2672.9779    22794.529    195183.83    707.25796   -8254.4575      8.79239 
  234000    2688.2568    22645.589    205202.86     711.3007   -8264.8293    8.8502176 
  235000    2677.1244    22706.956    196567.98    708.35511   -8280.7047    8.8262993 
  236000     2619.058     22576.86     207947.6      692.991   -8274.8803    8.8771594 
  237000    2748.8157    22659.668    203821.93     727.3243   -8272.0874    8.8447187 
  238000    2701.6748    22787.009    191351.96    714.85103    -8281.547    8.7952914 
  239000     2753.665    22569.093    208166.76    728.60742   -8284.9956    8.8802145 
  240000    2769.8459    22715.952    199864.66     732.8888   -8269.4108    8.8228036 
  241000      2749.17    22672.388    196965.58    727.41806   -8301.8364    8.8397563 
  242000    2748.9779     22768.73    192924.34    727.36723    -8283.443    8.8023526 
  243000    2773.2134    22583.191       208626    733.77984   -8281.4163     8.874671 
  244000    2672.3156     22678.02    200685.68    707.08272   -8273.5089    8.8375609 
  245000    2628.3346     22710.97    191544.97    695.44556   -8307.0634    8.8247392 
  246000    2649.7211     22608.71    205133.24    701.10432   -8284.0672    8.8646537 
  247000    2669.1561    22688.331     201309.9    706.24673    -8264.862    8.8335447 
  248000    2676.8854    22756.544    195814.95    708.29186   -8269.9236    8.8070662 
  249000    2790.1209    22735.713    199404.67    738.25349   -8260.7621    8.8151353 
  250000    2698.9338    22800.928    192532.06    714.12579   -8265.9582    8.7899225 
Loop time of 1574.38 on 4 procs for 250000 steps with 2048 atoms

Performance: 13.720 ns/day, 1.749 hours/ns, 158.793 timesteps/s
114.6% CPU use with 2 MPI tasks x 2 OpenMP threads

MPI task timing breakdown:
Section |  min time  |  avg time  |  max time  |%varavg| %total
---------------------------------------------------------------
Pair    | 1144.3     | 1146.3     | 1148.4     |   6.0 | 72.81
Neigh   | 19.001     | 19.183     | 19.364     |   4.1 |  1.22
Comm    | 96.416     | 104.51     | 112.6      |  79.2 |  6.64
Output  | 0.019259   | 0.023171   | 0.027082   |   2.6 |  0.00
Modify  | 296.37     | 302.21     | 308.05     |  33.6 | 19.20
Other   |            | 2.135      |            |       |  0.14

Nlocal:        1024.00 ave        1030 max        1018 min
Histogram: 1 0 0 0 0 0 0 0 0 1
Nghost:        4262.50 ave        4269 max        4256 min
Histogram: 1 0 0 0 0 0 0 0 0 1
Neighs:        84156.0 ave       87253 max       81059 min
Histogram: 1 0 0 0 0 0 0 0 0 1

Total # of neighbors = 168312
Ave neighs/atom = 82.183594
Neighbor list builds = 5192
Dangerous builds = 0


# fix 132 all momentum 100 linear 1 1 1 angular
fix out_file_1 all print 1000 "$(step) $(temp) $(press) ${sys_press} $(vol) $(ke) $(pe) $(density)" file one_phase_${sim}_press_$P_$T_.txt screen no title  "step temp press pressGiga vol ke pe density"
fix out_file_1 all print 1000 "$(step) $(temp) $(press) ${sys_press} $(vol) $(ke) $(pe) $(density)" file one_phase_heating_press_$P_$T_.txt screen no title  "step temp press pressGiga vol ke pe density"
fix out_file_1 all print 1000 "$(step) $(temp) $(press) ${sys_press} $(vol) $(ke) $(pe) $(density)" file one_phase_heating_press_200000_$T_.txt screen no title  "step temp press pressGiga vol ke pe density"
fix out_file_1 all print 1000 "$(step) $(temp) $(press) ${sys_press} $(vol) $(ke) $(pe) $(density)" file one_phase_heating_press_200000_2700_.txt screen no title  "step temp press pressGiga vol ke pe density"

# dump 3 all custom 1000 traj_npt_new.lammpstrj id type x y z
run 50000
Last active /omp style is pair_style eam/alloy/omp
Per MPI rank memory allocation (min/avg/max) = 4.442 | 4.442 | 4.442 Mbytes
Step Temp Volume Press KinEng PotEng Density 
  250000    2698.9338    22800.928    192532.06    714.12579   -8265.9582    8.7899225 
  251000    2639.8314    22631.335    203562.89    698.48756   -8275.9476    8.8557917 
  252000    2765.9993    22697.638    200861.02    731.87101   -8270.0257    8.8299225 
  253000    2675.8404    22731.548    197931.18    708.01539   -8265.3761    8.8167505 
  254000    2677.1993    22672.685    197939.17    708.37494   -8287.8416    8.8396404 
  255000    2708.1933    22528.104    211975.08    716.57581   -8278.7885    8.8963717 
  256000    2773.4156    22785.551    192649.46    733.83332   -8280.5386    8.7958543 
  257000    2616.9439    22677.214     196310.7    692.43163    -8294.102    8.8378752 
  258000    2677.1736    22674.137    201521.23    708.36813   -8272.1572    8.8390747 
  259000    2717.9901    22677.802    201571.26    719.16799   -8274.4028     8.837646 
  260000      2711.22    22584.544    209654.97    717.37666   -8269.8789    8.8741392 
  261000    2742.9435    22641.791     197279.1    725.77054   -8311.2522    8.8517021 
  262000    2642.5772    22614.755    206378.96    699.21409   -8267.9507    8.8622843 
  263000    2692.0454    22634.665    201462.07    712.30314   -8291.6023    8.8544886 
  264000    2708.8086    22756.096    200391.97     716.7386   -8247.4312    8.8072396 
  265000    2646.9593     22725.75    199087.71    700.37357   -8257.7532    8.8189999 
  266000    2595.6498    22711.067    199412.12     686.7973   -8261.7115    8.8247014 
  267000     2670.531    22689.694     196943.8    706.61052   -8290.9766    8.8330142 
  268000    2754.1369    22655.792    203966.03    728.73227   -8272.1084    8.8462319 
  269000    2684.9641     22657.75     201733.7    710.42946   -8277.1125    8.8454671 
  270000    2632.6963    22706.345    196709.36    696.59964   -8276.9602    8.8265368 
  271000    2704.8259    22688.837    201974.79    715.68482   -8264.7689    8.8333478 
  272000    2670.1252    22587.257    208972.75    706.50316   -8267.2131    8.8730732 
  273000    2650.5908    22745.719    188556.23    701.33445   -8306.1866    8.8112573 
  274000    2669.0881    22627.175    208254.49    706.22875   -8256.3677    8.8574199 
  275000    2759.7561    22664.864    206194.36     730.2191   -8255.1645    8.8426909 
  276000    2689.1599    22707.131    196745.07    711.53966   -8281.8029     8.826231 
  277000    2670.5023    22585.551    207167.14    706.60293   -8276.7613    8.8737436 
  278000    2702.0508    22567.723    204386.63    714.95053   -8304.6793    8.8807536 
  279000     2683.153    22711.986    196327.56    709.95027   -8282.5835    8.8243444 
  280000    2687.4795     22740.79    190492.86    711.09504   -8301.0406    8.8131673 
  281000    2751.8765    22629.673    205967.69    728.13418   -8265.0298    8.8564419 
  282000    2712.8968    22689.776    198033.64    717.82032   -8286.3046    8.8329823 
  283000    2679.6995     22663.62    198469.22    709.03648   -8290.3722    8.8431764 
  284000    2684.6643    22725.758    198990.79    710.35014   -8260.8788    8.8189966 
  285000    2696.9752    22683.492    200873.05    713.60755    -8266.707    8.8354291 
  286000    2642.0998    22674.934    197743.38    699.08777     -8287.33    8.8387637 
  287000    2749.1614    22646.692    203620.41    727.41578    -8274.359    8.8497863 
  288000    2677.6799    22635.687    203455.87    708.50209   -8277.5587    8.8540891 
  289000    2651.0048    22784.793    188596.66    701.44397   -8290.5186    8.7961469 
  290000    2637.1781    22642.894    204289.79    697.78549   -8264.2728    8.8512707 
  291000    2679.2654    22623.175       209468     708.9216   -8249.2264    8.8589858 
  292000    2641.2452     22599.95    203979.18    698.86163    -8287.382    8.8680897 
  293000    2723.5447    22850.955    186956.68    720.63773   -8272.4119    8.7706788 
  294000    2610.5934    22649.589    205588.22    690.75132   -8257.6459    8.8486545 
  295000    2704.1564    22696.658    202285.96    715.50767   -8264.8259     8.830304 
  296000    2701.7943    22691.522    198046.84    714.88265   -8282.0209    8.8323024 
  297000    2732.2016    22682.898     196301.1    722.92828   -8298.8239    8.8356606 
  298000    2809.0568    22741.146    198168.76    743.26382   -8271.4245    8.8130293 
  299000    2723.8783    22633.743    199708.23    720.72599   -8298.5705    8.8548493 
  300000    2700.8594    22711.388    199741.21    714.63528   -8264.0784    8.8245767 
Loop time of 314.109 on 4 procs for 50000 steps with 2048 atoms

Performance: 13.753 ns/day, 1.745 hours/ns, 159.181 timesteps/s
114.6% CPU use with 2 MPI tasks x 2 OpenMP threads

MPI task timing breakdown:
Section |  min time  |  avg time  |  max time  |%varavg| %total
---------------------------------------------------------------
Pair    | 228.39     | 228.63     | 228.87     |   1.6 | 72.79
Neigh   | 3.7721     | 3.8224     | 3.8728     |   2.6 |  1.22
Comm    | 19.247     | 20.836     | 22.425     |  34.8 |  6.63
Output  | 0.0039451  | 0.0045318  | 0.0051184  |   0.9 |  0.00
Modify  | 59.097     | 60.384     | 61.671     |  16.6 | 19.22
Other   |            | 0.4334     |            |       |  0.14

Nlocal:        1024.00 ave        1038 max        1010 min
Histogram: 1 0 0 0 0 0 0 0 0 1
Nghost:        4274.50 ave        4295 max        4254 min
Histogram: 1 0 0 0 0 0 0 0 0 1
Neighs:        84526.5 ave       88638 max       80415 min
Histogram: 1 0 0 0 0 0 0 0 0 1

Total # of neighbors = 169053
Ave neighs/atom = 82.545410
Neighbor list builds = 1040
Dangerous builds = 0

unfix temp
unfix out_file_1


write_data after_${sim}_press_$P_$T.in
write_data after_heating_press_$P_$T.in
write_data after_heating_press_200000_$T.in
write_data after_heating_press_200000_2700.in
System init for write_data ...
Last active /omp style is pair_style eam/alloy/omp
write_restart after_${sim}_press_$P_$T.lmp
write_restart after_heating_press_$P_$T.lmp
write_restart after_heating_press_200000_$T.lmp
write_restart after_heating_press_200000_2700.lmp
System init for write_restart ...
Last active /omp style is pair_style eam/alloy/omp
next loopVar
jump in.lmp ensemble

print """
Label pachadi solti, hos garam.
"""

Label pachadi solti, hos garam.

variable T equal 2500+${loopVar}*100
variable T equal 2500+3*100
# variable T equal 2500


reset_timestep 0
fix 1 all npt temp $T $T $(dt*100) iso $P $P $(dt*1000)
fix 1 all npt temp 2800 $T $(dt*100) iso $P $P $(dt*1000)
fix 1 all npt temp 2800 2800 $(dt*100) iso $P $P $(dt*1000)
fix 1 all npt temp 2800 2800 0.10000000000000000555 iso $P $P $(dt*1000)
fix 1 all npt temp 2800 2800 0.10000000000000000555 iso 200000 $P $(dt*1000)
fix 1 all npt temp 2800 2800 0.10000000000000000555 iso 200000 200000 $(dt*1000)
fix 1 all npt temp 2800 2800 0.10000000000000000555 iso 200000 200000 1
print """
<--------------------------------------------------------------------->
<------------------ Equilibrating at temperature $T ----------------->
<--------------------------------------------------------------------->
"""

<--------------------------------------------------------------------->
<------------------ Equilibrating at temperature 2800 ----------------->
<--------------------------------------------------------------------->

fix temp all print 1000 "$(step) $(temp) $(press) ${sys_press} $(vol) $(ke) $(pe) $(density)" file temp_${sim}.txt screen no title  "step temp press pressGiga vol ke pe density"
fix temp all print 1000 "$(step) $(temp) $(press) ${sys_press} $(vol) $(ke) $(pe) $(density)" file temp_heating.txt screen no title  "step temp press pressGiga vol ke pe density"
run 250000
Last active /omp style is pair_style eam/alloy/omp
Per MPI rank memory allocation (min/avg/max) = 4.442 | 4.442 | 4.442 Mbytes
Step Temp Volume Press KinEng PotEng Density 
       0    2700.8594    22711.388    199741.21    714.63528   -8264.0784    8.8245767 
    1000    2895.8769    22643.025    210673.84    766.23606   -8251.0695    8.8512195 
    2000    2772.3219    22876.175    188407.76    733.54393   -8262.5573    8.7610096 
    3000    2856.4054      22771.4    198332.51    755.79208   -8259.5116    8.8013203 
    4000    2838.8477    22693.858    206614.39    751.14638    -8251.802    8.8313934 
    5000    2786.6555    22902.102     189740.4    737.33656   -8243.2826    8.7510915 
    6000    2766.6374     22717.58    200420.01    732.03985   -8260.5677    8.8221716 
    7000    2814.9416    22660.884    208693.99    744.82093   -8252.8776    8.8442441 
    8000    2859.9361     22807.44     199784.8    756.72627   -8239.4994    8.7874126 
    9000    2820.5696    22758.308    201424.34    746.31007   -8242.4283    8.8063835 
   10000    2858.3895    22802.056    193193.14    756.31705   -8271.7336    8.7894876 
   11000    2810.6471    22768.745    198183.95    743.68463   -8258.4053    8.8023467 
   12000    2828.9038     22817.31    196047.62    748.51525   -8251.8238    8.7836115 
   13000    2749.5326     22699.55    205093.12    727.51399   -8249.9168    8.8291788 
   14000    2822.8336    22731.122       201883    746.90911   -8256.4464    8.8169158 
   15000    2772.4036     22886.21    194300.24    733.56555   -8226.8358    8.7571681 
   16000    2827.9952     22815.81    200926.31    748.27485   -8223.5841     8.784189 
   17000    2760.2629    22695.394    208103.32    730.35319   -8234.8988    8.8307955 
   18000    2729.5185    22762.628    195125.04    722.21835   -8271.8612    8.8047121 
   19000    2810.4415    22799.651    199122.25    743.63022   -8241.3858    8.7904146 
   20000    2795.0584    22664.097    206029.88    739.55992    -8259.006    8.8429902 
   21000    2833.3312    22843.924    195471.92    749.68673   -8241.4087    8.7733781 
   22000    2813.4141    22790.375     195628.6    744.41675   -8260.5138    8.7939925 
   23000    2827.8694    22756.316    202649.22    748.24156   -8241.7193    8.8071545 
   24000    2802.9351     22794.62    196493.88    741.64405   -8260.5842    8.7923547 
   25000    2784.3438     22725.12    202053.28     736.7249   -8252.7349    8.8192442 
   26000    2918.8572    22813.221    196091.51    772.31654   -8257.3302    8.7851858 
   27000    2808.0028    22752.281    203173.69    742.98494   -8234.6078    8.8087163 
   28000    2742.9142    22734.863    203768.46    725.76281    -8238.935    8.8154649 
   29000     2771.689    22841.191    194125.73    733.37648   -8243.6744     8.774428 
   30000    2902.3572    22745.379    204741.48     767.9507   -8245.7238    8.8113891 
   31000    2773.0024    22876.961    192525.96      733.724   -8242.4402    8.7607083 
   32000    2691.1198    22559.342    217680.05    712.05824   -8234.4156    8.8840528 
   33000    2874.1156    22741.975    201603.31    760.47809   -8255.5812    8.8127079 
   34000    2757.4339    22703.152    204169.79    729.60464   -8249.0226     8.827778 
   35000    2734.3454    22817.749    193918.12    723.49553   -8253.9662    8.7834425 
   36000    2731.0961    22783.699    198817.21    722.63578   -8242.3363    8.7965691 
   37000    2902.4013     22720.27    208766.85    767.96238   -8230.1173    8.8211271 
   38000    2780.3226     22702.24    209841.02     735.6609    -8224.283    8.8281325 
   39000    2848.0879    22885.928    193446.49     753.5913   -8236.9188     8.757276 
   40000    2794.3707    22765.305     199693.5    739.37797    -8249.499    8.8036767 
   41000    2833.0087    22752.068    203003.48    749.60139   -8242.9153    8.8087985 
   42000    2827.2056    22864.891    195500.25    748.06592   -8235.1212    8.7653331 
   43000    2802.5365    22846.413    194129.51    741.53858   -8246.5915    8.7724225 
   44000    2922.4849    22677.758    213255.15     773.2764   -8227.7706    8.8376631 
   45000    2809.7898     22792.98    197354.69    743.45779   -8251.0081    8.7929872 
   46000     2751.039    22879.044    188731.05     727.9126    -8255.736    8.7599109 
   47000    2823.6833    22790.137     202469.4    747.13393   -8226.0744    8.7940842 
   48000    2847.8719    22778.136    201104.66    753.53413   -8240.7586    8.7987177 
   49000    2841.2101    22853.452     195591.5    751.77144   -8242.1532    8.7697206 
   50000    2856.5469      22847.4    192287.31    755.82951      -8258.7    8.7720433 
   51000     2826.841    22816.037    200349.95    747.96945   -8232.6126    8.7841014 
   52000    2833.8044    22784.746    201976.81    749.81194   -8233.6176    8.7961649 
   53000    2778.2751    22656.372    205938.18    735.11914     -8263.42    8.8460051 
   54000    2849.5317    22844.595    191910.11    753.97332   -8263.0146    8.7731205 
   55000    2821.5876    22930.507    192806.93    746.57944   -8220.8855    8.7402512 
   56000    2852.0116    22566.028    218620.57    754.62947   -8241.4076    8.8814206 
   57000    2803.7511    22767.369    200271.07    741.85998   -8247.4563    8.8028786 
   58000    2818.1985     22782.75    199739.12    745.68268   -8243.5481    8.7969355 
   59000    2851.2715    22800.912    201723.89    754.43366   -8229.1854    8.7899284 
   60000    2780.5201    22816.754    201247.26    735.71316   -8219.2898    8.7838255 
   61000    2774.1249    22797.298    198881.47    734.02101   -8238.2763     8.791322 
   62000    2807.1121    22755.645    199008.32    742.74928   -8258.3936    8.8074138 
   63000    2805.8428    22831.166    200460.09    742.41341   -8220.6913    8.7782809 
   64000    2819.4603    22666.519    207367.56    746.01656   -8252.4872    8.8420453 
   65000    2725.7042    22844.798    196975.02    721.20911   -8226.9149    8.7730427 
   66000    2846.0616    22899.618    190297.48    753.05514   -8247.6649    8.7520407 
   67000    2799.7962    22654.296    210068.13    740.81352   -8242.3087    8.8468161 
   68000    2810.4884    22765.848    201079.71    743.64264   -8246.3931    8.8034669 
   69000    2792.8814    22881.616    195224.74    738.98389   -8227.7474    8.7589261 
   70000    2798.1558    22696.205     214237.8    740.37949   -8209.0145    8.8304801 
   71000    2792.5831    22836.367    196511.36    738.90496    -8239.628    8.7762814 
   72000     2750.784    22787.419    202054.43    727.84511   -8228.9838    8.7951331 
   73000     2848.763    22861.402    196754.02    753.76993   -8227.6714     8.766671 
   74000    2785.9777     22722.28    206116.88     737.1572   -8237.2914    8.8203465 
   75000    2857.3894    22760.427    205000.18    756.05242   -8230.2153    8.8055636 
   76000     2831.231     22728.44    203543.02    749.13104   -8245.4904    8.8179561 
   77000     2731.933     22920.17    191178.18    722.85723    -8227.033    8.7441928 
   78000    2868.2676    22784.083    201947.16    758.93074   -8239.7046    8.7964208 
   79000    2860.1038    22750.399    207389.38    756.77064   -8219.9641    8.8094451 
   80000    2709.1222    22879.564    190291.64     716.8216   -8247.6644    8.7597117 
   81000    2785.9087    22807.021    201225.88    737.13896   -8224.4289    8.7875741 
   82000    2782.3577     22682.19    206021.16    736.19937   -8249.8182    8.8359364 
   83000    2842.6042    22855.906     193802.9    752.14032   -8245.3658    8.7687789 
   84000    2845.7114    22789.272    194624.14    752.96247   -8267.3843    8.7944181 
   85000    2875.3333    22690.396    206649.23     760.8003   -8254.3975    8.8327408 
   86000    2811.6626    22764.279    205939.67    743.95333   -8222.1959    8.8040736 
   87000    2816.1203    22835.051    197466.41    745.13281    -8232.369    8.7767872 
   88000    2794.7885    22740.281    205763.46    739.48852   -8230.1506    8.8133645 
   89000    2729.8465    22911.154    190921.47    722.30514   -8230.7966    8.7476339 
   90000    2715.9398     22829.71    198590.19     718.6255    -8220.945    8.7788408 
   91000    2724.5034    22710.469    210449.25    720.89139   -8215.4847    8.8249337 
   92000    2816.1354    22872.696    197268.13     745.1368   -8217.1929    8.7623421 
   93000    2690.9933     22805.64    201456.89    712.02477   -8222.1055    8.7881062 
   94000    2700.5482    22784.008    200564.12    714.55295   -8234.7529    8.7964498 
   95000    2759.0424    22645.444    212715.06    730.03026   -8232.0529    8.8502741 
   96000    2856.2911    22795.798    202826.58    755.76183   -8225.1438    8.7919004 
   97000    2769.6934    22801.454    204087.15    732.84846   -8208.9082    8.7897195 
   98000    2837.9338    22740.774    198304.94    750.90455   -8266.8336    8.8131737 
   99000    2750.5956    22791.753    196693.05    727.79528   -8252.1374    8.7934608 
  100000    2736.1744    22795.029    194644.85    723.97949   -8256.8044     8.792197 
  101000    2859.3302    22705.177    208695.35    756.56595   -8233.7324    8.8269909 
  102000    2874.4889    22816.556    198509.76    760.57689   -8241.5697    8.7839018 
  103000    2876.6688    22811.824    195947.76    761.15368   -8254.0462     8.785724 
  104000    2817.5617    22754.822    200911.53    745.51418   -8250.2057    8.8077325 
  105000    2755.9694    22869.932    194208.63    729.21715    -8235.282    8.7634009 
  106000    2823.6248    22697.377       210083    747.11847   -8230.8864    8.8300242 
  107000    2809.3931    22741.988    201991.02    743.35282   -8249.3335    8.8127029 
  108000    2744.0752    22764.442     197178.5    726.06999   -8260.4982    8.8040106 
  109000    2743.0955     22711.14    209776.38    725.81077   -8216.2967    8.8246731 
  110000    2790.5286    22802.076    199846.82    738.36135   -8235.7101    8.7894796 
  111000    2721.3094    22793.268    194545.99    720.04626   -8257.3411    8.7928764 
  112000    2844.1888    22833.496     199798.2     752.5596   -8226.3372    8.7773849 
  113000    2757.3504    22731.444    207051.97    729.58257      -8219.9    8.8167908 
  114000    2745.9353    22765.274    201056.75    726.56218   -8237.0121    8.8036888 
  115000    2815.8972    22757.639    196469.33    745.07378    -8269.378    8.8066423 
  116000    2825.3137    22559.309    216765.65    747.56533   -8251.5612    8.8840659 
  117000    2843.9244    22842.524    192598.97    752.48965   -8260.2747    8.7739158 
  118000    2786.6544    22913.329    191725.53    737.33626   -8228.3076    8.7468037 
  119000    2823.7093    22837.195    199348.72    747.14083   -8222.3304    8.7759635 
  120000    2769.3136    22841.275    192159.41    732.74796    -8255.065    8.7743956 
  121000    2782.6639    22782.895    196709.41     736.2804   -8258.9367    8.7968797 
  122000    2864.6333    22740.128    204672.38    757.96914   -8237.3518    8.8134239 
  123000    2733.1051    22777.434    200770.35    723.16736   -8241.0672    8.7989886 
  124000    2751.1497     22864.43    191285.82    727.94187   -8248.7903    8.7655099 
  125000    2799.0007    22771.907    207317.39    740.60303    -8211.668    8.8011242 
  126000    2869.5513    22798.419    197899.58     759.2704   -8253.9696    8.7908897 
  127000    2738.5961    22820.543     195070.5    724.62024   -8251.9054    8.7823671 
  128000    2850.8828    22815.992    199295.51    754.33082   -8233.4871    8.7841189 
  129000     2764.677    22694.291    205296.06    731.52114   -8249.5561    8.8312247 
  130000    2817.1991    22758.583    193709.23    745.41826   -8284.8235    8.8062771 
  131000    2837.6076    22706.029    204473.57    750.81824    -8253.197    8.8266596 
  132000    2790.3951    22875.864    188429.38    738.32602   -8261.3219    8.7611287 
  133000    2845.1529    22718.444    204233.75    752.81469   -8249.4487    8.8218361 
  134000    2899.0908    22732.729     203845.2    767.08644   -8248.4886    8.8162926 
  135000    2730.2813     22801.48    193178.26     722.4202   -8266.4305    8.7897094 
  136000    2782.1708    22933.525    188060.09    736.14991   -8242.6327     8.739101 
  137000    2784.2132    22776.491    201764.14    736.69033   -8234.4672     8.799353 
  138000    2846.1697    22634.943    207079.11    753.08374   -8267.5181    8.8543798 
[...]
  120000    3126.9995    23772.426    206564.37    827.39006   -7865.6646    8.4307081 
  121000    3050.9447    23777.433    202250.77    807.26629   -7871.8448     8.428933 
  122000    3014.5156    23787.501    199526.73    797.62731   -7885.1967    8.4253653 
  123000    3146.8665    23859.871    197307.21    832.64677   -7875.2882    8.3998102 
  124000    3141.1595    23819.853    202779.25    831.13671   -7862.1821     8.413922 
  125000    3085.9273    23915.762     190654.8    816.52254   -7882.8923    8.3801797 
  126000    3106.0486    23804.028    202316.72    821.84653   -7864.1537    8.4195157 
  127000    3127.3078    23727.172    211841.71    827.47164   -7852.6011    8.4467879 
  128000    3037.7791    23888.659    194225.57    803.78273   -7881.0228    8.3896875 
  129000    3112.1043    23925.732    190795.91    823.44886   -7884.4147    8.3766879 
  130000    3159.8991    23842.435    195789.77    836.09514   -7888.9761     8.405953 
  131000    3116.7117    23950.941    191114.07    824.66795   -7872.8136    8.3678709 
  132000    3083.9759     23779.33    200233.47     816.0062   -7884.7242    8.4282603 
  133000    3029.7717    23846.854    199206.49    801.66401   -7864.2105    8.4043952 
  134000    3118.1611    23747.842    206431.64    825.05144   -7864.9577    8.4394358 
  135000    3143.5542    23876.181     196719.6    831.77034   -7870.6404    8.3940721 
  136000    3099.6128    23801.799    198821.43    820.14366   -7882.8447    8.4203041 
  137000    3034.3719    23799.157    197792.26     802.8812   -7891.0422     8.421239 
  138000     3036.461    23864.536    200235.95    803.43396   -7855.3396    8.3981683 
  139000    3173.7254    23818.776    205415.42     839.7535   -7845.0025    8.4143026 
  140000    3111.3034    23759.866    203402.48    823.23694   -7868.5368    8.4351648 
  141000    3003.8814    23922.707    195303.75    794.81354   -7849.2505    8.3777472 
  142000    3080.7674    23868.033    196954.83    815.15725   -7873.7488    8.3969377 
  143000    3053.5029    23642.897    212185.35    807.94317   -7876.7898    8.4768963 
  144000    3136.0254    23757.942     207147.2    829.77827   -7862.4362    8.4358481 
  145000    3006.7946    23780.332    202727.62    795.58436   -7867.5125    8.4279055 
  146000    3088.0783    23796.061    196408.92    817.09168   -7897.3296    8.4223346 
  147000    3142.5248    23793.298    199546.55    831.49796   -7888.1196    8.4233125 
  148000    3181.9908    23779.445    201193.03     841.9405   -7881.3259    8.4282195 
  149000    3084.3562    23777.478    200693.84    816.10684   -7883.6025     8.428917 
  150000    3072.0546    23740.871     204444.9    812.85188   -7876.9743    8.4419138 
  151000    2963.9024    23847.552    200130.54    784.23528   -7855.1197    8.4041494 
  152000    3116.7085    24027.953    186608.62    824.66709    -7872.951    8.3410514 
  153000    3101.2926    23917.772    198430.69    820.58811   -7845.1746    8.3794754 
  154000    3115.4162    23703.658    204344.23    824.32515   -7895.0068     8.455167 
  155000    3103.5022    23793.713    205317.96    821.17277   -7851.4764    8.4231657 
  156000    3041.8424    23718.656    206413.35    804.85786   -7877.2374    8.4498207 
  157000    3057.2497    23911.763    192630.43    808.93456   -7875.8882    8.3815814 
  158000    3109.4244    23883.542    191971.77    822.73976   -7891.0796     8.391485 
  159000    3163.9036    23883.632    199814.16     837.1547   -7847.8481    8.3914535 
  160000     3231.976    23837.551    195002.08    855.16637   -7903.7025    8.4076753 
  161000    3033.5139    23774.462    201221.95    802.65417   -7879.7599    8.4299862 
  162000    3062.5581    23990.278    186592.31    810.33915   -7877.8149    8.3541503 
  163000    3056.2958    23772.444    196794.86    808.68216   -7896.2137    8.4307019 
  164000    3147.7442    23828.346    201495.38      832.879    -7865.205     8.410923 
  165000    3003.9176    23829.984     196652.9    794.82313   -7881.1147    8.4103451 
  166000    3072.3778    23802.377     200502.4    812.93738   -7875.1039    8.4200997 
  167000    3171.5977    23748.105    205955.69    839.19052   -7878.3304    8.4393424 
  168000    3093.8591    23772.657    203962.78    818.62124   -7869.8002    8.4306263 
  169000    3006.1104    23899.855    188682.33    795.40335   -7897.3355    8.3857574 
  170000    3129.5808    23958.838     191011.2    828.07304   -7870.5332     8.365113 
  171000    3107.7014    23743.259    205831.57    822.28385   -7868.1414    8.4410648 
  172000    3141.6937    23826.183     200235.3    831.27806   -7869.8098    8.4116867 
  173000    3128.0236    23759.822    203876.16    827.66101   -7875.4133    8.4351806 
  174000    3078.7045    23802.879    198317.96    814.61141   -7889.5036    8.4199222 
  175000    3129.0336    23703.104    205275.52    827.92826   -7886.8326    8.4553645 
  176000    3069.6168     23746.56    204740.83    812.20685   -7869.1635    8.4398914 
  177000     3132.926    23877.581    199160.14    828.95818   -7863.7269    8.3935801 
  178000    3067.4027    23712.333    206485.24    811.62099   -7873.1841    8.4520738 
  179000    3034.7481    23737.208    204040.91    802.98073   -7878.9859    8.4432165 
  180000    3032.7487    23931.429    195629.99    802.45172   -7848.1633    8.3746936 
  181000    3079.2021    23747.254     211675.1    814.74308   -7837.2056    8.4396449 
  182000     3118.915    23820.792    201430.16    825.25094   -7864.5528    8.4135905 
  183000    3114.2935    23825.434    199328.39     824.0281   -7878.5443     8.411951 
  184000    3042.7571    23934.356       190716    805.09988   -7878.2499    8.3736695 
  185000    3064.3448    23863.303    196653.59     810.8119   -7869.8528    8.3986022 
  186000     3062.416    23818.673    198050.74    810.30156   -7882.4812    8.4143389 
  187000    3119.3929    23793.897    201092.78    825.37737   -7877.0421    8.4231006 
  188000    3041.3077    23609.058    208847.07    804.71639   -7904.8865    8.4890464 
  189000    3099.2144    23794.361    202550.35    820.03824   -7874.4054    8.4229362 
  190000    3063.1098    23906.056    185461.47    810.48512   -7906.3473    8.3835821 
  191000    3097.3561     23906.58    191513.68    819.54654   -7884.1546    8.3833984 
  192000     3081.045    23901.364    198165.97     815.2307   -7856.4292     8.385228 
  193000    3114.2103    23868.357    199433.57    824.00608   -7866.6713    8.3968236 
  194000    3078.6765     23823.09    198849.79    814.60399   -7879.8618    8.4127787 
  195000    3060.0562    23719.422    205512.74    809.67716    -7882.233    8.4495476 
  196000    3168.9346    23780.472    199575.93    838.48589   -7889.5078    8.4278556 
  197000    3179.9975    23953.982    192140.98    841.41307   -7871.2562    8.3668087 
  198000    2996.7261    23801.427    197053.03     792.9203    -7885.459    8.4204358 
  199000    2997.6288    23813.233    201488.73    793.15914   -7865.3241    8.4162612 
  200000    3028.7014    23771.034    202979.24     801.3808    -7868.065    8.4312018 
  201000    3121.9347    23809.593    199665.88    826.04992   -7877.6516    8.4175477 
  202000    3121.5296    23865.107    201869.98    825.94272    -7850.703    8.3979672 
  203000    3075.2732    23773.075    201131.21    813.70349   -7875.7128    8.4304779 
  204000    3169.2022    23746.931    202470.29     838.5567   -7891.8542    8.4397595 
  205000    3018.0355    23959.634    186913.66    798.55867   -7887.5673    8.3648351 
  206000    3036.4336    23891.864    196277.84    803.42673   -7861.1776    8.3885622 
  207000    3121.8403    23864.289    198589.41    826.02494   -7869.0372    8.3982552 
  208000    3224.2191    23767.995    196811.19    853.11393   -7911.9692      8.43228 
  209000    2998.1224    23868.249    195440.49    793.28974   -7863.8949    8.3968618 
  210000    3108.2554    23800.987    197094.23    822.43045   -7893.8489    8.4205913 
  211000    3147.0286     23773.67    207190.83    832.68966   -7852.3364     8.430267 
  212000    3179.9724    23819.517    201882.43    841.40644   -7866.4353    8.4140407 
  213000    3020.8831    23804.847    205438.59    799.31213   -7852.2587    8.4192261 
  214000    3032.7129    23819.817    197266.38    802.44225   -7881.3573    8.4139347 
  215000    3036.2518    23955.246     191330.2    803.37861   -7860.1224    8.3663674 
  216000    3044.2982    23754.602    207266.57    805.50765   -7857.5126    8.4370341 
  217000    3139.2982    23767.695    208467.55    830.64423   -7852.5426    8.4323862 
  218000     3083.689    23935.594    183178.07    815.93029   -7914.9121    8.3732362 
  219000    3073.2526     23809.54    202307.92    813.16887   -7870.4471    8.4175665 
  220000    3062.4011    23771.436     201902.8    810.29759   -7877.8974    8.4310592 
  221000    3180.3188    23879.366    196044.07     841.4981   -7876.3537    8.3929526 
  222000    3106.4822    23717.401     202697.1    821.96125   -7894.5686    8.4502677 
  223000    3120.6926    23724.172     209145.7    825.72127   -7860.6146    8.4478561 
  224000    3145.0105    23843.748    203054.37    832.15567    -7853.457    8.4054902 
  225000     2965.186    23884.538    195549.16    784.57492   -7868.1283    8.3911352 
  226000     3146.595    23892.168    193390.69    832.57492   -7878.1815    8.3884555 
  227000    2967.9273    23803.344     197256.7    785.30025   -7888.4525    8.4197576 
  228000    3146.8668    23788.252    202134.01    832.64684   -7876.1708    8.4250995 
  229000    3124.6748    23644.834     217044.4    826.77495   -7855.9138     8.476202 
  230000    3102.6763    23851.619    200692.84    820.95423   -7857.5008    8.4027161 
  231000     3032.322    23896.437    196160.07     802.3388   -7864.3446    8.3869568 
  232000    3078.1344     23880.16    192345.77    814.46055   -7888.3007    8.3926736 
  233000    3115.7752    23820.973    194306.02    824.42016   -7904.8733    8.4135263 
  234000    3226.7202    23948.817    191274.79     853.7757   -7881.8474    8.3686133 
  235000    3103.4914    23785.893    202952.42     821.1699   -7872.7121    8.4259349 
  236000    3167.7442    23700.666    208280.08    838.17092   -7878.7782    8.4562345 
  237000    3130.7171    23755.387    207707.61    828.37372   -7858.4418    8.4367552 
  238000    3163.0975    23805.931    200587.58    836.94142   -7877.0015    8.4188426 
  239000     3099.974    23975.006    184884.71    820.23923   -7893.9621    8.3594719 
  240000    3060.1569    23815.696    200261.93     809.7038   -7866.9714    8.4153908 
  241000    3160.4519     23674.77    210111.23    836.24139    -7877.961    8.4654839 
  242000    3108.8742    23812.754    201555.56    822.59419   -7871.9503    8.4164305 
  243000     3133.238    23855.082    197864.15    829.04072   -7875.1572    8.4014963 
  244000    3026.6141     23872.82    193964.75    800.82852   -7877.3618    8.3952538 
  245000    3107.2668    23799.852    199670.18    822.16888   -7882.2473    8.4209929 
  246000    3134.6063    23799.774    201795.22    829.40279   -7869.3598    8.4210205 
  247000    3020.5312    23796.782    203565.61    799.21902   -7852.6075    8.4220795 
  248000    3139.3087    23798.737    205562.85    830.64701    -7860.787    8.4213877 
  249000     3068.996    23762.775    203321.83    812.04259   -7868.8415    8.4341323 
  250000    3124.5867    23763.079    202739.72    826.75163   -7883.0391    8.4340244 
Loop time of 1525.73 on 4 procs for 250000 steps with 2048 atoms

Performance: 14.157 ns/day, 1.695 hours/ns, 163.856 timesteps/s
113.6% CPU use with 2 MPI tasks x 2 OpenMP threads

MPI task timing breakdown:
Section |  min time  |  avg time  |  max time  |%varavg| %total
---------------------------------------------------------------
Pair    | 1100.3     | 1100.9     | 1101.5     |   1.7 | 72.16
Neigh   | 20.283     | 20.345     | 20.408     |   1.4 |  1.33
Comm    | 91.657     | 98.167     | 104.68     |  65.7 |  6.43
Output  | 0.02053    | 0.024201   | 0.027872   |   2.4 |  0.00
Modify  | 298.22     | 304.06     | 309.91     |  33.5 | 19.93
Other   |            | 2.214      |            |       |  0.15

Nlocal:        1024.00 ave        1024 max        1024 min
Histogram: 2 0 0 0 0 0 0 0 0 0
Nghost:        3925.50 ave        3944 max        3907 min
Histogram: 1 0 0 0 0 0 0 0 0 1
Neighs:        80665.0 ave       82938 max       78392 min
Histogram: 1 0 0 0 0 0 0 0 0 1

Total # of neighbors = 161330
Ave neighs/atom = 78.774414
Neighbor list builds = 5743
Dangerous builds = 0


# fix 132 all momentum 100 linear 1 1 1 angular
fix out_file_1 all print 1000 "$(step) $(temp) $(press) ${sys_press} $(vol) $(ke) $(pe) $(density)" file one_phase_${sim}_press_$P_$T_.txt screen no title  "step temp press pressGiga vol ke pe density"
fix out_file_1 all print 1000 "$(step) $(temp) $(press) ${sys_press} $(vol) $(ke) $(pe) $(density)" file one_phase_heating_press_$P_$T_.txt screen no title  "step temp press pressGiga vol ke pe density"
fix out_file_1 all print 1000 "$(step) $(temp) $(press) ${sys_press} $(vol) $(ke) $(pe) $(density)" file one_phase_heating_press_200000_$T_.txt screen no title  "step temp press pressGiga vol ke pe density"
fix out_file_1 all print 1000 "$(step) $(temp) $(press) ${sys_press} $(vol) $(ke) $(pe) $(density)" file one_phase_heating_press_200000_3100_.txt screen no title  "step temp press pressGiga vol ke pe density"

# dump 3 all custom 1000 traj_npt_new.lammpstrj id type x y z
run 50000
Last active /omp style is pair_style eam/alloy/omp
Per MPI rank memory allocation (min/avg/max) = 4.442 | 4.442 | 4.442 Mbytes
Step Temp Volume Press KinEng PotEng Density 
  250000    3124.5867    23763.079    202739.72    826.75163   -7883.0391    8.4340244 
  251000    3133.2933    23909.742    197753.38    829.05535   -7850.4779    8.3822896 
  252000     3079.085    23779.474     201173.7    814.71208   -7882.5033    8.4282094 
  253000    3052.4783    23692.064    208851.72    807.67209   -7870.8972    8.4593045 
  254000     3094.667    23871.673    199495.75      818.835   -7861.5126    8.3956572 
  255000    3055.8147    23734.508    202500.13    808.55486   -7885.2328    8.4441768 
  256000    3137.3061    23834.153    204037.68    830.11712   -7846.0264    8.4088739 
  257000    3088.4342     23699.36    212812.08    817.18585   -7846.4346    8.4567003 
  258000    3095.8707    23811.725    200153.99    819.15351    -7871.088     8.416794 
  259000     3113.301     23945.02    188472.81    823.76547   -7887.3441    8.3699403 
  260000    3112.8376    23761.637    201975.38    823.64288   -7884.8683    8.4345361 
  261000    3135.4843    23881.367    197316.73     829.6351     -7864.07    8.3922493 
  262000    3108.5132    23860.357    196974.05    822.49865   -7877.9059    8.3996391 
  263000    3029.5652    23718.435     202301.6    801.60937   -7889.4634    8.4498992 
  264000    3090.3127     23815.08    198318.67    817.68288   -7875.2918    8.4156084 
  265000    3043.9872    23892.441    196571.21    805.42536   -7857.3844    8.3883594 
  266000    3174.0598      23822.7    200749.45      839.842   -7871.0821    8.4129166 
  267000    3049.8511    23829.027    196470.42    806.97693   -7878.2901    8.4106828 
  268000    3092.1341    23729.686    208918.42    818.16483   -7861.4272    8.4458928 
  269000    3158.4952    23799.472    201434.29    835.72366   -7873.6033    8.4211273 
  270000    3075.3412    23791.839    198801.71     813.7215   -7890.1838    8.4238291 
  271000    2961.0786    23775.108    202366.87    783.48812   -7869.1451    8.4297571 
  272000    3052.1213    23724.832    207130.93    807.57762    -7868.618     8.447621 
  273000    3073.3457    23777.651    205356.96     813.1935   -7857.9548    8.4288555 
  274000    3100.1683    23767.918    201073.36    820.29064   -7881.8606    8.4323071 
  275000    3203.1507    24014.823    187167.42    847.53932   -7874.2775    8.3456115 
  276000    3086.9767    23770.449    204234.92     816.8002    -7865.999    8.4314094 
  277000    3136.3042    23692.131    208320.86    829.85202   -7872.2469    8.4592808 
  278000    3006.3859    23790.126    204012.54    795.47622   -7853.0724    8.4244358 
  279000    3062.1673    23963.706    184906.01    810.23575   -7895.6427    8.3634137 
  280000    3044.5901    23827.858    200388.68    805.58488   -7857.6595    8.4110952 
  281000    3112.7064    23634.957    212295.61    823.60816   -7876.0095    8.4797442 
  282000    3056.8191    23721.411    207264.15    808.82063   -7869.5138    8.4488393 
  283000    3070.1717    23870.952    199668.26    812.35368    -7846.309     8.395911 
  284000    3031.6476    23795.287    201494.41    802.16038    -7869.566    8.4226084 
  285000     3071.821    23800.544    195900.43    812.79007   -7896.4447     8.420748 
  286000    3158.7478    23798.872     206362.5    835.79051   -7852.0329    8.4213396 
  287000    3061.6806    23659.429    208505.75    810.10696   -7884.2745    8.4709732 
  288000    3169.4595    23773.599    203313.88    838.62476   -7879.0561    8.4302922 
  289000    3088.8118    23773.596    203786.23    817.28575   -7869.9404    8.4302933 
  290000    3033.9198    23947.654     184741.6    802.76159   -7897.8759    8.3690195 
  291000    3115.3556    23786.115    201511.41    824.30913   -7883.0882    8.4258564 
  292000    3141.8336    23868.778    204592.68    831.31507   -7839.2004    8.3966755 
  293000    3153.1119    23898.944    200753.11    834.29928   -7848.0275     8.386077 
  294000    3032.0121    23832.068    195568.89    802.25681   -7887.4102    8.4096097 
  295000    3072.4966    23730.197    206920.28    812.96884   -7861.3877    8.4457112 
  296000    3125.4781    23853.672    200460.35     826.9875   -7858.7121     8.401993 
  297000    3197.5541    23913.678    191857.21    846.05849   -7888.7022    8.3809101 
  298000    3024.5642    23818.248    205041.82    800.28613   -7848.0058     8.414489 
  299000    3055.6543    23972.991     186951.6    808.51243   -7885.4532    8.3601745 
  300000    3075.6611    23844.241    194616.84    813.80613   -7885.8535    8.4053162 
Loop time of 302.905 on 4 procs for 50000 steps with 2048 atoms

Performance: 14.262 ns/day, 1.683 hours/ns, 165.068 timesteps/s
113.9% CPU use with 2 MPI tasks x 2 OpenMP threads

MPI task timing breakdown:
Section |  min time  |  avg time  |  max time  |%varavg| %total
---------------------------------------------------------------
Pair    | 218.91     | 219.14     | 219.37     |   1.6 | 72.35
Neigh   | 3.9872     | 3.9914     | 3.9955     |   0.2 |  1.32
Comm    | 18.107     | 19.355     | 20.602     |  28.4 |  6.39
Output  | 0.0045364  | 0.0048777  | 0.0052191  |   0.5 |  0.00
Modify  | 58.985     | 59.993     | 61.001     |  13.0 | 19.81
Other   |            | 0.4187     |            |       |  0.14

Nlocal:        1024.00 ave        1026 max        1022 min
Histogram: 1 0 0 0 0 0 0 0 0 1
Nghost:        3897.50 ave        3908 max        3887 min
Histogram: 1 0 0 0 0 0 0 0 0 1
Neighs:        80388.0 ave       81950 max       78826 min
Histogram: 1 0 0 0 0 0 0 0 0 1

Total # of neighbors = 160776
Ave neighs/atom = 78.503906
Neighbor list builds = 1141
Dangerous builds = 0

unfix temp
unfix out_file_1


write_data after_${sim}_press_$P_$T.in
write_data after_heating_press_$P_$T.in
write_data after_heating_press_200000_$T.in
write_data after_heating_press_200000_3100.in
System init for write_data ...
Last active /omp style is pair_style eam/alloy/omp
write_restart after_${sim}_press_$P_$T.lmp
write_restart after_heating_press_$P_$T.lmp
write_restart after_heating_press_200000_$T.lmp
write_restart after_heating_press_200000_3100.lmp
System init for write_restart ...
Last active /omp style is pair_style eam/alloy/omp
next loopVar
jump in.lmp ensemble
























Total wall time: 3:13:28
