LAMMPS data file via write_data, version 29 Oct 2020, timestep = 300000

2016 atoms
1 atom types

-0.44915705817390794 21.71315705817191 xlo xhi
-0.44915705817390794 21.71315705817191 ylo yhi
-1.048033135737949 50.66403313573447 zlo zhi

Masses

1 58.933

Atoms # atomic

1331 1 7.657312694321597 14.652814930127185 -0.9011239614929669 0 -1 1
719 1 3.8054627881028535 0.9719699356675768 0.018539784354059563 1 1 0
283 1 4.793521415458365 3.736016225421425 1.6804755903390314 1 1 0
550 1 -0.40445128485147713 0.9877891768238263 2.9216461259949043 2 0 0
1463 1 1.3757498887342114 1.1636847844094222 0.43061281608235213 5 0 0
379 1 1.6610223126330745 3.1926479807452117 1.5082249295543666 1 0 0
183 1 3.248343102408061 1.2633200523602544 2.354454554883927 1 0 0
1423 1 5.475183167914471 1.0362817884047097 1.6953060823598656 1 4 1
446 1 7.284161116667287 2.9390198515918273 1.651598433425149 0 0 0
1302 1 6.361321342716227 -0.41460281446672553 3.608811863254444 0 2 1
1418 1 7.419897435068128 1.3692377268165192 -0.05073368317177007 1 1 1
1113 1 6.625437496310964 7.141434702084912 -0.4715207412500887 -4 3 1
1188 1 7.743738055634923 4.3341828430136236 -0.5848587545130985 1 1 1
1103 1 3.8777886121498417 21.12458439412329 1.5524744941896897 2 1 1
154 1 7.856843859599628 21.53615373859573 1.4961014869424014 1 -1 0
1286 1 10.766957602898117 21.47607545776266 1.6261410672431613 1 1 1
1439 1 9.52341828779373 1.3445923352212459 0.6394274378699198 2 2 1
464 1 11.21763166501099 3.1616984282206375 2.4207648037169305 1 0 0
1845 1 11.83567163190778 3.9142229915404902 -0.11314793896491959 -4 0 1
584 1 20.836506790693775 3.8377004456336037 -0.9504131513156538 0 -1 0
1254 1 13.955686859037225 -0.0021323701312515597 -0.46159811832935504 -2 0 1
572 1 13.851181311552141 5.077880837770552 1.2501153932150055 0 1 0
394 1 15.210199744857341 21.27661503352207 2.0531775243802386 0 -1 0
1948 1 13.797865383447926 2.4192490598161784 -0.33565422250941335 -2 2 0
299 1 17.25520782395312 0.1723256427201283 2.3271809325892256 0 0 0
127 1 18.2984515479109 2.6038404677911045 -0.4863991146813793 0 1 0
1124 1 16.07265597637675 1.415170007729004 0.2611167883284029 -3 1 1
227 1 18.461754880077734 0.30807616125224 0.07883614684990192 0 0 0
451 1 16.7782911677499 9.97964149600448 11.384158983839185 0 0 0
398 1 -0.39697399969280234 3.018974251220963 1.8507967021521274 2 0 0
634 1 19.611245535249203 1.4756250410956224 1.9347280367647222 -1 -1 0
277 1 17.79680630096226 2.8643223567150597 2.468048666918128 1 0 0
43 1 21.119227180586314 1.5776965227705886 0.006757927068350655 1 0 0
529 1 9.191891275311981 17.530570520007565 -0.0807501872451114 -1 -1 0
189 1 3.0154446086691484 3.333482890700367 -0.14857324493760193 1 0 0
136 1 2.926482767826199 7.819748808111768 2.0302214239586704 0 1 0
1649 1 1.3085347552991573 6.021211695078637 2.287836840357872 0 1 1
951 1 3.281592283343238 5.795791330433384 0.5973675670591057 -1 0 1
1012 1 3.334360439770096 5.572458443929263 3.064498010407842 -3 3 1
433 1 0.9972045020034077 7.188372316763131 0.006953507824910332 0 0 0
683 1 19.965125110595274 19.33858082059166 11.39206677508522 0 -1 0
204 1 6.0456810766933 4.364245698885226 3.5500085276657156 0 0 0
1451 1 5.714656880074574 5.659033959134701 0.49251902050531937 2 2 1
1222 1 7.987098192589324 6.317377786125933 3.92032882666782 0 1 1
524 1 7.471615363595509 7.890843408506749 1.3140721532801671 0 0 0
1601 1 7.697569607493222 5.2731417000081064 1.9227862185226403 -2 1 1
197 1 15.993266798318684 15.210699174830003 -0.6411481935621901 -1 -1 0
1099 1 0.4261197299562006 18.39678678369323 10.974704411217324 0 0 1
429 1 9.454632674092002 3.6199779615964047 0.981738737471721 1 0 0
1932 1 10.813651618017705 5.416906570934439 1.028976317076439 -1 2 0
359 1 10.051746168486432 5.48955404773708 3.2006075974077497 1 0 0
921 1 15.822391750291283 11.994948150223461 11.371693876725235 0 0 0
223 1 10.591137709763672 7.666590931506507 0.26013893660712717 0 -1 0
347 1 11.932799032226807 9.777738871818817 0.26209799026028757 0 0 0
752 1 15.933119091757197 3.3112085793224018 1.0964308684531265 -1 0 0
1925 1 17.698932830731472 5.08463212529842 -0.2943205388972492 0 5 1
1921 1 12.37271518972303 6.007681171417427 -0.8770548235722659 2 -5 1
528 1 0.24685483226062266 4.67372350420804 0.37546711311037906 1 -1 0
642 1 12.632163486975985 7.44302064231973 1.2744152917634923 0 0 0
714 1 17.439397881270963 5.055465874943598 2.1575912618548094 0 1 0
1211 1 16.275527904150145 7.367506166931079 1.7160029122178413 -1 3 1
117 1 5.242514074461871 2.9642075468207953 -0.3218229291015693 1 0 0
630 1 20.981798132219673 6.712239700836241 0.8409468187691005 -1 0 0
1890 1 19.804452065302677 4.36115831914381 1.0249104393601636 -1 0 1
616 1 18.428902757131766 7.145105099084437 0.9617900982830254 0 0 0
73 1 20.918861847446472 5.488674734553914 2.8659477349647164 0 1 0
1399 1 19.108355927762844 6.8755781669452505 3.171056420093997 -3 -2 1
693 1 12.617023308629358 18.435520730979547 11.612379228918558 1 0 0
115 1 4.604771257294707 16.488135008389975 0.15552798980731208 1 0 0
1466 1 0.5704142412963182 8.841627846281046 1.9959402454466675 -3 2 1
19 1 0.7972525847973979 11.268900549014532 1.2005293880469048 1 0 0
424 1 21.625513527115896 9.270178000221941 -0.13195284537515606 0 0 0
1335 1 4.359587067829257 10.13407293041536 1.3209045786516693 -3 2 1
1202 1 2.191555809451177 9.563899186036323 0.08685297949082216 0 1 1
483 1 3.577465378650394 12.123795238263398 1.9988572871484949 0 0 0
185 1 14.33040909748098 17.815283381111037 9.480687075848952 0 0 0
1575 1 6.825433592861051 11.45757562153263 4.415476332951338 -1 3 1
1260 1 5.1690704933061395 7.582817807293749 2.1420453600518297 -1 1 1
7 1 4.993516480947098 11.828219770369795 -0.493745348547887 0 -1 0
633 1 7.91564361153789 11.14980210988849 2.319309374704965 -1 0 0
34 1 5.789956314919095 12.158950556466174 1.747309064846824 0 0 0
50 1 6.528807942677756 10.166770928835412 0.5870781189613947 0 1 0
354 1 6.092570415527126 9.560210408331077 2.960351890186873 2 0 0
1521 1 10.196964664844218 11.204317358202143 3.1582536302239985 -1 -2 1
349 1 5.608547580836225 13.764088784524503 3.63768775884514 0 -1 0
1491 1 9.518780545598888 9.68593423127621 1.3518961264209324 -3 3 1
636 1 11.486736436600056 11.69766135033563 1.2666972166867922 0 1 0
64 1 9.383503791092346 11.64333265937571 0.27148944682300646 0 0 0
743 1 3.939316592041683 7.763925927376453 -0.5126694029860537 0 0 0
611 1 12.225406293560123 12.126169664579047 -0.6818196750449739 0 0 0
1351 1 12.631435062190924 10.781320114820623 3.1919049869588996 -3 2 1
1033 1 21.27134162384239 19.056443662723517 -0.7857055042698748 2 0 1
89 1 15.076609926900126 8.627973225471628 -0.13233367760296122 0 0 0
111 1 13.780848397585315 10.416986055884406 1.0308219958408893 0 0 0
1559 1 14.173554195248483 8.537556171130358 2.8426011824583726 -1 2 1
1330 1 16.069771674656124 9.772635619713244 2.017749977190474 1 1 1
1657 1 17.228789586165163 13.15287634233189 0.43740751148126655 -1 0 1
1174 1 20.159614658773698 8.92124784644798 1.4560611129217613 -3 -2 1
1001 1 20.851843426126287 10.936488519447083 2.3986832239631686 -1 1 1
1945 1 18.371532850033816 10.529210320937905 0.921530829727927 0 0 1
53 1 17.336768449864884 8.83768880535556 -0.5780587221565489 -1 0 0
1492 1 17.244094558271023 11.900024808917216 2.329680404734243 -1 1 1
393 1 18.0445691174561 8.983145336072742 3.0022991500968255 0 0 0
1675 1 0.0078508403877805 13.007856318696286 -0.9460186091727039 -2 -1 1
1057 1 4.1009782426888215 14.830555060388688 2.4387145010928335 -1 1 1
173 1 2.7272449775033047 11.675939293084104 -0.2683471342409306 -1 -1 0
282 1 2.5760544050024587 16.36353154929833 1.3125580278051387 0 0 0
1376 1 1.0547044683035967 14.663775541734955 0.6296343244372444 0 3 1
838 1 3.2700809375840465 17.328072329674242 3.504137576057336 2 0 0
1750 1 19.526376565415944 8.393498071343291 -0.8316835599268171 2 5 1
1840 1 -0.01246588773279278 17.50223158027748 1.3368854136131665 0 4 1
6 1 15.871540579528647 11.189777616039592 0.007606754809263094 0 -1 0
171 1 7.17395175115861 12.69603476311255 -0.12343744430861792 -1 -1 0
717 1 6.192903423903196 15.180875529970022 0.8432655155645867 1 -1 0
1837 1 7.673273187672338 13.540547144428004 1.9428767789184898 0 2 1
588 1 3.571960388124392 13.727482263216622 0.44880268957036584 0 -1 0
520 1 7.234323769680682 15.419794672009397 3.1938608629990775 0 0 0
272 1 8.8824834580025 15.679372016429303 1.2569777168178118 0 0 0
314 1 10.02542443920673 14.088299436552632 -0.578316197824554 0 -1 0
403 1 10.361266764973616 13.61110080500075 1.4242351435923628 0 0 0
1663 1 12.501669680782006 14.634978659902032 0.38675969930541054 -1 -1 1
1109 1 13.452945591336459 15.837183308062981 3.257445574884649 -2 2 1
3 1 10.897221905417634 15.515656539702539 2.8865995916583995 0 0 0
461 1 12.75824218806683 13.460484242499598 2.60627598745457 0 0 0
55 1 14.903106982130103 13.171015716084279 0.5826141130774929 -1 -1 0
1187 1 15.395981093006501 14.019468899677944 3.114773503479948 -1 5 0
1392 1 15.655070015685821 5.991586298563383 -0.30225924037792673 2 1 1
467 1 16.97347462725083 15.294116249843714 1.4550826088223703 1 -1 0
1343 1 17.70974693359981 14.447866117296803 3.470395934132865 1 -4 1
91 1 14.445668075127573 15.739313780158069 1.1551453996204808 1 0 0
427 1 20.691975497044034 14.707609229327378 -0.7048321763362885 0 0 0
71 1 21.638583570341197 13.121250093852407 1.4484982274601732 0 0 0
826 1 19.330135358861945 12.543325427861319 1.9498350558291655 1 -1 0
460 1 19.378187844819976 15.338605516121566 1.7910145288307846 0 -1 0
388 1 3.3437801023447338 21.05348815289537 -0.9944119782688534 0 -1 0
1517 1 1.3982628664359975 20.63461516691195 0.2467086475946696 -1 0 1
1526 1 1.6760582164631384 18.86565864820333 2.1292080622320495 2 1 1
330 1 1.4832042492732398 21.618985064863487 2.4362390827186333 1 -1 0
364 1 -0.28098981601232964 19.89398158037472 2.012602530166822 0 0 0
253 1 12.508253777067917 20.731818149634606 11.535315808458574 0 -1 0
924 1 20.112136185148913 -0.3807256415870786 9.002433430281167 0 0 0
130 1 18.392360705459524 15.796167537624529 -0.4561503746715616 0 0 0
1714 1 5.482952911442312 19.262391045533917 1.1222794360059538 -3 -1 1
65 1 5.14514528198866 17.229132326217766 2.127276656548005 1 -2 0
1563 1 7.388450658993566 17.25217364630423 1.3521329953002987 0 2 1
378 1 3.4495934401439157 18.693911090108273 0.4937202700678902 0 0 0
1482 1 4.848665542051122 19.459999197555703 3.520578904179856 1 -3 1
233 1 7.192020528650605 19.416662245544472 2.5111847357652595 0 -1 0
150 1 9.304140769193852 19.764907763752866 1.4909021609025501 0 -2 0
22 1 11.337603584688996 16.2983568097956 -0.7743272845778111 1 -1 0
532 1 12.502619094512296 17.189227303229714 1.1854418053910183 0 -1 0
144 1 10.368212095545024 17.86548255661453 1.9290801725013478 1 0 0
1773 1 13.604943974605913 19.758473285213682 0.7750548228969703 0 0 1
526 1 7.416584692640253 19.203364937428447 0.058476523204589625 0 -1 0
404 1 13.203852605277335 20.330252167898784 3.3646518043374085 0 -1 0
459 1 1.4343178613567487 18.12775395768079 -0.32946292849580006 0 -1 0
872 1 14.302073488234939 18.09499956545828 3.0879530373913155 0 -1 0
442 1 15.114867473563597 17.747597244977626 -0.09237818370201345 0 -1 0
748 1 17.39175042938959 17.573921653348627 0.8298173440612824 0 -1 0
1370 1 15.799428174474665 18.892489889668475 1.7157016033163823 -1 -1 1
417 1 17.82761002732009 19.47063649802668 3.08667271989302 0 0 0
796 1 17.257946029523424 20.422917754854176 0.8463778328147011 -1 -1 0
793 1 14.253277340452891 13.86604375607753 10.95399167960004 0 0 0
847 1 19.413343416407642 21.550638843727036 2.941819659966413 0 -1 0
180 1 18.52855475673023 16.595632787978758 3.4102479714119456 0 -1 0
1585 1 20.7023875606059 21.182214590098916 0.677176202738411 -3 1 1
315 1 20.27369727484706 16.796029238259102 0.27630180083322564 0 -1 0
27 1 19.589031251109596 18.87462258097939 1.1586443721292103 -1 -1 0
641 1 20.429152163408368 17.479754589311185 2.763125109724864 0 -1 0
569 1 3.5378561671645206 21.297555747765216 3.8743502642114116 1 -1 0
149 1 2.784169964751365 3.0055089245526654 6.319813378736849 0 0 0
158 1 0.9668555548158391 2.8444047423084444 4.198095982200286 1 0 0
179 1 3.036153157813606 3.321411279339862 3.5432267333596084 0 0 0
1775 1 21.526104911564076 3.5367268898843376 6.095659959225391 -1 0 1
1830 1 3.316786939167153 1.3432849576481558 4.840909359397234 1 4 1
59 1 3.1569129740966693 0.7080727714457926 7.726964688877754 1 -1 0
1535 1 5.431153006292962 2.127026578007461 3.616268662820336 0 1 0
225 1 7.539749614182924 1.468355287997663 3.1813172257618563 -1 0 0
1919 1 5.001474012401124 0.0458178988568238 6.044273473657117 -1 1 1
540 1 9.024105452207976 2.6613066927494966 6.983452950872673 1 0 0
1014 1 7.128454402007729 3.0537492014184853 5.512253291999283 0 5 1
110 1 4.637355312185515 3.727822486657132 5.387427012851377 0 1 0
1180 1 9.663680185836563 1.2300589448348571 5.289136450212788 -2 2 0
331 1 9.875491102105208 1.407173405069225 2.9359915615230117 0 0 0
1742 1 12.224096874497357 1.9729986371335921 4.1251650862357 3 1 1
366 1 10.910788049001951 3.5616290063890856 5.180529109806715 0 0 0
900 1 11.340377076208895 -0.2130039476209464 3.9015362392457282 0 0 0
203 1 12.92241931717389 0.6080652760840182 1.6297134023285973 0 0 0
990 1 12.219999256624645 2.4462263263029342 6.759408662928814 1 0 0
372 1 8.731952248575853 3.2737240398549114 3.6964258758937127 0 0 0
505 1 14.077207704288325 0.18549287980603713 4.768695581795738 0 0 0
1386 1 16.892055384033533 0.13332955590392204 5.385370079373403 0 3 1
348 1 14.403054760594953 2.5932966373109743 5.036119636212873 1 0 0
124 1 15.373878607174047 1.4242511511538427 2.9820425911258948 0 0 0
1061 1 16.569865780609135 2.8677028483639693 5.448651057635184 -1 -1 1
236 1 12.436459992421886 0.22214334231813138 6.357799900293063 0 0 0
345 1 19.047577043488623 21.24289756547111 5.074326626503173 0 -1 0
455 1 19.262014324479246 0.7340357694120245 6.542562853877122 0 0 0
1977 1 19.208130180371178 3.099685806984344 5.926454578980836 -1 2 1
1165 1 21.115118814314968 1.1776385120213022 5.102705701928696 -1 3 0
1152 1 18.532851068788716 1.3396255237829724 4.354039793457479 -1 -1 1
510 1 20.604775387863626 1.8425179289664668 7.857621604498997 -1 -1 0
170 1 20.415004680797267 3.169692214151462 3.869979369293863 0 0 0
713 1 17.16167547005449 1.9088765195035142 7.2391941376384885 0 0 0
1019 1 4.526560841591389 8.356887158105923 4.297845077328159 0 1 1
239 1 0.6081569964843652 5.138530793511026 4.5275303572304395 1 1 0
1291 1 2.814435890919039 5.041298222279524 5.419383416285163 2 1 1
437 1 2.5105462757245127 7.434899572771471 4.455464529764077 1 -1 0
350 1 0.041050474213432775 7.422184126796679 5.814449739994898 0 0 0
1414 1 2.510324443944763 7.2836163453256795 6.78669953931245 -2 4 1
1677 1 4.911157575756731 6.335250654867833 5.240193639448305 1 3 1
690 1 4.9571090714230195 8.251498760814517 6.595322880831183 1 0 0
126 1 6.704117958008687 5.205960921455775 5.915223207750017 0 0 0
336 1 6.635102117550535 7.933070907904028 4.9749512048782565 0 0 0
113 1 8.370821756558271 4.902803411802117 8.12389598107164 0 0 0
21 1 8.686101405340253 9.136410217165293 3.7053735499895604 0 -1 0
632 1 7.530722198727844 7.125940082803448 6.711005956991846 0 1 0
1023 1 13.219718149581437 4.6145428305449485 4.103759152397104 0 -2 1
77 1 9.327872307167286 4.913989203765854 5.790209963092261 0 -1 0
1508 1 11.401189303250586 6.32001451051298 6.070348910502376 0 3 1
1685 1 9.512523209824472 7.800653036262283 5.315480075826407 1 1 1
1090 1 12.790869539982717 4.57290652670147 6.871747113948939 -3 1 0
1587 1 9.588178137266421 7.417532454419007 2.3521782878402395 0 0 1
542 1 14.013363807471835 3.0806015978507206 2.1985753616391848 -1 0 0
454 1 15.047127100190279 4.695186755181256 6.156886215398904 0 0 0
231 1 13.97049394673637 6.605844764524144 5.2281878365733325 0 0 0
548 1 12.049489855805563 6.382567990549598 3.275143266951903 0 0 0
1141 1 15.93835163921141 4.114144262087583 3.618080462252858 -2 2 1
1262 1 16.18750838717547 6.825998852237017 6.832103303016789 3 0 0
1210 1 14.74346112526842 6.28429596984519 3.031251207932633 3 0 1
1478 1 0.13327492179090128 7.277712946552004 3.486907660724256 0 2 1
585 1 18.6363066476452 6.980922077085418 5.3985640483842685 0 -1 0
549 1 18.652764472056205 4.6161132127070745 4.112161676690249 0 0 0
1792 1 20.498011294444034 5.634694442044814 5.248862348515511 -1 -1 1
511 1 20.231979082483655 8.094235567307603 7.219887462007966 0 0 0
553 1 16.950742865388264 6.086437747648684 4.146846591133233 -1 1 0
205 1 0.992923999959068 9.78001412504288 4.609610884497166 1 -1 0
177 1 2.2754276249160417 10.277995518428002 2.7170336691484103 0 -1 0
1420 1 2.347523815626894 11.897170818995251 5.211779007189575 -1 3 1
146 1 2.6663709237358413 9.42713351520841 6.171041946874929 -1 0 0
658 1 4.119394103154979 10.59278169873148 3.7889845528031367 1 0 0
232 1 3.505717111790057 11.197580440024984 7.338845528047022 0 -1 0
301 1 7.973450978431639 10.092967132073868 6.1104841489815485 1 0 0
1694 1 5.615111749911826 10.386695966927801 6.027316588378243 4 1 1
317 1 5.521678843232177 11.500695463514683 8.27509556875559 0 0 0
365 1 6.3509051208898075 8.81063937523175 8.31419166282307 1 -1 0
160 1 6.826516746811846 12.550699612339828 6.752268562673092 0 -2 0
260 1 10.387337900714547 9.813259866663675 5.23254118310902 0 0 0
508 1 12.28603718797327 8.29302416834531 4.8278224236254905 -1 0 0
212 1 11.595520945695826 8.83119242449656 2.7375771340661674 0 -1 0
817 1 11.108572206578879 8.953434545516911 7.250118804570427 0 -1 0
987 1 7.884346686391078 10.69538135167968 8.158825207188375 -1 0 0
1806 1 12.748318653126315 10.327950795233848 6.169594147476215 0 1 1
1718 1 16.120767378590216 7.994431130644914 4.559625310367825 -1 0 1
400 1 14.758863894666526 8.695840134541145 6.3752518058138445 0 0 0
326 1 17.101142186141395 8.860658233283216 6.834046060321276 0 -1 0
1903 1 14.42744087035782 10.328331060370546 4.419487670155567 -1 -2 0
166 1 17.000606431031976 10.32830483295982 4.328612352641105 0 -1 0
1498 1 17.553011965015727 11.181279928418899 6.482739735099033 -2 2 1
646 1 14.718909701163382 11.779128391960324 2.5944683313141303 0 0 0
107 1 14.963205258966388 11.674606948653322 6.898977805750701 -1 0 0
1969 1 21.06585091323302 10.21367790548222 6.0240576159241295 -1 3 1
87 1 -0.31289328275839523 11.889985457932687 4.242173400339676 1 0 0
1999 1 20.87867846599834 9.177749736720703 3.947605709282601 0 1 1
1192 1 18.652601628551487 11.846526931780884 4.218488146257387 -2 -1 0
1258 1 18.976521384320762 9.445106605058907 5.389267236405216 2 4 1
704 1 19.734496718151085 11.877334129796491 6.798371877716601 0 1 0
406 1 1.4717837618793612 13.08638424730469 2.692035308363936 1 0 0
1029 1 1.9156968050766667 15.438066822099524 3.2255414631153023 2 1 1
1989 1 3.343146720675177 14.047254187012133 4.725169719645305 -1 3 1
1857 1 2.1292321326414974 16.52944769523178 5.522183754866162 -2 3 1
716 1 0.8966827420416581 13.9505328596643 4.89285225079052 1 0 0
965 1 3.294954872600759 14.886121484176838 7.155532186318698 0 0 0
54 1 0.7186324500797165 14.97336585791422 7.402018561986582 0 0 0
779 1 5.124352692641028 15.838836168187795 4.800287595548842 1 0 0
1034 1 7.60065194169359 14.247707948129133 5.144679785541277 -1 3 1
318 1 6.639541137745934 17.517958761488444 3.905734551170079 0 -1 0
383 1 9.798075638273918 13.665962894379858 3.5824568293772705 1 0 0
590 1 4.5638005920205655 12.742042939980227 5.971243563955702 1 -1 0
1350 1 5.599475869020501 14.443910680822144 6.804316081661938 1 1 1
440 1 4.3501440669084745 16.763722321188894 6.573793755531948 1 -1 0
689 1 7.188406853798155 16.464372042077763 5.846741227500988 1 0 0
1598 1 10.996693308244774 12.090128989075255 5.121254521478672 0 0 1
758 1 8.97628624351015 12.310888399575935 5.794495478521139 1 0 0
248 1 11.33815551640113 13.462750009989294 7.041253494448311 0 0 0
664 1 11.68422375869674 14.465364038681425 4.592479382299846 0 0 0
46 1 9.462982091425049 15.085092653079966 6.031475113994547 1 -1 0
264 1 9.101721410146139 12.906935176220008 8.240018188603917 1 -1 0
194 1 13.589575463808767 14.232979814193065 7.1278879765110315 0 -1 0
1238 1 16.220869426601524 16.55252535955293 3.2830179603654566 -1 -1 0
1393 1 15.105173036359446 14.637961397367944 5.171770096664955 -1 1 1
420 1 16.070360414117637 12.43996700386001 4.7286748212137955 -1 0 0
125 1 17.127676018598237 16.348095924420576 5.769074906951561 0 0 0
281 1 13.432406152933885 12.585315605055756 5.169968639204351 0 -1 0
785 1 16.405842122233324 14.256516327050601 7.039329985855764 0 0 0
473 1 20.146151009226585 13.616610392567178 4.334519485073369 0 0 0
1669 1 21.611173453433814 15.250321801924049 3.0243677304549044 -2 1 1
162 1 18.007699786534538 13.570215986206984 5.763533663918345 -1 0 0
1664 1 -0.40789958122395226 16.172742891303912 5.6100211851967305 4 0 1
1801 1 20.473135066281408 16.112673005075507 8.441317826095762 -5 1 1
104 1 19.57273396086154 17.665350624763832 7.0462899208920735 -1 0 0
1158 1 19.490615599918698 15.960590388057243 5.330036986624784 2 1 0
516 1 0.009165590140782331 17.5015393967316 7.456238612972957 0 -1 0
562 1 1.8591126670326616 19.451105282570715 4.255209904947157 1 -1 0
851 1 1.076134173865183 -0.31078158455684923 4.50377563718762 0 1 0
503 1 0.8071584530409 17.5954215003402 3.712258724480118 2 -1 0
279 1 2.155061660687663 18.8600368398818 6.520518879660371 1 -1 0
915 1 21.257892221999924 18.530708424054154 5.105104707623101 -1 -2 0
905 1 0.3908757686886619 19.81195750131264 6.856586258313075 1 -1 0
1378 1 8.816969607494999 21.522897191896575 3.6549810829719656 2 0 1
341 1 2.3509127995443104 21.316626341479797 6.05914524390304 0 -1 0
184 1 4.158520279016431 19.909038529096804 5.748611198756814 1 -1 0
221 1 6.945891328355353 19.905336702136097 4.872655682670527 0 -1 0
845 1 5.70001266943169 20.568264775404415 7.459984621606882 0 0 0
1235 1 9.123633983526359 16.933136667827725 4.0810785153484535 5 -1 1
368 1 11.171986881013702 17.934667450428528 5.534510151311992 0 0 0
156 1 10.59830234283428 19.80240849508113 3.641728835075904 0 -1 0
952 1 8.98008894820181 18.718807774825777 5.310318579135354 0 0 0
355 1 12.299318387921632 18.315296067559416 3.3992477471504934 1 0 0
351 1 10.328094259252152 21.34991924585053 5.832184812975077 0 -1 0
23 1 16.215116078469258 20.614533321637886 4.131076790424492 0 -1 0
1020 1 16.081612273456187 18.408308775714815 4.956754844087995 -1 2 1
992 1 15.129670714417111 21.137636574685402 6.672298161709632 -1 0 0
680 1 13.815725408902708 17.253415776948636 5.095257559606517 0 0 0
72 1 14.341720887581884 18.956281970857262 7.113345650702271 1 0 0
1287 1 12.516753393337549 19.972138497099934 5.570213756653665 0 2 0
802 1 12.144592574470005 17.74976717762587 7.543283020247534 -1 -1 0
875 1 15.011430984477597 16.789255478880428 7.085557494826819 0 -1 0
337 1 18.64950264281864 18.59707591631893 5.040653163572143 0 -1 0
2012 1 17.24918866904514 17.862857650658448 7.482236518405424 -1 -2 1
475 1 17.291385551235827 19.879842152107983 6.444721419377168 1 0 0
1308 1 21.178425075388105 20.692546457395913 4.144621951023698 -3 0 1
76 1 17.79812735158511 21.63326025553549 8.11780063384826 0 -1 0
764 1 19.768726181040947 20.27827347636373 7.14909112332051 1 -1 0
174 1 -0.09367453053761438 20.41167570610837 9.447869001271092 0 -1 0
1686 1 3.019202737353434 3.329468661640579 8.988459108438219 1 3 1
679 1 3.3863189377558034 5.1326938025593565 7.518337401839911 0 0 0
213 1 0.9710512479808511 1.5812507105908762 6.0989325461665835 1 1 0
477 1 0.8076302098562824 2.8446077539153154 10.797595023092157 1 0 0
1946 1 2.301647420506164 1.2625324309970953 9.922924653378848 0 6 1
293 1 1.0827970523195305 5.140152811858084 7.181894156724068 0 -1 0
541 1 12.648751382251467 20.847848747013963 7.999811331964857 0 -1 0
1011 1 18.329697677178245 19.048506581617104 8.875038007942909 -6 0 1
1963 1 5.013065417897319 2.05032548519965 7.430536084575795 0 1 1
1252 1 7.312773605620319 0.6179326743493656 5.3779888625207075 5 0 1
576 1 5.036364725123445 2.0856064242034247 9.92693587292925 1 0 0
857 1 6.94057053449394 2.5090265241358995 7.894130790669985 0 0 0
741 1 4.487491437112001 4.980985741028167 9.818179509985763 1 0 0
499 1 8.978590862538763 20.30368217037674 9.962964778014081 0 0 0
93 1 12.18278816832398 19.10002283240678 9.43149688429097 1 0 0
544 1 12.69558007529947 3.057770592014331 11.624814737742815 0 0 0
1416 1 8.714246785524201 2.8257801359385515 9.448093132217148 2 0 1
24 1 6.9461126263101 1.6665077771323515 11.24431143415633 1 1 0
1067 1 11.690271629533756 21.099865249446573 -0.3443520548976744 3 -1 1
1858 1 10.80349895798203 1.6709330222521817 8.976159482178394 1 -1 1
422 1 13.096008224057114 3.6816821408838916 8.890936359928968 0 0 0
1894 1 13.332749636623863 1.082279256806603 8.562285341273892 -1 3 0
255 1 8.313835500577577 0.3825893602489635 10.005443017552059 1 1 0
243 1 14.902156421210357 2.6502946913180825 7.328773536397714 0 1 0
578 1 17.71528843800901 5.134791362533877 6.2538110210537265 0 0 0
1724 1 13.992725579890159 21.22708159823778 10.06275231249962 3 4 1
1971 1 15.073749356428847 4.301728118420769 9.758328905801884 -3 3 0
484 1 16.619798062845618 2.2465065767445833 9.64165680684603 0 0 0
943 1 16.598865254311455 4.309150904263954 8.051778132242312 0 1 0
979 1 15.63408254943464 0.1969043545494228 9.029642753146776 0 0 0
702 1 18.989052299396654 1.4409899627981644 9.378495017251245 0 1 0
603 1 -0.08507592462354036 0.928676814536576 9.110136388359516 0 -1 0
1026 1 11.532387485110135 18.863482161867708 0.2442570363093739 -1 0 0
439 1 19.097248384273833 3.605873977535997 8.336856362688112 0 0 0
1941 1 1.03126752532894 2.6099972589376415 8.007243381927475 -2 2 1
1219 1 20.642461851824557 2.813189745345333 10.14578942252972 1 -1 0
1306 1 20.11845352065304 21.483887947091816 11.33742771003654 -2 0 0
1207 1 17.861531779678323 20.782128772062222 10.361929584985345 -1 3 0
191 1 2.1372968412030358 6.676753191431333 9.141186945464549 1 0 0
30 1 -0.27785956787183436 6.810168132238853 10.838709750125961 0 0 0
218 1 1.7258590997163434 4.788972339417226 10.575038608333257 0 0 0
1625 1 0.6897975679358708 10.11685819230186 7.417943227493312 2 3 1
596 1 16.058754644735373 20.02998650905471 8.730615123497744 0 -1 0
1545 1 5.742867048705456 4.493145450957224 7.909103477639645 0 0 1
195 1 6.918501435165323 4.011368515585783 9.991794374996841 -1 0 0
635 1 4.473755786974111 6.9203565418637085 8.355774302252836 0 0 0
1651 1 10.195292821944076 1.918006627836109 11.684839702576621 1 -3 0
650 1 6.693788382639802 6.2411850252855485 9.176735843882218 0 1 0
676 1 10.959187350404399 4.020672420767672 10.283061478721008 0 0 0
677 1 10.857098471805578 4.5498479978919235 7.819913297673599 0 0 0
1725 1 9.775611452324602 6.765632288418667 7.453295774308028 -2 1 1
119 1 14.833245429022375 5.7862250553950165 8.134951835372847 0 0 0
1928 1 9.641122693644725 6.089578400761043 9.815314567351713 -2 1 1
375 1 12.10992992597959 6.080455395963203 9.208375043043551 0 0 0
210 1 12.824378054391032 7.182149963705589 7.418372366379051 1 0 0
116 1 17.331221813976164 8.719821629518972 9.665619611114302 0 0 0
1075 1 17.7347028406057 6.354159333440661 8.59732319357513 -4 3 1
1953 1 15.397973860792655 8.132857011986662 8.790794703582021 -4 0 1
986 1 13.929048960730059 5.655373334161155 11.060812762483794 0 1 0
159 1 15.924170503570023 7.693484453304075 11.081230778356288 0 0 0
1405 1 16.158147118682272 5.533597876759522 11.482589588728098 1 4 1
145 1 5.774770341533377 21.698098812622835 -0.09998646093503416 0 -1 0
1870 1 17.559062299248154 19.124886667265557 11.741637285615608 0 -2 1
18 1 20.020642359326608 5.70124796569653 7.88943388032493 -1 0 0
1251 1 0.16120195334056664 6.918090429031042 8.039567111943564 1 5 1
790 1 18.341380732511965 3.789390817120963 10.351773871389687 0 -1 0
818 1 -0.25167469175234614 4.519476793240636 8.940371808428557 1 0 0
854 1 10.658532531511712 19.59293296022163 7.634168583384357 0 0 0
557 1 10.895045677283871 21.173178991614513 9.6681746899662 -1 -1 0
478 1 2.2155828305606207 10.957107617081979 9.30658862553066 0 0 0
421 1 12.212139797046325 0.9444411021543526 11.077694174582817 0 1 0
787 1 3.5916777881488837 7.056772625413704 10.722421686059283 1 0 0
1243 1 0.9159658019377344 8.694717916050683 9.330353980214689 -3 3 1
556 1 3.5068763613022496 9.015669772259109 8.739567187019853 0 0 0
1578 1 0.013033306798349742 12.18237125664638 6.880761182554477 1 2 1
1933 1 3.6843414134201 12.686016292490613 9.54794690299621 2 1 0
1655 1 2.025294064347032 13.010529641060664 7.452781971042695 -3 -1 1
357 1 5.3024117484723545 14.275691478714025 -0.9014893678241994 1 -1 0
1667 1 8.49436463146709 8.238063373287432 8.80751616104593 -1 1 0
242 1 9.809779193004134 9.25440862735206 11.197693344382197 0 -1 0
438 1 5.573898087458111 8.27491990420088 11.358743936517083 0 -1 0
571 1 7.249801315245389 9.685586886458792 10.38640723261767 0 0 0
155 1 4.921874206138006 10.444030637512613 10.046526821666605 1 -1 0
624 1 10.790122307050423 6.530190611005961 11.679607723281071 1 -1 0
976 1 10.511038891456078 12.514544296725274 10.240412931401716 0 0 0
638 1 13.55023653712715 7.768171910875013 10.200725470196973 1 0 0
40 1 8.194192785867164 7.493756652052128 11.288023531022322 0 0 0
1906 1 10.970895030936575 8.284447810297337 9.295075262674587 -2 1 0
1876 1 12.044842610666885 10.266963326397502 9.985211461140828 0 4 0
674 1 11.69386799954755 11.430208352989064 7.78274156315144 0 0 0
652 1 10.060411353294176 10.576327749523069 8.99881263915065 -1 0 0
775 1 13.631600183677396 12.193893533333961 8.921146001735769 -1 -1 0
443 1 13.370979204459658 9.456544904189279 8.277190478142124 0 0 0
1394 1 18.439461916903 12.50443851240374 11.257914951281784 0 -4 1
506 1 14.656663612443495 9.919988411086376 10.357461406950431 -1 -1 0
554 1 15.99765217835173 10.374310442542832 8.767451386398015 -1 0 0
176 1 15.873199408453312 13.229370860453997 9.272973777784996 -1 0 0
1534 1 17.904409298854254 11.298624573991383 9.47643024105813 1 1 0
471 1 19.53176908817442 9.588065533553008 10.40484959292976 0 0 0